Protein in INSANE! Membrane UpperLeaflet>POPC=1.0 LowerLeaflet>POPC=1.0
244992
    1AU     AUC    1   3.197  34.040   7.507
    1AU     AUC    2   3.469  34.025   7.347
    1AU     AUC    3   3.463  34.022   7.674
    1AU     AUC    4   2.935  34.054   7.336
    1AU     AUC    5   2.926  34.056   7.670
    1AU     AUC    6   3.049  34.316   7.500
    1AU     AUC    7   3.380  34.299   7.508
    1AU     AUC    8   3.010  33.781   7.507
    1AU     AUC    9   3.339  33.760   7.508
    1AU     AUC   10   3.179  33.876   7.777
    1AU     AUC   11   3.206  34.205   7.774
    1AU     AUC   12   3.195  33.875   7.241
    1AU     AUC   13   3.217  34.206   7.237
    1AU     AUC   14   3.739  34.015   7.197
    1AU     AUC   15   3.745  33.999   7.510
    1AU     AUC   16   3.722  33.999   7.829
    1AU     AUC   17   2.687  34.057   7.160
    1AU     AUC   18   2.653  34.064   7.496
    1AU     AUC   19   2.665  34.075   7.828
    1AU     AUC   20   2.906  34.583   7.492
    1AU     AUC   21   3.234  34.588   7.497
    1AU     AUC   22   3.548  34.551   7.512
    1AU     AUC   23   2.832  33.534   7.507
    1AU     AUC   24   3.153  33.492   7.502
    1AU     AUC   25   3.472  33.484   7.516
    1AU     AUC   26   3.172  33.720   8.038
    1AU     AUC   27   3.192  34.041   8.058
    1AU     AUC   28   3.210  34.368   8.021
    1AU     AUC   29   3.205  33.712   6.988
    1AU     AUC   30   3.234  34.044   6.965
    1AU     AUC   31   3.240  34.365   6.973
    1AU     AUC   32   3.458  33.857   7.946
    1AU     AUC   33   3.487  34.189   7.954
    1AU     AUC   34   3.478  33.865   7.072
    1AU     AUC   35   3.505  34.210   7.077
    1AU     AUC   36   2.904  33.890   7.963
    1AU     AUC   37   2.924  34.221   7.945
    1AU     AUC   38   2.930  33.880   7.068
    1AU     AUC   39   2.948  34.213   7.050
    1AU     AUC   40   3.660  34.279   7.355
    1AU     AUC   41   3.659  34.283   7.685
    1AU     AUC   42   2.779  34.338   7.316
    1AU     AUC   43   2.771  34.346   7.666
    1AU     AUC   44   3.624  33.740   7.349
    1AU     AUC   45   3.603  33.727   7.674
    1AU     AUC   46   2.734  33.790   7.336
    1AU     AUC   47   2.732  33.790   7.680
    1AU     AUC   48   3.057  34.495   7.766
    1AU     AUC   49   3.398  34.476   7.778
    1AU     AUC   50   2.988  33.611   7.788
    1AU     AUC   51   3.313  33.581   7.772
    1AU     AUC   52   3.060  34.483   7.216
    1AU     AUC   53   3.391  34.484   7.230
    1AU     AUC   54   3.005  33.601   7.229
    1AU     AUC   55   3.336  33.587   7.233
    1AU    AUSL   56   3.699  33.965   8.124
    1AU    AUSL   57   3.434  33.597   8.065
    1AU     AUL   58   3.688  33.613   8.300
    1AU       S   59   3.770  33.113   8.162
    1AU     LIG   60   3.733  32.780   8.428
    1AU     LIG   61   3.819  32.469   8.719
    1AU     LIG   62   4.090  32.245   8.984
    1AU     LIG   63   4.207  32.042   9.371
    1AU     LIG   64   4.419  31.758   9.671
    1AU       S   65   4.047  33.956   8.465
    1AU     LIG   66   4.180  34.053   8.904
    1AU     LIG   67   4.092  33.829   9.318
    1AU     LIG   68   4.218  33.675   9.741
    1AU     LIG   69   4.578  33.715  10.050
    1AU     LIG   70   4.888  33.932  10.334
    1AU    AUSL   71   3.378  33.876   8.267
    1AU    AUSL   72   3.025  34.208   8.272
    1AU     AUL   73   3.273  34.075   8.553
    1AU       S   74   3.734  33.879   8.719
    1AU     LIG   75   3.660  33.634   9.097
    1AU     LIG   76   3.740  33.436   9.505
    1AU     LIG   77   3.890  33.300   9.917
    1AU     LIG   78   3.891  33.298  10.380
    1AU     LIG   79   3.819  33.274  10.844
    1AU       S   80   2.793  34.129   8.747
    1AU     LIG   81   2.550  34.067   9.156
    1AU     LIG   82   2.504  33.886   9.593
    1AU     LIG   83   2.360  33.918  10.036
    1AU     LIG   84   2.244  34.217  10.375
    1AU     LIG   85   2.260  34.419  10.802
    1AU    AUSL   86   3.353  34.249   8.226
    1AU    AUSL   87   3.791  34.280   7.994
    1AU     AUL   88   3.630  34.214   8.352
    1AU       S   89   3.351  34.601   8.577
    1AU     LIG   90   3.636  34.707   8.935
    1AU     LIG   91   3.925  34.694   9.318
    1AU     LIG   92   3.893  34.684   9.806
    1AU     LIG   93   3.860  34.714  10.285
    1AU     LIG   94   3.772  34.889  10.726
    1AU       S   95   4.074  34.459   8.297
    1AU     LIG   96   4.453  34.345   8.499
    1AU     LIG   97   4.747  34.570   8.761
    1AU     LIG   98   4.914  34.824   9.104
    1AU     LIG   99   5.101  35.129   9.397
    1AU     LIG  100   5.504  35.316   9.558
    1AU    AUSL  101   3.690  34.088   6.899
    1AU    AUSL  102   3.549  34.476   6.933
    1AU     AUL  103   3.687  34.375   6.622
    1AU       S  104   3.838  33.935   6.380
    1AU     LIG  105   4.152  33.681   6.180
    1AU     LIG  106   4.227  33.591   5.740
    1AU     LIG  107   4.254  33.607   5.277
    1AU     LIG  108   4.534  33.701   4.919
    1AU     LIG  109   5.001  33.679   4.804
    1AU       S  110   4.006  34.738   6.722
    1AU     LIG  111   4.199  34.791   6.293
    1AU     LIG  112   4.439  34.982   5.932
    1AU     LIG  113   4.703  35.248   5.657
    1AU     LIG  114   4.919  35.574   5.420
    1AU     LIG  115   4.846  35.798   5.017
    1AU    AUSL  116   3.460  33.858   6.775
    1AU    AUSL  117   3.734  33.735   7.028
    1AU     AUL  118   3.945  33.917   6.863
    1AU       S  119   3.909  33.460   6.630
    1AU     LIG  120   4.141  33.162   6.304
    1AU     LIG  121   4.443  32.788   6.266
    1AU     LIG  122   4.798  32.540   6.048
    1AU     LIG  123   5.269  32.539   5.891
    1AU     LIG  124   5.606  32.391   5.600
    1AU       S  125   3.633  33.770   6.373
    1AU     LIG  126   3.734  33.403   6.088
    1AU     LIG  127   3.806  33.331   5.616
    1AU     LIG  128   3.824  33.359   5.127
    1AU     LIG  129   3.869  33.447   4.654
    1AU     LIG  130   3.951  33.347   4.189
    1AU    AUSL  131   3.395  34.208   6.747
    1AU    AUSL  132   3.086  33.876   6.801
    1AU     AUL  133   3.203  34.004   6.505
    1AU       S  134   2.685  33.876   6.347
    1AU     LIG  135   2.598  33.504   6.078
    1AU     LIG  136   2.571  33.443   5.615
    1AU     LIG  137   2.383  33.420   5.178
    1AU     LIG  138   2.254  33.176   4.788
    1AU     LIG  139   2.256  33.072   4.321
    1AU       S  140   3.625  34.054   6.241
    1AU     LIG  141   3.776  33.851   5.847
    1AU     LIG  142   3.791  33.807   5.385
    1AU     LIG  143   3.940  33.891   4.946
    1AU     LIG  144   4.024  34.264   4.652
    1AU     LIG  145   3.978  34.583   4.285
    1AU    AUSL  146   2.715  34.113   8.149
    1AU    AUSL  147   2.933  34.479   8.049
    1AU     AUL  148   2.829  34.466   8.373
    1AU       S  149   2.522  34.125   8.618
    1AU     LIG  150   2.321  33.749   8.814
    1AU     LIG  151   2.200  33.639   9.258
    1AU     LIG  152   2.025  33.695   9.702
    1AU     LIG  153   1.716  33.784  10.067
    1AU     LIG  154   1.340  33.657  10.372
    1AU       S  155   2.468  34.807   8.211
    1AU     LIG  156   2.503  35.073   8.612
    1AU     LIG  157   2.458  35.359   8.986
    1AU     LIG  158   2.192  35.465   9.351
    1AU     LIG  159   2.044  35.533   9.802
    1AU     LIG  160   1.975  35.766  10.223
    1AU    AUSL  161   3.019  33.855   8.269
    1AU    AUSL  162   2.599  33.800   7.969
    1AU     AUL  163   2.667  33.801   8.276
    1AU       S  164   2.303  33.466   8.300
    1AU     LIG  165   1.887  33.285   8.321
    1AU     LIG  166   1.662  32.897   8.406
    1AU     LIG  167   1.466  32.493   8.522
    1AU     LIG  168   1.255  32.233   8.841
    1AU     LIG  169   1.018  32.272   9.234
    1AU       S  170   2.826  33.861   8.738
    1AU     LIG  171   2.716  33.586   9.110
    1AU     LIG  172   2.575  33.380   9.506
    1AU     LIG  173   2.403  33.408   9.936
    1AU     LIG  174   2.314  33.207  10.356
    1AU     LIG  175   2.276  33.060  10.810
    1AU    AUSL  176   2.774  34.019   6.836
    1AU    AUSL  177   2.895  33.607   6.932
    1AU     AUL  178   3.025  33.650   6.615
    1AU       S  179   2.512  34.013   6.503
    1AU     LIG  180   2.201  33.780   6.228
    1AU     LIG  181   2.127  33.654   5.769
    1AU     LIG  182   1.923  33.602   5.334
    1AU     LIG  183   1.640  33.563   4.946
    1AU     LIG  184   1.346  33.776   4.632
    1AU       S  185   2.535  33.475   6.603
    1AU     LIG  186   2.297  33.122   6.347
    1AU     LIG  187   1.997  32.737   6.348
    1AU     LIG  188   1.677  32.441   6.146
    1AU     LIG  189   1.524  32.311   5.706
    1AU     LIG  190   1.582  32.237   5.228
    1AU    AUSL  191   3.054  34.224   6.761
    1AU    AUSL  192   2.654  34.332   6.990
    1AU     AUL  193   2.825  34.396   6.641
    1AU       S  194   2.334  34.514   6.698
    1AU     LIG  195   2.053  34.810   6.459
    1AU     LIG  196   1.983  35.041   6.047
    1AU     LIG  197   1.746  35.064   5.622
    1AU     LIG  198   1.342  35.149   5.375
    1AU     LIG  199   1.111  35.336   4.997
    1AU       S  200   2.758  34.095   6.258
    1AU     LIG  201   2.544  33.961   5.851
    1AU     LIG  202   2.428  33.893   5.394
    1AU     LIG  203   2.439  33.927   4.914
    1AU     LIG  204   2.426  34.178   4.485
    1AU     LIG  205   2.347  34.393   4.055
    1AU    AUSL  206   3.861  34.434   7.490
    1AU    AUSL  207   3.836  34.335   7.129
    1AU     AUL  208   3.920  34.744   7.403
    1AU       S  209   4.128  34.488   6.911
    1AU     LIG  210   4.484  34.484   6.637
    1AU     LIG  211   4.707  34.677   6.272
    1AU     LIG  212   4.968  34.929   5.963
    1AU     LIG  213   5.223  35.215   5.681
    1AU     LIG  214   5.405  35.385   5.289
    1AU       S  215   4.375  34.505   7.342
    1AU     LIG  216   4.881  34.611   7.394
    1AU     LIG  217   5.346  34.631   7.576
    1AU     LIG  218   5.787  34.818   7.624
    1AU     LIG  219   5.976  35.172   7.870
    1AU     LIG  220   6.063  35.649   7.817
    1AU    AUSL  221   3.987  34.113   7.361
    1AU    AUSL  222   3.914  33.830   7.656
    1AU     AUL  223   4.235  33.957   7.690
    1AU       S  224   4.377  34.203   7.241
    1AU     LIG  225   4.847  34.171   7.116
    1AU     LIG  226   5.288  34.391   7.122
    1AU     LIG  227   5.721  34.609   7.150
    1AU     LIG  228   6.148  34.644   6.916
    1AU     LIG  229   6.526  34.606   6.615
    1AU       S  230   4.348  33.468   7.572
    1AU     LIG  231   4.752  33.323   7.715
    1AU     LIG  232   5.049  33.021   7.822
    1AU     LIG  233   5.515  32.992   7.885
    1AU     LIG  234   6.000  33.036   7.968
    1AU     LIG  235   6.423  32.895   8.169
    1AU    AUSL  236   3.953  34.175   7.706
    1AU    AUSL  237   3.711  34.577   7.784
    1AU     AUL  238   4.052  34.507   7.783
    1AU       S  239   4.039  34.758   8.219
    1AU     LIG  240   4.391  34.879   8.526
    1AU     LIG  241   4.683  35.188   8.765
    1AU     LIG  242   4.873  35.657   8.678
    1AU     LIG  243   5.074  36.111   8.697
    1AU     LIG  244   4.909  36.518   8.898
    1AU       S  245   4.471  34.357   7.528
    1AU     LIG  246   4.798  34.416   7.877
    1AU     LIG  247   5.255  34.343   8.022
    1AU     LIG  248   5.709  34.410   7.939
    1AU     LIG  249   6.091  34.662   8.022
    1AU     LIG  250   6.455  34.959   8.077
    1AU    AUSL  251   2.609  34.558   7.507
    1AU    AUSL  252   2.608  34.373   7.937
    1AU     AUL  253   2.306  34.565   7.714
    1AU       S  254   2.327  34.516   8.234
    1AU     LIG  255   2.179  34.670   8.644
    1AU     LIG  256   2.077  35.011   8.958
    1AU     LIG  257   1.813  35.100   9.343
    1AU     LIG  258   1.403  35.232   9.536
    1AU     LIG  259   1.035  35.536   9.516
    1AU       S  260   2.447  35.007   7.469
    1AU     LIG  261   2.092  35.323   7.467
    1AU     LIG  262   1.663  35.531   7.513
    1AU     LIG  263   1.219  35.619   7.395
    1AU     LIG  264   0.811  35.810   7.352
    1AU     LIG  265   0.367  35.960   7.459
    1AU    AUSL  266   2.506  34.234   7.282
    1AU    AUSL  267   2.745  34.632   7.198
    1AU     AUL  268   2.379  34.536   7.218
    1AU       S  269   2.143  34.116   6.925
    1AU     LIG  270   1.810  34.450   6.796
    1AU     LIG  271   1.349  34.627   6.801
    1AU     LIG  272   0.877  34.766   6.792
    1AU     LIG  273   0.411  34.870   6.847
    1AU     LIG  274   0.035  35.093   6.667
    1AU       S  275   2.455  34.973   6.965
    1AU     LIG  276   2.249  35.265   6.660
    1AU     LIG  277   2.160  35.512   6.267
    1AU     LIG  278   2.038  35.967   6.133
    1AU     LIG  279   1.768  36.368   6.020
    1AU     LIG  280   1.389  36.603   5.872
    1AU    AUSL  281   2.467  34.238   7.660
    1AU    AUSL  282   2.417  33.913   7.330
    1AU     AUL  283   2.195  34.275   7.431
    1AU       S  284   1.947  33.833   7.358
    1AU     LIG  285   1.497  33.784   7.261
    1AU     LIG  286   1.124  33.554   7.401
    1AU     LIG  287   0.701  33.395   7.313
    1AU     LIG  288   0.244  33.463   7.254
    1AU     LIG  289  44.813  33.403   7.133
    1AU       S  290   2.078  34.165   7.971
    1AU     LIG  291   1.633  34.314   8.065
    1AU     LIG  292   1.146  34.298   8.051
    1AU     LIG  293   0.774  34.554   8.195
    1AU     LIG  294   0.477  34.877   8.317
    1AU     LIG  295   0.079  34.990   8.194
    1AU    AUSL  296   3.800  33.519   7.560
    1AU    AUSL  297   3.739  33.680   7.923
    1AU     AUL  298   4.062  33.703   7.920
    1AU       S  299   4.162  33.293   7.592
    1AU     LIG  300   4.386  32.945   7.726
    1AU     LIG  301   4.719  32.695   7.546
    1AU     LIG  302   5.140  32.571   7.618
    1AU     LIG  303   5.516  32.410   7.844
    1AU     LIG  304   5.814  32.073   7.952
    1AU       S  305   3.985  33.221   8.057
    1AU     LIG  306   4.206  32.829   8.220
    1AU     LIG  307   4.313  32.531   8.578
    1AU     LIG  308   4.590  32.280   8.879
    1AU     LIG  309   4.951  32.313   9.193
    1AU     LIG  310   5.347  32.222   9.455
    1AU    AUSL  311   3.932  33.776   7.311
    1AU    AUSL  312   3.612  33.480   7.244
    1AU     AUL  313   3.912  33.432   7.181
    1AU       S  314   4.365  33.572   7.340
    1AU     LIG  315   4.623  33.160   7.259
    1AU     LIG  316   5.058  32.970   7.266
    1AU     LIG  317   5.470  33.101   7.109
    1AU     LIG  318   5.911  32.939   7.040
    1AU     LIG  319   6.307  33.149   6.761
    1AU       S  320   3.861  33.239   6.718
    1AU     LIG  321   4.053  32.809   6.676
    1AU     LIG  322   4.215  32.388   6.537
    1AU     LIG  323   4.572  32.139   6.332
    1AU     LIG  324   4.863  31.762   6.270
    1AU     LIG  325   5.152  31.443   6.055
    1AU    AUSL  326   2.535  33.613   7.509
    1AU    AUSL  327   2.601  33.796   7.053
    1AU     AUL  328   2.356  33.543   7.243
    1AU       S  329   2.329  33.638   6.739
    1AU     LIG  330   1.939  33.438   6.540
    1AU     LIG  331   1.630  33.064   6.504
    1AU     LIG  332   1.312  32.697   6.432
    1AU     LIG  333   0.861  32.570   6.266
    1AU     LIG  334   0.656  32.496   5.850
    1AU       S  335   1.937  33.615   7.507
    1AU     LIG  336   1.608  33.297   7.390
    1AU     LIG  337   1.199  33.051   7.431
    1AU     LIG  338   0.801  32.953   7.648
    1AU     LIG  339   0.393  32.754   7.792
    1AU     LIG  340   0.002  32.572   7.650
    1AU    AUSL  341   2.432  33.903   7.683
    1AU    AUSL  342   2.679  33.487   7.808
    1AU     AUL  343   2.343  33.579   7.804
    1AU       S  344   2.382  33.226   8.159
    1AU     LIG  345   2.082  32.850   8.097
    1AU     LIG  346   1.790  32.468   8.107
    1AU     LIG  347   1.645  32.053   8.286
    1AU     LIG  348   1.423  31.799   8.600
    1AU     LIG  349   1.079  31.734   8.875
    1AU       S  350   1.945  33.846   7.611
    1AU     LIG  351   1.498  33.935   7.746
    1AU     LIG  352   1.045  33.833   7.823
    1AU     LIG  353   0.820  33.433   7.821
    1AU     LIG  354   0.379  33.266   7.746
    1AU     LIG  355  44.954  33.209   7.981
    1AU    AUSL  356   3.233  34.684   7.959
    1AU    AUSL  357   2.791  34.666   7.795
    1AU     AUL  358   2.977  34.777   8.181
    1AU       S  359   2.570  34.987   7.946
    1AU     LIG  360   2.384  35.333   8.183
    1AU     LIG  361   2.192  35.499   8.562
    1AU     LIG  362   2.114  35.919   8.720
    1AU     LIG  363   1.937  36.328   8.809
    1AU     LIG  364   1.640  36.624   9.028
    1AU       S  365   3.243  35.195   8.051
    1AU     LIG  366   3.474  35.444   8.369
    1AU     LIG  367   3.586  35.828   8.610
    1AU     LIG  368   3.578  36.294   8.657
    1AU     LIG  369   3.406  36.639   8.918
    1AU     LIG  370   3.332  36.792   9.357
    1AU    AUSL  371   3.073  34.799   7.649
    1AU    AUSL  372   3.390  34.825   7.335
    1AU     AUL  373   3.005  35.060   7.414
    1AU       S  374   3.060  35.235   7.880
    1AU     LIG  375   3.101  35.685   8.104
    1AU     LIG  376   3.397  36.070   8.212
    1AU     LIG  377   3.300  36.532   8.280
    1AU     LIG  378   3.116  36.949   8.461
    1AU     LIG  379   2.770  37.231   8.636
    1AU       S  380   3.438  35.273   7.198
    1AU     LIG  381   3.518  35.764   7.134
    1AU     LIG  382   3.736  36.171   7.003
    1AU     LIG  383   3.836  36.548   6.752
    1AU     LIG  384   3.658  36.998   6.720
    1AU     LIG  385   3.879  37.439   6.695
    1AU    AUSL  386   3.435  34.779   7.673
    1AU    AUSL  387   3.516  34.499   8.070
    1AU     AUL  388   3.588  34.838   7.991
    1AU       S  389   3.835  34.675   8.418
    1AU     LIG  390   4.102  34.566   8.802
    1AU     LIG  391   4.392  34.802   9.066
    1AU     LIG  392   4.575  35.152   9.310
    1AU     LIG  393   4.583  35.587   9.483
    1AU     LIG  394   4.526  35.979   9.742
    1AU       S  395   3.389  35.242   7.744
    1AU     LIG  396   3.568  35.639   7.893
    1AU     LIG  397   3.824  36.015   7.930
    1AU     LIG  398   3.829  36.446   8.062
    1AU     LIG  399   3.978  36.778   8.357
    1AU     LIG  400   3.879  37.212   8.498
    1AU    AUSL  401   3.168  33.397   7.963
    1AU    AUSL  402   3.543  33.405   7.805
    1AU     AUL  403   3.351  33.371   8.253
    1AU       S  404   3.309  32.898   8.059
    1AU     LIG  405   3.066  32.614   8.355
    1AU     LIG  406   2.985  32.158   8.313
    1AU     LIG  407   2.977  31.676   8.400
    1AU     LIG  408   3.084  31.260   8.642
    1AU     LIG  409   3.114  30.998   9.052
    1AU       S  410   3.771  33.086   7.887
    1AU     LIG  411   3.824  32.628   7.938
    1AU     LIG  412   3.995  32.287   8.250
    1AU     LIG  413   4.250  32.013   8.551
    1AU     LIG  414   4.631  31.770   8.722
    1AU     LIG  415   4.824  31.378   8.951
    1AU    AUSL  416   2.956  33.336   7.683
    1AU    AUSL  417   2.890  33.579   8.089
    1AU     AUL  418   2.861  33.218   7.999
    1AU       S  419   3.126  32.797   7.890
    1AU     LIG  420   2.747  32.495   7.960
    1AU     LIG  421   2.554  32.062   7.884
    1AU     LIG  422   2.525  31.596   7.989
    1AU     LIG  423   2.366  31.242   8.242
    1AU     LIG  424   2.264  30.895   8.514
    1AU       S  425   2.568  33.318   8.411
    1AU     LIG  426   2.230  32.980   8.573
    1AU     LIG  427   2.002  32.545   8.571
    1AU     LIG  428   1.773  32.176   8.782
    1AU     LIG  429   1.593  32.059   9.197
    1AU     LIG  430   1.729  32.028   9.649
    1AU    AUSL  431   3.276  33.242   7.654
    1AU    AUSL  432   2.974  33.294   7.329
    1AU     AUL  433   2.851  33.065   7.573
    1AU       S  434   3.062  32.827   7.172
    1AU     LIG  435   2.735  32.554   7.072
    1AU     LIG  436   2.617  32.146   7.201
    1AU     LIG  437   2.565  31.775   6.961
    1AU     LIG  438   2.686  31.337   6.907
    1AU     LIG  439   2.410  31.011   6.820
    1AU       S  440   3.358  32.834   7.753
    1AU     LIG  441   3.199  32.319   7.824
    1AU     LIG  442   3.024  31.861   7.902
    1AU     LIG  443   3.017  31.390   7.972
    1AU     LIG  444   3.287  31.077   8.200
    1AU     LIG  445   3.664  30.784   8.317
    1AU    AUSL  446   3.269  34.679   7.006
    1AU    AUSL  447   3.647  34.590   7.255
    1AU     AUL  448   3.607  34.823   7.028
    1AU       S  449   3.320  35.167   6.817
    1AU     LIG  450   3.558  35.525   6.663
    1AU     LIG  451   3.567  35.970   6.526
    1AU     LIG  452   3.493  36.315   6.220
    1AU     LIG  453   3.348  36.654   5.936
    1AU     LIG  454   3.257  36.839   5.517
    1AU       S  455   4.125  34.764   6.951
    1AU     LIG  456   4.459  34.994   6.688
    1AU     LIG  457   4.701  35.190   6.330
    1AU     LIG  458   5.044  35.443   6.122
    1AU     LIG  459   5.202  35.887   6.105
    1AU     LIG  460   5.321  36.170   5.762
    1AU    AUSL  461   3.060  34.747   7.287
    1AU    AUSL  462   2.961  34.513   6.944
    1AU     AUL  463   2.950  34.852   6.967
    1AU       S  464   3.200  35.298   7.026
    1AU     LIG  465   3.120  35.736   6.811
    1AU     LIG  466   3.257  36.185   6.854
    1AU     LIG  467   3.349  36.580   6.629
    1AU     LIG  468   3.154  37.020   6.552
    1AU     LIG  469   2.841  37.389   6.625
    1AU       S  470   2.516  34.793   6.703
    1AU     LIG  471   2.488  35.024   6.279
    1AU     LIG  472   2.416  35.266   5.880
    1AU     LIG  473   2.147  35.385   5.504
    1AU     LIG  474   2.014  35.654   5.124
    1AU     LIG  475   1.872  35.971   4.795
    1AU    AUSL  476   3.164  33.385   7.033
    1AU    AUSL  477   2.708  33.494   7.216
    1AU     AUL  478   2.826  33.247   6.991
    1AU       S  479   2.375  33.351   6.786
    1AU     LIG  480   2.053  33.001   6.808
    1AU     LIG  481   1.736  32.635   6.785
    1AU     LIG  482   1.513  32.248   6.615
    1AU     LIG  483   1.100  32.136   6.418
    1AU     LIG  484   0.715  32.065   6.137
    1AU       S  485   3.185  32.890   6.917
    1AU     LIG  486   3.089  32.515   6.690
    1AU     LIG  487   2.883  32.132   6.743
    1AU     LIG  488   2.954  31.692   6.640
    1AU     LIG  489   3.071  31.335   6.369
    1AU     LIG  490   3.060  30.994   6.024
    1AU    AUSL  491   3.333  33.284   7.329
    1AU    AUSL  492   3.444  33.551   6.930
    1AU     AUL  493   3.532  33.213   7.082
    1AU       S  494   3.298  32.797   7.250
    1AU     LIG  495   3.179  32.316   7.174
    1AU     LIG  496   3.041  31.852   7.143
    1AU     LIG  497   3.205  31.443   7.014
    1AU     LIG  498   3.489  31.107   6.845
    1AU     LIG  499   3.687  30.746   6.615
    1AU       S  500   3.597  33.339   6.590
    1AU     LIG  501   3.652  32.948   6.356
    1AU     LIG  502   3.948  32.656   6.185
    1AU     LIG  503   4.265  32.415   5.947
    1AU     LIG  504   4.336  32.378   5.483
    1AU     LIG  505   4.283  32.250   5.021
    2AU     AUC  506  40.675  19.267   7.500
    2AU     AUC  507  40.946  19.253   7.340
    2AU     AUC  508  40.944  19.251   7.670
    2AU     AUC  509  40.407  19.279   7.331
    2AU     AUC  510  40.408  19.280   7.665
    2AU     AUC  511  40.526  19.541   7.494
    2AU     AUC  512  40.858  19.523   7.500
    2AU     AUC  513  40.491  19.008   7.498
    2AU     AUC  514  40.823  18.993   7.500
    2AU     AUC  515  40.663  19.101   7.768
    2AU     AUC  516  40.687  19.430   7.768
    2AU     AUC  517  40.667  19.104   7.233
    2AU     AUC  518  40.686  19.428   7.227
    2AU     AUC  519  41.210  19.248   7.181
    2AU     AUC  520  41.223  19.240   7.515
    2AU     AUC  521  41.206  19.230   7.834
    2AU     AUC  522  40.151  19.282   7.164
    2AU     AUC  523  40.131  19.290   7.500
    2AU     AUC  524  40.155  19.298   7.829
    2AU     AUC  525  40.386  19.807   7.489
    2AU     AUC  526  40.712  19.810   7.488
    2AU     AUC  527  41.027  19.773   7.498
    2AU     AUC  528  40.316  18.757   7.497
    2AU     AUC  529  40.644  18.726   7.477
    2AU     AUC  530  40.970  18.720   7.494
    2AU     AUC  531  40.649  18.939   8.025
    2AU     AUC  532  40.670  19.262   8.052
    2AU     AUC  533  40.696  19.591   8.019
    2AU     AUC  534  40.661  18.948   6.979
    2AU     AUC  535  40.684  19.259   6.954
    2AU     AUC  536  40.698  19.580   6.963
    2AU     AUC  537  40.936  19.083   7.944
    2AU     AUC  538  40.969  19.417   7.948
    2AU     AUC  539  40.952  19.102   7.057
    2AU     AUC  540  40.972  19.420   7.066
    2AU     AUC  541  40.397  19.111   7.949
    2AU     AUC  542  40.411  19.445   7.942
    2AU     AUC  543  40.390  19.108   7.062
    2AU     AUC  544  40.409  19.437   7.039
    2AU     AUC  545  41.139  19.504   7.343
    2AU     AUC  546  41.142  19.510   7.679
    2AU     AUC  547  40.251  19.563   7.316
    2AU     AUC  548  40.252  19.570   7.666
    2AU     AUC  549  41.098  18.972   7.342
    2AU     AUC  550  41.091  18.961   7.675
    2AU     AUC  551  40.206  19.014   7.337
    2AU     AUC  552  40.221  19.009   7.674
    2AU     AUC  553  40.537  19.720   7.763
    2AU     AUC  554  40.874  19.700   7.770
    2AU     AUC  555  40.477  18.830   7.772
    2AU     AUC  556  40.802  18.812   7.752
    2AU     AUC  557  40.531  19.704   7.205
    2AU     AUC  558  40.863  19.698   7.218
    2AU     AUC  559  40.476  18.835   7.221
    2AU     AUC  560  40.821  18.828   7.231
    2AU    AUSL  561  41.159  19.194   8.135
    2AU    AUSL  562  40.909  18.822   8.054
    2AU     AUL  563  41.118  18.835   8.310
    2AU       S  564  41.253  18.350   8.163
    2AU     LIG  565  41.192  17.948   8.368
    2AU     LIG  566  41.415  17.741   8.724
    2AU     LIG  567  41.710  17.667   9.077
    2AU     LIG  568  42.038  17.712   9.410
    2AU     LIG  569  42.263  17.498   9.766
    2AU       S  570  41.498  19.124   8.501
    2AU     LIG  571  41.642  19.041   8.956
    2AU     LIG  572  41.617  18.898   9.412
    2AU     LIG  573  41.865  18.873   9.815
    2AU     LIG  574  42.292  18.854  10.026
    2AU     LIG  575  42.617  18.862  10.370
    2AU    AUSL  576  40.827  19.092   8.267
    2AU    AUSL  577  40.524  19.426   8.267
    2AU     AUL  578  40.764  19.317   8.552
    2AU       S  579  41.181  19.082   8.733
    2AU     LIG  580  41.215  18.759   9.065
    2AU     LIG  581  41.250  18.533   9.465
    2AU     LIG  582  41.450  18.565   9.880
    2AU     LIG  583  41.461  18.476  10.338
    2AU     LIG  584  41.448  18.581  10.793
    2AU       S  585  40.293  19.307   8.741
    2AU     LIG  586  40.062  19.253   9.159
    2AU     LIG  587  40.005  19.044   9.583
    2AU     LIG  588  39.827  19.085  10.017
    2AU     LIG  589  39.700  19.398  10.354
    2AU     LIG  590  39.705  19.659  10.750
    2AU    AUSL  591  40.855  19.463   8.221
    2AU    AUSL  592  41.273  19.506   7.991
    2AU     AUL  593  41.147  19.459   8.364
    2AU       S  594  40.844  19.839   8.573
    2AU     LIG  595  41.112  20.035   8.925
    2AU     LIG  596  41.251  19.989   9.393
    2AU     LIG  597  41.257  19.985   9.884
    2AU     LIG  598  41.397  19.881  10.339
    2AU     LIG  599  41.501  19.926  10.804
    2AU       S  600  41.567  19.734   8.289
    2AU     LIG  601  42.021  19.830   8.201
    2AU     LIG  602  42.362  19.951   8.471
    2AU     LIG  603  42.526  20.143   8.835
    2AU     LIG  604  42.760  20.374   9.160
    2AU     LIG  605  43.006  20.763   9.268
    2AU    AUSL  606  41.156  19.293   6.853
    2AU    AUSL  607  41.009  19.666   6.923
    2AU     AUL  608  40.938  19.679   6.599
    2AU       S  609  41.389  19.317   6.513
    2AU     LIG  610  41.674  19.171   6.178
    2AU     LIG  611  41.714  18.994   5.744
    2AU     LIG  612  41.788  18.888   5.292
    2AU     LIG  613  42.100  18.899   4.934
    2AU     LIG  614  42.545  18.895   4.729
    2AU       S  615  41.428  19.802   6.629
    2AU     LIG  616  41.678  20.033   6.289
    2AU     LIG  617  41.956  20.028   5.909
    2AU     LIG  618  42.230  20.282   5.639
    2AU     LIG  619  42.360  20.434   5.237
    2AU     LIG  620  42.502  20.757   4.949
    2AU    AUSL  621  40.878  19.049   6.741
    2AU    AUSL  622  41.241  18.986   7.031
    2AU     AUL  623  41.197  18.883   6.725
    2AU       S  624  41.504  18.483   6.863
    2AU     LIG  625  41.663  18.115   6.587
    2AU     LIG  626  41.902  17.810   6.329
    2AU     LIG  627  42.176  17.571   6.056
    2AU     LIG  628  42.401  17.587   5.648
    2AU     LIG  629  42.621  17.642   5.229
    2AU       S  630  41.163  19.116   6.290
    2AU     LIG  631  41.253  18.850   5.920
    2AU     LIG  632  41.371  18.647   5.512
    2AU     LIG  633  41.393  18.625   5.042
    2AU     LIG  634  41.501  18.440   4.614
    2AU     LIG  635  41.487  18.483   4.140
    2AU    AUSL  636  40.845  19.394   6.763
    2AU    AUSL  637  40.530  19.102   6.766
    2AU     AUL  638  40.696  19.227   6.466
    2AU       S  639  40.184  19.091   6.324
    2AU     LIG  640  40.165  18.761   6.001
    2AU     LIG  641  40.061  18.623   5.570
    2AU     LIG  642  39.845  18.627   5.152
    2AU     LIG  643  39.808  18.395   4.733
    2AU     LIG  644  39.944  18.316   4.281
    2AU       S  645  41.201  19.366   6.316
    2AU     LIG  646  41.322  19.354   5.848
    2AU     LIG  647  41.344  19.151   5.413
    2AU     LIG  648  41.476  19.140   4.953
    2AU     LIG  649  41.426  19.349   4.527
    2AU     LIG  650  41.502  19.552   4.102
    2AU    AUSL  651  40.211  19.338   8.147
    2AU    AUSL  652  40.418  19.700   8.052
    2AU     AUL  653  40.326  19.680   8.383
    2AU       S  654  40.051  19.330   8.642
    2AU     LIG  655  39.817  18.959   8.806
    2AU     LIG  656  39.699  18.824   9.231
    2AU     LIG  657  39.505  18.878   9.664
    2AU     LIG  658  39.184  18.980  10.009
    2AU     LIG  659  38.969  19.021  10.434
    2AU       S  660  39.950  20.013   8.226
    2AU     LIG  661  39.876  20.255   8.629
    2AU     LIG  662  39.830  20.501   9.027
    2AU     LIG  663  39.757  20.564   9.483
    2AU     LIG  664  39.546  20.724   9.866
    2AU     LIG  665  39.418  21.130  10.065
    2AU    AUSL  666  40.445  19.077   8.243
    2AU    AUSL  667  40.138  19.006   7.962
    2AU     AUL  668  39.998  19.083   8.222
    2AU       S  669  39.898  18.597   8.307
    2AU     LIG  670  39.469  18.474   8.450
    2AU     LIG  671  39.098  18.196   8.387
    2AU     LIG  672  38.894  17.783   8.495
    2AU     LIG  673  38.641  17.529   8.802
    2AU     LIG  674  38.357  17.393   9.157
    2AU       S  675  40.303  19.029   8.646
    2AU     LIG  676  40.231  18.783   9.059
    2AU     LIG  677  40.077  18.548   9.443
    2AU     LIG  678  39.881  18.563   9.869
    2AU     LIG  679  39.831  18.345  10.302
    2AU     LIG  680  39.836  18.308  10.789
    2AU    AUSL  681  40.225  19.233   6.837
    2AU    AUSL  682  40.342  18.843   6.935
    2AU     AUL  683  40.473  18.840   6.630
    2AU       S  684  39.994  19.185   6.476
    2AU     LIG  685  39.718  18.905   6.207
    2AU     LIG  686  39.632  18.857   5.732
    2AU     LIG  687  39.461  18.969   5.290
    2AU     LIG  688  39.168  19.141   4.939
    2AU     LIG  689  38.736  19.198   4.707
    2AU       S  690  39.973  18.690   6.621
    2AU     LIG  691  39.655  18.343   6.407
    2AU     LIG  692  39.419  17.898   6.403
    2AU     LIG  693  39.374  17.445   6.304
    2AU     LIG  694  39.151  17.279   5.947
    2AU     LIG  695  38.972  17.487   5.568
    2AU    AUSL  696  40.508  19.451   6.737
    2AU    AUSL  697  40.115  19.560   6.999
    2AU     AUL  698  40.237  19.598   6.654
    2AU       S  699  39.771  19.782   6.719
    2AU     LIG  700  39.445  19.785   6.373
    2AU     LIG  701  39.181  19.933   6.002
    2AU     LIG  702  39.002  20.089   5.604
    2AU     LIG  703  38.869  20.379   5.266
    2AU     LIG  704  38.638  20.702   5.027
    2AU       S  705  40.242  19.327   6.243
    2AU     LIG  706  39.990  19.220   5.853
    2AU     LIG  707  39.956  19.098   5.392
    2AU     LIG  708  39.818  19.120   4.933
    2AU     LIG  709  39.782  19.343   4.502
    2AU     LIG  710  39.957  19.555   4.109
    2AU    AUSL  711  41.341  19.670   7.483
    2AU    AUSL  712  41.306  19.540   7.089
    2AU     AUL  713  41.425  19.948   7.296
    2AU       S  714  41.592  19.638   6.850
    2AU     LIG  715  41.874  19.592   6.481
    2AU     LIG  716  42.245  19.811   6.282
    2AU     LIG  717  42.526  19.985   5.935
    2AU     LIG  718  42.745  20.296   5.642
    2AU     LIG  719  42.865  20.451   5.215
    2AU       S  720  41.875  19.739   7.419
    2AU     LIG  721  42.340  19.884   7.456
    2AU     LIG  722  42.672  20.164   7.273
    2AU     LIG  723  43.075  20.370   7.354
    2AU     LIG  724  43.362  20.580   7.068
    2AU     LIG  725  43.688  20.873   7.104
    2AU    AUSL  726  41.462  19.360   7.338
    2AU    AUSL  727  41.412  19.063   7.685
    2AU     AUL  728  41.711  19.084   7.467
    2AU       S  729  41.865  19.527   7.261
    2AU     LIG  730  42.340  19.386   7.317
    2AU     LIG  731  42.755  19.185   7.145
    2AU     LIG  732  43.160  19.385   6.993
    2AU     LIG  733  43.512  19.660   6.894
    2AU     LIG  734  43.848  19.961   6.822
    2AU       S  735  41.803  18.610   7.692
    2AU     LIG  736  42.256  18.405   7.690
    2AU     LIG  737  42.739  18.332   7.762
    2AU     LIG  738  43.203  18.151   7.844
    2AU     LIG  739  43.632  17.990   8.071
    2AU     LIG  740  44.082  18.173   8.251
    2AU    AUSL  741  41.449  19.404   7.701
    2AU    AUSL  742  41.176  19.800   7.771
    2AU     AUL  743  41.500  19.757   7.780
    2AU       S  744  41.518  20.026   8.196
    2AU     LIG  745  41.885  20.324   8.317
    2AU     LIG  746  42.312  20.470   8.475
    2AU     LIG  747  42.540  20.703   8.821
    2AU     LIG  748  42.671  21.105   9.034
    2AU     LIG  749  42.691  21.520   8.816
    2AU       S  750  41.920  19.526   7.624
    2AU     LIG  751  42.305  19.535   7.835
    2AU     LIG  752  42.730  19.540   7.702
    2AU     LIG  753  43.125  19.654   7.943
    2AU     LIG  754  43.596  19.764   8.087
    2AU     LIG  755  44.049  19.791   7.934
    2AU    AUSL  756  40.092  19.784   7.511
    2AU    AUSL  757  40.093  19.593   7.939
    2AU     AUL  758  39.795  19.793   7.722
    2AU       S  759  39.817  19.723   8.242
    2AU     LIG  760  39.700  19.771   8.689
    2AU     LIG  761  39.533  20.074   9.021
    2AU     LIG  762  39.318  20.311   9.381
    2AU     LIG  763  39.019  20.395   9.747
    2AU     LIG  764  38.598  20.412   9.968
    2AU       S  765  39.936  20.238   7.482
    2AU     LIG  766  39.539  20.376   7.716
    2AU     LIG  767  39.106  20.553   7.804
    2AU     LIG  768  38.824  20.872   7.585
    2AU     LIG  769  38.371  21.068   7.615
    2AU     LIG  770  37.943  20.931   7.543
    2AU    AUSL  771  39.974  19.462   7.291
    2AU    AUSL  772  40.225  19.859   7.199
    2AU     AUL  773  39.857  19.769   7.232
    2AU       S  774  39.591  19.373   6.947
    2AU     LIG  775  39.268  19.783   6.862
    2AU     LIG  776  38.845  20.012   6.731
    2AU     LIG  777  38.393  20.185   6.799
    2AU     LIG  778  37.955  20.197   6.995
    2AU     LIG  779  37.544  20.339   6.815
    2AU       S  780  39.924  20.207   6.975
    2AU     LIG  781  39.665  20.480   6.663
    2AU     LIG  782  39.703  20.754   6.283
    2AU     LIG  783  39.501  21.188   6.242
    2AU     LIG  784  39.357  21.642   6.212
    2AU     LIG  785  38.962  21.873   6.103
    2AU    AUSL  786  39.945  19.464   7.663
    2AU    AUSL  787  39.888  19.141   7.349
    2AU     AUL  788  39.668  19.507   7.446
    2AU       S  789  39.430  19.058   7.387
    2AU     LIG  790  39.031  18.911   7.271
    2AU     LIG  791  38.748  18.653   7.464
    2AU     LIG  792  38.390  18.590   7.235
    2AU     LIG  793  37.959  18.600   7.176
    2AU     LIG  794  37.626  18.321   7.163
    2AU       S  795  39.531  19.413   7.964
    2AU     LIG  796  39.060  19.620   8.005
    2AU     LIG  797  38.703  19.950   8.188
    2AU     LIG  798  38.338  20.272   8.279
    2AU     LIG  799  37.833  20.285   8.258
    2AU     LIG  800  37.366  20.479   8.325
    2AU    AUSL  801  41.293  18.765   7.561
    2AU    AUSL  802  41.224  18.910   7.935
    2AU     AUL  803  41.561  18.975   7.922
    2AU       S  804  41.568  18.486   7.581
    2AU     LIG  805  41.816  18.090   7.611
    2AU     LIG  806  42.213  17.875   7.494
    2AU     LIG  807  42.499  17.509   7.423
    2AU     LIG  808  42.946  17.361   7.494
    2AU     LIG  809  43.392  17.334   7.633
    2AU       S  810  41.468  18.491   8.075
    2AU     LIG  811  41.690  18.136   8.316
    2AU     LIG  812  41.916  17.864   8.633
    2AU     LIG  813  42.193  17.596   8.917
    2AU     LIG  814  42.513  17.558   9.267
    2AU     LIG  815  42.869  17.750   9.517
    2AU    AUSL  816  41.359  19.033   7.350
    2AU    AUSL  817  41.149  18.691   7.236
    2AU     AUL  818  41.509  18.865   7.183
    2AU       S  819  41.785  18.558   7.432
    2AU     LIG  820  42.108  18.305   7.215
    2AU     LIG  821  42.574  18.191   7.288
    2AU     LIG  822  43.056  18.244   7.268
    2AU     LIG  823  43.452  18.117   7.016
    2AU     LIG  824  43.864  18.120   6.757
    2AU       S  825  41.363  18.345   7.158
    2AU     LIG  826  41.682  17.999   7.095
    2AU     LIG  827  41.746  17.622   6.796
    2AU     LIG  828  41.857  17.295   6.441
    2AU     LIG  829  42.167  17.069   6.152
    2AU     LIG  830  42.442  16.679   6.182
    2AU    AUSL  831  40.012  18.839   7.523
    2AU    AUSL  832  40.057  19.019   7.065
    2AU     AUL  833  39.833  18.768   7.265
    2AU       S  834  39.778  18.861   6.766
    2AU     LIG  835  39.360  18.660   6.711
    2AU     LIG  836  39.182  18.246   6.677
    2AU     LIG  837  38.908  17.894   6.569
    2AU     LIG  838  38.569  17.802   6.250
    2AU     LIG  839  38.287  17.728   5.886
    2AU       S  840  39.438  18.839   7.557
    2AU     LIG  841  39.236  18.460   7.506
    2AU     LIG  842  38.937  18.224   7.719
    2AU     LIG  843  38.516  18.186   7.537
    2AU     LIG  844  38.069  18.167   7.445
    2AU     LIG  845  37.683  17.954   7.527
    2AU    AUSL  846  39.924  19.130   7.706
    2AU    AUSL  847  40.171  18.691   7.798
    2AU     AUL  848  39.842  18.835   7.859
    2AU       S  849  39.898  18.407   8.119
    2AU     LIG  850  39.483  18.188   8.017
    2AU     LIG  851  39.237  17.799   8.085
    2AU     LIG  852  39.198  17.392   8.310
    2AU     LIG  853  38.870  17.135   8.525
    2AU     LIG  854  38.657  17.027   8.918
    2AU       S  855  39.436  19.062   7.632
    2AU     LIG  856  38.993  19.106   7.753
    2AU     LIG  857  38.535  19.079   7.648
    2AU     LIG  858  38.137  18.770   7.647
    2AU     LIG  859  37.713  18.500   7.661
    2AU     LIG  860  37.279  18.527   7.891
    2AU    AUSL  861  40.712  19.909   7.950
    2AU    AUSL  862  40.273  19.888   7.799
    2AU     AUL  863  40.458  19.998   8.182
    2AU       S  864  40.041  20.209   7.964
    2AU     LIG  865  39.783  20.525   8.198
    2AU     LIG  866  39.740  20.799   8.591
    2AU     LIG  867  39.557  21.211   8.769
    2AU     LIG  868  39.161  21.490   8.834
    2AU     LIG  869  38.689  21.423   8.904
    2AU       S  870  40.725  20.410   8.046
    2AU     LIG  871  40.935  20.556   8.415
    2AU     LIG  872  41.082  20.963   8.522
    2AU     LIG  873  40.942  21.372   8.718
    2AU     LIG  874  40.810  21.804   8.829
    2AU     LIG  875  40.712  22.067   9.178
    2AU    AUSL  876  40.546  20.027   7.640
    2AU    AUSL  877  40.882  20.037   7.313
    2AU     AUL  878  40.510  20.289   7.388
    2AU       S  879  40.541  20.454   7.866
    2AU     LIG  880  40.626  20.895   8.124
    2AU     LIG  881  40.804  21.323   8.230
    2AU     LIG  882  40.657  21.785   8.330
    2AU     LIG  883  40.568  22.267   8.352
    2AU     LIG  884  40.482  22.655   8.619
    2AU       S  885  40.979  20.458   7.191
    2AU     LIG  886  41.190  20.893   7.146
    2AU     LIG  887  41.559  21.134   6.960
    2AU     LIG  888  41.665  21.591   6.874
    2AU     LIG  889  41.330  21.938   6.804
    2AU     LIG  890  41.235  22.408   6.825
    2AU    AUSL  891  40.905  20.004   7.655
    2AU    AUSL  892  40.995  19.730   8.066
    2AU     AUL  893  41.069  20.063   7.956
    2AU       S  894  41.302  19.949   8.392
    2AU     LIG  895  41.558  20.179   8.690
    2AU     LIG  896  41.990  20.239   8.818
    2AU     LIG  897  42.233  20.439   9.137
    2AU     LIG  898  42.348  20.826   9.328
    2AU     LIG  899  42.158  21.143   9.622
    2AU       S  900  40.871  20.478   7.740
    2AU     LIG  901  41.118  20.824   7.983
    2AU     LIG  902  41.459  21.110   8.193
    2AU     LIG  903  41.627  21.581   8.208
    2AU     LIG  904  41.539  22.038   8.370
    2AU     LIG  905  41.559  22.537   8.422
    2AU    AUSL  906  40.667  18.613   7.922
    2AU    AUSL  907  41.027  18.636   7.790
    2AU     AUL  908  40.809  18.569   8.221
    2AU       S  909  40.809  18.111   7.969
    2AU     LIG  910  40.696  17.731   8.217
    2AU     LIG  911  40.429  17.358   8.314
    2AU     LIG  912  40.352  16.893   8.422
    2AU     LIG  913  40.505  16.555   8.702
    2AU     LIG  914  40.558  16.106   8.804
    2AU       S  915  41.250  18.331   7.908
    2AU     LIG  916  41.431  17.911   7.922
    2AU     LIG  917  41.612  17.620   8.265
    2AU     LIG  918  41.791  17.361   8.645
    2AU     LIG  919  42.154  17.092   8.790
    2AU     LIG  920  42.332  16.655   8.748
    2AU    AUSL  921  40.450  18.559   7.656
    2AU    AUSL  922  40.393  18.778   8.077
    2AU     AUL  923  40.376  18.414   7.966
    2AU       S  924  40.628  18.003   7.759
    2AU     LIG  925  40.427  17.548   7.796
    2AU     LIG  926  40.269  17.086   7.909
    2AU     LIG  927  39.981  16.714   8.066
    2AU     LIG  928  39.721  16.339   8.278
    2AU     LIG  929  39.798  15.904   8.473
    2AU       S  930  40.128  18.542   8.396
    2AU     LIG  931  39.820  18.103   8.507
    2AU     LIG  932  39.406  17.847   8.613
    2AU     LIG  933  39.159  17.502   8.840
    2AU     LIG  934  39.177  17.394   9.279
    2AU     LIG  935  39.406  17.443   9.695
    2AU    AUSL  936  40.771  18.487   7.594
    2AU    AUSL  937  40.478  18.527   7.308
    2AU     AUL  938  40.313  18.320   7.537
    2AU       S  939  40.595  18.059   7.200
    2AU     LIG  940  40.345  17.638   7.237
    2AU     LIG  941  40.117  17.231   7.097
    2AU     LIG  942  39.978  16.834   6.865
    2AU     LIG  943  40.034  16.390   6.645
    2AU     LIG  944  39.917  15.912   6.580
    2AU       S  945  40.878  18.103   7.666
    2AU     LIG  946  40.975  17.637   7.799
    2AU     LIG  947  40.793  17.213   7.975
    2AU     LIG  948  40.703  16.735   8.093
    2AU     LIG  949  40.748  16.290   8.308
    2AU     LIG  950  40.877  15.833   8.388
    2AU    AUSL  951  40.740  19.891   6.990
    2AU    AUSL  952  41.123  19.792   7.234
    2AU     AUL  953  41.094  20.004   6.990
    2AU       S  954  40.820  20.365   6.796
    2AU     LIG  955  40.917  20.594   6.421
    2AU     LIG  956  41.140  20.973   6.308
    2AU     LIG  957  41.184  21.255   5.930
    2AU     LIG  958  40.989  21.552   5.609
    2AU     LIG  959  40.906  21.998   5.474
    2AU       S  960  41.573  19.938   6.821
    2AU     LIG  961  41.781  20.364   6.675
    2AU     LIG  962  42.185  20.555   6.503
    2AU     LIG  963  42.469  20.963   6.414
    2AU     LIG  964  42.888  21.116   6.201
    2AU     LIG  965  42.931  21.514   5.937
    2AU    AUSL  966  40.548  19.963   7.284
    2AU    AUSL  967  40.422  19.743   6.925
    2AU     AUL  968  40.425  20.095   6.984
    2AU       S  969  40.772  20.485   7.016
    2AU     LIG  970  40.790  20.916   6.822
    2AU     LIG  971  40.655  21.384   6.892
    2AU     LIG  972  40.729  21.846   6.794
    2AU     LIG  973  40.644  22.184   6.485
    2AU     LIG  974  40.266  22.445   6.417
    2AU       S  975  39.992  20.037   6.708
    2AU     LIG  976  39.793  20.170   6.286
    2AU     LIG  977  39.891  20.398   5.887
    2AU     LIG  978  39.936  20.439   5.403
    2AU     LIG  979  39.705  20.557   5.005
    2AU     LIG  980  39.369  20.829   4.816
    2AU    AUSL  981  40.625  18.647   7.006
    2AU    AUSL  982  40.182  18.708   7.223
    2AU     AUL  983  40.314  18.466   6.980
    2AU       S  984  39.838  18.543   6.826
    2AU     LIG  985  39.502  18.277   7.063
    2AU     LIG  986  39.310  17.842   6.982
    2AU     LIG  987  39.164  17.455   6.763
    2AU     LIG  988  38.862  17.403   6.382
    2AU     LIG  989  38.622  17.311   5.999
    2AU       S  990  40.701  18.123   6.926
    2AU     LIG  991  40.426  17.759   6.748
    2AU     LIG  992  40.269  17.326   6.612
    2AU     LIG  993  40.274  16.875   6.451
    2AU     LIG  994  40.443  16.433   6.332
    2AU     LIG  995  40.478  16.203   5.915
    2AU    AUSL  996  40.842  18.539   7.262
    2AU    AUSL  997  40.936  18.820   6.998
    2AU     AUL  998  40.924  18.580   6.858
    2AU       S  999  40.893  18.125   7.166
    2AU     LIG 1000  40.842  17.637   7.057
    2AU     LIG 1001  40.634  17.194   6.957
    2AU     LIG 1002  40.645  16.712   6.782
    2AU     LIG 1003  40.858  16.274   6.648
    2AU     LIG 1004  40.875  15.784   6.611
    2AU       S 1005  41.313  18.305   6.917
    2AU     LIG 1006  41.257  17.868   6.780
    2AU     LIG 1007  41.424  17.627   6.390
    2AU     LIG 1008  41.662  17.469   5.994
    2AU     LIG 1009  41.945  17.319   5.648
    2AU     LIG 1010  42.156  17.395   5.222
    3AU     AUC 1011  22.794  44.796   7.501
    3AU     AUC 1012  23.065  44.786   7.343
    3AU     AUC 1013  23.061  44.787   7.669
    3AU     AUC 1014  22.529  44.803   7.330
    3AU     AUC 1015  22.525  44.809   7.663
    3AU     AUC 1016  22.642   0.069   7.491
    3AU     AUC 1017  22.974   0.059   7.501
    3AU     AUC 1018  22.613  44.534   7.502
    3AU     AUC 1019  22.944  44.520   7.503
    3AU     AUC 1020  22.782  44.635   7.771
    3AU     AUC 1021  22.799  44.965   7.767
    3AU     AUC 1022  22.790  44.625   7.236
    3AU     AUC 1023  22.808  44.957   7.228
    3AU     AUC 1024  23.323  44.779   7.195
    3AU     AUC 1025  23.343  44.774   7.512
    3AU     AUC 1026  23.323  44.772   7.828
    3AU     AUC 1027  22.278  44.801   7.159
    3AU     AUC 1028  22.250  44.811   7.495
    3AU     AUC 1029  22.269  44.825   7.824
    3AU     AUC 1030  22.497   0.332   7.480
    3AU     AUC 1031  22.824   0.342   7.485
    3AU     AUC 1032  23.142   0.318   7.501
    3AU     AUC 1033  22.437  44.284   7.504
    3AU     AUC 1034  22.765  44.251   7.493
    3AU     AUC 1035  23.090  44.247   7.509
    3AU     AUC 1036  22.769  44.479   8.035
    3AU     AUC 1037  22.782  44.798   8.054
    3AU     AUC 1038  22.800   0.129   8.018
    3AU     AUC 1039  22.797  44.459   6.983
    3AU     AUC 1040  22.822  44.790   6.953
    3AU     AUC 1041  22.827   0.106   6.957
    3AU     AUC 1042  23.055  44.626   7.944
    3AU     AUC 1043  23.076  44.957   7.948
    3AU     AUC 1044  23.064  44.616   7.068
    3AU     AUC 1045  23.085  44.960   7.067
    3AU     AUC 1046  22.510  44.646   7.951
    3AU     AUC 1047  22.522  44.979   7.938
    3AU     AUC 1048  22.522  44.627   7.065
    3AU     AUC 1049  22.535  44.957   7.039
    3AU     AUC 1050  23.257   0.057   7.354
    3AU     AUC 1051  23.252   0.054   7.682
    3AU     AUC 1052  22.368   0.084   7.310
    3AU     AUC 1053  22.365   0.096   7.659
    3AU     AUC 1054  23.218  44.496   7.344
    3AU     AUC 1055  23.218  44.500   7.670
    3AU     AUC 1056  22.330  44.535   7.337
    3AU     AUC 1057  22.340  44.535   7.675
    3AU     AUC 1058  22.645   0.253   7.757
    3AU     AUC 1059  22.978   0.239   7.770
    3AU     AUC 1060  22.600  44.366   7.784
    3AU     AUC 1061  22.929  44.347   7.767
    3AU     AUC 1062  22.649   0.225   7.202
    3AU     AUC 1063  22.994   0.234   7.218
    3AU     AUC 1064  22.602  44.350   7.228
    3AU     AUC 1065  22.943  44.336   7.227
    3AU    AUSL 1066  23.276  44.737   8.131
    3AU    AUSL 1067  23.045  44.372   8.056
    3AU     AUL 1068  23.282  44.387   8.291
    3AU       S 1069  23.405  43.891   8.185
    3AU     LIG 1070  23.250  43.551   8.479
    3AU     LIG 1071  23.315  43.128   8.693
    3AU     LIG 1072  23.443  42.949   9.113
    3AU     LIG 1073  23.824  42.810   9.332
    3AU     LIG 1074  23.919  42.697   9.770
    3AU       S 1075  23.624  44.696   8.506
    3AU     LIG 1076  23.752  44.669   8.959
    3AU     LIG 1077  23.756  44.459   9.380
    3AU     LIG 1078  23.997  44.221   9.705
    3AU     LIG 1079  24.395  44.248   9.973
    3AU     LIG 1080  24.706  44.446  10.277
    3AU    AUSL 1081  22.945  44.628   8.272
    3AU    AUSL 1082  22.632  44.967   8.269
    3AU     AUL 1083  22.869  44.849   8.555
    3AU       S 1084  23.287  44.601   8.737
    3AU     LIG 1085  23.454  44.236   9.001
    3AU     LIG 1086  23.539  43.990   9.405
    3AU     LIG 1087  23.569  43.973   9.879
    3AU     LIG 1088  23.527  43.830  10.336
    3AU     LIG 1089  23.539  43.924  10.808
    3AU       S 1090  22.394  44.849   8.737
    3AU     LIG 1091  22.188  44.750   9.155
    3AU     LIG 1092  22.129  44.530   9.562
    3AU     LIG 1093  22.000  44.613  10.011
    3AU     LIG 1094  22.013  44.934  10.376
    3AU     LIG 1095  22.044   0.227  10.763
    3AU    AUSL 1096  22.962  44.996   8.218
    3AU    AUSL 1097  23.368   0.053   8.002
    3AU     AUL 1098  23.232  44.980   8.378
    3AU       S 1099  22.953   0.373   8.583
    3AU     LIG 1100  23.282   0.517   8.912
    3AU     LIG 1101  23.522   0.483   9.326
    3AU     LIG 1102  23.526   0.380   9.808
    3AU     LIG 1103  23.506   0.495  10.279
    3AU     LIG 1104  23.603   0.622  10.739
    3AU       S 1105  23.665   0.231   8.282
    3AU     LIG 1106  24.086   0.335   8.316
    3AU     LIG 1107  24.298   0.485   8.684
    3AU     LIG 1108  24.572   0.652   9.010
    3AU     LIG 1109  24.797   0.802   9.391
    3AU     LIG 1110  24.986   0.966   9.794
    3AU    AUSL 1111  23.269  44.827   6.901
    3AU    AUSL 1112  23.149   0.210   6.898
    3AU     AUL 1113  23.548   0.028   6.801
    3AU       S 1114  23.386  44.808   6.371
    3AU     LIG 1115  23.725  44.622   6.123
    3AU     LIG 1116  23.836  44.330   5.788
    3AU     LIG 1117  23.940  44.157   5.365
    3AU     LIG 1118  24.259  44.156   5.016
    3AU     LIG 1119  24.637  44.229   4.734
    3AU       S 1120  23.366   0.498   6.597
    3AU     LIG 1121  23.507   0.775   6.265
    3AU     LIG 1122  23.895   0.958   6.071
    3AU     LIG 1123  24.301   1.121   5.905
    3AU     LIG 1124  24.337   1.319   5.476
    3AU     LIG 1125  24.212   1.600   5.115
    3AU    AUSL 1126  23.047  44.601   6.763
    3AU    AUSL 1127  23.312  44.492   7.030
    3AU     AUL 1128  23.525  44.636   6.834
    3AU       S 1129  23.486  44.180   6.620
    3AU     LIG 1130  23.709  43.845   6.321
    3AU     LIG 1131  24.069  43.625   6.072
    3AU     LIG 1132  24.463  43.381   5.902
    3AU     LIG 1133  24.785  43.318   5.557
    3AU     LIG 1134  24.870  43.298   5.092
    3AU       S 1135  23.265  44.569   6.372
    3AU     LIG 1136  23.401  44.222   6.078
    3AU     LIG 1137  23.449  44.031   5.641
    3AU     LIG 1138  23.470  44.073   5.173
    3AU     LIG 1139  23.555  43.999   4.723
    3AU     LIG 1140  23.595  43.921   4.261
    3AU    AUSL 1141  22.983  44.956   6.731
    3AU    AUSL 1142  22.675  44.619   6.792
    3AU     AUL 1143  22.799  44.717   6.489
    3AU       S 1144  22.279  44.609   6.341
    3AU     LIG 1145  22.179  44.229   6.084
    3AU     LIG 1146  22.125  44.096   5.639
    3AU     LIG 1147  21.976  44.077   5.189
    3AU     LIG 1148  21.912  43.830   4.785
    3AU     LIG 1149  21.957  43.823   4.312
    3AU       S 1150  23.209  44.979   6.334
    3AU     LIG 1151  23.279  44.722   5.882
    3AU     LIG 1152  23.466  44.528   5.467
    3AU     LIG 1153  23.503  44.563   4.975
    3AU     LIG 1154  23.484  44.857   4.577
    3AU     LIG 1155  23.668   0.196   4.289
    3AU    AUSL 1156  22.324  44.878   8.142
    3AU    AUSL 1157  22.521   0.235   8.049
    3AU     AUL 1158  22.439   0.223   8.383
    3AU       S 1159  22.152  44.876   8.638
    3AU     LIG 1160  21.875  44.541   8.803
    3AU     LIG 1161  21.759  44.374   9.230
    3AU     LIG 1162  21.666  44.328   9.706
    3AU     LIG 1163  21.368  44.456  10.062
    3AU     LIG 1164  20.970  44.607  10.284
    3AU       S 1165  22.057   0.536   8.214
    3AU     LIG 1166  22.077   0.732   8.642
    3AU     LIG 1167  22.035   0.941   9.056
    3AU     LIG 1168  21.776   1.140   9.382
    3AU     LIG 1169  21.561   1.179   9.806
    3AU     LIG 1170  21.574   1.491  10.173
    3AU    AUSL 1171  22.554  44.620   8.247
    3AU    AUSL 1172  22.248  44.537   7.964
    3AU     AUL 1173  22.103  44.639   8.212
    3AU       S 1174  22.003  44.158   8.320
    3AU     LIG 1175  21.579  43.901   8.375
    3AU     LIG 1176  21.350  43.616   8.661
    3AU     LIG 1177  20.922  43.538   8.826
    3AU     LIG 1178  20.467  43.508   8.885
    3AU     LIG 1179  20.227  43.652   9.208
    3AU       S 1180  22.390  44.570   8.648
    3AU     LIG 1181  22.244  44.254   9.003
    3AU     LIG 1182  22.091  44.034   9.406
    3AU     LIG 1183  22.096  44.099   9.872
    3AU     LIG 1184  22.010  44.020  10.330
    3AU     LIG 1185  21.775  43.816  10.693
    3AU    AUSL 1186  22.362  44.757   6.833
    3AU    AUSL 1187  22.483  44.356   6.934
    3AU     AUL 1188  22.609  44.379   6.620
    3AU       S 1189  22.105  44.735   6.491
    3AU     LIG 1190  21.782  44.496   6.252
    3AU     LIG 1191  21.712  44.353   5.806
    3AU     LIG 1192  21.558  44.346   5.349
    3AU     LIG 1193  21.234  44.305   4.995
    3AU     LIG 1194  20.915  44.409   4.647
    3AU       S 1195  22.113  44.219   6.611
    3AU     LIG 1196  21.859  43.878   6.350
    3AU     LIG 1197  21.864  43.399   6.208
    3AU     LIG 1198  21.781  42.948   6.032
    3AU     LIG 1199  21.481  42.732   5.740
    3AU     LIG 1200  21.322  42.518   5.348
    3AU    AUSL 1201  22.641  44.966   6.741
    3AU    AUSL 1202  22.236   0.074   6.987
    3AU     AUL 1203  22.391   0.128   6.635
    3AU       S 1204  21.907   0.261   6.708
    3AU     LIG 1205  21.613   0.544   6.475
    3AU     LIG 1206  21.503   0.634   6.022
    3AU     LIG 1207  21.056   0.723   5.870
    3AU     LIG 1208  20.724   0.898   5.579
    3AU     LIG 1209  20.399   1.214   5.415
    3AU       S 1210  22.358  44.830   6.246
    3AU     LIG 1211  22.105  44.691   5.865
    3AU     LIG 1212  22.031  44.557   5.421
    3AU     LIG 1213  22.033  44.594   4.949
    3AU     LIG 1214  22.100  44.872   4.549
    3AU     LIG 1215  21.973   0.222   4.249
    3AU    AUSL 1216  23.471   0.226   7.501
    3AU    AUSL 1217  23.390   0.084   7.110
    3AU     AUL 1218  23.694   0.255   7.187
    3AU       S 1219  23.602   0.522   6.752
    3AU     LIG 1220  23.957   0.541   6.403
    3AU     LIG 1221  24.311   0.628   6.068
    3AU     LIG 1222  24.664   0.767   5.745
    3AU     LIG 1223  25.001   0.802   5.390
    3AU     LIG 1224  25.333   1.022   5.104
    3AU       S 1225  24.013   0.322   7.596
    3AU     LIG 1226  24.439   0.539   7.540
    3AU     LIG 1227  24.895   0.539   7.407
    3AU     LIG 1228  25.275   0.807   7.351
    3AU     LIG 1229  25.663   1.035   7.495
    3AU     LIG 1230  25.965   1.359   7.269
    3AU    AUSL 1231  23.572  44.913   7.360
    3AU    AUSL 1232  23.556  44.609   7.647
    3AU     AUL 1233  23.843  44.669   7.351
    3AU       S 1234  24.056   0.085   7.526
    3AU     LIG 1235  24.525   0.043   7.436
    3AU     LIG 1236  24.991   0.027   7.348
    3AU     LIG 1237  25.376   0.254   7.252
    3AU     LIG 1238  25.745   0.159   6.990
    3AU     LIG 1239  26.147   0.392   6.964
    3AU       S 1240  23.949  44.222   7.667
    3AU     LIG 1241  24.386  44.028   7.704
    3AU     LIG 1242  24.686  43.714   7.837
    3AU     LIG 1243  25.152  43.696   7.943
    3AU     LIG 1244  25.584  43.797   8.115
    3AU     LIG 1245  26.002  43.715   8.282
    3AU    AUSL 1246  23.548  44.949   7.723
    3AU    AUSL 1247  23.266   0.342   7.781
    3AU     AUL 1248  23.563   0.331   7.796
    3AU       S 1249  23.614   0.567   8.228
    3AU     LIG 1250  23.980   0.827   8.433
    3AU     LIG 1251  24.330   1.002   8.705
    3AU     LIG 1252  24.394   1.440   8.884
    3AU     LIG 1253  24.718   1.790   8.811
    3AU     LIG 1254  24.924   2.168   8.989
    3AU       S 1255  23.971   0.019   7.811
    3AU     LIG 1256  24.404   0.184   7.920
    3AU     LIG 1257  24.872   0.206   7.811
    3AU     LIG 1258  25.352   0.102   7.749
    3AU     LIG 1259  25.774   0.183   7.967
    3AU     LIG 1260  26.027   0.545   8.205
    3AU    AUSL 1261  22.204   0.306   7.503
    3AU    AUSL 1262  22.203   0.124   7.924
    3AU     AUL 1263  21.898   0.313   7.703
    3AU       S 1264  21.930   0.256   8.224
    3AU     LIG 1265  21.772   0.318   8.647
    3AU     LIG 1266  21.620   0.665   8.924
    3AU     LIG 1267  21.350   0.930   9.199
    3AU     LIG 1268  21.056   1.007   9.560
    3AU     LIG 1269  20.603   1.038   9.720
    3AU       S 1270  22.051   0.763   7.471
    3AU     LIG 1271  21.748   1.032   7.748
    3AU     LIG 1272  21.369   1.343   7.745
    3AU     LIG 1273  20.940   1.526   7.869
    3AU     LIG 1274  20.558   1.806   7.832
    3AU     LIG 1275  20.240   1.851   7.469
    3AU    AUSL 1276  22.094  44.976   7.280
    3AU    AUSL 1277  22.335   0.379   7.191
    3AU     AUL 1278  21.969   0.282   7.222
    3AU       S 1279  21.730  44.848   6.930
    3AU     LIG 1280  21.275   0.018   6.951
    3AU     LIG 1281  20.888   0.312   6.923
    3AU     LIG 1282  20.584   0.700   6.855
    3AU     LIG 1283  20.099   0.678   6.819
    3AU     LIG 1284  19.705   0.532   6.646
    3AU       S 1285  22.032   0.716   6.957
    3AU     LIG 1286  21.797   1.013   6.647
    3AU     LIG 1287  21.825   1.300   6.252
    3AU     LIG 1288  21.529   1.631   6.068
    3AU     LIG 1289  21.088   1.851   6.155
    3AU     LIG 1290  20.968   2.302   6.236
    3AU    AUSL 1291  22.058  44.983   7.652
    3AU    AUSL 1292  22.012  44.655   7.341
    3AU     AUL 1293  21.781   0.011   7.428
    3AU       S 1294  21.534  44.559   7.380
    3AU     LIG 1295  21.112  44.329   7.273
    3AU     LIG 1296  20.644  44.210   7.285
    3AU     LIG 1297  20.202  44.352   7.255
    3AU     LIG 1298  19.767  44.226   7.168
    3AU     LIG 1299  19.326  44.117   7.121
    3AU       S 1300  21.666  44.918   7.959
    3AU     LIG 1301  21.204   0.017   7.975
    3AU     LIG 1302  20.960   0.393   8.067
    3AU     LIG 1303  20.518   0.510   8.096
    3AU     LIG 1304  20.093   0.681   8.181
    3AU     LIG 1305  19.648   0.767   8.307
    3AU    AUSL 1306  23.414  44.304   7.555
    3AU    AUSL 1307  23.350  44.467   7.915
    3AU     AUL 1308  23.662  44.529   7.924
    3AU       S 1309  23.729  44.029   7.587
    3AU     LIG 1310  24.055  43.682   7.520
    3AU     LIG 1311  24.398  43.352   7.551
    3AU     LIG 1312  24.683  42.963   7.515
    3AU     LIG 1313  25.012  42.768   7.198
    3AU     LIG 1314  25.514  42.766   7.223
    3AU       S 1315  23.623  44.039   8.074
    3AU     LIG 1316  23.837  43.927   8.493
    3AU     LIG 1317  24.175  43.632   8.701
    3AU     LIG 1318  24.354  43.271   8.956
    3AU     LIG 1319  24.775  43.082   9.133
    3AU     LIG 1320  25.032  43.112   9.536
    3AU    AUSL 1321  23.503  44.565   7.312
    3AU    AUSL 1322  23.240  44.203   7.235
    3AU     AUL 1323  23.565  44.281   7.162
    3AU       S 1324  23.959  44.181   7.435
    3AU     LIG 1325  24.310  43.993   7.200
    3AU     LIG 1326  24.658  43.721   7.293
    3AU     LIG 1327  25.100  43.674   7.149
    3AU     LIG 1328  25.493  43.621   6.918
    3AU     LIG 1329  25.965  43.633   6.757
    3AU       S 1330  23.503  43.962   6.775
    3AU     LIG 1331  23.623  43.516   6.859
    3AU     LIG 1332  23.929  43.184   6.791
    3AU     LIG 1333  24.002  42.834   6.548
    3AU     LIG 1334  24.398  42.729   6.329
    3AU     LIG 1335  24.845  42.570   6.227
    3AU    AUSL 1336  22.134  44.355   7.520
    3AU    AUSL 1337  22.191  44.540   7.058
    3AU     AUL 1338  21.953  44.288   7.252
    3AU       S 1339  21.920  44.379   6.753
    3AU     LIG 1340  21.510  44.217   6.609
    3AU     LIG 1341  21.184  43.891   6.536
    3AU     LIG 1342  20.870  43.831   6.194
    3AU     LIG 1343  20.602  43.595   5.874
    3AU     LIG 1344  20.203  43.449   5.642
    3AU       S 1345  21.556  44.341   7.547
    3AU     LIG 1346  21.291  43.984   7.614
    3AU     LIG 1347  20.960  43.783   7.359
    3AU     LIG 1348  20.498  43.677   7.409
    3AU     LIG 1349  20.093  43.458   7.368
    3AU     LIG 1350  19.810  43.300   7.665
    3AU    AUSL 1351  22.043  44.648   7.697
    3AU    AUSL 1352  22.295  44.220   7.804
    3AU     AUL 1353  21.962  44.343   7.847
    3AU       S 1354  22.038  43.948   8.155
    3AU     LIG 1355  21.754  43.598   7.993
    3AU     LIG 1356  21.412  43.374   8.201
    3AU     LIG 1357  21.035  43.156   8.216
    3AU     LIG 1358  20.932  42.765   8.444
    3AU     LIG 1359  20.486  42.681   8.619
    3AU       S 1360  21.554  44.573   7.625
    3AU     LIG 1361  21.111  44.552   7.744
    3AU     LIG 1362  20.664  44.567   7.651
    3AU     LIG 1363  20.308  44.276   7.748
    3AU     LIG 1364  19.835  44.292   7.806
    3AU     LIG 1365  19.406  44.181   8.005
    3AU    AUSL 1366  22.809   0.448   7.943
    3AU    AUSL 1367  22.383   0.419   7.790
    3AU     AUL 1368  22.568   0.541   8.175
    3AU       S 1369  22.140   0.734   7.957
    3AU     LIG 1370  21.879   1.013   8.253
    3AU     LIG 1371  21.720   1.121   8.686
    3AU     LIG 1372  21.500   1.392   8.984
    3AU     LIG 1373  21.139   1.672   8.995
    3AU     LIG 1374  21.032   2.094   8.846
    3AU       S 1375  22.809   0.972   8.027
    3AU     LIG 1376  23.138   1.126   8.369
    3AU     LIG 1377  23.364   1.370   8.740
    3AU     LIG 1378  23.419   1.758   8.997
    3AU     LIG 1379  23.277   2.212   9.056
    3AU     LIG 1380  22.971   2.604   9.023
    3AU    AUSL 1381  22.649   0.560   7.622
    3AU    AUSL 1382  22.984   0.573   7.323
    3AU     AUL 1383  22.617   0.817   7.354
    3AU       S 1384  22.617   0.979   7.830
    3AU     LIG 1385  22.594   1.464   7.886
    3AU     LIG 1386  22.654   1.833   8.200
    3AU     LIG 1387  22.687   2.290   8.330
    3AU     LIG 1388  22.765   2.754   8.383
    3AU     LIG 1389  22.620   3.020   8.692
    3AU       S 1390  23.084   1.004   7.131
    3AU     LIG 1391  23.219   1.483   7.021
    3AU     LIG 1392  23.561   1.808   6.964
    3AU     LIG 1393  23.743   2.202   6.803
    3AU     LIG 1394  23.807   2.611   6.587
    3AU     LIG 1395  23.700   3.082   6.525
    3AU    AUSL 1396  23.009   0.549   7.662
    3AU    AUSL 1397  23.089   0.272   8.074
    3AU     AUL 1398  23.158   0.611   7.984
    3AU       S 1399  23.421   0.455   8.402
    3AU     LIG 1400  23.765   0.452   8.733
    3AU     LIG 1401  23.972   0.760   8.993
    3AU     LIG 1402  24.287   1.013   9.235
    3AU     LIG 1403  24.465   1.059   9.683
    3AU     LIG 1404  24.477   1.323  10.069
    3AU       S 1405  22.960   1.007   7.720
    3AU     LIG 1406  23.113   1.398   7.921
    3AU     LIG 1407  23.445   1.729   7.927
    3AU     LIG 1408  23.524   2.135   8.152
    3AU     LIG 1409  23.671   2.583   8.278
    3AU     LIG 1410  23.541   3.028   8.430
    3AU    AUSL 1411  22.793  44.156   7.959
    3AU    AUSL 1412  23.172  44.176   7.807
    3AU     AUL 1413  22.973  44.134   8.247
    3AU       S 1414  22.949  43.663   8.038
    3AU     LIG 1415  22.785  43.355   8.314
    3AU     LIG 1416  22.607  42.950   8.378
    3AU     LIG 1417  22.692  42.595   8.634
    3AU     LIG 1418  22.714  42.147   8.723
    3AU     LIG 1419  22.658  41.910   9.131
    3AU       S 1420  23.406  43.873   7.923
    3AU     LIG 1421  23.397  43.396   8.025
    3AU     LIG 1422  23.650  43.088   8.284
    3AU     LIG 1423  24.134  43.136   8.460
    3AU     LIG 1424  24.458  42.842   8.698
    3AU     LIG 1425  24.876  42.647   8.858
    3AU    AUSL 1426  22.589  44.108   7.674
    3AU    AUSL 1427  22.509  44.321   8.085
    3AU     AUL 1428  22.505  43.956   7.985
    3AU       S 1429  22.791  43.552   7.822
    3AU     LIG 1430  22.457  43.276   7.899
    3AU     LIG 1431  22.290  42.898   7.987
    3AU     LIG 1432  22.086  42.590   8.199
    3AU     LIG 1433  22.050  42.110   8.171
    3AU     LIG 1434  21.934  41.721   8.435
    3AU       S 1435  22.260  44.120   8.409
    3AU     LIG 1436  21.995  43.760   8.631
    3AU     LIG 1437  21.736  43.734   8.999
    3AU     LIG 1438  21.749  43.412   9.299
    3AU     LIG 1439  21.711  43.096   9.606
    3AU     LIG 1440  21.367  42.944   9.874
    3AU    AUSL 1441  22.907  44.016   7.651
    3AU    AUSL 1442  22.572  44.041   7.330
    3AU     AUL 1443  22.457  43.849   7.610
    3AU       S 1444  22.597  43.553   7.221
    3AU     LIG 1445  22.252  43.190   7.164
    3AU     LIG 1446  21.932  42.824   7.031
    3AU     LIG 1447  21.872  42.404   6.827
    3AU     LIG 1448  21.857  41.999   6.634
    3AU     LIG 1449  21.799  41.584   6.701
    3AU       S 1450  23.025  43.619   7.750
    3AU     LIG 1451  22.976  43.112   7.905
    3AU     LIG 1452  22.823  42.690   7.989
    3AU     LIG 1453  22.958  42.247   7.980
    3AU     LIG 1454  23.227  41.856   8.052
    3AU     LIG 1455  23.380  41.594   8.418
    3AU    AUSL 1456  22.845   0.401   6.975
    3AU    AUSL 1457  23.290   0.388   7.258
    3AU     AUL 1458  23.134   0.513   7.037
    3AU       S 1459  22.940   0.844   6.735
    3AU     LIG 1460  23.263   1.122   6.640
    3AU     LIG 1461  23.157   1.540   6.451
    3AU     LIG 1462  23.236   1.741   6.013
    3AU     LIG 1463  23.134   2.104   5.700
    3AU     LIG 1464  22.884   2.514   5.617
    3AU       S 1465  23.557   0.730   6.928
    3AU     LIG 1466  23.814   0.981   6.609
    3AU     LIG 1467  24.257   0.997   6.434
    3AU     LIG 1468  24.520   1.387   6.396
    3AU     LIG 1469  24.773   1.690   6.166
    3AU     LIG 1470  24.926   2.097   6.101
    3AU    AUSL 1471  22.659   0.484   7.268
    3AU    AUSL 1472  22.536   0.256   6.927
    3AU     AUL 1473  22.534   0.610   6.967
    3AU       S 1474  22.876   0.994   6.967
    3AU     LIG 1475  22.727   1.429   6.894
    3AU     LIG 1476  22.696   1.890   6.924
    3AU     LIG 1477  22.726   2.260   6.645
    3AU     LIG 1478  22.678   2.736   6.592
    3AU     LIG 1479  22.638   3.089   6.285
    3AU       S 1480  22.103   0.542   6.690
    3AU     LIG 1481  22.009   0.770   6.252
    3AU     LIG 1482  21.857   0.977   5.842
    3AU     LIG 1483  21.958   1.086   5.385
    3AU     LIG 1484  21.831   1.390   5.048
    3AU     LIG 1485  21.484   1.640   4.848
    3AU    AUSL 1486  22.752  44.138   7.033
    3AU    AUSL 1487  22.304  44.237   7.220
    3AU     AUL 1488  22.430  43.992   6.983
    3AU       S 1489  21.965  44.082   6.801
    3AU     LIG 1490  21.625  43.743   6.811
    3AU     LIG 1491  21.253  43.474   6.889
    3AU     LIG 1492  21.079  43.126   6.662
    3AU     LIG 1493  20.934  42.718   6.471
    3AU     LIG 1494  20.744  42.554   6.086
    3AU       S 1495  22.753  43.594   6.977
    3AU     LIG 1496  22.975  43.250   6.743
    3AU     LIG 1497  22.786  42.853   6.591
    3AU     LIG 1498  22.596  42.528   6.295
    3AU     LIG 1499  22.662  42.092   6.077
    3AU     LIG 1500  22.954  41.883   5.777
    3AU    AUSL 1501  22.937  44.042   7.321
    3AU    AUSL 1502  23.037  44.299   6.925
    3AU     AUL 1503  23.087  43.960   7.037
    3AU       S 1504  22.877  43.573   7.285
    3AU     LIG 1505  22.938  43.130   7.246
    3AU     LIG 1506  23.069  42.700   7.136
    3AU     LIG 1507  22.976  42.309   6.891
    3AU     LIG 1508  23.254  41.919   6.825
    3AU     LIG 1509  23.410  41.479   6.617
    3AU       S 1510  23.226  44.095   6.567
    3AU     LIG 1511  23.272  43.606   6.471
    3AU     LIG 1512  23.230  43.182   6.238
    3AU     LIG 1513  23.523  42.896   5.969
    3AU     LIG 1514  23.841  42.831   5.593
    3AU     LIG 1515  23.958  42.822   5.127
    4AU     AUC 1516  15.334  14.184   7.511
    4AU     AUC 1517  15.608  14.166   7.354
    4AU     AUC 1518  15.598  14.168   7.680
    4AU     AUC 1519  15.073  14.197   7.337
    4AU     AUC 1520  15.061  14.202   7.671
    4AU     AUC 1521  15.187  14.459   7.499
    4AU     AUC 1522  15.518  14.442   7.513
    4AU     AUC 1523  15.149  13.926   7.511
    4AU     AUC 1524  15.478  13.904   7.513
    4AU     AUC 1525  15.315  14.022   7.781
    4AU     AUC 1526  15.340  14.351   7.776
    4AU     AUC 1527  15.335  14.015   7.245
    4AU     AUC 1528  15.355  14.345   7.240
    4AU     AUC 1529  15.876  14.158   7.202
    4AU     AUC 1530  15.877  14.144   7.519
    4AU     AUC 1531  15.855  14.149   7.837
    4AU     AUC 1532  14.826  14.199   7.159
    4AU     AUC 1533  14.788  14.209   7.494
    4AU     AUC 1534  14.796  14.223   7.825
    4AU     AUC 1535  15.046  14.725   7.488
    4AU     AUC 1536  15.376  14.729   7.498
    4AU     AUC 1537  15.690  14.696   7.515
    4AU     AUC 1538  14.972  13.681   7.513
    4AU     AUC 1539  15.294  13.638   7.509
    4AU     AUC 1540  15.616  13.629   7.521
    4AU     AUC 1541  15.309  13.866   8.043
    4AU     AUC 1542  15.325  14.187   8.061
    4AU     AUC 1543  15.341  14.515   8.022
    4AU     AUC 1544  15.347  13.852   6.992
    4AU     AUC 1545  15.372  14.179   6.969
    4AU     AUC 1546  15.378  14.499   6.975
    4AU     AUC 1547  15.593  14.004   7.951
    4AU     AUC 1548  15.620  14.336   7.961
    4AU     AUC 1549  15.619  14.009   7.076
    4AU     AUC 1550  15.642  14.341   7.088
    4AU     AUC 1551  15.037  14.039   7.963
    4AU     AUC 1552  15.056  14.368   7.943
    4AU     AUC 1553  15.071  14.021   7.069
    4AU     AUC 1554  15.088  14.353   7.048
    4AU     AUC 1555  15.800  14.422   7.367
    4AU     AUC 1556  15.789  14.434   7.695
    4AU     AUC 1557  14.917  14.481   7.314
    4AU     AUC 1558  14.907  14.492   7.663
    4AU     AUC 1559  15.762  13.879   7.354
    4AU     AUC 1560  15.745  13.875   7.676
    4AU     AUC 1561  14.875  13.936   7.338
    4AU     AUC 1562  14.866  13.938   7.682
    4AU     AUC 1563  15.192  14.641   7.763
    4AU     AUC 1564  15.532  14.623   7.782
    4AU     AUC 1565  15.126  13.760   7.794
    4AU     AUC 1566  15.454  13.728   7.780
    4AU     AUC 1567  15.202  14.620   7.213
    4AU     AUC 1568  15.533  14.621   7.235
    4AU     AUC 1569  15.147  13.744   7.235
    4AU     AUC 1570  15.479  13.727   7.238
    4AU    AUSL 1571  15.833  14.109   8.134
    4AU    AUSL 1572  15.581  13.741   8.071
    4AU     AUL 1573  15.882  13.744   8.270
    4AU       S 1574  15.902  13.229   8.151
    4AU     LIG 1575  15.877  12.815   8.366
    4AU     LIG 1576  16.042  12.511   8.673
    4AU     LIG 1577  16.319  12.454   9.028
    4AU     LIG 1578  16.638  12.281   9.288
    4AU     LIG 1579  16.771  12.209   9.728
    4AU       S 1580  16.157  14.099   8.524
    4AU     LIG 1581  16.195  14.213   8.991
    4AU     LIG 1582  16.272  13.970   9.403
    4AU     LIG 1583  16.491  13.732   9.770
    4AU     LIG 1584  16.884  13.765  10.069
    4AU     LIG 1585  17.259  13.794  10.381
    4AU    AUSL 1586  15.511  14.017   8.271
    4AU    AUSL 1587  15.154  14.359   8.271
    4AU     AUL 1588  15.394  14.222   8.550
    4AU       S 1589  15.819  13.972   8.715
    4AU     LIG 1590  15.865  13.793   9.140
    4AU     LIG 1591  15.997  13.551   9.530
    4AU     LIG 1592  16.122  13.320   9.920
    4AU     LIG 1593  16.131  13.154  10.364
    4AU     LIG 1594  15.992  13.242  10.801
    4AU       S 1595  14.920  14.282   8.747
    4AU     LIG 1596  14.674  14.187   9.150
    4AU     LIG 1597  14.635  13.969   9.570
    4AU     LIG 1598  14.470  14.001  10.003
    4AU     LIG 1599  14.387  14.350  10.310
    4AU     LIG 1600  14.353  14.699  10.630
    4AU    AUSL 1601  15.485  14.392   8.229
    4AU    AUSL 1602  15.919  14.430   8.013
    4AU     AUL 1603  15.758  14.354   8.369
    4AU       S 1604  15.475  14.743   8.587
    4AU     LIG 1605  15.767  14.673   8.959
    4AU     LIG 1606  16.057  14.803   9.325
    4AU     LIG 1607  16.061  14.949   9.796
    4AU     LIG 1608  16.016  15.015  10.276
    4AU     LIG 1609  15.940  15.010  10.756
    4AU       S 1610  16.195  14.616   8.318
    4AU     LIG 1611  16.620  14.645   8.489
    4AU     LIG 1612  16.852  14.683   8.885
    4AU     LIG 1613  17.074  15.034   9.107
    4AU     LIG 1614  17.278  15.446   9.251
    4AU     LIG 1615  17.686  15.678   9.341
    4AU    AUSL 1616  15.831  14.257   6.891
    4AU    AUSL 1617  15.689  14.588   6.951
    4AU     AUL 1618  15.652  14.628   6.624
    4AU       S 1619  16.036  14.271   6.460
    4AU     LIG 1620  16.310  13.974   6.204
    4AU     LIG 1621  16.353  13.765   5.788
    4AU     LIG 1622  16.486  13.718   5.332
    4AU     LIG 1623  16.843  13.689   5.010
    4AU     LIG 1624  17.096  13.866   4.648
    4AU       S 1625  16.146  14.705   6.697
    4AU     LIG 1626  16.351  14.941   6.358
    4AU     LIG 1627  16.538  15.172   5.992
    4AU     LIG 1628  16.778  15.516   5.782
    4AU     LIG 1629  16.878  15.705   5.368
    4AU     LIG 1630  16.751  16.003   5.023
    4AU    AUSL 1631  15.614  13.994   6.785
    4AU    AUSL 1632  15.863  13.872   7.040
    4AU     AUL 1633  16.082  14.024   6.891
    4AU       S 1634  16.045  13.579   6.640
    4AU     LIG 1635  16.245  13.231   6.324
    4AU     LIG 1636  16.446  12.788   6.264
    4AU     LIG 1637  16.771  12.494   6.049
    4AU     LIG 1638  17.054  12.561   5.660
    4AU     LIG 1639  17.481  12.667   5.473
    4AU       S 1640  15.853  13.968   6.408
    4AU     LIG 1641  15.945  13.606   6.113
    4AU     LIG 1642  15.925  13.523   5.645
    4AU     LIG 1643  16.025  13.527   5.175
    4AU     LIG 1644  16.041  13.550   4.697
    4AU     LIG 1645  16.046  13.565   4.217
    4AU    AUSL 1646  15.527  14.330   6.756
    4AU    AUSL 1647  15.231  14.013   6.797
    4AU     AUL 1648  15.367  14.108   6.495
    4AU       S 1649  14.828  14.019   6.348
    4AU     LIG 1650  14.705  13.656   6.088
    4AU     LIG 1651  14.662  13.544   5.626
    4AU     LIG 1652  14.565  13.365   5.199
    4AU     LIG 1653  14.506  13.206   4.758
    4AU     LIG 1654  14.260  13.287   4.370
    4AU       S 1655  15.823  14.252   6.313
    4AU     LIG 1656  15.914  14.058   5.878
    4AU     LIG 1657  16.040  13.985   5.425
    4AU     LIG 1658  16.046  14.018   4.947
    4AU     LIG 1659  15.971  14.301   4.554
    4AU     LIG 1660  16.089  14.570   4.173
    4AU    AUSL 1661  14.843  14.265   8.142
    4AU    AUSL 1662  15.063  14.625   8.045
    4AU     AUL 1663  14.943  14.613   8.366
    4AU       S 1664  14.645  14.268   8.617
    4AU     LIG 1665  14.444  13.885   8.784
    4AU     LIG 1666  14.318  13.778   9.214
    4AU     LIG 1667  14.133  13.796   9.648
    4AU     LIG 1668  13.752  13.847   9.930
    4AU     LIG 1669  13.438  13.891  10.281
    4AU       S 1670  14.601  14.970   8.187
    4AU     LIG 1671  14.582  15.192   8.606
    4AU     LIG 1672  14.649  15.503   8.958
    4AU     LIG 1673  14.572  15.637   9.410
    4AU     LIG 1674  14.404  15.765   9.842
    4AU     LIG 1675  14.107  15.875  10.197
    4AU    AUSL 1676  15.153  14.005   8.270
    4AU    AUSL 1677  14.725  13.948   7.965
    4AU     AUL 1678  14.808  13.962   8.267
    4AU       S 1679  14.429  13.646   8.294
    4AU     LIG 1680  14.006  13.509   8.283
    4AU     LIG 1681  13.758  13.180   8.466
    4AU     LIG 1682  13.547  12.829   8.690
    4AU     LIG 1683  13.277  12.475   8.875
    4AU     LIG 1684  12.838  12.385   9.050
    4AU       S 1685  14.950  14.010   8.736
    4AU     LIG 1686  14.839  13.708   9.068
    4AU     LIG 1687  14.678  13.472   9.422
    4AU     LIG 1688  14.513  13.501   9.843
    4AU     LIG 1689  14.550  13.470  10.299
    4AU     LIG 1690  14.512  13.217  10.694
    4AU    AUSL 1691  14.916  14.154   6.838
    4AU    AUSL 1692  15.036  13.751   6.935
    4AU     AUL 1693  15.159  13.779   6.618
    4AU       S 1694  14.654  14.151   6.502
    4AU     LIG 1695  14.304  13.934   6.286
    4AU     LIG 1696  14.242  13.716   5.865
    4AU     LIG 1697  14.167  13.660   5.393
    4AU     LIG 1698  13.820  13.724   5.070
    4AU     LIG 1699  13.588  14.037   4.803
    4AU       S 1700  14.660  13.632   6.611
    4AU     LIG 1701  14.287  13.417   6.360
    4AU     LIG 1702  14.057  12.993   6.366
    4AU     LIG 1703  13.882  12.572   6.187
    4AU     LIG 1704  13.693  12.270   5.848
    4AU     LIG 1705  13.752  12.025   5.433
    4AU    AUSL 1706  15.191  14.359   6.754
    4AU    AUSL 1707  14.798  14.474   6.988
    4AU     AUL 1708  14.969  14.530   6.639
    4AU       S 1709  14.482  14.656   6.696
    4AU     LIG 1710  14.199  14.797   6.376
    4AU     LIG 1711  14.078  15.001   5.996
    4AU     LIG 1712  13.789  14.946   5.638
    4AU     LIG 1713  13.416  15.043   5.374
    4AU     LIG 1714  13.243  15.285   5.015
    4AU       S 1715  14.914  14.226   6.257
    4AU     LIG 1716  14.602  14.123   5.898
    4AU     LIG 1717  14.533  14.019   5.447
    4AU     LIG 1718  14.548  14.128   4.978
    4AU     LIG 1719  14.608  14.405   4.576
    4AU     LIG 1720  14.538  14.666   4.173
    4AU    AUSL 1721  16.003  14.592   7.500
    4AU    AUSL 1722  15.978  14.463   7.146
    4AU     AUL 1723  16.077  14.891   7.372
    4AU       S 1724  16.279  14.556   6.901
    4AU     LIG 1725  16.657  14.599   6.642
    4AU     LIG 1726  16.845  14.818   6.267
    4AU     LIG 1727  17.050  15.114   5.958
    4AU     LIG 1728  17.242  15.322   5.584
    4AU     LIG 1729  17.680  15.309   5.392
    4AU       S 1730  16.513  14.628   7.334
    4AU     LIG 1731  17.008  14.671   7.283
    4AU     LIG 1732  17.447  14.792   7.454
    4AU     LIG 1733  17.780  15.173   7.470
    4AU     LIG 1734  18.122  15.506   7.589
    4AU     LIG 1735  18.492  15.760   7.726
    4AU    AUSL 1736  16.125  14.256   7.392
    4AU    AUSL 1737  16.069  13.985   7.664
    4AU     AUL 1738  16.352  14.153   7.792
    4AU       S 1739  16.495  14.312   7.282
    4AU     LIG 1740  16.901  14.176   7.157
    4AU     LIG 1741  17.345  14.311   7.098
    4AU     LIG 1742  17.784  14.513   7.041
    4AU     LIG 1743  18.163  14.816   6.916
    4AU     LIG 1744  18.505  15.172   6.879
    4AU       S 1745  16.528  13.729   7.562
    4AU     LIG 1746  16.940  13.590   7.741
    4AU     LIG 1747  17.193  13.208   7.748
    4AU     LIG 1748  17.648  13.155   7.687
    4AU     LIG 1749  17.989  13.393   7.897
    4AU     LIG 1750  18.207  13.205   8.240
    4AU    AUSL 1751  16.062  14.330   7.719
    4AU    AUSL 1752  15.848  14.728   7.795
    4AU     AUL 1753  16.198  14.640   7.799
    4AU       S 1754  16.153  14.913   8.219
    4AU     LIG 1755  16.403  15.119   8.527
    4AU     LIG 1756  16.820  15.147   8.665
    4AU     LIG 1757  17.176  15.411   8.743
    4AU     LIG 1758  17.382  15.798   8.867
    4AU     LIG 1759  17.381  16.074   9.196
    4AU       S 1760  16.600  14.476   7.513
    4AU     LIG 1761  17.020  14.419   7.728
    4AU     LIG 1762  17.436  14.523   7.926
    4AU     LIG 1763  17.824  14.706   8.095
    4AU     LIG 1764  18.274  14.681   8.198
    4AU     LIG 1765  18.619  14.905   8.063
    4AU    AUSL 1766  14.750  14.704   7.502
    4AU    AUSL 1767  14.739  14.524   7.931
    4AU     AUL 1768  14.447  14.717   7.706
    4AU       S 1769  14.444  14.672   8.223
    4AU     LIG 1770  14.065  14.582   8.494
    4AU     LIG 1771  13.886  14.653   8.926
    4AU     LIG 1772  13.704  14.961   9.223
    4AU     LIG 1773  13.428  15.157   9.553
    4AU     LIG 1774  13.100  15.265   9.881
    4AU       S 1775  14.575  15.155   7.458
    4AU     LIG 1776  14.091  15.239   7.434
    4AU     LIG 1777  13.642  15.427   7.461
    4AU     LIG 1778  13.233  15.551   7.640
    4AU     LIG 1779  12.953  15.922   7.723
    4AU     LIG 1780  12.655  16.157   7.510
    4AU    AUSL 1781  14.643  14.374   7.276
    4AU    AUSL 1782  14.891  14.777   7.194
    4AU     AUL 1783  14.523  14.678   7.215
    4AU       S 1784  14.277  14.265   6.918
    4AU     LIG 1785  13.949  14.605   6.777
    4AU     LIG 1786  13.451  14.643   6.796
    4AU     LIG 1787  13.099  14.993   6.751
    4AU     LIG 1788  12.668  15.220   6.764
    4AU     LIG 1789  12.186  15.212   6.557
    4AU       S 1790  14.600  15.108   6.951
    4AU     LIG 1791  14.281  15.269   6.619
    4AU     LIG 1792  14.191  15.524   6.211
    4AU     LIG 1793  14.032  15.931   5.961
    4AU     LIG 1794  13.795  16.272   5.705
    4AU     LIG 1795  13.334  16.439   5.744
    4AU    AUSL 1796  14.601  14.385   7.653
    4AU    AUSL 1797  14.553  14.053   7.326
    4AU     AUL 1798  14.331  14.410   7.424
    4AU       S 1799  14.087  13.968   7.312
    4AU     LIG 1800  13.637  13.883   7.168
    4AU     LIG 1801  13.300  13.624   6.990
    4AU     LIG 1802  12.862  13.452   7.066
    4AU     LIG 1803  12.406  13.550   7.147
    4AU     LIG 1804  12.013  13.301   7.122
    4AU       S 1805  14.191  14.328   7.949
    4AU     LIG 1806  13.813  14.649   8.033
    4AU     LIG 1807  13.421  14.916   8.195
    4AU     LIG 1808  12.957  15.032   8.102
    4AU     LIG 1809  12.518  15.258   8.226
    4AU     LIG 1810  12.053  15.128   8.242
    4AU    AUSL 1811  15.950  13.673   7.565
    4AU    AUSL 1812  15.874  13.836   7.912
    4AU     AUL 1813  16.192  13.834   7.942
    4AU       S 1814  16.370  13.500   7.585
    4AU     LIG 1815  16.642  13.169   7.652
    4AU     LIG 1816  16.929  12.934   7.400
    4AU     LIG 1817  17.338  12.753   7.461
    4AU     LIG 1818  17.743  12.536   7.451
    4AU     LIG 1819  18.177  12.615   7.595
    4AU       S 1820  16.132  13.339   8.010
    4AU     LIG 1821  16.357  13.021   8.263
    4AU     LIG 1822  16.461  12.819   8.663
    4AU     LIG 1823  16.801  12.628   8.939
    4AU     LIG 1824  17.103  12.510   9.284
    4AU     LIG 1825  17.536  12.487   9.468
    4AU    AUSL 1826  16.063  13.928   7.315
    4AU    AUSL 1827  15.761  13.603   7.250
    4AU     AUL 1828  16.070  13.585   7.193
    4AU       S 1829  16.510  13.800   7.331
    4AU     LIG 1830  16.876  13.460   7.259
    4AU     LIG 1831  17.322  13.255   7.266
    4AU     LIG 1832  17.722  12.997   7.206
    4AU     LIG 1833  18.172  13.033   7.111
    4AU     LIG 1834  18.603  12.990   6.923
    4AU       S 1835  16.019  13.349   6.749
    4AU     LIG 1836  16.146  12.872   6.703
    4AU     LIG 1837  16.305  12.416   6.605
    4AU     LIG 1838  16.583  12.069   6.382
    4AU     LIG 1839  16.877  11.682   6.300
    4AU     LIG 1840  17.268  11.512   6.480
    4AU    AUSL 1841  14.680  13.765   7.510
    4AU    AUSL 1842  14.742  13.936   7.058
    4AU     AUL 1843  14.511  13.665   7.259
    4AU       S 1844  14.461  13.798   6.765
    4AU     LIG 1845  14.009  13.694   6.755
    4AU     LIG 1846  13.712  13.331   6.666
    4AU     LIG 1847  13.548  12.942   6.427
    4AU     LIG 1848  13.380  12.626   6.113
    4AU     LIG 1849  13.150  12.490   5.727
    4AU       S 1850  14.076  13.763   7.461
    4AU     LIG 1851  13.845  13.425   7.187
    4AU     LIG 1852  13.465  13.140   7.099
    4AU     LIG 1853  13.018  12.967   7.227
    4AU     LIG 1854  12.683  12.650   7.375
    4AU     LIG 1855  12.297  12.452   7.199
    4AU    AUSL 1856  14.558  14.051   7.679
    4AU    AUSL 1857  14.813  13.635   7.813
    4AU     AUL 1858  14.470  13.719   7.786
    4AU       S 1859  14.514  13.399   8.176
    4AU     LIG 1860  14.189  13.033   8.185
    4AU     LIG 1861  13.830  12.713   8.248
    4AU     LIG 1862  13.571  12.369   8.445
    4AU     LIG 1863  13.493  12.020   8.756
    4AU     LIG 1864  13.278  11.617   8.762
    4AU       S 1865  14.064  13.982   7.589
    4AU     LIG 1866  13.625  13.726   7.653
    4AU     LIG 1867  13.190  13.784   7.464
    4AU     LIG 1868  12.758  13.631   7.552
    4AU     LIG 1869  12.483  13.440   7.901
    4AU     LIG 1870  12.050  13.240   8.025
    4AU    AUSL 1871  15.358  14.831   7.954
    4AU    AUSL 1872  14.930  14.816   7.790
    4AU     AUL 1873  15.107  14.914   8.187
    4AU       S 1874  14.730  15.164   7.934
    4AU     LIG 1875  14.688  15.547   8.251
    4AU     LIG 1876  14.339  15.688   8.568
    4AU     LIG 1877  14.194  16.142   8.737
    4AU     LIG 1878  13.811  16.482   8.816
    4AU     LIG 1879  13.331  16.480   8.827
    4AU       S 1880  15.334  15.334   8.034
    4AU     LIG 1881  15.212  15.578   8.426
    4AU     LIG 1882  15.467  15.892   8.666
    4AU     LIG 1883  15.614  16.302   8.871
    4AU     LIG 1884  15.797  16.636   9.170
    4AU     LIG 1885  15.788  17.077   9.343
    4AU    AUSL 1886  15.211  14.945   7.638
    4AU    AUSL 1887  15.539  14.961   7.329
    4AU     AUL 1888  15.131  15.188   7.385
    4AU       S 1889  15.212  15.396   7.837
    4AU     LIG 1890  15.452  15.811   8.037
    4AU     LIG 1891  15.495  16.219   8.262
    4AU     LIG 1892  15.303  16.637   8.327
    4AU     LIG 1893  15.248  17.115   8.256
    4AU     LIG 1894  15.213  17.572   8.387
    4AU       S 1895  15.622  15.372   7.233
    4AU     LIG 1896  15.786  15.814   7.167
    4AU     LIG 1897  15.891  16.189   6.867
    4AU     LIG 1898  16.048  16.582   6.589
    4AU     LIG 1899  16.361  16.984   6.534
    4AU     LIG 1900  16.332  17.442   6.392
    4AU    AUSL 1901  15.572  14.924   7.672
    4AU    AUSL 1902  15.640  14.650   8.075
    4AU     AUL 1903  15.703  14.992   8.000
    4AU       S 1904  15.955  14.824   8.429
    4AU     LIG 1905  16.246  14.739   8.820
    4AU     LIG 1906  16.517  15.021   9.075
    4AU     LIG 1907  16.741  15.379   9.293
    4AU     LIG 1908  16.743  15.680   9.663
    4AU     LIG 1909  16.633  16.020   9.983
    4AU       S 1910  15.520  15.385   7.728
    4AU     LIG 1911  15.815  15.735   7.688
    4AU     LIG 1912  15.914  16.119   7.947
    4AU     LIG 1913  16.180  16.518   8.027
    4AU     LIG 1914  16.258  16.989   8.073
    4AU     LIG 1915  16.220  17.274   8.468
    4AU    AUSL 1916  15.306  13.545   7.978
    4AU    AUSL 1917  15.690  13.553   7.807
    4AU     AUL 1918  15.515  13.522   8.262
    4AU       S 1919  15.434  13.055   8.066
    4AU     LIG 1920  15.373  12.726   8.365
    4AU     LIG 1921  15.342  12.287   8.392
    4AU     LIG 1922  15.419  11.842   8.442
    4AU     LIG 1923  15.274  11.542   8.746
    4AU     LIG 1924  15.400  11.205   9.025
    4AU       S 1925  15.924  13.232   7.870
    4AU     LIG 1926  16.067  12.786   7.899
    4AU     LIG 1927  16.276  12.499   8.221
    4AU     LIG 1928  16.558  12.327   8.590
    4AU     LIG 1929  16.717  11.950   8.842
    4AU     LIG 1930  17.022  11.552   8.829
    4AU    AUSL 1931  15.097  13.491   7.694
    4AU    AUSL 1932  15.024  13.729   8.091
    4AU     AUL 1933  14.992  13.364   8.007
    4AU       S 1934  15.266  12.937   7.885
    4AU     LIG 1935  15.098  12.499   7.978
    4AU     LIG 1936  14.972  12.050   8.102
    4AU     LIG 1937  14.814  11.590   8.104
    4AU     LIG 1938  14.547  11.187   8.194
    4AU     LIG 1939  14.490  10.830   8.511
    4AU       S 1940  14.700  13.492   8.419
    4AU     LIG 1941  14.320  13.261   8.632
    4AU     LIG 1942  14.089  12.841   8.676
    4AU     LIG 1943  13.862  12.462   8.854
    4AU     LIG 1944  13.655  12.295   9.223
    4AU     LIG 1945  13.739  12.302   9.697
    4AU    AUSL 1946  15.415  13.395   7.666
    4AU    AUSL 1947  15.111  13.434   7.342
    4AU     AUL 1948  14.978  13.226   7.600
    4AU       S 1949  15.171  12.959   7.208
    4AU     LIG 1950  15.021  12.573   6.971
    4AU     LIG 1951  14.853  12.141   6.922
    4AU     LIG 1952  14.502  11.808   6.930
    4AU     LIG 1953  14.442  11.368   6.785
    4AU     LIG 1954  14.767  11.073   6.575
    4AU       S 1955  15.503  13.008   7.778
    4AU     LIG 1956  15.606  12.546   7.944
    4AU     LIG 1957  15.466  12.074   7.945
    4AU     LIG 1958  15.567  11.615   8.011
    4AU     LIG 1959  15.542  11.217   8.262
    4AU     LIG 1960  15.694  10.930   8.587
    4AU    AUSL 1961  15.417  14.813   7.002
    4AU    AUSL 1962  15.794  14.730   7.254
    4AU     AUL 1963  15.761  14.937   6.994
    4AU       S 1964  15.486  15.320   6.845
    4AU     LIG 1965  15.723  15.679   6.668
    4AU     LIG 1966  15.661  16.075   6.424
    4AU     LIG 1967  15.764  16.448   6.148
    4AU     LIG 1968  15.837  16.811   5.837
    4AU     LIG 1969  15.767  17.090   5.455
    4AU       S 1970  16.265  14.846   6.910
    4AU     LIG 1971  16.627  15.098   6.759
    4AU     LIG 1972  16.828  15.318   6.394
    4AU     LIG 1973  17.125  15.612   6.173
    4AU     LIG 1974  17.329  16.059   6.168
    4AU     LIG 1975  17.363  16.358   5.819
    4AU    AUSL 1976  15.213  14.873   7.286
    4AU    AUSL 1977  15.105  14.657   6.937
    4AU     AUL 1978  15.103  15.009   6.977
    4AU       S 1979  15.415  15.433   7.069
    4AU     LIG 1980  15.344  15.898   6.933
    4AU     LIG 1981  15.396  16.357   6.786
    4AU     LIG 1982  15.200  16.807   6.749
    4AU     LIG 1983  14.890  17.195   6.752
    4AU     LIG 1984  14.765  17.667   6.741
    4AU       S 1985  14.674  14.934   6.694
    4AU     LIG 1986  14.591  15.106   6.249
    4AU     LIG 1987  14.476  15.301   5.832
    4AU     LIG 1988  14.491  15.501   5.400
    4AU     LIG 1989  14.376  15.827   5.084
    4AU     LIG 1990  14.023  16.133   5.013
    4AU    AUSL 1991  15.297  13.527   7.043
    4AU    AUSL 1992  14.858  13.640   7.221
    4AU     AUL 1993  14.963  13.389   6.994
    4AU       S 1994  14.514  13.512   6.788
    4AU     LIG 1995  14.179  13.199   6.839
    4AU     LIG 1996  13.856  12.856   6.837
    4AU     LIG 1997  13.639  12.478   6.637
    4AU     LIG 1998  13.502  12.156   6.320
    4AU     LIG 1999  13.554  11.747   6.088
    4AU       S 2000  15.304  13.009   6.956
    4AU     LIG 2001  15.397  12.716   6.622
    4AU     LIG 2002  15.200  12.310   6.547
    4AU     LIG 2003  15.087  11.868   6.533
    4AU     LIG 2004  15.265  11.518   6.271
    4AU     LIG 2005  15.467  11.128   6.115
    4AU    AUSL 2006  15.472  13.427   7.339
    4AU    AUSL 2007  15.579  13.689   6.933
    4AU     AUL 2008  15.646  13.354   7.065
    4AU       S 2009  15.427  12.957   7.287
    4AU     LIG 2010  15.516  12.538   7.087
    4AU     LIG 2011  15.386  12.102   6.978
    4AU     LIG 2012  15.471  11.673   6.811
    4AU     LIG 2013  15.515  11.245   6.626
    4AU     LIG 2014  15.691  10.832   6.483
    4AU       S 2015  15.754  13.497   6.581
    4AU     LIG 2016  15.760  13.051   6.408
    4AU     LIG 2017  15.944  12.624   6.292
    4AU     LIG 2018  16.255  12.333   6.075
    4AU     LIG 2019  16.535  12.139   5.735
    4AU     LIG 2020  16.675  12.014   5.288
    5AU     AUC 2021  41.173   5.237   7.511
    5AU     AUC 2022  41.446   5.219   7.354
    5AU     AUC 2023  41.437   5.220   7.680
    5AU     AUC 2024  40.913   5.252   7.336
    5AU     AUC 2025  40.902   5.256   7.670
    5AU     AUC 2026  41.029   5.515   7.500
    5AU     AUC 2027  41.359   5.495   7.513
    5AU     AUC 2028  40.987   4.979   7.509
    5AU     AUC 2029  41.314   4.956   7.513
    5AU     AUC 2030  41.153   5.075   7.780
    5AU     AUC 2031  41.181   5.405   7.776
    5AU     AUC 2032  41.173   5.070   7.244
    5AU     AUC 2033  41.196   5.400   7.239
    5AU     AUC 2034  41.715   5.209   7.205
    5AU     AUC 2035  41.716   5.193   7.520
    5AU     AUC 2036  41.693   5.197   7.838
    5AU     AUC 2037  40.666   5.256   7.158
    5AU     AUC 2038  40.630   5.264   7.495
    5AU     AUC 2039  40.639   5.276   7.826
    5AU     AUC 2040  40.889   5.781   7.490
    5AU     AUC 2041  41.219   5.784   7.499
    5AU     AUC 2042  41.533   5.748   7.517
    5AU     AUC 2043  40.810   4.733   7.508
    5AU     AUC 2044  41.128   4.687   7.505
    5AU     AUC 2045  41.448   4.678   7.520
    5AU     AUC 2046  41.145   4.919   8.042
    5AU     AUC 2047  41.164   5.242   8.060
    5AU     AUC 2048  41.184   5.570   8.022
    5AU     AUC 2049  41.186   4.910   6.991
    5AU     AUC 2050  41.213   5.236   6.967
    5AU     AUC 2051  41.219   5.554   6.974
    5AU     AUC 2052  41.430   5.055   7.951
    5AU     AUC 2053  41.461   5.388   7.961
    5AU     AUC 2054  41.459   5.064   7.077
    5AU     AUC 2055  41.483   5.396   7.089
    5AU     AUC 2056  40.877   5.092   7.963
    5AU     AUC 2057  40.898   5.424   7.943
    5AU     AUC 2058  40.910   5.079   7.067
    5AU     AUC 2059  40.929   5.409   7.045
    5AU     AUC 2060  41.642   5.472   7.369
    5AU     AUC 2061  41.632   5.484   7.694
    5AU     AUC 2062  40.759   5.535   7.314
    5AU     AUC 2063  40.748   5.546   7.663
    5AU     AUC 2064  41.597   4.931   7.356
    5AU     AUC 2065  41.579   4.924   7.679
    5AU     AUC 2066  40.713   4.991   7.335
    5AU     AUC 2067  40.709   4.992   7.681
    5AU     AUC 2068  41.035   5.698   7.764
    5AU     AUC 2069  41.376   5.676   7.782
    5AU     AUC 2070  40.964   4.810   7.790
    5AU     AUC 2071  41.288   4.778   7.777
    5AU     AUC 2072  41.044   5.676   7.213
    5AU     AUC 2073  41.374   5.674   7.237
    5AU     AUC 2074  40.982   4.800   7.231
    5AU     AUC 2075  41.312   4.781   7.236
    5AU    AUSL 2076  41.671   5.162   8.133
    5AU    AUSL 2077  41.407   4.792   8.070
    5AU     AUL 2078  41.684   4.801   8.289
    5AU       S 2079  41.728   4.290   8.166
    5AU     LIG 2080  41.676   3.878   8.357
    5AU     LIG 2081  41.917   3.652   8.697
    5AU     LIG 2082  42.202   3.442   9.009
    5AU     LIG 2083  42.434   3.401   9.415
    5AU     LIG 2084  42.411   3.475   9.888
    5AU       S 2085  42.008   5.153   8.492
    5AU     LIG 2086  42.111   5.277   8.935
    5AU     LIG 2087  42.158   5.022   9.331
    5AU     LIG 2088  42.357   4.761   9.669
    5AU     LIG 2089  42.714   4.814   9.967
    5AU     LIG 2090  42.934   5.013  10.337
    5AU    AUSL 2091  41.350   5.072   8.271
    5AU    AUSL 2092  40.994   5.416   8.269
    5AU     AUL 2093  41.228   5.269   8.552
    5AU       S 2094  41.681   5.054   8.722
    5AU     LIG 2095  41.734   4.822   9.114
    5AU     LIG 2096  41.903   4.579   9.479
    5AU     LIG 2097  41.974   4.393   9.908
    5AU     LIG 2098  41.864   4.217  10.345
    5AU     LIG 2099  41.819   4.197  10.821
    5AU       S 2100  40.747   5.361   8.740
    5AU     LIG 2101  40.501   5.300   9.146
    5AU     LIG 2102  40.487   5.075   9.565
    5AU     LIG 2103  40.362   5.062  10.021
    5AU     LIG 2104  40.317   5.370  10.391
    5AU     LIG 2105  40.223   5.716  10.717
    5AU    AUSL 2106  41.325   5.446   8.230
    5AU    AUSL 2107  41.762   5.479   8.012
    5AU     AUL 2108  41.597   5.410   8.366
    5AU       S 2109  41.311   5.797   8.581
    5AU     LIG 2110  41.591   5.819   8.955
    5AU     LIG 2111  41.878   5.872   9.332
    5AU     LIG 2112  41.861   5.909   9.819
    5AU     LIG 2113  41.855   5.997  10.300
    5AU     LIG 2114  41.978   6.075  10.760
    5AU       S 2115  42.036   5.665   8.321
    5AU     LIG 2116  42.397   5.533   8.557
    5AU     LIG 2117  42.714   5.759   8.787
    5AU     LIG 2118  42.906   5.990   9.133
    5AU     LIG 2119  43.168   6.329   9.314
    5AU     LIG 2120  43.563   6.385   9.583
    5AU    AUSL 2121  41.672   5.315   6.894
    5AU    AUSL 2122  41.532   5.644   6.954
    5AU     AUL 2123  41.495   5.691   6.632
    5AU       S 2124  41.882   5.334   6.469
    5AU     LIG 2125  42.157   5.082   6.182
    5AU     LIG 2126  42.179   4.884   5.762
    5AU     LIG 2127  42.299   4.888   5.305
    5AU     LIG 2128  42.634   4.877   4.964
    5AU     LIG 2129  43.058   4.801   4.734
    5AU       S 2130  41.992   5.763   6.700
    5AU     LIG 2131  42.256   5.969   6.373
    5AU     LIG 2132  42.502   6.195   6.022
    5AU     LIG 2133  42.644   6.453   5.634
    5AU     LIG 2134  42.651   6.813   5.298
    5AU     LIG 2135  42.690   7.132   4.938
    5AU    AUSL 2136  41.458   5.053   6.790
    5AU    AUSL 2137  41.704   4.924   7.041
    5AU     AUL 2138  41.926   5.087   6.902
    5AU       S 2139  41.890   4.650   6.645
    5AU     LIG 2140  42.153   4.389   6.325
    5AU     LIG 2141  42.360   3.976   6.216
    5AU     LIG 2142  42.674   3.699   6.005
    5AU     LIG 2143  43.088   3.746   5.750
    5AU     LIG 2144  43.470   4.001   5.590
    5AU       S 2145  41.711   5.041   6.412
    5AU     LIG 2146  41.797   4.697   6.121
    5AU     LIG 2147  41.763   4.593   5.675
    5AU     LIG 2148  41.881   4.586   5.218
    5AU     LIG 2149  41.968   4.569   4.755
    5AU     LIG 2150  41.999   4.382   4.313
    5AU    AUSL 2151  41.369   5.387   6.754
    5AU    AUSL 2152  41.074   5.070   6.793
    5AU     AUL 2153  41.219   5.150   6.495
    5AU       S 2154  40.691   5.063   6.334
    5AU     LIG 2155  40.534   4.693   6.083
    5AU     LIG 2156  40.476   4.565   5.632
    5AU     LIG 2157  40.316   4.572   5.184
    5AU     LIG 2158  40.336   4.556   4.704
    5AU     LIG 2159  40.307   4.363   4.254
    5AU       S 2160  41.668   5.322   6.318
    5AU     LIG 2161  41.731   5.142   5.883
    5AU     LIG 2162  41.810   5.055   5.430
    5AU     LIG 2163  41.921   5.064   4.978
    5AU     LIG 2164  41.970   5.392   4.644
    5AU     LIG 2165  41.939   5.696   4.287
    5AU    AUSL 2166  40.685   5.318   8.144
    5AU    AUSL 2167  40.908   5.685   8.041
    5AU     AUL 2168  40.799   5.680   8.357
    5AU       S 2169  40.474   5.348   8.590
    5AU     LIG 2170  40.219   5.032   8.793
    5AU     LIG 2171  40.120   4.914   9.235
    5AU     LIG 2172  40.039   4.805   9.690
    5AU     LIG 2173  39.817   4.751  10.107
    5AU     LIG 2174  39.476   4.972  10.376
    5AU       S 2175  40.435   6.012   8.190
    5AU     LIG 2176  40.332   6.175   8.610
    5AU     LIG 2177  40.242   6.491   8.947
    5AU     LIG 2178  40.197   6.673   9.379
    5AU     LIG 2179  39.993   6.848   9.765
    5AU     LIG 2180  40.063   7.031  10.206
    5AU    AUSL 2181  40.992   5.062   8.271
    5AU    AUSL 2182  40.566   5.004   7.971
    5AU     AUL 2183  40.654   5.003   8.282
    5AU       S 2184  40.232   4.735   8.279
    5AU     LIG 2185  39.822   4.546   8.217
    5AU     LIG 2186  39.578   4.174   8.279
    5AU     LIG 2187  39.371   3.853   8.540
    5AU     LIG 2188  39.156   3.645   8.905
    5AU     LIG 2189  39.011   3.587   9.363
    5AU       S 2190  40.768   5.099   8.747
    5AU     LIG 2191  40.607   4.802   9.076
    5AU     LIG 2192  40.458   4.573   9.463
    5AU     LIG 2193  40.401   4.527   9.929
    5AU     LIG 2194  40.286   4.321  10.339
    5AU     LIG 2195  40.160   4.399  10.779
    5AU    AUSL 2196  40.758   5.207   6.834
    5AU    AUSL 2197  40.872   4.813   6.936
    5AU     AUL 2198  41.001   4.824   6.627
    5AU       S 2199  40.520   5.184   6.485
    5AU     LIG 2200  40.176   5.024   6.235
    5AU     LIG 2201  40.078   4.836   5.811
    5AU     LIG 2202  39.930   4.879   5.360
    5AU     LIG 2203  39.666   5.049   5.013
    5AU     LIG 2204  39.242   5.112   4.797
    5AU       S 2205  40.499   4.676   6.603
    5AU     LIG 2206  40.270   4.264   6.402
    5AU     LIG 2207  39.923   3.921   6.423
    5AU     LIG 2208  39.652   3.650   6.127
    5AU     LIG 2209  39.560   3.574   5.662
    5AU     LIG 2210  39.592   3.433   5.200
    5AU    AUSL 2211  41.033   5.417   6.748
    5AU    AUSL 2212  40.637   5.531   6.989
    5AU     AUL 2213  40.790   5.581   6.645
    5AU       S 2214  40.312   5.739   6.696
    5AU     LIG 2215  40.139   6.057   6.372
    5AU     LIG 2216  40.007   6.170   5.924
    5AU     LIG 2217  39.729   6.286   5.556
    5AU     LIG 2218  39.334   6.269   5.292
    5AU     LIG 2219  38.976   6.549   5.137
    5AU       S 2220  40.780   5.287   6.249
    5AU     LIG 2221  40.514   5.159   5.862
    5AU     LIG 2222  40.416   5.035   5.420
    5AU     LIG 2223  40.257   5.052   4.966
    5AU     LIG 2224  40.260   5.336   4.567
    5AU     LIG 2225  40.336   5.592   4.159
    5AU    AUSL 2226  41.849   5.642   7.500
    5AU    AUSL 2227  41.822   5.516   7.148
    5AU     AUL 2228  41.916   5.947   7.369
    5AU       S 2229  42.129   5.608   6.900
    5AU     LIG 2230  42.500   5.565   6.618
    5AU     LIG 2231  42.743   5.797   6.289
    5AU     LIG 2232  43.011   6.090   6.026
    5AU     LIG 2233  43.349   6.261   5.748
    5AU     LIG 2234  43.473   6.317   5.284
    5AU       S 2235  42.350   5.681   7.340
    5AU     LIG 2236  42.802   5.879   7.372
    5AU     LIG 2237  43.166   6.060   7.657
    5AU     LIG 2238  43.631   6.157   7.854
    5AU     LIG 2239  44.005   6.486   7.904
    5AU     LIG 2240  44.239   6.911   7.771
    5AU    AUSL 2241  41.964   5.301   7.389
    5AU    AUSL 2242  41.901   5.030   7.668
    5AU     AUL 2243  42.194   5.193   7.779
    5AU       S 2244  42.340   5.353   7.275
    5AU     LIG 2245  42.744   5.457   7.077
    5AU     LIG 2246  43.180   5.512   7.179
    5AU     LIG 2247  43.593   5.687   6.959
    5AU     LIG 2248  44.040   5.865   7.025
    5AU     LIG 2249  44.420   6.250   6.992
    5AU       S 2250  42.359   4.749   7.573
    5AU     LIG 2251  42.814   4.651   7.734
    5AU     LIG 2252  43.070   4.261   7.742
    5AU     LIG 2253  43.450   4.039   7.924
    5AU     LIG 2254  43.899   3.955   8.013
    5AU     LIG 2255  44.327   3.990   8.185
    5AU    AUSL 2256  41.905   5.377   7.717
    5AU    AUSL 2257  41.693   5.776   7.794
    5AU     AUL 2258  42.042   5.687   7.803
    5AU       S 2259  42.008   5.962   8.226
    5AU     LIG 2260  42.396   6.065   8.499
    5AU     LIG 2261  42.757   6.297   8.738
    5AU     LIG 2262  43.089   6.633   8.870
    5AU     LIG 2263  43.395   7.030   8.791
    5AU     LIG 2264  43.532   7.487   8.887
    5AU       S 2265  42.441   5.523   7.506
    5AU     LIG 2266  42.880   5.474   7.667
    5AU     LIG 2267  43.306   5.577   7.735
    5AU     LIG 2268  43.722   5.631   7.867
    5AU     LIG 2269  44.116   5.883   7.920
    5AU     LIG 2270  44.264   6.180   8.236
    5AU    AUSL 2271  40.589   5.756   7.502
    5AU    AUSL 2272  40.584   5.578   7.929
    5AU     AUL 2273  40.282   5.765   7.704
    5AU       S 2274  40.295   5.725   8.227
    5AU     LIG 2275  40.083   5.707   8.638
    5AU     LIG 2276  39.998   6.019   8.990
    5AU     LIG 2277  39.790   6.331   9.289
    5AU     LIG 2278  39.397   6.396   9.573
    5AU     LIG 2279  39.029   6.360   9.887
    5AU       S 2280  40.427   6.207   7.461
    5AU     LIG 2281  40.036   6.488   7.478
    5AU     LIG 2282  39.626   6.746   7.507
    5AU     LIG 2283  39.183   6.921   7.503
    5AU     LIG 2284  38.797   6.932   7.254
    5AU     LIG 2285  38.396   7.102   7.167
    5AU    AUSL 2286  40.485   5.432   7.279
    5AU    AUSL 2287  40.734   5.829   7.196
    5AU     AUL 2288  40.362   5.734   7.214
    5AU       S 2289  40.130   5.319   6.915
    5AU     LIG 2290  39.677   5.465   6.903
    5AU     LIG 2291  39.303   5.732   6.742
    5AU     LIG 2292  38.956   6.082   6.793
    5AU     LIG 2293  38.529   6.234   6.661
    5AU     LIG 2294  38.082   6.343   6.696
    5AU       S 2295  40.452   6.169   6.960
    5AU     LIG 2296  40.312   6.496   6.672
    5AU     LIG 2297  40.387   6.797   6.332
    5AU     LIG 2298  40.239   7.222   6.194
    5AU     LIG 2299  39.921   7.571   6.232
    5AU     LIG 2300  39.573   7.863   6.270
    5AU    AUSL 2301  40.442   5.436   7.656
    5AU    AUSL 2302  40.392   5.113   7.330
    5AU     AUL 2303  40.168   5.466   7.425
    5AU       S 2304  39.917   5.020   7.371
    5AU     LIG 2305  39.452   5.078   7.385
    5AU     LIG 2306  39.103   4.925   7.612
    5AU     LIG 2307  38.793   4.636   7.468
    5AU     LIG 2308  38.340   4.616   7.376
    5AU     LIG 2309  38.042   4.675   7.020
    5AU       S 2310  40.058   5.369   7.974
    5AU     LIG 2311  39.718   5.574   8.252
    5AU     LIG 2312  39.236   5.638   8.259
    5AU     LIG 2313  38.862   5.895   8.454
    5AU     LIG 2314  38.439   6.051   8.560
    5AU     LIG 2315  37.973   6.093   8.519
    5AU    AUSL 2316  41.779   4.718   7.570
    5AU    AUSL 2317  41.709   4.881   7.922
    5AU     AUL 2318  42.027   4.883   7.942
    5AU       S 2319  42.185   4.525   7.595
    5AU     LIG 2320  42.519   4.227   7.657
    5AU     LIG 2321  42.795   3.883   7.529
    5AU     LIG 2322  43.247   3.772   7.527
    5AU     LIG 2323  43.563   3.513   7.798
    5AU     LIG 2324  44.005   3.469   7.940
    5AU       S 2325  41.959   4.396   8.048
    5AU     LIG 2326  42.162   4.076   8.367
    5AU     LIG 2327  42.419   3.764   8.640
    5AU     LIG 2328  42.693   3.611   9.005
    5AU     LIG 2329  42.913   3.632   9.436
    5AU     LIG 2330  43.241   3.570   9.785
    5AU    AUSL 2331  41.899   4.971   7.321
    5AU    AUSL 2332  41.587   4.662   7.249
    5AU     AUL 2333  41.889   4.617   7.199
    5AU       S 2334  42.323   4.827   7.338
    5AU     LIG 2335  42.709   4.527   7.254
    5AU     LIG 2336  43.058   4.183   7.207
    5AU     LIG 2337  43.436   3.952   7.032
    5AU     LIG 2338  43.870   3.987   6.849
    5AU     LIG 2339  44.335   3.983   6.702
    5AU       S 2340  41.848   4.432   6.731
    5AU     LIG 2341  42.023   3.997   6.638
    5AU     LIG 2342  42.200   3.568   6.494
    5AU     LIG 2343  42.479   3.261   6.290
    5AU     LIG 2344  42.604   2.803   6.357
    5AU     LIG 2345  42.822   2.481   6.084
    5AU    AUSL 2346  40.521   4.816   7.505
    5AU    AUSL 2347  40.577   4.997   7.054
    5AU     AUL 2348  40.336   4.746   7.247
    5AU       S 2349  40.297   4.845   6.744
    5AU     LIG 2350  39.948   4.647   6.485
    5AU     LIG 2351  39.627   4.325   6.476
    5AU     LIG 2352  39.345   3.962   6.392
    5AU     LIG 2353  38.891   3.932   6.245
    5AU     LIG 2354  38.716   3.623   5.931
    5AU       S 2355  39.918   4.793   7.504
    5AU     LIG 2356  39.826   4.363   7.734
    5AU     LIG 2357  39.485   4.023   7.790
    5AU     LIG 2358  39.029   4.057   7.647
    5AU     LIG 2359  38.578   3.940   7.690
    5AU     LIG 2360  38.341   3.570   7.512
    5AU    AUSL 2361  40.406   5.101   7.681
    5AU    AUSL 2362  40.659   4.694   7.812
    5AU     AUL 2363  40.336   4.762   7.779
    5AU       S 2364  40.335   4.459   8.169
    5AU     LIG 2365  40.049   4.067   8.102
    5AU     LIG 2366  39.731   3.693   8.118
    5AU     LIG 2367  39.439   3.387   8.330
    5AU     LIG 2368  39.241   3.169   8.687
    5AU     LIG 2369  39.072   3.159   9.089
    5AU       S 2370  39.925   5.031   7.632
    5AU     LIG 2371  39.560   4.784   7.830
    5AU     LIG 2372  39.310   4.482   7.676
    5AU     LIG 2373  38.943   4.537   7.941
    5AU     LIG 2374  38.499   4.650   7.900
    5AU     LIG 2375  38.143   4.382   7.834
    5AU    AUSL 2376  41.209   5.887   7.958
    5AU    AUSL 2377  40.768   5.872   7.786
    5AU     AUL 2378  40.946   5.989   8.168
    5AU       S 2379  40.537   6.204   7.940
    5AU     LIG 2380  40.411   6.559   8.252
    5AU     LIG 2381  40.336   6.894   8.605
    5AU     LIG 2382  40.059   6.982   8.992
    5AU     LIG 2383  39.708   7.295   9.078
    5AU     LIG 2384  39.510   7.694   8.870
    5AU       S 2385  41.223   6.403   8.058
    5AU     LIG 2386  41.281   6.688   8.450
    5AU     LIG 2387  41.314   7.147   8.578
    5AU     LIG 2388  41.539   7.521   8.763
    5AU     LIG 2389  41.564   7.768   9.151
    5AU     LIG 2390  41.419   7.875   9.584
    5AU    AUSL 2391  41.056   6.002   7.646
    5AU    AUSL 2392  41.384   6.016   7.329
    5AU     AUL 2393  40.992   6.252   7.394
    5AU       S 2394  41.059   6.444   7.855
    5AU     LIG 2395  41.202   6.902   8.005
    5AU     LIG 2396  41.053   7.305   8.161
    5AU     LIG 2397  41.182   7.668   8.415
    5AU     LIG 2398  41.034   8.133   8.393
    5AU     LIG 2399  40.948   8.414   8.746
    5AU       S 2400  41.460   6.431   7.215
    5AU     LIG 2401  41.636   6.875   7.160
    5AU     LIG 2402  41.711   7.291   6.927
    5AU     LIG 2403  41.934   7.704   6.842
    5AU     LIG 2404  42.165   8.101   6.809
    5AU     LIG 2405  42.286   8.557   6.820
    5AU    AUSL 2406  41.418   5.977   7.672
    5AU    AUSL 2407  41.486   5.700   8.076
    5AU     AUL 2408  41.561   6.039   7.993
    5AU       S 2409  41.795   5.878   8.429
    5AU     LIG 2410  42.077   5.826   8.820
    5AU     LIG 2411  42.391   6.080   9.038
    5AU     LIG 2412  42.641   6.423   9.245
    5AU     LIG 2413  42.615   6.716   9.620
    5AU     LIG 2414  42.614   6.938  10.042
    5AU       S 2415  41.382   6.445   7.736
    5AU     LIG 2416  41.671   6.812   7.876
    5AU     LIG 2417  41.622   7.200   8.162
    5AU     LIG 2418  41.796   7.610   8.319
    5AU     LIG 2419  42.028   8.011   8.361
    5AU     LIG 2420  42.244   8.437   8.378
    5AU    AUSL 2421  41.138   4.594   7.969
    5AU    AUSL 2422  41.519   4.601   7.810
    5AU     AUL 2423  41.328   4.571   8.259
    5AU       S 2424  41.265   4.100   8.064
    5AU     LIG 2425  41.120   3.730   8.335
    5AU     LIG 2426  40.931   3.288   8.308
    5AU     LIG 2427  40.799   2.826   8.282
    5AU     LIG 2428  40.780   2.451   8.579
    5AU     LIG 2429  40.689   2.145   8.934
    5AU       S 2430  41.745   4.284   7.888
    5AU     LIG 2431  41.961   3.878   7.928
    5AU     LIG 2432  42.131   3.564   8.236
    5AU     LIG 2433  42.311   3.245   8.539
    5AU     LIG 2434  42.588   3.093   8.895
    5AU     LIG 2435  42.857   2.713   9.052
    5AU    AUSL 2436  40.929   4.530   7.688
    5AU    AUSL 2437  40.864   4.783   8.092
    5AU     AUL 2438  40.822   4.421   8.013
    5AU       S 2439  41.087   3.993   7.895
    5AU     LIG 2440  40.804   3.603   7.918
    5AU     LIG 2441  40.504   3.216   8.007
    5AU     LIG 2442  40.279   2.890   8.273
    5AU     LIG 2443  40.327   2.444   8.353
    5AU     LIG 2444  40.525   2.023   8.369
    5AU       S 2445  40.495   4.542   8.402
    5AU     LIG 2446  40.104   4.279   8.573
    5AU     LIG 2447  39.889   3.852   8.578
    5AU     LIG 2448  39.653   3.496   8.799
    5AU     LIG 2449  39.496   3.432   9.233
    5AU     LIG 2450  39.484   3.487   9.705
    5AU    AUSL 2451  41.250   4.442   7.658
    5AU    AUSL 2452  40.945   4.492   7.330
    5AU     AUL 2453  40.825   4.264   7.573
    5AU       S 2454  40.996   4.021   7.158
    5AU     LIG 2455  40.662   3.738   7.003
    5AU     LIG 2456  40.560   3.294   7.097
    5AU     LIG 2457  40.499   2.845   7.006
    5AU     LIG 2458  40.297   2.538   6.706
    5AU     LIG 2459  40.490   2.206   6.432
    5AU       S 2460  41.330   4.047   7.761
    5AU     LIG 2461  41.336   3.548   7.910
    5AU     LIG 2462  41.285   3.044   8.008
    5AU     LIG 2463  41.475   2.574   8.055
    5AU     LIG 2464  41.827   2.343   8.266
    5AU     LIG 2465  41.963   1.914   8.386
    5AU    AUSL 2466  41.260   5.867   7.004
    5AU    AUSL 2467  41.635   5.779   7.259
    5AU     AUL 2468  41.612   5.992   7.002
    5AU       S 2469  41.323   6.352   6.818
    5AU     LIG 2470  41.055   6.590   6.509
    5AU     LIG 2471  41.222   6.985   6.318
    5AU     LIG 2472  41.345   7.431   6.273
    5AU     LIG 2473  41.432   7.786   5.986
    5AU     LIG 2474  41.336   7.951   5.554
    5AU       S 2475  42.120   5.894   6.914
    5AU     LIG 2476  42.566   6.040   6.783
    5AU     LIG 2477  42.907   6.257   6.503
    5AU     LIG 2478  43.227   6.639   6.413
    5AU     LIG 2479  43.378   7.143   6.377
    5AU     LIG 2480  43.295   7.652   6.318
    5AU    AUSL 2481  41.055   5.931   7.292
    5AU    AUSL 2482  40.947   5.713   6.933
    5AU     AUL 2483  40.947   6.061   6.991
    5AU       S 2484  41.248   6.482   7.039
    5AU     LIG 2485  41.251   6.927   6.833
    5AU     LIG 2486  41.069   7.351   6.697
    5AU     LIG 2487  41.278   7.754   6.731
    5AU     LIG 2488  41.184   8.223   6.568
    5AU     LIG 2489  41.006   8.543   6.245
    5AU       S 2490  40.534   6.011   6.694
    5AU     LIG 2491  40.601   6.295   6.306
    5AU     LIG 2492  40.417   6.484   5.905
    5AU     LIG 2493  40.200   6.504   5.467
    5AU     LIG 2494  40.012   6.780   5.115
    5AU     LIG 2495  40.021   7.246   4.973
    5AU    AUSL 2496  41.135   4.584   7.035
    5AU    AUSL 2497  40.685   4.695   7.215
    5AU     AUL 2498  40.799   4.457   6.982
    5AU       S 2499  40.337   4.553   6.795
    5AU     LIG 2500  39.927   4.301   6.884
    5AU     LIG 2501  39.582   3.955   6.856
    5AU     LIG 2502  39.187   3.678   6.778
    5AU     LIG 2503  39.075   3.473   6.359
    5AU     LIG 2504  38.837   3.106   6.188
    5AU       S 2505  41.137   4.079   6.916
    5AU     LIG 2506  41.030   3.738   6.638
    5AU     LIG 2507  40.775   3.350   6.630
    5AU     LIG 2508  40.618   2.917   6.509
    5AU     LIG 2509  40.501   2.627   6.153
    5AU     LIG 2510  40.650   2.398   5.775
    5AU    AUSL 2511  41.303   4.475   7.330
    5AU    AUSL 2512  41.418   4.746   6.932
    5AU     AUL 2513  41.489   4.402   7.065
    5AU       S 2514  41.241   3.998   7.254
    5AU     LIG 2515  41.111   3.518   7.102
    5AU     LIG 2516  41.013   3.044   6.969
    5AU     LIG 2517  41.180   2.589   6.880
    5AU     LIG 2518  41.341   2.150   6.758
    5AU     LIG 2519  41.325   1.684   6.711
    5AU       S 2520  41.589   4.570   6.581
    5AU     LIG 2521  41.667   4.209   6.303
    5AU     LIG 2522  41.874   3.815   6.174
    5AU     LIG 2523  42.167   3.531   5.937
    5AU     LIG 2524  42.153   3.408   5.462
    5AU     LIG 2525  42.357   3.199   5.078
    6AU     AUC 2526  14.059  42.978   7.501
    6AU     AUC 2527  14.331  42.955   7.341
    6AU     AUC 2528  14.324  42.958   7.667
    6AU     AUC 2529  13.797  42.994   7.330
    6AU     AUC 2530  13.789  42.998   7.664
    6AU     AUC 2531  13.914  43.258   7.491
    6AU     AUC 2532  14.245  43.234   7.498
    6AU     AUC 2533  13.870  42.722   7.502
    6AU     AUC 2534  14.200  42.696   7.501
    6AU     AUC 2535  14.041  42.816   7.771
    6AU     AUC 2536  14.071  43.145   7.765
    6AU     AUC 2537  14.055  42.810   7.235
    6AU     AUC 2538  14.079  43.139   7.230
    6AU     AUC 2539  14.601  42.943   7.189
    6AU     AUC 2540  14.603  42.928   7.504
    6AU     AUC 2541  14.582  42.936   7.826
    6AU     AUC 2542  13.547  43.000   7.156
    6AU     AUC 2543  13.515  43.010   7.493
    6AU     AUC 2544  13.528  43.019   7.824
    6AU     AUC 2545  13.777  43.531   7.480
    6AU     AUC 2546  14.099  43.532   7.478
    6AU     AUC 2547  14.421  43.481   7.491
    6AU     AUC 2548  13.690  42.480   7.501
    6AU     AUC 2549  14.011  42.432   7.495
    6AU     AUC 2550  14.333  42.418   7.507
    6AU     AUC 2551  14.031  42.660   8.033
    6AU     AUC 2552  14.058  42.981   8.052
    6AU     AUC 2553  14.081  43.308   8.011
    6AU     AUC 2554  14.064  42.648   6.983
    6AU     AUC 2555  14.094  42.973   6.956
    6AU     AUC 2556  14.101  43.285   6.965
    6AU     AUC 2557  14.319  42.797   7.941
    6AU     AUC 2558  14.353  43.130   7.947
    6AU     AUC 2559  14.341  42.800   7.065
    6AU     AUC 2560  14.367  43.128   7.074
    6AU     AUC 2561  13.765  42.832   7.957
    6AU     AUC 2562  13.791  43.161   7.937
    6AU     AUC 2563  13.790  42.820   7.062
    6AU     AUC 2564  13.810  43.144   7.041
    6AU     AUC 2565  14.530  43.207   7.349
    6AU     AUC 2566  14.520  43.217   7.676
    6AU     AUC 2567  13.645  43.280   7.309
    6AU     AUC 2568  13.637  43.289   7.660
    6AU     AUC 2569  14.481  42.665   7.341
    6AU     AUC 2570  14.465  42.663   7.666
    6AU     AUC 2571  13.594  42.736   7.330
    6AU     AUC 2572  13.592  42.736   7.677
    6AU     AUC 2573  13.925  43.437   7.755
    6AU     AUC 2574  14.263  43.414   7.762
    6AU     AUC 2575  13.848  42.556   7.783
    6AU     AUC 2576  14.174  42.521   7.767
    6AU     AUC 2577  13.929  43.427   7.211
    6AU     AUC 2578  14.263  43.408   7.222
    6AU     AUC 2579  13.859  42.541   7.226
    6AU     AUC 2580  14.194  42.519   7.226
    6AU    AUSL 2581  14.558  42.904   8.126
    6AU    AUSL 2582  14.293  42.536   8.056
    6AU     AUL 2583  14.566  42.536   8.272
    6AU       S 2584  14.615  42.027   8.143
    6AU     LIG 2585  14.552  41.649   8.374
    6AU     LIG 2586  14.781  41.501   8.751
    6AU     LIG 2587  15.059  41.274   9.048
    6AU     LIG 2588  15.277  40.966   9.326
    6AU     LIG 2589  15.181  40.762   9.751
    6AU       S 2590  14.892  42.859   8.495
    6AU     LIG 2591  15.016  42.825   8.945
    6AU     LIG 2592  15.021  42.625   9.359
    6AU     LIG 2593  15.158  42.632   9.789
    6AU     LIG 2594  15.487  42.782  10.076
    6AU     LIG 2595  15.805  42.728  10.419
    6AU    AUSL 2596  14.238  42.812   8.264
    6AU    AUSL 2597  13.899  43.152   8.260
    6AU     AUL 2598  14.134  43.027   8.543
    6AU       S 2599  14.555  42.776   8.710
    6AU     LIG 2600  14.613  42.490   9.070
    6AU     LIG 2601  14.651  42.254   9.477
    6AU     LIG 2602  14.605  42.026   9.893
    6AU     LIG 2603  14.657  42.053  10.361
    6AU     LIG 2604  14.694  42.299  10.772
    6AU       S 2605  13.656  43.082   8.741
    6AU     LIG 2606  13.388  43.020   9.134
    6AU     LIG 2607  13.340  42.806   9.557
    6AU     LIG 2608  13.351  42.863  10.021
    6AU     LIG 2609  13.433  43.167  10.378
    6AU     LIG 2610  13.348  43.414  10.772
    6AU    AUSL 2611  14.232  43.190   8.219
    6AU    AUSL 2612  14.653  43.220   7.997
    6AU     AUL 2613  14.520  43.169   8.365
    6AU       S 2614  14.214  43.551   8.567
    6AU     LIG 2615  14.551  43.638   8.904
    6AU     LIG 2616  14.762  43.734   9.333
    6AU     LIG 2617  14.716  43.711   9.822
    6AU     LIG 2618  14.645  43.765  10.303
    6AU     LIG 2619  14.694  43.774  10.783
    6AU       S 2620  14.907  43.486   8.298
    6AU     LIG 2621  15.343  43.469   8.355
    6AU     LIG 2622  15.541  43.670   8.695
    6AU     LIG 2623  15.777  43.930   8.951
    6AU     LIG 2624  16.011  44.116   9.281
    6AU     LIG 2625  16.195  44.222   9.696
    6AU    AUSL 2626  14.556  43.049   6.878
    6AU    AUSL 2627  14.409  43.371   6.941
    6AU     AUL 2628  14.382  43.424   6.619
    6AU       S 2629  14.763  43.072   6.455
    6AU     LIG 2630  15.030  42.831   6.143
    6AU     LIG 2631  15.048  42.614   5.731
    6AU     LIG 2632  15.266  42.594   5.314
    6AU     LIG 2633  15.717  42.585   5.113
    6AU     LIG 2634  16.039  42.561   4.760
    6AU       S 2635  14.881  43.509   6.687
    6AU     LIG 2636  15.069  43.871   6.426
    6AU     LIG 2637  15.251  44.156   6.085
    6AU     LIG 2638  15.584  44.138   5.736
    6AU     LIG 2639  15.749  44.407   5.388
    6AU     LIG 2640  15.621  44.857   5.286
    6AU    AUSL 2641  14.341  42.788   6.781
    6AU    AUSL 2642  14.585  42.658   7.027
    6AU     AUL 2643  14.810  42.823   6.888
    6AU       S 2644  14.770  42.385   6.628
    6AU     LIG 2645  15.016  42.074   6.318
    6AU     LIG 2646  15.266  41.678   6.205
    6AU     LIG 2647  15.537  41.395   5.937
    6AU     LIG 2648  15.865  41.320   5.596
    6AU     LIG 2649  16.255  41.331   5.306
    6AU       S 2650  14.600  42.780   6.396
    6AU     LIG 2651  14.696  42.425   6.107
    6AU     LIG 2652  14.654  42.289   5.663
    6AU     LIG 2653  14.831  42.281   5.224
    6AU     LIG 2654  14.779  42.210   4.752
    6AU     LIG 2655  14.774  42.189   4.275
    6AU    AUSL 2656  14.250  43.119   6.737
    6AU    AUSL 2657  13.952  42.808   6.786
    6AU     AUL 2658  14.106  42.860   6.487
    6AU       S 2659  13.584  42.820   6.324
    6AU     LIG 2660  13.487  42.463   6.041
    6AU     LIG 2661  13.456  42.350   5.583
    6AU     LIG 2662  13.286  42.350   5.138
    6AU     LIG 2663  13.060  42.124   4.770
    6AU     LIG 2664  13.013  41.933   4.331
    6AU       S 2665  14.541  43.055   6.297
    6AU     LIG 2666  14.591  42.857   5.859
    6AU     LIG 2667  14.667  42.748   5.400
    6AU     LIG 2668  14.753  42.890   4.964
    6AU     LIG 2669  14.863  43.135   4.568
    6AU     LIG 2670  14.989  43.384   4.181
    6AU    AUSL 2671  13.583  43.052   8.144
    6AU    AUSL 2672  13.805  43.415   8.033
    6AU     AUL 2673  13.696  43.404   8.358
    6AU       S 2674  13.386  43.075   8.606
    6AU     LIG 2675  13.168  42.710   8.773
    6AU     LIG 2676  13.026  42.613   9.194
    6AU     LIG 2677  12.860  42.499   9.608
    6AU     LIG 2678  12.572  42.519   9.975
    6AU     LIG 2679  12.317  42.688  10.333
    6AU       S 2680  13.334  43.752   8.202
    6AU     LIG 2681  13.409  43.998   8.583
    6AU     LIG 2682  13.333  44.132   9.014
    6AU     LIG 2683  13.201  44.079   9.466
    6AU     LIG 2684  12.942  44.294   9.786
    6AU     LIG 2685  12.762  44.690   9.959
    6AU    AUSL 2686  13.881  42.798   8.263
    6AU    AUSL 2687  13.452  42.744   7.965
    6AU     AUL 2688  13.536  42.738   8.277
    6AU       S 2689  13.123  42.458   8.265
    6AU     LIG 2690  12.680  42.353   8.196
    6AU     LIG 2691  12.417  41.998   8.296
    6AU     LIG 2692  12.222  41.735   8.628
    6AU     LIG 2693  11.958  41.430   8.853
    6AU     LIG 2694  11.515  41.466   9.009
    6AU       S 2695  13.687  42.817   8.738
    6AU     LIG 2696  13.540  42.530   9.092
    6AU     LIG 2697  13.348  42.302   9.459
    6AU     LIG 2698  13.253  42.364   9.907
    6AU     LIG 2699  13.184  42.231  10.344
    6AU     LIG 2700  13.065  42.072  10.774
    6AU    AUSL 2701  13.638  42.950   6.830
    6AU    AUSL 2702  13.747  42.556   6.932
    6AU     AUL 2703  13.871  42.558   6.625
    6AU       S 2704  13.405  42.935   6.472
    6AU     LIG 2705  13.082  42.713   6.220
    6AU     LIG 2706  13.048  42.621   5.752
    6AU     LIG 2707  12.912  42.670   5.295
    6AU     LIG 2708  12.540  42.603   5.004
    6AU     LIG 2709  12.264  42.719   4.636
    6AU       S 2710  13.368  42.441   6.597
    6AU     LIG 2711  13.008  42.204   6.347
    6AU     LIG 2712  12.752  41.795   6.362
    6AU     LIG 2713  12.515  41.443   6.118
    6AU     LIG 2714  12.550  41.185   5.704
    6AU     LIG 2715  12.696  41.049   5.256
    6AU    AUSL 2716  13.915  43.153   6.734
    6AU    AUSL 2717  13.510  43.267   6.987
    6AU     AUL 2718  13.668  43.334   6.644
    6AU       S 2719  13.179  43.451   6.704
    6AU     LIG 2720  12.856  43.669   6.467
    6AU     LIG 2721  12.801  43.852   6.039
    6AU     LIG 2722  12.679  43.937   5.589
    6AU     LIG 2723  12.374  44.098   5.267
    6AU     LIG 2724  12.194  44.291   4.884
    6AU       S 2725  13.683  43.043   6.246
    6AU     LIG 2726  13.443  42.941   5.847
    6AU     LIG 2727  13.396  42.823   5.391
    6AU     LIG 2728  13.291  42.845   4.929
    6AU     LIG 2729  13.301  43.087   4.503
    6AU     LIG 2730  13.245  43.303   4.068
    6AU    AUSL 2731  14.737  43.367   7.477
    6AU    AUSL 2732  14.712  43.247   7.129
    6AU     AUL 2733  14.796  43.678   7.388
    6AU       S 2734  15.012  43.359   6.883
    6AU     LIG 2735  15.435  43.508   6.689
    6AU     LIG 2736  15.802  43.604   6.361
    6AU     LIG 2737  15.954  43.789   5.943
    6AU     LIG 2738  16.067  43.982   5.516
    6AU     LIG 2739  16.232  44.260   5.170
    6AU       S 2740  15.228  43.423   7.324
    6AU     LIG 2741  15.568  43.711   7.489
    6AU     LIG 2742  15.967  43.928   7.533
    6AU     LIG 2743  16.301  44.216   7.713
    6AU     LIG 2744  16.720  44.417   7.806
    6AU     LIG 2745  17.116  44.643   7.865
    6AU    AUSL 2746  14.854  43.035   7.372
    6AU    AUSL 2747  14.785  42.765   7.651
    6AU     AUL 2748  15.086  42.922   7.751
    6AU       S 2749  15.248  43.105   7.251
    6AU     LIG 2750  15.693  43.329   7.148
    6AU     LIG 2751  16.169  43.226   7.100
    6AU     LIG 2752  16.596  43.150   6.926
    6AU     LIG 2753  16.986  43.384   7.007
    6AU     LIG 2754  17.301  43.680   6.793
    6AU       S 2755  15.230  42.467   7.549
    6AU     LIG 2756  15.608  42.303   7.756
    6AU     LIG 2757  15.989  42.060   7.776
    6AU     LIG 2758  16.417  41.981   7.870
    6AU     LIG 2759  16.822  41.981   8.077
    6AU     LIG 2760  17.103  42.306   8.162
    6AU    AUSL 2761  14.794  43.109   7.703
    6AU    AUSL 2762  14.579  43.500   7.761
    6AU     AUL 2763  14.929  43.415   7.787
    6AU       S 2764  14.893  43.750   8.164
    6AU     LIG 2765  15.258  43.978   8.320
    6AU     LIG 2766  15.398  44.206   8.706
    6AU     LIG 2767  15.692  44.503   8.943
    6AU     LIG 2768  15.965  44.897   9.050
    6AU     LIG 2769  16.338   0.149   9.229
    6AU       S 2770  15.324  43.267   7.491
    6AU     LIG 2771  15.603  43.261   7.847
    6AU     LIG 2772  16.007  43.098   7.982
    6AU     LIG 2773  16.421  43.284   7.927
    6AU     LIG 2774  16.863  43.419   7.961
    6AU     LIG 2775  17.276  43.597   7.851
    6AU    AUSL 2776  13.482  43.504   7.496
    6AU    AUSL 2777  13.475  43.315   7.937
    6AU     AUL 2778  13.185  43.520   7.714
    6AU       S 2779  13.193  43.463   8.238
    6AU     LIG 2780  13.156  43.547   8.707
    6AU     LIG 2781  12.992  43.736   9.118
    6AU     LIG 2782  12.698  43.994   9.393
    6AU     LIG 2783  12.378  44.182   9.676
    6AU     LIG 2784  12.005  44.274   9.954
    6AU       S 2785  13.347  43.965   7.468
    6AU     LIG 2786  12.952  44.265   7.478
    6AU     LIG 2787  12.565  44.578   7.543
    6AU     LIG 2788  12.169  44.729   7.794
    6AU     LIG 2789  11.726  44.597   7.782
    6AU     LIG 2790  11.361  44.754   7.580
    6AU    AUSL 2791  13.370  43.183   7.285
    6AU    AUSL 2792  13.624  43.577   7.188
    6AU     AUL 2793  13.251  43.489   7.216
    6AU       S 2794  12.986  43.065   6.939
    6AU     LIG 2795  12.604  43.356   6.867
    6AU     LIG 2796  12.156  43.543   6.806
    6AU     LIG 2797  11.734  43.780   6.764
    6AU     LIG 2798  11.363  43.843   6.493
    6AU     LIG 2799  10.907  43.999   6.484
    6AU       S 2800  13.360  43.928   6.972
    6AU     LIG 2801  13.019  44.103   6.708
    6AU     LIG 2802  12.908  44.285   6.305
    6AU     LIG 2803  12.694  44.652   6.132
    6AU     LIG 2804  12.426   0.014   6.204
    6AU     LIG 2805  12.175   0.354   6.078
    6AU    AUSL 2806  13.332  43.187   7.658
    6AU    AUSL 2807  13.274  42.864   7.329
    6AU     AUL 2808  13.062  43.232   7.433
    6AU       S 2809  12.800  42.797   7.359
    6AU     LIG 2810  12.319  42.801   7.391
    6AU     LIG 2811  11.945  42.635   7.587
    6AU     LIG 2812  11.543  42.425   7.396
    6AU     LIG 2813  11.182  42.335   7.136
    6AU     LIG 2814  11.015  41.955   6.948
    6AU       S 2815  12.940  43.121   7.972
    6AU     LIG 2816  12.503  43.128   8.186
    6AU     LIG 2817  12.089  43.368   8.245
    6AU     LIG 2818  11.727  43.661   8.356
    6AU     LIG 2819  11.361  43.976   8.336
    6AU     LIG 2820  11.006  44.331   8.319
    6AU    AUSL 2821  14.663  42.455   7.552
    6AU    AUSL 2822  14.597  42.624   7.911
    6AU     AUL 2823  14.915  42.625   7.924
    6AU       S 2824  15.061  42.259   7.585
    6AU     LIG 2825  15.278  41.899   7.718
    6AU     LIG 2826  15.681  41.745   7.528
    6AU     LIG 2827  16.154  41.647   7.520
    6AU     LIG 2828  16.497  41.336   7.495
    6AU     LIG 2829  16.781  41.167   7.808
    6AU       S 2830  14.849  42.140   8.039
    6AU     LIG 2831  15.043  41.856   8.380
    6AU     LIG 2832  15.293  41.590   8.694
    6AU     LIG 2833  15.569  41.323   8.989
    6AU     LIG 2834  15.904  41.274   9.329
    6AU     LIG 2835  16.206  41.426   9.677
    6AU    AUSL 2836  14.785  42.708   7.303
    6AU    AUSL 2837  14.472  42.388   7.230
    6AU     AUL 2838  14.784  42.362   7.182
    6AU       S 2839  15.222  42.579   7.327
    6AU     LIG 2840  15.682  42.422   7.270
    6AU     LIG 2841  16.006  42.072   7.250
    6AU     LIG 2842  16.361  41.793   7.072
    6AU     LIG 2843  16.798  41.613   7.004
    6AU     LIG 2844  17.219  41.830   6.993
    6AU       S 2845  14.717  42.180   6.715
    6AU     LIG 2846  14.806  41.744   6.659
    6AU     LIG 2847  15.026  41.364   6.538
    6AU     LIG 2848  15.269  41.083   6.270
    6AU     LIG 2849  15.381  40.639   6.159
    6AU     LIG 2850  15.654  40.379   5.896
    6AU    AUSL 2851  13.403  42.569   7.500
    6AU    AUSL 2852  13.455  42.743   7.053
    6AU     AUL 2853  13.208  42.489   7.251
    6AU       S 2854  13.179  42.611   6.751
    6AU     LIG 2855  12.737  42.547   6.636
    6AU     LIG 2856  12.434  42.218   6.496
    6AU     LIG 2857  12.278  41.891   6.215
    6AU     LIG 2858  11.963  41.593   6.109
    6AU     LIG 2859  11.744  41.307   5.835
    6AU       S 2860  12.788  42.588   7.502
    6AU     LIG 2861  12.557  42.230   7.693
    6AU     LIG 2862  12.261  41.901   7.810
    6AU     LIG 2863  11.801  41.818   7.824
    6AU     LIG 2864  11.390  41.609   7.827
    6AU     LIG 2865  11.132  41.311   7.575
    6AU    AUSL 2866  13.290  42.852   7.680
    6AU    AUSL 2867  13.537  42.434   7.802
    6AU     AUL 2868  13.209  42.512   7.766
    6AU       S 2869  13.222  42.194   8.144
    6AU     LIG 2870  12.858  41.912   8.013
    6AU     LIG 2871  12.563  41.558   8.054
    6AU     LIG 2872  12.284  41.319   8.338
    6AU     LIG 2873  12.101  40.985   8.612
    6AU     LIG 2874  12.174  40.565   8.792
    6AU       S 2875  12.811  42.803   7.617
    6AU     LIG 2876  12.456  42.695   7.885
    6AU     LIG 2877  12.134  42.372   7.979
    6AU     LIG 2878  11.671  42.322   7.887
    6AU     LIG 2879  11.214  42.281   7.773
    6AU     LIG 2880  10.861  41.929   7.769
    6AU    AUSL 2881  14.105  43.625   7.949
    6AU    AUSL 2882  13.652  43.606   7.788
    6AU     AUL 2883  13.835  43.699   8.170
    6AU       S 2884  13.444  43.948   7.949
    6AU     LIG 2885  13.239  44.285   8.188
    6AU     LIG 2886  13.272  44.509   8.602
    6AU     LIG 2887  13.132  44.947   8.646
    6AU     LIG 2888  12.717   0.047   8.749
    6AU     LIG 2889  12.416   0.182   9.020
    6AU       S 2890  14.164  44.076   8.150
    6AU     LIG 2891  14.242  44.324   8.491
    6AU     LIG 2892  14.109  44.722   8.623
    6AU     LIG 2893  14.020   0.110   8.855
    6AU     LIG 2894  14.216   0.438   9.120
    6AU     LIG 2895  14.079   0.704   9.475
    6AU    AUSL 2896  13.933  43.740   7.647
    6AU    AUSL 2897  14.288  43.739   7.297
    6AU     AUL 2898  14.074  43.999   7.473
    6AU       S 2899  13.945  44.160   7.935
    6AU     LIG 2900  14.063  44.636   8.095
    6AU     LIG 2901  13.895   0.068   8.203
    6AU     LIG 2902  13.898   0.537   8.198
    6AU     LIG 2903  13.909   0.882   8.495
    6AU     LIG 2904  13.694   1.294   8.543
    6AU       S 2905  14.348  44.181   7.095
    6AU     LIG 2906  14.731  44.411   7.061
    6AU     LIG 2907  14.788  44.798   6.860
    6AU     LIG 2908  14.764   0.255   6.779
    6AU     LIG 2909  14.807   0.725   6.825
    6AU     LIG 2910  14.827   1.117   6.563
    6AU    AUSL 2911  14.290  43.712   7.645
    6AU    AUSL 2912  14.383  43.448   8.054
    6AU     AUL 2913  14.475  43.771   7.892
    6AU       S 2914  14.651  43.686   8.365
    6AU     LIG 2915  14.916  43.913   8.679
    6AU     LIG 2916  15.197  43.878   9.043
    6AU     LIG 2917  15.470  44.171   9.268
    6AU     LIG 2918  15.701  44.399   9.593
    6AU     LIG 2919  15.708  44.577  10.031
    6AU       S 2920  14.255  44.214   7.891
    6AU     LIG 2921  14.543  44.563   7.909
    6AU     LIG 2922  14.826  44.839   8.143
    6AU     LIG 2923  14.870   0.300   8.316
    6AU     LIG 2924  14.857   0.795   8.399
    6AU     LIG 2925  14.698   1.257   8.386
    6AU    AUSL 2926  14.024  42.337   7.964
    6AU    AUSL 2927  14.408  42.344   7.798
    6AU     AUL 2928  14.222  42.312   8.249
    6AU       S 2929  14.147  41.843   8.049
    6AU     LIG 2930  14.020  41.494   8.318
    6AU     LIG 2931  13.729  41.136   8.384
    6AU     LIG 2932  13.665  40.679   8.431
    6AU     LIG 2933  13.761  40.367   8.766
    6AU     LIG 2934  13.910  40.361   9.220
    6AU       S 2935  14.647  42.025   7.869
    6AU     LIG 2936  14.854  41.613   7.957
    6AU     LIG 2937  15.008  41.340   8.317
    6AU     LIG 2938  15.274  41.076   8.623
    6AU     LIG 2939  15.630  40.822   8.830
    6AU     LIG 2940  16.029  40.560   8.743
    6AU    AUSL 2941  13.819  42.290   7.680
    6AU    AUSL 2942  13.747  42.522   8.082
    6AU     AUL 2943  13.713  42.159   8.000
    6AU       S 2944  13.973  41.730   7.843
    6AU     LIG 2945  13.749  41.309   7.892
    6AU     LIG 2946  13.528  40.874   7.968
    6AU     LIG 2947  13.372  40.410   8.019
    6AU     LIG 2948  13.440  39.944   8.112
    6AU     LIG 2949  13.304  39.521   8.292
    6AU       S 2950  13.378  42.270   8.385
    6AU     LIG 2951  12.948  42.027   8.520
    6AU     LIG 2952  12.711  41.620   8.542
    6AU     LIG 2953  12.482  41.307   8.820
    6AU     LIG 2954  12.527  41.059   9.223
    6AU     LIG 2955  12.777  40.906   9.610
    6AU    AUSL 2956  14.133  42.190   7.652
    6AU    AUSL 2957  13.819  42.233   7.329
    6AU     AUL 2958  13.675  42.044   7.602
    6AU       S 2959  13.856  41.766   7.219
    6AU     LIG 2960  13.589  41.427   7.051
    6AU     LIG 2961  13.413  41.006   7.054
    6AU     LIG 2962  13.448  40.553   6.967
    6AU     LIG 2963  13.523  40.137   6.753
    6AU     LIG 2964  13.546  39.688   6.641
    6AU       S 2965  14.221  41.806   7.767
    6AU     LIG 2966  14.273  41.327   7.907
    6AU     LIG 2967  14.042  40.896   8.044
    6AU     LIG 2968  13.894  40.415   8.047
    6AU     LIG 2969  14.002  39.927   8.052
    6AU     LIG 2970  14.341  39.594   8.225
    6AU    AUSL 2971  14.134  43.596   6.999
    6AU    AUSL 2972  14.539  43.518   7.227
    6AU     AUL 2973  14.470  43.713   6.947
    6AU       S 2974  14.189  44.103   6.809
    6AU     LIG 2975  14.505  44.398   6.600
    6AU     LIG 2976  14.532  44.837   6.415
    6AU     LIG 2977  14.387   0.137   6.070
    6AU     LIG 2978  14.287   0.540   5.832
    6AU     LIG 2979  14.066   0.957   5.900
    6AU       S 2980  14.984  43.665   6.921
    6AU     LIG 2981  15.127  44.119   6.866
    6AU     LIG 2982  15.428  44.289   6.557
    6AU     LIG 2983  15.681  44.642   6.366
    6AU     LIG 2984  16.038  44.978   6.310
    6AU     LIG 2985  16.306   0.204   5.992
    6AU    AUSL 2986  13.926  43.731   7.276
    6AU    AUSL 2987  13.826  43.425   6.943
    6AU     AUL 2988  13.833  43.750   6.907
    6AU       S 2989  14.010  44.217   7.028
    6AU     LIG 2990  14.225  44.657   6.940
    6AU     LIG 2991  14.267   0.117   6.828
    6AU     LIG 2992  14.246   0.598   6.871
    6AU     LIG 2993  13.987   0.984   6.792
    6AU     LIG 2994  13.581   1.217   6.831
    6AU       S 2995  13.359  43.725   6.719
    6AU     LIG 2996  13.280  43.907   6.294
    6AU     LIG 2997  13.206  44.131   5.884
    6AU     LIG 2998  13.068  44.251   5.448
    6AU     LIG 2999  12.866  44.515   5.100
    6AU     LIG 3000  12.809  44.931   4.880
    6AU    AUSL 3001  14.006  42.324   7.032
    6AU    AUSL 3002  13.560  42.436   7.209
    6AU     AUL 3003  13.676  42.194   6.972
    6AU       S 3004  13.217  42.316   6.786
    6AU     LIG 3005  12.818  42.064   6.819
    6AU     LIG 3006  12.438  41.785   6.774
    6AU     LIG 3007  12.194  41.464   6.545
    6AU     LIG 3008  11.832  41.172   6.391
    6AU     LIG 3009  11.519  40.945   6.121
    6AU       S 3010  13.987  41.787   6.971
    6AU     LIG 3011  13.955  41.417   6.694
    6AU     LIG 3012  13.719  41.016   6.633
    6AU     LIG 3013  13.621  40.583   6.477
    6AU     LIG 3014  13.525  40.189   6.234
    6AU     LIG 3015  13.523  39.767   6.034
    6AU    AUSL 3016  14.183  42.217   7.323
    6AU    AUSL 3017  14.291  42.482   6.921
    6AU     AUL 3018  14.344  42.134   7.033
    6AU       S 3019  14.120  41.752   7.285
    6AU     LIG 3020  14.067  41.290   7.189
    6AU     LIG 3021  13.909  40.857   7.080
    6AU     LIG 3022  13.941  40.440   6.860
    6AU     LIG 3023  14.093  40.018   6.707
    6AU     LIG 3024  14.483  39.729   6.619
    6AU       S 3025  14.466  42.316   6.561
    6AU     LIG 3026  14.511  41.963   6.282
    6AU     LIG 3027  14.759  41.604   6.154
    6AU     LIG 3028  15.020  41.329   5.884
    6AU     LIG 3029  15.280  41.214   5.508
    6AU     LIG 3030  15.372  40.976   5.102
    7AU     AUC 3031  18.484  26.713   7.512
    7AU     AUC 3032  18.757  26.696   7.351
    7AU     AUC 3033  18.751  26.699   7.678
    7AU     AUC 3034  18.220  26.723   7.343
    7AU     AUC 3035  18.214  26.728   7.676
    7AU     AUC 3036  18.333  26.991   7.503
    7AU     AUC 3037  18.665  26.974   7.509
    7AU     AUC 3038  18.300  26.454   7.514
    7AU     AUC 3039  18.631  26.434   7.513
    7AU     AUC 3040  18.470  26.552   7.783
    7AU     AUC 3041  18.493  26.881   7.776
    7AU     AUC 3042  18.483  26.544   7.247
    7AU     AUC 3043  18.501  26.875   7.241
    7AU     AUC 3044  19.026  26.685   7.197
    7AU     AUC 3045  19.031  26.674   7.514
    7AU     AUC 3046  19.010  26.681   7.834
    7AU     AUC 3047  17.969  26.724   7.170
    7AU     AUC 3048  17.939  26.733   7.506
    7AU     AUC 3049  17.954  26.743   7.836
    7AU     AUC 3050  18.188  27.261   7.492
    7AU     AUC 3051  18.513  27.270   7.490
    7AU     AUC 3052  18.836  27.225   7.501
    7AU     AUC 3053  18.122  26.208   7.514
    7AU     AUC 3054  18.446  26.169   7.507
    7AU     AUC 3055  18.769  26.160   7.521
    7AU     AUC 3056  18.465  26.396   8.046
    7AU     AUC 3057  18.483  26.717   8.062
    7AU     AUC 3058  18.497  27.045   8.021
    7AU     AUC 3059  18.493  26.381   6.995
    7AU     AUC 3060  18.517  26.707   6.969
    7AU     AUC 3061  18.520  27.021   6.977
    7AU     AUC 3062  18.749  26.537   7.952
    7AU     AUC 3063  18.774  26.871   7.956
    7AU     AUC 3064  18.768  26.538   7.075
    7AU     AUC 3065  18.790  26.869   7.083
    7AU     AUC 3066  18.195  26.562   7.969
    7AU     AUC 3067  18.212  26.892   7.948
    7AU     AUC 3068  18.216  26.549   7.075
    7AU     AUC 3069  18.230  26.873   7.055
    7AU     AUC 3070  18.949  26.951   7.357
    7AU     AUC 3071  18.941  26.963   7.687
    7AU     AUC 3072  18.062  27.007   7.322
    7AU     AUC 3073  18.056  27.016   7.672
    7AU     AUC 3074  18.913  26.408   7.353
    7AU     AUC 3075  18.899  26.406   7.678
    7AU     AUC 3076  18.021  26.460   7.345
    7AU     AUC 3077  18.021  26.460   7.689
    7AU     AUC 3078  18.338  27.171   7.767
    7AU     AUC 3079  18.678  27.156   7.773
    7AU     AUC 3080  18.282  26.288   7.796
    7AU     AUC 3081  18.611  26.261   7.780
    7AU     AUC 3082  18.344  27.160   7.225
    7AU     AUC 3083  18.681  27.147   7.230
    7AU     AUC 3084  18.291  26.272   7.238
    7AU     AUC 3085  18.627  26.257   7.238
    7AU    AUSL 3086  18.986  26.649   8.134
    7AU    AUSL 3087  18.732  26.277   8.073
    7AU     AUL 3088  19.007  26.287   8.286
    7AU       S 3089  19.064  25.779   8.163
    7AU     LIG 3090  18.972  25.422   8.405
    7AU     LIG 3091  19.217  25.152   8.646
    7AU     LIG 3092  19.458  24.926   8.964
    7AU     LIG 3093  19.693  24.742   9.300
    7AU     LIG 3094  19.663  24.737   9.776
    7AU       S 3095  19.319  26.622   8.514
    7AU     LIG 3096  19.436  26.581   8.975
    7AU     LIG 3097  19.476  26.353   9.392
    7AU     LIG 3098  19.722  26.202   9.771
    7AU     LIG 3099  20.130  26.268  10.031
    7AU     LIG 3100  20.404  26.517  10.336
    7AU    AUSL 3101  18.666  26.553   8.276
    7AU    AUSL 3102  18.320  26.882   8.271
    7AU     AUL 3103  18.558  26.769   8.556
    7AU       S 3104  18.982  26.523   8.726
    7AU     LIG 3105  19.068  26.222   9.073
    7AU     LIG 3106  19.115  25.987   9.475
    7AU     LIG 3107  19.265  25.937   9.913
    7AU     LIG 3108  19.202  25.840  10.374
    7AU     LIG 3109  19.041  25.849  10.824
    7AU       S 3110  18.075  26.798   8.749
    7AU     LIG 3111  17.807  26.765   9.135
    7AU     LIG 3112  17.747  26.565   9.549
    7AU     LIG 3113  17.706  26.571  10.013
    7AU     LIG 3114  17.814  26.881  10.375
    7AU     LIG 3115  17.872  27.252  10.678
    7AU    AUSL 3116  18.650  26.928   8.227
    7AU    AUSL 3117  19.073  26.966   8.002
    7AU     AUL 3118  18.930  26.902   8.370
    7AU       S 3119  18.643  27.295   8.572
    7AU     LIG 3120  18.984  27.336   8.905
    7AU     LIG 3121  19.131  27.388   9.357
    7AU     LIG 3122  19.095  27.384   9.840
    7AU     LIG 3123  19.136  27.360  10.317
    7AU     LIG 3124  19.362  27.355  10.732
    7AU       S 3125  19.348  27.179   8.300
    7AU     LIG 3126  19.772  27.240   8.399
    7AU     LIG 3127  19.985  27.353   8.771
    7AU     LIG 3128  20.318  27.605   8.952
    7AU     LIG 3129  20.675  27.733   9.206
    7AU     LIG 3130  20.763  28.057   9.522
    7AU    AUSL 3131  18.980  26.784   6.883
    7AU    AUSL 3132  18.827  27.120   6.943
    7AU     AUL 3133  18.815  27.138   6.607
    7AU       S 3134  19.186  26.779   6.443
    7AU     LIG 3135  19.415  26.467   6.130
    7AU     LIG 3136  19.426  26.310   5.678
    7AU     LIG 3137  19.538  26.351   5.212
    7AU     LIG 3138  19.893  26.436   4.889
    7AU     LIG 3139  20.280  26.420   4.597
    7AU       S 3140  19.295  27.262   6.698
    7AU     LIG 3141  19.525  27.498   6.350
    7AU     LIG 3142  19.728  27.580   5.927
    7AU     LIG 3143  19.964  27.644   5.509
    7AU     LIG 3144  20.071  27.978   5.194
    7AU     LIG 3145  20.059  28.399   5.009
    7AU    AUSL 3146  18.762  26.521   6.787
    7AU    AUSL 3147  19.013  26.400   7.039
    7AU     AUL 3148  19.232  26.556   6.887
    7AU       S 3149  19.198  26.107   6.639
    7AU     LIG 3150  19.413  25.752   6.336
    7AU     LIG 3151  19.615  25.298   6.305
    7AU     LIG 3152  19.912  24.981   6.076
    7AU     LIG 3153  20.231  24.904   5.720
    7AU     LIG 3154  20.421  25.139   5.338
    7AU       S 3155  18.997  26.484   6.402
    7AU     LIG 3156  19.043  26.110   6.096
    7AU     LIG 3157  18.977  26.066   5.618
    7AU     LIG 3158  19.065  26.092   5.147
    7AU     LIG 3159  19.091  26.106   4.681
    7AU     LIG 3160  19.201  25.943   4.238
    7AU    AUSL 3161  18.670  26.855   6.756
    7AU    AUSL 3162  18.376  26.544   6.803
    7AU     AUL 3163  18.517  26.624   6.502
    7AU       S 3164  18.002  26.553   6.344
    7AU     LIG 3165  17.993  26.193   6.058
    7AU     LIG 3166  18.028  26.087   5.604
    7AU     LIG 3167  17.846  26.085   5.171
    7AU     LIG 3168  17.556  25.985   4.816
    7AU     LIG 3169  17.470  25.751   4.400
    7AU       S 3170  18.962  26.754   6.295
    7AU     LIG 3171  18.991  26.562   5.849
    7AU     LIG 3172  19.069  26.547   5.374
    7AU     LIG 3173  19.186  26.597   4.907
    7AU     LIG 3174  19.248  26.925   4.548
    7AU     LIG 3175  19.449  27.260   4.247
    7AU    AUSL 3176  18.009  26.781   8.156
    7AU    AUSL 3177  18.218  27.147   8.050
    7AU     AUL 3178  18.128  27.135   8.380
    7AU       S 3179  17.808  26.801   8.614
    7AU     LIG 3180  17.599  26.432   8.797
    7AU     LIG 3181  17.459  26.293   9.215
    7AU     LIG 3182  17.297  26.321   9.660
    7AU     LIG 3183  16.955  26.347   9.990
    7AU     LIG 3184  16.577  26.363  10.284
    7AU       S 3185  17.738  27.448   8.235
    7AU     LIG 3186  17.680  27.597   8.682
    7AU     LIG 3187  17.588  27.830   9.081
    7AU     LIG 3188  17.347  28.064   9.409
    7AU     LIG 3189  17.291  28.321   9.808
    7AU     LIG 3190  17.097  28.661  10.076
    7AU    AUSL 3191  18.307  26.529   8.275
    7AU    AUSL 3192  17.891  26.467   7.977
    7AU     AUL 3193  17.955  26.466   8.283
    7AU       S 3194  17.591  26.127   8.303
    7AU     LIG 3195  17.184  25.911   8.211
    7AU     LIG 3196  16.967  25.515   8.297
    7AU     LIG 3197  16.772  25.226   8.606
    7AU     LIG 3198  16.415  25.066   8.880
    7AU     LIG 3199  15.988  25.100   9.107
    7AU       S 3200  18.116  26.538   8.743
    7AU     LIG 3201  17.981  26.282   9.123
    7AU     LIG 3202  17.816  26.058   9.508
    7AU     LIG 3203  17.619  26.020   9.931
    7AU     LIG 3204  17.585  25.862  10.372
    7AU     LIG 3205  17.669  25.822  10.838
    7AU    AUSL 3206  18.061  26.682   6.844
    7AU    AUSL 3207  18.179  26.281   6.942
    7AU     AUL 3208  18.308  26.302   6.632
    7AU       S 3209  17.819  26.666   6.488
    7AU     LIG 3210  17.541  26.376   6.216
    7AU     LIG 3211  17.555  26.233   5.755
    7AU     LIG 3212  17.376  26.270   5.312
    7AU     LIG 3213  16.945  26.343   5.106
    7AU     LIG 3214  16.605  26.436   4.783
    7AU       S 3215  17.814  26.153   6.605
    7AU     LIG 3216  17.525  25.817   6.363
    7AU     LIG 3217  17.291  25.377   6.379
    7AU     LIG 3218  17.065  24.969   6.209
    7AU     LIG 3219  16.846  24.734   5.868
    7AU     LIG 3220  16.643  24.620   5.462
    7AU    AUSL 3221  18.334  26.889   6.745
    7AU    AUSL 3222  17.925  26.992   7.001
    7AU     AUL 3223  18.082  27.071   6.662
    7AU       S 3224  17.586  27.168   6.717
    7AU     LIG 3225  17.228  27.366   6.483
    7AU     LIG 3226  17.090  27.383   6.041
    7AU     LIG 3227  16.982  27.611   5.647
    7AU     LIG 3228  16.627  27.716   5.356
    7AU     LIG 3229  16.385  27.912   5.004
    7AU       S 3230  18.084  26.781   6.261
    7AU     LIG 3231  17.845  26.654   5.869
    7AU     LIG 3232  17.833  26.537   5.421
    7AU     LIG 3233  17.936  26.578   4.962
    7AU     LIG 3234  17.948  26.887   4.592
    7AU     LIG 3235  17.774  27.228   4.304
    7AU    AUSL 3236  19.145  27.111   7.487
    7AU    AUSL 3237  19.129  26.991   7.136
    7AU     AUL 3238  19.220  27.415   7.397
    7AU       S 3239  19.418  27.106   6.890
    7AU     LIG 3240  19.827  27.230   6.699
    7AU     LIG 3241  20.045  27.437   6.326
    7AU     LIG 3242  20.220  27.727   5.977
    7AU     LIG 3243  20.409  27.926   5.589
    7AU     LIG 3244  20.527  28.225   5.240
    7AU       S 3245  19.657  27.170   7.316
    7AU     LIG 3246  20.102  27.374   7.320
    7AU     LIG 3247  20.492  27.511   7.563
    7AU     LIG 3248  20.758  27.903   7.653
    7AU     LIG 3249  21.028  28.242   7.827
    7AU     LIG 3250  21.484  28.366   7.765
    7AU    AUSL 3251  19.277  26.784   7.378
    7AU    AUSL 3252  19.216  26.512   7.661
    7AU     AUL 3253  19.523  26.666   7.742
    7AU       S 3254  19.663  26.854   7.256
    7AU     LIG 3255  20.157  26.858   7.307
    7AU     LIG 3256  20.585  27.074   7.284
    7AU     LIG 3257  20.905  27.283   7.033
    7AU     LIG 3258  21.375  27.248   6.954
    7AU     LIG 3259  21.807  27.331   6.771
    7AU       S 3260  19.675  26.193   7.576
    7AU     LIG 3261  20.121  25.964   7.702
    7AU     LIG 3262  20.572  25.763   7.781
    7AU     LIG 3263  20.999  25.835   8.012
    7AU     LIG 3264  21.434  25.726   7.959
    7AU     LIG 3265  21.848  25.771   8.212
    7AU    AUSL 3266  19.227  26.858   7.713
    7AU    AUSL 3267  18.991  27.259   7.775
    7AU     AUL 3268  19.334  27.184   7.785
    7AU       S 3269  19.312  27.479   8.192
    7AU     LIG 3270  19.678  27.746   8.344
    7AU     LIG 3271  20.095  27.795   8.523
    7AU     LIG 3272  20.274  28.118   8.801
    7AU     LIG 3273  20.377  28.587   8.849
    7AU     LIG 3274  20.792  28.808   8.887
    7AU       S 3275  19.733  27.048   7.504
    7AU     LIG 3276  20.099  27.111   7.763
    7AU     LIG 3277  20.532  26.985   7.783
    7AU     LIG 3278  20.956  27.087   7.855
    7AU     LIG 3279  21.349  27.129   8.055
    7AU     LIG 3280  21.781  27.245   8.080
    7AU    AUSL 3281  17.894  27.227   7.511
    7AU    AUSL 3282  17.895  27.038   7.946
    7AU     AUL 3283  17.593  27.231   7.725
    7AU       S 3284  17.617  27.170   8.251
    7AU     LIG 3285  17.412  27.156   8.662
    7AU     LIG 3286  17.234  27.472   8.955
    7AU     LIG 3287  17.009  27.661   9.324
    7AU     LIG 3288  16.624  27.689   9.612
    7AU     LIG 3289  16.254  27.844   9.882
    7AU       S 3290  17.746  27.680   7.485
    7AU     LIG 3291  17.301  27.821   7.284
    7AU     LIG 3292  16.809  27.912   7.318
    7AU     LIG 3293  16.439  28.181   7.509
    7AU     LIG 3294  16.172  28.506   7.759
    7AU     LIG 3295  15.752  28.546   7.993
    7AU    AUSL 3296  17.787  26.901   7.298
    7AU    AUSL 3297  18.032  27.303   7.202
    7AU     AUL 3298  17.661  27.206   7.231
    7AU       S 3299  17.412  26.772   6.951
    7AU     LIG 3300  17.043  27.054   6.842
    7AU     LIG 3301  16.728  27.399   6.796
    7AU     LIG 3302  16.254  27.498   6.787
    7AU     LIG 3303  15.788  27.631   6.754
    7AU     LIG 3304  15.348  27.825   6.737
    7AU       S 3305  17.756  27.653   6.985
    7AU     LIG 3306  17.379  27.871   6.731
    7AU     LIG 3307  17.128  28.271   6.507
    7AU     LIG 3308  17.019  28.676   6.222
    7AU     LIG 3309  16.741  28.984   5.956
    7AU     LIG 3310  16.301  29.179   6.074
    7AU    AUSL 3311  17.753  26.905   7.670
    7AU    AUSL 3312  17.700  26.579   7.344
    7AU     AUL 3313  17.478  26.940   7.447
    7AU       S 3314  17.226  26.499   7.375
    7AU     LIG 3315  16.827  26.313   7.216
    7AU     LIG 3316  16.509  26.049   7.411
    7AU     LIG 3317  16.076  25.924   7.403
    7AU     LIG 3318  15.646  25.900   7.290
    7AU     LIG 3319  15.437  25.576   7.063
    7AU       S 3320  17.369  26.830   7.994
    7AU     LIG 3321  17.071  27.110   8.256
    7AU     LIG 3322  16.608  27.226   8.164
    7AU     LIG 3323  16.195  27.458   8.304
    7AU     LIG 3324  15.746  27.517   8.110
    7AU     LIG 3325  15.320  27.699   8.201
    7AU    AUSL 3326  19.099  26.199   7.564
    7AU    AUSL 3327  19.032  26.370   7.923
    7AU     AUL 3328  19.353  26.372   7.930
    7AU       S 3329  19.493  25.991   7.592
    7AU     LIG 3330  19.769  25.614   7.579
    7AU     LIG 3331  20.203  25.409   7.637
    7AU     LIG 3332  20.506  25.037   7.770
    7AU     LIG 3333  20.932  24.925   7.582
    7AU     LIG 3334  21.324  24.867   7.349
    7AU       S 3335  19.291  25.888   8.057
    7AU     LIG 3336  19.478  25.542   8.361
    7AU     LIG 3337  19.724  25.245   8.647
    7AU     LIG 3338  19.990  24.966   8.912
    7AU     LIG 3339  20.405  24.937   9.100
    7AU     LIG 3340  20.846  24.851   9.205
    7AU    AUSL 3341  19.217  26.454   7.314
    7AU    AUSL 3342  18.908  26.130   7.247
    7AU     AUL 3343  19.216  26.109   7.190
    7AU       S 3344  19.652  26.309   7.342
    7AU     LIG 3345  19.963  25.956   7.220
    7AU     LIG 3346  20.410  25.774   7.273
    7AU     LIG 3347  20.829  25.694   7.031
    7AU     LIG 3348  21.312  25.643   6.953
    7AU     LIG 3349  21.776  25.570   6.936
    7AU       S 3350  19.155  25.886   6.741
    7AU     LIG 3351  19.233  25.412   6.696
    7AU     LIG 3352  19.354  24.953   6.609
    7AU     LIG 3353  19.695  24.675   6.440
    7AU     LIG 3354  19.869  24.252   6.316
    7AU     LIG 3355  20.235  23.993   6.186
    7AU    AUSL 3356  17.826  26.282   7.519
    7AU    AUSL 3357  17.884  26.466   7.064
    7AU     AUL 3358  17.640  26.209   7.257
    7AU       S 3359  17.616  26.322   6.757
    7AU     LIG 3360  17.213  26.160   6.591
    7AU     LIG 3361  16.969  25.766   6.499
    7AU     LIG 3362  16.762  25.356   6.388
    7AU     LIG 3363  16.529  25.071   6.106
    7AU     LIG 3364  16.287  24.905   5.731
    7AU       S 3365  17.226  26.285   7.528
    7AU     LIG 3366  17.002  25.882   7.461
    7AU     LIG 3367  16.644  25.574   7.541
    7AU     LIG 3368  16.215  25.522   7.730
    7AU     LIG 3369  15.913  25.160   7.754
    7AU     LIG 3370  15.646  24.941   7.425
    7AU    AUSL 3371  17.718  26.571   7.695
    7AU    AUSL 3372  17.974  26.154   7.817
    7AU     AUL 3373  17.637  26.246   7.811
    7AU       S 3374  17.691  25.888   8.158
    7AU     LIG 3375  17.456  25.473   8.092
    7AU     LIG 3376  17.183  25.086   8.080
    7AU     LIG 3377  16.883  24.809   8.311
    7AU     LIG 3378  16.432  24.649   8.441
    7AU     LIG 3379  16.198  24.270   8.597
    7AU       S 3380  17.224  26.514   7.635
    7AU     LIG 3381  16.746  26.429   7.709
    7AU     LIG 3382  16.271  26.475   7.529
    7AU     LIG 3383  15.915  26.254   7.749
    7AU     LIG 3384  15.634  25.853   7.806
    7AU     LIG 3385  15.320  25.547   8.027
    7AU    AUSL 3386  18.509  27.364   7.958
    7AU    AUSL 3387  18.064  27.335   7.802
    7AU     AUL 3388  18.244  27.441   8.182
    7AU       S 3389  17.816  27.653   7.981
    7AU     LIG 3390  17.530  27.910   8.303
    7AU     LIG 3391  17.376  28.141   8.713
    7AU     LIG 3392  17.254  28.582   8.912
    7AU     LIG 3393  16.988  28.987   8.836
    7AU     LIG 3394  16.747  29.316   8.592
    7AU       S 3395  18.501  27.859   8.098
    7AU     LIG 3396  18.779  28.090   8.379
    7AU     LIG 3397  18.961  28.486   8.520
    7AU     LIG 3398  18.994  28.896   8.724
    7AU     LIG 3399  18.775  29.209   8.989
    7AU     LIG 3400  18.595  29.521   9.288
    7AU    AUSL 3401  18.339  27.477   7.652
    7AU    AUSL 3402  18.697  27.472   7.307
    7AU     AUL 3403  18.516  27.721   7.480
    7AU       S 3404  18.289  27.911   7.892
    7AU     LIG 3405  18.443  28.378   8.092
    7AU     LIG 3406  18.717  28.776   8.187
    7AU     LIG 3407  18.585  29.220   8.222
    7AU     LIG 3408  18.365  29.649   8.241
    7AU     LIG 3409  18.029  29.917   8.445
    7AU       S 3410  18.706  27.949   7.082
    7AU     LIG 3411  18.930  28.389   7.116
    7AU     LIG 3412  19.217  28.692   6.909
    7AU     LIG 3413  19.115  29.067   6.654
    7AU     LIG 3414  19.219  29.540   6.636
    7AU     LIG 3415  19.380  29.999   6.658
    7AU    AUSL 3416  18.707  27.457   7.663
    7AU    AUSL 3417  18.796  27.186   8.064
    7AU     AUL 3418  18.861  27.523   7.961
    7AU       S 3419  19.109  27.388   8.394
    7AU     LIG 3420  19.453  27.493   8.725
    7AU     LIG 3421  19.777  27.803   8.919
    7AU     LIG 3422  20.079  27.955   9.256
    7AU     LIG 3423  20.165  28.057   9.712
    7AU     LIG 3424  19.988  28.183  10.141
    7AU       S 3425  18.659  27.976   7.879
    7AU     LIG 3426  18.951  28.356   7.960
    7AU     LIG 3427  19.205  28.750   8.007
    7AU     LIG 3428  19.116  29.181   8.099
    7AU     LIG 3429  19.069  29.550   8.374
    7AU     LIG 3430  19.113  29.942   8.632
    7AU    AUSL 3431  18.467  26.076   7.974
    7AU    AUSL 3432  18.848  26.087   7.812
    7AU     AUL 3433  18.657  26.047   8.260
    7AU       S 3434  18.605  25.575   8.052
    7AU     LIG 3435  18.571  25.151   8.238
    7AU     LIG 3436  18.577  24.777   8.482
    7AU     LIG 3437  18.426  24.365   8.586
    7AU     LIG 3438  18.428  24.107   8.948
    7AU     LIG 3439  18.745  23.838   9.114
    7AU       S 3440  19.092  25.770   7.890
    7AU     LIG 3441  19.221  25.315   7.976
    7AU     LIG 3442  19.512  25.018   8.235
    7AU     LIG 3443  19.699  24.708   8.569
    7AU     LIG 3444  19.996  24.444   8.882
    7AU     LIG 3445  20.282  24.044   8.940
    7AU    AUSL 3446  18.260  26.025   7.689
    7AU    AUSL 3447  18.184  26.250   8.096
    7AU     AUL 3448  18.171  25.885   8.005
    7AU       S 3449  18.432  25.459   7.839
    7AU     LIG 3450  18.188  25.054   7.894
    7AU     LIG 3451  17.774  24.780   7.948
    7AU     LIG 3452  17.723  24.322   8.064
    7AU     LIG 3453  17.689  23.832   8.172
    7AU     LIG 3454  17.636  23.380   8.412
    7AU       S 3455  17.864  25.982   8.410
    7AU     LIG 3456  17.501  25.677   8.570
    7AU     LIG 3457  17.320  25.239   8.552
    7AU     LIG 3458  17.128  24.891   8.773
    7AU     LIG 3459  16.991  24.800   9.206
    7AU     LIG 3460  16.961  24.742   9.676
    7AU    AUSL 3461  18.576  25.929   7.666
    7AU    AUSL 3462  18.256  25.964   7.341
    7AU     AUL 3463  18.122  25.773   7.616
    7AU       S 3464  18.305  25.492   7.233
    7AU     LIG 3465  18.123  25.067   7.204
    7AU     LIG 3466  17.924  24.666   7.114
    7AU     LIG 3467  18.012  24.236   6.981
    7AU     LIG 3468  17.905  23.809   6.810
    7AU     LIG 3469  17.630  23.569   6.497
    7AU       S 3470  18.673  25.556   7.770
    7AU     LIG 3471  18.785  25.103   7.781
    7AU     LIG 3472  18.629  24.707   7.958
    7AU     LIG 3473  18.514  24.250   8.003
    7AU     LIG 3474  18.832  23.908   8.172
    7AU     LIG 3475  18.936  23.551   8.456
    7AU    AUSL 3476  18.543  27.334   7.009
    7AU    AUSL 3477  18.957  27.266   7.232
    7AU     AUL 3478  18.876  27.476   6.960
    7AU       S 3479  18.550  27.843   6.830
    7AU     LIG 3480  18.813  28.200   6.645
    7AU     LIG 3481  19.052  28.537   6.450
    7AU     LIG 3482  19.071  28.886   6.169
    7AU     LIG 3483  19.025  29.205   5.859
    7AU     LIG 3484  18.689  29.336   5.560
    7AU       S 3485  19.395  27.417   6.923
    7AU     LIG 3486  19.729  27.735   6.753
    7AU     LIG 3487  19.928  27.938   6.361
    7AU     LIG 3488  20.286  28.221   6.184
    7AU     LIG 3489  20.586  28.567   6.348
    7AU     LIG 3490  21.013  28.787   6.315
    7AU    AUSL 3491  18.330  27.465   7.284
    7AU    AUSL 3492  18.241  27.149   6.965
    7AU     AUL 3493  18.230  27.461   6.907
    7AU       S 3494  18.343  27.937   7.061
    7AU     LIG 3495  18.439  28.394   6.937
    7AU     LIG 3496  18.699  28.750   6.769
    7AU     LIG 3497  18.620  29.214   6.800
    7AU     LIG 3498  18.293  29.531   6.620
    7AU     LIG 3499  17.916  29.834   6.755
    7AU       S 3500  17.750  27.448   6.739
    7AU     LIG 3501  17.636  27.623   6.313
    7AU     LIG 3502  17.462  27.717   5.872
    7AU     LIG 3503  17.383  27.875   5.421
    7AU     LIG 3504  17.321  28.145   5.034
    7AU     LIG 3505  17.085  28.499   4.822
    7AU    AUSL 3506  18.443  26.056   7.044
    7AU    AUSL 3507  17.994  26.164   7.223
    7AU     AUL 3508  18.115  25.918   6.991
    7AU       S 3509  17.663  26.032   6.794
    7AU     LIG 3510  17.337  25.697   6.846
    7AU     LIG 3511  17.031  25.326   6.829
    7AU     LIG 3512  16.839  24.905   6.669
    7AU     LIG 3513  16.642  24.626   6.344
    7AU     LIG 3514  16.594  24.295   6.006
    7AU       S 3515  18.439  25.522   6.981
    7AU     LIG 3516  18.463  25.097   6.805
    7AU     LIG 3517  18.302  24.666   6.754
    7AU     LIG 3518  18.261  24.276   6.514
    7AU     LIG 3519  18.519  24.029   6.211
    7AU     LIG 3520  18.897  23.819   6.071
    7AU    AUSL 3521  18.617  25.958   7.337
    7AU    AUSL 3522  18.726  26.217   6.935
    7AU     AUL 3523  18.787  25.875   7.062
    7AU       S 3524  18.561  25.491   7.297
    7AU     LIG 3525  18.626  25.053   7.287
    7AU     LIG 3526  18.423  24.630   7.246
    7AU     LIG 3527  18.533  24.258   6.980
    7AU     LIG 3528  18.861  23.927   6.912
    7AU     LIG 3529  18.909  23.641   6.565
    7AU       S 3530  18.897  26.028   6.584
    7AU     LIG 3531  18.915  25.634   6.341
    7AU     LIG 3532  19.111  25.220   6.226
    7AU     LIG 3533  19.391  24.866   6.076
    7AU     LIG 3534  19.680  24.579   5.821
    7AU     LIG 3535  19.814  24.518   5.365
    8AU     AUC 3536  16.419  34.689   7.512
    8AU     AUC 3537  16.690  34.667   7.351
    8AU     AUC 3538  16.685  34.666   7.677
    8AU     AUC 3539  16.157  34.708   7.341
    8AU     AUC 3540  16.151  34.710   7.676
    8AU     AUC 3541  16.278  34.968   7.505
    8AU     AUC 3542  16.608  34.944   7.514
    8AU     AUC 3543  16.229  34.434   7.510
    8AU     AUC 3544  16.557  34.406   7.508
    8AU     AUC 3545  16.401  34.524   7.780
    8AU     AUC 3546  16.433  34.854   7.779
    8AU     AUC 3547  16.413  34.524   7.244
    8AU     AUC 3548  16.440  34.853   7.242
    8AU     AUC 3549  16.957  34.656   7.198
    8AU     AUC 3550  16.961  34.638   7.513
    8AU     AUC 3551  16.943  34.638   7.831
    8AU     AUC 3552  15.908  34.715   7.167
    8AU     AUC 3553  15.877  34.724   7.503
    8AU     AUC 3554  15.892  34.733   7.836
    8AU     AUC 3555  16.142  35.237   7.498
    8AU     AUC 3556  16.471  35.235   7.503
    8AU     AUC 3557  16.785  35.194   7.515
    8AU     AUC 3558  16.045  34.193   7.510
    8AU     AUC 3559  16.368  34.144   7.500
    8AU     AUC 3560  16.687  34.127   7.511
    8AU     AUC 3561  16.394  34.366   8.041
    8AU     AUC 3562  16.418  34.687   8.062
    8AU     AUC 3563  16.442  35.017   8.026
    8AU     AUC 3564  16.420  34.364   6.989
    8AU     AUC 3565  16.452  34.691   6.968
    8AU     AUC 3566  16.463  35.009   6.978
    8AU     AUC 3567  16.679  34.498   7.948
    8AU     AUC 3568  16.715  34.832   7.957
    8AU     AUC 3569  16.696  34.515   7.071
    8AU     AUC 3570  16.726  34.846   7.087
    8AU     AUC 3571  16.128  34.543   7.967
    8AU     AUC 3572  16.154  34.875   7.952
    8AU     AUC 3573  16.148  34.536   7.072
    8AU     AUC 3574  16.171  34.866   7.053
    8AU     AUC 3575  16.888  34.919   7.365
    8AU     AUC 3576  16.883  34.926   7.692
    8AU     AUC 3577  16.007  34.995   7.323
    8AU     AUC 3578  16.002  35.003   7.673
    8AU     AUC 3579  16.836  34.377   7.346
    8AU     AUC 3580  16.822  34.369   7.671
    8AU     AUC 3581  15.951  34.449   7.342
    8AU     AUC 3582  15.952  34.447   7.686
    8AU     AUC 3583  16.291  35.149   7.771
    8AU     AUC 3584  16.630  35.122   7.783
    8AU     AUC 3585  16.207  34.266   7.792
    8AU     AUC 3586  16.533  34.228   7.773
    8AU     AUC 3587  16.291  35.131   7.219
    8AU     AUC 3588  16.624  35.126   7.238
    8AU     AUC 3589  16.216  34.255   7.233
    8AU     AUC 3590  16.549  34.232   7.230
    8AU    AUSL 3591  16.922  34.600   8.126
    8AU    AUSL 3592  16.658  34.235   8.066
    8AU     AUL 3593  16.936  34.234   8.278
    8AU       S 3594  16.977  33.722   8.155
    8AU     LIG 3595  17.012  33.319   8.424
    8AU     LIG 3596  17.183  32.929   8.672
    8AU     LIG 3597  17.475  32.754   8.999
    8AU     LIG 3598  17.737  32.892   9.365
    8AU     LIG 3599  17.835  32.924   9.830
    8AU       S 3600  17.275  34.579   8.460
    8AU     LIG 3601  17.435  34.761   8.845
    8AU     LIG 3602  17.565  34.589   9.257
    8AU     LIG 3603  17.870  34.443   9.586
    8AU     LIG 3604  18.165  34.439   9.955
    8AU     LIG 3605  18.359  34.399  10.389
    8AU    AUSL 3606  16.601  34.511   8.270
    8AU    AUSL 3607  16.260  34.862   8.277
    8AU     AUL 3608  16.511  34.719   8.554
    8AU       S 3609  16.956  34.479   8.714
    8AU     LIG 3610  16.911  34.181   9.084
    8AU     LIG 3611  16.918  33.873   9.455
    8AU     LIG 3612  17.062  33.744   9.887
    8AU     LIG 3613  17.135  33.810  10.355
    8AU     LIG 3614  17.138  33.719  10.822
    8AU       S 3615  16.037  34.795   8.753
    8AU     LIG 3616  15.818  34.731   9.169
    8AU     LIG 3617  15.811  34.510   9.588
    8AU     LIG 3618  15.685  34.555  10.031
    8AU     LIG 3619  15.628  34.891  10.350
    8AU     LIG 3620  15.506  35.271  10.605
    8AU    AUSL 3621  16.590  34.885   8.225
    8AU    AUSL 3622  17.014  34.918   8.008
    8AU     AUL 3623  16.859  34.845   8.370
    8AU       S 3624  16.586  35.243   8.585
    8AU     LIG 3625  16.893  35.293   8.946
    8AU     LIG 3626  17.071  35.382   9.388
    8AU     LIG 3627  17.045  35.422   9.881
    8AU     LIG 3628  17.043  35.447  10.373
    8AU     LIG 3629  17.194  35.479  10.848
    8AU       S 3630  17.299  35.093   8.308
    8AU     LIG 3631  17.706  35.007   8.452
    8AU     LIG 3632  17.946  35.174   8.786
    8AU     LIG 3633  18.184  35.440   9.073
    8AU     LIG 3634  18.510  35.643   9.331
    8AU     LIG 3635  18.843  35.727   9.661
    8AU    AUSL 3636  16.913  34.764   6.888
    8AU    AUSL 3637  16.776  35.093   6.955
    8AU     AUL 3638  16.752  35.138   6.627
    8AU       S 3639  17.120  34.778   6.455
    8AU     LIG 3640  17.404  34.530   6.161
    8AU     LIG 3641  17.518  34.334   5.744
    8AU     LIG 3642  17.615  34.345   5.279
    8AU     LIG 3643  17.934  34.335   4.932
    8AU     LIG 3644  18.373  34.244   4.778
    8AU       S 3645  17.248  35.209   6.706
    8AU     LIG 3646  17.518  35.343   6.349
    8AU     LIG 3647  17.694  35.495   5.943
    8AU     LIG 3648  17.838  35.754   5.573
    8AU     LIG 3649  17.850  36.156   5.316
    8AU     LIG 3650  17.913  36.464   4.959
    8AU    AUSL 3651  16.693  34.507   6.783
    8AU    AUSL 3652  16.938  34.372   7.029
    8AU     AUL 3653  17.163  34.539   6.893
    8AU       S 3654  17.128  34.102   6.638
    8AU     LIG 3655  17.465  33.899   6.367
    8AU     LIG 3656  17.748  33.516   6.308
    8AU     LIG 3657  18.164  33.378   6.103
    8AU     LIG 3658  18.443  33.377   5.733
    8AU     LIG 3659  18.385  33.217   5.289
    8AU       S 3660  16.941  34.487   6.400
    8AU     LIG 3661  17.073  34.139   6.105
    8AU     LIG 3662  17.085  34.078   5.634
    8AU     LIG 3663  17.163  34.101   5.161
    8AU     LIG 3664  17.220  33.922   4.715
    8AU     LIG 3665  17.394  33.809   4.282
    8AU    AUSL 3666  16.609  34.844   6.753
    8AU    AUSL 3667  16.308  34.527   6.797
    8AU     AUL 3668  16.451  34.614   6.496
    8AU       S 3669  15.920  34.536   6.347
    8AU     LIG 3670  15.832  34.162   6.084
    8AU     LIG 3671  15.800  34.015   5.644
    8AU     LIG 3672  15.676  34.010   5.190
    8AU     LIG 3673  15.496  34.030   4.747
    8AU     LIG 3674  15.339  33.922   4.299
    8AU       S 3675  16.900  34.762   6.304
    8AU     LIG 3676  16.986  34.579   5.862
    8AU     LIG 3677  17.165  34.560   5.429
    8AU     LIG 3678  17.239  34.597   4.966
    8AU     LIG 3679  17.200  34.885   4.580
    8AU     LIG 3680  17.393  35.070   4.180
    8AU    AUSL 3681  15.947  34.767   8.157
    8AU    AUSL 3682  16.169  35.137   8.054
    8AU     AUL 3683  16.068  35.126   8.373
    8AU       S 3684  15.768  34.785   8.626
    8AU     LIG 3685  15.556  34.431   8.838
    8AU     LIG 3686  15.447  34.329   9.280
    8AU     LIG 3687  15.288  34.414   9.723
    8AU     LIG 3688  14.989  34.418  10.102
    8AU     LIG 3689  14.603  34.425  10.399
    8AU       S 3690  15.705  35.463   8.218
    8AU     LIG 3691  15.606  35.644   8.641
    8AU     LIG 3692  15.601  35.845   9.054
    8AU     LIG 3693  15.579  36.195   9.350
    8AU     LIG 3694  15.351  36.391   9.708
    8AU     LIG 3695  15.266  36.659  10.085
    8AU    AUSL 3696  16.240  34.507   8.271
    8AU    AUSL 3697  15.823  34.458   7.975
    8AU     AUL 3698  15.883  34.448   8.283
    8AU       S 3699  15.514  34.115   8.297
    8AU     LIG 3700  15.071  33.978   8.255
    8AU     LIG 3701  14.773  33.624   8.311
    8AU     LIG 3702  14.582  33.276   8.578
    8AU     LIG 3703  14.424  32.948   8.897
    8AU     LIG 3704  14.065  32.820   9.165
    8AU       S 3705  16.059  34.526   8.738
    8AU     LIG 3706  15.971  34.248   9.096
    8AU     LIG 3707  15.820  34.011   9.451
    8AU     LIG 3708  15.640  34.054   9.866
    8AU     LIG 3709  15.565  33.835  10.276
    8AU     LIG 3710  15.442  33.668  10.700
    8AU    AUSL 3711  15.995  34.669   6.843
    8AU    AUSL 3712  16.103  34.270   6.938
    8AU     AUL 3713  16.235  34.287   6.627
    8AU       S 3714  15.741  34.661   6.502
    8AU     LIG 3715  15.424  34.420   6.252
    8AU     LIG 3716  15.381  34.273   5.801
    8AU     LIG 3717  15.268  34.302   5.334
    8AU     LIG 3718  14.970  34.309   4.964
    8AU     LIG 3719  14.580  34.303   4.670
    8AU       S 3720  15.732  34.154   6.613
    8AU     LIG 3721  15.434  33.901   6.329
    8AU     LIG 3722  15.148  33.529   6.293
    8AU     LIG 3723  14.958  33.258   5.948
    8AU     LIG 3724  14.932  33.151   5.481
    8AU     LIG 3725  14.859  32.806   5.158
    8AU    AUSL 3726  16.273  34.874   6.756
    8AU    AUSL 3727  15.881  34.990   6.999
    8AU     AUL 3728  16.041  35.046   6.650
    8AU       S 3729  15.558  35.180   6.714
    8AU     LIG 3730  15.254  35.400   6.459
    8AU     LIG 3731  15.203  35.596   6.035
    8AU     LIG 3732  15.079  35.687   5.583
    8AU     LIG 3733  14.680  35.712   5.308
    8AU     LIG 3734  14.508  36.007   4.995
    8AU       S 3735  16.004  34.750   6.261
    8AU     LIG 3736  15.756  34.628   5.873
    8AU     LIG 3737  15.739  34.483   5.432
    8AU     LIG 3738  15.639  34.487   4.971
    8AU     LIG 3739  15.663  34.728   4.560
    8AU     LIG 3740  15.575  35.065   4.229
    8AU    AUSL 3741  17.094  35.077   7.498
    8AU    AUSL 3742  17.066  34.961   7.147
    8AU     AUL 3743  17.172  35.380   7.396
    8AU       S 3744  17.368  35.065   6.912
    8AU     LIG 3745  17.788  35.109   6.734
    8AU     LIG 3746  18.032  35.220   6.340
    8AU     LIG 3747  18.205  35.495   5.983
    8AU     LIG 3748  18.359  35.821   5.682
    8AU     LIG 3749  18.738  35.990   5.458
    8AU       S 3750  17.610  35.121   7.344
    8AU     LIG 3751  18.099  35.283   7.424
    8AU     LIG 3752  18.574  35.389   7.440
    8AU     LIG 3753  19.001  35.505   7.616
    8AU     LIG 3754  19.194  35.890   7.852
    8AU     LIG 3755  19.280  36.385   7.801
    8AU    AUSL 3756  17.213  34.744   7.383
    8AU    AUSL 3757  17.142  34.470   7.653
    8AU     AUL 3758  17.446  34.616   7.760
    8AU       S 3759  17.595  34.798   7.272
    8AU     LIG 3760  18.030  34.881   7.137
    8AU     LIG 3761  18.471  35.070   7.046
    8AU     LIG 3762  18.943  35.211   7.119
    8AU     LIG 3763  19.418  35.225   7.152
    8AU     LIG 3764  19.716  35.585   7.024
    8AU       S 3765  17.575  34.177   7.526
    8AU     LIG 3766  17.904  33.984   7.739
    8AU     LIG 3767  18.233  33.828   7.983
    8AU     LIG 3768  18.644  33.681   7.861
    8AU     LIG 3769  19.086  33.805   7.969
    8AU     LIG 3770  19.470  33.717   8.242
    8AU    AUSL 3771  17.162  34.815   7.716
    8AU    AUSL 3772  16.945  35.218   7.792
    8AU     AUL 3773  17.286  35.134   7.794
    8AU       S 3774  17.278  35.396   8.224
    8AU     LIG 3775  17.683  35.535   8.474
    8AU     LIG 3776  18.003  35.806   8.731
    8AU     LIG 3777  18.264  36.217   8.826
    8AU     LIG 3778  18.526  36.651   8.829
    8AU     LIG 3779  18.639  37.055   9.075
    8AU       S 3780  17.694  34.971   7.526
    8AU     LIG 3781  17.962  35.115   7.896
    8AU     LIG 3782  18.430  35.195   7.889
    8AU     LIG 3783  18.907  35.071   7.910
    8AU     LIG 3784  19.308  35.291   8.027
    8AU     LIG 3785  19.630  35.643   8.079
    8AU    AUSL 3786  15.844  35.218   7.514
    8AU    AUSL 3787  15.842  35.030   7.946
    8AU     AUL 3788  15.545  35.232   7.726
    8AU       S 3789  15.562  35.169   8.245
    8AU     LIG 3790  15.422  35.167   8.688
    8AU     LIG 3791  15.267  35.439   9.038
    8AU     LIG 3792  14.970  35.533   9.404
    8AU     LIG 3793  14.629  35.655   9.722
    8AU     LIG 3794  14.374  35.890  10.045
    8AU       S 3795  15.679  35.674   7.475
    8AU     LIG 3796  15.293  35.974   7.380
    8AU     LIG 3797  14.806  36.037   7.363
    8AU     LIG 3798  14.362  36.070   7.526
    8AU     LIG 3799  14.114  36.382   7.728
    8AU     LIG 3800  13.705  36.526   7.681
    8AU    AUSL 3801  15.730  34.895   7.291
    8AU    AUSL 3802  15.983  35.292   7.205
    8AU     AUL 3803  15.614  35.200   7.229
    8AU       S 3804  15.355  34.791   6.941
    8AU     LIG 3805  14.995  35.138   6.866
    8AU     LIG 3806  14.528  35.360   6.900
    8AU     LIG 3807  14.123  35.621   6.766
    8AU     LIG 3808  13.679  35.736   6.696
    8AU     LIG 3809  13.282  35.843   6.510
    8AU       S 3810  15.696  35.632   6.969
    8AU     LIG 3811  15.418  35.858   6.649
    8AU     LIG 3812  15.301  36.072   6.233
    8AU     LIG 3813  15.017  36.392   6.006
    8AU     LIG 3814  14.793  36.802   6.100
    8AU     LIG 3815  14.731  37.258   5.998
    8AU    AUSL 3816  15.695  34.902   7.668
    8AU    AUSL 3817  15.634  34.576   7.340
    8AU     AUL 3818  15.422  34.941   7.443
    8AU       S 3819  15.166  34.500   7.361
    8AU     LIG 3820  14.776  34.316   7.170
    8AU     LIG 3821  14.361  34.215   7.322
    8AU     LIG 3822  13.980  34.059   7.169
    8AU     LIG 3823  13.541  34.018   7.190
    8AU     LIG 3824  13.169  34.056   6.984
    8AU       S 3825  15.293  34.840   7.971
    8AU     LIG 3826  14.808  34.972   7.995
    8AU     LIG 3827  14.429  35.250   8.167
    8AU     LIG 3828  14.012  35.498   8.130
    8AU     LIG 3829  13.629  35.761   8.209
    8AU     LIG 3830  13.139  35.651   8.262
    8AU    AUSL 3831  17.015  34.161   7.554
    8AU    AUSL 3832  16.956  34.322   7.911
    8AU     AUL 3833  17.276  34.316   7.922
    8AU       S 3834  17.416  33.956   7.568
    8AU     LIG 3835  17.642  33.570   7.616
    8AU     LIG 3836  18.105  33.496   7.613
    8AU     LIG 3837  18.526  33.319   7.478
    8AU     LIG 3838  18.823  32.926   7.462
    8AU     LIG 3839  19.181  32.575   7.461
    8AU       S 3840  17.199  33.831   8.014
    8AU     LIG 3841  17.450  33.498   8.193
    8AU     LIG 3842  17.512  33.337   8.624
    8AU     LIG 3843  17.824  33.151   8.928
    8AU     LIG 3844  18.200  32.976   9.163
    8AU     LIG 3845  18.540  33.045   9.484
    8AU    AUSL 3846  17.136  34.418   7.306
    8AU    AUSL 3847  16.820  34.105   7.231
    8AU     AUL 3848  17.117  34.065   7.186
    8AU       S 3849  17.560  34.269   7.304
    8AU     LIG 3850  17.871  33.883   7.231
    8AU     LIG 3851  18.237  33.594   7.131
    8AU     LIG 3852  18.689  33.713   7.159
    8AU     LIG 3853  19.165  33.826   7.163
    8AU     LIG 3854  19.512  33.809   6.856
    8AU       S 3855  17.086  33.880   6.722
    8AU     LIG 3856  17.338  33.485   6.657
    8AU     LIG 3857  17.530  33.058   6.570
    8AU     LIG 3858  17.738  32.745   6.298
    8AU     LIG 3859  17.987  32.366   6.177
    8AU     LIG 3860  18.250  32.172   5.839
    8AU    AUSL 3861  15.752  34.276   7.517
    8AU    AUSL 3862  15.813  34.458   7.062
    8AU     AUL 3863  15.570  34.201   7.258
    8AU       S 3864  15.527  34.315   6.759
    8AU     LIG 3865  15.091  34.164   6.621
    8AU     LIG 3866  14.773  33.804   6.531
    8AU     LIG 3867  14.649  33.375   6.353
    8AU     LIG 3868  14.297  33.129   6.143
    8AU     LIG 3869  13.977  32.905   5.848
    8AU       S 3870  15.151  34.278   7.519
    8AU     LIG 3871  14.778  33.977   7.566
    8AU     LIG 3872  14.516  33.707   7.851
    8AU     LIG 3873  14.060  33.553   7.873
    8AU     LIG 3874  13.581  33.419   7.871
    8AU     LIG 3875  13.255  33.177   7.617
    8AU    AUSL 3876  15.654  34.569   7.692
    8AU    AUSL 3877  15.894  34.143   7.814
    8AU     AUL 3878  15.560  34.254   7.811
    8AU       S 3879  15.600  33.883   8.143
    8AU     LIG 3880  15.266  33.578   8.011
    8AU     LIG 3881  14.908  33.313   7.926
    8AU     LIG 3882  14.706  32.996   8.160
    8AU     LIG 3883  14.362  32.812   8.412
    8AU     LIG 3884  14.097  32.558   8.721
    8AU       S 3885  15.161  34.514   7.614
    8AU     LIG 3886  14.690  34.571   7.629
    8AU     LIG 3887  14.254  34.457   7.754
    8AU     LIG 3888  13.998  34.062   7.718
    8AU     LIG 3889  13.539  34.008   7.821
    8AU     LIG 3890  13.113  33.993   8.061
    8AU    AUSL 3891  16.470  35.336   7.962
    8AU    AUSL 3892  16.027  35.326   7.799
    8AU     AUL 3893  16.216  35.447   8.175
    8AU       S 3894  15.799  35.657   7.957
    8AU     LIG 3895  15.669  36.003   8.276
    8AU     LIG 3896  15.542  36.223   8.700
    8AU     LIG 3897  15.330  36.521   9.033
    8AU     LIG 3898  14.932  36.737   9.098
    8AU     LIG 3899  14.653  37.060   8.906
    8AU       S 3900  16.503  35.864   8.054
    8AU     LIG 3901  16.760  36.254   8.246
    8AU     LIG 3902  16.864  36.692   8.449
    8AU     LIG 3903  16.885  36.939   8.858
    8AU     LIG 3904  16.803  37.108   9.283
    8AU     LIG 3905  16.416  37.207   9.532
    8AU    AUSL 3906  16.312  35.454   7.651
    8AU    AUSL 3907  16.637  35.464   7.331
    8AU     AUL 3908  16.242  35.704   7.399
    8AU       S 3909  16.331  35.889   7.855
    8AU     LIG 3910  16.412  36.379   7.892
    8AU     LIG 3911  16.487  36.826   8.088
    8AU     LIG 3912  16.295  37.228   8.265
    8AU     LIG 3913  16.183  37.682   8.160
    8AU     LIG 3914  16.144  38.129   8.398
    8AU       S 3915  16.731  35.878   7.228
    8AU     LIG 3916  16.987  36.286   7.154
    8AU     LIG 3917  16.984  36.748   7.036
    8AU     LIG 3918  16.966  37.131   6.781
    8AU     LIG 3919  17.287  37.478   6.692
    8AU     LIG 3920  17.248  37.969   6.746
    8AU    AUSL 3921  16.675  35.424   7.674
    8AU    AUSL 3922  16.745  35.145   8.077
    8AU     AUL 3923  16.824  35.483   7.996
    8AU       S 3924  17.066  35.312   8.422
    8AU     LIG 3925  17.380  35.275   8.783
    8AU     LIG 3926  17.667  35.544   9.029
    8AU     LIG 3927  17.903  35.892   9.258
    8AU     LIG 3928  17.856  36.203   9.640
    8AU     LIG 3929  17.805  36.385  10.092
    8AU       S 3930  16.648  35.889   7.735
    8AU     LIG 3931  16.909  36.291   7.752
    8AU     LIG 3932  16.978  36.729   7.930
    8AU     LIG 3933  17.057  37.112   8.171
    8AU     LIG 3934  17.167  37.547   8.334
    8AU     LIG 3935  16.984  37.903   8.593
    8AU    AUSL 3936  16.385  34.045   7.965
    8AU    AUSL 3937  16.762  34.045   7.801
    8AU     AUL 3938  16.578  34.005   8.249
    8AU       S 3939  16.512  33.542   8.033
    8AU     LIG 3940  16.399  33.196   8.288
    8AU     LIG 3941  16.260  32.768   8.276
    8AU     LIG 3942  16.285  32.312   8.306
    8AU     LIG 3943  16.308  31.904   8.529
    8AU     LIG 3944  16.378  31.718   8.969
    8AU       S 3945  16.993  33.725   7.867
    8AU     LIG 3946  17.066  33.264   7.918
    8AU     LIG 3947  17.347  32.974   8.186
    8AU     LIG 3948  17.676  32.872   8.521
    8AU     LIG 3949  17.956  32.653   8.821
    8AU     LIG 3950  18.224  32.276   8.928
    8AU    AUSL 3951  16.174  34.004   7.683
    8AU    AUSL 3952  16.109  34.229   8.092
    8AU     AUL 3953  16.084  33.865   7.998
    8AU       S 3954  16.327  33.429   7.821
    8AU     LIG 3955  16.086  33.010   7.837
    8AU     LIG 3956  15.857  32.606   7.982
    8AU     LIG 3957  15.803  32.146   8.082
    8AU     LIG 3958  15.557  31.789   8.298
    8AU     LIG 3959  15.396  31.315   8.309
    8AU       S 3960  15.775  33.960   8.400
    8AU     LIG 3961  15.383  33.639   8.516
    8AU     LIG 3962  15.099  33.246   8.431
    8AU     LIG 3963  14.885  32.865   8.643
    8AU     LIG 3964  14.824  32.682   9.076
    8AU     LIG 3965  14.634  32.651   9.493
    8AU    AUSL 3966  16.486  33.897   7.652
    8AU    AUSL 3967  16.177  33.946   7.334
    8AU     AUL 3968  16.026  33.759   7.604
    8AU       S 3969  16.213  33.475   7.226
    8AU     LIG 3970  15.942  33.110   7.129
    8AU     LIG 3971  15.786  32.679   7.181
    8AU     LIG 3972  15.861  32.283   6.992
    8AU     LIG 3973  15.820  31.889   6.767
    8AU     LIG 3974  15.632  31.662   6.372
    8AU       S 3975  16.576  33.498   7.757
    8AU     LIG 3976  16.589  32.990   7.857
    8AU     LIG 3977  16.331  32.529   7.822
    8AU     LIG 3978  16.274  32.029   7.892
    8AU     LIG 3979  16.428  31.612   8.064
    8AU     LIG 3980  16.873  31.456   8.172
    8AU    AUSL 3981  16.505  35.321   7.006
    8AU    AUSL 3982  16.891  35.234   7.256
    8AU     AUL 3983  16.849  35.438   6.991
    8AU       S 3984  16.584  35.827   6.837
    8AU     LIG 3985  16.836  36.208   6.666
    8AU     LIG 3986  16.916  36.663   6.525
    8AU     LIG 3987  16.688  37.028   6.342
    8AU     LIG 3988  16.546  37.314   5.988
    8AU     LIG 3989  16.543  37.313   5.505
    8AU       S 3990  17.358  35.358   6.930
    8AU     LIG 3991  17.698  35.617   6.740
    8AU     LIG 3992  17.934  35.746   6.348
    8AU     LIG 3993  18.260  36.051   6.145
    8AU     LIG 3994  18.454  36.510   6.157
    8AU     LIG 3995  18.347  36.981   6.094
    8AU    AUSL 3996  16.307  35.386   7.295
    8AU    AUSL 3997  16.190  35.169   6.944
    8AU     AUL 3998  16.196  35.521   6.985
    8AU       S 3999  16.522  35.931   7.065
    8AU     LIG 4000  16.508  36.408   7.014
    8AU     LIG 4001  16.526  36.829   6.813
    8AU     LIG 4002  16.464  37.267   6.747
    8AU     LIG 4003  16.275  37.572   6.492
    8AU     LIG 4004  16.319  37.967   6.263
    8AU       S 4005  15.756  35.456   6.714
    8AU     LIG 4006  15.681  35.626   6.272
    8AU     LIG 4007  15.612  35.855   5.859
    8AU     LIG 4008  15.490  36.078   5.463
    8AU     LIG 4009  15.491  36.441   5.154
    8AU     LIG 4010  15.231  36.737   4.882
    8AU    AUSL 4011  16.362  34.040   7.036
    8AU    AUSL 4012  15.919  34.153   7.220
    8AU     AUL 4013  16.031  33.908   6.984
    8AU       S 4014  15.571  34.020   6.796
    8AU     LIG 4015  15.212  33.696   6.796
    8AU     LIG 4016  14.824  33.405   6.852
    8AU     LIG 4017  14.558  33.030   6.729
    8AU     LIG 4018  14.144  32.915   6.583
    8AU     LIG 4019  14.136  32.602   6.230
    8AU       S 4020  16.342  33.505   6.975
    8AU     LIG 4021  16.316  33.106   6.774
    8AU     LIG 4022  16.129  32.690   6.768
    8AU     LIG 4023  16.162  32.275   6.570
    8AU     LIG 4024  16.100  31.904   6.328
    8AU     LIG 4025  16.123  31.697   5.921
    8AU    AUSL 4026  16.539  33.926   7.324
    8AU    AUSL 4027  16.645  34.198   6.920
    8AU     AUL 4028  16.700  33.852   7.030
    8AU       S 4029  16.479  33.461   7.276
    8AU     LIG 4030  16.412  32.984   7.284
    8AU     LIG 4031  16.275  32.526   7.229
    8AU     LIG 4032  16.331  32.089   7.013
    8AU     LIG 4033  16.605  31.752   6.902
    8AU     LIG 4034  16.757  31.311   6.828
    8AU       S 4035  16.834  34.018   6.558
    8AU     LIG 4036  17.012  33.652   6.278
    8AU     LIG 4037  17.267  33.264   6.177
    8AU     LIG 4038  17.382  32.876   5.925
    8AU     LIG 4039  17.624  32.816   5.524
    8AU     LIG 4040  17.868  32.739   5.125
    9AU     AUC 4041  30.648  40.452   7.512
    9AU     AUC 4042  30.921  40.436   7.352
    9AU     AUC 4043  30.913  40.436   7.679
    9AU     AUC 4044  30.385  40.464   7.341
    9AU     AUC 4045  30.377  40.467   7.675
    9AU     AUC 4046  30.498  40.727   7.504
    9AU     AUC 4047  30.830  40.711   7.513
    9AU     AUC 4048  30.463  40.193   7.512
    9AU     AUC 4049  30.793  40.172   7.512
    9AU     AUC 4050  30.632  40.289   7.782
    9AU     AUC 4051  30.657  40.619   7.778
    9AU     AUC 4052  30.647  40.285   7.246
    9AU     AUC 4053  30.666  40.615   7.242
    9AU     AUC 4054  31.189  40.430   7.200
    9AU     AUC 4055  31.193  40.413   7.515
    9AU     AUC 4056  31.172  40.415   7.835
    9AU     AUC 4057  30.137  40.465   7.165
    9AU     AUC 4058  30.103  40.472   7.500
    9AU     AUC 4059  30.116  40.484   7.832
    9AU     AUC 4060  30.353  40.994   7.495
    9AU     AUC 4061  30.683  40.999   7.501
    9AU     AUC 4062  30.999  40.964   7.514
    9AU     AUC 4063  30.287  39.947   7.512
    9AU     AUC 4064  30.608  39.905   7.506
    9AU     AUC 4065  30.930  39.896   7.519
    9AU     AUC 4066  30.625  40.134   8.044
    9AU     AUC 4067  30.644  40.454   8.062
    9AU     AUC 4068  30.661  40.784   8.024
    9AU     AUC 4069  30.658  40.123   6.993
    9AU     AUC 4070  30.684  40.452   6.971
    9AU     AUC 4071  30.686  40.771   6.979
    9AU     AUC 4072  30.910  40.272   7.952
    9AU     AUC 4073  30.939  40.603   7.958
    9AU     AUC 4074  30.932  40.280   7.076
    9AU     AUC 4075  30.955  40.616   7.085
    9AU     AUC 4076  30.356  40.304   7.967
    9AU     AUC 4077  30.376  40.636   7.947
    9AU     AUC 4078  30.382  40.291   7.072
    9AU     AUC 4079  30.396  40.620   7.053
    9AU     AUC 4080  31.110  40.693   7.363
    9AU     AUC 4081  31.105  40.699   7.692
    9AU     AUC 4082  30.226  40.746   7.320
    9AU     AUC 4083  30.220  40.756   7.668
    9AU     AUC 4084  31.076  40.148   7.352
    9AU     AUC 4085  31.060  40.143   7.676
    9AU     AUC 4086  30.187  40.201   7.341
    9AU     AUC 4087  30.185  40.201   7.686
    9AU     AUC 4088  30.506  40.910   7.769
    9AU     AUC 4089  30.848  40.890   7.782
    9AU     AUC 4090  30.443  40.026   7.795
    9AU     AUC 4091  30.770  39.996   7.778
    9AU     AUC 4092  30.507  40.890   7.220
    9AU     AUC 4093  30.841  40.893   7.236
    9AU     AUC 4094  30.457  40.012   7.235
    9AU     AUC 4095  30.791  39.996   7.237
    9AU    AUSL 4096  31.147  40.379   8.135
    9AU    AUSL 4097  30.891  40.012   8.069
    9AU     AUL 4098  31.170  40.015   8.281
    9AU       S 4099  31.213  39.506   8.160
    9AU     LIG 4100  31.142  39.120   8.398
    9AU     LIG 4101  31.365  38.907   8.753
    9AU     LIG 4102  31.674  38.727   9.058
    9AU     LIG 4103  31.990  38.749   9.402
    9AU     LIG 4104  32.125  38.588   9.821
    9AU       S 4105  31.480  40.353   8.509
    9AU     LIG 4106  31.580  40.343   8.971
    9AU     LIG 4107  31.583  40.155   9.399
    9AU     LIG 4108  31.730  39.998   9.809
    9AU     LIG 4109  32.087  40.046  10.110
    9AU     LIG 4110  32.447  40.170  10.391
    9AU    AUSL 4111  30.826  40.285   8.276
    9AU    AUSL 4112  30.481  40.627   8.271
    9AU     AUL 4113  30.720  40.506   8.555
    9AU       S 4114  31.139  40.251   8.721
    9AU     LIG 4115  31.193  39.990   9.093
    9AU     LIG 4116  31.262  39.758   9.489
    9AU     LIG 4117  31.313  39.697   9.943
    9AU     LIG 4118  31.234  39.496  10.359
    9AU     LIG 4119  31.430  39.408  10.772
    9AU       S 4120  30.239  40.553   8.746
    9AU     LIG 4121  30.020  40.479   9.161
    9AU     LIG 4122  29.985  40.255   9.577
    9AU     LIG 4123  29.802  40.293  10.005
    9AU     LIG 4124  29.730  40.635  10.339
    9AU     LIG 4125  29.672  41.017  10.630
    9AU    AUSL 4126  30.812  40.658   8.227
    9AU    AUSL 4127  31.240  40.695   8.008
    9AU     AUL 4128  31.089  40.632   8.371
    9AU       S 4129  30.813  41.031   8.574
    9AU     LIG 4130  31.159  41.084   8.904
    9AU     LIG 4131  31.278  41.193   9.351
    9AU     LIG 4132  31.221  41.249   9.824
    9AU     LIG 4133  31.218  41.198  10.300
    9AU     LIG 4134  31.340  41.102  10.748
    9AU       S 4135  31.525  40.888   8.308
    9AU     LIG 4136  31.940  40.857   8.469
    9AU     LIG 4137  32.201  41.117   8.723
    9AU     LIG 4138  32.606  41.295   8.848
    9AU     LIG 4139  32.889  41.518   9.161
    9AU     LIG 4140  33.078  41.461   9.602
    9AU    AUSL 4141  31.148  40.522   6.890
    9AU    AUSL 4142  30.996  40.870   6.950
    9AU     AUL 4143  31.045  40.860   6.611
    9AU       S 4144  31.332  40.446   6.419
    9AU     LIG 4145  31.583  40.120   6.171
    9AU     LIG 4146  31.663  40.038   5.708
    9AU     LIG 4147  31.769  40.095   5.239
    9AU     LIG 4148  31.983  40.103   4.811
    9AU     LIG 4149  32.393  40.123   4.537
    9AU       S 4150  31.477  41.082   6.735
    9AU     LIG 4151  31.710  41.338   6.389
    9AU     LIG 4152  31.978  41.514   6.020
    9AU     LIG 4153  32.192  41.800   5.706
    9AU     LIG 4154  32.056  42.086   5.341
    9AU     LIG 4155  32.013  42.293   4.898
    9AU    AUSL 4156  30.922  40.269   6.787
    9AU    AUSL 4157  31.178  40.144   7.037
    9AU     AUL 4158  31.399  40.313   6.892
    9AU       S 4159  31.365  39.867   6.640
    9AU     LIG 4160  31.576  39.590   6.289
    9AU     LIG 4161  31.847  39.191   6.185
    9AU     LIG 4162  32.150  38.857   5.985
    9AU     LIG 4163  32.591  38.716   5.822
    9AU     LIG 4164  33.003  38.804   5.567
    9AU       S 4165  31.129  40.214   6.396
    9AU     LIG 4166  31.160  39.846   6.091
    9AU     LIG 4167  31.218  39.800   5.621
    9AU     LIG 4168  31.337  39.829   5.151
    9AU     LIG 4169  31.458  39.887   4.688
    9AU     LIG 4170  31.540  39.695   4.247
    9AU    AUSL 4171  30.840  40.610   6.756
    9AU    AUSL 4172  30.542  40.285   6.802
    9AU     AUL 4173  30.667  40.398   6.506
    9AU       S 4174  30.152  40.284   6.341
    9AU     LIG 4175  30.044  39.908   6.068
    9AU     LIG 4176  29.982  39.765   5.613
    9AU     LIG 4177  29.884  39.761   5.145
    9AU     LIG 4178  29.733  39.583   4.726
    9AU     LIG 4179  29.618  39.429   4.288
    9AU       S 4180  31.108  40.479   6.278
    9AU     LIG 4181  31.216  40.298   5.857
    9AU     LIG 4182  31.303  40.276   5.401
    9AU     LIG 4183  31.409  40.344   4.944
    9AU     LIG 4184  31.496  40.694   4.631
    9AU     LIG 4185  31.521  41.061   4.323
    9AU    AUSL 4186  30.172  40.529   8.153
    9AU    AUSL 4187  30.381  40.899   8.050
    9AU     AUL 4188  30.301  40.890   8.376
    9AU       S 4189  29.976  40.554   8.611
    9AU     LIG 4190  29.766  40.187   8.812
    9AU     LIG 4191  29.643  40.057   9.248
    9AU     LIG 4192  29.428  39.939   9.662
    9AU     LIG 4193  29.154  39.916  10.053
    9AU     LIG 4194  28.768  39.938  10.333
    9AU       S 4195  29.907  41.182   8.226
    9AU     LIG 4196  29.915  41.344   8.666
    9AU     LIG 4197  29.890  41.542   9.085
    9AU     LIG 4198  29.660  41.773   9.412
    9AU     LIG 4199  29.655  41.997   9.833
    9AU     LIG 4200  29.469  42.309  10.134
    9AU    AUSL 4201  30.469  40.273   8.273
    9AU    AUSL 4202  30.048  40.212   7.975
    9AU     AUL 4203  30.122  40.216   8.282
    9AU       S 4204  29.743  39.899   8.298
    9AU     LIG 4205  29.308  39.802   8.285
    9AU     LIG 4206  29.052  39.436   8.383
    9AU     LIG 4207  28.808  39.089   8.594
    9AU     LIG 4208  28.618  38.894   8.980
    9AU     LIG 4209  28.653  38.937   9.448
    9AU       S 4210  30.277  40.288   8.743
    9AU     LIG 4211  30.156  39.990   9.095
    9AU     LIG 4212  30.000  39.752   9.469
    9AU     LIG 4213  29.843  39.773   9.905
    9AU     LIG 4214  29.561  39.681  10.272
    9AU     LIG 4215  29.420  39.511  10.701
    9AU    AUSL 4216  30.227  40.423   6.839
    9AU    AUSL 4217  30.346  40.023   6.937
    9AU     AUL 4218  30.476  40.050   6.624
    9AU       S 4219  29.974  40.413   6.499
    9AU     LIG 4220  29.654  40.175   6.254
    9AU     LIG 4221  29.589  40.038   5.802
    9AU     LIG 4222  29.475  40.004   5.332
    9AU     LIG 4223  29.233  39.967   4.923
    9AU     LIG 4224  28.822  39.961   4.668
    9AU       S 4225  29.976  39.900   6.606
    9AU     LIG 4226  29.623  39.655   6.354
    9AU     LIG 4227  29.339  39.262   6.383
    9AU     LIG 4228  29.140  38.898   6.137
    9AU     LIG 4229  28.986  38.636   5.763
    9AU     LIG 4230  29.005  38.468   5.292
    9AU    AUSL 4231  30.502  40.633   6.760
    9AU    AUSL 4232  30.101  40.737   6.994
    9AU     AUL 4233  30.270  40.803   6.646
    9AU       S 4234  29.779  40.907   6.707
    9AU     LIG 4235  29.463  41.157   6.499
    9AU     LIG 4236  29.392  41.382   6.097
    9AU     LIG 4237  29.267  41.668   5.749
    9AU     LIG 4238  28.885  41.705   5.476
    9AU     LIG 4239  28.749  41.731   5.034
    9AU       S 4240  30.224  40.506   6.258
    9AU     LIG 4241  29.979  40.378   5.866
    9AU     LIG 4242  29.926  40.239   5.415
    9AU     LIG 4243  29.834  40.251   4.945
    9AU     LIG 4244  29.889  40.488   4.514
    9AU     LIG 4245  29.858  40.674   4.060
    9AU    AUSL 4246  31.311  40.852   7.494
    9AU    AUSL 4247  31.287  40.746   7.143
    9AU     AUL 4248  31.366  41.160   7.425
    9AU       S 4249  31.580  40.878   6.907
    9AU     LIG 4250  31.994  41.058   6.734
    9AU     LIG 4251  32.207  41.161   6.327
    9AU     LIG 4252  32.566  41.181   6.036
    9AU     LIG 4253  32.776  41.488   5.757
    9AU     LIG 4254  33.219  41.567   5.624
    9AU       S 4255  31.814  40.924   7.338
    9AU     LIG 4256  32.227  41.180   7.381
    9AU     LIG 4257  32.621  41.482   7.460
    9AU     LIG 4258  33.020  41.624   7.666
    9AU     LIG 4259  33.377  41.732   7.410
    9AU     LIG 4260  33.367  41.981   7.002
    9AU    AUSL 4261  31.441  40.529   7.378
    9AU    AUSL 4262  31.379  40.249   7.661
    9AU     AUL 4263  31.681  40.412   7.753
    9AU       S 4264  31.827  40.605   7.260
    9AU     LIG 4265  32.322  40.656   7.193
    9AU     LIG 4266  32.801  40.486   7.161
    9AU     LIG 4267  33.285  40.467   7.021
    9AU     LIG 4268  33.533  40.774   6.727
    9AU     LIG 4269  34.008  40.844   6.682
    9AU       S 4270  31.833  39.959   7.559
    9AU     LIG 4271  32.248  39.807   7.719
    9AU     LIG 4272  32.513  39.422   7.710
    9AU     LIG 4273  32.941  39.282   7.738
    9AU     LIG 4274  33.361  39.147   7.920
    9AU     LIG 4275  33.806  39.338   7.940
    9AU    AUSL 4276  31.385  40.593   7.713
    9AU    AUSL 4277  31.164  40.992   7.788
    9AU     AUL 4278  31.509  40.905   7.792
    9AU       S 4279  31.496  41.196   8.201
    9AU     LIG 4280  31.946  41.342   8.299
    9AU     LIG 4281  32.340  41.539   8.448
    9AU     LIG 4282  32.531  41.803   8.770
    9AU     LIG 4283  32.623  42.230   8.842
    9AU     LIG 4284  32.706  42.670   8.845
    9AU       S 4285  31.917  40.771   7.509
    9AU     LIG 4286  32.342  40.682   7.712
    9AU     LIG 4287  32.812  40.645   7.762
    9AU     LIG 4288  33.275  40.678   7.883
    9AU     LIG 4289  33.435  41.073   8.122
    9AU     LIG 4290  33.869  41.304   8.093
    9AU    AUSL 4291  30.052  40.964   7.510
    9AU    AUSL 4292  30.060  40.781   7.936
    9AU     AUL 4293  29.747  40.962   7.717
    9AU       S 4294  29.782  40.908   8.241
    9AU     LIG 4295  29.480  41.104   8.527
    9AU     LIG 4296  29.435  41.359   8.916
    9AU     LIG 4297  29.228  41.482   9.321
    9AU     LIG 4298  28.844  41.482   9.610
    9AU     LIG 4299  28.419  41.642   9.738
    9AU       S 4300  29.875  41.412   7.476
    9AU     LIG 4301  29.478  41.698   7.380
    9AU     LIG 4302  29.007  41.807   7.456
    9AU     LIG 4303  28.532  41.961   7.527
    9AU     LIG 4304  28.058  42.078   7.469
    9AU     LIG 4305  27.786  42.478   7.508
    9AU    AUSL 4306  29.953  40.638   7.286
    9AU    AUSL 4307  30.192  41.041   7.203
    9AU     AUL 4308  29.825  40.938   7.223
    9AU       S 4309  29.583  40.516   6.935
    9AU     LIG 4310  29.163  40.744   6.840
    9AU     LIG 4311  28.770  40.956   6.674
    9AU     LIG 4312  28.387  41.215   6.660
    9AU     LIG 4313  27.964  41.227   6.845
    9AU     LIG 4314  27.499  41.342   6.912
    9AU       S 4315  29.895  41.375   6.970
    9AU     LIG 4316  29.584  41.621   6.710
    9AU     LIG 4317  29.499  41.839   6.301
    9AU     LIG 4318  29.545  42.148   5.954
    9AU     LIG 4319  29.391  42.584   5.944
    9AU     LIG 4320  28.964  42.743   5.843
    9AU    AUSL 4321  29.916  40.643   7.662
    9AU    AUSL 4322  29.866  40.316   7.336
    9AU     AUL 4323  29.641  40.674   7.437
    9AU       S 4324  29.396  40.228   7.343
    9AU     LIG 4325  28.979  40.015   7.183
    9AU     LIG 4326  28.555  39.811   7.221
    9AU     LIG 4327  28.108  39.879   7.229
    9AU     LIG 4328  27.684  39.855   7.118
    9AU     LIG 4329  27.251  39.872   7.029
    9AU       S 4330  29.526  40.565   7.983
    9AU     LIG 4331  29.162  40.740   8.265
    9AU     LIG 4332  28.729  40.911   8.421
    9AU     LIG 4333  28.308  41.062   8.544
    9AU     LIG 4334  27.862  41.004   8.387
    9AU     LIG 4335  27.379  41.078   8.280
    9AU    AUSL 4336  31.261  39.938   7.563
    9AU    AUSL 4337  31.192  40.103   7.920
    9AU     AUL 4338  31.513  40.106   7.931
    9AU       S 4339  31.671  39.741   7.588
    9AU     LIG 4340  31.983  39.389   7.571
    9AU     LIG 4341  32.293  39.080   7.391
    9AU     LIG 4342  32.760  39.014   7.312
    9AU     LIG 4343  33.184  38.908   7.482
    9AU     LIG 4344  33.557  38.673   7.354
    9AU       S 4345  31.447  39.617   8.045
    9AU     LIG 4346  31.633  39.287   8.361
    9AU     LIG 4347  31.871  38.979   8.641
    9AU     LIG 4348  32.172  38.719   8.909
    9AU     LIG 4349  32.485  38.850   9.238
    9AU     LIG 4350  32.907  39.005   9.383
    9AU    AUSL 4351  31.379  40.198   7.314
    9AU    AUSL 4352  31.071  39.871   7.244
    9AU     AUL 4353  31.381  39.853   7.193
    9AU       S 4354  31.818  40.068   7.335
    9AU     LIG 4355  32.155  39.741   7.222
    9AU     LIG 4356  32.543  39.483   7.196
    9AU     LIG 4357  33.007  39.480   7.254
    9AU     LIG 4358  33.437  39.589   7.105
    9AU     LIG 4359  33.867  39.422   7.010
    9AU       S 4360  31.327  39.640   6.739
    9AU     LIG 4361  31.523  39.211   6.638
    9AU     LIG 4362  31.727  38.789   6.493
    9AU     LIG 4363  32.027  38.447   6.295
    9AU     LIG 4364  32.458  38.206   6.214
    9AU     LIG 4365  32.871  37.927   6.228
    9AU    AUSL 4366  29.995  40.024   7.513
    9AU    AUSL 4367  30.051  40.205   7.060
    9AU     AUL 4368  29.813  39.937   7.259
    9AU       S 4369  29.777  40.062   6.761
    9AU     LIG 4370  29.335  39.990   6.643
    9AU     LIG 4371  29.017  39.655   6.545
    9AU     LIG 4372  28.816  39.272   6.339
    9AU     LIG 4373  28.641  38.974   5.991
    9AU     LIG 4374  28.297  38.721   5.767
    9AU       S 4375  29.391  40.033   7.509
    9AU     LIG 4376  29.167  39.638   7.512
    9AU     LIG 4377  28.828  39.390   7.317
    9AU     LIG 4378  28.347  39.346   7.311
    9AU     LIG 4379  28.063  39.011   7.481
    9AU     LIG 4380  27.885  38.568   7.449
    9AU    AUSL 4381  29.881  40.309   7.688
    9AU    AUSL 4382  30.135  39.900   7.816
    9AU     AUL 4383  29.800  39.981   7.796
    9AU       S 4384  29.837  39.655   8.171
    9AU     LIG 4385  29.473  39.380   8.046
    9AU     LIG 4386  29.167  39.031   8.086
    9AU     LIG 4387  28.986  38.679   8.331
    9AU     LIG 4388  28.703  38.428   8.611
    9AU     LIG 4389  28.379  38.299   8.921
    9AU       S 4390  29.395  40.248   7.615
    9AU     LIG 4391  28.944  40.376   7.564
    9AU     LIG 4392  28.520  40.230   7.491
    9AU     LIG 4393  28.241  39.895   7.702
    9AU     LIG 4394  27.828  39.778   7.846
    9AU     LIG 4395  27.433  39.654   8.030
    9AU    AUSL 4396  30.683  41.100   7.962
    9AU    AUSL 4397  30.233  41.081   7.791
    9AU     AUL 4398  30.412  41.222   8.151
    9AU       S 4399  29.956  41.384   7.971
    9AU     LIG 4400  29.635  41.586   8.297
    9AU     LIG 4401  29.633  41.797   8.713
    9AU     LIG 4402  29.620  42.220   8.911
    9AU     LIG 4403  29.331  42.585   8.882
    9AU     LIG 4404  28.877  42.541   8.918
    9AU       S 4405  30.716  41.625   8.053
    9AU     LIG 4406  30.974  41.903   8.331
    9AU     LIG 4407  30.928  42.220   8.664
    9AU     LIG 4408  31.021  42.454   9.073
    9AU     LIG 4409  31.047  42.886   9.267
    9AU     LIG 4410  30.848  43.330   9.280
    9AU    AUSL 4411  30.524  41.214   7.653
    9AU    AUSL 4412  30.839  41.231   7.333
    9AU     AUL 4413  30.439  41.463   7.412
    9AU       S 4414  30.571  41.665   7.850
    9AU     LIG 4415  30.624  42.138   8.016
    9AU     LIG 4416  30.613  42.633   8.060
    9AU     LIG 4417  30.765  43.063   8.214
    9AU     LIG 4418  30.538  43.411   8.438
    9AU     LIG 4419  30.388  43.853   8.397
    9AU       S 4420  30.913  41.651   7.220
    9AU     LIG 4421  31.149  42.060   7.129
    9AU     LIG 4422  31.071  42.495   6.981
    9AU     LIG 4423  31.184  42.877   6.739
    9AU     LIG 4424  31.394  43.299   6.641
    9AU     LIG 4425  31.683  43.698   6.650
    9AU    AUSL 4426  30.887  41.191   7.673
    9AU    AUSL 4427  30.965  40.915   8.072
    9AU     AUL 4428  31.034  41.249   7.992
    9AU       S 4429  31.295  41.102   8.407
    9AU     LIG 4430  31.650  41.231   8.707
    9AU     LIG 4431  31.980  41.576   8.819
    9AU     LIG 4432  32.192  41.825   9.164
    9AU     LIG 4433  32.109  42.013   9.581
    9AU     LIG 4434  32.080  42.309   9.937
    9AU       S 4435  30.873  41.657   7.729
    9AU     LIG 4436  31.113  42.066   7.866
    9AU     LIG 4437  31.056  42.414   8.193
    9AU     LIG 4438  31.304  42.802   8.308
    9AU     LIG 4439  31.304  43.280   8.357
    9AU     LIG 4440  31.343  43.709   8.561
    9AU    AUSL 4441  30.623  39.812   7.974
    9AU    AUSL 4442  31.006  39.822   7.809
    9AU     AUL 4443  30.817  39.790   8.260
    9AU       S 4444  30.753  39.318   8.062
    9AU     LIG 4445  30.647  38.964   8.341
    9AU     LIG 4446  30.423  38.574   8.431
    9AU     LIG 4447  30.336  38.147   8.589
    9AU     LIG 4448  30.521  37.797   8.867
    9AU     LIG 4449  30.457  37.399   9.105
    9AU       S 4450  31.242  39.508   7.884
    9AU     LIG 4451  31.387  39.070   7.954
    9AU     LIG 4452  31.541  38.767   8.292
    9AU     LIG 4453  31.769  38.463   8.608
    9AU     LIG 4454  32.076  38.085   8.658
    9AU     LIG 4455  32.531  38.108   8.676
    9AU    AUSL 4456  30.416  39.758   7.690
    9AU    AUSL 4457  30.343  39.993   8.096
    9AU     AUL 4458  30.316  39.628   8.007
    9AU       S 4459  30.582  39.199   7.870
    9AU     LIG 4460  30.396  38.750   7.933
    9AU     LIG 4461  30.227  38.290   8.052
    9AU     LIG 4462  29.963  37.943   8.255
    9AU     LIG 4463  29.905  37.493   8.257
    9AU     LIG 4464  29.833  37.139   8.517
    9AU       S 4465  30.007  39.737   8.413
    9AU     LIG 4466  29.596  39.450   8.553
    9AU     LIG 4467  29.329  39.043   8.583
    9AU     LIG 4468  29.084  38.712   8.840
    9AU     LIG 4469  28.864  38.497   9.210
    9AU     LIG 4470  28.827  38.504   9.686
    9AU    AUSL 4471  30.734  39.663   7.664
    9AU    AUSL 4472  30.419  39.702   7.337
    9AU     AUL 4473  30.291  39.499   7.604
    9AU       S 4474  30.445  39.223   7.203
    9AU     LIG 4475  30.182  38.828   7.050
    9AU     LIG 4476  29.935  38.423   6.925
    9AU     LIG 4477  29.609  38.071   6.818
    9AU     LIG 4478  29.696  37.621   6.796
    9AU     LIG 4479  29.829  37.285   6.547
    9AU       S 4480  30.825  39.282   7.772
    9AU     LIG 4481  30.921  38.825   7.932
    9AU     LIG 4482  30.748  38.379   8.054
    9AU     LIG 4483  30.784  37.883   8.033
    9AU     LIG 4484  30.840  37.418   8.146
    9AU     LIG 4485  31.009  37.042   8.373
    9AU    AUSL 4486  30.713  41.083   7.007
    9AU    AUSL 4487  31.103  41.011   7.256
    9AU     AUL 4488  31.045  41.213   6.995
    9AU       S 4489  30.770  41.585   6.829
    9AU     LIG 4490  31.067  41.893   6.648
    9AU     LIG 4491  30.998  42.320   6.498
    9AU     LIG 4492  30.870  42.737   6.333
    9AU     LIG 4493  30.831  43.043   5.980
    9AU     LIG 4494  30.623  43.364   5.693
    9AU       S 4495  31.560  41.188   6.968
    9AU     LIG 4496  31.834  41.552   6.845
    9AU     LIG 4497  32.132  41.649   6.501
    9AU     LIG 4498  32.452  41.665   6.159
    9AU     LIG 4499  32.631  42.014   5.924
    9AU     LIG 4500  32.680  42.492   6.048
    9AU    AUSL 4501  30.510  41.150   7.293
    9AU    AUSL 4502  30.405  40.921   6.947
    9AU     AUL 4503  30.395  41.269   6.977
    9AU       S 4504  30.701  41.685   7.058
    9AU     LIG 4505  30.687  42.121   6.904
    9AU     LIG 4506  30.608  42.543   6.754
    9AU     LIG 4507  30.607  42.985   6.744
    9AU     LIG 4508  30.348  43.339   6.627
    9AU     LIG 4509  30.474  43.767   6.619
    9AU       S 4510  29.957  41.196   6.711
    9AU     LIG 4511  29.864  41.447   6.305
    9AU     LIG 4512  29.775  41.682   5.881
    9AU     LIG 4513  29.763  41.978   5.483
    9AU     LIG 4514  29.750  42.244   5.067
    9AU     LIG 4515  29.392  42.348   4.742
    9AU    AUSL 4516  30.609  39.796   7.041
    9AU    AUSL 4517  30.163  39.906   7.219
    9AU     AUL 4518  30.278  39.663   6.984
    9AU       S 4519  29.824  39.781   6.788
    9AU     LIG 4520  29.436  39.532   6.849
    9AU     LIG 4521  29.095  39.223   6.846
    9AU     LIG 4522  28.932  38.853   6.612
    9AU     LIG 4523  28.761  38.559   6.273
    9AU     LIG 4524  28.441  38.284   6.045
    9AU       S 4525  30.600  39.265   6.962
    9AU     LIG 4526  30.532  38.883   6.682
    9AU     LIG 4527  30.334  38.455   6.566
    9AU     LIG 4528  30.337  38.074   6.262
    9AU     LIG 4529  30.301  37.751   5.921
    9AU     LIG 4530  30.357  37.336   5.687
    9AU    AUSL 4531  30.781  39.694   7.335
    9AU    AUSL 4532  30.892  39.960   6.933
    9AU     AUL 4533  30.953  39.611   7.060
    9AU       S 4534  30.714  39.224   7.288
    9AU     LIG 4535  30.679  38.763   7.168
    9AU     LIG 4536  30.444  38.356   7.063
    9AU     LIG 4537  30.541  37.903   6.999
    9AU     LIG 4538  30.731  37.507   6.825
    9AU     LIG 4539  30.723  37.217   6.468
    9AU       S 4540  31.067  39.769   6.589
    9AU     LIG 4541  31.104  39.381   6.350
    9AU     LIG 4542  31.356  39.035   6.183
    9AU     LIG 4543  31.646  38.730   5.986
    9AU     LIG 4544  31.844  38.591   5.593
    9AU     LIG 4545  32.018  38.527   5.146
   10AU     AUC 4546  22.129   8.392   7.510
   10AU     AUC 4547  22.403   8.377   7.356
   10AU     AUC 4548  22.393   8.378   7.682
   10AU     AUC 4549  21.866   8.405   7.335
   10AU     AUC 4550  21.858   8.408   7.668
   10AU     AUC 4551  21.979   8.668   7.498
   10AU     AUC 4552  22.310   8.652   7.514
   10AU     AUC 4553  21.944   8.133   7.508
   10AU     AUC 4554  22.275   8.113   7.513
   10AU     AUC 4555  22.112   8.228   7.780
   10AU     AUC 4556  22.134   8.559   7.776
   10AU     AUC 4557  22.128   8.225   7.245
   10AU     AUC 4558  22.150   8.556   7.238
   10AU     AUC 4559  22.675   8.371   7.216
   10AU     AUC 4560  22.672   8.357   7.523
   10AU     AUC 4561  22.648   8.360   7.845
   10AU     AUC 4562  21.617   8.408   7.159
   10AU     AUC 4563  21.585   8.417   7.492
   10AU     AUC 4564  21.602   8.429   7.821
   10AU     AUC 4565  21.836   8.936   7.485
   10AU     AUC 4566  22.163   8.938   7.499
   10AU     AUC 4567  22.478   8.907   7.522
   10AU     AUC 4568  21.762   7.886   7.508
   10AU     AUC 4569  22.092   7.846   7.503
   10AU     AUC 4570  22.416   7.837   7.522
   10AU     AUC 4571  22.099   8.070   8.045
   10AU     AUC 4572  22.116   8.392   8.062
   10AU     AUC 4573  22.134   8.721   8.024
   10AU     AUC 4574  22.139   8.064   6.994
   10AU     AUC 4575  22.171   8.394   6.966
   10AU     AUC 4576  22.180   8.709   6.972
   10AU     AUC 4577  22.384   8.213   7.957
   10AU     AUC 4578  22.413   8.544   7.962
   10AU     AUC 4579  22.410   8.213   7.086
   10AU     AUC 4580  22.441   8.563   7.091
   10AU     AUC 4581  21.844   8.243   7.958
   10AU     AUC 4582  21.852   8.574   7.943
   10AU     AUC 4583  21.862   8.233   7.070
   10AU     AUC 4584  21.882   8.560   7.044
   10AU     AUC 4585  22.594   8.638   7.370
   10AU     AUC 4586  22.582   8.646   7.698
   10AU     AUC 4587  21.707   8.689   7.311
   10AU     AUC 4588  21.700   8.699   7.659
   10AU     AUC 4589  22.560   8.087   7.359
   10AU     AUC 4590  22.542   8.086   7.682
   10AU     AUC 4591  21.660   8.140   7.339
   10AU     AUC 4592  21.669   8.138   7.673
   10AU     AUC 4593  21.981   8.849   7.765
   10AU     AUC 4594  22.324   8.830   7.784
   10AU     AUC 4595  21.925   7.963   7.790
   10AU     AUC 4596  22.255   7.937   7.779
   10AU     AUC 4597  21.992   8.829   7.213
   10AU     AUC 4598  22.326   8.832   7.234
   10AU     AUC 4599  21.934   7.954   7.234
   10AU     AUC 4600  22.274   7.935   7.240
   10AU    AUSL 4601  22.609   8.323   8.149
   10AU    AUSL 4602  22.374   7.955   8.077
   10AU     AUL 4603  22.656   7.957   8.283
   10AU       S 4604  22.713   7.451   8.172
   10AU     LIG 4605  22.723   7.044   8.414
   10AU     LIG 4606  22.904   6.696   8.673
   10AU     LIG 4607  23.178   6.534   9.006
   10AU     LIG 4608  23.228   6.502   9.471
   10AU     LIG 4609  23.317   6.537   9.937
   10AU       S 4610  22.936   8.290   8.541
   10AU     LIG 4611  23.049   8.246   8.993
   10AU     LIG 4612  23.105   8.026   9.408
   10AU     LIG 4613  23.370   8.004   9.806
   10AU     LIG 4614  23.676   8.208  10.128
   10AU     LIG 4615  23.987   8.338  10.480
   10AU    AUSL 4616  22.279   8.222   8.283
   10AU    AUSL 4617  21.955   8.563   8.267
   10AU     AUL 4618  22.196   8.464   8.560
   10AU       S 4619  22.587   8.176   8.729
   10AU     LIG 4620  22.661   7.926   9.123
   10AU     LIG 4621  22.729   7.663   9.510
   10AU     LIG 4622  22.796   7.461   9.937
   10AU     LIG 4623  22.894   7.391  10.395
   10AU     LIG 4624  22.798   7.468  10.861
   10AU       S 4625  21.713   8.470   8.735
   10AU     LIG 4626  21.573   8.410   9.182
   10AU     LIG 4627  21.575   8.183   9.602
   10AU     LIG 4628  21.495   8.189  10.062
   10AU     LIG 4629  21.533   8.495  10.417
   10AU     LIG 4630  21.475   8.932  10.596
   10AU    AUSL 4631  22.288   8.592   8.228
   10AU    AUSL 4632  22.716   8.637   8.020
   10AU     AUL 4633  22.565   8.584   8.386
   10AU       S 4634  22.278   8.989   8.567
   10AU     LIG 4635  22.560   9.168   8.916
   10AU     LIG 4636  22.659   9.101   9.389
   10AU     LIG 4637  22.649   9.113   9.890
   10AU     LIG 4638  22.715   9.087  10.378
   10AU     LIG 4639  22.890   9.039  10.824
   10AU       S 4640  22.984   8.863   8.318
   10AU     LIG 4641  23.398   8.870   8.465
   10AU     LIG 4642  23.633   9.148   8.735
   10AU     LIG 4643  23.826   9.426   9.041
   10AU     LIG 4644  24.110   9.524   9.405
   10AU     LIG 4645  24.460   9.476   9.731
   10AU    AUSL 4646  22.616   8.424   6.940
   10AU    AUSL 4647  22.512   8.809   6.930
   10AU     AUL 4648  22.881   8.588   6.831
   10AU       S 4649  22.734   8.418   6.383
   10AU     LIG 4650  23.045   8.287   6.066
   10AU     LIG 4651  23.132   8.033   5.685
   10AU     LIG 4652  23.240   8.007   5.221
   10AU     LIG 4653  23.645   7.989   4.933
   10AU     LIG 4654  23.997   8.170   4.648
   10AU       S 4655  22.807   9.060   6.643
   10AU     LIG 4656  23.044   9.170   6.252
   10AU     LIG 4657  23.287   9.510   6.031
   10AU     LIG 4658  23.536   9.672   5.672
   10AU     LIG 4659  23.649   9.811   5.237
   10AU     LIG 4660  23.578  10.107   4.862
   10AU    AUSL 4661  22.398   8.206   6.781
   10AU    AUSL 4662  22.664   8.077   7.049
   10AU     AUL 4663  22.866   8.218   6.844
   10AU       S 4664  22.817   7.773   6.622
   10AU     LIG 4665  23.074   7.431   6.351
   10AU     LIG 4666  23.383   7.048   6.356
   10AU     LIG 4667  23.766   6.793   6.189
   10AU     LIG 4668  24.144   6.887   5.891
   10AU     LIG 4669  24.437   6.950   5.510
   10AU       S 4670  22.624   8.185   6.377
   10AU     LIG 4671  22.712   7.896   6.018
   10AU     LIG 4672  22.709   7.766   5.554
   10AU     LIG 4673  22.759   7.804   5.080
   10AU     LIG 4674  22.880   7.701   4.619
   10AU     LIG 4675  23.099   7.548   4.212
   10AU    AUSL 4676  22.341   8.563   6.754
   10AU    AUSL 4677  22.025   8.225   6.802
   10AU     AUL 4678  22.160   8.321   6.505
   10AU       S 4679  21.656   8.215   6.332
   10AU     LIG 4680  21.611   7.824   6.082
   10AU     LIG 4681  21.588   7.686   5.639
   10AU     LIG 4682  21.384   7.622   5.231
   10AU     LIG 4683  21.101   7.602   4.848
   10AU     LIG 4684  21.110   7.622   4.367
   10AU       S 4685  22.562   8.605   6.366
   10AU     LIG 4686  22.571   8.403   5.900
   10AU     LIG 4687  22.738   8.273   5.463
   10AU     LIG 4688  22.839   8.316   4.997
   10AU     LIG 4689  22.772   8.598   4.598
   10AU     LIG 4690  22.890   8.986   4.327
   10AU    AUSL 4691  21.645   8.461   8.148
   10AU    AUSL 4692  21.851   8.836   8.047
   10AU     AUL 4693  21.771   8.825   8.372
   10AU       S 4694  21.465   8.481   8.603
   10AU     LIG 4695  21.255   8.163   8.857
   10AU     LIG 4696  21.195   8.034   9.293
   10AU     LIG 4697  21.080   8.051   9.751
   10AU     LIG 4698  20.702   8.061  10.037
   10AU     LIG 4699  20.264   8.229  10.153
   10AU       S 4700  21.372   9.118   8.214
   10AU     LIG 4701  21.395   9.236   8.657
   10AU     LIG 4702  21.348   9.512   9.008
   10AU     LIG 4703  21.088   9.574   9.375
   10AU     LIG 4704  21.014   9.845   9.740
   10AU     LIG 4705  20.993  10.293   9.879
   10AU    AUSL 4706  21.909   8.209   8.261
   10AU    AUSL 4707  21.588   8.150   7.952
   10AU     AUL 4708  21.506   8.133   8.252
   10AU       S 4709  21.281   7.666   8.237
   10AU     LIG 4710  20.852   7.403   8.176
   10AU     LIG 4711  20.433   7.175   8.227
   10AU     LIG 4712  20.246   6.966   8.586
   10AU     LIG 4713  19.838   7.021   8.820
   10AU     LIG 4714  19.775   7.077   9.271
   10AU       S 4715  21.750   8.202   8.687
   10AU     LIG 4716  21.672   7.924   9.058
   10AU     LIG 4717  21.555   7.693   9.442
   10AU     LIG 4718  21.432   7.700   9.884
   10AU     LIG 4719  21.199   7.781  10.279
   10AU     LIG 4720  21.084   7.690  10.734
   10AU    AUSL 4721  21.711   8.364   6.833
   10AU    AUSL 4722  21.823   7.965   6.941
   10AU     AUL 4723  21.964   7.982   6.633
   10AU       S 4724  21.477   8.327   6.471
   10AU     LIG 4725  21.178   8.053   6.211
   10AU     LIG 4726  21.134   7.903   5.751
   10AU     LIG 4727  20.954   7.889   5.295
   10AU     LIG 4728  20.637   7.869   4.925
   10AU     LIG 4729  20.332   8.130   4.649
   10AU       S 4730  21.471   7.817   6.600
   10AU     LIG 4731  21.292   7.387   6.406
   10AU     LIG 4732  21.029   6.985   6.434
   10AU     LIG 4733  20.867   6.704   6.105
   10AU     LIG 4734  20.939   6.765   5.633
   10AU     LIG 4735  20.779   6.715   5.170
   10AU    AUSL 4736  21.997   8.572   6.744
   10AU    AUSL 4737  21.583   8.684   6.990
   10AU     AUL 4738  21.727   8.733   6.647
   10AU       S 4739  21.252   8.915   6.703
   10AU     LIG 4740  20.943   9.219   6.471
   10AU     LIG 4741  20.873   9.344   6.014
   10AU     LIG 4742  20.539   9.366   5.664
   10AU     LIG 4743  20.153   9.495   5.397
   10AU     LIG 4744  19.857   9.571   5.009
   10AU       S 4745  21.737   8.448   6.242
   10AU     LIG 4746  21.501   8.271   5.847
   10AU     LIG 4747  21.444   8.135   5.389
   10AU     LIG 4748  21.530   8.299   4.941
   10AU     LIG 4749  21.591   8.615   4.570
   10AU     LIG 4750  21.526   9.008   4.293
   10AU    AUSL 4751  22.795   8.811   7.503
   10AU    AUSL 4752  22.776   8.704   7.153
   10AU     AUL 4753  22.849   9.119   7.390
   10AU       S 4754  23.076   9.026   6.928
   10AU     LIG 4755  23.361   8.955   6.609
   10AU     LIG 4756  23.578   9.172   6.287
   10AU     LIG 4757  23.831   9.424   6.009
   10AU     LIG 4758  24.035   9.500   5.594
   10AU     LIG 4759  24.446   9.522   5.368
   10AU       S 4760  23.299   8.869   7.346
   10AU     LIG 4761  23.803   8.966   7.350
   10AU     LIG 4762  24.279   9.024   7.497
   10AU     LIG 4763  24.729   9.222   7.507
   10AU     LIG 4764  24.884   9.622   7.677
   10AU     LIG 4765  25.067  10.061   7.781
   10AU    AUSL 4766  22.920   8.479   7.387
   10AU    AUSL 4767  22.861   8.198   7.669
   10AU     AUL 4768  23.151   8.372   7.775
   10AU       S 4769  23.293   8.551   7.265
   10AU     LIG 4770  23.754   8.466   7.203
   10AU     LIG 4771  24.201   8.658   7.156
   10AU     LIG 4772  24.664   8.850   7.159
   10AU     LIG 4773  25.128   9.012   7.102
   10AU     LIG 4774  25.484   9.172   6.796
   10AU       S 4775  23.327   7.930   7.570
   10AU     LIG 4776  23.699   7.711   7.776
   10AU     LIG 4777  23.951   7.335   7.925
   10AU     LIG 4778  24.434   7.289   7.883
   10AU     LIG 4779  24.930   7.267   7.897
   10AU     LIG 4780  25.381   7.407   7.964
   10AU    AUSL 4781  22.852   8.542   7.717
   10AU    AUSL 4782  22.645   8.936   7.799
   10AU     AUL 4783  22.994   8.840   7.808
   10AU       S 4784  22.959   9.168   8.193
   10AU     LIG 4785  23.293   9.378   8.423
   10AU     LIG 4786  23.531   9.695   8.680
   10AU     LIG 4787  23.735  10.109   8.816
   10AU     LIG 4788  24.061  10.471   8.731
   10AU     LIG 4789  24.420  10.803   8.723
   10AU       S 4790  23.391   8.708   7.507
   10AU     LIG 4791  23.806   8.581   7.695
   10AU     LIG 4792  24.264   8.516   7.653
   10AU     LIG 4793  24.673   8.721   7.672
   10AU     LIG 4794  25.097   8.894   7.742
   10AU     LIG 4795  25.500   9.093   7.892
   10AU    AUSL 4796  21.540   8.912   7.497
   10AU    AUSL 4797  21.535   8.716   7.927
   10AU     AUL 4798  21.239   8.912   7.699
   10AU       S 4799  21.253   8.846   8.228
   10AU     LIG 4800  20.935   9.074   8.493
   10AU     LIG 4801  20.887   9.392   8.814
   10AU     LIG 4802  20.614   9.441   9.188
   10AU     LIG 4803  20.158   9.420   9.296
   10AU     LIG 4804  19.751   9.572   9.483
   10AU       S 4805  21.344   9.364   7.479
   10AU     LIG 4806  20.867   9.508   7.592
   10AU     LIG 4807  20.438   9.651   7.780
   10AU     LIG 4808  20.062   9.926   7.609
   10AU     LIG 4809  19.740  10.144   7.304
   10AU     LIG 4810  19.279  10.230   7.414
   10AU    AUSL 4811  21.426   8.581   7.274
   10AU    AUSL 4812  21.679   8.986   7.188
   10AU     AUL 4813  21.308   8.887   7.220
   10AU       S 4814  21.070   8.500   6.906
   10AU     LIG 4815  20.726   8.912   6.839
   10AU     LIG 4816  20.333   9.226   6.701
   10AU     LIG 4817  19.827   9.356   6.779
   10AU     LIG 4818  19.332   9.509   6.773
   10AU     LIG 4819  18.879   9.667   6.703
   10AU       S 4820  21.414   9.331   6.980
   10AU     LIG 4821  21.186   9.625   6.695
   10AU     LIG 4822  21.013   9.784   6.288
   10AU     LIG 4823  20.940  10.181   6.037
   10AU     LIG 4824  20.596  10.498   6.037
   10AU     LIG 4825  20.280  10.857   6.086
   10AU    AUSL 4826  21.393   8.593   7.644
   10AU    AUSL 4827  21.345   8.259   7.337
   10AU     AUL 4828  21.105   8.590   7.419
   10AU       S 4829  20.860   8.114   7.444
   10AU     LIG 4830  20.435   7.809   7.488
   10AU     LIG 4831  19.976   7.616   7.498
   10AU     LIG 4832  19.573   7.662   7.257
   10AU     LIG 4833  19.230   7.389   7.047
   10AU     LIG 4834  18.760   7.329   6.995
   10AU       S 4835  20.978   8.545   7.945
   10AU     LIG 4836  20.743   9.007   8.027
   10AU     LIG 4837  20.525   9.406   8.237
   10AU     LIG 4838  20.036   9.465   8.397
   10AU     LIG 4839  19.534   9.497   8.470
   10AU     LIG 4840  19.025   9.442   8.494
   10AU    AUSL 4841  22.748   7.884   7.571
   10AU    AUSL 4842  22.672   8.052   7.926
   10AU     AUL 4843  22.994   8.055   7.941
   10AU       S 4844  23.175   7.701   7.595
   10AU     LIG 4845  23.513   7.393   7.429
   10AU     LIG 4846  23.918   7.141   7.452
   10AU     LIG 4847  24.135   6.876   7.762
   10AU     LIG 4848  24.490   6.595   7.762
   10AU     LIG 4849  24.800   6.520   7.451
   10AU       S 4850  22.936   7.566   8.037
   10AU     LIG 4851  23.188   7.239   8.267
   10AU     LIG 4852  23.331   6.969   8.627
   10AU     LIG 4853  23.639   6.755   8.915
   10AU     LIG 4854  24.066   6.703   9.121
   10AU     LIG 4855  24.477   6.473   9.207
   10AU    AUSL 4856  22.864   8.146   7.322
   10AU    AUSL 4857  22.558   7.804   7.252
   10AU     AUL 4858  22.875   7.800   7.204
   10AU       S 4859  23.304   8.033   7.345
   10AU     LIG 4860  23.720   7.824   7.236
   10AU     LIG 4861  24.005   7.495   7.075
   10AU     LIG 4862  24.395   7.263   7.159
   10AU     LIG 4863  24.842   7.372   7.030
   10AU     LIG 4864  25.285   7.374   6.866
   10AU       S 4865  22.822   7.573   6.761
   10AU     LIG 4866  22.985   7.124   6.761
   10AU     LIG 4867  23.165   6.690   6.663
   10AU     LIG 4868  23.428   6.385   6.433
   10AU     LIG 4869  23.767   6.254   6.177
   10AU     LIG 4870  24.160   6.054   6.222
   10AU    AUSL 4871  21.452   7.956   7.527
   10AU    AUSL 4872  21.529   8.153   7.051
   10AU     AUL 4873  21.277   7.922   7.229
   10AU       S 4874  21.261   7.982   6.725
   10AU     LIG 4875  20.895   7.706   6.539
   10AU     LIG 4876  20.649   7.299   6.589
   10AU     LIG 4877  20.476   6.945   6.355
   10AU     LIG 4878  20.060   6.897   6.128
   10AU     LIG 4879  19.613   6.839   5.953
   10AU       S 4880  20.933   7.861   7.590
   10AU     LIG 4881  20.772   7.426   7.664
   10AU     LIG 4882  20.352   7.251   7.639
   10AU     LIG 4883  19.913   7.179   7.743
   10AU     LIG 4884  19.552   6.944   7.837
   10AU     LIG 4885  19.298   6.787   7.515
   10AU    AUSL 4886  21.374   8.261   7.689
   10AU    AUSL 4887  21.616   7.824   7.802
   10AU     AUL 4888  21.304   8.018   7.893
   10AU       S 4889  21.330   7.515   8.016
   10AU     LIG 4890  21.152   7.093   7.880
   10AU     LIG 4891  20.736   6.940   7.910
   10AU     LIG 4892  20.547   6.649   8.208
   10AU     LIG 4893  20.399   6.453   8.568
   10AU     LIG 4894  20.399   6.189   8.932
   10AU       S 4895  20.880   8.150   7.647
   10AU     LIG 4896  20.411   8.311   7.623
   10AU     LIG 4897  19.996   8.119   7.497
   10AU     LIG 4898  19.582   7.936   7.695
   10AU     LIG 4899  19.147   7.788   7.871
   10AU     LIG 4900  18.718   7.605   7.995
   10AU    AUSL 4901  22.150   9.035   7.962
   10AU    AUSL 4902  21.711   9.023   7.785
   10AU     AUL 4903  21.878   9.161   8.148
   10AU       S 4904  21.418   9.328   7.977
   10AU     LIG 4905  21.124   9.544   8.338
   10AU     LIG 4906  21.124   9.883   8.699
   10AU     LIG 4907  21.110  10.376   8.802
   10AU     LIG 4908  20.851  10.802   8.742
   10AU     LIG 4909  20.375  10.965   8.803
   10AU       S 4910  22.184   9.558   8.051
   10AU     LIG 4911  22.393   9.739   8.413
   10AU     LIG 4912  22.222  10.073   8.673
   10AU     LIG 4913  22.313  10.516   8.763
   10AU     LIG 4914  22.153  10.911   8.967
   10AU     LIG 4915  21.990  11.349   9.020
   10AU    AUSL 4916  22.005   9.151   7.646
   10AU    AUSL 4917  22.310   9.175   7.351
   10AU     AUL 4918  21.902   9.396   7.417
   10AU       S 4919  22.067   9.603   7.839
   10AU     LIG 4920  22.088  10.043   8.065
   10AU     LIG 4921  22.030  10.431   8.331
   10AU     LIG 4922  22.085  10.879   8.451
   10AU     LIG 4923  21.950  11.310   8.505
   10AU     LIG 4924  21.875  11.725   8.682
   10AU       S 4925  22.372   9.600   7.238
   10AU     LIG 4926  22.542   9.969   7.049
   10AU     LIG 4927  22.786  10.217   6.781
   10AU     LIG 4928  22.934  10.656   6.753
   10AU     LIG 4929  23.117  11.019   6.504
   10AU     LIG 4930  22.894  11.432   6.467
   10AU    AUSL 4931  22.367   9.129   7.685
   10AU    AUSL 4932  22.435   8.852   8.074
   10AU     AUL 4933  22.491   9.177   8.010
   10AU       S 4934  22.763   9.064   8.421
   10AU     LIG 4935  23.055   9.087   8.783
   10AU     LIG 4936  23.275   9.396   9.017
   10AU     LIG 4937  23.472   9.761   9.210
   10AU     LIG 4938  23.536   9.912   9.645
   10AU     LIG 4939  23.425  10.198  10.006
   10AU       S 4940  22.372   9.594   7.748
   10AU     LIG 4941  22.741   9.797   8.029
   10AU     LIG 4942  22.989  10.221   8.082
   10AU     LIG 4943  23.130  10.630   8.307
   10AU     LIG 4944  23.006  11.059   8.533
   10AU     LIG 4945  22.841  11.537   8.602
   10AU    AUSL 4946  22.115   7.753   7.968
   10AU    AUSL 4947  22.492   7.765   7.816
   10AU     AUL 4948  22.301   7.720   8.258
   10AU       S 4949  22.262   7.248   8.053
   10AU     LIG 4950  22.116   6.885   8.310
   10AU     LIG 4951  21.921   6.458   8.247
   10AU     LIG 4952  21.991   6.010   8.390
   10AU     LIG 4953  21.896   5.625   8.661
   10AU     LIG 4954  21.727   5.678   9.095
   10AU       S 4955  22.731   7.452   7.891
   10AU     LIG 4956  22.866   7.003   7.931
   10AU     LIG 4957  23.131   6.698   8.205
   10AU     LIG 4958  23.398   6.451   8.534
   10AU     LIG 4959  23.713   6.145   8.726
   10AU     LIG 4960  24.175   6.127   8.915
   10AU    AUSL 4961  21.909   7.701   7.681
   10AU    AUSL 4962  21.824   7.916   8.092
   10AU     AUL 4963  21.832   7.559   7.987
   10AU       S 4964  22.087   7.129   7.855
   10AU     LIG 4965  21.698   6.872   7.996
   10AU     LIG 4966  21.454   6.476   7.922
   10AU     LIG 4967  21.289   6.023   7.833
   10AU     LIG 4968  21.214   5.648   8.129
   10AU     LIG 4969  21.483   5.380   8.418
   10AU       S 4970  21.506   7.611   8.361
   10AU     LIG 4971  21.252   7.161   8.391
   10AU     LIG 4972  20.814   6.978   8.532
   10AU     LIG 4973  20.587   6.774   8.921
   10AU     LIG 4974  20.460   6.746   9.378
   10AU     LIG 4975  20.482   6.718   9.863
   10AU    AUSL 4976  22.227   7.601   7.662
   10AU    AUSL 4977  21.898   7.647   7.332
   10AU     AUL 4978  21.793   7.433   7.599
   10AU       S 4979  21.934   7.164   7.189
   10AU     LIG 4980  21.771   6.737   7.113
   10AU     LIG 4981  21.520   6.373   7.047
   10AU     LIG 4982  21.283   6.008   6.934
   10AU     LIG 4983  21.394   5.599   6.750
   10AU     LIG 4984  21.513   5.270   6.476
   10AU       S 4985  22.327   7.211   7.758
   10AU     LIG 4986  22.402   6.723   7.916
   10AU     LIG 4987  22.315   6.217   7.973
   10AU     LIG 4988  22.220   5.728   8.043
   10AU     LIG 4989  22.498   5.356   8.209
   10AU     LIG 4990  22.757   5.108   8.515
   10AU    AUSL 4991  22.207   9.008   7.002
   10AU    AUSL 4992  22.570   8.949   7.265
   10AU     AUL 4993  22.505   9.153   7.045
   10AU       S 4994  22.281   9.531   6.830
   10AU     LIG 4995  22.383   9.890   6.558
   10AU     LIG 4996  22.637  10.150   6.297
   10AU     LIG 4997  22.664  10.592   6.155
   10AU     LIG 4998  22.484  10.817   5.777
   10AU     LIG 4999  22.181  10.948   5.427
   10AU       S 5000  22.963   9.222   6.887
   10AU     LIG 5001  23.253   9.467   6.609
   10AU     LIG 5002  23.589   9.687   6.407
   10AU     LIG 5003  23.928   9.913   6.192
   10AU     LIG 5004  23.987  10.382   6.153
   10AU     LIG 5005  24.063  10.846   6.207
   10AU    AUSL 5006  21.992   9.095   7.277
   10AU    AUSL 5007  21.895   8.853   6.936
   10AU     AUL 5008  21.904   9.190   6.937
   10AU       S 5009  22.161   9.618   7.057
   10AU     LIG 5010  22.059  10.041   6.922
   10AU     LIG 5011  22.295  10.403   6.735
   10AU     LIG 5012  22.163  10.866   6.705
   10AU     LIG 5013  22.199  11.344   6.674
   10AU     LIG 5014  22.015  11.751   6.485
   10AU       S 5015  21.455   9.161   6.700
   10AU     LIG 5016  21.376   9.392   6.271
   10AU     LIG 5017  21.280   9.628   5.860
   10AU     LIG 5018  21.379   9.670   5.391
   10AU     LIG 5019  21.390   9.920   4.994
   10AU     LIG 5020  21.197  10.334   4.888
   10AU    AUSL 5021  22.090   7.741   7.038
   10AU    AUSL 5022  21.630   7.848   7.223
   10AU     AUL 5023  21.762   7.608   6.992
   10AU       S 5024  21.313   7.692   6.794
   10AU     LIG 5025  21.073   7.293   6.883
   10AU     LIG 5026  20.810   6.902   6.917
   10AU     LIG 5027  20.669   6.561   6.664
   10AU     LIG 5028  20.513   6.149   6.598
   10AU     LIG 5029  20.334   5.930   6.224
   10AU       S 5030  22.083   7.216   6.946
   10AU     LIG 5031  21.959   6.900   6.650
   10AU     LIG 5032  21.711   6.522   6.607
   10AU     LIG 5033  21.719   6.047   6.662
   10AU     LIG 5034  21.892   5.667   6.442
   10AU     LIG 5035  22.145   5.648   6.047
   10AU    AUSL 5036  22.260   7.635   7.332
   10AU    AUSL 5037  22.377   7.902   6.938
   10AU     AUL 5038  22.431   7.558   7.057
   10AU       S 5039  22.199   7.162   7.272
   10AU     LIG 5040  22.265   6.731   7.048
   10AU     LIG 5041  22.068   6.283   6.981
   10AU     LIG 5042  22.167   5.800   6.882
   10AU     LIG 5043  22.463   5.447   6.733
   10AU     LIG 5044  22.379   4.956   6.750
   10AU       S 5045  22.543   7.715   6.577
   10AU     LIG 5046  22.585   7.264   6.437
   10AU     LIG 5047  22.879   6.926   6.293
   10AU     LIG 5048  23.195   6.664   6.058
   10AU     LIG 5049  23.293   6.551   5.608
   10AU     LIG 5050  23.286   6.438   5.137
   11POPC   NC3 5051  21.686  15.475   9.444
   11POPC   PO4 5052  22.412  15.219   9.492
   11POPC   GL1 5053  22.163  15.060   9.149
   11POPC   GL2 5054  21.971  15.344   9.062
   11POPC   C1A 5055  22.184  15.065   8.691
   11POPC   D2A 5056  22.017  14.856   8.338
   11POPC   C3A 5057  22.081  14.963   7.936
   11POPC   C4A 5058  22.225  15.064   7.510
   11POPC   C1B 5059  21.907  15.584   8.700
   11POPC   C2B 5060  21.971  15.388   8.311
   11POPC   C3B 5061  22.170  15.449   7.926
   11POPC   C4B 5062  21.997  15.514   7.494
   12POPC   NC3 5063  39.712  40.274   9.478
   12POPC   PO4 5064  40.346  40.210   9.735
   12POPC   GL1 5065  40.229  40.062   9.294
   12POPC   GL2 5066  39.924  39.857   9.220
   12POPC   C1A 5067  40.234  40.185   8.843
   12POPC   D2A 5068  40.341  40.251   8.395
   12POPC   C3A 5069  40.071  40.047   8.086
   12POPC   C4A 5070  39.994  40.236   7.689
   12POPC   C1B 5071  39.912  39.755   8.769
   12POPC   C2B 5072  39.680  39.873   8.391
   12POPC   C3B 5073  39.619  39.675   7.988
   12POPC   C4B 5074  39.899  39.711   7.632
   13POPC   NC3 5075  30.060  32.240   9.787
   13POPC   PO4 5076  30.087  31.632   9.536
   13POPC   GL1 5077  30.014  31.991   9.251
   13POPC   GL2 5078  29.970  32.357   9.311
   13POPC   C1A 5079  29.743  32.109   8.906
   13POPC   D2A 5080  29.740  32.395   8.527
   13POPC   C3A 5081  29.767  32.207   8.114
   13POPC   C4A 5082  29.766  32.058   7.669
   13POPC   C1B 5083  30.027  32.532   8.928
   13POPC   C2B 5084  30.248  32.541   8.566
   13POPC   C3B 5085  30.225  32.524   8.150
   13POPC   C4B 5086  30.009  32.507   7.771
   14POPC   NC3 5087  13.382  10.074   9.807
   14POPC   PO4 5088  13.709   9.638   9.514
   14POPC   GL1 5089  13.783   9.795   9.093
   14POPC   GL2 5090  13.606   9.503   9.033
   14POPC   C1A 5091  13.635   9.877   8.694
   14POPC   D2A 5092  13.455  10.022   8.348
   14POPC   C3A 5093  13.692   9.872   8.016
   14POPC   C4A 5094  13.633   9.893   7.596
   14POPC   C1B 5095  13.378   9.442   8.684
   14POPC   C2B 5096  13.557   9.477   8.336
   14POPC   C3B 5097  13.424   9.460   7.940
   14POPC   C4B 5098  13.282   9.520   7.564
   15POPC   NC3 5099  19.752  17.238   9.328
   15POPC   PO4 5100  19.735  17.892   9.448
   15POPC   GL1 5101  19.707  17.681   9.074
   15POPC   GL2 5102  20.054  17.505   9.007
   15POPC   C1A 5103  19.609  17.461   8.715
   15POPC   D2A 5104  19.734  17.460   8.319
   15POPC   C3A 5105  19.403  17.347   8.045
   15POPC   C4A 5106  19.680  17.523   7.779
   15POPC   C1B 5107  20.026  17.146   8.668
   15POPC   C2B 5108  20.095  17.111   8.195
   15POPC   C3B 5109  20.139  17.307   7.773
   15POPC   C4B 5110  20.110  17.170   7.350
   16POPC   NC3 5111  30.955   9.445   9.354
   16POPC   PO4 5112  30.574   9.996   9.444
   16POPC   GL1 5113  30.734   9.812   9.071
   16POPC   GL2 5114  30.524   9.514   8.997
   16POPC   C1A 5115  30.964   9.607   8.725
   16POPC   D2A 5116  30.783   9.389   8.402
   16POPC   C3A 5117  30.680   9.681   8.108
   16POPC   C4A 5118  30.639   9.581   7.703
   16POPC   C1B 5119  30.484   9.785   8.625
   16POPC   C2B 5120  30.344  10.070   8.322
   16POPC   C3B 5121  30.356  10.243   7.952
   16POPC   C4B 5122  30.323   9.959   7.651
   17POPC   NC3 5123  32.913  31.210   9.214
   17POPC   PO4 5124  33.407  31.610   9.534
   17POPC   GL1 5125  33.265  31.579   9.104
   17POPC   GL2 5126  32.913  31.652   8.980
   17POPC   C1A 5127  33.357  31.676   8.700
   17POPC   D2A 5128  32.992  31.830   8.498
   17POPC   C3A 5129  33.089  31.810   8.093
   17POPC   C4A 5130  33.346  31.678   7.731
   17POPC   C1B 5131  32.977  31.340   8.599
   17POPC   C2B 5132  33.167  31.306   8.185
   17POPC   C3B 5133  33.035  31.256   7.751
   17POPC   C4B 5134  32.776  31.342   7.392
   18POPC   NC3 5135  44.807  29.467   9.453
   18POPC   PO4 5136  44.487  28.851   9.579
   18POPC   GL1 5137  44.507  28.974   9.137
   18POPC   GL2 5138  44.543  29.359   9.030
   18POPC   C1A 5139  44.423  29.017   8.692
   18POPC   D2A 5140  44.624  29.302   8.393
   18POPC   C3A 5141  44.679  29.084   8.022
   18POPC   C4A 5142  44.915  29.010   7.673
   18POPC   C1B 5143  44.967  29.346   8.785
   18POPC   C2B 5144   0.120  29.596   8.420
   18POPC   C3B 5145  44.937  29.531   7.990
   18POPC   C4B 5146   0.121  29.491   7.561
   19POPC   NC3 5147  32.087  14.393   9.418
   19POPC   PO4 5148  32.746  14.403   9.421
   19POPC   GL1 5149  32.484  14.479   9.051
   19POPC   GL2 5150  32.198  14.234   8.950
   19POPC   C1A 5151  32.567  14.334   8.621
   19POPC   D2A 5152  32.286  14.346   8.263
   19POPC   C3A 5153  32.413  14.329   7.834
   19POPC   C4A 5154  32.273  14.114   7.469
   19POPC   C1B 5155  32.063  14.582   8.686
   19POPC   C2B 5156  31.750  14.710   8.363
   19POPC   C3B 5157  31.784  14.821   7.911
   19POPC   C4B 5158  32.022  14.554   7.603
   20POPC   NC3 5159   1.230  38.498   9.634
   20POPC   PO4 5160   0.696  38.886   9.621
   20POPC   GL1 5161   1.043  38.791   9.271
   20POPC   GL2 5162   0.868  38.734   9.026
   20POPC   C1A 5163   1.334  38.559   8.894
   20POPC   D2A 5164   1.337  38.259   8.520
   20POPC   C3A 5165   1.387  38.547   8.174
   20POPC   C4A 5166   1.536  38.626   7.789
   20POPC   C1B 5167   0.878  38.409   8.735
   20POPC   C2B 5168   0.900  38.469   8.309
   20POPC   C3B 5169   1.016  38.346   7.895
   20POPC   C4B 5170   1.139  38.581   7.494
   21POPC   NC3 5171  16.167  21.278   9.363
   21POPC   PO4 5172  15.548  21.519   9.615
   21POPC   GL1 5173  15.704  21.494   9.197
   21POPC   GL2 5174  15.484  21.771   9.170
   21POPC   C1A 5175  15.946  21.457   8.759
   21POPC   D2A 5176  16.080  21.665   8.332
   21POPC   C3A 5177  16.165  21.434   7.947
   21POPC   C4A 5178  16.159  21.014   7.739
   21POPC   C1B 5179  15.432  21.612   8.786
   21POPC   C2B 5180  15.588  21.473   8.389
   21POPC   C3B 5181  15.655  21.313   7.981
   21POPC   C4B 5182  15.643  21.568   7.633
   22POPC   NC3 5183  27.409  37.560   9.367
   22POPC   PO4 5184  27.864  37.901   9.581
   22POPC   GL1 5185  27.711  37.913   9.148
   22POPC   GL2 5186  27.373  38.008   9.092
   22POPC   C1A 5187  27.653  37.626   8.772
   22POPC   D2A 5188  27.837  37.507   8.378
   22POPC   C3A 5189  27.766  37.642   7.961
   22POPC   C4A 5190  27.878  37.332   7.676
   22POPC   C1B 5191  27.489  38.116   8.737
   22POPC   C2B 5192  27.724  37.995   8.386
   22POPC   C3B 5193  27.462  38.052   8.029
   22POPC   C4B 5194  27.315  37.944   7.647
   23POPC   NC3 5195  32.128  22.723   9.508
   23POPC   PO4 5196  32.669  22.485   9.566
   23POPC   GL1 5197  32.547  22.918   9.285
   23POPC   GL2 5198  32.208  23.128   9.187
   23POPC   C1A 5199  32.499  22.975   8.816
   23POPC   D2A 5200  32.245  23.084   8.494
   23POPC   C3A 5201  32.478  23.231   8.129
   23POPC   C4A 5202  32.619  23.073   7.732
   23POPC   C1B 5203  31.867  22.983   8.890
   23POPC   C2B 5204  31.718  23.122   8.488
   23POPC   C3B 5205  31.948  23.155   8.100
   23POPC   C4B 5206  32.147  22.876   7.803
   24POPC   NC3 5207  25.733  33.208   9.628
   24POPC   PO4 5208  26.347  32.927   9.556
   24POPC   GL1 5209  26.094  33.101   9.214
   24POPC   GL2 5210  25.753  33.101   9.143
   24POPC   C1A 5211  26.113  33.083   8.759
   24POPC   D2A 5212  26.198  33.385   8.437
   24POPC   C3A 5213  26.101  33.191   8.059
   24POPC   C4A 5214  26.363  32.942   7.787
   24POPC   C1B 5215  25.575  33.104   8.756
   24POPC   C2B 5216  25.655  33.204   8.372
   24POPC   C3B 5217  25.618  32.952   8.038
   24POPC   C4B 5218  25.741  33.165   7.707
   25POPC   NC3 5219   2.467  13.658   9.334
   25POPC   PO4 5220   2.970  14.052   9.506
   25POPC   GL1 5221   2.885  13.854   9.118
   25POPC   GL2 5222   2.992  13.506   9.240
   25POPC   C1A 5223   2.736  13.645   8.700
   25POPC   D2A 5224   2.441  13.538   8.328
   25POPC   C3A 5225   2.642  13.342   7.962
   25POPC   C4A 5226   2.795  13.626   7.645
   25POPC   C1B 5227   3.236  13.562   8.876
   25POPC   C2B 5228   3.143  13.432   8.460
   25POPC   C3B 5229   3.119  13.500   8.046
   25POPC   C4B 5230   3.124  13.205   7.727
   26POPC   NC3 5231   2.665  39.081   9.283
   26POPC   PO4 5232   2.637  38.501   9.616
   26POPC   GL1 5233   2.759  38.355   9.215
   26POPC   GL2 5234   2.902  38.646   9.103
   26POPC   C1A 5235   2.573  38.298   8.831
   26POPC   D2A 5236   2.582  38.252   8.393
   26POPC   C3A 5237   2.872  38.227   8.076
   26POPC   C4A 5238   2.812  38.268   7.638
   26POPC   C1B 5239   2.839  38.706   8.666
   26POPC   C2B 5240   2.738  38.708   8.211
   26POPC   C3B 5241   2.776  38.753   7.778
   26POPC   C4B 5242   2.810  38.895   7.354
   27POPC   NC3 5243  16.384   4.972   9.504
   27POPC   PO4 5244  17.061   4.861   9.469
   27POPC   GL1 5245  16.788   5.056   9.157
   27POPC   GL2 5246  16.457   4.958   9.021
   27POPC   C1A 5247  16.737   5.300   8.780
   27POPC   D2A 5248  16.712   5.115   8.411
   27POPC   C3A 5249  16.824   5.323   8.053
   27POPC   C4A 5250  16.780   5.123   7.672
   27POPC   C1B 5251  16.352   4.764   8.677
   27POPC   C2B 5252  16.480   4.666   8.293
   27POPC   C3B 5253  16.427   4.952   7.985
   27POPC   C4B 5254  16.315   4.818   7.599
   28POPC   NC3 5255   6.943   5.791   9.357
   28POPC   PO4 5256   7.064   6.150   9.940
   28POPC   GL1 5257   7.309   6.144   9.418
   28POPC   GL2 5258   7.612   6.055   9.193
   28POPC   C1A 5259   7.216   6.159   8.902
   28POPC   D2A 5260   7.299   6.186   8.477
   28POPC   C3A 5261   7.153   6.182   8.069
   28POPC   C4A 5262   7.329   6.048   7.702
   28POPC   C1B 5263   7.657   5.907   8.716
   28POPC   C2B 5264   7.576   5.856   8.206
   28POPC   C3B 5265   7.394   5.560   7.877
   28POPC   C4B 5266   7.493   5.498   7.419
   29POPC   NC3 5267   0.639   2.402   9.403
   29POPC   PO4 5268   0.079   2.072   9.727
   29POPC   GL1 5269   0.182   2.062   9.288
   29POPC   GL2 5270   0.444   1.835   9.226
   29POPC   C1A 5271   0.235   2.054   8.823
   29POPC   D2A 5272   0.397   1.880   8.450
   29POPC   C3A 5273   0.322   2.020   8.070
   29POPC   C4A 5274   0.217   1.978   7.672
   29POPC   C1B 5275   0.691   1.675   8.860
   29POPC   C2B 5276   0.793   1.529   8.455
   29POPC   C3B 5277   0.569   1.534   8.085
   29POPC   C4B 5278   0.677   1.800   7.780
   30POPC   NC3 5279  19.039  31.028   9.474
   30POPC   PO4 5280  18.640  30.489   9.392
   30POPC   GL1 5281  18.873  30.747   9.074
   30POPC   GL2 5282  19.228  30.701   9.098
   30POPC   C1A 5283  19.001  30.856   8.650
   30POPC   D2A 5284  19.238  30.874   8.286
   30POPC   C3A 5285  18.968  30.749   7.955
   30POPC   C4A 5286  18.993  30.739   7.519
   30POPC   C1B 5287  19.278  30.429   8.732
   30POPC   C2B 5288  19.061  30.367   8.327
   30POPC   C3B 5289  19.207  30.297   7.898
   30POPC   C4B 5290  19.411  30.439   7.513
   31POPC   NC3 5291  31.167  42.401   9.772
   31POPC   PO4 5292  31.605  42.623   9.548
   31POPC   GL1 5293  31.522  42.623   9.118
   31POPC   GL2 5294  31.800  42.741   8.959
   31POPC   C1A 5295  31.402  42.397   8.728
   31POPC   D2A 5296  31.484  42.164   8.340
   31POPC   C3A 5297  31.506  42.432   7.989
   31POPC   C4A 5298  31.301  42.759   7.771
   31POPC   C1B 5299  31.765  42.652   8.507
   31POPC   C2B 5300  31.951  42.388   8.239
   31POPC   C3B 5301  31.968  42.478   7.823
   31POPC   C4B 5302  31.784  42.699   7.490
   32POPC   NC3 5303  29.338  11.648   9.763
   32POPC   PO4 5304  28.813  11.339   9.409
   32POPC   GL1 5305  29.015  11.158   9.052
   32POPC   GL2 5306  29.330  10.942   9.098
   32POPC   C1A 5307  28.911  11.135   8.632
   32POPC   D2A 5308  28.757  11.158   8.231
   32POPC   C3A 5309  28.956  11.408   7.952
   32POPC   C4A 5310  28.987  11.136   7.627
   32POPC   C1B 5311  29.417  11.174   8.731
   32POPC   C2B 5312  29.315  11.453   8.407
   32POPC   C3B 5313  29.465  11.327   8.033
   32POPC   C4B 5314  29.492  11.333   7.615
   33POPC   NC3 5315  25.674  29.154   9.494
   33POPC   PO4 5316  25.026  28.966   9.549
   33POPC   GL1 5317  25.261  28.959   9.181
   33POPC   GL2 5318  25.361  29.292   9.114
   33POPC   C1A 5319  25.265  28.858   8.752
   33POPC   D2A 5320  25.503  28.936   8.374
   33POPC   C3A 5321  25.256  28.905   7.988
   33POPC   C4A 5322  25.297  28.986   7.526
   33POPC   C1B 5323  25.294  29.374   8.694
   33POPC   C2B 5324  25.146  29.308   8.283
   33POPC   C3B 5325  25.090  29.412   7.859
   33POPC   C4B 5326  25.343  29.488   7.500
   34POPC   NC3 5327  21.552  21.039   9.408
   34POPC   PO4 5328  21.228  21.620   9.576
   34POPC   GL1 5329  21.209  21.395   9.209
   34POPC   GL2 5330  21.544  21.485   9.163
   34POPC   C1A 5331  21.159  21.425   8.761
   34POPC   D2A 5332  21.244  21.188   8.381
   34POPC   C3A 5333  21.261  21.413   7.977
   34POPC   C4A 5334  21.455  21.257   7.612
   34POPC   C1B 5335  21.577  21.722   8.809
   34POPC   C2B 5336  21.536  21.619   8.398
   34POPC   C3B 5337  21.610  21.814   8.015
   34POPC   C4B 5338  21.468  21.765   7.609
   35POPC   NC3 5339  41.793  38.696   9.494
   35POPC   PO4 5340  41.344  38.229   9.658
   35POPC   GL1 5341  41.598  38.285   9.216
   35POPC   GL2 5342  41.753  38.596   9.013
   35POPC   C1A 5343  41.651  38.180   8.741
   35POPC   D2A 5344  41.526  38.330   8.295
   35POPC   C3A 5345  41.788  38.437   7.931
   35POPC   C4A 5346  41.879  38.158   7.564
   35POPC   C1B 5347  41.503  38.690   8.654
   35POPC   C2B 5348  41.396  38.979   8.328
   35POPC   C3B 5349  41.279  38.975   7.861
   35POPC   C4B 5350  41.260  38.892   7.392
   36POPC   NC3 5351  20.138  20.836   9.788
   36POPC   PO4 5352  19.569  20.656   9.556
   36POPC   GL1 5353  19.811  20.666   9.171
   36POPC   GL2 5354  20.093  20.431   9.144
   36POPC   C1A 5355  19.711  20.813   8.767
   36POPC   D2A 5356  19.891  20.865   8.335
   36POPC   C3A 5357  19.647  20.676   7.971
   36POPC   C4A 5358  19.757  20.391   7.648
   36POPC   C1B 5359  20.189  20.627   8.727
   36POPC   C2B 5360  20.292  20.537   8.315
   36POPC   C3B 5361  20.166  20.636   7.904
   36POPC   C4B 5362  20.082  20.796   7.510
   37POPC   NC3 5363   3.607  22.369   9.614
   37POPC   PO4 5364   3.624  21.819   9.230
   37POPC   GL1 5365   3.456  22.113   9.003
   37POPC   GL2 5366   3.292  22.345   9.189
   37POPC   C1A 5367   3.559  22.202   8.588
   37POPC   D2A 5368   3.635  22.126   8.149
   37POPC   C3A 5369   3.340  22.012   7.823
   37POPC   C4A 5370   3.527  22.176   7.443
   37POPC   C1B 5371   3.220  22.536   8.767
   37POPC   C2B 5372   3.341  22.621   8.333
   37POPC   C3B 5373   3.190  22.491   7.930
   37POPC   C4B 5374   2.944  22.314   7.595
   38POPC   NC3 5375  26.212   3.489   9.692
   38POPC   PO4 5376  25.667   3.491   9.462
   38POPC   GL1 5377  26.019   3.555   9.181
   38POPC   GL2 5378  26.275   3.280   9.216
   38POPC   C1A 5379  25.922   3.710   8.755
   38POPC   D2A 5380  25.994   3.969   8.391
   38POPC   C3A 5381  26.023   3.755   7.986
   38POPC   C4A 5382  25.785   3.443   7.743
   38POPC   C1B 5383  26.088   3.210   8.807
   38POPC   C2B 5384  26.163   3.385   8.401
   38POPC   C3B 5385  26.115   3.178   8.021
   38POPC   C4B 5386  26.358   3.120   7.657
   39POPC   NC3 5387  27.656  40.910   9.757
   39POPC   PO4 5388  27.080  40.627   9.773
   39POPC   GL1 5389  27.443  40.593   9.416
   39POPC   GL2 5390  27.506  40.295   9.216
   39POPC   C1A 5391  27.596  40.684   8.924
   39POPC   D2A 5392  27.729  40.512   8.459
   39POPC   C3A 5393  27.626  40.705   8.036
   39POPC   C4A 5394  27.271  40.875   7.773
   39POPC   C1B 5395  27.404  40.244   8.728
   39POPC   C2B 5396  27.349  40.246   8.219
   39POPC   C3B 5397  27.401  40.356   7.747
   39POPC   C4B 5398  27.440  40.313   7.243
   40POPC   NC3 5399  42.435  39.086   9.616
   40POPC   PO4 5400  41.827  39.134   9.629
   40POPC   GL1 5401  42.125  39.045   9.205
   40POPC   GL2 5402  42.519  38.969   9.143
   40POPC   C1A 5403  42.301  39.282   8.795
   40POPC   D2A 5404  42.385  39.136   8.358
   40POPC   C3A 5405  42.243  39.349   7.962
   40POPC   C4A 5406  42.093  39.293   7.506
   40POPC   C1B 5407  42.743  38.902   8.766
   40POPC   C2B 5408  42.722  38.723   8.363
   40POPC   C3B 5409  42.718  38.962   8.000
   40POPC   C4B 5410  42.504  39.034   7.650
   41POPC   NC3 5411  29.459  14.668   9.466
   41POPC   PO4 5412  30.041  14.335   9.529
   41POPC   GL1 5413  30.023  14.238   9.115
   41POPC   GL2 5414  29.668  14.335   9.126
   41POPC   C1A 5415  29.946  14.314   8.699
   41POPC   D2A 5416  30.101  14.500   8.355
   41POPC   C3A 5417  29.894  14.277   8.086
   41POPC   C4A 5418  29.922  14.330   7.703
   41POPC   C1B 5419  29.635  14.686   8.832
   41POPC   C2B 5420  29.676  14.810   8.393
   41POPC   C3B 5421  29.848  14.803   7.971
   41POPC   C4B 5422  29.604  14.721   7.616
   42POPC   NC3 5423  15.067   7.743   9.387
   42POPC   PO4 5424  15.336   8.413   9.637
   42POPC   GL1 5425  15.100   8.250   9.238
   42POPC   GL2 5426  15.376   8.125   9.079
   42POPC   C1A 5427  14.998   8.030   8.777
   42POPC   D2A 5428  15.173   7.990   8.348
   42POPC   C3A 5429  14.906   8.143   8.022
   42POPC   C4A 5430  14.865   8.072   7.551
   42POPC   C1B 5431  15.565   8.144   8.647
   42POPC   C2B 5432  15.784   7.953   8.299
   42POPC   C3B 5433  15.649   8.061   7.896
   42POPC   C4B 5434  15.299   8.307   7.741
   43POPC   NC3 5435  20.484  13.938   9.466
   43POPC   PO4 5436  20.707  13.327   9.520
   43POPC   GL1 5437  20.501  13.468   9.178
   43POPC   GL2 5438  20.732  13.745   9.084
   43POPC   C1A 5439  20.442  13.510   8.750
   43POPC   D2A 5440  20.806  13.472   8.516
   43POPC   C3A 5441  20.731  13.605   8.103
   43POPC   C4A 5442  20.496  13.490   7.746
   43POPC   C1B 5443  20.703  13.965   8.689
   43POPC   C2B 5444  20.376  13.893   8.395
   43POPC   C3B 5445  20.284  13.950   7.983
   43POPC   C4B 5446  20.624  14.029   7.771
   44POPC   NC3 5447  32.647  10.438   9.843
   44POPC   PO4 5448  33.281  10.266   9.468
   44POPC   GL1 5449  32.926  10.359   9.195
   44POPC   GL2 5450  32.945  10.713   9.162
   44POPC   C1A 5451  32.807  10.358   8.747
   44POPC   D2A 5452  32.973  10.165   8.352
   44POPC   C3A 5453  32.783  10.312   7.965
   44POPC   C4A 5454  32.911  10.320   7.520
   44POPC   C1B 5455  33.176  10.721   8.747
   44POPC   C2B 5456  33.154  10.660   8.288
   44POPC   C3B 5457  33.239  10.529   7.867
   44POPC   C4B 5458  33.262  10.658   7.438
   45POPC   NC3 5459  21.184  14.588   9.455
   45POPC   PO4 5460  21.764  14.331   9.580
   45POPC   GL1 5461  21.577  14.277   9.211
   45POPC   GL2 5462  21.597  14.603   9.156
   45POPC   C1A 5463  21.492  14.149   8.789
   45POPC   D2A 5464  21.304  14.298   8.420
   45POPC   C3A 5465  21.497  14.251   8.021
   45POPC   C4A 5466  21.313  14.134   7.623
   45POPC   C1B 5467  21.401  14.677   8.793
   45POPC   C2B 5468  21.522  14.759   8.367
   45POPC   C3B 5469  21.590  14.801   7.962
   45POPC   C4B 5470  21.537  14.576   7.606
   46POPC   NC3 5471   0.425   9.101   9.563
   46POPC   PO4 5472   0.204   9.765   9.487
   46POPC   GL1 5473   0.362   9.502   9.188
   46POPC   GL2 5474   0.536   9.808   9.077
   46POPC   C1A 5475   0.302   9.513   8.736
   46POPC   D2A 5476   0.438   9.790   8.387
   46POPC   C3A 5477   0.308   9.736   7.947
   46POPC   C4A 5478   0.324   9.594   7.510
   46POPC   C1B 5479   0.800   9.968   8.744
   46POPC   C2B 5480   0.733  10.209   8.370
   46POPC   C3B 5481   0.650  10.110   7.964
   46POPC   C4B 5482   0.549  10.047   7.540
   47POPC   NC3 5483  14.492  38.697   9.594
   47POPC   PO4 5484  14.137  38.151   9.659
   47POPC   GL1 5485  14.167  38.341   9.223
   47POPC   GL2 5486  14.139  38.718   9.225
   47POPC   C1A 5487  14.488  38.359   8.859
   47POPC   D2A 5488  14.721  38.366   8.432
   47POPC   C3A 5489  14.509  38.346   8.021
   47POPC   C4A 5490  14.100  38.222   7.831
   47POPC   C1B 5491  14.237  38.795   8.790
   47POPC   C2B 5492  14.230  38.577   8.398
   47POPC   C3B 5493  13.984  38.678   8.061
   47POPC   C4B 5494  14.263  38.754   7.760
   48POPC   NC3 5495  13.873  10.768   9.476
   48POPC   PO4 5496  13.611  10.170   9.416
   48POPC   GL1 5497  13.735  10.414   9.107
   48POPC   GL2 5498  13.514  10.703   9.103
   48POPC   C1A 5499  13.627  10.386   8.684
   48POPC   D2A 5500  13.470  10.574   8.311
   48POPC   C3A 5501  13.609  10.374   7.942
   48POPC   C4A 5502  13.329  10.293   7.608
   48POPC   C1B 5503  13.631  10.889   8.683
   48POPC   C2B 5504  13.752  11.041   8.277
   48POPC   C3B 5505  13.721  10.879   7.855
   48POPC   C4B 5506  13.999  10.852   7.416
   49POPC   NC3 5507   0.094  42.095   9.567
   49POPC   PO4 5508   0.642  42.520   9.524
   49POPC   GL1 5509   0.409  42.282   9.202
   49POPC   GL2 5510   0.174  42.014   9.094
   49POPC   C1A 5511   0.475  42.260   8.778
   49POPC   D2A 5512   0.668  42.494   8.456
   49POPC   C3A 5513   0.463  42.418   8.098
   49POPC   C4A 5514   0.546  42.284   7.709
   49POPC   C1B 5515   0.168  41.846   8.681
   49POPC   C2B 5516   0.400  41.943   8.325
   49POPC   C3B 5517   0.287  41.896   7.913
   49POPC   C4B 5518   0.052  42.119   7.595
   50POPC   NC3 5519  21.463  26.546   9.654
   50POPC   PO4 5520  21.497  27.188   9.692
   50POPC   GL1 5521  21.583  26.926   9.249
   50POPC   GL2 5522  21.766  27.126   8.966
   50POPC   C1A 5523  21.592  26.607   8.821
   50POPC   D2A 5524  21.614  26.771   8.324
   50POPC   C3A 5525  21.504  26.679   7.851
   50POPC   C4A 5526  21.635  26.909   7.466
   50POPC   C1B 5527  21.320  27.020   8.817
   50POPC   C2B 5528  21.152  26.691   8.546
   50POPC   C3B 5529  21.072  26.633   8.108
   50POPC   C4B 5530  20.932  26.603   7.675
   51POPC   NC3 5531  39.918  39.132   9.873
   51POPC   PO4 5532  40.239  39.500   9.470
   51POPC   GL1 5533  40.086  39.375   9.088
   51POPC   GL2 5534  39.977  39.107   9.198
   51POPC   C1A 5535  40.148  39.294   8.647
   51POPC   D2A 5536  39.991  39.490   8.282
   51POPC   C3A 5537  39.968  39.290   7.910
   51POPC   C4A 5538  40.283  39.328   7.642
   51POPC   C1B 5539  39.870  38.903   8.826
   51POPC   C2B 5540  40.047  38.789   8.455
   51POPC   C3B 5541  39.970  38.799   8.029
   51POPC   C4B 5542  40.083  38.861   7.618
   52POPC   NC3 5543   8.133  40.279   9.553
   52POPC   PO4 5544   8.703  39.985   9.458
   52POPC   GL1 5545   8.286  39.788   9.215
   52POPC   GL2 5546   8.086  40.052   9.108
   52POPC   C1A 5547   7.955  39.661   8.831
   52POPC   D2A 5548   7.820  39.819   8.409
   52POPC   C3A 5549   8.170  39.974   8.174
   52POPC   C4A 5550   8.328  39.778   7.828
   52POPC   C1B 5551   7.805  40.172   8.804
   52POPC   C2B 5552   7.882  40.336   8.428
   52POPC   C3B 5553   7.746  40.246   8.074
   52POPC   C4B 5554   7.941  40.420   7.780
   53POPC   NC3 5555  40.251  30.107   9.406
   53POPC   PO4 5556  39.811  29.546   9.420
   53POPC   GL1 5557  39.999  29.757   9.108
   53POPC   GL2 5558  40.365  29.657   9.136
   53POPC   C1A 5559  39.802  30.025   8.802
   53POPC   D2A 5560  39.713  29.943   8.383
   53POPC   C3A 5561  39.929  30.153   8.067
   53POPC   C4A 5562  40.117  30.272   7.669
   53POPC   C1B 5563  40.214  29.480   8.735
   53POPC   C2B 5564  39.986  29.457   8.347
   53POPC   C3B 5565  40.078  29.648   7.961
   53POPC   C4B 5566  40.148  29.458   7.570
   54POPC   NC3 5567   1.055   5.796   9.489
   54POPC   PO4 5568   1.685   6.032   9.484
   54POPC   GL1 5569   1.386   5.976   9.129
   54POPC   GL2 5570   1.428   5.623   9.164
   54POPC   C1A 5571   1.056   5.739   8.835
   54POPC   D2A 5572   1.038   5.600   8.419
   54POPC   C3A 5573   0.980   5.910   8.112
   54POPC   C4A 5574   1.077   5.901   7.680
   54POPC   C1B 5575   1.549   5.682   8.724
   54POPC   C2B 5576   1.487   5.812   8.291
   54POPC   C3B 5577   1.649   5.776   7.872
   54POPC   C4B 5578   1.599   6.021   7.533
   55POPC   NC3 5579  27.623  21.382   9.565
   55POPC   PO4 5580  27.215  21.788   9.239
   55POPC   GL1 5581  27.368  21.360   9.125
   55POPC   GL2 5582  27.743  21.226   9.101
   55POPC   C1A 5583  27.413  21.203   8.723
   55POPC   D2A 5584  27.610  21.245   8.336
   55POPC   C3A 5585  27.440  21.415   7.926
   55POPC   C4A 5586  27.063  21.588   7.703
   55POPC   C1B 5587  27.841  20.904   8.769
   55POPC   C2B 5588  27.986  20.896   8.337
   55POPC   C3B 5589  27.920  21.168   7.953
   55POPC   C4B 5590  27.743  21.141   7.577
   56POPC   NC3 5591   2.933  11.779   9.361
   56POPC   PO4 5592   2.455  12.308   9.517
   56POPC   GL1 5593   2.506  12.082   9.159
   56POPC   GL2 5594   2.834  12.214   9.112
   56POPC   C1A 5595   2.635  11.966   8.731
   56POPC   D2A 5596   2.654  11.783   8.329
   56POPC   C3A 5597   2.968  11.824   8.051
   56POPC   C4A 5598   2.684  11.906   7.767
   56POPC   C1B 5599   3.085  12.342   8.769
   56POPC   C2B 5600   3.027  12.451   8.346
   56POPC   C3B 5601   3.173  12.309   7.956
   56POPC   C4B 5602   3.006  12.265   7.531
   57POPC   NC3 5603  22.578   3.455   9.414
   57POPC   PO4 5604  21.956   3.640   9.584
   57POPC   GL1 5605  22.079   3.338   9.212
   57POPC   GL2 5606  22.360   3.373   8.968
   57POPC   C1A 5607  21.861   3.373   8.806
   57POPC   D2A 5608  22.021   3.545   8.416
   57POPC   C3A 5609  21.992   3.365   8.014
   57POPC   C4A 5610  21.937   3.465   7.575
   57POPC   C1B 5611  22.529   3.520   8.590
   57POPC   C2B 5612  22.495   3.681   8.181
   57POPC   C3B 5613  22.240   3.780   7.825
   57POPC   C4B 5614  22.375   3.677   7.402
   58POPC   NC3 5615  24.914  28.504   9.477
   58POPC   PO4 5616  25.406  28.097   9.697
   58POPC   GL1 5617  25.398  28.102   9.230
   58POPC   GL2 5618  25.251  28.432   9.111
   58POPC   C1A 5619  25.492  28.143   8.772
   58POPC   D2A 5620  25.663  28.295   8.379
   58POPC   C3A 5621  25.440  28.234   7.983
   58POPC   C4A 5622  25.538  28.575   7.735
   58POPC   C1B 5623  25.031  28.388   8.723
   58POPC   C2B 5624  25.111  28.533   8.341
   58POPC   C3B 5625  24.850  28.497   8.010
   58POPC   C4B 5626  25.042  28.544   7.652
   59POPC   NC3 5627  41.801  21.710   9.348
   59POPC   PO4 5628  42.475  21.743   9.412
   59POPC   GL1 5629  42.233  21.588   9.076
   59POPC   GL2 5630  42.113  21.236   9.111
   59POPC   C1A 5631  42.216  21.669   8.646
   59POPC   D2A 5632  42.411  21.473   8.304
   59POPC   C3A 5633  42.098  21.509   7.985
   59POPC   C4A 5634  42.198  21.356   7.583
   59POPC   C1B 5635  42.299  21.165   8.703
   59POPC   C2B 5636  42.519  20.978   8.366
   59POPC   C3B 5637  42.374  21.038   7.947
   59POPC   C4B 5638  42.208  20.861   7.515
   60POPC   NC3 5639  19.158  13.774   9.634
   60POPC   PO4 5640  18.852  13.195   9.610
   60POPC   GL1 5641  18.897  13.541   9.263
   60POPC   GL2 5642  19.219  13.709   9.132
   60POPC   C1A 5643  18.849  13.551   8.818
   60POPC   D2A 5644  19.076  13.438   8.446
   60POPC   C3A 5645  19.045  13.411   7.994
   60POPC   C4A 5646  18.904  13.757   7.725
   60POPC   C1B 5647  19.212  13.885   8.697
   60POPC   C2B 5648  19.441  13.823   8.290
   60POPC   C3B 5649  19.453  13.696   7.841
   60POPC   C4B 5650  19.336  13.846   7.429
   61POPC   NC3 5651  44.032  10.276   9.461
   61POPC   PO4 5652  43.493  10.762   9.432
   61POPC   GL1 5653  43.787  10.601   9.147
   61POPC   GL2 5654  44.153  10.690   9.131
   61POPC   C1A 5655  43.704  10.437   8.778
   61POPC   D2A 5656  43.854  10.399   8.369
   61POPC   C3A 5657  43.602  10.684   8.121
   61POPC   C4A 5658  43.503  10.583   7.720
   61POPC   C1B 5659  44.195  10.330   8.822
   61POPC   C2B 5660  44.355  10.278   8.393
   61POPC   C3B 5661  44.289  10.605   8.152
   61POPC   C4B 5662  44.010  10.534   7.807
   62POPC   NC3 5663  30.322  21.389   9.462
   62POPC   PO4 5664  29.617  21.182   9.432
   62POPC   GL1 5665  29.911  21.385   9.162
   62POPC   GL2 5666  30.216  21.216   9.004
   62POPC   C1A 5667  29.870  21.567   8.774
   62POPC   D2A 5668  29.640  21.463   8.394
   62POPC   C3A 5669  29.724  21.558   7.961
   62POPC   C4A 5670  30.131  21.643   7.733
   62POPC   C1B 5671  30.009  21.131   8.599
   62POPC   C2B 5672  30.132  21.327   8.205
   62POPC   C3B 5673  30.182  21.129   7.799
   62POPC   C4B 5674  30.127  21.063   7.351
   63POPC   NC3 5675   5.821  16.539   9.958
   63POPC   PO4 5676   6.373  16.449   9.525
   63POPC   GL1 5677   6.034  16.681   9.231
   63POPC   GL2 5678   5.692  16.902   9.189
   63POPC   C1A 5679   5.939  16.585   8.798
   63POPC   D2A 5680   5.813  16.710   8.393
   63POPC   C3A 5681   6.012  16.529   8.060
   63POPC   C4A 5682   5.935  16.582   7.619
   63POPC   C1B 5683   5.777  17.083   8.752
   63POPC   C2B 5684   5.927  17.189   8.304
   63POPC   C3B 5685   5.832  16.997   7.911
   63POPC   C4B 5686   5.787  17.042   7.443
   64POPC   NC3 5687  36.495  26.962   9.549
   64POPC   PO4 5688  36.906  26.508   9.392
   64POPC   GL1 5689  36.765  26.836   9.113
   64POPC   GL2 5690  36.484  26.619   9.109
   64POPC   C1A 5691  36.834  27.084   8.709
   64POPC   D2A 5692  36.785  26.995   8.249
   64POPC   C3A 5693  37.096  27.096   7.912
   64POPC   C4A 5694  37.015  27.086   7.433
   64POPC   C1B 5695  36.405  26.774   8.739
   64POPC   C2B 5696  36.475  26.597   8.346
   64POPC   C3B 5697  36.355  26.747   7.965
   64POPC   C4B 5698  36.640  26.977   7.746
   65POPC   NC3 5699  33.315  42.957   9.576
   65POPC   PO4 5700  33.064  43.620   9.467
   65POPC   GL1 5701  33.199  43.296   9.163
   65POPC   GL2 5702  32.939  43.021   9.166
   65POPC   C1A 5703  33.175  43.150   8.729
   65POPC   D2A 5704  32.944  42.912   8.392
   65POPC   C3A 5705  33.091  42.950   7.956
   65POPC   C4A 5706  33.017  43.133   7.546
   65POPC   C1B 5707  32.757  43.375   8.885
   65POPC   C2B 5708  32.800  43.413   8.415
   65POPC   C3B 5709  32.636  43.188   8.025
   65POPC   C4B 5710  32.543  43.329   7.596
   66POPC   NC3 5711  29.969  12.309   9.359
   66POPC   PO4 5712  29.554  11.839   9.392
   66POPC   GL1 5713  29.816  11.946   9.044
   66POPC   GL2 5714  30.085  11.786   9.152
   66POPC   C1A 5715  29.862  12.312   8.728
   66POPC   D2A 5716  29.810  12.183   8.313
   66POPC   C3A 5717  29.760  12.386   7.914
   66POPC   C4A 5718  30.056  12.350   7.573
   66POPC   C1B 5719  30.250  11.607   8.774
   66POPC   C2B 5720  30.229  11.814   8.376
   66POPC   C3B 5721  30.193  12.059   8.009
   66POPC   C4B 5722  30.296  11.890   7.648
   67POPC   NC3 5723   9.971   4.781   9.553
   67POPC   PO4 5724   9.637   5.441   9.552
   67POPC   GL1 5725   9.716   5.260   9.165
   67POPC   GL2 5726   9.682   4.900   9.137
   67POPC   C1A 5727   9.818   5.176   8.735
   67POPC   D2A 5728   9.803   4.934   8.394
   67POPC   C3A 5729   9.760   5.206   8.063
   67POPC   C4A 5730   9.776   5.080   7.663
   67POPC   C1B 5731   9.444   4.790   8.749
   67POPC   C2B 5732   9.327   4.748   8.291
   67POPC   C3B 5733   9.382   4.789   7.820
   67POPC   C4B 5734   9.287   4.678   7.362
   68POPC   NC3 5735   3.073   2.283   9.491
   68POPC   PO4 5736   2.565   1.912   9.438
   68POPC   GL1 5737   2.869   2.018   9.108
   68POPC   GL2 5738   3.099   1.752   9.023
   68POPC   C1A 5739   2.791   2.326   8.788
   68POPC   D2A 5740   2.669   2.508   8.413
   68POPC   C3A 5741   2.704   2.212   8.103
   68POPC   C4A 5742   2.706   2.320   7.689
   68POPC   C1B 5743   3.210   1.982   8.663
   68POPC   C2B 5744   3.218   2.006   8.218
   68POPC   C3B 5745   3.041   1.909   7.836
   68POPC   C4B 5746   2.640   1.789   7.693
   69POPC   NC3 5747   6.245   5.195   9.758
   69POPC   PO4 5748   5.706   5.420   9.497
   69POPC   GL1 5749   5.840   5.183   9.159
   69POPC   GL2 5750   6.175   5.110   9.210
   69POPC   C1A 5751   5.678   5.035   8.765
   69POPC   D2A 5752   5.705   5.241   8.396
   69POPC   C3A 5753   5.661   5.081   8.011
   69POPC   C4A 5754   5.535   5.307   7.669
   69POPC   C1B 5755   6.155   5.196   8.729
   69POPC   C2B 5756   6.174   5.132   8.275
   69POPC   C3B 5757   6.137   5.104   7.840
   69POPC   C4B 5758   6.026   5.343   7.485
   70POPC   NC3 5759  14.090   7.956   9.396
   70POPC   PO4 5760  13.691   8.461   9.492
   70POPC   GL1 5761  13.650   8.218   9.140
   70POPC   GL2 5762  13.285   8.252   9.134
   70POPC   C1A 5763  13.910   8.045   8.783
   70POPC   D2A 5764  13.988   8.156   8.378
   70POPC   C3A 5765  13.840   7.901   8.081
   70POPC   C4A 5766  13.884   8.141   7.758
   70POPC   C1B 5767  13.433   8.183   8.665
   70POPC   C2B 5768  13.385   8.085   8.188
   70POPC   C3B 5769  13.310   8.028   7.727
   70POPC   C4B 5770  13.369   7.902   7.263
   71POPC   NC3 5771  35.440   2.362   9.383
   71POPC   PO4 5772  35.090   2.800   9.813
   71POPC   GL1 5773  35.195   2.858   9.347
   71POPC   GL2 5774  35.513   2.826   9.143
   71POPC   C1A 5775  35.065   2.898   8.902
   71POPC   D2A 5776  35.102   2.727   8.511
   71POPC   C3A 5777  35.455   2.891   8.291
   71POPC   C4A 5778  35.471   2.677   7.913
   71POPC   C1B 5779  35.600   2.549   8.753
   71POPC   C2B 5780  35.642   2.380   8.315
   71POPC   C3B 5781  35.758   2.269   7.856
   71POPC   C4B 5782  35.674   2.328   7.378
   72POPC   NC3 5783  15.554  10.494  10.071
   72POPC   PO4 5784  15.188  10.263   9.495
   72POPC   GL1 5785  15.243  10.565   9.121
   72POPC   GL2 5786  15.610  10.756   9.071
   72POPC   C1A 5787  15.046  10.627   8.709
   72POPC   D2A 5788  14.878  10.590   8.274
   72POPC   C3A 5789  14.854  10.877   7.916
   72POPC   C4A 5790  15.006  10.914   7.456
   72POPC   C1B 5791  15.564  10.464   8.737
   72POPC   C2B 5792  15.400  10.541   8.335
   72POPC   C3B 5793  15.293  10.621   7.932
   72POPC   C4B 5794  15.479  10.771   7.586
   73POPC   NC3 5795  43.871  17.125   9.161
   73POPC   PO4 5796  43.863  16.480   9.446
   73POPC   GL1 5797  44.006  16.606   9.048
   73POPC   GL2 5798  44.281  16.831   9.104
   73POPC   C1A 5799  43.973  16.441   8.635
   73POPC   D2A 5800  43.765  16.222   8.334
   73POPC   C3A 5801  43.838  16.462   7.982
   73POPC   C4A 5802  43.642  16.855   7.841
   73POPC   C1B 5803  44.301  16.836   8.674
   73POPC   C2B 5804  44.060  16.845   8.269
   73POPC   C3B 5805  44.175  16.818   7.821
   73POPC   C4B 5806  44.188  17.003   7.402
   74POPC   NC3 5807  17.534   5.986   9.538
   74POPC   PO4 5808  17.871   5.436   9.583
   74POPC   GL1 5809  17.625   5.634   9.168
   74POPC   GL2 5810  17.492   6.008   9.043
   74POPC   C1A 5811  17.448   5.631   8.717
   74POPC   D2A 5812  17.651   5.530   8.331
   74POPC   C3A 5813  17.448   5.594   7.957
   74POPC   C4A 5814  17.608   5.965   7.823
   74POPC   C1B 5815  17.473   6.278   8.646
   74POPC   C2B 5816  17.320   6.232   8.186
   74POPC   C3B 5817  17.174   6.192   7.733
   74POPC   C4B 5818  17.107   6.356   7.292
   75POPC   NC3 5819  22.656  19.856   9.456
   75POPC   PO4 5820  22.050  19.662   9.560
   75POPC   GL1 5821  22.066  19.794   9.150
   75POPC   GL2 5822  22.312  20.004   9.134
   75POPC   C1A 5823  22.223  19.618   8.767
   75POPC   D2A 5824  22.105  19.440   8.393
   75POPC   C3A 5825  21.895  19.702   8.130
   75POPC   C4A 5826  22.115  19.552   7.787
   75POPC   C1B 5827  22.185  20.129   8.773
   75POPC   C2B 5828  22.258  19.972   8.398
   75POPC   C3B 5829  22.332  20.097   8.024
   75POPC   C4B 5830  22.046  20.051   7.764
   76POPC   NC3 5831  18.896  12.777   9.377
   76POPC   PO4 5832  19.347  13.371   9.515
   76POPC   GL1 5833  19.390  13.018   9.212
   76POPC   GL2 5834  19.123  13.140   9.063
   76POPC   C1A 5835  19.356  12.779   8.792
   76POPC   D2A 5836  19.220  12.915   8.361
   76POPC   C3A 5837  19.330  12.733   7.965
   76POPC   C4A 5838  19.191  12.875   7.589
   76POPC   C1B 5839  18.861  13.035   8.725
   76POPC   C2B 5840  18.722  13.084   8.301
   76POPC   C3B 5841  18.781  12.974   7.882
   76POPC   C4B 5842  18.810  13.255   7.531
   77POPC   NC3 5843  32.704   6.343   9.536
   77POPC   PO4 5844  32.955   6.941   9.740
   77POPC   GL1 5845  33.006   6.894   9.305
   77POPC   GL2 5846  33.040   6.571   9.196
   77POPC   C1A 5847  32.866   6.938   8.875
   77POPC   D2A 5848  32.926   6.777   8.469
   77POPC   C3A 5849  32.986   6.958   8.061
   77POPC   C4A 5850  33.122   6.684   7.752
   77POPC   C1B 5851  32.772   6.393   8.863
   77POPC   C2B 5852  32.582   6.382   8.450
   77POPC   C3B 5853  32.742   6.489   8.056
   77POPC   C4B 5854  32.733   6.372   7.643
   78POPC   NC3 5855  35.573  39.324   9.430
   78POPC   PO4 5856  34.899  39.476   9.357
   78POPC   GL1 5857  35.199  39.332   9.102
   78POPC   GL2 5858  35.293  38.988   9.161
   78POPC   C1A 5859  35.474  39.321   8.764
   78POPC   D2A 5860  35.305  39.448   8.408
   78POPC   C3A 5861  35.528  39.339   8.093
   78POPC   C4A 5862  35.451  39.450   7.686
   78POPC   C1B 5863  35.526  38.803   8.820
   78POPC   C2B 5864  35.603  38.920   8.401
   78POPC   C3B 5865  35.424  38.847   8.017
   78POPC   C4B 5866  35.315  38.948   7.609
   79POPC   NC3 5867  25.738  11.479   9.545
   79POPC   PO4 5868  26.379  11.216   9.569
   79POPC   GL1 5869  26.143  11.438   9.214
   79POPC   GL2 5870  25.794  11.546   9.047
   79POPC   C1A 5871  26.009  11.128   8.920
   79POPC   D2A 5872  26.044  11.086   8.472
   79POPC   C3A 5873  26.296  11.174   8.147
   79POPC   C4A 5874  26.132  11.092   7.740
   79POPC   C1B 5875  26.029  11.583   8.695
   79POPC   C2B 5876  26.054  11.595   8.290
   79POPC   C3B 5877  25.962  11.522   7.904
   79POPC   C4B 5878  26.167  11.598   7.505
   80POPC   NC3 5879  34.066  36.608   9.553
   80POPC   PO4 5880  34.635  36.923   9.628
   80POPC   GL1 5881  34.552  36.694   9.253
   80POPC   GL2 5882  34.369  36.947   9.143
   80POPC   C1A 5883  34.649  36.698   8.783
   80POPC   D2A 5884  34.889  36.822   8.391
   80POPC   C3A 5885  34.677  36.686   7.983
   80POPC   C4A 5886  34.758  36.847   7.530
   80POPC   C1B 5887  34.495  37.192   8.769
   80POPC   C2B 5888  34.452  37.048   8.345
   80POPC   C3B 5889  34.649  37.186   7.983
   80POPC   C4B 5890  34.380  37.111   7.682
   81POPC   NC3 5891  29.115  30.153   9.380
   81POPC   PO4 5892  28.895  30.871   9.432
   81POPC   GL1 5893  29.102  30.642   9.129
   81POPC   GL2 5894  28.903  30.858   8.887
   81POPC   C1A 5895  29.141  30.417   8.737
   81POPC   D2A 5896  29.185  30.596   8.359
   81POPC   C3A 5897  28.915  30.438   8.071
   81POPC   C4A 5898  29.094  30.240   7.737
   81POPC   C1B 5899  29.343  30.911   8.756
   81POPC   C2B 5900  29.558  30.937   8.330
   81POPC   C3B 5901  29.319  30.899   7.946
   81POPC   C4B 5902  28.977  30.757   7.670
   82POPC   NC3 5903  39.540  21.662   9.376
   82POPC   PO4 5904  40.143  21.988   9.512
   82POPC   GL1 5905  40.045  22.133   9.112
   82POPC   GL2 5906  40.319  22.322   9.004
   82POPC   C1A 5907  39.811  22.031   8.778
   82POPC   D2A 5908  39.577  22.141   8.426
   82POPC   C3A 5909  39.787  22.212   8.065
   82POPC   C4A 5910  39.873  22.233   7.663
   82POPC   C1B 5911  40.333  22.003   8.712
   82POPC   C2B 5912  40.137  21.923   8.353
   82POPC   C3B 5913  40.057  21.776   7.975
   82POPC   C4B 5914  40.218  21.845   7.577
   83POPC   NC3 5915   2.334  28.476   9.604
   83POPC   PO4 5916   1.706  28.214   9.470
   83POPC   GL1 5917   2.025  28.421   9.196
   83POPC   GL2 5918   1.981  28.793   9.122
   83POPC   C1A 5919   1.974  28.370   8.773
   83POPC   D2A 5920   1.579  28.334   8.556
   83POPC   C3A 5921   1.628  28.228   8.144
   83POPC   C4A 5922   1.916  28.277   7.830
   83POPC   C1B 5923   1.911  28.861   8.658
   83POPC   C2B 5924   2.003  28.575   8.302
   83POPC   C3B 5925   2.247  28.626   7.952
   83POPC   C4B 5926   2.299  28.518   7.526
   84POPC   NC3 5927  26.556   0.858   9.519
   84POPC   PO4 5928  27.136   0.576   9.430
   84POPC   GL1 5929  26.857   0.579   9.079
   84POPC   GL2 5930  26.490   0.645   9.068
   84POPC   C1A 5931  26.722   0.404   8.685
   84POPC   D2A 5932  26.556   0.432   8.280
   84POPC   C3A 5933  26.852   0.570   7.995
   84POPC   C4A 5934  26.845   0.621   7.567
   84POPC   C1B 5935  26.319   0.751   8.649
   84POPC   C2B 5936  26.399   0.930   8.238
   84POPC   C3B 5937  26.364   0.700   7.843
   84POPC   C4B 5938  26.283   0.240   7.875
   85POPC   NC3 5939  31.240  44.825   9.517
   85POPC   PO4 5940  31.395  44.136   9.441
   85POPC   GL1 5941  31.507  44.443   9.151
   85POPC   GL2 5942  31.216  44.621   9.035
   85POPC   C1A 5943  31.665  44.519   8.727
   85POPC   D2A 5944  31.446  44.540   8.334
   85POPC   C3A 5945  31.635  44.527   7.933
   85POPC   C4A 5946  31.318  44.429   7.621
   85POPC   C1B 5947  31.321  44.914   8.692
   85POPC   C2B 5948  31.441   0.068   8.262
   85POPC   C3B 5949  31.316  44.925   7.868
   85POPC   C4B 5950  30.876  44.969   7.781
   86POPC   NC3 5951   9.744  44.016   9.597
   86POPC   PO4 5952   9.805  43.290   9.570
   86POPC   GL1 5953   9.612  43.591   9.233
   86POPC   GL2 5954   9.855  43.832   9.149
   86POPC   C1A 5955   9.471  43.886   8.853
   86POPC   D2A 5956   9.517  44.176   8.500
   86POPC   C3A 5957   9.565  44.019   8.099
   86POPC   C4A 5958   9.616  43.841   7.717
   86POPC   C1B 5959   9.993  44.174   8.871
   86POPC   C2B 5960   9.961  44.430   8.491
   86POPC   C3B 5961  10.053  44.382   8.051
   86POPC   C4B 5962   9.737  44.333   7.736
   87POPC   NC3 5963  34.765  42.550   9.423
   87POPC   PO4 5964  34.231  42.059   9.467
   87POPC   GL1 5965  34.404  42.283   9.140
   87POPC   GL2 5966  34.700  42.234   9.049
   87POPC   C1A 5967  34.352  42.169   8.694
   87POPC   D2A 5968  34.287  42.274   8.280
   87POPC   C3A 5969  34.546  42.519   8.046
   87POPC   C4A 5970  34.535  42.431   7.650
   87POPC   C1B 5971  34.952  42.318   8.755
   87POPC   C2B 5972  34.829  42.258   8.376
   87POPC   C3B 5973  34.935  41.990   8.057
   87POPC   C4B 5974  34.931  42.098   7.637
   88POPC   NC3 5975  29.196  16.808   9.569
   88POPC   PO4 5976  29.291  16.183   9.597
   88POPC   GL1 5977  29.225  16.411   9.155
   88POPC   GL2 5978  29.262  16.816   9.076
   88POPC   C1A 5979  29.089  16.497   8.720
   88POPC   D2A 5980  29.258  16.858   8.519
   88POPC   C3A 5981  29.339  16.851   8.100
   88POPC   C4A 5982  29.302  16.622   7.746
   88POPC   C1B 5983  28.846  16.917   8.901
   88POPC   C2B 5984  28.733  16.900   8.462
   88POPC   C3B 5985  28.889  16.638   8.124
   88POPC   C4B 5986  28.795  16.872   7.756
   89POPC   NC3 5987  30.224  17.062   9.747
   89POPC   PO4 5988  29.644  16.867   9.438
   89POPC   GL1 5989  29.876  16.700   9.061
   89POPC   GL2 5990  29.658  16.602   8.861
   89POPC   C1A 5991  30.023  16.891   8.640
   89POPC   D2A 5992  29.761  16.962   8.328
   89POPC   C3A 5993  29.823  16.798   7.916
   89POPC   C4A 5994  30.058  16.865   7.547
   89POPC   C1B 5995  30.012  16.385   8.647
   89POPC   C2B 5996  30.093  16.429   8.216
   89POPC   C3B 5997  30.091  16.382   7.770
   89POPC   C4B 5998  30.212  16.124   7.438
   90POPC   NC3 5999   0.372  38.718   9.913
   90POPC   PO4 6000   0.026  39.243   9.707
   90POPC   GL1 6001   0.180  39.232   9.254
   90POPC   GL2 6002   0.462  39.043   9.130
   90POPC   C1A 6003   0.155  39.229   8.766
   90POPC   D2A 6004   0.353  39.329   8.358
   90POPC   C3A 6005   0.390  39.024   8.021
   90POPC   C4A 6006   0.340  39.035   7.563
   90POPC   C1B 6007   0.663  39.063   8.678
   90POPC   C2B 6008   0.848  39.156   8.262
   90POPC   C3B 6009   0.942  38.850   7.955
   90POPC   C4B 6010   0.642  38.643   7.752
   91POPC   NC3 6011  15.996  29.655   9.595
   91POPC   PO4 6012  15.820  30.244   9.654
   91POPC   GL1 6013  15.739  29.967   9.280
   91POPC   GL2 6014  16.063  29.938   9.155
   91POPC   C1A 6015  15.632  29.857   8.835
   91POPC   D2A 6016  15.813  29.956   8.420
   91POPC   C3A 6017  15.896  29.972   7.972
   91POPC   C4A 6018  15.843  29.849   7.507
   91POPC   C1B 6019  16.143  30.115   8.771
   91POPC   C2B 6020  16.258  30.192   8.341
   91POPC   C3B 6021  16.378  30.162   7.931
   91POPC   C4B 6022  16.154  30.238   7.575
   92POPC   NC3 6023  36.701  35.413   9.379
   92POPC   PO4 6024  35.968  35.594   9.520
   92POPC   GL1 6025  36.191  35.370   9.197
   92POPC   GL2 6026  35.933  35.481   9.013
   92POPC   C1A 6027  36.281  35.225   8.756
   92POPC   D2A 6028  36.336  35.034   8.334
   92POPC   C3A 6029  36.261  35.133   7.863
   92POPC   C4A 6030  36.106  35.054   7.429
   92POPC   C1B 6031  35.930  35.713   8.657
   92POPC   C2B 6032  35.773  35.695   8.242
   92POPC   C3B 6033  35.944  35.537   7.859
   92POPC   C4B 6034  35.775  35.520   7.409
   93POPC   NC3 6035  43.746  34.235   9.584
   93POPC   PO4 6036  44.250  34.646   9.581
   93POPC   GL1 6037  43.993  34.462   9.212
   93POPC   GL2 6038  43.654  34.575   9.191
   93POPC   C1A 6039  44.076  34.526   8.773
   93POPC   D2A 6040  44.375  34.573   8.450
   93POPC   C3A 6041  44.083  34.550   8.153
   93POPC   C4A 6042  44.040  34.690   7.739
   93POPC   C1B 6043  43.506  34.612   8.765
   93POPC   C2B 6044  43.632  34.706   8.346
   93POPC   C3B 6045  43.579  34.601   7.915
   93POPC   C4B 6046  43.511  34.785   7.508
   94POPC   NC3 6047  33.573   5.964   9.613
   94POPC   PO4 6048  34.209   5.997   9.482
   94POPC   GL1 6049  33.891   5.912   9.174
   94POPC   GL2 6050  33.591   6.060   9.091
   94POPC   C1A 6051  33.946   5.814   8.725
   94POPC   D2A 6052  33.969   5.630   8.321
   94POPC   C3A 6053  33.900   5.958   8.074
   94POPC   C4A 6054  33.809   6.094   7.702
   94POPC   C1B 6055  33.545   5.592   8.948
   94POPC   C2B 6056  33.502   5.495   8.537
   94POPC   C3B 6057  33.442   5.827   8.244
   94POPC   C4B 6058  33.430   5.788   7.788
   95POPC   NC3 6059  31.753  14.864   9.467
   95POPC   PO4 6060  31.127  14.991   9.513
   95POPC   GL1 6061  31.374  15.191   9.201
   95POPC   GL2 6062  31.664  15.368   9.264
   95POPC   C1A 6063  31.327  15.154   8.779
   95POPC   D2A 6064  31.276  14.921   8.430
   95POPC   C3A 6065  31.315  15.052   8.017
   95POPC   C4A 6066  31.427  14.984   7.578
   95POPC   C1B 6067  31.831  15.259   8.839
   95POPC   C2B 6068  31.692  15.227   8.419
   95POPC   C3B 6069  31.679  15.395   8.036
   95POPC   C4B 6070  31.847  15.351   7.639
   96POPC   NC3 6071  31.967  35.943   9.609
   96POPC   PO4 6072  32.362  36.445   9.859
   96POPC   GL1 6073  32.264  36.304   9.386
   96POPC   GL2 6074  31.931  36.231   9.195
   96POPC   C1A 6075  32.408  36.260   8.957
   96POPC   D2A 6076  32.367  36.328   8.519
   96POPC   C3A 6077  32.403  35.963   8.250
   96POPC   C4A 6078  32.499  35.984   7.814
   96POPC   C1B 6079  31.982  36.001   8.790
   96POPC   C2B 6080  31.917  36.096   8.333
   96POPC   C3B 6081  31.965  35.971   7.898
   96POPC   C4B 6082  32.029  35.875   7.448
   97POPC   NC3 6083  11.454  16.519   9.475
   97POPC   PO4 6084  10.819  16.732   9.461
   97POPC   GL1 6085  11.056  16.575   9.132
   97POPC   GL2 6086  11.239  16.861   9.151
   97POPC   C1A 6087  11.421  16.558   8.801
   97POPC   D2A 6088  11.442  16.749   8.379
   97POPC   C3A 6089  11.415  16.501   8.030
   97POPC   C4A 6090  11.057  16.490   7.806
   97POPC   C1B 6091  11.123  16.946   8.722
   97POPC   C2B 6092  11.056  17.081   8.318
   97POPC   C3B 6093  11.186  16.986   7.908
   97POPC   C4B 6094  11.458  16.840   7.587
   98POPC   NC3 6095   9.314  31.001   9.472
   98POPC   PO4 6096   9.032  30.443   9.661
   98POPC   GL1 6097   8.913  30.607   9.260
   98POPC   GL2 6098   9.254  30.625   9.109
   98POPC   C1A 6099   8.862  30.455   8.836
   98POPC   D2A 6100   9.160  30.597   8.520
   98POPC   C3A 6101   9.028  30.422   8.123
   98POPC   C4A 6102   8.914  30.610   7.724
   98POPC   C1B 6103   8.987  30.964   8.889
   98POPC   C2B 6104   8.713  31.011   8.529
   98POPC   C3B 6105   8.833  30.942   8.109
   98POPC   C4B 6106   8.637  31.092   7.737
   99POPC   NC3 6107  28.018  23.663   9.572
   99POPC   PO4 6108  27.285  23.840   9.562
   99POPC   GL1 6109  27.620  23.786   9.268
   99POPC   GL2 6110  27.761  24.104   9.269
   99POPC   C1A 6111  27.864  23.621   8.915
   99POPC   D2A 6112  27.679  23.665   8.528
   99POPC   C3A 6113  27.866  23.684   8.126
   99POPC   C4A 6114  27.665  23.506   7.790
   99POPC   C1B 6115  27.689  24.115   8.842
   99POPC   C2B 6116  27.817  24.137   8.425
   99POPC   C3B 6117  27.545  24.101   8.093
   99POPC   C4B 6118  27.484  24.018   7.681
  100POPC   NC3 6119  36.801  36.587   9.432
  100POPC   PO4 6120  36.785  35.854   9.525
  100POPC   GL1 6121  36.803  36.144   9.183
  100POPC   GL2 6122  37.115  36.294   9.078
  100POPC   C1A 6123  36.728  36.153   8.745
  100POPC   D2A 6124  36.511  36.039   8.361
  100POPC   C3A 6125  36.813  36.018   8.079
  100POPC   C4A 6126  36.976  36.022   7.725
  100POPC   C1B 6127  37.160  36.545   8.673
  100POPC   C2B 6128  37.418  36.536   8.295
  100POPC   C3B 6129  37.196  36.463   7.900
  100POPC   C4B 6130  36.908  36.526   7.561
  101POPC   NC3 6131   2.808  15.388   9.398
  101POPC   PO4 6132   2.371  14.851   9.570
  101POPC   GL1 6133   2.706  14.884   9.218
  101POPC   GL2 6134   3.035  15.030   9.118
  101POPC   C1A 6135   2.676  14.950   8.757
  101POPC   D2A 6136   2.919  15.035   8.368
  101POPC   C3A 6137   2.597  15.130   8.060
  101POPC   C4A 6138   2.517  14.718   7.913
  101POPC   C1B 6139   3.038  15.320   8.774
  101POPC   C2B 6140   2.684  15.464   8.500
  101POPC   C3B 6141   2.784  15.628   8.134
  101POPC   C4B 6142   3.007  15.375   7.827
  102POPC   NC3 6143   3.002  18.737   9.456
  102POPC   PO4 6144   2.491  19.239   9.463
  102POPC   GL1 6145   2.695  19.039   9.149
  102POPC   GL2 6146   2.565  18.693   9.162
  102POPC   C1A 6147   2.703  19.223   8.760
  102POPC   D2A 6148   2.746  19.331   8.339
  102POPC   C3A 6149   2.597  19.123   7.983
  102POPC   C4A 6150   2.943  18.945   7.772
  102POPC   C1B 6151   2.599  18.723   8.717
  102POPC   C2B 6152   2.762  18.773   8.310
  102POPC   C3B 6153   2.713  18.531   7.947
  102POPC   C4B 6154   2.537  18.608   7.590
  103POPC   NC3 6155  32.598  38.219   9.365
  103POPC   PO4 6156  33.253  38.429   9.426
  103POPC   GL1 6157  33.025  38.221   9.104
  103POPC   GL2 6158  32.791  38.497   8.996
  103POPC   C1A 6159  33.036  38.204   8.676
  103POPC   D2A 6160  33.071  38.437   8.343
  103POPC   C3A 6161  33.046  38.262   7.964
  103POPC   C4A 6162  33.346  38.510   7.800
  103POPC   C1B 6163  33.130  38.716   8.787
  103POPC   C2B 6164  33.132  38.949   8.378
  103POPC   C3B 6165  32.975  38.810   7.971
  103POPC   C4B 6166  32.587  38.853   7.756
  104POPC   NC3 6167  21.594  40.954   9.362
  104POPC   PO4 6168  20.943  40.752   9.302
  104POPC   GL1 6169  21.271  40.691   9.066
  104POPC   GL2 6170  21.512  40.444   9.226
  104POPC   C1A 6171  21.282  40.854   8.653
  104POPC   D2A 6172  21.300  40.921   8.217
  104POPC   C3A 6173  21.081  40.727   7.909
  104POPC   C4A 6174  21.155  40.961   7.558
  104POPC   C1B 6175  21.732  40.570   8.846
  104POPC   C2B 6176  21.727  40.699   8.441
  104POPC   C3B 6177  21.859  40.617   8.040
  104POPC   C4B 6178  21.608  40.842   7.767
  105POPC   NC3 6179   1.230   7.633   9.683
  105POPC   PO4 6180   1.483   7.011   9.456
  105POPC   GL1 6181   1.368   7.431   9.206
  105POPC   GL2 6182   1.019   7.579   9.210
  105POPC   C1A 6183   1.282   7.630   8.788
  105POPC   D2A 6184   1.228   7.450   8.404
  105POPC   C3A 6185   1.488   7.523   8.047
  105POPC   C4A 6186   1.537   7.651   7.592
  105POPC   C1B 6187   0.891   7.315   8.854
  105POPC   C2B 6188   0.716   7.388   8.463
  105POPC   C3B 6189   0.872   7.516   8.053
  105POPC   C4B 6190   1.122   7.363   7.713
  106POPC   NC3 6191  39.640  26.912   9.669
  106POPC   PO4 6192  39.187  26.577   9.296
  106POPC   GL1 6193  39.540  26.818   9.133
  106POPC   GL2 6194  39.524  27.182   9.240
  106POPC   C1A 6195  39.457  26.733   8.693
  106POPC   D2A 6196  39.247  26.536   8.327
  106POPC   C3A 6197  39.432  26.697   7.943
  106POPC   C4A 6198  39.405  26.823   7.520
  106POPC   C1B 6199  39.266  27.204   8.889
  106POPC   C2B 6200  39.266  27.201   8.427
  106POPC   C3B 6201  38.981  26.961   8.147
  106POPC   C4B 6202  38.939  26.795   7.729
  107POPC   NC3 6203  34.020  37.605   9.617
  107POPC   PO4 6204  33.459  37.493   9.693
  107POPC   GL1 6205  33.678  37.607   9.244
  107POPC   GL2 6206  33.936  37.861   9.153
  107POPC   C1A 6207  33.712  37.527   8.785
  107POPC   D2A 6208  33.519  37.512   8.316
  107POPC   C3A 6209  33.736  37.571   7.918
  107POPC   C4A 6210  33.568  37.579   7.428
  107POPC   C1B 6211  33.877  38.018   8.738
  107POPC   C2B 6212  33.917  37.853   8.356
  107POPC   C3B 6213  34.116  37.915   7.999
  107POPC   C4B 6214  33.962  37.871   7.576
  108POPC   NC3 6215  11.516   4.888   9.436
  108POPC   PO4 6216  11.092   5.460   9.292
  108POPC   GL1 6217  11.240   5.097   9.074
  108POPC   GL2 6218  11.575   5.107   8.997
  108POPC   C1A 6219  11.224   4.912   8.667
  108POPC   D2A 6220  11.253   5.107   8.268
  108POPC   C3A 6221  11.205   4.925   7.854
  108POPC   C4A 6222  11.171   5.335   7.722
  108POPC   C1B 6223  11.544   5.329   8.665
  108POPC   C2B 6224  11.759   5.187   8.304
  108POPC   C3B 6225  11.623   5.222   7.915
  108POPC   C4B 6226  11.705   5.355   7.513
  109POPC   NC3 6227   4.008  41.093   9.406
  109POPC   PO4 6228   3.712  40.527   9.521
  109POPC   GL1 6229   3.572  40.707   9.153
  109POPC   GL2 6230   3.856  40.796   8.969
  109POPC   C1A 6231   3.486  40.497   8.757
  109POPC   D2A 6232   3.539  40.664   8.351
  109POPC   C3A 6233   3.203  40.601   8.085
  109POPC   C4A 6234   3.399  40.518   7.699
  109POPC   C1B 6235   3.476  41.014   8.744
  109POPC   C2B 6236   3.338  41.115   8.333
  109POPC   C3B 6237   3.430  41.010   7.898
  109POPC   C4B 6238   3.255  41.131   7.497
  110POPC   NC3 6239  11.624  38.412   9.473
  110POPC   PO4 6240  10.967  38.609   9.573
  110POPC   GL1 6241  11.127  38.427   9.199
  110POPC   GL2 6242  11.346  38.702   9.173
  110POPC   C1A 6243  11.289  38.303   8.787
  110POPC   D2A 6244  11.445  38.463   8.352
  110POPC   C3A 6245  11.375  38.173   8.003
  110POPC   C4A 6246  11.216  38.290   7.601
  110POPC   C1B 6247  11.464  38.822   8.773
  110POPC   C2B 6248  11.217  39.050   8.450
  110POPC   C3B 6249  10.990  38.883   8.111
  110POPC   C4B 6250  11.074  38.751   7.712
  111POPC   NC3 6251   4.101  27.034   9.482
  111POPC   PO4 6252   4.624  26.584   9.653
  111POPC   GL1 6253   4.441  26.820   9.217
  111POPC   GL2 6254   4.568  27.067   9.071
  111POPC   C1A 6255   4.170  26.731   8.826
  111POPC   D2A 6256   4.325  26.788   8.392
  111POPC   C3A 6257   4.201  26.671   7.988
  111POPC   C4A 6258   4.578  26.562   7.748
  111POPC   C1B 6259   4.462  27.162   8.711
  111POPC   C2B 6260   4.642  27.194   8.318
  111POPC   C3B 6261   4.522  27.057   7.914
  111POPC   C4B 6262   4.114  27.255   7.746
  112POPC   NC3 6263  22.788  38.454   9.687
  112POPC   PO4 6264  23.448  38.712   9.701
  112POPC   GL1 6265  23.309  38.627   9.169
  112POPC   GL2 6266  23.091  38.326   9.089
  112POPC   C1A 6267  23.071  38.717   8.736
  112POPC   D2A 6268  23.030  38.422   8.391
  112POPC   C3A 6269  22.791  38.535   8.020
  112POPC   C4A 6270  22.701  38.908   7.792
  112POPC   C1B 6271  22.767  38.153   8.762
  112POPC   C2B 6272  22.562  38.157   8.322
  112POPC   C3B 6273  22.572  38.097   7.873
  112POPC   C4B 6274  22.466  38.467   7.600
  113POPC   NC3 6275  13.991  14.467   9.685
  113POPC   PO4 6276  13.439  14.483   9.595
  113POPC   GL1 6277  13.398  14.545   9.139
  113POPC   GL2 6278  13.561  14.259   9.020
  113POPC   C1A 6279  13.434  14.637   8.664
  113POPC   D2A 6280  13.408  14.404   8.254
  113POPC   C3A 6281  13.331  14.593   7.827
  113POPC   C4A 6282  13.326  15.030   7.666
  113POPC   C1B 6283  13.211  14.183   8.731
  113POPC   C2B 6284  13.024  14.082   8.331
  113POPC   C3B 6285  13.261  14.024   7.935
  113POPC   C4B 6286  13.507  14.203   7.575
  114POPC   NC3 6287   8.455  42.867   9.290
  114POPC   PO4 6288   8.041  43.402   9.508
  114POPC   GL1 6289   8.234  43.286   9.136
  114POPC   GL2 6290   8.600  43.337   9.108
  114POPC   C1A 6291   8.076  43.130   8.757
  114POPC   D2A 6292   8.120  43.312   8.376
  114POPC   C3A 6293   8.029  42.988   8.120
  114POPC   C4A 6294   8.050  43.074   7.719
  114POPC   C1B 6295   8.558  43.318   8.672
  114POPC   C2B 6296   8.518  42.985   8.349
  114POPC   C3B 6297   8.497  42.880   7.909
  114POPC   C4B 6298   8.570  43.247   7.619
  115POPC   NC3 6299  11.083   4.016   9.100
  115POPC   PO4 6300  11.205   4.520   9.507
  115POPC   GL1 6301  11.299   4.547   9.078
  115POPC   GL2 6302  11.641   4.481   9.128
  115POPC   C1A 6303  11.273   4.415   8.633
  115POPC   D2A 6304  11.298   4.604   8.239
  115POPC   C3A 6305  11.013   4.438   7.953
  115POPC   C4A 6306  11.140   4.042   7.795
  115POPC   C1B 6307  11.737   4.644   8.725
  115POPC   C2B 6308  11.749   4.347   8.369
  115POPC   C3B 6309  11.591   4.259   7.950
  115POPC   C4B 6310  11.397   4.470   7.607
  116POPC   NC3 6311  20.465  30.103   9.627
  116POPC   PO4 6312  20.998  29.802   9.481
  116POPC   GL1 6313  20.827  30.021   9.148
  116POPC   GL2 6314  20.469  30.002   9.114
  116POPC   C1A 6315  20.954  30.004   8.730
  116POPC   D2A 6316  20.951  29.717   8.407
  116POPC   C3A 6317  20.862  29.946   8.023
  116POPC   C4A 6318  20.835  29.716   7.655
  116POPC   C1B 6319  20.400  30.154   8.707
  116POPC   C2B 6320  20.478  29.913   8.367
  116POPC   C3B 6321  20.366  29.804   7.964
  116POPC   C4B 6322  20.332  29.947   7.557
  117POPC   NC3 6323   0.029  10.209   9.430
  117POPC   PO4 6324   0.671  10.408   9.440
  117POPC   GL1 6325   0.516  10.740   9.227
  117POPC   GL2 6326   0.795  10.851   9.049
  117POPC   C1A 6327   0.306  10.671   8.845
  117POPC   D2A 6328   0.496  10.702   8.480
  117POPC   C3A 6329   0.320  10.468   8.149
  117POPC   C4A 6330   0.175  10.300   7.778
  117POPC   C1B 6331   0.880  10.507   8.793
  117POPC   C2B 6332   1.002  10.629   8.391
  117POPC   C3B 6333   0.768  10.713   8.039
  117POPC   C4B 6334   0.708  10.519   7.679
  118POPC   NC3 6335  13.302  31.690   9.520
  118POPC   PO4 6336  13.604  32.300   9.500
  118POPC   GL1 6337  13.574  32.065   9.122
  118POPC   GL2 6338  13.233  31.981   9.061
  118POPC   C1A 6339  13.771  32.135   8.703
  118POPC   D2A 6340  13.913  31.923   8.295
  118POPC   C3A 6341  13.737  32.159   7.950
  118POPC   C4A 6342  13.895  32.512   7.738
  118POPC   C1B 6343  13.087  32.115   8.629
  118POPC   C2B 6344  13.271  32.206   8.204
  118POPC   C3B 6345  13.392  32.546   7.883
  118POPC   C4B 6346  13.489  32.401   7.450
  119POPC   NC3 6347  30.453  44.868   9.594
  119POPC   PO4 6348  30.970  44.443   9.542
  119POPC   GL1 6349  30.731  44.550   9.150
  119POPC   GL2 6350  30.415  44.576   9.173
  119POPC   C1A 6351  30.772  44.773   8.740
  119POPC   D2A 6352  30.931  44.928   8.331
  119POPC   C3A 6353  31.007  44.572   8.061
  119POPC   C4A 6354  30.776  44.479   7.717
  119POPC   C1B 6355  30.266  44.817   8.850
  119POPC   C2B 6356  30.205  44.768   8.436
  119POPC   C3B 6357  30.473  44.747   8.088
  119POPC   C4B 6358  30.356  44.810   7.677
  120POPC   NC3 6359  44.005  36.020   9.435
  120POPC   PO4 6360  44.082  36.618   9.526
  120POPC   GL1 6361  44.075  36.427   9.081
  120POPC   GL2 6362  43.781  36.234   9.043
  120POPC   C1A 6363  44.052  36.184   8.631
  120POPC   D2A 6364  44.024  35.864   8.271
  120POPC   C3A 6365  43.871  36.042   7.865
  120POPC   C4A 6366  43.652  36.444   7.868
  120POPC   C1B 6367  43.500  36.167   8.746
  120POPC   C2B 6368  43.491  36.402   8.381
  120POPC   C3B 6369  43.407  36.083   8.131
  120POPC   C4B 6370  43.366  36.062   7.710
  121POPC   NC3 6371  38.094  33.658   9.610
  121POPC   PO4 6372  37.473  33.892   9.442
  121POPC   GL1 6373  37.651  33.811   9.086
  121POPC   GL2 6374  37.452  33.543   8.987
  121POPC   C1A 6375  37.542  33.984   8.695
  121POPC   D2A 6376  37.403  33.796   8.304
  121POPC   C3A 6377  37.612  33.929   7.913
  121POPC   C4A 6378  37.813  34.131   7.538
  121POPC   C1B 6379  37.764  33.505   8.630
  121POPC   C2B 6380  37.825  33.516   8.173
  121POPC   C3B 6381  37.569  33.420   7.808
  121POPC   C4B 6382  37.120  33.465   7.836
  122POPC   NC3 6383  36.628  23.816   9.550
  122POPC   PO4 6384  37.173  23.405   9.447
  122POPC   GL1 6385  36.970  23.634   9.151
  122POPC   GL2 6386  36.645  23.612   9.032
  122POPC   C1A 6387  37.070  23.718   8.741
  122POPC   D2A 6388  36.891  23.782   8.353
  122POPC   C3A 6389  37.143  23.745   8.024
  122POPC   C4A 6390  37.080  23.879   7.587
  122POPC   C1B 6391  36.622  23.413   8.602
  122POPC   C2B 6392  36.675  23.366   8.158
  122POPC   C3B 6393  36.690  23.667   7.834
  122POPC   C4B 6394  36.731  23.572   7.395
  123POPC   NC3 6395   2.794   5.482   9.602
  123POPC   PO4 6396   2.703   4.779   9.666
  123POPC   GL1 6397   2.566   5.070   9.296
  123POPC   GL2 6398   2.924   5.109   9.221
  123POPC   C1A 6399   2.619   5.255   8.842
  123POPC   D2A 6400   2.879   5.135   8.504
  123POPC   C3A 6401   2.719   5.020   8.101
  123POPC   C4A 6402   2.544   5.175   7.715
  123POPC   C1B 6403   3.169   4.822   8.917
  123POPC   C2B 6404   3.147   4.689   8.482
  123POPC   C3B 6405   2.983   4.584   8.024
  123POPC   C4B 6406   3.150   4.586   7.585
  124POPC   NC3 6407  11.549  24.377   9.449
  124POPC   PO4 6408  10.904  24.497   9.192
  124POPC   GL1 6409  11.335  24.537   9.022
  124POPC   GL2 6410  11.657  24.308   8.962
  124POPC   C1A 6411  11.477  24.668   8.615
  124POPC   D2A 6412  11.396  24.447   8.226
  124POPC   C3A 6413  11.458  24.545   7.791
  124POPC   C4A 6414  11.172  24.639   7.441
  124POPC   C1B 6415  11.351  24.110   8.744
  124POPC   C2B 6416  11.356  23.926   8.368
  124POPC   C3B 6417  11.150  24.060   8.011
  124POPC   C4B 6418  11.085  24.196   7.645
  125POPC   NC3 6419  25.010  23.290   9.533
  125POPC   PO4 6420  25.541  22.923   9.586
  125POPC   GL1 6421  25.322  22.901   9.190
  125POPC   GL2 6422  24.985  22.884   9.239
  125POPC   C1A 6423  25.396  22.857   8.757
  125POPC   D2A 6424  25.545  22.686   8.378
  125POPC   C3A 6425  25.492  22.876   8.025
  125POPC   C4A 6426  25.267  22.799   7.666
  125POPC   C1B 6427  24.907  23.066   8.861
  125POPC   C2B 6428  24.966  22.907   8.434
  125POPC   C3B 6429  25.034  23.085   8.033
  125POPC   C4B 6430  24.883  23.110   7.574
  126POPC   NC3 6431  36.477  26.224   9.428
  126POPC   PO4 6432  36.965  25.686   9.483
  126POPC   GL1 6433  36.781  25.780   9.097
  126POPC   GL2 6434  36.583  26.039   8.973
  126POPC   C1A 6435  37.013  25.922   8.723
  126POPC   D2A 6436  36.870  26.031   8.334
  126POPC   C3A 6437  37.160  26.138   8.041
  126POPC   C4A 6438  36.943  26.079   7.677
  126POPC   C1B 6439  36.757  26.380   8.750
  126POPC   C2B 6440  36.974  26.521   8.410
  126POPC   C3B 6441  36.835  26.547   7.971
  126POPC   C4B 6442  36.723  26.530   7.518
  127POPC   NC3 6443   0.848  13.296   9.572
  127POPC   PO4 6444   1.355  13.817   9.446
  127POPC   GL1 6445   1.327  13.639   9.032
  127POPC   GL2 6446   0.983  13.490   8.964
  127POPC   C1A 6447   1.323  13.623   8.595
  127POPC   D2A 6448   0.966  13.514   8.394
  127POPC   C3A 6449   1.137  13.497   8.043
  127POPC   C4A 6450   1.552  13.555   7.831
  127POPC   C1B 6451   1.157  13.143   8.667
  127POPC   C2B 6452   1.272  13.029   8.254
  127POPC   C3B 6453   1.349  13.092   7.830
  127POPC   C4B 6454   1.129  13.393   7.556
  128POPC   NC3 6455  24.329   2.465   9.542
  128POPC   PO4 6456  24.592   1.852   9.522
  128POPC   GL1 6457  24.357   1.949   9.117
  128POPC   GL2 6458  24.414   2.268   8.982
  128POPC   C1A 6459  24.251   1.917   8.648
  128POPC   D2A 6460  24.527   2.078   8.299
  128POPC   C3A 6461  24.336   1.891   7.924
  128POPC   C4A 6462  24.312   1.807   7.469
  128POPC   C1B 6463  24.689   2.515   8.688
  128POPC   C2B 6464  24.898   2.486   8.289
  128POPC   C3B 6465  24.800   2.467   7.886
  128POPC   C4B 6466  24.716   2.095   7.662
  129POPC   NC3 6467  26.317  37.258   9.341
  129POPC   PO4 6468  25.966  36.754   9.505
  129POPC   GL1 6469  26.031  36.902   9.109
  129POPC   GL2 6470  25.878  37.256   9.109
  129POPC   C1A 6471  26.167  36.740   8.705
  129POPC   D2A 6472  26.441  36.731   8.374
  129POPC   C3A 6473  26.199  36.783   8.007
  129POPC   C4A 6474  26.147  36.845   7.576
  129POPC   C1B 6475  25.788  37.095   8.712
  129POPC   C2B 6476  25.902  37.116   8.282
  129POPC   C3B 6477  25.807  37.112   7.838
  129POPC   C4B 6478  25.622  36.964   7.435
  130POPC   NC3 6479  36.590   8.125   9.344
  130POPC   PO4 6480  35.983   8.349   9.507
  130POPC   GL1 6481  36.139   8.247   9.137
  130POPC   GL2 6482  35.918   8.020   9.070
  130POPC   C1A 6483  36.385   8.286   8.756
  130POPC   D2A 6484  36.522   8.049   8.404
  130POPC   C3A 6485  36.243   8.055   8.057
  130POPC   C4A 6486  36.328   8.265   7.671
  130POPC   C1B 6487  35.734   7.873   8.745
  130POPC   C2B 6488  35.786   8.101   8.371
  130POPC   C3B 6489  35.666   8.503   8.228
  130POPC   C4B 6490  35.857   8.355   7.841
  131POPC   NC3 6491  14.729  10.237   9.433
  131POPC   PO4 6492  14.172  10.422   9.559
  131POPC   GL1 6493  14.246  10.575   9.164
  131POPC   GL2 6494  14.598  10.591   9.083
  131POPC   C1A 6495  14.087  10.650   8.783
  131POPC   D2A 6496  13.981  10.616   8.379
  131POPC   C3A 6497  14.212  10.797   8.078
  131POPC   C4A 6498  14.097  10.551   7.800
  131POPC   C1B 6499  14.586  10.349   8.722
  131POPC   C2B 6500  14.418  10.348   8.335
  131POPC   C3B 6501  14.565  10.389   7.933
  131POPC   C4B 6502  14.880  10.446   7.637
  132POPC   NC3 6503  12.252  35.470   9.528
  132POPC   PO4 6504  12.484  34.858   9.511
  132POPC   GL1 6505  12.296  35.141   9.140
  132POPC   GL2 6506  11.950  35.255   9.171
  132POPC   C1A 6507  12.198  35.519   8.822
  132POPC   D2A 6508  12.046  35.434   8.384
  132POPC   C3A 6509  12.095  35.475   7.932
  132POPC   C4A 6510  12.189  35.141   7.604
  132POPC   C1B 6511  11.799  35.179   8.768
  132POPC   C2B 6512  11.665  35.057   8.365
  132POPC   C3B 6513  11.791  35.057   7.917
  132POPC   C4B 6514  11.705  35.216   7.491
  133POPC   NC3 6515  25.902  27.197   9.217
  133POPC   PO4 6516  26.008  27.710   9.668
  133POPC   GL1 6517  25.948  27.739   9.224
  133POPC   GL2 6518  26.271  27.885   9.205
  133POPC   C1A 6519  25.813  27.734   8.760
  133POPC   D2A 6520  25.968  27.439   8.421
  133POPC   C3A 6521  25.769  27.476   8.009
  133POPC   C4A 6522  25.779  27.270   7.560
  133POPC   C1B 6523  26.293  27.632   8.845
  133POPC   C2B 6524  26.443  27.670   8.460
  133POPC   C3B 6525  26.371  27.620   8.052
  133POPC   C4B 6526  26.178  27.535   7.697
  134POPC   NC3 6527   2.886  25.580   9.423
  134POPC   PO4 6528   2.783  24.877   9.510
  134POPC   GL1 6529   2.835  25.145   9.138
  134POPC   GL2 6530   2.537  25.383   9.088
  134POPC   C1A 6531   2.898  25.292   8.706
  134POPC   D2A 6532   2.671  25.262   8.302
  134POPC   C3A 6533   2.848  25.218   7.914
  134POPC   C4A 6534   2.962  25.526   7.650
  134POPC   C1B 6535   2.391  25.137   8.719
  134POPC   C2B 6536   2.175  25.132   8.308
  134POPC   C3B 6537   2.336  25.067   7.885
  134POPC   C4B 6538   2.520  25.264   7.524
  135POPC   NC3 6539  14.921  37.174   9.579
  135POPC   PO4 6540  15.560  37.069   9.514
  135POPC   GL1 6541  15.300  37.111   9.145
  135POPC   GL2 6542  15.030  37.334   9.109
  135POPC   C1A 6543  15.163  36.994   8.725
  135POPC   D2A 6544  15.348  36.942   8.324
  135POPC   C3A 6545  15.274  36.709   7.960
  135POPC   C4A 6546  15.370  36.894   7.581
  135POPC   C1B 6547  14.871  37.497   8.724
  135POPC   C2B 6548  15.016  37.326   8.337
  135POPC   C3B 6549  15.146  37.213   7.922
  135POPC   C4B 6550  15.009  37.262   7.504
  136POPC   NC3 6551  29.526   1.538   9.493
  136POPC   PO4 6552  30.165   1.849   9.450
  136POPC   GL1 6553  29.785   1.844   9.143
  136POPC   GL2 6554  29.649   2.167   8.973
  136POPC   C1A 6555  29.896   1.749   8.725
  136POPC   D2A 6556  29.849   2.027   8.403
  136POPC   C3A 6557  29.771   1.815   8.036
  136POPC   C4A 6558  29.658   1.560   7.705
  136POPC   C1B 6559  29.982   2.413   8.751
  136POPC   C2B 6560  30.202   2.413   8.344
  136POPC   C3B 6561  30.076   2.327   7.912
  136POPC   C4B 6562  30.022   2.386   7.447
  137POPC   NC3 6563  35.797  25.320   9.672
  137POPC   PO4 6564  35.259  25.585   9.395
  137POPC   GL1 6565  35.427  25.264   9.160
  137POPC   GL2 6566  35.108  25.123   9.148
  137POPC   C1A 6567  35.631  25.138   8.725
  137POPC   D2A 6568  35.665  25.362   8.342
  137POPC   C3A 6569  35.693  25.099   7.992
  137POPC   C4A 6570  35.556  25.199   7.606
  137POPC   C1B 6571  35.172  25.359   8.747
  137POPC   C2B 6572  35.018  25.224   8.388
  137POPC   C3B 6573  35.164  25.165   7.984
  137POPC   C4B 6574  35.057  24.994   7.644
  138POPC   NC3 6575  20.301  33.120   9.529
  138POPC   PO4 6576  19.681  32.895   9.513
  138POPC   GL1 6577  19.948  33.000   9.162
  138POPC   GL2 6578  19.981  33.364   9.219
  138POPC   C1A 6579  19.842  32.917   8.721
  138POPC   D2A 6580  19.987  32.946   8.293
  138POPC   C3A 6581  19.667  32.954   7.967
  138POPC   C4A 6582  19.640  32.746   7.571
  138POPC   C1B 6583  19.780  33.427   8.862
  138POPC   C2B 6584  19.854  33.410   8.437
  138POPC   C3B 6585  19.830  33.427   7.990
  138POPC   C4B 6586  19.823  33.244   7.564
  139POPC   NC3 6587  27.730  39.009   9.449
  139POPC   PO4 6588  27.594  39.665   9.438
  139POPC   GL1 6589  27.569  39.374   9.074
  139POPC   GL2 6590  27.368  39.024   9.102
  139POPC   C1A 6591  27.709  39.425   8.645
  139POPC   D2A 6592  27.560  39.229   8.279
  139POPC   C3A 6593  27.761  39.284   7.853
  139POPC   C4A 6594  27.823  39.468   7.421
  139POPC   C1B 6595  27.671  38.914   8.756
  139POPC   C2B 6596  27.903  38.858   8.357
  139POPC   C3B 6597  27.646  38.813   7.983
  139POPC   C4B 6598  27.268  39.044   7.904
  140POPC   NC3 6599  39.506  29.174   9.526
  140POPC   PO4 6600  39.056  28.729   9.381
  140POPC   GL1 6601  39.277  28.932   9.047
  140POPC   GL2 6602  39.183  29.241   9.108
  140POPC   C1A 6603  39.308  29.138   8.628
  140POPC   D2A 6604  39.028  29.323   8.325
  140POPC   C3A 6605  39.208  29.148   7.977
  140POPC   C4A 6606  39.211  28.732   7.827
  140POPC   C1B 6607  38.836  29.093   8.835
  140POPC   C2B 6608  38.618  29.061   8.480
  140POPC   C3B 6609  38.741  28.956   8.065
  140POPC   C4B 6610  38.642  28.673   7.776
  141POPC   NC3 6611  31.735  33.051   9.486
  141POPC   PO4 6612  31.091  32.842   9.488
  141POPC   GL1 6613  31.324  32.937   9.135
  141POPC   GL2 6614  31.153  32.778   8.905
  141POPC   C1A 6615  31.472  33.163   8.743
  141POPC   D2A 6616  31.580  33.030   8.340
  141POPC   C3A 6617  31.278  33.138   8.007
  141POPC   C4A 6618  31.574  33.230   7.701
  141POPC   C1B 6619  31.126  32.875   8.487
  141POPC   C2B 6620  31.303  32.649   8.161
  141POPC   C3B 6621  31.363  32.667   7.741
  141POPC   C4B 6622  31.243  32.929   7.452
  142POPC   NC3 6623  14.474  26.129   9.603
  142POPC   PO4 6624  13.828  25.878   9.375
  142POPC   GL1 6625  14.214  25.951   9.097
  142POPC   GL2 6626  14.303  26.272   9.123
  142POPC   C1A 6627  14.267  26.101   8.639
  142POPC   D2A 6628  14.327  26.405   8.301
  142POPC   C3A 6629  14.166  26.256   7.936
  142POPC   C4A 6630  14.294  25.828   7.854
  142POPC   C1B 6631  14.642  26.385   8.823
  142POPC   C2B 6632  14.789  26.245   8.406
  142POPC   C3B 6633  14.675  26.151   7.976
  142POPC   C4B 6634  14.912  26.264   7.596
  143POPC   NC3 6635   1.852  23.930   9.706
  143POPC   PO4 6636   2.018  24.660   9.628
  143POPC   GL1 6637   2.143  24.645   9.190
  143POPC   GL2 6638   1.962  24.348   9.052
  143POPC   C1A 6639   2.262  24.620   8.752
  143POPC   D2A 6640   1.922  24.482   8.474
  143POPC   C3A 6641   2.039  24.539   8.067
  143POPC   C4A 6642   2.109  24.656   7.666
  143POPC   C1B 6643   2.182  24.099   8.742
  143POPC   C2B 6644   2.397  24.249   8.380
  143POPC   C3B 6645   2.466  24.190   7.950
  143POPC   C4B 6646   2.152  24.159   7.651
  144POPC   NC3 6647  25.991  37.950   9.617
  144POPC   PO4 6648  26.394  38.513   9.550
  144POPC   GL1 6649  26.101  38.447   9.204
  144POPC   GL2 6650  25.853  38.186   9.201
  144POPC   C1A 6651  25.862  38.567   8.839
  144POPC   D2A 6652  26.012  38.803   8.506
  144POPC   C3A 6653  25.959  38.654   8.115
  144POPC   C4A 6654  26.127  38.899   7.793
  144POPC   C1B 6655  25.959  38.058   8.792
  144POPC   C2B 6656  25.945  38.226   8.413
  144POPC   C3B 6657  25.924  38.052   8.028
  144POPC   C4B 6658  26.006  38.119   7.610
  145POPC   NC3 6659  36.099  10.187   9.626
  145POPC   PO4 6660  36.271  10.848   9.804
  145POPC   GL1 6661  36.280  10.744   9.327
  145POPC   GL2 6662  36.090  10.446   9.192
  145POPC   C1A 6663  36.174  10.802   8.845
  145POPC   D2A 6664  36.149  10.585   8.425
  145POPC   C3A 6665  36.146  10.782   8.007
  145POPC   C4A 6666  36.160  10.731   7.509
  145POPC   C1B 6667  36.213  10.233   8.806
  145POPC   C2B 6668  36.375  10.094   8.394
  145POPC   C3B 6669  36.388  10.317   8.025
  145POPC   C4B 6670  36.336  10.252   7.577
  146POPC   NC3 6671  26.563   2.615   9.355
  146POPC   PO4 6672  27.202   2.854   9.491
  146POPC   GL1 6673  27.007   2.857   9.079
  146POPC   GL2 6674  26.766   3.121   9.122
  146POPC   C1A 6675  26.739   2.669   8.730
  146POPC   D2A 6676  26.791   2.625   8.284
  146POPC   C3A 6677  26.467   2.687   7.970
  146POPC   C4A 6678  26.765   2.599   7.656
  146POPC   C1B 6679  26.608   3.162   8.690
  146POPC   C2B 6680  26.597   3.109   8.241
  146POPC   C3B 6681  26.816   3.059   7.844
  146POPC   C4B 6682  26.758   3.012   7.349
  147POPC   NC3 6683  23.308  40.763   9.485
  147POPC   PO4 6684  23.949  41.087   9.481
  147POPC   GL1 6685  23.793  40.855   9.158
  147POPC   GL2 6686  23.464  40.970   9.061
  147POPC   C1A 6687  23.776  40.769   8.738
  147POPC   D2A 6688  23.537  40.677   8.378
  147POPC   C3A 6689  23.709  40.733   7.962
  147POPC   C4A 6690  23.734  40.878   7.542
  147POPC   C1B 6691  23.281  40.584   8.825
  147POPC   C2B 6692  23.241  40.240   8.474
  147POPC   C3B 6693  23.396  40.335   8.020
  147POPC   C4B 6694  23.579  40.398   7.571
  148POPC   NC3 6695  44.538  41.080   9.432
  148POPC   PO4 6696  44.797  40.406   9.553
  148POPC   GL1 6697  44.760  40.455   9.076
  148POPC   GL2 6698  44.493  40.680   9.048
  148POPC   C1A 6699  44.752  40.587   8.619
  148POPC   D2A 6700  44.668  40.957   8.352
  148POPC   C3A 6701  44.773  40.969   7.937
  148POPC   C4A 6702   0.037  40.820   7.653
  148POPC   C1B 6703  44.311  40.881   8.715
  148POPC   C2B 6704  44.172  41.066   8.346
  148POPC   C3B 6705  44.271  40.949   7.902
  148POPC   C4B 6706  44.504  40.674   7.605
  149POPC   NC3 6707  19.968  22.419   9.737
  149POPC   PO4 6708  19.979  23.137   9.620
  149POPC   GL1 6709  20.060  22.998   9.211
  149POPC   GL2 6710  19.952  22.687   9.019
  149POPC   C1A 6711  20.179  23.085   8.795
  149POPC   D2A 6712  19.989  22.849   8.463
  149POPC   C3A 6713  19.959  23.035   8.066
  149POPC   C4A 6714  19.973  22.889   7.645
  149POPC   C1B 6715  19.590  22.753   8.749
  149POPC   C2B 6716  19.412  22.816   8.321
  149POPC   C3B 6717  19.528  22.789   7.899
  149POPC   C4B 6718  19.526  23.082   7.535
  150POPC   NC3 6719   1.296  29.571   9.606
  150POPC   PO4 6720   0.815  30.086   9.446
  150POPC   GL1 6721   0.887  29.893   9.044
  150POPC   GL2 6722   1.210  29.770   9.134
  150POPC   C1A 6723   0.993  29.584   8.713
  150POPC   D2A 6724   1.149  29.590   8.308
  150POPC   C3A 6725   0.893  29.817   8.056
  150POPC   C4A 6726   1.057  30.055   7.772
  150POPC   C1B 6727   1.591  29.687   8.926
  150POPC   C2B 6728   1.631  29.765   8.489
  150POPC   C3B 6729   1.594  29.713   8.046
  150POPC   C4B 6730   1.581  30.036   7.746
  151POPC   NC3 6731  24.231  38.822   9.308
  151POPC   PO4 6732  24.668  38.292   9.550
  151POPC   GL1 6733  24.655  38.248   9.144
  151POPC   GL2 6734  24.682  38.612   9.137
  151POPC   C1A 6735  24.476  38.339   8.752
  151POPC   D2A 6736  24.311  38.393   8.340
  151POPC   C3A 6737  24.604  38.416   8.057
  151POPC   C4A 6738  24.350  38.280   7.775
  151POPC   C1B 6739  24.630  38.864   8.773
  151POPC   C2B 6740  24.466  38.868   8.374
  151POPC   C3B 6741  24.640  38.917   7.987
  151POPC   C4B 6742  24.709  38.673   7.605
  152POPC   NC3 6743  33.342  28.891   9.338
  152POPC   PO4 6744  33.829  29.178   9.700
  152POPC   GL1 6745  33.792  29.299   9.266
  152POPC   GL2 6746  33.978  28.989   9.148
  152POPC   C1A 6747  33.965  29.388   8.835
  152POPC   D2A 6748  34.107  29.119   8.499
  152POPC   C3A 6749  34.012  29.254   8.090
  152POPC   C4A 6750  33.928  29.285   7.642
  152POPC   C1B 6751  33.730  28.857   8.765
  152POPC   C2B 6752  33.610  29.017   8.335
  152POPC   C3B 6753  33.676  28.919   7.898
  152POPC   C4B 6754  33.667  28.872   7.433
  153POPC   NC3 6755  32.580  44.367   9.536
  153POPC   PO4 6756  32.585  44.933   9.323
  153POPC   GL1 6757  32.307  44.630   9.068
  153POPC   GL2 6758  32.047  44.359   9.177
  153POPC   C1A 6759  32.079  44.835   8.721
  153POPC   D2A 6760  31.883  44.814   8.315
  153POPC   C3A 6761  32.143  44.715   7.933
  153POPC   C4A 6762  32.264   0.017   7.642
  153POPC   C1B 6763  32.102  44.238   8.727
  153POPC   C2B 6764  32.066  44.348   8.277
  153POPC   C3B 6765  31.983  44.146   7.879
  153POPC   C4B 6766  31.946  44.397   7.485
  154POPC   NC3 6767  11.451  18.168   9.430
  154POPC   PO4 6768  11.036  18.708   9.427
  154POPC   GL1 6769  11.269  18.508   9.081
  154POPC   GL2 6770  11.599  18.640   8.950
  154POPC   C1A 6771  11.255  18.112   8.824
  154POPC   D2A 6772  11.129  17.919   8.446
  154POPC   C3A 6773  11.374  17.947   8.071
  154POPC   C4A 6774  11.118  18.026   7.707
  154POPC   C1B 6775  11.325  18.545   8.570
  154POPC   C2B 6776  11.153  18.387   8.197
  154POPC   C3B 6777  11.375  18.459   7.825
  154POPC   C4B 6778  11.730  18.695   7.680
  155POPC   NC3 6779  29.667  16.388   9.411
  155POPC   PO4 6780  29.785  15.712   9.518
  155POPC   GL1 6781  30.035  15.897   9.186
  155POPC   GL2 6782  29.828  16.121   9.026
  155POPC   C1A 6783  30.082  15.834   8.715
  155POPC   D2A 6784  29.830  15.985   8.366
  155POPC   C3A 6785  29.972  15.865   7.959
  155POPC   C4A 6786  30.335  15.714   7.771
  155POPC   C1B 6787  29.481  16.163   8.741
  155POPC   C2B 6788  29.513  16.425   8.392
  155POPC   C3B 6789  29.625  16.325   8.005
  155POPC   C4B 6790  29.678  16.129   7.636
  156POPC   NC3 6791  14.601   8.535   9.381
  156POPC   PO4 6792  14.546   7.861   9.372
  156POPC   GL1 6793  14.549   8.138   9.033
  156POPC   GL2 6794  14.743   8.444   8.913
  156POPC   C1A 6795  14.469   8.108   8.607
  156POPC   D2A 6796  14.469   8.373   8.251
  156POPC   C3A 6797  14.391   8.109   7.926
  156POPC   C4A 6798  14.333   8.066   7.507
  156POPC   C1B 6799  14.743   8.736   8.580
  156POPC   C2B 6800  14.899   8.643   8.169
  156POPC   C3B 6801  14.700   8.519   7.752
  156POPC   C4B 6802  14.612   8.455   7.271
  157POPC   NC3 6803  36.205   2.178   9.518
  157POPC   PO4 6804  35.539   2.038   9.698
  157POPC   GL1 6805  35.786   2.096   9.153
  157POPC   GL2 6806  36.093   2.214   9.045
  157POPC   C1A 6807  35.859   2.018   8.667
  157POPC   D2A 6808  36.070   1.761   8.326
  157POPC   C3A 6809  36.185   2.009   7.967
  157POPC   C4A 6810  36.053   2.012   7.525
  157POPC   C1B 6811  36.371   2.344   8.744
  157POPC   C2B 6812  36.511   2.163   8.365
  157POPC   C3B 6813  36.482   2.412   8.037
  157POPC   C4B 6814  36.241   2.445   7.679
  158POPC   NC3 6815  28.656   6.873   9.503
  158POPC   PO4 6816  28.368   6.309   9.375
  158POPC   GL1 6817  28.445   6.617   9.111
  158POPC   GL2 6818  28.264   6.929   9.188
  158POPC   C1A 6819  28.613   6.710   8.747
  158POPC   D2A 6820  28.388   6.665   8.388
  158POPC   C3A 6821  28.595   6.584   8.046
  158POPC   C4A 6822  28.462   6.708   7.670
  158POPC   C1B 6823  28.283   7.117   8.784
  158POPC   C2B 6824  28.509   7.165   8.425
  158POPC   C3B 6825  28.337   7.049   8.050
  158POPC   C4B 6826  28.415   7.206   7.650
  159POPC   NC3 6827  41.308  27.973   9.421
  159POPC   PO4 6828  41.550  28.651   9.526
  159POPC   GL1 6829  41.560  28.374   9.199
  159POPC   GL2 6830  41.228  28.410   9.080
  159POPC   C1A 6831  41.775  28.252   8.852
  159POPC   D2A 6832  41.849  28.423   8.469
  159POPC   C3A 6833  41.798  28.173   8.121
  159POPC   C4A 6834  41.782  28.291   7.697
  159POPC   C1B 6835  41.329  28.349   8.637
  159POPC   C2B 6836  41.201  28.206   8.226
  159POPC   C3B 6837  41.236  28.396   7.828
  159POPC   C4B 6838  41.272  28.618   7.470
  160POPC   NC3 6839  16.119   3.405   9.631
  160POPC   PO4 6840  15.487   3.188   9.651
  160POPC   GL1 6841  15.667   3.471   9.306
  160POPC   GL2 6842  15.947   3.311   9.151
  160POPC   C1A 6843  15.668   3.648   8.869
  160POPC   D2A 6844  15.822   3.484   8.442
  160POPC   C3A 6845  15.771   3.666   7.974
  160POPC   C4A 6846  15.819   3.619   7.489
  160POPC   C1B 6847  16.376   3.304   8.950
  160POPC   C2B 6848  16.424   3.377   8.495
  160POPC   C3B 6849  16.209   3.443   8.110
  160POPC   C4B 6850  16.020   3.245   7.754
  161POPC   NC3 6851   9.698  42.090   9.587
  161POPC   PO4 6852  10.116  42.628   9.708
  161POPC   GL1 6853   9.952  42.385   9.210
  161POPC   GL2 6854   9.532  42.310   9.165
  161POPC   C1A 6855   9.772  42.379   8.734
  161POPC   D2A 6856   9.683  42.602   8.337
  161POPC   C3A 6857   9.707  42.277   8.053
  161POPC   C4A 6858   9.974  42.225   7.720
  161POPC   C1B 6859   9.470  41.969   8.897
  161POPC   C2B 6860   9.519  41.951   8.453
  161POPC   C3B 6861   9.288  41.999   8.058
  161POPC   C4B 6862   9.469  42.010   7.663
  162POPC   NC3 6863   2.294  12.829   9.493
  162POPC   PO4 6864   1.617  12.853   9.495
  162POPC   GL1 6865   1.920  12.867   9.138
  162POPC   GL2 6866   2.173  12.532   9.114
  162POPC   C1A 6867   1.897  13.123   8.746
  162POPC   D2A 6868   1.700  13.297   8.358
  162POPC   C3A 6869   1.850  13.030   8.022
  162POPC   C4A 6870   2.263  13.027   7.832
  162POPC   C1B 6871   2.070  12.622   8.706
  162POPC   C2B 6872   2.220  12.778   8.330
  162POPC   C3B 6873   2.199  12.544   7.969
  162POPC   C4B 6874   2.042  12.614   7.609
  163POPC   NC3 6875  34.016  21.822   9.995
  163POPC   PO4 6876  33.606  22.135   9.580
  163POPC   GL1 6877  33.784  22.023   9.178
  163POPC   GL2 6878  34.003  21.731   9.129
  163POPC   C1A 6879  33.679  22.178   8.770
  163POPC   D2A 6880  33.685  22.355   8.370
  163POPC   C3A 6881  33.568  22.144   8.002
  163POPC   C4A 6882  33.832  21.929   7.707
  163POPC   C1B 6883  34.114  21.913   8.759
  163POPC   C2B 6884  34.184  22.103   8.353
  163POPC   C3B 6885  34.279  21.954   7.939
  163POPC   C4B 6886  34.268  21.752   7.489
  164POPC   NC3 6887  11.236  11.070   9.613
  164POPC   PO4 6888  11.316  10.409   9.565
  164POPC   GL1 6889  11.411  10.435   9.155
  164POPC   GL2 6890  11.430  10.803   9.176
  164POPC   C1A 6891  11.297  10.317   8.743
  164POPC   D2A 6892  11.500  10.097   8.398
  164POPC   C3A 6893  11.345  10.265   8.036
  164POPC   C4A 6894  11.014  10.610   7.991
  164POPC   C1B 6895  11.547  10.782   8.755
  164POPC   C2B 6896  11.419  10.648   8.355
  164POPC   C3B 6897  11.593  10.718   7.952
  164POPC   C4B 6898  11.688  10.871   7.557
  165POPC   NC3 6899   5.494  28.706   9.435
  165POPC   PO4 6900   5.130  28.137   9.614
  165POPC   GL1 6901   5.299  28.034   9.238
  165POPC   GL2 6902   5.271  28.373   9.112
  165POPC   C1A 6903   5.074  27.965   8.860
  165POPC   D2A 6904   5.140  28.199   8.529
  165POPC   C3A 6905   5.044  28.194   8.112
  165POPC   C4A 6906   5.262  28.232   7.742
  165POPC   C1B 6907   5.263  28.673   8.786
  165POPC   C2B 6908   5.083  28.686   8.392
  165POPC   C3B 6909   5.279  28.669   8.011
  165POPC   C4B 6910   5.299  28.903   7.628
  166POPC   NC3 6911  32.514  33.565   9.628
  166POPC   PO4 6912  32.181  34.198   9.427
  166POPC   GL1 6913  32.351  33.961   9.081
  166POPC   GL2 6914  32.247  33.618   9.173
  166POPC   C1A 6915  32.355  34.037   8.614
  166POPC   D2A 6916  32.477  34.112   8.178
  166POPC   C3A 6917  32.131  34.069   7.950
  166POPC   C4A 6918  31.925  33.677   7.868
  166POPC   C1B 6919  32.387  33.536   8.734
  166POPC   C2B 6920  32.328  33.612   8.262
  166POPC   C3B 6921  32.388  33.413   7.851
  166POPC   C4B 6922  32.512  33.395   7.405
  167POPC   NC3 6923  42.916  12.465   9.286
  167POPC   PO4 6924  43.035  13.057   9.670
  167POPC   GL1 6925  43.260  12.862   9.218
  167POPC   GL2 6926  43.548  13.059   9.137
  167POPC   C1A 6927  43.152  12.882   8.722
  167POPC   D2A 6928  42.842  13.019   8.391
  167POPC   C3A 6929  42.995  12.897   7.980
  167POPC   C4A 6930  42.813  12.776   7.605
  167POPC   C1B 6931  43.622  12.742   8.806
  167POPC   C2B 6932  43.551  12.736   8.359
  167POPC   C3B 6933  43.577  12.623   7.928
  167POPC   C4B 6934  43.330  12.737   7.584
  168POPC   NC3 6935  40.751  37.226   9.551
  168POPC   PO4 6936  40.330  37.813   9.536
  168POPC   GL1 6937  40.432  37.541   9.198
  168POPC   GL2 6938  40.812  37.445   9.110
  168POPC   C1A 6939  40.578  37.727   8.786
  168POPC   D2A 6940  40.812  37.598   8.436
  168POPC   C3A 6941  40.674  37.778   8.057
  168POPC   C4A 6942  40.913  37.883   7.747
  168POPC   C1B 6943  40.963  37.211   8.746
  168POPC   C2B 6944  41.143  37.210   8.330
  168POPC   C3B 6945  41.075  37.430   7.945
  168POPC   C4B 6946  40.932  37.403   7.523
  169POPC   NC3 6947  24.992  37.950   9.593
  169POPC   PO4 6948  25.397  38.540   9.553
  169POPC   GL1 6949  25.192  38.531   9.157
  169POPC   GL2 6950  25.160  38.169   9.181
  169POPC   C1A 6951  24.989  38.410   8.759
  169POPC   D2A 6952  24.827  38.137   8.449
  169POPC   C3A 6953  25.045  38.129   8.051
  169POPC   C4A 6954  25.156  38.412   7.705
  169POPC   C1B 6955  25.466  38.207   8.883
  169POPC   C2B 6956  25.464  38.443   8.521
  169POPC   C3B 6957  25.505  38.393   8.096
  169POPC   C4B 6958  25.678  38.529   7.704
  170POPC   NC3 6959  31.232  37.236   9.558
  170POPC   PO4 6960  31.505  36.654   9.590
  170POPC   GL1 6961  31.411  36.899   9.232
  170POPC   GL2 6962  31.663  37.125   9.258
  170POPC   C1A 6963  31.271  36.847   8.829
  170POPC   D2A 6964  31.444  36.647   8.512
  170POPC   C3A 6965  31.410  36.830   8.138
  170POPC   C4A 6966  31.474  36.931   7.728
  170POPC   C1B 6967  31.791  36.995   8.886
  170POPC   C2B 6968  31.759  37.048   8.490
  170POPC   C3B 6969  31.797  37.147   8.083
  170POPC   C4B 6970  31.851  37.457   7.829
  171POPC   NC3 6971  27.454  27.471   9.571
  171POPC   PO4 6972  28.077  27.259   9.398
  171POPC   GL1 6973  27.782  27.652   9.178
  171POPC   GL2 6974  27.341  27.653   9.141
  171POPC   C1A 6975  27.615  27.627   8.737
  171POPC   D2A 6976  27.434  27.379   8.432
  171POPC   C3A 6977  27.720  27.502   8.127
  171POPC   C4A 6978  27.738  27.651   7.723
  171POPC   C1B 6979  27.178  27.906   8.862
  171POPC   C2B 6980  27.325  28.030   8.486
  171POPC   C3B 6981  27.325  27.795   8.115
  171POPC   C4B 6982  27.231  27.786   7.704
  172POPC   NC3 6983  11.606  23.448   9.440
  172POPC   PO4 6984  11.232  24.032   9.524
  172POPC   GL1 6985  11.466  23.874   9.187
  172POPC   GL2 6986  11.183  23.682   9.140
  172POPC   C1A 6987  11.521  23.624   8.775
  172POPC   D2A 6988  11.662  23.498   8.372
  172POPC   C3A 6989  11.744  23.821   8.055
  172POPC   C4A 6990  11.476  23.860   7.675
  172POPC   C1B 6991  11.017  23.457   8.791
  172POPC   C2B 6992  11.135  23.431   8.390
  172POPC   C3B 6993  11.291  23.545   8.024
  172POPC   C4B 6994  11.089  23.496   7.666
  173POPC   NC3 6995  11.661   1.880   9.629
  173POPC   PO4 6996  11.106   2.231   9.442
  173POPC   GL1 6997  11.234   1.998   9.094
  173POPC   GL2 6998  11.566   2.109   9.162
  173POPC   C1A 6999  11.152   1.927   8.644
  173POPC   D2A 7000  11.426   2.002   8.282
  173POPC   C3A 7001  11.170   1.897   7.927
  173POPC   C4A 7002  10.887   1.764   7.605
  173POPC   C1B 7003  11.639   1.892   8.782
  173POPC   C2B 7004  11.911   1.810   8.454
  173POPC   C3B 7005  11.843   1.728   8.040
  173POPC   C4B 7006  11.588   1.725   7.675
  174POPC   NC3 7007  34.236  38.349   9.499
  174POPC   PO4 7008  34.802  38.779   9.590
  174POPC   GL1 7009  34.660  38.539   9.249
  174POPC   GL2 7010  34.614  38.194   9.182
  174POPC   C1A 7011  34.544  38.589   8.839
  174POPC   D2A 7012  34.678  38.513   8.451
  174POPC   C3A 7013  34.627  38.854   8.141
  174POPC   C4A 7014  34.598  38.666   7.746
  174POPC   C1B 7015  34.381  38.100   8.813
  174POPC   C2B 7016  34.476  37.994   8.393
  174POPC   C3B 7017  34.594  38.171   7.988
  174POPC   C4B 7018  34.272  38.293   7.704
  175POPC   NC3 7019   3.145   9.359   9.413
  175POPC   PO4 7020   3.726   9.728   9.494
  175POPC   GL1 7021   3.373   9.809   9.221
  175POPC   GL2 7022   3.585   9.942   9.002
  175POPC   C1A 7023   3.121   9.846   8.816
  175POPC   D2A 7024   3.386   9.818   8.473
  175POPC   C3A 7025   3.330   9.811   8.075
  175POPC   C4A 7026   3.469   9.585   7.726
  175POPC   C1B 7027   3.835   9.888   8.649
  175POPC   C2B 7028   3.724  10.127   8.263
  175POPC   C3B 7029   3.716  10.058   7.833
  175POPC   C4B 7030   4.047  10.115   7.576
  176POPC   NC3 7031  30.256  15.268   9.544
  176POPC   PO4 7032  29.688  15.071   9.436
  176POPC   GL1 7033  29.822  15.362   9.128
  176POPC   GL2 7034  30.168  15.421   9.070
  176POPC   C1A 7035  29.799  15.248   8.705
  176POPC   D2A 7036  29.498  15.291   8.387
  176POPC   C3A 7037  29.721  15.327   8.001
  176POPC   C4A 7038  29.805  15.189   7.553
  176POPC   C1B 7039  30.358  15.406   8.680
  176POPC   C2B 7040  30.223  15.469   8.242
  176POPC   C3B 7041  30.219  15.202   7.853
  176POPC   C4B 7042  30.296  15.193   7.390
  177POPC   NC3 7043  42.301  36.764   9.215
  177POPC   PO4 7044  42.480  36.163   9.539
  177POPC   GL1 7045  42.451  36.247   9.148
  177POPC   GL2 7046  42.126  36.205   9.092
  177POPC   C1A 7047  42.441  35.968   8.774
  177POPC   D2A 7048  42.425  36.098   8.356
  177POPC   C3A 7049  42.090  36.055   8.116
  177POPC   C4A 7050  42.186  35.763   7.802
  177POPC   C1B 7051  42.124  36.375   8.681
  177POPC   C2B 7052  42.000  36.542   8.305
  177POPC   C3B 7053  42.028  36.502   7.869
  177POPC   C4B 7054  42.286  36.237   7.619
  178POPC   NC3 7055  23.217  34.890   9.506
  178POPC   PO4 7056  22.966  35.459   9.676
  178POPC   GL1 7057  23.020  35.278   9.224
  178POPC   GL2 7058  22.722  35.387   9.016
  178POPC   C1A 7059  23.125  35.163   8.767
  178POPC   D2A 7060  22.854  35.336   8.442
  178POPC   C3A 7061  22.937  35.356   7.993
  178POPC   C4A 7062  23.164  35.611   7.677
  178POPC   C1B 7063  22.574  35.704   8.709
  178POPC   C2B 7064  22.431  35.685   8.278
  178POPC   C3B 7065  22.606  35.715   7.849
  178POPC   C4B 7066  22.732  35.799   7.396
  179POPC   NC3 7067  35.657  27.890   9.470
  179POPC   PO4 7068  36.095  27.540   9.876
  179POPC   GL1 7069  36.113  27.681   9.349
  179POPC   GL2 7070  35.884  27.542   9.135
  179POPC   C1A 7071  36.314  27.639   8.870
  179POPC   D2A 7072  36.259  27.879   8.464
  179POPC   C3A 7073  36.289  27.722   8.061
  179POPC   C4A 7074  36.106  27.838   7.700
  179POPC   C1B 7075  35.820  27.710   8.757
  179POPC   C2B 7076  35.896  27.530   8.397
  179POPC   C3B 7077  35.789  27.611   8.018
  179POPC   C4B 7078  35.801  27.396   7.661
  180POPC   NC3 7079  19.610  36.718   9.633
  180POPC   PO4 7080  19.222  37.199   9.599
  180POPC   GL1 7081  19.170  37.154   9.185
  180POPC   GL2 7082  19.367  37.344   8.996
  180POPC   C1A 7083  19.055  36.980   8.795
  180POPC   D2A 7084  18.814  36.983   8.438
  180POPC   C3A 7085  19.021  36.747   8.106
  180POPC   C4A 7086  18.890  36.684   7.686
  180POPC   C1B 7087  19.231  37.422   8.597
  180POPC   C2B 7088  19.204  37.223   8.202
  180POPC   C3B 7089  19.016  37.177   7.807
  180POPC   C4B 7090  19.146  37.061   7.403
  181POPC   NC3 7091  24.602  37.017   9.621
  181POPC   PO4 7092  24.165  36.804   9.187
  181POPC   GL1 7093  24.626  36.865   9.108
  181POPC   GL2 7094  24.828  37.172   9.189
  181POPC   C1A 7095  24.831  36.828   8.708
  181POPC   D2A 7096  24.659  36.624   8.334
  181POPC   C3A 7097  24.338  36.750   8.043
  181POPC   C4A 7098  24.666  36.711   7.760
  181POPC   C1B 7099  24.791  37.341   8.801
  181POPC   C2B 7100  24.992  37.202   8.417
  181POPC   C3B 7101  24.907  37.084   8.016
  181POPC   C4B 7102  24.515  37.208   7.869
  182POPC   NC3 7103  26.577  20.100   9.555
  182POPC   PO4 7104  26.294  19.570   9.489
  182POPC   GL1 7105  26.165  19.658   9.083
  182POPC   GL2 7106  26.067  20.018   9.127
  182POPC   C1A 7107  25.866  19.715   8.751
  182POPC   D2A 7108  25.780  19.891   8.361
  182POPC   C3A 7109  25.875  19.646   8.001
  182POPC   C4A 7110  26.283  19.587   7.812
  182POPC   C1B 7111  26.086  20.187   8.675
  182POPC   C2B 7112  26.026  20.310   8.225
  182POPC   C3B 7113  25.790  20.120   7.846
  182POPC   C4B 7114  25.621  20.170   7.405
  183POPC   NC3 7115  40.677  13.258   9.289
  183POPC   PO4 7116  40.759  13.877   9.708
  183POPC   GL1 7117  40.957  13.811   9.206
  183POPC   GL2 7118  41.165  13.493   9.176
  183POPC   C1A 7119  40.840  13.845   8.726
  183POPC   D2A 7120  40.878  14.005   8.286
  183POPC   C3A 7121  40.687  13.700   7.997
  183POPC   C4A 7122  40.531  13.672   7.554
  183POPC   C1B 7123  41.028  13.301   8.779
  183POPC   C2B 7124  40.866  13.409   8.389
  183POPC   C3B 7125  40.956  13.261   7.986
  183POPC   C4B 7126  41.269  13.371   7.715
  184POPC   NC3 7127   0.915  27.890   9.538
  184POPC   PO4 7128   1.343  27.379   9.572
  184POPC   GL1 7129   1.214  27.596   9.202
  184POPC   GL2 7130   1.473  27.445   9.027
  184POPC   C1A 7131   1.051  27.587   8.777
  184POPC   D2A 7132   1.332  27.450   8.470
  184POPC   C3A 7133   1.109  27.428   8.074
  184POPC   C4A 7134   1.237  27.532   7.684
  184POPC   C1B 7135   1.492  27.860   8.800
  184POPC   C2B 7136   1.281  27.944   8.388
  184POPC   C3B 7137   1.520  27.739   8.077
  184POPC   C4B 7138   1.643  27.875   7.673
  185POPC   NC3 7139  35.152  26.027   9.381
  185POPC   PO4 7140  35.807  25.782   9.515
  185POPC   GL1 7141  35.600  26.007   9.146
  185POPC   GL2 7142  35.449  25.760   8.951
  185POPC   C1A 7143  35.494  26.244   8.744
  185POPC   D2A 7144  35.205  26.171   8.359
  185POPC   C3A 7145  35.341  26.138   7.917
  185POPC   C4A 7146  35.581  25.973   7.593
  185POPC   C1B 7147  35.030  25.849   8.743
  185POPC   C2B 7148  34.928  25.724   8.328
  185POPC   C3B 7149  35.272  25.651   8.052
  185POPC   C4B 7150  35.236  25.590   7.620
  186POPC   NC3 7151   8.543   6.224   9.311
  186POPC   PO4 7152   7.905   6.419   9.470
  186POPC   GL1 7153   8.174   6.537   9.117
  186POPC   GL2 7154   8.280   6.912   9.067
  186POPC   C1A 7155   8.263   6.592   8.689
  186POPC   D2A 7156   8.312   7.005   8.518
  186POPC   C3A 7157   8.438   6.840   8.133
  186POPC   C4A 7158   8.327   6.499   7.778
  186POPC   C1B 7159   7.882   6.925   8.823
  186POPC   C2B 7160   7.779   7.046   8.385
  186POPC   C3B 7161   7.922   6.793   8.010
  186POPC   C4B 7162   7.971   6.787   7.547
  187POPC   NC3 7163  41.493  27.200   9.509
  187POPC   PO4 7164  41.980  26.924   9.315
  187POPC   GL1 7165  41.736  27.262   9.064
  187POPC   GL2 7166  41.530  27.570   9.135
  187POPC   C1A 7167  41.670  27.410   8.649
  187POPC   D2A 7168  41.676  27.215   8.263
  187POPC   C3A 7169  41.681  27.462   7.902
  187POPC   C4A 7170  41.986  27.804   7.782
  187POPC   C1B 7171  41.433  27.846   8.752
  187POPC   C2B 7172  41.469  27.755   8.285
  187POPC   C3B 7173  41.436  27.917   7.838
  187POPC   C4B 7174  41.394  28.114   7.404
  188POPC   NC3 7175   7.442  24.103   9.462
  188POPC   PO4 7176   7.710  23.446   9.509
  188POPC   GL1 7177   7.470  23.649   9.184
  188POPC   GL2 7178   7.680  23.886   9.052
  188POPC   C1A 7179   7.184  23.630   8.814
  188POPC   D2A 7180   7.058  23.516   8.383
  188POPC   C3A 7181   7.295  23.767   8.090
  188POPC   C4A 7182   7.446  23.699   7.671
  188POPC   C1B 7183   7.684  23.560   8.722
  188POPC   C2B 7184   7.720  23.507   8.283
  188POPC   C3B 7185   7.898  23.670   7.915
  188POPC   C4B 7186   7.927  23.664   7.472
  189POPC   NC3 7187   3.974  15.171   9.445
  189POPC   PO4 7188   4.628  15.264   9.484
  189POPC   GL1 7189   4.409  15.373   9.072
  189POPC   GL2 7190   4.056  15.258   8.950
  189POPC   C1A 7191   4.389  15.385   8.596
  189POPC   D2A 7192   4.065  15.351   8.249
  189POPC   C3A 7193   4.208  15.426   7.840
  189POPC   C4A 7194   4.548  15.353   7.531
  189POPC   C1B 7195   4.048  14.966   8.583
  189POPC   C2B 7196   4.319  14.732   8.344
  189POPC   C3B 7197   4.320  14.915   7.940
  189POPC   C4B 7198   3.943  15.017   7.704
  190POPC   NC3 7199  30.393  18.631   9.329
  190POPC   PO4 7200  30.755  18.117   9.509
  190POPC   GL1 7201  30.812  18.245   9.083
  190POPC   GL2 7202  30.783  18.613   8.984
  190POPC   C1A 7203  30.949  18.021   8.707
  190POPC   D2A 7204  31.000  17.686   8.386
  190POPC   C3A 7205  31.122  17.885   7.988
  190POPC   C4A 7206  30.838  18.157   7.765
  190POPC   C1B 7207  30.476  18.376   8.700
  190POPC   C2B 7208  30.475  18.239   8.250
  190POPC   C3B 7209  30.450  18.480   7.843
  190POPC   C4B 7210  30.461  18.285   7.408
  191POPC   NC3 7211  33.295  18.005   9.505
  191POPC   PO4 7212  33.069  18.600   9.780
  191POPC   GL1 7213  32.946  18.333   9.334
  191POPC   GL2 7214  32.874  18.542   9.098
  191POPC   C1A 7215  33.081  18.142   8.885
  191POPC   D2A 7216  33.004  18.355   8.464
  191POPC   C3A 7217  32.991  18.081   8.093
  191POPC   C4A 7218  33.329  17.854   7.882
  191POPC   C1B 7219  33.249  18.659   8.828
  191POPC   C2B 7220  33.544  18.478   8.542
  191POPC   C3B 7221  33.389  18.537   8.121
  191POPC   C4B 7222  33.023  18.542   7.865
  192POPC   NC3 7223  40.692   7.721   9.433
  192POPC   PO4 7224  40.970   8.349   9.394
  192POPC   GL1 7225  40.738   8.133   9.117
  192POPC   GL2 7226  41.022   7.887   9.062
  192POPC   C1A 7227  40.451   8.263   8.783
  192POPC   D2A 7228  40.375   8.145   8.350
  192POPC   C3A 7229  40.684   8.204   8.026
  192POPC   C4A 7230  40.494   8.210   7.644
  192POPC   C1B 7231  40.752   7.840   8.703
  192POPC   C2B 7232  40.713   7.735   8.266
  192POPC   C3B 7233  41.007   7.805   7.901
  192POPC   C4B 7234  41.277   7.838   7.502
  193POPC   NC3 7235  25.177  37.196   9.576
  193POPC   PO4 7236  25.711  37.588   9.693
  193POPC   GL1 7237  25.497  37.556   9.286
  193POPC   GL2 7238  25.139  37.597   9.246
  193POPC   C1A 7239  25.634  37.674   8.867
  193POPC   D2A 7240  25.526  37.924   8.476
  193POPC   C3A 7241  25.465  37.780   8.060
  193POPC   C4A 7242  25.510  38.042   7.706
  193POPC   C1B 7243  25.130  37.787   8.839
  193POPC   C2B 7244  25.073  37.701   8.421
  193POPC   C3B 7245  24.971  37.594   8.020
  193POPC   C4B 7246  25.067  37.814   7.644
  194POPC   NC3 7247  40.629  13.172   9.771
  194POPC   PO4 7248  41.232  13.037   9.447
  194POPC   GL1 7249  40.942  12.873   9.111
  194POPC   GL2 7250  40.527  12.835   9.069
  194POPC   C1A 7251  40.860  12.710   8.718
  194POPC   D2A 7252  41.025  12.914   8.392
  194POPC   C3A 7253  40.955  12.747   8.022
  194POPC   C4A 7254  40.637  12.492   7.842
  194POPC   C1B 7255  40.545  13.090   8.668
  194POPC   C2B 7256  40.514  12.971   8.225
  194POPC   C3B 7257  40.453  13.232   7.851
  194POPC   C4B 7258  40.456  13.153   7.418
  195POPC   NC3 7259  12.267   6.302   9.498
  195POPC   PO4 7260  11.865   6.790   9.462
  195POPC   GL1 7261  12.134   6.829   9.127
  195POPC   GL2 7262  12.257   6.522   9.055
  195POPC   C1A 7263  12.036   6.963   8.728
  195POPC   D2A 7264  11.827   6.835   8.362
  195POPC   C3A 7265  12.069   6.648   8.027
  195POPC   C4A 7266  12.239   6.868   7.688
  195POPC   C1B 7267  11.971   6.440   8.785
  195POPC   C2B 7268  11.987   6.288   8.397
  195POPC   C3B 7269  11.824   6.093   8.065
  195POPC   C4B 7270  11.829   6.329   7.681
  196POPC   NC3 7271   9.881  33.486   9.539
  196POPC   PO4 7272   9.580  34.037   9.507
  196POPC   GL1 7273   9.755  33.906   9.154
  196POPC   GL2 7274   9.634  33.567   9.108
  196POPC   C1A 7275   9.901  33.807   8.746
  196POPC   D2A 7276   9.769  33.685   8.354
  196POPC   C3A 7277   9.654  34.018   8.103
  196POPC   C4A 7278   9.690  33.890   7.693
  196POPC   C1B 7279   9.417  33.620   8.734
  196POPC   C2B 7280   9.258  33.709   8.318
  196POPC   C3B 7281   9.384  33.529   7.899
  196POPC   C4B 7282   9.332  33.235   7.518
  197POPC   NC3 7283  38.263  40.168   9.925
  197POPC   PO4 7284  37.756  40.005   9.547
  197POPC   GL1 7285  37.667  40.066   9.117
  197POPC   GL2 7286  37.357  39.892   9.125
  197POPC   C1A 7287  37.807  40.069   8.687
  197POPC   D2A 7288  37.980  40.193   8.285
  197POPC   C3A 7289  37.778  40.084   7.916
  197POPC   C4A 7290  37.877  39.869   7.531
  197POPC   C1B 7291  37.432  39.719   8.743
  197POPC   C2B 7292  37.456  39.918   8.325
  197POPC   C3B 7293  37.393  39.739   7.931
  197POPC   C4B 7294  37.373  39.898   7.544
  198POPC   NC3 7295  39.692   9.270   9.458
  198POPC   PO4 7296  40.177   8.848   9.422
  198POPC   GL1 7297  40.075   9.082   9.065
  198POPC   GL2 7298  39.770   8.988   9.037
  198POPC   C1A 7299  40.014   9.103   8.595
  198POPC   D2A 7300  40.156   8.845   8.274
  198POPC   C3A 7301  40.216   9.007   7.867
  198POPC   C4A 7302  39.937   8.984   7.540
  198POPC   C1B 7303  39.797   9.470   8.870
  198POPC   C2B 7304  39.700   9.597   8.471
  198POPC   C3B 7305  39.840   9.333   8.127
  198POPC   C4B 7306  39.885   9.471   7.686
  199POPC   NC3 7307  38.444  14.221   9.743
  199POPC   PO4 7308  38.135  14.734   9.470
  199POPC   GL1 7309  38.360  14.480   9.178
  199POPC   GL2 7310  38.324  14.130   9.203
  199POPC   C1A 7311  38.497  14.531   8.753
  199POPC   D2A 7312  38.626  14.356   8.375
  199POPC   C3A 7313  38.422  14.456   8.016
  199POPC   C4A 7314  38.382  14.243   7.652
  199POPC   C1B 7315  38.619  13.981   8.867
  199POPC   C2B 7316  38.707  13.829   8.439
  199POPC   C3B 7317  38.600  13.958   8.013
  199POPC   C4B 7318  38.819  13.941   7.598
  200POPC   NC3 7319  33.463  30.669   9.409
  200POPC   PO4 7320  34.012  30.290   9.619
  200POPC   GL1 7321  34.045  30.329   9.173
  200POPC   GL2 7322  33.777  30.537   9.045
  200POPC   C1A 7323  34.148  30.465   8.735
  200POPC   D2A 7324  34.101  30.714   8.375
  200POPC   C3A 7325  34.068  30.484   8.018
  200POPC   C4A 7326  34.075  30.629   7.608
  200POPC   C1B 7327  33.515  30.505   8.661
  200POPC   C2B 7328  33.276  30.841   8.447
  200POPC   C3B 7329  33.396  30.865   8.060
  200POPC   C4B 7330  33.614  30.573   7.820
  201POPC   NC3 7331  31.705   6.634   9.856
  201POPC   PO4 7332  31.344   6.920   9.387
  201POPC   GL1 7333  31.227   6.822   9.003
  201POPC   GL2 7334  31.382   6.518   9.061
  201POPC   C1A 7335  31.428   6.742   8.617
  201POPC   D2A 7336  31.610   6.844   8.238
  201POPC   C3A 7337  31.295   6.829   7.927
  201POPC   C4A 7338  31.404   6.777   7.501
  201POPC   C1B 7339  31.720   6.369   8.833
  201POPC   C2B 7340  31.802   6.383   8.462
  201POPC   C3B 7341  31.756   6.209   8.118
  201POPC   C4B 7342  31.681   6.501   7.831
  202POPC   NC3 7343  10.049  42.941   9.375
  202POPC   PO4 7344  10.688  43.053   9.556
  202POPC   GL1 7345  10.650  43.150   9.136
  202POPC   GL2 7346  10.928  43.374   9.115
  202POPC   C1A 7347  10.379  43.170   8.754
  202POPC   D2A 7348  10.374  43.175   8.292
  202POPC   C3A 7349  10.119  43.051   7.953
  202POPC   C4A 7350  10.246  43.147   7.505
  202POPC   C1B 7351  10.733  43.557   8.821
  202POPC   C2B 7352  10.800  43.342   8.498
  202POPC   C3B 7353  10.818  43.306   8.062
  202POPC   C4B 7354  10.667  43.034   7.759
  203POPC   NC3 7355  40.985  44.215   9.351
  203POPC   PO4 7356  40.660  43.623   9.553
  203POPC   GL1 7357  40.764  43.770   9.163
  203POPC   GL2 7358  41.063  43.592   9.109
  203POPC   C1A 7359  40.645  44.036   8.795
  203POPC   D2A 7360  40.331  44.097   8.482
  203POPC   C3A 7361  40.514  44.244   8.097
  203POPC   C4A 7362  40.615  44.048   7.696
  203POPC   C1B 7363  40.982  43.666   8.703
  203POPC   C2B 7364  40.711  43.744   8.357
  203POPC   C3B 7365  40.893  43.678   7.980
  203POPC   C4B 7366  41.287  43.545   7.827
  204POPC   NC3 7367  24.645  29.228   9.587
  204POPC   PO4 7368  24.269  28.708   9.369
  204POPC   GL1 7369  24.458  29.111   9.131
  204POPC   GL2 7370  24.824  29.270   9.107
  204POPC   C1A 7371  24.437  29.399   8.770
  204POPC   D2A 7372  24.642  29.468   8.329
  204POPC   C3A 7373  24.411  29.232   7.992
  204POPC   C4A 7374  24.362  29.050   7.545
  204POPC   C1B 7375  24.849  29.126   8.672
  204POPC   C2B 7376  24.753  28.940   8.258
  204POPC   C3B 7377  24.804  29.002   7.791
  204POPC   C4B 7378  24.822  29.361   7.423
  205POPC   NC3 7379   7.878  25.924   9.354
  205POPC   PO4 7380   8.381  26.341   9.341
  205POPC   GL1 7381   8.317  25.994   9.088
  205POPC   GL2 7382   8.329  25.629   9.219
  205POPC   C1A 7383   8.195  26.098   8.664
  205POPC   D2A 7384   8.402  26.315   8.315
  205POPC   C3A 7385   8.145  26.261   7.939
  205POPC   C4A 7386   8.149  26.238   7.481
  205POPC   C1B 7387   8.374  25.616   8.763
  205POPC   C2B 7388   8.446  25.771   8.331
  205POPC   C3B 7389   8.315  25.775   7.879
  205POPC   C4B 7390   8.395  25.812   7.392
  206POPC   NC3 7391  19.239   5.823   9.370
  206POPC   PO4 7392  18.669   5.511   9.584
  206POPC   GL1 7393  18.775   5.756   9.160
  206POPC   GL2 7394  18.890   6.131   9.145
  206POPC   C1A 7395  18.990   5.675   8.737
  206POPC   D2A 7396  19.214   5.705   8.334
  206POPC   C3A 7397  18.955   5.716   7.940
  206POPC   C4A 7398  18.737   6.096   7.854
  206POPC   C1B 7399  19.231   6.121   8.781
  206POPC   C2B 7400  19.487   6.178   8.405
  206POPC   C3B 7401  19.347   6.068   7.983
  206POPC   C4B 7402  19.449   5.654   7.870
  207POPC   NC3 7403  22.390  19.410   9.758
  207POPC   PO4 7404  21.958  18.983   9.559
  207POPC   GL1 7405  22.191  18.999   9.195
  207POPC   GL2 7406  22.197  19.315   9.162
  207POPC   C1A 7407  22.294  19.075   8.728
  207POPC   D2A 7408  22.551  19.134   8.361
  207POPC   C3A 7409  22.374  19.095   7.956
  207POPC   C4A 7410  22.512  18.766   7.648
  207POPC   C1B 7411  21.829  19.283   8.799
  207POPC   C2B 7412  21.738  19.058   8.440
  207POPC   C3B 7413  21.802  19.179   8.017
  207POPC   C4B 7414  21.951  19.055   7.625
  208POPC   NC3 7415   7.906  39.317   9.400
  208POPC   PO4 7416   7.246  39.427   9.366
  208POPC   GL1 7417   7.520  39.350   9.043
  208POPC   GL2 7418   7.769  39.080   8.958
  208POPC   C1A 7419   7.370  39.195   8.684
  208POPC   D2A 7420   7.641  39.297   8.403
  208POPC   C3A 7421   7.442  39.558   8.148
  208POPC   C4A 7422   7.183  39.454   7.791
  208POPC   C1B 7423   7.690  38.801   8.587
  208POPC   C2B 7424   7.657  38.805   8.130
  208POPC   C3B 7425   7.471  38.949   7.742
  208POPC   C4B 7426   7.575  38.880   7.265
  209POPC   NC3 7427   0.096  24.991   9.436
  209POPC   PO4 7428  44.802  25.513   9.810
  209POPC   GL1 7429  44.655  25.382   9.374
  209POPC   GL2 7430  44.956  25.447   9.211
  209POPC   C1A 7431  44.366  25.263   8.990
  209POPC   D2A 7432  44.486  25.027   8.585
  209POPC   C3A 7433  44.450  25.150   8.138
  209POPC   C4A 7434  44.545  25.086   7.671
  209POPC   C1B 7435  44.831  25.393   8.778
  209POPC   C2B 7436  44.892  25.271   8.358
  209POPC   C3B 7437  44.823  25.466   7.957
  209POPC   C4B 7438   0.143  25.715   7.776
  210POPC   NC3 7439   9.248   7.530   9.642
  210POPC   PO4 7440   9.648   7.030   9.536
  210POPC   GL1 7441   9.771   7.376   9.246
  210POPC   GL2 7442   9.512   7.584   9.209
  210POPC   C1A 7443   9.884   7.536   8.806
  210POPC   D2A 7444  10.045   7.367   8.407
  210POPC   C3A 7445   9.862   7.516   8.019
  210POPC   C4A 7446   9.639   7.381   7.642
  210POPC   C1B 7447   9.396   7.690   8.804
  210POPC   C2B 7448   9.492   7.539   8.384
  210POPC   C3B 7449   9.344   7.632   7.951
  210POPC   C4B 7450   9.293   7.768   7.497
  211POPC   NC3 7451   1.699  39.310   9.401
  211POPC   PO4 7452   2.367  39.309   9.567
  211POPC   GL1 7453   2.155  39.145   9.230
  211POPC   GL2 7454   2.162  39.500   9.141
  211POPC   C1A 7455   1.897  38.929   8.895
  211POPC   D2A 7456   1.671  39.031   8.514
  211POPC   C3A 7457   1.836  38.882   8.119
  211POPC   C4A 7458   1.811  39.195   7.816
  211POPC   C1B 7459   2.250  39.317   8.761
  211POPC   C2B 7460   2.149  39.158   8.416
  211POPC   C3B 7461   2.286  39.233   8.046
  211POPC   C4B 7462   2.273  38.882   7.828
  212POPC   NC3 7463  25.515  32.310   9.600
  212POPC   PO4 7464  24.888  32.094   9.499
  212POPC   GL1 7465  25.223  32.001   9.202
  212POPC   GL2 7466  25.546  32.189   9.120
  212POPC   C1A 7467  25.153  32.177   8.779
  212POPC   D2A 7468  24.997  32.362   8.386
  212POPC   C3A 7469  25.153  32.182   7.986
  212POPC   C4A 7470  25.040  32.285   7.561
  212POPC   C1B 7471  25.689  32.188   8.737
  212POPC   C2B 7472  25.502  32.328   8.372
  212POPC   C3B 7473  25.636  32.358   8.000
  212POPC   C4B 7474  25.637  32.021   7.719
  213POPC   NC3 7475  10.199  27.428   9.503
  213POPC   PO4 7476  10.716  26.977   9.651
  213POPC   GL1 7477  10.681  27.221   9.249
  213POPC   GL2 7478  10.574  27.586   9.188
  213POPC   C1A 7479  10.492  27.215   8.840
  213POPC   D2A 7480  10.357  27.462   8.506
  213POPC   C3A 7481  10.453  27.412   8.105
  213POPC   C4A 7482  10.242  27.539   7.736
  213POPC   C1B 7483  10.681  27.775   8.774
  213POPC   C2B 7484  10.816  27.789   8.334
  213POPC   C3B 7485  10.653  27.849   7.928
  213POPC   C4B 7486  10.701  27.605   7.544
  214POPC   NC3 7487   8.045  21.753   9.637
  214POPC   PO4 7488   8.557  22.063   9.317
  214POPC   GL1 7489   8.213  22.143   9.079
  214POPC   GL2 7490   8.008  21.828   9.137
  214POPC   C1A 7491   8.264  22.323   8.675
  214POPC   D2A 7492   8.344  22.187   8.254
  214POPC   C3A 7493   8.064  22.344   7.933
  214POPC   C4A 7494   8.415  22.435   7.656
  214POPC   C1B 7495   8.156  21.794   8.713
  214POPC   C2B 7496   7.915  21.971   8.404
  214POPC   C3B 7497   7.779  21.930   8.025
  214POPC   C4B 7498   8.008  21.927   7.660
  215POPC   NC3 7499  17.666   6.967   9.396
  215POPC   PO4 7500  17.321   6.388   9.539
  215POPC   GL1 7501  17.679   6.443   9.280
  215POPC   GL2 7502  17.436   6.624   9.080
  215POPC   C1A 7503  17.898   6.580   8.900
  215POPC   D2A 7504  17.823   6.835   8.548
  215POPC   C3A 7505  17.746   6.554   8.255
  215POPC   C4A 7506  17.825   6.437   7.858
  215POPC   C1B 7507  17.321   6.820   8.702
  215POPC   C2B 7508  17.272   6.748   8.293
  215POPC   C3B 7509  17.216   6.937   7.921
  215POPC   C4B 7510  17.365   6.662   7.636
  216POPC   NC3 7511   2.317   0.298   9.871
  216POPC   PO4 7512   1.825   0.672   9.511
  216POPC   GL1 7513   1.967   0.424   9.196
  216POPC   GL2 7514   2.296   0.307   9.228
  216POPC   C1A 7515   1.841   0.389   8.779
  216POPC   D2A 7516   2.022   0.277   8.411
  216POPC   C3A 7517   1.786   0.274   8.057
  216POPC   C4A 7518   1.579   0.576   7.805
  216POPC   C1B 7519   2.317   0.563   8.815
  216POPC   C2B 7520   2.289   0.698   8.355
  216POPC   C3B 7521   2.242   0.525   7.944
  216POPC   C4B 7522   2.309   0.673   7.512
  217POPC   NC3 7523  36.135   9.568   9.478
  217POPC   PO4 7524  35.716  10.132   9.382
  217POPC   GL1 7525  35.926   9.860   9.067
  217POPC   GL2 7526  35.968   9.482   8.980
  217POPC   C1A 7527  35.938   9.853   8.611
  217POPC   D2A 7528  35.875  10.163   8.286
  217POPC   C3A 7529  36.047   9.975   7.904
  217POPC   C4A 7530  36.269   9.660   7.691
  217POPC   C1B 7531  36.286   9.437   8.660
  217POPC   C2B 7532  36.221   9.602   8.252
  217POPC   C3B 7533  35.816   9.577   8.093
  217POPC   C4B 7534  35.857   9.320   7.742
  218POPC   NC3 7535  36.641   8.736   9.709
  218POPC   PO4 7536  37.192   9.076   9.573
  218POPC   GL1 7537  36.992   9.009   9.176
  218POPC   GL2 7538  36.666   8.841   9.206
  218POPC   C1A 7539  36.877   9.188   8.768
  218POPC   D2A 7540  37.022   9.007   8.379
  218POPC   C3A 7541  37.155   9.174   7.983
  218POPC   C4A 7542  37.016   9.012   7.560
  218POPC   C1B 7543  36.701   8.697   8.781
  218POPC   C2B 7544  36.553   8.804   8.361
  218POPC   C3B 7545  36.725   8.867   7.946
  218POPC   C4B 7546  36.541   8.838   7.524
  219POPC   NC3 7547  40.154  32.873   9.460
  219POPC   PO4 7548  39.552  33.012   9.520
  219POPC   GL1 7549  39.787  33.259   9.165
  219POPC   GL2 7550  40.146  33.148   9.036
  219POPC   C1A 7551  39.765  33.141   8.709
  219POPC   D2A 7552  39.902  33.283   8.304
  219POPC   C3A 7553  39.678  33.155   7.905
  219POPC   C4A 7554  39.762  33.206   7.423
  219POPC   C1B 7555  40.460  33.199   8.693
  219POPC   C2B 7556  40.426  33.207   8.254
  219POPC   C3B 7557  40.247  32.903   7.998
  219POPC   C4B 7558  40.362  32.846   7.604
  220POPC   NC3 7559  17.595  17.747   9.443
  220POPC   PO4 7560  17.520  17.080   9.570
  220POPC   GL1 7561  17.405  17.317   9.175
  220POPC   GL2 7562  17.690  17.347   9.078
  220POPC   C1A 7563  17.472  17.643   8.769
  220POPC   D2A 7564  17.710  17.740   8.380
  220POPC   C3A 7565  17.488  17.584   8.026
  220POPC   C4A 7566  17.355  17.789   7.697
  220POPC   C1B 7567  17.870  17.232   8.727
  220POPC   C2B 7568  17.674  17.231   8.353
  220POPC   C3B 7569  17.895  17.310   7.986
  220POPC   C4B 7570  17.730  17.351   7.610
  221POPC   NC3 7571  28.834   0.191   9.304
  221POPC   PO4 7572  29.043  44.617   9.535
  221POPC   GL1 7573  29.136  44.788   9.118
  221POPC   GL2 7574  28.837  44.844   8.911
  221POPC   C1A 7575  29.289  44.851   8.666
  221POPC   D2A 7576  29.218  44.591   8.281
  221POPC   C3A 7577  29.402  44.774   7.931
  221POPC   C4A 7578  29.100   0.125   7.821
  221POPC   C1B 7579  29.025  44.432   8.775
  221POPC   C2B 7580  28.935  44.149   8.427
  221POPC   C3B 7581  28.861  44.228   8.020
  221POPC   C4B 7582  28.985  44.546   7.770
  222POPC   NC3 7583  16.844  42.071   9.652
  222POPC   PO4 7584  16.401  41.945   9.258
  222POPC   GL1 7585  16.845  42.091   9.096
  222POPC   GL2 7586  16.928  42.456   9.060
  222POPC   C1A 7587  16.929  42.166   8.634
  222POPC   D2A 7588  16.609  42.379   8.364
  222POPC   C3A 7589  16.630  42.454   7.940
  222POPC   C4A 7590  16.851  42.242   7.633
  222POPC   C1B 7591  16.880  42.703   8.656
  222POPC   C2B 7592  16.736  42.975   8.298
  222POPC   C3B 7593  16.774  42.932   7.870
  222POPC   C4B 7594  17.077  42.659   7.786
  223POPC   NC3 7595  21.927  13.920   9.425
  223POPC   PO4 7596  22.408  13.378   9.504
  223POPC   GL1 7597  22.160  13.509   9.148
  223POPC   GL2 7598  22.329  13.812   9.103
  223POPC   C1A 7599  22.011  13.569   8.697
  223POPC   D2A 7600  21.889  13.334   8.288
  223POPC   C3A 7601  21.983  13.372   7.836
  223POPC   C4A 7602  21.889  13.372   7.391
  223POPC   C1B 7603  22.429  13.891   8.675
  223POPC   C2B 7604  22.179  13.980   8.320
  223POPC   C3B 7605  21.995  13.860   7.946
  223POPC   C4B 7606  22.173  13.784   7.512
  224POPC   NC3 7607  35.785  26.257   9.556
  224POPC   PO4 7608  36.310  25.789   9.336
  224POPC   GL1 7609  36.083  25.933   9.041
  224POPC   GL2 7610  36.045  26.304   9.111
  224POPC   C1A 7611  35.874  25.911   8.643
  224POPC   D2A 7612  35.736  26.142   8.263
  224POPC   C3A 7613  35.984  26.082   7.884
  224POPC   C4A 7614  36.288  25.746   7.714
  224POPC   C1B 7615  36.233  26.292   8.709
  224POPC   C2B 7616  36.350  26.099   8.312
  224POPC   C3B 7617  36.466  26.221   7.883
  224POPC   C4B 7618  36.206  26.458   7.564
  225POPC   NC3 7619  42.542  43.828   9.559
  225POPC   PO4 7620  42.054  44.278   9.341
  225POPC   GL1 7621  42.340  44.033   9.127
  225POPC   GL2 7622  42.643  44.231   9.248
  225POPC   C1A 7623  42.245  43.713   8.794
  225POPC   D2A 7624  42.087  43.512   8.392
  225POPC   C3A 7625  42.177  43.720   8.030
  225POPC   C4A 7626  42.477  43.713   7.780
  225POPC   C1B 7627  42.533  44.340   8.789
  225POPC   C2B 7628  42.368  44.091   8.439
  225POPC   C3B 7629  42.347  44.221   8.018
  225POPC   C4B 7630  42.502  44.210   7.615
  226POPC   NC3 7631  25.754  40.494   9.499
  226POPC   PO4 7632  26.312  40.915   9.407
  226POPC   GL1 7633  26.049  40.696   9.118
  226POPC   GL2 7634  25.733  40.849   9.078
  226POPC   C1A 7635  25.989  40.646   8.668
  226POPC   D2A 7636  26.117  40.959   8.366
  226POPC   C3A 7637  26.176  41.017   7.913
  226POPC   C4A 7638  26.184  40.738   7.563
  226POPC   C1B 7639  25.697  41.060   8.688
  226POPC   C2B 7640  25.559  40.773   8.383
  226POPC   C3B 7641  25.819  40.635   8.062
  226POPC   C4B 7642  25.840  40.395   7.712
  227POPC   NC3 7643  19.771   4.630   9.516
  227POPC   PO4 7644  19.595   3.987   9.364
  227POPC   GL1 7645  19.948   4.181   9.144
  227POPC   GL2 7646  19.973   4.537   9.062
  227POPC   C1A 7647  19.950   4.002   8.752
  227POPC   D2A 7648  19.794   4.127   8.402
  227POPC   C3A 7649  19.973   4.419   8.201
  227POPC   C4A 7650  20.078   4.125   7.908
  227POPC   C1B 7651  19.983   4.733   8.675
  227POPC   C2B 7652  19.799   4.885   8.302
  227POPC   C3B 7653  19.548   4.687   7.976
  227POPC   C4B 7654  19.551   4.223   7.898
  228POPC   NC3 7655  17.077  40.813   9.455
  228POPC   PO4 7656  16.434  40.839   9.374
  228POPC   GL1 7657  16.631  40.580   9.024
  228POPC   GL2 7658  16.995  40.461   9.111
  228POPC   C1A 7659  16.526  40.605   8.576
  228POPC   D2A 7660  16.610  40.822   8.165
  228POPC   C3A 7661  16.627  40.622   7.721
  228POPC   C4A 7662  16.536  40.518   7.254
  228POPC   C1B 7663  17.029  40.808   8.779
  228POPC   C2B 7664  17.066  41.020   8.366
  228POPC   C3B 7665  17.087  40.808   7.977
  228POPC   C4B 7666  17.124  40.623   7.590
  229POPC   NC3 7667   4.663   7.355   9.439
  229POPC   PO4 7668   4.217   7.882   9.430
  229POPC   GL1 7669   4.383   7.636   9.094
  229POPC   GL2 7670   4.061   7.453   9.158
  229POPC   C1A 7671   4.338   7.312   8.743
  229POPC   D2A 7672   4.111   7.234   8.337
  229POPC   C3A 7673   4.373   7.327   7.978
  229POPC   C4A 7674   4.525   7.236   7.600
  229POPC   C1B 7675   3.981   7.762   8.812
  229POPC   C2B 7676   4.196   7.713   8.451
  229POPC   C3B 7677   4.084   7.717   8.050
  229POPC   C4B 7678   3.959   7.883   7.715
  230POPC   NC3 7679  10.442  30.548   9.707
  230POPC   PO4 7680  10.968  30.911   9.531
  230POPC   GL1 7681  10.645  30.916   9.179
  230POPC   GL2 7682  10.252  30.922   9.202
  230POPC   C1A 7683  10.508  30.664   8.804
  230POPC   D2A 7684  10.541  30.426   8.392
  230POPC   C3A 7685  10.669  30.717   8.062
  230POPC   C4A 7686  10.875  31.095   7.883
  230POPC   C1B 7687  10.036  30.873   8.788
  230POPC   C2B 7688  10.095  30.707   8.386
  230POPC   C3B 7689  10.044  30.898   7.969
  230POPC   C4B 7690  10.403  30.885   7.668
  231POPC   NC3 7691  12.029  14.765   9.477
  231POPC   PO4 7692  11.889  15.430   9.577
  231POPC   GL1 7693  12.011  15.196   9.186
  231POPC   GL2 7694  12.343  15.020   9.137
  231POPC   C1A 7695  11.937  15.287   8.746
  231POPC   D2A 7696  12.153  15.602   8.503
  231POPC   C3A 7697  12.170  15.626   8.065
  231POPC   C4A 7698  12.216  15.275   7.765
  231POPC   C1B 7699  12.323  14.963   8.659
  231POPC   C2B 7700  12.431  14.741   8.266
  231POPC   C3B 7701  12.514  14.888   7.891
  231POPC   C4B 7702  12.418  14.883   7.463
  232POPC   NC3 7703  37.352  19.698   9.588
  232POPC   PO4 7704  37.937  19.501   9.516
  232POPC   GL1 7705  37.667  19.687   9.168
  232POPC   GL2 7706  37.438  19.964   9.137
  232POPC   C1A 7707  37.606  19.710   8.719
  232POPC   D2A 7708  37.706  19.617   8.283
  232POPC   C3A 7709  37.751  19.885   7.924
  232POPC   C4A 7710  37.867  19.973   7.487
  232POPC   C1B 7711  37.275  20.145   8.759
  232POPC   C2B 7712  37.345  19.978   8.356
  232POPC   C3B 7713  37.293  20.110   7.968
  232POPC   C4B 7714  37.378  19.985   7.596
  233POPC   NC3 7715   4.022  11.142   9.436
  233POPC   PO4 7716   4.533  11.515   9.425
  233POPC   GL1 7717   4.367  11.281   9.092
  233POPC   GL2 7718   4.629  11.035   9.070
  233POPC   C1A 7719   4.032  11.312   8.791
  233POPC   D2A 7720   4.013  11.563   8.435
  233POPC   C3A 7721   4.277  11.392   8.142
  233POPC   C4A 7722   4.147  11.394   7.721
  233POPC   C1B 7723   4.581  11.228   8.634
  233POPC   C2B 7724   4.714  11.113   8.213
  233POPC   C3B 7725   4.646  11.227   7.774
  233POPC   C4B 7726   4.616  10.935   7.376
  234POPC   NC3 7727  26.323   6.449   9.430
  234POPC   PO4 7728  26.108   6.968   9.730
  234POPC   GL1 7729  26.008   6.856   9.284
  234POPC   GL2 7730  25.751   6.616   9.262
  234POPC   C1A 7731  26.121   6.799   8.829
  234POPC   D2A 7732  26.331   6.821   8.397
  234POPC   C3A 7733  26.100   6.672   8.047
  234POPC   C4A 7734  26.177   6.534   7.637
  234POPC   C1B 7735  25.740   6.466   8.835
  234POPC   C2B 7736  26.037   6.376   8.525
  234POPC   C3B 7737  25.947   6.183   8.153
  234POPC   C4B 7738  25.719   6.391   7.811
  235POPC   NC3 7739  14.209  16.484   9.413
  235POPC   PO4 7740  13.595  16.687   9.521
  235POPC   GL1 7741  13.664  16.916   9.156
  235POPC   GL2 7742  14.019  16.954   9.251
  235POPC   C1A 7743  13.494  16.975   8.746
  235POPC   D2A 7744  13.189  16.803   8.466
  235POPC   C3A 7745  13.241  16.672   8.073
  235POPC   C4A 7746  13.318  17.039   7.946
  235POPC   C1B 7747  14.013  17.013   8.786
  235POPC   C2B 7748  13.885  17.085   8.344
  235POPC   C3B 7749  13.813  16.833   7.954
  235POPC   C4B 7750  14.096  16.482   7.812
  236POPC   NC3 7751  35.723  28.638   9.495
  236POPC   PO4 7752  35.188  28.102   9.456
  236POPC   GL1 7753  35.487  28.255   9.144
  236POPC   GL2 7754  35.699  28.528   9.014
  236POPC   C1A 7755  35.553  28.146   8.722
  236POPC   D2A 7756  35.549  27.963   8.325
  236POPC   C3A 7757  35.151  28.111   8.175
  236POPC   C4A 7758  35.010  28.440   7.880
  236POPC   C1B 7759  35.449  28.679   8.659
  236POPC   C2B 7760  35.349  28.588   8.232
  236POPC   C3B 7761  35.485  28.792   7.847
  236POPC   C4B 7762  35.750  28.760   7.486
  237POPC   NC3 7763  17.556   1.121   9.618
  237POPC   PO4 7764  17.646   1.663   9.281
  237POPC   GL1 7765  17.300   1.339   9.200
  237POPC   GL2 7766  17.570   1.210   9.061
  237POPC   C1A 7767  17.241   1.051   8.759
  237POPC   D2A 7768  17.557   1.230   8.413
  237POPC   C3A 7769  17.597   0.996   8.029
  237POPC   C4A 7770  17.359   0.973   7.652
  237POPC   C1B 7771  17.319   1.542   8.739
  237POPC   C2B 7772  17.306   1.673   8.302
  237POPC   C3B 7773  17.596   1.548   7.960
  237POPC   C4B 7774  17.516   1.430   7.539
  238POPC   NC3 7775  42.487  31.583   9.793
  238POPC   PO4 7776  42.000  31.228   9.553
  238POPC   GL1 7777  42.157  31.405   9.205
  238POPC   GL2 7778  42.503  31.473   9.273
  238POPC   C1A 7779  42.175  31.194   8.817
  238POPC   D2A 7780  42.114  31.156   8.389
  238POPC   C3A 7781  42.366  31.442   8.129
  238POPC   C4A 7782  42.400  31.596   7.714
  238POPC   C1B 7783  42.436  31.650   8.843
  238POPC   C2B 7784  42.241  31.816   8.471
  238POPC   C3B 7785  42.351  31.975   8.098
  238POPC   C4B 7786  42.242  32.086   7.703
  239POPC   NC3 7787   3.026  19.358   9.489
  239POPC   PO4 7788   2.627  19.872   9.583
  239POPC   GL1 7789   2.704  19.889   9.145
  239POPC   GL2 7790   2.930  19.606   9.060
  239POPC   C1A 7791   2.540  19.723   8.754
  239POPC   D2A 7792   2.333  19.600   8.389
  239POPC   C3A 7793   2.549  19.876   8.107
  239POPC   C4A 7794   2.493  20.051   7.699
  239POPC   C1B 7795   3.125  19.538   8.632
  239POPC   C2B 7796   3.069  19.697   8.207
  239POPC   C3B 7797   2.870  19.539   7.858
  239POPC   C4B 7798   2.873  19.357   7.468
  240POPC   NC3 7799  37.862  24.653   9.407
  240POPC   PO4 7800  38.517  24.408   9.473
  240POPC   GL1 7801  38.254  24.381   9.144
  240POPC   GL2 7802  38.276  24.737   9.106
  240POPC   C1A 7803  38.428  24.277   8.732
  240POPC   D2A 7804  38.534  24.611   8.425
  240POPC   C3A 7805  38.616  24.426   8.039
  240POPC   C4A 7806  38.610  24.456   7.600
  240POPC   C1B 7807  38.058  24.617   8.727
  240POPC   C2B 7808  38.083  24.432   8.297
  240POPC   C3B 7809  38.171  24.667   7.929
  240POPC   C4B 7810  38.119  24.618   7.517
  241POPC   NC3 7811  33.135   0.852   9.710
  241POPC   PO4 7812  33.099   0.325   9.363
  241POPC   GL1 7813  33.028   0.391   8.991
  241POPC   GL2 7814  32.986   0.733   9.096
  241POPC   C1A 7815  32.961   0.233   8.601
  241POPC   D2A 7816  32.992   0.463   8.229
  241POPC   C3A 7817  33.310   0.360   7.970
  241POPC   C4A 7818  33.142   0.009   7.767
  241POPC   C1B 7819  33.019   0.790   8.674
  241POPC   C2B 7820  32.802   0.922   8.304
  241POPC   C3B 7821  32.660   0.785   7.913
  241POPC   C4B 7822  33.082   0.796   7.816
  242POPC   NC3 7823   8.819  35.521   9.494
  242POPC   PO4 7824   9.019  34.865   9.495
  242POPC   GL1 7825   9.192  35.164   9.181
  242POPC   GL2 7826   8.934  35.405   9.016
  242POPC   C1A 7827   9.201  35.063   8.744
  242POPC   D2A 7828   8.869  35.197   8.497
  242POPC   C3A 7829   8.894  35.109   8.073
  242POPC   C4A 7830   8.681  35.413   7.867
  242POPC   C1B 7831   9.203  35.564   8.676
  242POPC   C2B 7832   9.327  35.344   8.300
  242POPC   C3B 7833   9.208  35.496   7.930
  242POPC   C4B 7834   9.346  35.846   7.787
  243POPC   NC3 7835  30.502  26.952   9.550
  243POPC   PO4 7836  31.012  26.552   9.602
  243POPC   GL1 7837  30.838  26.720   9.224
  243POPC   GL2 7838  30.534  26.538   9.199
  243POPC   C1A 7839  30.816  26.657   8.774
  243POPC   D2A 7840  30.989  26.637   8.366
  243POPC   C3A 7841  30.724  26.797   8.051
  243POPC   C4A 7842  30.873  26.625   7.690
  243POPC   C1B 7843  30.288  26.546   8.817
  243POPC   C2B 7844  30.319  26.739   8.423
  243POPC   C3B 7845  30.250  26.531   8.054
  243POPC   C4B 7846  30.263  26.697   7.671
  244POPC   NC3 7847  34.626  10.242   9.421
  244POPC   PO4 7848  34.829  10.915   9.522
  244POPC   GL1 7849  34.759  10.680   9.132
  244POPC   GL2 7850  34.416  10.620   9.125
  244POPC   C1A 7851  34.640  10.751   8.677
  244POPC   D2A 7852  34.654  10.525   8.260
  244POPC   C3A 7853  34.675  10.652   7.808
  244POPC   C4A 7854  34.769  10.464   7.393
  244POPC   C1B 7855  34.311  10.335   8.788
  244POPC   C2B 7856  34.382  10.087   8.398
  244POPC   C3B 7857  34.174  10.200   8.021
  244POPC   C4B 7858  34.273  10.345   7.600
  245POPC   NC3 7859  22.103   2.546   9.414
  245POPC   PO4 7860  22.494   3.017   9.349
  245POPC   GL1 7861  22.247   2.875   9.017
  245POPC   GL2 7862  22.451   2.598   9.016
  245POPC   C1A 7863  22.133   3.015   8.575
  245POPC   D2A 7864  22.395   3.149   8.231
  245POPC   C3A 7865  22.288   2.948   7.838
  245POPC   C4A 7866  22.106   2.477   7.782
  245POPC   C1B 7867  22.294   2.531   8.628
  245POPC   C2B 7868  22.306   2.627   8.227
  245POPC   C3B 7869  22.603   2.548   7.883
  245POPC   C4B 7870  22.764   2.721   7.482
  246POPC   NC3 7871   4.995  13.785   9.453
  246POPC   PO4 7872   5.385  13.185   9.537
  246POPC   GL1 7873   5.390  13.480   9.166
  246POPC   GL2 7874   5.020  13.503   9.044
  246POPC   C1A 7875   5.359  13.385   8.692
  246POPC   D2A 7876   4.987  13.515   8.464
  246POPC   C3A 7877   4.983  13.733   8.095
  246POPC   C4A 7878   4.876  13.667   7.668
  246POPC   C1B 7879   5.157  13.877   8.789
  246POPC   C2B 7880   5.139  14.118   8.404
  246POPC   C3B 7881   5.358  14.069   8.025
  246POPC   C4B 7882   5.371  13.727   7.754
  247POPC   NC3 7883  22.623  30.856   9.406
  247POPC   PO4 7884  23.031  30.400   9.504
  247POPC   GL1 7885  23.176  30.659   9.169
  247POPC   GL2 7886  22.867  30.634   9.040
  247POPC   C1A 7887  23.219  30.870   8.745
  247POPC   D2A 7888  23.432  30.824   8.350
  247POPC   C3A 7889  23.195  30.891   7.971
  247POPC   C4A 7890  23.147  30.825   7.522
  247POPC   C1B 7891  22.844  30.453   8.697
  247POPC   C2B 7892  22.903  30.661   8.352
  247POPC   C3B 7893  22.588  30.653   8.068
  247POPC   C4B 7894  22.687  30.792   7.688
  248POPC   NC3 7895  17.893  37.719   9.436
  248POPC   PO4 7896  18.538  37.792   9.508
  248POPC   GL1 7897  18.516  37.965   9.091
  248POPC   GL2 7898  18.153  38.046   9.094
  248POPC   C1A 7899  18.431  37.840   8.646
  248POPC   D2A 7900  18.166  37.800   8.245
  248POPC   C3A 7901  18.226  37.808   7.766
  248POPC   C4A 7902  18.397  37.946   7.345
  248POPC   C1B 7903  17.905  37.958   8.709
  248POPC   C2B 7904  17.692  37.694   8.410
  248POPC   C3B 7905  17.703  37.694   7.951
  248POPC   C4B 7906  17.928  37.354   7.734
  249POPC   NC3 7907   2.631  14.407   9.482
  249POPC   PO4 7908   3.171  14.603   9.342
  249POPC   GL1 7909   2.925  14.405   9.061
  249POPC   GL2 7910   2.557  14.456   8.983
  249POPC   C1A 7911   2.974  14.553   8.669
  249POPC   D2A 7912   2.644  14.577   8.391
  249POPC   C3A 7913   2.928  14.419   8.110
  249POPC   C4A 7914   3.007  14.434   7.664
  249POPC   C1B 7915   2.638  14.147   8.684
  249POPC   C2B 7916   2.541  14.043   8.258
  249POPC   C3B 7917   2.626  14.150   7.827
  249POPC   C4B 7918   2.720  14.072   7.407
  250POPC   NC3 7919   3.373   3.997   9.319
  250POPC   PO4 7920   3.523   3.435   9.619
  250POPC   GL1 7921   3.491   3.340   9.162
  250POPC   GL2 7922   3.526   3.643   9.013
  250POPC   C1A 7923   3.551   3.257   8.701
  250POPC   D2A 7924   3.635   3.487   8.297
  250POPC   C3A 7925   3.496   3.291   7.943
  250POPC   C4A 7926   3.132   3.157   7.727
  250POPC   C1B 7927   3.468   3.806   8.632
  250POPC   C2B 7928   3.733   3.992   8.370
  250POPC   C3B 7929   3.709   4.055   7.960
  250POPC   C4B 7930   3.500   3.777   7.690
  251POPC   NC3 7931  27.337  20.696   9.694
  251POPC   PO4 7932  26.718  20.480   9.342
  251POPC   GL1 7933  26.838  20.628   9.003
  251POPC   GL2 7934  26.948  20.294   8.901
  251POPC   C1A 7935  26.776  20.625   8.568
  251POPC   D2A 7936  26.506  20.373   8.365
  251POPC   C3A 7937  26.584  20.552   7.999
  251POPC   C4A 7938  26.880  20.747   7.783
  251POPC   C1B 7939  27.184  20.275   8.532
  251POPC   C2B 7940  27.068  20.409   8.148
  251POPC   C3B 7941  26.923  20.209   7.799
  251POPC   C4B 7942  26.988  20.177   7.342
  252POPC   NC3 7943  37.897  22.620   9.476
  252POPC   PO4 7944  37.532  23.046   9.841
  252POPC   GL1 7945  37.576  23.001   9.319
  252POPC   GL2 7946  37.554  22.714   9.085
  252POPC   C1A 7947  37.512  23.161   8.874
  252POPC   D2A 7948  37.670  23.129   8.454
  252POPC   C3A 7949  37.671  22.880   8.071
  252POPC   C4A 7950  37.582  23.070   7.651
  252POPC   C1B 7951  37.581  22.645   8.639
  252POPC   C2B 7952  37.293  22.595   8.282
  252POPC   C3B 7953  37.318  22.571   7.818
  252POPC   C4B 7954  37.669  22.587   7.477
  253POPC   NC3 7955  37.778  44.218   9.498
  253POPC   PO4 7956  37.495  43.525   9.541
  253POPC   GL1 7957  37.638  43.832   9.177
  253POPC   GL2 7958  38.010  43.845   9.094
  253POPC   C1A 7959  37.739  43.751   8.706
  253POPC   D2A 7960  37.966  43.836   8.370
  253POPC   C3A 7961  37.738  43.830   8.020
  253POPC   C4A 7962  37.453  43.521   7.900
  253POPC   C1B 7963  38.011  44.187   8.766
  253POPC   C2B 7964  38.106  44.294   8.324
  253POPC   C3B 7965  38.176  44.051   7.933
  253POPC   C4B 7966  37.878  44.013   7.549
  254POPC   NC3 7967  20.387  16.511   9.330
  254POPC   PO4 7968  20.972  16.779   9.407
  254POPC   GL1 7969  20.736  16.848   9.093
  254POPC   GL2 7970  20.745  16.519   8.968
  254POPC   C1A 7971  20.851  16.988   8.703
  254POPC   D2A 7972  20.535  17.060   8.411
  254POPC   C3A 7973  20.555  16.894   8.005
  254POPC   C4A 7974  20.933  16.864   7.737
  254POPC   C1B 7975  20.466  16.582   8.622
  254POPC   C2B 7976  20.158  16.578   8.276
  254POPC   C3B 7977  20.206  16.371   7.897
  254POPC   C4B 7978  20.567  16.510   7.648
  255POPC   NC3 7979  28.248  43.521   9.472
  255POPC   PO4 7980  28.136  44.212   9.415
  255POPC   GL1 7981  28.152  43.882   9.123
  255POPC   GL2 7982  28.452  44.017   8.969
  255POPC   C1A 7983  28.150  43.697   8.723
  255POPC   D2A 7984  28.407  43.912   8.417
  255POPC   C3A 7985  28.147  43.939   8.064
  255POPC   C4A 7986  28.241  43.833   7.663
  255POPC   C1B 7987  28.086  44.233   8.719
  255POPC   C2B 7988  28.164  44.409   8.279
  255POPC   C3B 7989  28.402  44.340   7.846
  255POPC   C4B 7990  28.284  44.280   7.400
  256POPC   NC3 7991  32.546  20.308   9.580
  256POPC   PO4 7992  31.901  20.614   9.590
  256POPC   GL1 7993  32.058  20.351   9.252
  256POPC   GL2 7994  32.299  20.551   9.198
  256POPC   C1A 7995  32.051  20.328   8.788
  256POPC   D2A 7996  32.333  20.417   8.414
  256POPC   C3A 7997  32.211  20.316   7.974
  256POPC   C4A 7998  32.152  20.377   7.503
  256POPC   C1B 7999  32.364  20.746   8.818
  256POPC   C2B 8000  32.317  20.953   8.428
  256POPC   C3B 8001  32.420  20.773   8.034
  256POPC   C4B 8002  32.112  20.847   7.733
  257POPC   NC3 8003  26.321  23.051   9.475
  257POPC   PO4 8004  26.919  22.719   9.490
  257POPC   GL1 8005  26.735  22.684   9.117
  257POPC   GL2 8006  26.362  22.610   9.157
  257POPC   C1A 8007  26.897  22.950   8.771
  257POPC   D2A 8008  26.699  23.115   8.378
  257POPC   C3A 8009  26.952  23.034   8.003
  257POPC   C4A 8010  27.108  22.662   7.772
  257POPC   C1B 8011  26.396  22.951   8.840
  257POPC   C2B 8012  26.224  23.247   8.564
  257POPC   C3B 8013  26.253  23.215   8.109
  257POPC   C4B 8014  26.519  23.126   7.746
  258POPC   NC3 8015   8.366   0.112   9.719
  258POPC   PO4 8016   8.538   0.811   9.571
  258POPC   GL1 8017   8.214   0.640   9.272
  258POPC   GL2 8018   8.228   0.278   9.251
  258POPC   C1A 8019   8.059   0.652   8.835
  258POPC   D2A 8020   7.997   0.773   8.391
  258POPC   C3A 8021   8.342   0.653   8.136
  258POPC   C4A 8022   8.459   0.649   7.715
  258POPC   C1B 8023   8.010   0.147   8.878
  258POPC   C2B 8024   8.134   0.252   8.473
  258POPC   C3B 8025   8.019   0.133   8.100
  258POPC   C4B 8026   8.053   0.358   7.750
  259POPC   NC3 8027   9.286  12.053   9.553
  259POPC   PO4 8028   8.582  12.249   9.517
  259POPC   GL1 8029   8.820  12.027   9.204
  259POPC   GL2 8030   8.536  12.002   9.002
  259POPC   C1A 8031   8.999  12.013   8.756
  259POPC   D2A 8032   8.866  11.989   8.293
  259POPC   C3A 8033   9.083  12.089   7.872
  259POPC   C4A 8034   8.931  11.932   7.464
  259POPC   C1B 8035   8.496  12.260   8.657
  259POPC   C2B 8036   8.433  12.420   8.244
  259POPC   C3B 8037   8.609  12.245   7.897
  259POPC   C4B 8038   8.603  12.319   7.443
  260POPC   NC3 8039  34.940   8.642   9.661
  260POPC   PO4 8040  34.308   8.902   9.503
  260POPC   GL1 8041  34.562   9.048   9.181
  260POPC   GL2 8042  34.786   8.799   9.174
  260POPC   C1A 8043  34.682   9.194   8.785
  260POPC   D2A 8044  34.860   9.033   8.375
  260POPC   C3A 8045  34.838   9.227   7.954
  260POPC   C4A 8046  34.451   9.284   7.748
  260POPC   C1B 8047  34.564   8.680   8.801
  260POPC   C2B 8048  34.631   8.546   8.372
  260POPC   C3B 8049  34.573   8.784   7.988
  260POPC   C4B 8050  34.369   8.746   7.597
  261POPC   NC3 8051   4.056   4.540   9.470
  261POPC   PO4 8052   4.591   4.105   9.616
  261POPC   GL1 8053   4.490   4.336   9.243
  261POPC   GL2 8054   4.212   4.113   9.179
  261POPC   C1A 8055   4.421   4.519   8.801
  261POPC   D2A 8056   4.537   4.761   8.379
  261POPC   C3A 8057   4.430   4.477   8.016
  261POPC   C4A 8058   4.093   4.320   7.773
  261POPC   C1B 8059   4.383   3.971   8.796
  261POPC   C2B 8060   4.245   4.029   8.381
  261POPC   C3B 8061   4.378   3.928   7.985
  261POPC   C4B 8062   4.448   4.024   7.560
  262POPC   NC3 8063  36.879  18.817   9.615
  262POPC   PO4 8064  37.067  19.355   9.561
  262POPC   GL1 8065  36.835  19.186   9.189
  262POPC   GL2 8066  36.922  18.861   9.106
  262POPC   C1A 8067  36.728  19.339   8.769
  262POPC   D2A 8068  36.630  19.166   8.351
  262POPC   C3A 8069  36.883  19.287   7.998
  262POPC   C4A 8070  36.840  19.299   7.560
  262POPC   C1B 8071  36.578  18.841   8.813
  262POPC   C2B 8072  36.575  18.666   8.381
  262POPC   C3B 8073  36.826  18.740   8.015
  262POPC   C4B 8074  36.851  18.810   7.562
  263POPC   NC3 8075  31.029  27.799   9.429
  263POPC   PO4 8076  30.574  27.401   9.619
  263POPC   GL1 8077  30.670  27.537   9.181
  263POPC   GL2 8078  30.601  27.898   9.132
  263POPC   C1A 8079  30.744  27.457   8.713
  263POPC   D2A 8080  30.571  27.528   8.273
  263POPC   C3A 8081  30.844  27.412   7.913
  263POPC   C4A 8082  31.101  27.367   7.541
  263POPC   C1B 8083  30.317  27.733   8.835
  263POPC   C2B 8084  30.155  27.825   8.431
  263POPC   C3B 8085  30.223  27.861   8.022
  263POPC   C4B 8086  30.389  27.569   7.750
  264POPC   NC3 8087  28.061   7.659   9.671
  264POPC   PO4 8088  28.660   7.337   9.465
  264POPC   GL1 8089  28.415   7.439   9.151
  264POPC   GL2 8090  28.213   7.718   9.175
  264POPC   C1A 8091  28.552   7.573   8.764
  264POPC   D2A 8092  28.412   7.756   8.406
  264POPC   C3A 8093  28.453   7.552   8.039
  264POPC   C4A 8094  28.532   7.726   7.646
  264POPC   C1B 8095  28.044   7.644   8.759
  264POPC   C2B 8096  28.038   7.377   8.373
  264POPC   C3B 8097  27.969   7.393   7.924
  264POPC   C4B 8098  28.076   7.548   7.514
  265POPC   NC3 8099  12.733  37.866   9.507
  265POPC   PO4 8100  13.234  37.314   9.403
  265POPC   GL1 8101  12.992  37.604   9.177
  265POPC   GL2 8102  12.662  37.559   9.115
  265POPC   C1A 8103  12.984  37.816   8.774
  265POPC   D2A 8104  13.114  37.644   8.384
  265POPC   C3A 8105  13.099  37.876   8.006
  265POPC   C4A 8106  12.955  37.741   7.614
  265POPC   C1B 8107  12.657  37.407   8.725
  265POPC   C2B 8108  12.445  37.601   8.416
  265POPC   C3B 8109  12.572  37.681   8.037
  265POPC   C4B 8110  12.501  37.532   7.735
  266POPC   NC3 8111   7.720  24.918   9.439
  266POPC   PO4 8112   7.128  24.452   9.572
  266POPC   GL1 8113   7.261  24.431   9.132
  266POPC   GL2 8114   7.597  24.648   9.030
  266POPC   C1A 8115   7.456  24.250   8.758
  266POPC   D2A 8116   7.657  24.526   8.457
  266POPC   C3A 8117   7.505  24.476   8.030
  266POPC   C4A 8118   7.273  24.205   7.746
  266POPC   C1B 8119   7.251  24.731   8.737
  266POPC   C2B 8120   7.143  24.524   8.408
  266POPC   C3B 8121   7.043  24.757   8.087
  266POPC   C4B 8122   6.966  24.732   7.684
  267POPC   NC3 8123  21.485  10.603   9.504
  267POPC   PO4 8124  21.552  10.092   9.326
  267POPC   GL1 8125  21.631  10.461   9.032
  267POPC   GL2 8126  21.380  10.764   9.036
  267POPC   C1A 8127  21.579  10.517   8.594
  267POPC   D2A 8128  21.220  10.618   8.353
  267POPC   C3A 8129  21.264  10.568   7.913
  267POPC   C4A 8130  21.289  10.201   7.629
  267POPC   C1B 8131  21.675  10.973   8.784
  267POPC   C2B 8132  21.579  10.994   8.358
  267POPC   C3B 8133  21.663  10.903   7.942
  267POPC   C4B 8134  21.748  11.118   7.557
  268POPC   NC3 8135  44.687  31.817   9.526
  268POPC   PO4 8136  44.584  32.519   9.672
  268POPC   GL1 8137  44.543  32.263   9.269
  268POPC   GL2 8138  44.873  32.093   9.147
  268POPC   C1A 8139  44.544  32.306   8.801
  268POPC   D2A 8140  44.473  32.518   8.389
  268POPC   C3A 8141  44.668  32.244   8.092
  268POPC   C4A 8142  44.431  31.946   7.892
  268POPC   C1B 8143  44.794  31.806   8.796
  268POPC   C2B 8144  44.655  31.740   8.360
  268POPC   C3B 8145  44.891  31.725   7.988
  268POPC   C4B 8146   0.102  31.688   7.634
  269POPC   NC3 8147  23.675  29.468   9.543
  269POPC   PO4 8148  23.976  30.203   9.400
  269POPC   GL1 8149  23.776  30.009   9.063
  269POPC   GL2 8150  23.748  29.655   9.056
  269POPC   C1A 8151  23.590  29.952   8.659
  269POPC   D2A 8152  23.413  29.767   8.316
  269POPC   C3A 8153  23.737  29.923   8.093
  269POPC   C4A 8154  23.832  30.118   7.728
  269POPC   C1B 8155  24.076  29.769   8.714
  269POPC   C2B 8156  24.167  29.637   8.286
  269POPC   C3B 8157  24.038  29.585   7.851
  269POPC   C4B 8158  23.578  29.463   7.860
  270POPC   NC3 8159  39.471  10.140   9.475
  270POPC   PO4 8160  38.943   9.734   9.375
  270POPC   GL1 8161  39.145   9.960   9.097
  270POPC   GL2 8162  39.442   9.787   9.083
  270POPC   C1A 8163  39.052   9.880   8.679
  270POPC   D2A 8164  39.060   9.638   8.331
  270POPC   C3A 8165  38.961   9.829   7.973
  270POPC   C4A 8166  38.901   9.644   7.627
  270POPC   C1B 8167  39.541  10.046   8.743
  270POPC   C2B 8168  39.411  10.041   8.309
  270POPC   C3B 8169  39.472   9.708   8.024
  270POPC   C4B 8170  39.391   9.656   7.634
  271POPC   NC3 8171  38.298  19.940   9.500
  271POPC   PO4 8172  38.878  19.793   9.446
  271POPC   GL1 8173  38.553  19.843   9.065
  271POPC   GL2 8174  38.162  19.789   9.036
  271POPC   C1A 8175  38.494  19.718   8.623
  271POPC   D2A 8176  38.491  19.401   8.306
  271POPC   C3A 8177  38.562  19.538   7.907
  271POPC   C4A 8178  38.658  19.929   7.685
  271POPC   C1B 8179  38.043  19.934   8.601
  271POPC   C2B 8180  38.185  19.804   8.172
  271POPC   C3B 8181  38.203  20.114   7.824
  271POPC   C4B 8182  38.005  20.436   7.544
  272POPC   NC3 8183  36.449  39.804   9.393
  272POPC   PO4 8184  35.828  39.844   9.390
  272POPC   GL1 8185  36.059  40.142   9.102
  272POPC   GL2 8186  36.419  40.272   9.128
  272POPC   C1A 8187  35.920  40.057   8.693
  272POPC   D2A 8188  35.836  39.641   8.442
  272POPC   C3A 8189  35.785  39.754   7.995
  272POPC   C4A 8190  35.929  40.047   7.710
  272POPC   C1B 8191  36.438  40.025   8.746
  272POPC   C2B 8192  36.248  40.021   8.321
  272POPC   C3B 8193  36.376  40.145   7.931
  272POPC   C4B 8194  36.396  39.890   7.580
  273POPC   NC3 8195  20.252   5.503   9.438
  273POPC   PO4 8196  19.658   5.836   9.612
  273POPC   GL1 8197  19.679   5.579   9.210
  273POPC   GL2 8198  19.985   5.631   9.021
  273POPC   C1A 8199  19.545   5.653   8.752
  273POPC   D2A 8200  19.819   5.715   8.380
  273POPC   C3A 8201  19.838   5.942   7.974
  273POPC   C4A 8202  19.946   5.561   7.770
  273POPC   C1B 8203  19.892   6.038   8.798
  273POPC   C2B 8204  20.018   6.172   8.383
  273POPC   C3B 8205  20.202   6.314   7.986
  273POPC   C4B 8206  20.131   6.347   7.526
  274POPC   NC3 8207   3.640   5.442   9.397
  274POPC   PO4 8208   3.625   4.744   9.440
  274POPC   GL1 8209   3.626   5.044   9.065
  274POPC   GL2 8210   3.352   5.298   9.014
  274POPC   C1A 8211   3.835   5.334   8.750
  274POPC   D2A 8212   3.733   5.589   8.352
  274POPC   C3A 8213   3.793   5.422   7.968
  274POPC   C4A 8214   3.665   5.066   7.723
  274POPC   C1B 8215   3.382   5.185   8.577
  274POPC   C2B 8216   3.255   5.263   8.150
  274POPC   C3B 8217   3.122   5.068   7.774
  274POPC   C4B 8218   3.209   5.089   7.342
  275POPC   NC3 8219  30.848  13.586   9.596
  275POPC   PO4 8220  30.595  14.112   9.339
  275POPC   GL1 8221  30.733  13.793   9.124
  275POPC   GL2 8222  30.459  13.585   9.143
  275POPC   C1A 8223  30.638  13.779   8.693
  275POPC   D2A 8224  30.793  13.928   8.304
  275POPC   C3A 8225  30.698  13.750   7.890
  275POPC   C4A 8226  31.009  13.706   7.573
  275POPC   C1B 8227  30.538  13.303   8.798
  275POPC   C2B 8228  30.810  13.383   8.412
  275POPC   C3B 8229  30.785  13.245   7.982
  275POPC   C4B 8230  30.725  13.288   7.517
  276POPC   NC3 8231  17.176  38.733   9.425
  276POPC   PO4 8232  17.605  38.097   9.374
  276POPC   GL1 8233  17.716  38.333   9.003
  276POPC   GL2 8234  17.532  38.581   9.077
  276POPC   C1A 8235  17.473  38.313   8.638
  276POPC   D2A 8236  17.366  38.052   8.306
  276POPC   C3A 8237  17.363  38.229   7.967
  276POPC   C4A 8238  17.664  38.486   7.842
  276POPC   C1B 8239  17.340  38.812   8.725
  276POPC   C2B 8240  17.439  38.702   8.295
  276POPC   C3B 8241  17.226  38.713   7.933
  276POPC   C4B 8242  17.131  38.947   7.572
  277POPC   NC3 8243  37.668  14.739   9.402
  277POPC   PO4 8244  37.192  14.335   9.588
  277POPC   GL1 8245  37.408  14.318   9.206
  277POPC   GL2 8246  37.791  14.260   9.208
  277POPC   C1A 8247  37.426  14.527   8.833
  277POPC   D2A 8248  37.579  14.541   8.446
  277POPC   C3A 8249  37.355  14.416   8.124
  277POPC   C4A 8250  37.493  14.530   7.727
  277POPC   C1B 8251  37.980  14.409   8.828
  277POPC   C2B 8252  38.087  14.511   8.411
  277POPC   C3B 8253  37.904  14.397   8.012
  277POPC   C4B 8254  37.990  14.599   7.634
  278POPC   NC3 8255  10.001  31.966   9.562
  278POPC   PO4 8256   9.512  31.439   9.443
  278POPC   GL1 8257   9.721  31.456   9.086
  278POPC   GL2 8258  10.016  31.688   9.107
  278POPC   C1A 8259   9.788  31.339   8.694
  278POPC   D2A 8260  10.012  31.225   8.376
  278POPC   C3A 8261   9.757  31.347   8.073
  278POPC   C4A 8262   9.639  31.119   7.718
  278POPC   C1B 8263   9.706  31.849   8.808
  278POPC   C2B 8264   9.512  31.730   8.437
  278POPC   C3B 8265   9.597  31.861   8.027
  278POPC   C4B 8266   9.475  31.601   7.708
  279POPC   NC3 8267  16.604  17.642   9.534
  279POPC   PO4 8268  16.844  17.112   9.875
  279POPC   GL1 8269  16.930  17.278   9.401
  279POPC   GL2 8270  16.622  17.269   9.197
  279POPC   C1A 8271  17.001  17.515   8.948
  279POPC   D2A 8272  17.137  17.364   8.514
  279POPC   C3A 8273  16.997  17.540   8.116
  279POPC   C4A 8274  16.802  17.615   7.723
  279POPC   C1B 8275  16.509  17.583   8.848
  279POPC   C2B 8276  16.609  17.615   8.440
  279POPC   C3B 8277  16.484  17.451   8.069
  279POPC   C4B 8278  16.362  17.352   7.682
  280POPC   NC3 8279  24.405   4.988   9.742
  280POPC   PO4 8280  23.724   4.979   9.429
  280POPC   GL1 8281  23.815   4.999   9.021
  280POPC   GL2 8282  23.491   4.837   8.963
  280POPC   C1A 8283  23.748   5.241   8.656
  280POPC   D2A 8284  23.762   5.582   8.336
  280POPC   C3A 8285  23.664   5.534   7.911
  280POPC   C4A 8286  23.410   5.189   7.754
  280POPC   C1B 8287  23.594   4.773   8.512
  280POPC   C2B 8288  23.695   5.076   8.177
  280POPC   C3B 8289  23.975   5.126   7.813
  280POPC   C4B 8290  24.012   4.932   7.403
  281POPC   NC3 8291  10.792  22.040   9.538
  281POPC   PO4 8292  10.201  21.845   9.477
  281POPC   GL1 8293  10.483  21.912   9.130
  281POPC   GL2 8294  10.640  22.261   9.092
  281POPC   C1A 8295  10.464  21.989   8.700
  281POPC   D2A 8296  10.514  22.266   8.406
  281POPC   C3A 8297  10.480  21.904   8.078
  281POPC   C4A 8298  10.326  21.940   7.669
  281POPC   C1B 8299  10.949  21.997   8.837
  281POPC   C2B 8300  10.920  21.976   8.351
  281POPC   C3B 8301  10.742  22.295   7.964
  281POPC   C4B 8302  10.841  21.975   7.701
  282POPC   NC3 8303  19.477   5.250   9.601
  282POPC   PO4 8304  20.093   4.955   9.424
  282POPC   GL1 8305  19.892   5.099   9.075
  282POPC   GL2 8306  19.555   4.981   9.168
  282POPC   C1A 8307  19.974   5.276   8.645
  282POPC   D2A 8308  20.209   5.370   8.246
  282POPC   C3A 8309  20.088   5.074   7.929
  282POPC   C4A 8310  19.957   5.107   7.532
  282POPC   C1B 8311  19.518   4.992   8.730
  282POPC   C2B 8312  19.519   5.297   8.376
  282POPC   C3B 8313  19.604   5.199   7.948
  282POPC   C4B 8314  19.475   5.018   7.577
  283POPC   NC3 8315  18.399  17.939   9.787
  283POPC   PO4 8316  18.084  17.574   9.306
  283POPC   GL1 8317  18.383  17.323   9.150
  283POPC   GL2 8318  18.679  17.506   9.143
  283POPC   C1A 8319  18.449  17.326   8.727
  283POPC   D2A 8320  18.217  17.428   8.377
  283POPC   C3A 8321  18.396  17.260   8.017
  283POPC   C4A 8322  18.241  17.355   7.590
  283POPC   C1B 8323  18.776  17.746   8.755
  283POPC   C2B 8324  18.604  17.793   8.367
  283POPC   C3B 8325  18.431  17.784   7.967
  283POPC   C4B 8326  18.385  17.842   7.530
  284POPC   NC3 8327  34.086  41.005   9.473
  284POPC   PO4 8328  33.667  40.504   9.706
  284POPC   GL1 8329  33.703  40.659   9.155
  284POPC   GL2 8330  33.972  40.868   9.011
  284POPC   C1A 8331  33.883  40.490   8.689
  284POPC   D2A 8332  34.141  40.391   8.298
  284POPC   C3A 8333  33.946  40.370   7.848
  284POPC   C4A 8334  33.582  40.491   7.503
  284POPC   C1B 8335  33.875  41.001   8.586
  284POPC   C2B 8336  33.768  40.735   8.243
  284POPC   C3B 8337  33.777  40.845   7.819
  284POPC   C4B 8338  34.015  41.126   7.619
  285POPC   NC3 8339   2.316   9.494   9.579
  285POPC   PO4 8340   2.892   9.788   9.411
  285POPC   GL1 8341   2.631   9.763   9.085
  285POPC   GL2 8342   2.618   9.399   9.156
  285POPC   C1A 8343   2.539   9.929   8.653
  285POPC   D2A 8344   2.337   9.992   8.225
  285POPC   C3A 8345   2.523   9.735   7.870
  285POPC   C4A 8346   2.958   9.752   7.742
  285POPC   C1B 8347   2.809   9.426   8.751
  285POPC   C2B 8348   3.044   9.456   8.401
  285POPC   C3B 8349   3.094   9.332   7.991
  285POPC   C4B 8350   2.759   9.285   7.677
  286POPC   NC3 8351  18.127  31.198   9.474
  286POPC   PO4 8352  18.281  31.895   9.490
  286POPC   GL1 8353  18.124  31.606   9.179
  286POPC   GL2 8354  17.980  31.824   8.957
  286POPC   C1A 8355  18.190  31.291   8.824
  286POPC   D2A 8356  18.206  31.436   8.423
  286POPC   C3A 8357  18.209  31.253   8.046
  286POPC   C4A 8358  17.920  31.350   7.765
  286POPC   C1B 8359  18.440  31.745   8.803
  286POPC   C2B 8360  18.664  31.659   8.404
  286POPC   C3B 8361  18.528  31.637   7.964
  286POPC   C4B 8362  18.737  31.577   7.567
  287POPC   NC3 8363   3.195  27.772   9.518
  287POPC   PO4 8364   3.751  27.351   9.501
  287POPC   GL1 8365   3.475  27.480   9.214
  287POPC   GL2 8366   3.618  27.777   9.142
  287POPC   C1A 8367   3.479  27.435   8.809
  287POPC   D2A 8368   3.796  27.607   8.592
  287POPC   C3A 8369   3.700  27.763   8.244
  287POPC   C4A 8370   3.515  27.520   7.950
  287POPC   C1B 8371   3.601  28.050   8.758
  287POPC   C2B 8372   3.326  28.154   8.427
  287POPC   C3B 8373   3.288  27.979   8.040
  287POPC   C4B 8374   3.432  27.888   7.624
  288POPC   NC3 8375  36.183  22.824   9.458
  288POPC   PO4 8376  36.277  23.512   9.645
  288POPC   GL1 8377  36.309  23.294   9.215
  288POPC   GL2 8378  36.642  23.131   9.252
  288POPC   C1A 8379  36.065  23.202   8.801
  288POPC   D2A 8380  35.803  23.101   8.418
  288POPC   C3A 8381  35.974  22.870   8.043
  288POPC   C4A 8382  36.146  23.054   7.669
  288POPC   C1B 8383  36.548  22.941   8.844
  288POPC   C2B 8384  36.345  22.999   8.426
  288POPC   C3B 8385  36.476  22.880   8.037
  288POPC   C4B 8386  36.339  22.529   7.788
  289POPC   NC3 8387  40.549   8.550   9.382
  289POPC   PO4 8388  41.077   9.010   9.427
  289POPC   GL1 8389  40.911   8.806   9.096
  289POPC   GL2 8390  40.588   9.003   9.117
  289POPC   C1A 8391  40.876   8.961   8.680
  289POPC   D2A 8392  40.567   9.110   8.382
  289POPC   C3A 8393  40.720   9.169   7.953
  289POPC   C4A 8394  41.047   9.041   7.667
  289POPC   C1B 8395  40.403   8.790   8.761
  289POPC   C2B 8396  40.588   8.595   8.422
  289POPC   C3B 8397  40.595   8.695   8.036
  289POPC   C4B 8398  40.678   8.690   7.630
  290POPC   NC3 8399  14.822  23.557   9.442
  290POPC   PO4 8400  15.432  23.931   9.469
  290POPC   GL1 8401  15.293  23.703   9.143
  290POPC   GL2 8402  14.984  23.870   9.067
  290POPC   C1A 8403  15.439  23.604   8.745
  290POPC   D2A 8404  15.595  23.651   8.317
  290POPC   C3A 8405  15.422  23.817   7.962
  290POPC   C4A 8406  15.252  23.583   7.632
  290POPC   C1B 8407  14.922  23.533   8.785
  290POPC   C2B 8408  15.089  23.550   8.379
  290POPC   C3B 8409  14.947  23.721   8.051
  290POPC   C4B 8410  14.843  24.062   7.794
  291POPC   NC3 8411  19.839  33.657   9.615
  291POPC   PO4 8412  19.527  34.156   9.415
  291POPC   GL1 8413  19.755  33.891   9.121
  291POPC   GL2 8414  20.106  33.873   9.124
  291POPC   C1A 8415  19.735  33.904   8.671
  291POPC   D2A 8416  19.810  34.132   8.307
  291POPC   C3A 8417  19.770  33.926   7.893
  291POPC   C4A 8418  19.470  33.609   7.686
  291POPC   C1B 8419  20.197  33.716   8.697
  291POPC   C2B 8420  20.155  33.756   8.229
  291POPC   C3B 8421  20.235  33.682   7.789
  291POPC   C4B 8422  20.343  33.304   7.514
  292POPC   NC3 8423  43.634  36.590   9.412
  292POPC   PO4 8424  43.891  37.215   9.520
  292POPC   GL1 8425  43.935  36.935   9.126
  292POPC   GL2 8426  43.674  36.713   8.928
  292POPC   C1A 8427  44.093  36.888   8.689
  292POPC   D2A 8428  44.001  37.097   8.278
  292POPC   C3A 8429  43.889  36.893   7.863
  292POPC   C4A 8430  44.028  36.967   7.419
  292POPC   C1B 8431  43.591  36.984   8.603
  292POPC   C2B 8432  43.484  36.923   8.192
  292POPC   C3B 8433  43.386  36.857   7.792
  292POPC   C4B 8434  43.582  36.752   7.448
  293POPC   NC3 8435  15.631  10.391   9.401
  293POPC   PO4 8436  16.022  10.740   9.774
  293POPC   GL1 8437  16.074  10.610   9.321
  293POPC   GL2 8438  16.083  10.300   9.156
  293POPC   C1A 8439  16.065  10.682   8.844
  293POPC   D2A 8440  15.974  10.505   8.436
  293POPC   C3A 8441  15.811  10.775   8.109
  293POPC   C4A 8442  15.970  10.704   7.733
  293POPC   C1B 8443  15.936  10.101   8.758
  293POPC   C2B 8444  15.644  10.102   8.370
  293POPC   C3B 8445  15.707  10.313   7.941
  293POPC   C4B 8446  15.717  10.332   7.431
  294POPC   NC3 8447  28.883  22.526   9.369
  294POPC   PO4 8448  29.335  23.016   9.564
  294POPC   GL1 8449  29.239  22.918   9.155
  294POPC   GL2 8450  29.369  22.603   9.150
  294POPC   C1A 8451  29.135  23.108   8.725
  294POPC   D2A 8452  29.246  23.311   8.339
  294POPC   C3A 8453  28.988  23.108   8.003
  294POPC   C4A 8454  29.178  22.874   7.669
  294POPC   C1B 8455  29.203  22.578   8.732
  294POPC   C2B 8456  29.058  22.737   8.340
  294POPC   C3B 8457  28.834  22.608   7.981
  294POPC   C4B 8458  28.799  22.536   7.557
  295POPC   NC3 8459  27.055  27.976   9.517
  295POPC   PO4 8460  26.907  28.657   9.578
  295POPC   GL1 8461  26.975  28.426   9.232
  295POPC   GL2 8462  26.695  28.197   9.226
  295POPC   C1A 8463  26.980  28.363   8.797
  295POPC   D2A 8464  27.074  28.455   8.378
  295POPC   C3A 8465  27.009  28.183   8.028
  295POPC   C4A 8466  27.206  28.282   7.646
  295POPC   C1B 8467  26.643  27.997   8.831
  295POPC   C2B 8468  26.636  28.139   8.405
  295POPC   C3B 8469  26.462  28.152   7.988
  295POPC   C4B 8470  26.677  28.301   7.607
  296POPC   NC3 8471   9.019  36.297   9.429
  296POPC   PO4 8472   8.497  35.874   9.544
  296POPC   GL1 8473   8.760  35.925   9.153
  296POPC   GL2 8474   9.097  35.923   9.027
  296POPC   C1A 8475   8.711  35.777   8.725
  296POPC   D2A 8476   8.825  35.668   8.310
  296POPC   C3A 8477   9.010  36.001   8.143
  296POPC   C4A 8478   8.907  36.087   7.750
  296POPC   C1B 8479   9.048  36.230   8.712
  296POPC   C2B 8480   9.265  36.393   8.358
  296POPC   C3B 8481   9.505  36.309   7.979
  296POPC   C4B 8482   9.334  36.301   7.560
  297POPC   NC3 8483  29.371  30.957   9.467
  297POPC   PO4 8484  29.175  31.691   9.503
  297POPC   GL1 8485  29.226  31.607   9.117
  297POPC   GL2 8486  29.105  31.270   9.153
  297POPC   C1A 8487  29.388  31.747   8.737
  297POPC   D2A 8488  29.176  31.680   8.347
  297POPC   C3A 8489  29.387  31.846   8.003
  297POPC   C4A 8490  29.196  31.678   7.638
  297POPC   C1B 8491  29.074  31.334   8.725
  297POPC   C2B 8492  29.090  31.138   8.350
  297POPC   C3B 8493  29.024  31.327   7.975
  297POPC   C4B 8494  28.851  31.264   7.595
  298POPC   NC3 8495  33.857  42.485   9.566
  298POPC   PO4 8496  33.351  42.039   9.411
  298POPC   GL1 8497  33.629  42.240   9.175
  298POPC   GL2 8498  33.934  42.088   9.052
  298POPC   C1A 8499  33.590  42.387   8.800
  298POPC   D2A 8500  33.480  42.426   8.431
  298POPC   C3A 8501  33.662  42.297   8.080
  298POPC   C4A 8502  33.563  42.458   7.689
  298POPC   C1B 8503  34.043  42.533   8.903
  298POPC   C2B 8504  33.957  42.622   8.476
  298POPC   C3B 8505  34.047  42.650   8.059
  298POPC   C4B 8506  34.067  42.285   7.765
  299POPC   NC3 8507  21.939  14.751   9.522
  299POPC   PO4 8508  22.413  14.222   9.415
  299POPC   GL1 8509  22.087  14.399   9.161
  299POPC   GL2 8510  21.994  14.140   8.913
  299POPC   C1A 8511  21.913  14.623   8.781
  299POPC   D2A 8512  21.822  14.346   8.436
  299POPC   C3A 8513  21.962  14.445   8.029
  299POPC   C4A 8514  22.035  14.588   7.610
  299POPC   C1B 8515  22.359  14.391   8.721
  299POPC   C2B 8516  22.511  14.708   8.437
  299POPC   C3B 8517  22.471  14.601   8.015
  299POPC   C4B 8518  22.344  14.215   7.800
  300POPC   NC3 8519  18.401  19.126   9.499
  300POPC   PO4 8520  17.835  18.900   9.503
  300POPC   GL1 8521  18.137  18.923   9.127
  300POPC   GL2 8522  18.550  18.818   9.115
  300POPC   C1A 8523  18.208  19.205   8.780
  300POPC   D2A 8524  18.220  19.037   8.364
  300POPC   C3A 8525  18.135  19.048   7.929
  300POPC   C4A 8526  18.077  18.669   7.711
  300POPC   C1B 8527  18.706  19.188   8.852
  300POPC   C2B 8528  18.600  19.371   8.465
  300POPC   C3B 8529  18.622  19.198   8.062
  300POPC   C4B 8530  18.595  18.991   7.657
  301POPC   NC3 8531  26.474  24.774   9.353
  301POPC   PO4 8532  25.936  24.360   9.507
  301POPC   GL1 8533  25.837  24.431   9.084
  301POPC   GL2 8534  26.028  24.727   9.073
  301POPC   C1A 8535  25.929  24.505   8.617
  301POPC   D2A 8536  26.241  24.366   8.324
  301POPC   C3A 8537  26.113  24.258   7.889
  301POPC   C4A 8538  26.346  24.030   7.566
  301POPC   C1B 8539  26.260  24.886   8.721
  301POPC   C2B 8540  26.157  24.899   8.310
  301POPC   C3B 8541  26.298  24.723   7.958
  301POPC   C4B 8542  26.412  24.918   7.643
  302POPC   NC3 8543   7.795  27.526   9.406
  302POPC   PO4 8544   8.427  27.321   9.533
  302POPC   GL1 8545   8.383  27.547   9.136
  302POPC   GL2 8546   8.072  27.734   9.029
  302POPC   C1A 8547   8.457  27.611   8.690
  302POPC   D2A 8548   8.255  27.916   8.395
  302POPC   C3A 8549   8.301  27.747   7.978
  302POPC   C4A 8550   8.610  27.463   7.824
  302POPC   C1B 8551   8.015  27.365   8.750
  302POPC   C2B 8552   8.186  27.348   8.327
  302POPC   C3B 8553   8.032  27.288   7.928
  302POPC   C4B 8554   7.945  27.573   7.600
  303POPC   NC3 8555  34.958  27.692   9.498
  303POPC   PO4 8556  35.529  27.352   9.445
  303POPC   GL1 8557  35.359  27.623   9.143
  303POPC   GL2 8558  35.079  27.417   9.080
  303POPC   C1A 8559  35.305  27.680   8.698
  303POPC   D2A 8560  35.372  27.465   8.303
  303POPC   C3A 8561  35.315  27.715   7.905
  303POPC   C4A 8562  35.521  28.131   7.796
  303POPC   C1B 8563  35.083  27.199   8.691
  303POPC   C2B 8564  35.135  27.007   8.292
  303POPC   C3B 8565  35.089  27.240   7.912
  303POPC   C4B 8566  34.981  27.547   7.561
  304POPC   NC3 8567   5.615  15.618   9.627
  304POPC   PO4 8568   4.943  15.877   9.566
  304POPC   GL1 8569   5.044  16.032   9.188
  304POPC   GL2 8570   4.829  16.310   9.168
  304POPC   C1A 8571   5.220  15.886   8.816
  304POPC   D2A 8572   5.251  16.066   8.439
  304POPC   C3A 8573   5.128  15.874   8.079
  304POPC   C4A 8574   5.364  15.775   7.715
  304POPC   C1B 8575   4.964  16.344   8.763
  304POPC   C2B 8576   4.724  16.284   8.395
  304POPC   C3B 8577   4.728  16.180   7.963
  304POPC   C4B 8578   5.119  16.304   7.761
  305POPC   NC3 8579   5.032  23.029   9.665
  305POPC   PO4 8580   5.396  22.514   9.435
  305POPC   GL1 8581   5.078  22.740   9.251
  305POPC   GL2 8582   5.239  23.076   9.199
  305POPC   C1A 8583   4.941  22.779   8.859
  305POPC   D2A 8584   5.071  22.589   8.475
  305POPC   C3A 8585   5.055  22.719   8.062
  305POPC   C4A 8586   5.012  22.900   7.649
  305POPC   C1B 8587   5.071  23.286   8.849
  305POPC   C2B 8588   5.155  23.383   8.440
  305POPC   C3B 8589   5.143  23.223   8.038
  305POPC   C4B 8590   4.868  23.403   7.757
  306POPC   NC3 8591  41.970  30.769   9.530
  306POPC   PO4 8592  42.386  30.308   9.500
  306POPC   GL1 8593  42.337  30.425   9.106
  306POPC   GL2 8594  42.264  30.775   9.102
  306POPC   C1A 8595  42.618  30.432   8.750
  306POPC   D2A 8596  42.736  30.614   8.320
  306POPC   C3A 8597  42.595  30.479   7.908
  306POPC   C4A 8598  42.172  30.539   7.695
  306POPC   C1B 8599  42.090  30.639   8.691
  306POPC   C2B 8600  42.197  30.663   8.246
  306POPC   C3B 8601  42.305  30.947   7.955
  306POPC   C4B 8602  42.186  31.084   7.563
  307POPC   NC3 8603  44.743  28.475   9.506
  307POPC   PO4 8604  44.131  28.325   9.462
  307POPC   GL1 8605  44.418  28.304   9.097
  307POPC   GL2 8606  44.757  28.100   9.127
  307POPC   C1A 8607  44.681  28.556   8.828
  307POPC   D2A 8608  44.801  28.765   8.453
  307POPC   C3A 8609  44.645  28.579   8.101
  307POPC   C4A 8610  44.778  28.422   7.755
  307POPC   C1B 8611  44.785  28.066   8.696
  307POPC   C2B 8612  44.492  28.177   8.376
  307POPC   C3B 8613  44.436  28.071   7.949
  307POPC   C4B 8614  44.800  27.907   7.759
  308POPC   NC3 8615  26.325  35.416   9.539
  308POPC   PO4 8616  26.993  35.274   9.491
  308POPC   GL1 8617  26.746  35.197   9.130
  308POPC   GL2 8618  26.549  35.514   9.091
  308POPC   C1A 8619  26.905  35.034   8.724
  308POPC   D2A 8620  27.139  35.221   8.394
  308POPC   C3A 8621  27.119  35.097   7.949
  308POPC   C4A 8622  27.154  35.373   7.600
  308POPC   C1B 8623  26.671  35.492   8.670
  308POPC   C2B 8624  26.632  35.239   8.319
  308POPC   C3B 8625  26.793  35.482   8.022
  308POPC   C4B 8626  26.678  35.563   7.617
  309POPC   NC3 8627  27.397   4.145   9.476
  309POPC   PO4 8628  27.474   4.714   9.218
  309POPC   GL1 8629  27.738   4.385   9.086
  309POPC   GL2 8630  27.690   4.011   9.064
  309POPC   C1A 8631  27.635   4.321   8.656
  309POPC   D2A 8632  27.330   4.309   8.318
  309POPC   C3A 8633  27.631   4.153   8.028
  309POPC   C4A 8634  27.859   4.226   7.634
  309POPC   C1B 8635  27.281   3.960   8.809
  309POPC   C2B 8636  27.078   3.864   8.392
  309POPC   C3B 8637  27.134   3.963   7.927
  309POPC   C4B 8638  27.365   4.184   7.597
  310POPC   NC3 8639  44.979  23.599   9.850
  310POPC   PO4 8640   0.483  24.031   9.579
  310POPC   GL1 8641   0.383  23.893   9.198
  310POPC   GL2 8642   0.106  23.679   9.209
  310POPC   C1A 8643   0.551  23.788   8.811
  310POPC   D2A 8644   0.521  23.834   8.368
  310POPC   C3A 8645   0.600  23.492   8.120
  310POPC   C4A 8646   0.556  23.524   7.713
  310POPC   C1B 8647   0.053  23.611   8.771
  310POPC   C2B 8648   0.155  23.416   8.377
  310POPC   C3B 8649   0.113  23.609   7.983
  310POPC   C4B 8650   0.061  23.536   7.553
  311POPC   NC3 8651  42.579  37.440   9.653
  311POPC   PO4 8652  42.041  37.866   9.509
  311POPC   GL1 8653  42.303  37.676   9.223
  311POPC   GL2 8654  42.251  37.324   9.244
  311POPC   C1A 8655  42.526  37.851   8.884
  311POPC   D2A 8656  42.464  37.949   8.500
  311POPC   C3A 8657  42.485  37.790   8.103
  311POPC   C4A 8658  42.373  37.799   7.691
  311POPC   C1B 8659  42.390  37.373   8.832
  311POPC   C2B 8660  42.237  37.499   8.449
  311POPC   C3B 8661  42.115  37.392   8.069
  311POPC   C4B 8662  42.312  37.309   7.698
  312POPC   NC3 8663   8.394  24.308   9.471
  312POPC   PO4 8664   8.168  24.886   9.574
  312POPC   GL1 8665   8.142  24.676   9.185
  312POPC   GL2 8666   8.492  24.740   9.175
  312POPC   C1A 8667   8.050  24.452   8.799
  312POPC   D2A 8668   8.104  24.284   8.370
  312POPC   C3A 8669   8.021  24.472   7.969
  312POPC   C4A 8670   8.005  24.132   7.719
  312POPC   C1B 8671   8.654  24.699   8.792
  312POPC   C2B 8672   8.357  24.724   8.481
  312POPC   C3B 8673   8.416  24.776   8.096
  312POPC   C4B 8674   8.498  24.742   7.704
  313POPC   NC3 8675  34.938  19.855   9.530
  313POPC   PO4 8676  35.460  19.512   9.513
  313POPC   GL1 8677  35.373  19.726   9.164
  313POPC   GL2 8678  35.068  19.532   9.110
  313POPC   C1A 8679  35.707  19.887   8.860
  313POPC   D2A 8680  35.601  20.128   8.490
  313POPC   C3A 8681  35.528  19.832   8.134
  313POPC   C4A 8682  35.382  19.931   7.722
  313POPC   C1B 8683  34.998  19.759   8.717
  313POPC   C2B 8684  35.073  19.955   8.310
  313POPC   C3B 8685  34.910  19.905   7.891
  313POPC   C4B 8686  34.920  19.952   7.441
  314POPC   NC3 8687   4.938  15.518   9.281
  314POPC   PO4 8688   5.421  15.119   9.432
  314POPC   GL1 8689   5.101  15.044   9.125
  314POPC   GL2 8690   5.323  14.781   9.055
  314POPC   C1A 8691   4.937  15.178   8.708
  314POPC   D2A 8692   4.814  15.319   8.297
  314POPC   C3A 8693   5.094  15.386   7.944
  314POPC   C4A 8694   5.067  15.254   7.546
  314POPC   C1B 8695   5.444  15.075   8.742
  314POPC   C2B 8696   5.316  15.138   8.323
  314POPC   C3B 8697   5.387  14.953   7.907
  314POPC   C4B 8698   5.503  14.568   7.703
  315POPC   NC3 8699   5.346  12.337   9.470
  315POPC   PO4 8700   4.972  11.872   9.746
  315POPC   GL1 8701   5.081  11.857   9.286
  315POPC   GL2 8702   5.353  11.951   9.126
  315POPC   C1A 8703   4.924  11.741   8.875
  315POPC   D2A 8704   4.971  11.530   8.480
  315POPC   C3A 8705   5.045  11.810   8.157
  315POPC   C4A 8706   4.781  11.888   7.819
  315POPC   C1B 8707   5.271  12.230   8.766
  315POPC   C2B 8708   5.101  12.300   8.359
  315POPC   C3B 8709   5.181  12.268   7.938
  315POPC   C4B 8710   5.140  12.176   7.547
  316POPC   NC3 8711  37.075  13.934   9.387
  316POPC   PO4 8712  37.545  13.418   9.571
  316POPC   GL1 8713  37.375  13.465   9.151
  316POPC   GL2 8714  37.500  13.808   9.139
  316POPC   C1A 8715  37.624  13.519   8.749
  316POPC   D2A 8716  37.910  13.582   8.411
  316POPC   C3A 8717  37.754  13.524   8.000
  316POPC   C4A 8718  37.978  13.349   7.680
  316POPC   C1B 8719  37.592  14.043   8.761
  316POPC   C2B 8720  37.714  14.060   8.335
  316POPC   C3B 8721  37.557  13.991   7.909
  316POPC   C4B 8722  37.644  13.723   7.521
  317POPC   NC3 8723  10.118   1.189   9.439
  317POPC   PO4 8724  10.888   1.365   9.511
  317POPC   GL1 8725  10.645   1.406   9.081
  317POPC   GL2 8726  10.265   1.363   8.985
  317POPC   C1A 8727  10.602   1.431   8.605
  317POPC   D2A 8728  10.273   1.379   8.292
  317POPC   C3A 8729  10.459   1.257   7.919
  317POPC   C4A 8730  10.568   1.382   7.507
  317POPC   C1B 8731  10.301   0.993   8.703
  317POPC   C2B 8732  10.356   0.853   8.261
  317POPC   C3B 8733  10.150   0.855   7.830
  317POPC   C4B 8734  10.217   1.061   7.425
  318POPC   NC3 8735  35.825  17.331   9.310
  318POPC   PO4 8736  35.410  17.844   9.334
  318POPC   GL1 8737  35.336  17.451   9.167
  318POPC   GL2 8738  35.016  17.332   9.177
  318POPC   C1A 8739  35.415  17.402   8.757
  318POPC   D2A 8740  35.383  17.700   8.411
  318POPC   C3A 8741  35.385  17.569   7.969
  318POPC   C4A 8742  35.735  17.631   7.713
  318POPC   C1B 8743  34.936  17.213   8.778
  318POPC   C2B 8744  35.003  17.352   8.387
  318POPC   C3B 8745  34.845  17.279   7.995
  318POPC   C4B 8746  34.960  17.300   7.594
  319POPC   NC3 8747  19.498  22.986   9.453
  319POPC   PO4 8748  18.939  23.245   9.390
  319POPC   GL1 8749  19.075  22.985   9.086
  319POPC   GL2 8750  18.773  22.757   9.079
  319POPC   C1A 8751  19.145  23.080   8.658
  319POPC   D2A 8752  18.892  22.830   8.339
  319POPC   C3A 8753  19.038  22.929   7.923
  319POPC   C4A 8754  19.130  22.803   7.497
  319POPC   C1B 8755  18.646  23.048   8.747
  319POPC   C2B 8756  18.527  23.271   8.363
  319POPC   C3B 8757  18.738  23.349   7.969
  319POPC   C4B 8758  18.722  23.121   7.564
  320POPC   NC3 8759   1.205   4.036   9.399
  320POPC   PO4 8760   0.755   3.599   9.444
  320POPC   GL1 8761   1.059   3.469   9.120
  320POPC   GL2 8762   1.431   3.578   9.122
  320POPC   C1A 8763   1.092   3.628   8.689
  320POPC   D2A 8764   0.811   3.760   8.325
  320POPC   C3A 8765   0.950   3.633   7.893
  320POPC   C4A 8766   1.216   3.755   7.508
  320POPC   C1B 8767   1.601   3.688   8.701
  320POPC   C2B 8768   1.435   3.479   8.343
  320POPC   C3B 8769   1.463   3.620   7.948
  320POPC   C4B 8770   1.567   3.391   7.604
  321POPC   NC3 8771  37.520  18.049   9.641
  321POPC   PO4 8772  37.729  17.385   9.571
  321POPC   GL1 8773  37.542  17.552   9.144
  321POPC   GL2 8774  37.864  17.496   9.025
  321POPC   C1A 8775  37.539  17.594   8.647
  321POPC   D2A 8776  37.822  17.504   8.265
  321POPC   C3A 8777  37.595  17.573   7.880
  321POPC   C4A 8778  37.167  17.475   7.958
  321POPC   C1B 8779  37.918  17.188   8.701
  321POPC   C2B 8780  38.054  17.020   8.291
  321POPC   C3B 8781  38.138  17.272   7.902
  321POPC   C4B 8782  38.032  17.584   7.573
  322POPC   NC3 8783  25.936  41.192   9.408
  322POPC   PO4 8784  26.132  41.785   9.589
  322POPC   GL1 8785  26.180  41.602   9.207
  322POPC   GL2 8786  25.870  41.714   9.134
  322POPC   C1A 8787  26.108  41.335   8.816
  322POPC   D2A 8788  25.974  41.442   8.407
  322POPC   C3A 8789  26.197  41.746   8.155
  322POPC   C4A 8790  26.339  41.629   7.752
  322POPC   C1B 8791  26.038  41.829   8.740
  322POPC   C2B 8792  25.762  41.893   8.410
  322POPC   C3B 8793  25.684  41.815   8.027
  322POPC   C4B 8794  25.903  41.934   7.690
  323POPC   NC3 8795   4.594   5.655   9.183
  323POPC   PO4 8796   4.017   5.653   9.576
  323POPC   GL1 8797   3.948   5.863   9.148
  323POPC   GL2 8798   4.263   6.058   9.038
  323POPC   C1A 8799   4.077   5.791   8.672
  323POPC   D2A 8800   4.445   5.713   8.387
  323POPC   C3A 8801   4.297   5.610   7.990
  323POPC   C4A 8802   4.022   5.918   7.983
  323POPC   C1B 8803   4.520   6.263   8.711
  323POPC   C2B 8804   4.526   6.399   8.293
  323POPC   C3B 8805   4.544   6.068   7.987
  323POPC   C4B 8806   4.345   5.995   7.586
  324POPC   NC3 8807  10.479  35.735   9.448
  324POPC   PO4 8808  10.220  36.332   9.571
  324POPC   GL1 8809  10.526  36.224   9.217
  324POPC   GL2 8810  10.792  36.457   9.175
  324POPC   C1A 8811  10.595  35.987   8.816
  324POPC   D2A 8812  10.259  35.767   8.558
  324POPC   C3A 8813  10.303  35.869   8.121
  324POPC   C4A 8814  10.427  35.844   7.696
  324POPC   C1B 8815  10.648  36.512   8.745
  324POPC   C2B 8816  10.490  36.291   8.379
  324POPC   C3B 8817  10.618  36.316   7.960
  324POPC   C4B 8818  10.867  36.174   7.634
  325POPC   NC3 8819  44.162  24.748   9.531
  325POPC   PO4 8820  43.833  24.159   9.463
  325POPC   GL1 8821  43.847  24.481   9.195
  325POPC   GL2 8822  44.193  24.451   9.099
  325POPC   C1A 8823  43.707  24.427   8.794
  325POPC   D2A 8824  43.606  24.595   8.430
  325POPC   C3A 8825  43.887  24.435   8.148
  325POPC   C4A 8826  43.837  24.463   7.713
  325POPC   C1B 8827  44.099  24.775   8.802
  325POPC   C2B 8828  44.016  24.917   8.366
  325POPC   C3B 8829  44.160  24.805   7.924
  325POPC   C4B 8830  44.058  24.855   7.487
  326POPC   NC3 8831   6.470  13.383   9.639
  326POPC   PO4 8832   6.833  13.909   9.547
  326POPC   GL1 8833   6.596  13.674   9.191
  326POPC   GL2 8834   6.285  13.439   9.178
  326POPC   C1A 8835   6.764  13.571   8.783
  326POPC   D2A 8836   6.877  13.752   8.395
  326POPC   C3A 8837   6.872  13.440   8.066
  326POPC   C4A 8838   6.883  13.601   7.617
  326POPC   C1B 8839   6.250  13.591   8.757
  326POPC   C2B 8840   6.423  13.495   8.353
  326POPC   C3B 8841   6.484  13.741   8.017
  326POPC   C4B 8842   6.328  14.038   7.772
  327POPC   NC3 8843   6.615  11.699   9.551
  327POPC   PO4 8844   6.432  12.287   9.759
  327POPC   GL1 8845   6.502  12.200   9.278
  327POPC   GL2 8846   6.440  12.490   9.130
  327POPC   C1A 8847   6.680  12.133   8.812
  327POPC   D2A 8848   6.621  11.846   8.430
  327POPC   C3A 8849   6.673  11.961   8.014
  327POPC   C4A 8850   6.456  11.891   7.630
  327POPC   C1B 8851   6.583  12.621   8.689
  327POPC   C2B 8852   6.641  12.422   8.254
  327POPC   C3B 8853   6.459  12.492   7.804
  327POPC   C4B 8854   6.344  12.507   7.346
  328POPC   NC3 8855  36.425  37.495   9.614
  328POPC   PO4 8856  36.987  37.910   9.638
  328POPC   GL1 8857  36.850  37.604   9.341
  328POPC   GL2 8858  37.184  37.612   9.244
  328POPC   C1A 8859  36.770  37.615   8.886
  328POPC   D2A 8860  36.650  37.970   8.611
  328POPC   C3A 8861  36.898  37.968   8.226
  328POPC   C4A 8862  36.875  37.806   7.810
  328POPC   C1B 8863  37.279  37.534   8.811
  328POPC   C2B 8864  37.088  37.497   8.398
  328POPC   C3B 8865  37.230  37.430   7.966
  328POPC   C4B 8866  37.411  37.780   7.798
  329POPC   NC3 8867  28.757  29.553   9.305
  329POPC   PO4 8868  29.403  29.733   9.467
  329POPC   GL1 8869  29.489  29.839   9.073
  329POPC   GL2 8870  29.478  30.178   9.011
  329POPC   C1A 8871  29.213  29.865   8.702
  329POPC   D2A 8872  29.243  30.077   8.299
  329POPC   C3A 8873  28.922  29.879   8.049
  329POPC   C4A 8874  28.702  29.866   7.712
  329POPC   C1B 8875  29.680  30.050   8.632
  329POPC   C2B 8876  29.649  29.752   8.277
  329POPC   C3B 8877  29.401  29.814   7.877
  329POPC   C4B 8878  29.489  30.040   7.492
  330POPC   NC3 8879  13.325   9.827   9.292
  330POPC   PO4 8880  12.700   9.786   9.565
  330POPC   GL1 8881  12.835   9.860   9.144
  330POPC   GL2 8882  12.698   9.546   9.101
  330POPC   C1A 8883  12.910   9.740   8.683
  330POPC   D2A 8884  13.068   9.663   8.273
  330POPC   C3A 8885  13.182   9.917   7.932
  330POPC   C4A 8886  12.892   9.804   7.688
  330POPC   C1B 8887  12.453   9.454   8.781
  330POPC   C2B 8888  12.600   9.387   8.362
  330POPC   C3B 8889  12.515   9.580   7.980
  330POPC   C4B 8890  12.562   9.399   7.620
  331POPC   NC3 8891  33.850  11.589   9.666
  331POPC   PO4 8892  33.978  12.219   9.477
  331POPC   GL1 8893  33.796  12.210   9.129
  331POPC   GL2 8894  33.733  11.891   9.167
  331POPC   C1A 8895  33.970  12.151   8.723
  331POPC   D2A 8896  33.871  12.370   8.345
  331POPC   C3A 8897  34.135  12.302   7.988
  331POPC   C4A 8898  34.092  12.047   7.641
  331POPC   C1B 8899  33.515  11.957   8.769
  331POPC   C2B 8900  33.638  11.915   8.348
  331POPC   C3B 8901  33.640  12.069   7.929
  331POPC   C4B 8902  33.651  11.834   7.547
  332POPC   NC3 8903   5.761   3.379   9.560
  332POPC   PO4 8904   6.115   3.977   9.527
  332POPC   GL1 8905   6.001   3.678   9.214
  332POPC   GL2 8906   5.639   3.642   9.126
  332POPC   C1A 8907   6.061   3.729   8.790
  332POPC   D2A 8908   5.967   3.651   8.372
  332POPC   C3A 8909   6.276   3.492   8.111
  332POPC   C4A 8910   6.205   3.384   7.682
  332POPC   C1B 8911   5.551   3.756   8.673
  332POPC   C2B 8912   5.489   3.683   8.208
  332POPC   C3B 8913   5.770   3.679   7.810
  332POPC   C4B 8914   5.619   3.636   7.340
  333POPC   NC3 8915   8.592  30.313   9.556
  333POPC   PO4 8916   8.122  29.836   9.604
  333POPC   GL1 8917   8.197  29.936   9.180
  333POPC   GL2 8918   8.124  29.609   9.107
  333POPC   C1A 8919   8.333  29.857   8.725
  333POPC   D2A 8920   8.408  30.062   8.320
  333POPC   C3A 8921   8.340  29.815   7.934
  333POPC   C4A 8922   8.381  29.928   7.485
  333POPC   C1B 8923   7.892  29.469   8.765
  333POPC   C2B 8924   7.949  29.688   8.388
  333POPC   C3B 8925   7.951  29.480   8.028
  333POPC   C4B 8926   8.094  29.452   7.651
  334POPC   NC3 8927  36.323  29.775   9.643
  334POPC   PO4 8928  35.890  30.302   9.613
  334POPC   GL1 8929  36.111  30.032   9.262
  334POPC   GL2 8930  35.972  29.665   9.247
  334POPC   C1A 8931  36.207  29.820   8.833
  334POPC   D2A 8932  36.034  29.818   8.450
  334POPC   C3A 8933  36.132  30.043   8.082
  334POPC   C4A 8934  36.332  30.019   7.664
  334POPC   C1B 8935  35.705  29.615   8.831
  334POPC   C2B 8936  35.580  29.596   8.374
  334POPC   C3B 8937  35.874  29.531   8.060
  334POPC   C4B 8938  35.959  29.688   7.698
  335POPC   NC3 8939  39.487  38.478   9.536
  335POPC   PO4 8940  38.924  38.254   9.567
  335POPC   GL1 8941  39.217  38.215   9.200
  335POPC   GL2 8942  39.267  38.566   9.072
  335POPC   C1A 8943  39.095  38.192   8.775
  335POPC   D2A 8944  39.154  38.446   8.422
  335POPC   C3A 8945  39.066  38.243   8.050
  335POPC   C4A 8946  39.185  38.234   7.628
  335POPC   C1B 8947  39.307  38.876   8.697
  335POPC   C2B 8948  39.131  38.999   8.327
  335POPC   C3B 8949  38.934  38.751   8.064
  335POPC   C4B 8950  38.818  38.637   7.680
  336POPC   NC3 8951  12.760  19.143   9.491
  336POPC   PO4 8952  12.847  18.525   9.317
  336POPC   GL1 8953  12.847  18.925   9.051
  336POPC   GL2 8954  12.571  19.238   9.045
  336POPC   C1A 8955  13.020  19.236   8.787
  336POPC   D2A 8956  13.101  19.123   8.379
  336POPC   C3A 8957  12.905  19.165   7.992
  336POPC   C4A 8958  12.746  18.809   7.739
  336POPC   C1B 8959  12.550  19.082   8.645
  336POPC   C2B 8960  12.570  19.366   8.325
  336POPC   C3B 8961  12.528  19.515   7.895
  336POPC   C4B 8962  12.731  19.301   7.544
  337POPC   NC3 8963  35.630  43.302   9.401
  337POPC   PO4 8964  35.128  42.864   9.491
  337POPC   GL1 8965  35.275  43.051   9.137
  337POPC   GL2 8966  35.192  43.410   9.136
  337POPC   C1A 8967  35.239  43.094   8.703
  337POPC   D2A 8968  35.583  43.137   8.413
  337POPC   C3A 8969  35.492  42.881   8.073
  337POPC   C4A 8970  35.246  42.929   7.716
  337POPC   C1B 8971  35.457  43.571   8.800
  337POPC   C2B 8972  35.297  43.612   8.394
  337POPC   C3B 8973  35.258  43.350   8.029
  337POPC   C4B 8974  35.653  43.253   7.782
  338POPC   NC3 8975  32.497   3.535   9.409
  338POPC   PO4 8976  31.848   3.448   9.271
  338POPC   GL1 8977  32.031   3.565   8.963
  338POPC   GL2 8978  32.320   3.770   9.006
  338POPC   C1A 8979  32.064   3.704   8.565
  338POPC   D2A 8980  32.163   3.757   8.161
  338POPC   C3A 8981  31.871   3.477   8.004
  338POPC   C4A 8982  31.714   3.556   7.625
  338POPC   C1B 8983  32.461   3.400   8.750
  338POPC   C2B 8984  32.358   3.326   8.332
  338POPC   C3B 8985  32.373   3.373   7.875
  338POPC   C4B 8986  32.533   3.653   7.561
  339POPC   NC3 8987  35.505  35.756   9.538
  339POPC   PO4 8988  35.018  36.188   9.435
  339POPC   GL1 8989  35.229  35.915   9.115
  339POPC   GL2 8990  35.626  35.890   9.077
  339POPC   C1A 8991  35.119  35.958   8.689
  339POPC   D2A 8992  35.097  35.723   8.301
  339POPC   C3A 8993  35.209  35.934   7.931
  339POPC   C4A 8994  35.187  36.278   7.660
  339POPC   C1B 8995  35.620  36.157   8.758
  339POPC   C2B 8996  35.477  36.120   8.363
  339POPC   C3B 8997  35.625  36.229   8.007
  339POPC   C4B 8998  35.677  35.932   7.722
  340POPC   NC3 8999  10.627  43.558   9.492
  340POPC   PO4 9000  10.194  44.051   9.483
  340POPC   GL1 9001  10.354  43.796   9.133
  340POPC   GL2 9002  10.215  43.443   9.169
  340POPC   C1A 9003  10.404  43.917   8.717
  340POPC   D2A 9004  10.411  43.684   8.349
  340POPC   C3A 9005  10.580  43.941   8.011
  340POPC   C4A 9006  10.879  44.122   7.728
  340POPC   C1B 9007  10.028  43.578   8.761
  340POPC   C2B 9008   9.953  43.908   8.426
  340POPC   C3B 9009  10.065  43.854   7.986
  340POPC   C4B 9010  10.350  43.501   7.864
  341POPC   NC3 9011  40.344  34.607   9.531
  341POPC   PO4 9012  39.730  34.265   9.416
  341POPC   GL1 9013  39.776  34.533   9.082
  341POPC   GL2 9014  40.065  34.733   9.123
  341POPC   C1A 9015  39.858  34.471   8.669
  341POPC   D2A 9016  39.710  34.391   8.283
  341POPC   C3A 9017  39.973  34.190   7.982
  341POPC   C4A 9018  40.214  34.210   7.591
  341POPC   C1B 9019  40.261  34.786   8.702
  341POPC   C2B 9020  40.233  34.537   8.310
  341POPC   C3B 9021  40.355  34.633   7.888
  341POPC   C4B 9022  40.345  34.688   7.446
  342POPC   NC3 9023  10.129  24.908   9.823
  342POPC   PO4 9024   9.789  25.361   9.462
  342POPC   GL1 9025   9.619  25.134   9.131
  342POPC   GL2 9026   9.856  24.911   9.160
  342POPC   C1A 9027   9.557  25.252   8.716
  342POPC   D2A 9028   9.796  25.489   8.415
  342POPC   C3A 9029   9.635  25.340   8.038
  342POPC   C4A 9030   9.695  25.373   7.616
  342POPC   C1B 9031   9.943  24.914   8.725
  342POPC   C2B 9032   9.718  24.929   8.316
  342POPC   C3B 9033   9.946  24.946   7.900
  342POPC   C4B 9034  10.262  25.109   7.580
  343POPC   NC3 9035  27.677  19.203   9.413
  343POPC   PO4 9036  27.051  18.941   9.663
  343POPC   GL1 9037  27.214  18.884   9.233
  343POPC   GL2 9038  27.380  19.155   9.013
  343POPC   C1A 9039  27.439  18.684   8.873
  343POPC   D2A 9040  27.570  18.963   8.540
  343POPC   C3A 9041  27.559  18.861   8.115
  343POPC   C4A 9042  27.287  18.961   7.785
  343POPC   C1B 9043  27.238  19.401   8.692
  343POPC   C2B 9044  27.185  19.584   8.310
  343POPC   C3B 9045  27.345  19.461   7.904
  343POPC   C4B 9046  27.290  19.367   7.464
  344POPC   NC3 9047  33.400  37.935   9.519
  344POPC   PO4 9048  32.756  37.792   9.367
  344POPC   GL1 9049  32.935  37.632   9.041
  344POPC   GL2 9050  33.238  37.751   9.043
  344POPC   C1A 9051  32.863  37.726   8.622
  344POPC   D2A 9052  33.051  37.756   8.233
  344POPC   C3A 9053  32.791  37.725   7.863
  344POPC   C4A 9054  32.901  37.476   7.476
  344POPC   C1B 9055  33.387  37.869   8.650
  344POPC   C2B 9056  33.455  38.071   8.268
  344POPC   C3B 9057  33.470  37.993   7.843
  344POPC   C4B 9058  33.131  37.935   7.564
  345POPC   NC3 9059  21.595   1.780   9.535
  345POPC   PO4 9060  22.127   2.098   9.495
  345POPC   GL1 9061  22.202   2.149   9.074
  345POPC   GL2 9062  21.949   1.915   9.017
  345POPC   C1A 9063  22.370   2.020   8.649
  345POPC   D2A 9064  22.195   2.135   8.226
  345POPC   C3A 9065  22.346   1.973   7.819
  345POPC   C4A 9066  22.613   1.795   7.451
  345POPC   C1B 9067  21.905   2.208   8.670
  345POPC   C2B 9068  21.680   2.166   8.297
  345POPC   C3B 9069  21.791   2.071   7.896
  345POPC   C4B 9070  21.711   1.708   7.647
  346POPC   NC3 9071  37.661  25.581   9.723
  346POPC   PO4 9072  37.521  24.852   9.687
  346POPC   GL1 9073  37.669  25.155   9.307
  346POPC   GL2 9074  37.625  25.538   9.205
  346POPC   C1A 9075  37.865  25.208   8.864
  346POPC   D2A 9076  37.740  25.329   8.432
  346POPC   C3A 9077  37.846  25.106   8.016
  346POPC   C4A 9078  37.726  25.013   7.593
  346POPC   C1B 9079  37.323  25.456   8.854
  346POPC   C2B 9080  37.262  25.594   8.421
  346POPC   C3B 9081  37.390  25.358   8.072
  346POPC   C4B 9082  37.625  25.483   7.742
  347POPC   NC3 9083  27.750  33.334   9.518
  347POPC   PO4 9084  27.739  32.674   9.704
  347POPC   GL1 9085  27.641  32.906   9.269
  347POPC   GL2 9086  27.398  33.213   9.171
  347POPC   C1A 9087  27.698  32.942   8.813
  347POPC   D2A 9088  27.614  32.752   8.410
  347POPC   C3A 9089  27.672  32.991   8.032
  347POPC   C4A 9090  27.569  32.971   7.602
  347POPC   C1B 9091  27.161  33.217   8.781
  347POPC   C2B 9092  27.263  33.143   8.352
  347POPC   C3B 9093  27.231  33.320   7.956
  347POPC   C4B 9094  27.207  33.633   7.618
  348POPC   NC3 9095  15.656  20.455   9.247
  348POPC   PO4 9096  16.206  20.805   9.377
  348POPC   GL1 9097  16.023  20.721   8.980
  348POPC   GL2 9098  15.712  20.929   8.986
  348POPC   C1A 9099  15.901  20.398   8.662
  348POPC   D2A 9100  15.820  20.296   8.239
  348POPC   C3A 9101  15.945  20.521   7.849
  348POPC   C4A 9102  16.030  20.650   7.403
  348POPC   C1B 9103  15.494  20.737   8.604
  348POPC   C2B 9104  15.515  20.753   8.136
  348POPC   C3B 9105  15.607  20.862   7.678
  348POPC   C4B 9106  15.527  20.767   7.217
  349POPC   NC3 9107   1.544  19.918   9.488
  349POPC   PO4 9108   0.855  19.972   9.569
  349POPC   GL1 9109   1.101  19.831   9.190
  349POPC   GL2 9110   1.306  20.148   9.087
  349POPC   C1A 9111   1.387  19.714   8.810
  349POPC   D2A 9112   1.474  19.661   8.353
  349POPC   C3A 9113   1.098  19.569   8.174
  349POPC   C4A 9114   0.871  19.637   7.828
  349POPC   C1B 9115   0.971  20.111   8.790
  349POPC   C2B 9116   0.882  20.106   8.379
  349POPC   C3B 9117   1.171  20.073   8.060
  349POPC   C4B 9118   1.413  19.791   7.810
  350POPC   NC3 9119  33.453  40.871   9.552
  350POPC   PO4 9120  32.992  40.483   9.405
  350POPC   GL1 9121  33.205  40.675   9.098
  350POPC   GL2 9122  32.964  40.857   8.906
  350POPC   C1A 9123  33.435  40.746   8.725
  350POPC   D2A 9124  33.241  40.617   8.371
  350POPC   C3A 9125  32.937  40.922   8.185
  350POPC   C4A 9126  33.031  41.127   7.791
  350POPC   C1B 9127  32.622  40.825   8.598
  350POPC   C2B 9128  32.409  41.031   8.247
  350POPC   C3B 9129  32.528  41.134   7.818
  350POPC   C4B 9130  32.697  40.973   7.391
  351POPC   NC3 9131  10.603  11.261   9.626
  351POPC   PO4 9132  10.572  11.925   9.613
  351POPC   GL1 9133  10.597  11.608   9.260
  351POPC   GL2 9134  10.294  11.403   9.217
  351POPC   C1A 9135  10.709  11.324   8.901
  351POPC   D2A 9136  10.567  11.169   8.480
  351POPC   C3A 9137  10.746  11.090   8.086
  351POPC   C4A 9138  10.912  11.401   7.796
  351POPC   C1B 9139  10.278  11.057   8.909
  351POPC   C2B 9140  10.137  10.913   8.521
  351POPC   C3B 9141  10.111  11.176   8.159
  351POPC   C4B 9142  10.308  11.253   7.799
  352POPC   NC3 9143  36.460  15.896   9.416
  352POPC   PO4 9144  35.764  15.897   9.508
  352POPC   GL1 9145  36.043  15.734   9.188
  352POPC   GL2 9146  36.009  16.043   8.983
  352POPC   C1A 9147  36.333  15.698   8.791
  352POPC   D2A 9148  36.152  15.860   8.400
  352POPC   C3A 9149  36.349  16.058   8.089
  352POPC   C4A 9150  36.286  15.912   7.707
  352POPC   C1B 9151  35.835  15.675   8.744
  352POPC   C2B 9152  35.673  15.638   8.372
  352POPC   C3B 9153  35.916  15.538   8.031
  352POPC   C4B 9154  35.890  15.612   7.636
  353POPC   NC3 9155  30.662   3.011   9.522
  353POPC   PO4 9156  30.992   2.405   9.368
  353POPC   GL1 9157  30.963   2.783   9.174
  353POPC   GL2 9158  30.587   2.686   9.155
  353POPC   C1A 9159  31.181   2.908   8.809
  353POPC   D2A 9160  31.030   2.740   8.404
  353POPC   C3A 9161  30.938   3.013   8.077
  353POPC   C4A 9162  31.109   2.959   7.690
  353POPC   C1B 9163  30.498   2.627   8.755
  353POPC   C2B 9164  30.502   2.836   8.370
  353POPC   C3B 9165  30.551   2.628   8.004
  353POPC   C4B 9166  30.417   2.654   7.592
  354POPC   NC3 9167   9.223  34.444   9.591
  354POPC   PO4 9168   8.625  34.242   9.293
  354POPC   GL1 9169   8.931  34.496   9.113
  354POPC   GL2 9170   8.821  34.831   9.005
  354POPC   C1A 9171   8.946  34.428   8.687
  354POPC   D2A 9172   9.054  34.714   8.380
  354POPC   C3A 9173   8.945  34.591   7.967
  354POPC   C4A 9174   9.166  34.547   7.574
  354POPC   C1B 9175   8.546  34.841   8.629
  354POPC   C2B 9176   8.396  35.047   8.236
  354POPC   C3B 9177   8.459  34.920   7.811
  354POPC   C4B 9178   8.839  34.929   7.576
  355POPC   NC3 9179  44.747   2.407   9.854
  355POPC   PO4 9180  44.382   1.967   9.449
  355POPC   GL1 9181  44.635   1.933   9.067
  355POPC   GL2 9182  44.856   1.718   9.083
  355POPC   C1A 9183  44.756   2.215   8.704
  355POPC   D2A 9184  44.507   2.385   8.409
  355POPC   C3A 9185  44.536   2.205   8.035
  355POPC   C4A 9186  44.755   2.199   7.678
  355POPC   C1B 9187  44.851   1.713   8.668
  355POPC   C2B 9188  44.639   1.809   8.338
  355POPC   C3B 9189  44.856   1.805   7.991
  355POPC   C4B 9190  44.816   1.640   7.611
  356POPC   NC3 9191  32.477  10.590   9.384
  356POPC   PO4 9192  31.886  10.291   9.471
  356POPC   GL1 9193  32.070  10.607   9.103
  356POPC   GL2 9194  32.384  10.904   9.045
  356POPC   C1A 9195  32.268  10.582   8.667
  356POPC   D2A 9196  32.144  10.583   8.221
  356POPC   C3A 9197  32.392  10.599   7.826
  356POPC   C4A 9198  32.413  10.340   7.428
  356POPC   C1B 9199  32.674  10.867   8.751
  356POPC   C2B 9200  32.656  10.704   8.334
  356POPC   C3B 9201  32.819  10.844   7.941
  356POPC   C4B 9202  32.774  10.840   7.496
  357POPC   NC3 9203  14.239  39.682   9.289
  357POPC   PO4 9204  14.475  39.151   9.614
  357POPC   GL1 9205  14.635  39.198   9.212
  357POPC   GL2 9206  14.306  39.203   9.106
  357POPC   C1A 9207  14.703  39.109   8.767
  357POPC   D2A 9208  14.629  38.878   8.392
  357POPC   C3A 9209  14.670  39.108   8.015
  357POPC   C4A 9210  14.531  39.158   7.566
  357POPC   C1B 9211  14.206  39.303   8.689
  357POPC   C2B 9212  14.151  39.091   8.321
  357POPC   C3B 9213  14.168  39.229   7.913
  357POPC   C4B 9214  13.997  39.188   7.513
  358POPC   NC3 9215  37.067  30.522   9.477
  358POPC   PO4 9216  36.572  30.983   9.345
  358POPC   GL1 9217  36.834  30.797   9.034
  358POPC   GL2 9218  37.170  30.846   9.091
  358POPC   C1A 9219  36.669  30.636   8.629
  358POPC   D2A 9220  36.823  30.527   8.236
  358POPC   C3A 9221  36.737  30.772   7.914
  358POPC   C4A 9222  37.022  30.950   7.673
  358POPC   C1B 9223  37.170  30.513   8.764
  358POPC   C2B 9224  37.348  30.511   8.365
  358POPC   C3B 9225  37.265  30.619   7.963
  358POPC   C4B 9226  37.220  30.408   7.557
  359POPC   NC3 9227   9.517  29.338   9.521
  359POPC   PO4 9228  10.056  28.848   9.566
  359POPC   GL1 9229   9.968  29.142   9.199
  359POPC   GL2 9230   9.606  29.249   9.043
  359POPC   C1A 9231  10.008  29.248   8.752
  359POPC   D2A 9232   9.717  29.297   8.473
  359POPC   C3A 9233   9.739  29.071   8.090
  359POPC   C4A 9234   9.697  29.204   7.643
  359POPC   C1B 9235   9.363  29.540   8.778
  359POPC   C2B 9236   9.181  29.514   8.366
  359POPC   C3B 9237   9.407  29.439   8.011
  359POPC   C4B 9238   9.582  29.698   7.700
  360POPC   NC3 9239  36.263  41.864   9.389
  360POPC   PO4 9240  35.747  41.462   9.528
  360POPC   GL1 9241  35.846  41.670   9.154
  360POPC   GL2 9242  36.133  41.454   9.125
  360POPC   C1A 9243  36.024  41.720   8.730
  360POPC   D2A 9244  36.241  41.518   8.422
  360POPC   C3A 9245  36.242  41.653   8.029
  360POPC   C4A 9246  36.093  41.609   7.621
  360POPC   C1B 9247  36.041  41.173   8.807
  360POPC   C2B 9248  36.029  41.017   8.407
  360POPC   C3B 9249  36.097  41.167   8.000
  360POPC   C4B 9250  35.915  41.106   7.568
  361POPC   NC3 9251  27.249   2.535   9.846
  361POPC   PO4 9252  27.791   2.767   9.565
  361POPC   GL1 9253  27.792   2.859   9.133
  361POPC   GL2 9254  27.878   2.524   9.071
  361POPC   C1A 9255  27.535   2.939   8.802
  361POPC   D2A 9256  27.194   2.831   8.544
  361POPC   C3A 9257  27.243   2.929   8.091
  361POPC   C4A 9258  27.603   3.081   7.804
  361POPC   C1B 9259  27.618   2.422   8.716
  361POPC   C2B 9260  27.489   2.490   8.303
  361POPC   C3B 9261  27.477   2.523   7.898
  361POPC   C4B 9262  27.738   2.594   7.613
  362POPC   NC3 9263  29.449  32.979   9.502
  362POPC   PO4 9264  28.998  33.457   9.590
  362POPC   GL1 9265  29.101  33.251   9.187
  362POPC   GL2 9266  29.444  33.358   9.148
  362POPC   C1A 9267  29.088  32.905   8.820
  362POPC   D2A 9268  29.306  32.698   8.447
  362POPC   C3A 9269  29.222  32.812   7.981
  362POPC   C4A 9270  28.942  33.084   7.738
  362POPC   C1B 9271  29.329  33.339   8.729
  362POPC   C2B 9272  29.180  33.207   8.333
  362POPC   C3B 9273  29.479  33.240   8.018
  362POPC   C4B 9274  29.497  33.375   7.595
  363POPC   NC3 9275  13.729  19.381   9.558
  363POPC   PO4 9276  13.505  19.979   9.460
  363POPC   GL1 9277  13.827  19.812   9.197
  363POPC   GL2 9278  14.080  20.085   9.176
  363POPC   C1A 9279  13.696  19.611   8.808
  363POPC   D2A 9280  13.325  19.564   8.521
  363POPC   C3A 9281  13.403  19.406   8.095
  363POPC   C4A 9282  13.574  19.630   7.783
  363POPC   C1B 9283  13.808  20.126   8.778
  363POPC   C2B 9284  13.717  19.908   8.372
  363POPC   C3B 9285  13.839  20.027   7.952
  363POPC   C4B 9286  13.906  19.930   7.481
  364POPC   NC3 9287  20.608  41.063   9.350
  364POPC   PO4 9288  20.403  40.509   9.579
  364POPC   GL1 9289  20.448  40.646   9.110
  364POPC   GL2 9290  20.357  40.972   8.936
  364POPC   C1A 9291  20.527  40.487   8.701
  364POPC   D2A 9292  20.850  40.518   8.384
  364POPC   C3A 9293  20.613  40.529   8.010
  364POPC   C4A 9294  20.469  40.395   7.588
  364POPC   C1B 9295  20.756  40.945   8.690
  364POPC   C2B 9296  20.739  41.032   8.260
  364POPC   C3B 9297  20.450  40.997   7.965
  364POPC   C4B 9298  20.649  40.895   7.630
  365POPC   NC3 9299   2.858   8.538   9.389
  365POPC   PO4 9300   2.437   9.054   9.546
  365POPC   GL1 9301   2.552   8.886   9.150
  365POPC   GL2 9302   2.913   8.981   9.120
  365POPC   C1A 9303   2.659   8.927   8.699
  365POPC   D2A 9304   2.577   8.735   8.320
  365POPC   C3A 9305   2.482   9.069   8.047
  365POPC   C4A 9306   2.468   8.857   7.664
  365POPC   C1B 9307   3.188   8.937   8.765
  365POPC   C2B 9308   3.079   8.924   8.344
  365POPC   C3B 9309   2.936   8.855   7.923
  365POPC   C4B 9310   2.919   8.846   7.458
  366POPC   NC3 9311  41.241  34.354   9.845
  366POPC   PO4 9312  41.558  34.586   9.347
  366POPC   GL1 9313  41.744  34.319   9.119
  366POPC   GL2 9314  41.445  34.292   8.903
  366POPC   C1A 9315  41.978  34.284   8.766
  366POPC   D2A 9316  41.962  34.559   8.385
  366POPC   C3A 9317  41.872  34.336   8.044
  366POPC   C4A 9318  41.714  34.317   7.671
  366POPC   C1B 9319  41.589  34.628   8.711
  366POPC   C2B 9320  41.471  34.835   8.389
  366POPC   C3B 9321  41.656  34.835   8.019
  366POPC   C4B 9322  41.510  34.769   7.613
  367POPC   NC3 9323  43.366  15.073   9.350
  367POPC   PO4 9324  42.764  15.396   9.424
  367POPC   GL1 9325  42.968  15.231   9.077
  367POPC   GL2 9326  42.990  14.856   9.048
  367POPC   C1A 9327  43.188  15.383   8.709
  367POPC   D2A 9328  43.156  15.177   8.287
  367POPC   C3A 9329  43.038  15.352   7.883
  367POPC   C4A 9330  43.015  15.322   7.402
  367POPC   C1B 9331  43.330  14.898   8.726
  367POPC   C2B 9332  43.456  14.715   8.332
  367POPC   C3B 9333  43.287  14.805   7.914
  367POPC   C4B 9334  43.444  15.134   7.647
  368POPC   NC3 9335  42.762  24.462   9.845
  368POPC   PO4 9336  42.212  24.526   9.500
  368POPC   GL1 9337  42.147  24.640   9.130
  368POPC   GL2 9338  42.481  24.517   9.056
  368POPC   C1A 9339  42.062  24.508   8.740
  368POPC   D2A 9340  42.285  24.600   8.356
  368POPC   C3A 9341  42.109  24.657   7.976
  368POPC   C4A 9342  42.131  24.441   7.633
  368POPC   C1B 9343  42.587  24.305   8.709
  368POPC   C2B 9344  42.771  24.406   8.327
  368POPC   C3B 9345  42.580  24.439   7.951
  368POPC   C4B 9346  42.582  24.682   7.614
  369POPC   NC3 9347  23.332  36.602   9.529
  369POPC   PO4 9348  23.995  36.815   9.683
  369POPC   GL1 9349  23.690  36.716   9.227
  369POPC   GL2 9350  23.697  36.982   8.999
  369POPC   C1A 9351  23.615  36.566   8.761
  369POPC   D2A 9352  23.794  36.698   8.366
  369POPC   C3A 9353  23.610  36.751   7.952
  369POPC   C4A 9354  23.787  36.672   7.545
  369POPC   C1B 9355  23.368  37.050   8.776
  369POPC   C2B 9356  23.576  37.157   8.420
  369POPC   C3B 9357  23.741  37.229   8.036
  369POPC   C4B 9358  23.439  37.283   7.756
  370POPC   NC3 9359   1.690  22.947   9.612
  370POPC   PO4 9360   2.293  22.817   9.524
  370POPC   GL1 9361   2.337  22.861   9.092
  370POPC   GL2 9362   2.094  23.144   9.065
  370POPC   C1A 9363   2.188  22.821   8.652
  370POPC   D2A 9364   2.330  22.828   8.240
  370POPC   C3A 9365   2.058  22.881   7.871
  370POPC   C4A 9366   2.089  22.783   7.432
  370POPC   C1B 9367   1.751  23.106   8.746
  370POPC   C2B 9368   1.711  22.988   8.297
  370POPC   C3B 9369   1.617  23.210   7.917
  370POPC   C4B 9370   1.746  23.128   7.532
  371POPC   NC3 9371  35.227  32.591   9.621
  371POPC   PO4 9372  34.883  32.021   9.819
  371POPC   GL1 9373  35.123  32.069   9.396
  371POPC   GL2 9374  35.071  32.380   9.192
  371POPC   C1A 9375  35.284  31.999   8.955
  371POPC   D2A 9376  35.133  32.082   8.530
  371POPC   C3A 9377  35.376  32.035   8.174
  371POPC   C4A 9378  35.300  31.999   7.739
  371POPC   C1B 9379  35.203  32.513   8.771
  371POPC   C2B 9380  35.369  32.524   8.360
  371POPC   C3B 9381  35.658  32.661   8.079
  371POPC   C4B 9382  35.378  32.512   7.714
  372POPC   NC3 9383  38.916  40.009   9.822
  372POPC   PO4 9384  39.451  39.842   9.483
  372POPC   GL1 9385  39.435  39.779   9.042
  372POPC   GL2 9386  39.404  40.140   9.054
  372POPC   C1A 9387  39.236  39.906   8.655
  372POPC   D2A 9388  39.284  40.187   8.325
  372POPC   C3A 9389  39.128  39.920   8.052
  372POPC   C4A 9390  39.153  39.808   7.636
  372POPC   C1B 9391  39.712  40.229   8.787
  372POPC   C2B 9392  39.850  40.431   8.428
  372POPC   C3B 9393  39.663  40.443   8.054
  372POPC   C4B 9394  39.515  40.127   7.811
  373POPC   NC3 9395  20.943  19.700   9.544
  373POPC   PO4 9396  20.387  20.175   9.482
  373POPC   GL1 9397  20.483  19.881   9.176
  373POPC   GL2 9398  20.836  19.885   9.084
  373POPC   C1A 9399  20.337  19.680   8.806
  373POPC   D2A 9400  20.559  19.663   8.441
  373POPC   C3A 9401  20.356  19.716   8.044
  373POPC   C4A 9402  20.393  19.577   7.617
  373POPC   C1B 9403  20.925  19.945   8.665
  373POPC   C2B 9404  21.015  19.834   8.222
  373POPC   C3B 9405  20.816  19.823   7.819
  373POPC   C4B 9406  20.821  19.650   7.375
  374POPC   NC3 9407  25.987  37.243   9.870
  374POPC   PO4 9408  26.373  37.667   9.549
  374POPC   GL1 9409  26.145  37.723   9.172
  374POPC   GL2 9410  26.350  38.002   9.123
  374POPC   C1A 9411  26.129  37.554   8.754
  374POPC   D2A 9412  25.936  37.635   8.380
  374POPC   C3A 9413  26.133  37.518   7.999
  374POPC   C4A 9414  25.832  37.625   7.703
  374POPC   C1B 9415  26.456  38.037   8.686
  374POPC   C2B 9416  26.398  37.867   8.294
  374POPC   C3B 9417  26.413  37.958   7.872
  374POPC   C4B 9418  26.329  37.724   7.510
  375POPC   NC3 9419   6.798  29.526   9.911
  375POPC   PO4 9420   6.509  29.109   9.612
  375POPC   GL1 9421   6.638  29.099   9.205
  375POPC   GL2 9422   6.609  29.458   9.219
  375POPC   C1A 9423   6.791  29.237   8.797
  375POPC   D2A 9424   7.044  29.132   8.456
  375POPC   C3A 9425   6.778  29.116   8.101
  375POPC   C4A 9426   6.725  29.220   7.671
  375POPC   C1B 9427   6.318  29.527   8.875
  375POPC   C2B 9428   6.289  29.447   8.421
  375POPC   C3B 9429   6.447  29.520   7.990
  375POPC   C4B 9430   6.298  29.485   7.552
  376POPC   NC3 9431  43.787  28.157   9.212
  376POPC   PO4 9432  43.829  27.567   9.486
  376POPC   GL1 9433  43.805  27.512   9.067
  376POPC   GL2 9434  43.525  27.745   9.039
  376POPC   C1A 9435  43.974  27.479   8.646
  376POPC   D2A 9436  44.097  27.809   8.359
  376POPC   C3A 9437  43.989  27.745   7.950
  376POPC   C4A 9438  44.015  27.397   7.687
  376POPC   C1B 9439  43.664  27.886   8.653
  376POPC   C2B 9440  43.618  27.922   8.262
  376POPC   C3B 9441  43.426  27.881   7.936
  376POPC   C4B 9442  43.613  27.743   7.597
  377POPC   NC3 9443  42.704  14.305   9.545
  377POPC   PO4 9444  43.295  14.625   9.452
  377POPC   GL1 9445  43.345  14.434   9.079
  377POPC   GL2 9446  43.007  14.331   9.140
  377POPC   C1A 9447  43.167  14.426   8.674
  377POPC   D2A 9448  42.958  14.703   8.403
  377POPC   C3A 9449  43.008  14.411   8.104
  377POPC   C4A 9450  43.249  14.255   7.820
  377POPC   C1B 9451  42.812  14.044   8.880
  377POPC   C2B 9452  42.704  13.967   8.468
  377POPC   C3B 9453  42.852  13.917   8.052
  377POPC   C4B 9454  42.782  14.141   7.684
  378POPC   NC3 9455  39.551  30.709   9.790
  378POPC   PO4 9456  39.113  30.220   9.543
  378POPC   GL1 9457  39.060  30.496   9.164
  378POPC   GL2 9458  39.396  30.573   9.008
  378POPC   C1A 9459  38.984  30.804   8.802
  378POPC   D2A 9460  39.005  30.850   8.361
  378POPC   C3A 9461  39.196  30.619   8.064
  378POPC   C4A 9462  39.038  30.773   7.730
  378POPC   C1B 9463  39.458  30.888   8.656
  378POPC   C2B 9464  39.529  30.963   8.239
  378POPC   C3B 9465  39.508  30.970   7.789
  378POPC   C4B 9466  39.507  31.147   7.348
  379POPC   NC3 9467  31.230   8.475   9.526
  379POPC   PO4 9468  31.728   8.143   9.454
  379POPC   GL1 9469  31.811   8.275   9.053
  379POPC   GL2 9470  31.469   8.281   9.038
  379POPC   C1A 9471  31.805   8.295   8.587
  379POPC   D2A 9472  31.526   8.120   8.312
  379POPC   C3A 9473  31.529   8.171   7.859
  379POPC   C4A 9474  31.169   8.421   7.750
  379POPC   C1B 9475  31.564   7.885   8.798
  379POPC   C2B 9476  31.339   7.659   8.487
  379POPC   C3B 9477  31.447   7.694   8.058
  379POPC   C4B 9478  31.419   7.679   7.634
  380POPC   NC3 9479  23.204   4.844   9.433
  380POPC   PO4 9480  22.831   5.407   9.566
  380POPC   GL1 9481  23.012   5.210   9.125
  380POPC   GL2 9482  22.972   4.891   8.968
  380POPC   C1A 9483  23.238   5.214   8.693
  380POPC   D2A 9484  23.288   5.411   8.274
  380POPC   C3A 9485  22.978   5.359   7.937
  380POPC   C4A 9486  22.596   5.231   7.700
  380POPC   C1B 9487  23.104   4.728   8.641
  380POPC   C2B 9488  23.156   4.910   8.263
  380POPC   C3B 9489  22.807   4.897   8.029
  380POPC   C4B 9490  22.972   4.867   7.610
  381POPC   NC3 9491  23.341  25.194   9.217
  381POPC   PO4 9492  22.808  25.204   9.521
  381POPC   GL1 9493  22.730  25.168   9.092
  381POPC   GL2 9494  22.673  25.531   9.037
  381POPC   C1A 9495  22.883  25.214   8.654
  381POPC   D2A 9496  22.705  25.400   8.275
  381POPC   C3A 9497  22.793  25.116   7.920
  381POPC   C4A 9498  22.886  24.851   7.548
  381POPC   C1B 9499  23.103  25.649   8.807
  381POPC   C2B 9500  23.343  25.493   8.433
  381POPC   C3B 9501  23.141  25.523   8.007
  381POPC   C4B 9502  23.299  25.675   7.619
  382POPC   NC3 9503  28.732   6.109   9.568
  382POPC   PO4 9504  29.086   5.522   9.590
  382POPC   GL1 9505  29.121   5.560   9.168
  382POPC   GL2 9506  28.898   5.828   9.176
  382POPC   C1A 9507  29.057   5.631   8.744
  382POPC   D2A 9508  29.009   5.849   8.385
  382POPC   C3A 9509  28.961   5.631   8.040
  382POPC   C4A 9510  28.892   5.823   7.675
  382POPC   C1B 9511  28.950   6.126   8.841
  382POPC   C2B 9512  28.751   6.289   8.460
  382POPC   C3B 9513  28.647   6.082   8.067
  382POPC   C4B 9514  28.616   6.237   7.653
  383POPC   NC3 9515   5.819  40.436   9.875
  383POPC   PO4 9516   6.180  40.853   9.496
  383POPC   GL1 9517   5.947  40.742   9.124
  383POPC   GL2 9518   5.820  40.414   9.152
  383POPC   C1A 9519   5.754  40.944   8.741
  383POPC   D2A 9520   5.583  40.846   8.305
  383POPC   C3A 9521   5.868  41.007   7.988
  383POPC   C4A 9522   5.994  40.906   7.559
  383POPC   C1B 9523   5.883  40.428   8.699
  383POPC   C2B 9524   6.077  40.698   8.379
  383POPC   C3B 9525   6.181  40.595   7.932
  383POPC   C4B 9526   5.772  40.480   7.757
  384POPC   NC3 9527  23.186  33.333   9.587
  384POPC   PO4 9528  22.845  32.821   9.476
  384POPC   GL1 9529  22.919  33.053   9.146
  384POPC   GL2 9530  22.813  33.358   9.248
  384POPC   C1A 9531  22.740  33.112   8.747
  384POPC   D2A 9532  22.849  32.895   8.386
  384POPC   C3A 9533  22.758  32.954   7.976
  384POPC   C4A 9534  23.101  33.092   7.798
  384POPC   C1B 9535  23.099  33.486   8.942
  384POPC   C2B 9536  23.034  33.487   8.538
  384POPC   C3B 9537  22.841  33.437   8.146
  384POPC   C4B 9538  22.954  33.576   7.748
  385POPC   NC3 9539  32.302  13.451   9.525
  385POPC   PO4 9540  31.903  13.963   9.377
  385POPC   GL1 9541  32.193  13.749   9.123
  385POPC   GL2 9542  32.081  13.413   9.066
  385POPC   C1A 9543  32.369  13.799   8.721
  385POPC   D2A 9544  32.179  13.841   8.322
  385POPC   C3A 9545  32.348  13.828   7.942
  385POPC   C4A 9546  32.521  13.461   7.776
  385POPC   C1B 9547  32.140  13.320   8.624
  385POPC   C2B 9548  32.125  13.281   8.165
  385POPC   C3B 9549  31.974  13.508   7.825
  385POPC   C4B 9550  31.960  13.726   7.445
  386POPC   NC3 9551  15.534   5.978   9.405
  386POPC   PO4 9552  16.234   5.586   9.464
  386POPC   GL1 9553  15.975   5.799   9.199
  386POPC   GL2 9554  15.670   5.625   9.071
  386POPC   C1A 9555  16.033   5.846   8.766
  386POPC   D2A 9556  15.961   5.665   8.372
  386POPC   C3A 9557  16.181   5.968   8.149
  386POPC   C4A 9558  16.216   5.965   7.739
  386POPC   C1B 9559  15.543   5.966   8.753
  386POPC   C2B 9560  15.650   6.203   8.388
  386POPC   C3B 9561  15.704   6.022   7.998
  386POPC   C4B 9562  15.833   5.633   7.844
  387POPC   NC3 9563  33.106  24.890   9.642
  387POPC   PO4 9564  32.980  25.521   9.611
  387POPC   GL1 9565  33.176  25.460   9.228
  387POPC   GL2 9566  32.887  25.588   9.082
  387POPC   C1A 9567  33.113  25.188   8.840
  387POPC   D2A 9568  32.874  25.098   8.457
  387POPC   C3A 9569  33.008  25.283   8.065
  387POPC   C4A 9570  33.271  25.239   7.705
  387POPC   C1B 9571  32.679  25.553   8.693
  387POPC   C2B 9572  32.410  25.589   8.349
  387POPC   C3B 9573  32.661  25.693   8.019
  387POPC   C4B 9574  32.870  25.585   7.670
  388POPC   NC3 9575  42.367  24.110   9.377
  388POPC   PO4 9576  42.431  23.477   9.612
  388POPC   GL1 9577  42.501  23.606   9.200
  388POPC   GL2 9578  42.133  23.673   9.200
  388POPC   C1A 9579  42.498  23.786   8.764
  388POPC   D2A 9580  42.286  23.631   8.364
  388POPC   C3A 9581  42.524  23.773   8.016
  388POPC   C4A 9582  42.467  24.046   7.644
  388POPC   C1B 9583  42.001  23.785   8.811
  388POPC   C2B 9584  42.154  24.095   8.488
  388POPC   C3B 9585  42.152  24.111   8.043
  388POPC   C4B 9586  42.127  23.691   7.723
  389POPC   NC3 9587  12.464  10.261   9.556
  389POPC   PO4 9588  13.132  10.436   9.686
  389POPC   GL1 9589  13.115  10.362   9.217
  389POPC   GL2 9590  12.748  10.433   9.149
  389POPC   C1A 9591  13.152  10.565   8.774
  389POPC   D2A 9592  12.966  10.693   8.369
  389POPC   C3A 9593  13.127  10.617   7.923
  389POPC   C4A 9594  13.027  10.736   7.470
  389POPC   C1B 9595  12.774  10.225   8.753
  389POPC   C2B 9596  12.956  10.176   8.328
  389POPC   C3B 9597  12.790  10.259   7.899
  389POPC   C4B 9598  12.842  10.273   7.446
  390POPC   NC3 9599  31.288  35.617   9.368
  390POPC   PO4 9600  31.768  35.098   9.569
  390POPC   GL1 9601  31.731  35.324   9.157
  390POPC   GL2 9602  31.798  35.692   9.183
  390POPC   C1A 9603  31.696  35.149   8.692
  390POPC   D2A 9604  31.646  35.195   8.210
  390POPC   C3A 9605  31.432  35.163   7.803
  390POPC   C4A 9606  31.174  35.004   7.424
  390POPC   C1B 9607  31.585  35.653   8.777
  390POPC   C2B 9608  31.462  35.730   8.359
  390POPC   C3B 9609  31.436  35.775   7.963
  390POPC   C4B 9610  31.672  35.602   7.669
  391POPC   NC3 9611   2.560  39.751   9.385
  391POPC   PO4 9612   3.075  40.141   9.613
  391POPC   GL1 9613   2.884  40.097   9.188
  391POPC   GL2 9614   2.500  40.216   9.185
  391POPC   C1A 9615   2.798  40.190   8.755
  391POPC   D2A 9616   2.780  40.428   8.396
  391POPC   C3A 9617   2.835  40.218   8.040
  391POPC   C4A 9618   2.954  40.253   7.636
  391POPC   C1B 9619   2.319  39.991   8.823
  391POPC   C2B 9620   2.470  40.018   8.398
  391POPC   C3B 9621   2.399  39.925   7.999
  391POPC   C4B 9622   2.588  39.890   7.639
  392POPC   NC3 9623  22.550   4.419   9.498
  392POPC   PO4 9624  23.325   4.370   9.500
  392POPC   GL1 9625  23.186   4.414   9.077
  392POPC   GL2 9626  22.864   4.375   9.103
  392POPC   C1A 9627  23.055   4.239   8.649
  392POPC   D2A 9628  23.267   4.405   8.278
  392POPC   C3A 9629  22.971   4.421   7.979
  392POPC   C4A 9630  22.952   4.119   7.705
  392POPC   C1B 9631  22.595   4.144   8.808
  392POPC   C2B 9632  22.577   4.292   8.381
  392POPC   C3B 9633  22.514   4.177   7.974
  392POPC   C4B 9634  22.461   4.158   7.541
  393POPC   NC3 9635  40.728  35.008   9.429
  393POPC   PO4 9636  41.158  35.504   9.408
  393POPC   GL1 9637  40.921  35.574   9.042
  393POPC   GL2 9638  40.540  35.556   9.084
  393POPC   C1A 9639  41.102  35.295   8.728
  393POPC   D2A 9640  40.970  35.102   8.371
  393POPC   C3A 9641  40.941  35.421   8.071
  393POPC   C4A 9642  40.816  35.699   7.782
  393POPC   C1B 9643  40.576  35.246   8.709
  393POPC   C2B 9644  40.416  35.093   8.286
  393POPC   C3B 9645  40.529  35.198   7.854
  393POPC   C4B 9646  40.476  35.202   7.394
  394POPC   NC3 9647  14.995  31.061   9.591
  394POPC   PO4 9648  15.170  31.646   9.606
  394POPC   GL1 9649  15.159  31.404   9.176
  394POPC   GL2 9650  14.918  31.149   9.103
  394POPC   C1A 9651  15.080  31.495   8.706
  394POPC   D2A 9652  14.978  31.614   8.263
  394POPC   C3A 9653  15.271  31.650   7.917
  394POPC   C4A 9654  15.677  31.769   7.721
  394POPC   C1B 9655  14.709  31.144   8.753
  394POPC   C2B 9656  14.866  31.102   8.364
  394POPC   C3B 9657  14.628  31.151   8.015
  394POPC   C4B 9658  14.795  31.501   7.791
  395POPC   NC3 9659  22.824  34.164   9.716
  395POPC   PO4 9660  22.697  34.766   9.432
  395POPC   GL1 9661  22.795  34.849   9.037
  395POPC   GL2 9662  23.086  34.724   9.049
  395POPC   C1A 9663  22.796  34.704   8.614
  395POPC   D2A 9664  22.881  34.387   8.332
  395POPC   C3A 9665  22.587  34.507   8.030
  395POPC   C4A 9666  22.643  34.455   7.625
  395POPC   C1B 9667  23.232  34.459   8.745
  395POPC   C2B 9668  23.272  34.752   8.438
  395POPC   C3B 9669  23.026  34.865   8.118
  395POPC   C4B 9670  23.225  34.677   7.789
  396POPC   NC3 9671   5.296   5.639   9.476
  396POPC   PO4 9672   4.697   6.091   9.328
  396POPC   GL1 9673   5.124   6.050   9.119
  396POPC   GL2 9674   5.066   5.714   9.036
  396POPC   C1A 9675   5.404   5.897   8.740
  396POPC   D2A 9676   5.382   5.618   8.413
  396POPC   C3A 9677   5.429   5.736   8.030
  396POPC   C4A 9678   5.274   6.081   7.846
  396POPC   C1B 9679   4.923   5.750   8.596
  396POPC   C2B 9680   4.911   5.710   8.128
  396POPC   C3B 9681   4.741   5.665   7.719
  396POPC   C4B 9682   4.765   5.441   7.321
  397POPC   NC3 9683   6.293  26.734   9.753
  397POPC   PO4 9684   5.618  26.603   9.542
  397POPC   GL1 9685   5.955  26.625   9.218
  397POPC   GL2 9686   6.147  26.943   9.218
  397POPC   C1A 9687   5.956  26.473   8.779
  397POPC   D2A 9688   5.720  26.535   8.402
  397POPC   C3A 9689   5.952  26.551   8.011
  397POPC   C4A 9690   5.946  26.422   7.548
  397POPC   C1B 9691   6.120  26.959   8.766
  397POPC   C2B 9692   5.922  27.026   8.342
  397POPC   C3B 9693   6.013  27.099   7.895
  397POPC   C4B 9694   6.007  27.099   7.417
  398POPC   NC3 9695  34.363  33.155  10.005
  398POPC   PO4 9696  34.842  32.858   9.580
  398POPC   GL1 9697  34.684  33.167   9.310
  398POPC   GL2 9698  34.469  32.992   9.108
  398POPC   C1A 9699  34.759  33.340   8.887
  398POPC   D2A 9700  34.883  33.512   8.465
  398POPC   C3A 9701  34.839  33.233   8.096
  398POPC   C4A 9702  34.603  33.122   7.714
  398POPC   C1B 9703  34.323  32.802   8.748
  398POPC   C2B 9704  34.425  32.840   8.310
  398POPC   C3B 9705  34.301  32.737   7.927
  398POPC   C4B 9706  34.338  32.768   7.454
  399POPC   NC3 9707  12.459   4.208   9.521
  399POPC   PO4 9708  13.112   4.481   9.533
  399POPC   GL1 9709  12.857   4.415   9.181
  399POPC   GL2 9710  12.827   4.085   9.181
  399POPC   C1A 9711  12.915   4.334   8.731
  399POPC   D2A 9712  13.103   4.121   8.406
  399POPC   C3A 9713  12.883   4.277   8.087
  399POPC   C4A 9714  13.078   4.486   7.805
  399POPC   C1B 9715  12.520   4.049   8.862
  399POPC   C2B 9716  12.545   3.961   8.418
  399POPC   C3B 9717  12.448   4.025   7.971
  399POPC   C4B 9718  12.601   4.263   7.639
  400POPC   NC3 9719  38.900  42.508   9.425
  400POPC   PO4 9720  38.266  42.171   9.555
  400POPC   GL1 9721  38.191  42.153   9.146
  400POPC   GL2 9722  38.532  42.265   9.103
  400POPC   C1A 9723  38.180  42.322   8.734
  400POPC   D2A 9724  38.324  42.507   8.389
  400POPC   C3A 9725  38.428  42.188   8.152
  400POPC   C4A 9726  38.326  42.341   7.762
  400POPC   C1B 9727  38.698  42.517   8.770
  400POPC   C2B 9728  38.835  42.418   8.373
  400POPC   C3B 9729  38.703  42.595   8.015
  400POPC   C4B 9730  38.828  42.461   7.640
  401POPC   NC3 9731  31.783   3.912   9.304
  401POPC   PO4 9732  31.473   4.547   9.451
  401POPC   GL1 9733  31.353   4.513   9.082
  401POPC   GL2 9734  31.579   4.264   8.992
  401POPC   C1A 9735  31.447   4.702   8.705
  401POPC   D2A 9736  31.385   4.365   8.450
  401POPC   C3A 9737  31.481   4.430   8.059
  401POPC   C4A 9738  31.338   4.352   7.678
  401POPC   C1B 9739  31.637   3.973   8.671
  401POPC   C2B 9740  31.808   4.095   8.299
  401POPC   C3B 9741  31.704   3.971   7.911
  401POPC   C4B 9742  31.668   4.029   7.476
  402POPC   NC3 9743  24.613  22.539   9.766
  402POPC   PO4 9744  24.568  23.138   9.499
  402POPC   GL1 9745  24.463  22.904   9.172
  402POPC   GL2 9746  24.625  22.531   9.203
  402POPC   C1A 9747  24.417  23.173   8.796
  402POPC   D2A 9748  24.196  23.235   8.441
  402POPC   C3A 9749  24.501  23.297   8.118
  402POPC   C4A 9750  24.403  23.239   7.708
  402POPC   C1B 9751  24.609  22.677   8.757
  402POPC   C2B 9752  24.449  22.789   8.347
  402POPC   C3B 9753  24.626  22.833   7.938
  402POPC   C4B 9754  24.806  22.571   7.610
  403POPC   NC3 9755  19.767  44.484   9.676
  403POPC   PO4 9756  19.773  43.835   9.652
  403POPC   GL1 9757  19.730  43.615   9.242
  403POPC   GL2 9758  19.454  43.739   9.080
  403POPC   C1A 9759  19.898  43.804   8.827
  403POPC   D2A 9760  19.742  44.005   8.444
  403POPC   C3A 9761  20.022  43.927   8.112
  403POPC   C4A 9762  20.152  43.609   7.866
  403POPC   C1B 9763  19.261  43.895   8.712
  403POPC   C2B 9764  19.327  43.744   8.311
  403POPC   C3B 9765  19.598  43.691   7.945
  403POPC   C4B 9766  19.519  43.914   7.558
  404POPC   NC3 9767   0.145  27.738   9.450
  404POPC   PO4 9768   0.761  27.474   9.400
  404POPC   GL1 9769   0.402  27.460   9.100
  404POPC   GL2 9770   0.212  27.787   8.965
  404POPC   C1A 9771   0.440  27.455   8.668
  404POPC   D2A 9772   0.706  27.519   8.361
  404POPC   C3A 9773   0.474  27.421   7.995
  404POPC   C4A 9774   0.265  27.695   7.713
  404POPC   C1B 9775   0.644  27.901   8.836
  404POPC   C2B 9776   0.765  28.036   8.412
  404POPC   C3B 9777   0.704  27.903   7.979
  404POPC   C4B 9778   0.753  27.652   7.626
  405POPC   NC3 9779  17.682  29.484   9.486
  405POPC   PO4 9780  17.017  29.233   9.585
  405POPC   GL1 9781  17.252  29.289   9.212
  405POPC   GL2 9782  17.257  29.642   9.163
  405POPC   C1A 9783  17.489  29.092   8.848
  405POPC   D2A 9784  17.463  29.197   8.375
  405POPC   C3A 9785  17.305  29.053   7.952
  405POPC   C4A 9786  17.498  28.935   7.526
  405POPC   C1B 9787  17.219  29.504   8.740
  405POPC   C2B 9788  17.104  29.588   8.329
  405POPC   C3B 9789  17.281  29.600   7.936
  405POPC   C4B 9790  17.680  29.365   7.789
  406POPC   NC3 9791  11.826  40.072   9.376
  406POPC   PO4 9792  12.304  39.705   9.707
  406POPC   GL1 9793  12.278  39.762   9.194
  406POPC   GL2 9794  12.223  40.118   9.051
  406POPC   C1A 9795  12.130  39.789   8.696
  406POPC   D2A 9796  12.193  40.161   8.370
  406POPC   C3A 9797  12.192  40.192   7.887
  406POPC   C4A 9798  12.300  39.997   7.452
  406POPC   C1B 9799  11.826  40.197   8.733
  406POPC   C2B 9800  11.667  40.094   8.286
  406POPC   C3B 9801  11.768  39.911   7.862
  406POPC   C4B 9802  11.805  40.181   7.508
  407POPC   NC3 9803   4.631  18.843   9.481
  407POPC   PO4 9804   5.258  19.141   9.566
  407POPC   GL1 9805   5.336  19.150   9.118
  407POPC   GL2 9806   5.059  18.922   9.127
  407POPC   C1A 9807   5.191  19.118   8.654
  407POPC   D2A 9808   4.927  19.065   8.258
  407POPC   C3A 9809   5.114  19.299   7.881
  407POPC   C4A 9810   5.176  19.332   7.402
  407POPC   C1B 9811   5.308  18.649   8.869
  407POPC   C2B 9812   5.260  18.648   8.422
  407POPC   C3B 9813   5.283  18.811   8.006
  407POPC   C4B 9814   5.033  18.858   7.637
  408POPC   NC3 9815  12.205   0.435   9.560
  408POPC   PO4 9816  11.702   0.785   9.478
  408POPC   GL1 9817  11.851   0.657   9.136
  408POPC   GL2 9818  11.540   0.532   9.035
  408POPC   C1A 9819  12.043   0.447   8.794
  408POPC   D2A 9820  12.258   0.186   8.512
  408POPC   C3A 9821  12.374   0.365   8.135
  408POPC   C4A 9822  12.128   0.263   7.771
  408POPC   C1B 9823  11.578   0.444   8.595
  408POPC   C2B 9824  11.819   0.442   8.213
  408POPC   C3B 9825  11.682   0.611   7.807
  408POPC   C4B 9826  11.812   0.443   7.407
  409POPC   NC3 9827  28.784   1.915   9.482
  409POPC   PO4 9828  29.456   2.165   9.451
  409POPC   GL1 9829  29.153   2.061   9.164
  409POPC   GL2 9830  29.252   1.756   9.132
  409POPC   C1A 9831  28.885   1.861   8.813
  409POPC   D2A 9832  28.952   1.637   8.425
  409POPC   C3A 9833  28.787   1.840   8.028
  409POPC   C4A 9834  28.814   2.075   7.643
  409POPC   C1B 9835  29.393   1.798   8.719
  409POPC   C2B 9836  29.558   1.490   8.425
  409POPC   C3B 9837  29.319   1.518   8.083
  409POPC   C4B 9838  29.265   1.903   7.870
  410POPC   NC3 9839  19.230  32.860   9.484
  410POPC   PO4 9840  19.091  32.292   9.504
  410POPC   GL1 9841  19.167  32.034   9.149
  410POPC   GL2 9842  19.089  32.353   8.983
  410POPC   C1A 9843  19.330  32.023   8.712
  410POPC   D2A 9844  19.203  32.268   8.387
  410POPC   C3A 9845  19.168  32.031   8.022
  410POPC   C4A 9846  18.804  32.039   7.751
  410POPC   C1B 9847  19.459  32.539   8.781
  410POPC   C2B 9848  19.582  32.631   8.365
  410POPC   C3B 9849  19.326  32.582   7.990
  410POPC   C4B 9850  18.891  32.525   7.879
  411POPC   NC3 9851  25.150  21.209   9.414
  411POPC   PO4 9852  25.454  21.842   9.477
  411POPC   GL1 9853  25.393  21.613   9.150
  411POPC   GL2 9854  25.066  21.574   9.077
  411POPC   C1A 9855  25.438  21.447   8.761
  411POPC   D2A 9856  25.235  21.587   8.388
  411POPC   C3A 9857  25.313  21.395   7.992
  411POPC   C4A 9858  25.480  21.662   7.679
  411POPC   C1B 9859  24.955  21.287   8.708
  411POPC   C2B 9860  24.968  21.168   8.302
  411POPC   C3B 9861  24.812  21.214   7.904
  411POPC   C4B 9862  24.980  21.142   7.508
  412POPC   NC3 9863  37.964  42.581   9.375
  412POPC   PO4 9864  38.318  43.166   9.472
  412POPC   GL1 9865  38.132  43.067   9.087
  412POPC   GL2 9866  38.277  42.731   9.014
  412POPC   C1A 9867  38.392  43.127   8.712
  412POPC   D2A 9868  38.643  42.936   8.418
  412POPC   C3A 9869  38.604  43.125   8.029
  412POPC   C4A 9870  38.752  42.967   7.650
  412POPC   C1B 9871  37.998  42.789   8.654
  412POPC   C2B 9872  38.103  42.971   8.266
  412POPC   C3B 9873  38.178  42.907   7.846
  412POPC   C4B 9874  38.304  43.210   7.535
  413POPC   NC3 9875  42.525   0.674   9.304
  413POPC   PO4 9876  42.056   0.228   9.534
  413POPC   GL1 9877  42.225   0.287   9.109
  413POPC   GL2 9878  42.572   0.196   9.126
  413POPC   C1A 9879  42.192   0.551   8.711
  413POPC   D2A 9880  42.034   0.776   8.363
  413POPC   C3A 9881  42.017   0.545   7.984
  413POPC   C4A 9882  42.270   0.504   7.622
  413POPC   C1B 9883  42.613   0.262   8.673
  413POPC   C2B 9884  42.616   0.124   8.219
  413POPC   C3B 9885  42.614   0.145   7.744
  413POPC   C4B 9886  42.599   0.240   7.277
  414POPC   NC3 9887  32.910  26.634   9.712
  414POPC   PO4 9888  33.118  27.274   9.640
  414POPC   GL1 9889  32.968  26.984   9.297
  414POPC   GL2 9890  32.812  26.650   9.208
  414POPC   C1A 9891  32.934  27.008   8.861
  414POPC   D2A 9892  32.948  26.743   8.526
  414POPC   C3A 9893  32.801  26.839   8.144
  414POPC   C4A 9894  33.010  26.949   7.803
  414POPC   C1B 9895  33.144  26.470   8.960
  414POPC   C2B 9896  33.247  26.334   8.519
  414POPC   C3B 9897  33.257  26.586   8.126
  414POPC   C4B 9898  33.289  26.525   7.682
  415POPC   NC3 9899  21.595  25.650   9.484
  415POPC   PO4 9900  21.171  26.218   9.736
  415POPC   GL1 9901  21.378  26.161   9.316
  415POPC   GL2 9902  21.715  26.072   9.228
  415POPC   C1A 9903  21.321  26.146   8.864
  415POPC   D2A 9904  21.434  25.926   8.474
  415POPC   C3A 9905  21.409  26.215   8.128
  415POPC   C4A 9906  21.317  26.183   7.703
  415POPC   C1B 9907  21.821  26.103   8.804
  415POPC   C2B 9908  21.828  26.318   8.425
  415POPC   C3B 9909  21.881  26.368   7.996
  415POPC   C4B 9910  21.812  26.017   7.766
  416POPC   NC3 9911  29.656  20.647   9.386
  416POPC   PO4 9912  30.185  20.953   9.615
  416POPC   GL1 9913  30.072  20.762   9.145
  416POPC   GL2 9914  29.762  20.930   8.991
  416POPC   C1A 9915  29.945  20.556   8.706
  416POPC   D2A 9916  29.622  20.576   8.375
  416POPC   C3A 9917  29.800  20.504   7.936
  416POPC   C4A 9918  30.011  20.575   7.489
  416POPC   C1B 9919  29.431  21.143   8.767
  416POPC   C2B 9920  29.340  21.061   8.354
  416POPC   C3B 9921  29.716  21.027   8.108
  416POPC   C4B 9922  29.717  20.943   7.696
  417POPC   NC3 9923  39.319  15.570   9.608
  417POPC   PO4 9924  39.101  14.993   9.463
  417POPC   GL1 9925  39.154  15.310   9.192
  417POPC   GL2 9926  38.857  15.195   9.086
  417POPC   C1A 9927  39.180  15.368   8.745
  417POPC   D2A 9928  39.036  15.230   8.356
  417POPC   C3A 9929  39.356  15.199   8.073
  417POPC   C4A 9930  39.549  15.475   7.811
  417POPC   C1B 9931  38.899  14.888   8.770
  417POPC   C2B 9932  39.022  14.702   8.397
  417POPC   C3B 9933  39.011  14.817   8.004
  417POPC   C4B 9934  39.052  15.092   7.683
  418POPC   NC3 9935  24.425  33.806   9.507
  418POPC   PO4 9936  24.562  33.093   9.434
  418POPC   GL1 9937  24.769  32.770   9.206
  418POPC   GL2 9938  24.470  32.636   9.078
  418POPC   C1A 9939  24.872  32.697   8.759
  418POPC   D2A 9940  24.732  32.817   8.327
  418POPC   C3A 9941  24.813  33.070   7.946
  418POPC   C4A 9942  24.766  33.488   7.830
  418POPC   C1B 9943  24.210  32.623   8.746
  418POPC   C2B 9944  24.156  32.756   8.330
  418POPC   C3B 9945  24.402  32.734   7.937
  418POPC   C4B 9946  24.366  32.953   7.533
  419POPC   NC3 9947  36.806  35.003   9.760
  419POPC   PO4 9948  37.182  35.455   9.482
  419POPC   GL1 9949  37.089  35.357   9.062
  419POPC   GL2 9950  36.931  35.674   8.997
  419POPC   C1A 9951  36.822  35.230   8.674
  419POPC   D2A 9952  36.831  34.988   8.262
  419POPC   C3A 9953  36.757  35.248   7.867
  419POPC   C4A 9954  36.607  35.139   7.403
  419POPC   C1B 9955  37.268  35.654   8.687
  419POPC   C2B 9956  37.257  35.779   8.232
  419POPC   C3B 9957  37.186  35.568   7.840
  419POPC   C4B 9958  37.257  35.683   7.407
  420POPC   NC3 9959  44.473  21.173   9.867
  420POPC   PO4 9960  44.969  21.576   9.559
  420POPC   GL1 9961  44.753  21.555   9.153
  420POPC   GL2 9962  44.493  21.350   9.134
  420POPC   C1A 9963  44.609  21.634   8.712
  420POPC   D2A 9964  44.817  21.541   8.353
  420POPC   C3A 9965  44.695  21.586   7.943
  420POPC   C4A 9966  44.834  21.342   7.579
  420POPC   C1B 9967  44.488  21.134   8.733
  420POPC   C2B 9968  44.393  21.241   8.330
  420POPC   C3B 9969  44.206  21.332   7.963
  420POPC   C4B 9970  44.345  21.446   7.587
  421POPC   NC3 9971  10.265  44.486   9.587
  421POPC   PO4 9972  10.763  44.912   9.558
  421POPC   GL1 9973  10.564  44.753   9.195
  421POPC   GL2 9974  10.243  44.937   9.266
  421POPC   C1A 9975  10.604  44.478   8.787
  421POPC   D2A 9976  10.458  44.297   8.382
  421POPC   C3A 9977  10.572  44.462   7.977
  421POPC   C4A 9978  10.909  44.623   7.748
  421POPC   C1B 9979  10.146  44.704   8.896
  421POPC   C2B 9980  10.272  44.825   8.484
  421POPC   C3B 9981  10.310  44.895   8.064
  421POPC   C4B 9982  10.456  44.829   7.612
  422POPC   NC3 9983  39.485  43.473   9.544
  422POPC   PO4 9984  39.244  42.809   9.523
  422POPC   GL1 9985  39.229  43.132   9.207
  422POPC   GL2 9986  39.560  43.215   9.113
  422POPC   C1A 9987  39.015  43.095   8.801
  422POPC   D2A 9988  39.141  42.799   8.487
  422POPC   C3A 9989  39.083  42.928   8.053
  422POPC   C4A 9990  39.334  42.868   7.671
  422POPC   C1B 9991  39.439  43.397   8.756
  422POPC   C2B 9992  39.261  43.291   8.356
  422POPC   C3B 9993  39.430  43.297   7.938
  422POPC   C4B 9994  39.800  43.501   7.789
  423POPC   NC3 9995  10.549  18.597   9.488
  423POPC   PO4 9996  10.091  18.157   9.248
  423POPC   GL1 9997  10.391  18.394   9.047
  423POPC   GL2 9998  10.761  18.296   9.136
  423POPC   C1A 9999  10.304  18.350   8.647
  423POPC   D2A10000  10.145  18.416   8.275
  423POPC   C3A10001  10.265  18.083   8.028
  423POPC   C4A10002  10.626  18.120   7.782
  423POPC   C1B10003  10.844  18.495   8.758
  423POPC   C2B10004  10.669  18.496   8.343
  423POPC   C3B10005  10.719  18.605   7.947
  423POPC   C4B10006  10.924  18.544   7.577
  424POPC   NC310007  39.375  44.935   9.523
  424POPC   PO410008  39.756   0.411   9.483
  424POPC   GL110009  39.406   0.329   9.185
  424POPC   GL210010  39.040   0.308   9.254
  424POPC   C1A10011  39.309   0.542   8.800
  424POPC   D2A10012  39.462   0.732   8.423
  424POPC   C3A10013  39.252   0.637   8.056
  424POPC   C4A10014  39.493   0.624   7.681
  424POPC   C1B10015  38.823   0.375   8.836
  424POPC   C2B10016  39.015   0.318   8.416
  424POPC   C3B10017  38.936   0.185   7.983
  424POPC   C4B10018  39.268   0.166   7.697
  425POPC   NC310019   4.833  26.987   9.503
  425POPC   PO410020   4.663  26.403   9.132
  425POPC   GL110021   4.965  26.761   9.053
  425POPC   GL210022   5.320  26.726   9.136
  425POPC   C1A10023   4.948  26.944   8.673
  425POPC   D2A10024   4.952  26.786   8.250
  425POPC   C3A10025   5.051  27.155   8.020
  425POPC   C4A10026   4.996  27.302   7.624
  425POPC   C1B10027   5.555  26.879   8.787
  425POPC   C2B10028   5.400  27.047   8.416
  425POPC   C3B10029   5.445  26.806   8.053
  425POPC   C4B10030   5.650  26.815   7.690
  426POPC   NC310031  12.353  11.252   9.470
  426POPC   PO410032  11.685  11.099   9.514
  426POPC   GL110033  11.852  11.183   9.107
  426POPC   GL210034  12.076  11.440   9.073
  426POPC   C1A10035  11.945  11.146   8.665
  426POPC   D2A10036  11.966  11.393   8.268
  426POPC   C3A10037  11.895  11.196   7.901
  426POPC   C4A10038  12.224  10.987   7.669
  426POPC   C1B10039  12.254  11.606   8.689
  426POPC   C2B10040  12.451  11.549   8.293
  426POPC   C3B10041  12.381  11.442   7.879
  426POPC   C4B10042  12.285  11.639   7.503
  427POPC   NC310043  44.256  35.088   9.698
  427POPC   PO410044  43.910  35.585   9.515
  427POPC   GL110045  43.822  35.378   9.142
  427POPC   GL210046  43.904  35.027   9.302
  427POPC   C1A10047  43.791  35.612   8.726
  427POPC   D2A10048  43.727  35.412   8.318
  427POPC   C3A10049  43.886  35.513   7.904
  427POPC   C4A10050  43.778  35.170   7.675
  427POPC   C1B10051  44.151  34.999   8.947
  427POPC   C2B10052  44.040  34.973   8.515
  427POPC   C3B10053  44.085  35.065   8.092
  427POPC   C4B10054  44.268  35.158   7.673
  428POPC   NC310055  14.037   9.969   9.479
  428POPC   PO410056  14.691   9.752   9.369
  428POPC   GL110057  14.404   9.762   9.043
  428POPC   GL210058  14.359  10.088   9.103
  428POPC   C1A10059  14.431   9.870   8.592
  428POPC   D2A10060  14.592   9.890   8.166
  428POPC   C3A10061  14.612   9.497   7.939
  428POPC   C4A10062  14.798   9.394   7.541
  428POPC   C1B10063  14.062  10.140   8.812
  428POPC   C2B10064  13.964  10.120   8.385
  428POPC   C3B10065  14.140  10.091   7.989
  428POPC   C4B10066  14.180   9.758   7.760
  429POPC   NC310067  19.327  41.328   9.537
  429POPC   PO410068  18.850  41.788   9.573
  429POPC   GL110069  18.864  41.418   9.285
  429POPC   GL210070  19.163  41.458   9.057
  429POPC   C1A10071  18.703  41.299   8.874
  429POPC   D2A10072  18.704  41.690   8.613
  429POPC   C3A10073  18.778  41.590   8.164
  429POPC   C4A10074  18.989  41.647   7.757
  429POPC   C1B10075  19.128  41.367   8.588
  429POPC   C2B10076  19.299  41.530   8.192
  429POPC   C3B10077  19.559  41.601   7.849
  429POPC   C4B10078  19.373  41.787   7.434
  430POPC   NC310079  33.488   0.763   9.299
  430POPC   PO410080  33.679   0.232   9.644
  430POPC   GL110081  33.828   0.379   9.213
  430POPC   GL210082  33.535   0.325   9.070
  430POPC   C1A10083  33.986   0.498   8.800
  430POPC   D2A10084  33.859   0.679   8.420
  430POPC   C3A10085  33.819   0.481   8.040
  430POPC   C4A10086  34.061   0.408   7.698
  430POPC   C1B10087  33.428   0.464   8.653
  430POPC   C2B10088  33.381   0.779   8.323
  430POPC   C3B10089  33.555   0.897   7.951
  430POPC   C4B10090  33.543   0.611   7.578
  431POPC   NC310091  38.344  33.489  10.091
  431POPC   PO410092  38.413  34.009   9.617
  431POPC   GL110093  38.479  33.731   9.231
  431POPC   GL210094  38.195  33.507   9.148
  431POPC   C1A10095  38.545  33.582   8.796
  431POPC   D2A10096  38.280  33.558   8.456
  431POPC   C3A10097  38.468  33.550   8.078
  431POPC   C4A10098  38.496  33.760   7.706
  431POPC   C1B10099  38.106  33.857   8.870
  431POPC   C2B10100  37.987  33.968   8.447
  431POPC   C3B10101  38.122  33.917   8.058
  431POPC   C4B10102  38.008  33.664   7.707
  432POPC   NC310103  34.054   0.506   9.641
  432POPC   PO410104  34.639   0.434   9.405
  432POPC   GL110105  34.526   0.251   9.071
  432POPC   GL210106  34.263   0.069   9.251
  432POPC   C1A10107  34.597   0.438   8.679
  432POPC   D2A10108  34.771   0.610   8.319
  432POPC   C3A10109  34.465   0.592   7.991
  432POPC   C4A10110  34.498   0.649   7.562
  432POPC   C1B10111  34.136   0.018   8.821
  432POPC   C2B10112  34.287   0.141   8.405
  432POPC   C3B10113  34.648   0.143   8.125
  432POPC   C4B10114  34.522   0.157   7.718
  433POPC   NC310115  22.251  31.254   9.829
  433POPC   PO410116  22.187  30.681   9.448
  433POPC   GL110117  22.109  30.918   9.074
  433POPC   GL210118  22.411  30.865   8.951
  433POPC   C1A10119  22.069  31.073   8.622
  433POPC   D2A10120  22.153  30.928   8.176
  433POPC   C3A10121  21.807  30.852   7.876
  433POPC   C4A10122  21.734  30.460   7.573
  433POPC   C1B10123  22.411  30.680   8.583
  433POPC   C2B10124  22.279  30.357   8.385
  433POPC   C3B10125  22.053  30.437   8.016
  433POPC   C4B10126  22.220  30.637   7.661
  434POPC   NC310127  30.974  19.611   9.730
  434POPC   PO410128  30.544  19.060   9.475
  434POPC   GL110129  30.532  19.140   9.097
  434POPC   GL210130  30.281  19.405   9.188
  434POPC   C1A10131  30.799  19.084   8.733
  434POPC   D2A10132  30.732  18.820   8.371
  434POPC   C3A10133  30.930  19.041   8.037
  434POPC   C4A10134  30.912  19.173   7.604
  434POPC   C1B10135  30.389  19.495   8.777
  434POPC   C2B10136  30.462  19.265   8.409
  434POPC   C3B10137  30.396  19.131   8.027
  434POPC   C4B10138  30.449  19.356   7.649
  435POPC   NC310139  29.487  33.686   9.541
  435POPC   PO410140  28.831  33.967   9.489
  435POPC   GL110141  29.103  33.785   9.184
  435POPC   GL210142  29.405  34.014   9.145
  435POPC   C1A10143  29.054  33.774   8.742
  435POPC   D2A10144  29.096  34.080   8.428
  435POPC   C3A10145  29.184  33.985   8.007
  435POPC   C4A10146  29.119  33.573   7.895
  435POPC   C1B10147  29.569  33.816   8.772
  435POPC   C2B10148  29.437  33.669   8.351
  435POPC   C3B10149  29.649  33.713   7.966
  435POPC   C4B10150  29.630  34.061   7.739
  436POPC   NC310151  27.472   2.503   9.344
  436POPC   PO410152  27.333   1.879   9.608
  436POPC   GL110153  27.426   2.031   9.193
  436POPC   GL210154  27.800   2.032   9.207
  436POPC   C1A10155  27.470   1.921   8.748
  436POPC   D2A10156  27.712   2.028   8.374
  436POPC   C3A10157  27.511   2.014   7.974
  436POPC   C4A10158  27.177   1.790   7.825
  436POPC   C1B10159  28.027   2.135   8.796
  436POPC   C2B10160  28.148   2.311   8.393
  436POPC   C3B10161  27.948   2.287   7.973
  436POPC   C4B10162  27.808   2.109   7.540
  437POPC   NC310163  35.488  22.127   9.322
  437POPC   PO410164  34.960  21.934   9.405
  437POPC   GL110165  35.056  22.219   9.064
  437POPC   GL210166  35.178  21.913   8.921
  437POPC   C1A10167  35.359  22.316   8.709
  437POPC   D2A10168  35.317  22.094   8.327
  437POPC   C3A10169  35.473  22.354   7.992
  437POPC   C4A10170  35.498  22.316   7.551
  437POPC   C1B10171  35.608  21.858   8.727
  437POPC   C2B10172  35.786  21.832   8.305
  437POPC   C3B10173  35.534  21.857   7.928
  437POPC   C4B10174  35.563  21.825   7.510
  438POPC   NC310175   2.492   3.092   9.397
  438POPC   PO410176   3.089   2.759   9.522
  438POPC   GL110177   2.882   2.693   9.139
  438POPC   GL210178   2.512   2.630   9.137
  438POPC   C1A10179   2.963   2.842   8.721
  438POPC   D2A10180   2.800   3.026   8.350
  438POPC   C3A10181   2.811   2.810   7.993
  438POPC   C4A10182   2.716   2.895   7.591
  438POPC   C1B10183   2.441   2.841   8.737
  438POPC   C2B10184   2.211   2.759   8.341
  438POPC   C3B10185   2.315   2.783   7.904
  438POPC   C4B10186   2.291   2.668   7.458
  439POPC   NC310187  19.624  37.380   9.425
  439POPC   PO410188  20.079  36.808   9.644
  439POPC   GL110189  20.009  36.889   9.184
  439POPC   GL210190  19.651  36.915   9.139
  439POPC   C1A10191  19.994  36.666   8.760
  439POPC   D2A10192  20.174  36.473   8.375
  439POPC   C3A10193  19.884  36.519   8.035
  439POPC   C4A10194  19.944  36.767   7.704
  439POPC   C1B10195  19.556  36.967   8.689
  439POPC   C2B10196  19.526  36.816   8.256
  439POPC   C3B10197  19.450  36.876   7.819
  439POPC   C4B10198  19.504  37.284   7.688
  440POPC   NC310199  32.860   5.628   9.589
  440POPC   PO410200  33.175   6.211   9.524
  440POPC   GL110201  33.031   6.028   9.192
  440POPC   GL210202  33.220   5.756   9.269
  440POPC   C1A10203  33.168   6.018   8.766
  440POPC   D2A10204  33.102   6.282   8.407
  440POPC   C3A10205  33.087   6.125   7.981
  440POPC   C4A10206  33.246   6.214   7.559
  440POPC   C1B10207  32.999   5.567   8.942
  440POPC   C2B10208  33.021   5.594   8.505
  440POPC   C3B10209  33.027   5.598   8.063
  440POPC   C4B10210  32.892   5.772   7.668
  441POPC   NC310211  25.877   8.662   9.600
  441POPC   PO410212  26.302   9.103   9.777
  441POPC   GL110213  26.223   9.088   9.348
  441POPC   GL210214  26.329   8.729   9.274
  441POPC   C1A10215  26.017   8.961   8.951
  441POPC   D2A10216  26.118   8.941   8.512
  441POPC   C3A10217  25.864   8.806   8.142
  441POPC   C4A10218  25.959   8.956   7.720
  441POPC   C1B10219  26.277   8.519   8.845
  441POPC   C2B10220  26.348   8.487   8.391
  441POPC   C3B10221  26.362   8.824   8.062
  441POPC   C4B10222  26.348   8.614   7.691
  442POPC   NC310223  15.831  39.611   9.533
  442POPC   PO410224  15.967  38.899   9.560
  442POPC   GL110225  15.875  39.157   9.211
  442POPC   GL210226  16.172  39.376   9.158
  442POPC   C1A10227  15.963  39.051   8.781
  442POPC   D2A10228  16.104  39.177   8.380
  442POPC   C3A10229  15.897  39.111   7.997
  442POPC   C4A10230  15.944  38.795   7.680
  442POPC   C1B10231  16.000  39.567   8.790
  442POPC   C2B10232  16.142  39.693   8.378
  442POPC   C3B10233  15.920  39.644   8.011
  442POPC   C4B10234  15.923  39.484   7.622
  443POPC   NC310235  11.384  28.497  10.118
  443POPC   PO410236  11.571  28.353   9.451
  443POPC   GL110237  11.300  28.344   9.090
  443POPC   GL210238  11.062  28.049   9.047
  443POPC   C1A10239  11.423  28.520   8.691
  443POPC   D2A10240  11.507  28.408   8.256
  443POPC   C3A10241  11.470  28.765   7.985
  443POPC   C4A10242  11.360  28.819   7.548
  443POPC   C1B10243  11.095  28.139   8.592
  443POPC   C2B10244  10.972  28.273   8.165
  443POPC   C3B10245  11.205  28.354   7.774
  443POPC   C4B10246  11.653  28.325   7.705
  444POPC   NC310247  37.464   6.814   9.646
  444POPC   PO410248  37.912   6.377   9.521
  444POPC   GL110249  37.791   6.704   9.154
  444POPC   GL210250  37.462   6.946   9.157
  444POPC   C1A10251  37.806   6.687   8.676
  444POPC   D2A10252  37.541   6.631   8.311
  444POPC   C3A10253  37.546   6.601   7.869
  444POPC   C4A10254  37.963   6.642   7.692
  444POPC   C1B10255  37.309   6.781   8.769
  444POPC   C2B10256  37.126   6.887   8.372
  444POPC   C3B10257  37.357   7.081   8.030
  444POPC   C4B10258  37.643   7.068   7.699
  445POPC   NC310259   8.805  40.462   9.419
  445POPC   PO410260   9.224  39.833   9.488
  445POPC   GL110261   9.076  39.920   9.087
  445POPC   GL210262   8.815  40.191   8.984
  445POPC   C1A10263   8.987  39.795   8.662
  445POPC   D2A10264   8.818  40.111   8.414
  445POPC   C3A10265   8.956  40.125   8.018
  445POPC   C4A10266   9.237  39.852   7.830
  445POPC   C1B10267   8.467  39.962   8.763
  445POPC   C2B10268   8.516  39.654   8.427
  445POPC   C3B10269   8.792  39.632   8.053
  445POPC   C4B10270   8.777  39.746   7.598
  446POPC   NC310271  23.307  25.922   9.463
  446POPC   PO410272  22.750  26.196   9.408
  446POPC   GL110273  22.925  26.021   9.110
  446POPC   GL210274  23.231  26.235   9.067
  446POPC   C1A10275  22.686  25.953   8.752
  446POPC   D2A10276  22.693  26.172   8.377
  446POPC   C3A10277  22.725  25.883   8.056
  446POPC   C4A10278  22.679  26.154   7.735
  446POPC   C1B10279  23.133  26.150   8.666
  446POPC   C2B10280  23.151  25.948   8.315
  446POPC   C3B10281  23.171  26.097   7.900
  446POPC   C4B10282  23.552  26.174   7.693
  447POPC   NC310283  11.652  27.911   9.353
  447POPC   PO410284  11.512  27.312   9.442
  447POPC   GL110285  11.455  27.433   9.086
  447POPC   GL210286  11.103  27.531   9.159
  447POPC   C1A10287  11.508  27.249   8.709
  447POPC   D2A10288  11.326  27.303   8.329
  447POPC   C3A10289  11.417  27.156   7.942
  447POPC   C4A10290  11.470  27.490   7.640
  447POPC   C1B10291  11.168  27.637   8.719
  447POPC   C2B10292  11.475  27.779   8.446
  447POPC   C3B10293  11.417  27.945   8.046
  447POPC   C4B10294  11.122  27.843   7.751
  448POPC   NC310295  37.251  18.312   9.197
  448POPC   PO410296  36.684  18.414   9.500
  448POPC   GL110297  36.737  18.382   9.099
  448POPC   GL210298  36.720  18.036   8.998
  448POPC   C1A10299  36.862  18.387   8.682
  448POPC   D2A10300  36.695  18.080   8.433
  448POPC   C3A10301  36.848  18.190   8.067
  448POPC   C4A10302  36.797  18.339   7.676
  448POPC   C1B10303  37.074  17.882   8.723
  448POPC   C2B10304  37.201  17.850   8.301
  448POPC   C3B10305  37.286  17.995   7.890
  448POPC   C4B10306  37.244  18.193   7.501
  449POPC   NC310307  34.193  26.311   9.403
  449POPC   PO410308  34.735  25.911   9.551
  449POPC   GL110309  34.699  25.859   9.137
  449POPC   GL210310  34.563  26.196   9.057
  449POPC   C1A10311  34.496  25.790   8.752
  449POPC   D2A10312  34.513  26.032   8.401
  449POPC   C3A10313  34.485  25.835   8.026
  449POPC   C4A10314  34.863  25.901   7.816
  449POPC   C1B10315  34.183  26.217   8.770
  449POPC   C2B10316  34.218  26.437   8.419
  449POPC   C3B10317  34.340  26.489   8.029
  449POPC   C4B10318  34.081  26.222   7.778
  450POPC   NC310319   7.924  44.584   9.567
  450POPC   PO410320   8.523  44.860   9.362
  450POPC   GL110321   8.270  44.776   9.089
  450POPC   GL210322   8.191  44.471   9.170
  450POPC   C1A10323   8.384  44.837   8.676
  450POPC   D2A10324   8.385  44.819   8.264
  450POPC   C3A10325   8.540   0.163   8.040
  450POPC   C4A10326   8.365  44.949   7.737
  450POPC   C1B10327   8.364  44.342   8.809
  450POPC   C2B10328   8.231  44.354   8.390
  450POPC   C3B10329   8.170  44.428   7.969
  450POPC   C4B10330   8.518  44.453   7.726
  451POPC   NC310331  25.971   7.387   9.578
  451POPC   PO410332  26.440   7.560   9.181
  451POPC   GL110333  26.239   7.259   9.022
  451POPC   GL210334  25.895   7.315   9.075
  451POPC   C1A10335  26.130   7.253   8.593
  451POPC   D2A10336  25.965   7.479   8.249
  451POPC   C3A10337  25.985   7.223   7.930
  451POPC   C4A10338  26.385   7.074   7.875
  451POPC   C1B10339  25.756   7.576   8.721
  451POPC   C2B10340  25.576   7.774   8.344
  451POPC   C3B10341  25.727   7.804   7.905
  451POPC   C4B10342  25.729   7.842   7.470
  452POPC   NC310343  24.072  36.416   9.442
  452POPC   PO410344  23.453  36.149   9.443
  452POPC   GL110345  23.723  36.192   9.115
  452POPC   GL210346  24.015  35.973   9.195
  452POPC   C1A10347  23.475  36.079   8.759
  452POPC   D2A10348  23.314  36.256   8.427
  452POPC   C3A10349  23.604  36.268   8.119
  452POPC   C4A10350  23.511  36.294   7.715
  452POPC   C1B10351  23.892  35.805   8.818
  452POPC   C2B10352  23.830  35.911   8.406
  452POPC   C3B10353  23.651  35.701   8.054
  452POPC   C4B10354  23.780  35.854   7.659
  453POPC   NC310355  10.809  38.170   9.516
  453POPC   PO410356  10.569  37.611   9.422
  453POPC   GL110357  10.489  37.921   9.123
  453POPC   GL210358  10.591  37.599   8.918
  453POPC   C1A10359  10.324  37.981   8.703
  453POPC   D2A10360  10.436  37.638   8.441
  453POPC   C3A10361  10.610  37.628   8.071
  453POPC   C4A10362  10.435  37.553   7.706
  453POPC   C1B10363  10.916  37.451   8.636
  453POPC   C2B10364  10.965  37.246   8.240
  453POPC   C3B10365  10.986  37.364   7.802
  453POPC   C4B10366  10.804  37.577   7.392
  454POPC   NC310367  30.159  19.793   9.513
  454POPC   PO410368  29.741  20.212   9.221
  454POPC   GL110369  30.057  19.981   9.039
  454POPC   GL210370  29.873  19.696   9.093
  454POPC   C1A10371  30.077  19.884   8.618
  454POPC   D2A10372  30.045  19.554   8.336
  454POPC   C3A10373  30.181  19.669   7.944
  454POPC   C4A10374  30.102  20.102   7.764
  454POPC   C1B10375  29.619  19.703   8.748
  454POPC   C2B10376  29.640  19.864   8.323
  454POPC   C3B10377  29.684  19.762   7.898
  454POPC   C4B10378  29.523  19.478   7.614
  455POPC   NC310379  22.018  13.051   9.501
  455POPC   PO410380  21.628  13.557   9.374
  455POPC   GL110381  21.424  13.348   9.023
  455POPC   GL210382  21.036  13.337   8.999
  455POPC   C1A10383  21.485  13.439   8.587
  455POPC   D2A10384  21.656  13.812   8.357
  455POPC   C3A10385  21.483  13.736   7.951
  455POPC   C4A10386  21.536  13.704   7.514
  455POPC   C1B10387  21.158  13.742   8.829
  455POPC   C2B10388  21.148  13.828   8.406
  455POPC   C3B10389  21.044  14.017   8.043
  455POPC   C4B10390  21.020  13.735   7.680
  456POPC   NC310391  13.384  28.401   9.509
  456POPC   PO410392  13.971  28.674   9.349
  456POPC   GL110393  13.775  28.504   8.955
  456POPC   GL210394  13.478  28.300   9.007
  456POPC   C1A10395  13.812  28.386   8.485
  456POPC   D2A10396  13.444  28.216   8.200
  456POPC   C3A10397  13.598  27.957   7.826
  456POPC   C4A10398  14.008  28.159   7.682
  456POPC   C1B10399  13.381  28.573   8.656
  456POPC   C2B10400  13.526  28.748   8.245
  456POPC   C3B10401  13.753  28.563   7.945
  456POPC   C4B10402  13.452  28.408   7.681
  457POPC   NC310403  31.141   5.693   9.472
  457POPC   PO410404  31.554   6.258   9.479
  457POPC   GL110405  31.448   6.020   9.076
  457POPC   GL210406  31.138   6.027   9.071
  457POPC   C1A10407  31.656   5.873   8.675
  457POPC   D2A10408  31.704   5.599   8.309
  457POPC   C3A10409  31.582   5.784   7.899
  457POPC   C4A10410  31.847   6.069   7.644
  457POPC   C1B10411  31.249   6.232   8.665
  457POPC   C2B10412  31.290   6.100   8.276
  457POPC   C3B10413  31.198   6.293   7.910
  457POPC   C4B10414  31.360   6.229   7.515
  458POPC   NC310415  17.949  38.427   9.440
  458POPC   PO410416  18.458  38.786   9.442
  458POPC   GL110417  18.366  38.509   9.132
  458POPC   GL210418  18.105  38.755   9.085
  458POPC   C1A10419  18.160  38.403   8.715
  458POPC   D2A10420  17.886  38.408   8.343
  458POPC   C3A10421  18.081  38.244   8.003
  458POPC   C4A10422  18.409  38.292   7.718
  458POPC   C1B10423  18.435  38.840   8.765
  458POPC   C2B10424  18.567  38.721   8.365
  458POPC   C3B10425  18.332  38.706   8.009
  458POPC   C4B10426  18.080  38.678   7.672
  459POPC   NC310427  24.740  30.557   9.614
  459POPC   PO410428  25.382  30.491   9.531
  459POPC   GL110429  25.308  30.495   9.124
  459POPC   GL210430  25.593  30.302   9.081
  459POPC   C1A10431  25.102  30.677   8.737
  459POPC   D2A10432  25.312  30.838   8.368
  459POPC   C3A10433  25.248  30.627   7.984
  459POPC   C4A10434  24.985  30.736   7.644
  459POPC   C1B10435  25.584  30.537   8.695
  459POPC   C2B10436  25.676  30.482   8.261
  459POPC   C3B10437  25.735  30.514   7.821
  459POPC   C4B10438  25.651  30.390   7.368
  460POPC   NC310439  23.511  43.304   9.863
  460POPC   PO410440  23.887  43.427   9.568
  460POPC   GL110441  23.846  43.280   9.113
  460POPC   GL210442  23.544  43.465   9.038
  460POPC   C1A10443  23.818  42.922   8.772
  460POPC   D2A10444  23.955  42.674   8.335
  460POPC   C3A10445  23.794  42.802   7.898
  460POPC   C4A10446  24.116  42.915   7.589
  460POPC   C1B10447  23.725  43.438   8.628
  460POPC   C2B10448  23.896  43.518   8.195
  460POPC   C3B10449  23.830  43.322   7.792
  460POPC   C4B10450  23.534  43.554   7.498
  461POPC   NC310451  43.145  29.575   9.508
  461POPC   PO410452  43.383  30.224   9.494
  461POPC   GL110453  43.181  29.995   9.176
  461POPC   GL210454  43.423  29.704   9.097
  461POPC   C1A10455  43.060  30.135   8.755
  461POPC   D2A10456  42.837  30.105   8.343
  461POPC   C3A10457  43.077  29.892   8.006
  461POPC   C4A10458  43.111  30.165   7.642
  461POPC   C1B10459  43.024  29.616   8.859
  461POPC   C2B10460  42.882  29.591   8.420
  461POPC   C3B10461  42.783  29.391   8.018
  461POPC   C4B10462  42.898  29.518   7.655
  462POPC   NC310463  11.624   4.067   9.436
  462POPC   PO410464  12.135   4.553   9.497
  462POPC   GL110465  12.174   4.369   9.094
  462POPC   GL210466  11.989   4.091   9.055
  462POPC   C1A10467  12.181   4.343   8.640
  462POPC   D2A10468  12.498   4.466   8.366
  462POPC   C3A10469  12.287   4.524   7.986
  462POPC   C4A10470  12.047   4.247   7.707
  462POPC   C1B10471  12.088   3.840   8.667
  462POPC   C2B10472  12.027   3.892   8.217
  462POPC   C3B10473  11.808   3.790   7.820
  462POPC   C4B10474  11.686   4.009   7.414
  463POPC   NC310475   6.338  40.345   9.441
  463POPC   PO410476   6.623  39.731   9.430
  463POPC   GL110477   6.657  39.863   9.053
  463POPC   GL210478   6.658  40.197   9.057
  463POPC   C1A10479   6.892  39.892   8.704
  463POPC   D2A10480   6.686  39.852   8.370
  463POPC   C3A10481   6.946  39.810   8.088
  463POPC   C4A10482   6.908  39.892   7.701
  463POPC   C1B10483   6.519  40.469   8.709
  463POPC   C2B10484   6.398  40.316   8.311
  463POPC   C3B10485   6.561  40.152   7.960
  463POPC   C4B10486   6.631  40.308   7.575
  464POPC   NC310487  44.024  18.512   9.715
  464POPC   PO410488  43.454  18.166   9.520
  464POPC   GL110489  43.874  18.211   9.260
  464POPC   GL210490  44.057  18.533   9.205
  464POPC   C1A10491  43.942  18.203   8.782
  464POPC   D2A10492  43.636  18.361   8.456
  464POPC   C3A10493  43.727  18.481   8.005
  464POPC   C4A10494  43.980  18.192   7.757
  464POPC   C1B10495  43.893  18.698   8.818
  464POPC   C2B10496  44.046  18.674   8.392
  464POPC   C3B10497  44.202  18.650   7.964
  464POPC   C4B10498  43.933  18.652   7.532
  465POPC   NC310499  11.366   8.475   9.843
  465POPC   PO410500  11.214   8.942   9.424
  465POPC   GL110501  11.147   8.745   9.036
  465POPC   GL210502  11.466   8.579   9.079
  465POPC   C1A10503  11.083   9.041   8.685
  465POPC   D2A10504  11.316   9.152   8.320
  465POPC   C3A10505  11.203   8.998   7.941
  465POPC   C4A10506  10.894   9.217   7.732
  465POPC   C1B10507  11.556   8.828   8.718
  465POPC   C2B10508  11.683   8.628   8.351
  465POPC   C3B10509  11.760   8.777   7.957
  465POPC   C4B10510  11.653   9.185   7.814
  466POPC   NC310511   1.398   8.466   9.191
  466POPC   PO410512   1.079   8.027   9.503
  466POPC   GL110513   1.155   8.046   9.072
  466POPC   GL210514   1.488   7.937   9.163
  466POPC   C1A10515   1.093   8.286   8.658
  466POPC   D2A10516   0.971   8.529   8.278
  466POPC   C3A10517   1.174   8.325   7.933
  466POPC   C4A10518   1.206   7.899   7.878
  466POPC   C1B10519   1.560   8.041   8.741
  466POPC   C2B10520   1.413   7.958   8.373
  466POPC   C3B10521   1.762   7.966   8.191
  466POPC   C4B10522   1.768   8.019   7.820
  467POPC   NC310523  28.675   5.382   9.941
  467POPC   PO410524  28.186   5.381   9.437
  467POPC   GL110525  28.270   5.033   9.182
  467POPC   GL210526  28.569   4.864   9.260
  467POPC   C1A10527  28.244   4.820   8.800
  467POPC   D2A10528  28.417   4.946   8.421
  467POPC   C3A10529  28.183   4.906   8.062
  467POPC   C4A10530  28.313   5.010   7.669
  467POPC   C1B10531  28.685   5.105   8.850
  467POPC   C2B10532  28.756   5.330   8.444
  467POPC   C3B10533  28.663   5.182   8.020
  467POPC   C4B10534  28.619   5.405   7.632
  468POPC   NC310535  11.133  27.069   9.497
  468POPC   PO410536  11.764  26.658   9.723
  468POPC   GL110537  11.640  26.842   9.239
  468POPC   GL210538  11.315  26.919   9.068
  468POPC   C1A10539  11.626  26.750   8.730
  468POPC   D2A10540  11.211  26.815   8.476
  468POPC   C3A10541  11.181  26.665   8.032
  468POPC   C4A10542  11.529  26.699   7.732
  468POPC   C1B10543  11.015  27.160   8.833
  468POPC   C2B10544  10.839  27.288   8.438
  468POPC   C3B10545  10.953  27.406   7.977
  468POPC   C4B10546  11.052  27.193   7.567
  469POPC   NC310547   4.640  30.441   9.549
  469POPC   PO410548   4.987  29.875   9.547
  469POPC   GL110549   5.113  29.840   9.184
  469POPC   GL210550   5.347  29.566   9.158
  469POPC   C1A10551   5.325  29.950   8.823
  469POPC   D2A10552   5.219  30.016   8.444
  469POPC   C3A10553   5.491  29.842   8.154
  469POPC   C4A10554   5.538  29.968   7.750
  469POPC   C1B10555   4.998  29.556   8.807
  469POPC   C2B10556   5.040  29.526   8.406
  469POPC   C3B10557   4.977  29.777   8.068
  469POPC   C4B10558   4.984  29.875   7.660
  470POPC   NC310559  37.205   7.774   9.548
  470POPC   PO410560  36.929   8.424   9.458
  470POPC   GL110561  37.054   8.080   9.150
  470POPC   GL210562  37.402   7.955   9.127
  470POPC   C1A10563  36.899   8.194   8.749
  470POPC   D2A10564  36.951   8.450   8.388
  470POPC   C3A10565  36.676   8.376   8.044
  470POPC   C4A10566  36.817   8.392   7.614
  470POPC   C1B10567  37.245   7.828   8.727
  470POPC   C2B10568  37.020   7.909   8.345
  470POPC   C3B10569  37.103   8.106   7.969
  470POPC   C4B10570  36.963   7.878   7.642
  471POPC   NC310571  27.736  31.127   9.413
  471POPC   PO410572  27.433  31.744   9.500
  471POPC   GL110573  27.591  31.514   9.113
  471POPC   GL210574  27.752  31.197   8.923
  471POPC   C1A10575  27.636  31.619   8.698
  471POPC   D2A10576  27.770  31.474   8.322
  471POPC   C3A10577  27.574  31.786   8.091
  471POPC   C4A10578  27.283  31.734   7.779
  471POPC   C1B10579  27.356  31.170   8.721
  471POPC   C2B10580  27.146  31.045   8.311
  471POPC   C3B10581  27.316  31.216   7.965
  471POPC   C4B10582  27.740  31.227   7.855
  472POPC   NC310583  31.701  29.090   9.484
  472POPC   PO410584  31.429  29.687   9.515
  472POPC   GL110585  31.523  29.427   9.137
  472POPC   GL210586  31.312  29.089   9.151
  472POPC   C1A10587  31.552  29.236   8.719
  472POPC   D2A10588  31.339  29.284   8.320
  472POPC   C3A10589  31.592  29.353   7.959
  472POPC   C4A10590  31.586  28.971   7.753
  472POPC   C1B10591  31.113  28.935   8.758
  472POPC   C2B10592  31.184  28.728   8.351
  472POPC   C3B10593  31.140  28.874   7.942
  472POPC   C4B10594  31.109  29.295   7.796
  473POPC   NC310595   6.444   4.305   9.418
  473POPC   PO410596   6.866   3.874   9.447
  473POPC   GL110597   6.831   4.186   9.092
  473POPC   GL210598   6.866   4.532   9.207
  473POPC   C1A10599   6.524   4.375   8.764
  473POPC   D2A10600   6.264   4.389   8.375
  473POPC   C3A10601   6.446   4.317   7.952
  473POPC   C4A10602   6.286   4.304   7.463
  473POPC   C1B10603   6.990   4.616   8.769
  473POPC   C2B10604   6.852   4.499   8.330
  473POPC   C3B10605   6.932   4.470   7.872
  473POPC   C4B10606   7.123   4.518   7.435
  474POPC   NC310607  42.057   2.272   9.548
  474POPC   PO410608  41.918   2.881   9.504
  474POPC   GL110609  42.051   2.587   9.138
  474POPC   GL210610  42.383   2.417   9.177
  474POPC   C1A10611  41.957   2.593   8.683
  474POPC   D2A10612  42.101   2.771   8.265
  474POPC   C3A10613  41.999   2.568   7.838
  474POPC   C4A10614  41.903   2.717   7.416
  474POPC   C1B10615  42.449   2.613   8.773
  474POPC   C2B10616  42.594   2.809   8.398
  474POPC   C3B10617  42.476   2.951   7.967
  474POPC   C4B10618  42.418   2.737   7.569
  475POPC   NC310619  32.595  43.643   9.467
  475POPC   PO410620  32.064  43.313   9.403
  475POPC   GL110621  32.219  43.306   9.010
  475POPC   GL210622  32.387  42.993   9.057
  475POPC   C1A10623  32.011  43.088   8.689
  475POPC   D2A10624  31.790  43.134   8.347
  475POPC   C3A10625  31.748  42.907   7.996
  475POPC   C4A10626  31.653  43.158   7.623
  475POPC   C1B10627  32.495  43.064   8.608
  475POPC   C2B10628  32.272  43.364   8.343
  475POPC   C3B10629  32.109  43.297   7.938
  475POPC   C4B10630  32.205  42.916   7.737
  476POPC   NC310631   8.933  21.411   9.817
  476POPC   PO410632   9.346  21.452   9.358
  476POPC   GL110633   9.044  21.424   9.080
  476POPC   GL210634   8.962  21.144   9.086
  476POPC   C1A10635   9.046  21.369   8.645
  476POPC   D2A10636   9.038  21.613   8.300
  476POPC   C3A10637   9.249  21.401   8.001
  476POPC   C4A10638   9.180  21.368   7.567
  476POPC   C1B10639   8.749  20.960   8.743
  476POPC   C2B10640   8.839  21.015   8.319
  476POPC   C3B10641   8.958  21.006   7.900
  476POPC   C4B10642   8.795  21.056   7.498
  477POPC   NC310643  24.972   2.987   9.502
  477POPC   PO410644  24.388   2.841   9.844
  477POPC   GL110645  24.472   2.885   9.298
  477POPC   GL210646  24.192   2.718   9.081
  477POPC   C1A10647  24.500   3.028   8.817
  477POPC   D2A10648  24.340   3.132   8.389
  477POPC   C3A10649  24.552   3.022   7.982
  477POPC   C4A10650  24.506   2.817   7.578
  477POPC   C1B10651  24.180   2.573   8.624
  477POPC   C2B10652  24.402   2.594   8.226
  477POPC   C3B10653  24.304   2.407   7.813
  477POPC   C4B10654  24.355   2.316   7.389
  478POPC   NC310655  25.499  24.302   9.638
  478POPC   PO410656  24.960  24.623   9.505
  478POPC   GL110657  25.297  24.539   9.213
  478POPC   GL210658  25.363  24.207   9.133
  478POPC   C1A10659  25.459  24.628   8.810
  478POPC   D2A10660  25.387  24.803   8.413
  478POPC   C3A10661  25.710  24.613   8.121
  478POPC   C4A10662  25.533  24.273   7.845
  478POPC   C1B10663  25.073  24.278   8.786
  478POPC   C2B10664  24.954  24.021   8.406
  478POPC   C3B10665  24.988  24.049   7.966
  478POPC   C4B10666  24.973  24.385   7.674
  479POPC   NC310667   9.983   2.284   9.507
  479POPC   PO410668   9.994   1.626   9.370
  479POPC   GL110669   9.933   1.766   8.997
  479POPC   GL210670   9.950   2.106   8.997
  479POPC   C1A10671  10.037   1.725   8.587
  479POPC   D2A10672   9.765   1.566   8.285
  479POPC   C3A10673   9.734   1.841   7.985
  479POPC   C4A10674   9.938   1.998   7.639
  479POPC   C1B10675   9.618   2.014   8.664
  479POPC   C2B10676   9.634   2.260   8.292
  479POPC   C3B10677   9.670   2.351   7.866
  479POPC   C4B10678   9.673   2.410   7.398
  480POPC   NC310679  31.767  33.964   9.392
  480POPC   PO410680  31.470  33.392   9.333
  480POPC   GL110681  31.408  33.733   9.049
  480POPC   GL210682  31.228  33.990   9.210
  480POPC   C1A10683  31.675  33.987   8.754
  480POPC   D2A10684  31.860  33.859   8.364
  480POPC   C3A10685  31.555  33.557   8.171
  480POPC   C4A10686  31.433  33.705   7.753
  480POPC   C1B10687  31.172  34.148   8.792
  480POPC   C2B10688  31.314  33.967   8.388
  480POPC   C3B10689  31.282  34.138   7.982
  480POPC   C4B10690  31.340  34.175   7.536
  481POPC   NC310691  30.374  27.825   9.567
  481POPC   PO410692  29.669  27.566   9.460
  481POPC   GL110693  29.973  27.715   9.211
  481POPC   GL210694  30.178  27.435   9.298
  481POPC   C1A10695  29.805  27.692   8.796
  481POPC   D2A10696  29.722  27.562   8.403
  481POPC   C3A10697  29.713  27.796   8.039
  481POPC   C4A10698  29.887  27.662   7.647
  481POPC   C1B10699  30.055  27.256   8.937
  481POPC   C2B10700  30.157  27.289   8.521
  481POPC   C3B10701  30.088  27.358   8.098
  481POPC   C4B10702  30.053  27.187   7.684
  482POPC   NC310703  36.620   3.403   9.630
  482POPC   PO410704  37.095   3.815   9.482
  482POPC   GL110705  36.736   3.703   9.157
  482POPC   GL210706  36.620   3.332   9.128
  482POPC   C1A10707  36.763   3.659   8.685
  482POPC   D2A10708  37.179   3.465   8.512
  482POPC   C3A10709  37.287   3.505   8.079
  482POPC   C4A10710  36.987   3.624   7.784
  482POPC   C1B10711  36.816   3.164   8.782
  482POPC   C2B10712  36.923   2.993   8.437
  482POPC   C3B10713  36.867   3.207   8.092
  482POPC   C4B10714  36.588   3.329   7.761
  483POPC   NC310715  23.421  23.206   9.545
  483POPC   PO410716  23.825  23.744   9.551
  483POPC   GL110717  23.749  23.572   9.168
  483POPC   GL210718  23.450  23.415   9.087
  483POPC   C1A10719  23.638  23.845   8.795
  483POPC   D2A10720  23.596  24.064   8.384
  483POPC   C3A10721  23.601  23.778   8.038
  483POPC   C4A10722  23.639  23.893   7.615
  483POPC   C1B10723  23.685  23.325   8.700
  483POPC   C2B10724  23.724  23.284   8.260
  483POPC   C3B10725  23.598  23.301   7.848
  483POPC   C4B10726  23.270  23.555   7.638
  484POPC   NC310727  41.410  20.675   9.754
  484POPC   PO410728  41.160  20.635   9.362
  484POPC   GL110729  41.524  20.602   9.065
  484POPC   GL210730  41.827  20.771   9.205
  484POPC   C1A10731  41.541  20.690   8.617
  484POPC   D2A10732  41.414  20.516   8.256
  484POPC   C3A10733  41.633  20.697   7.939
  484POPC   C4A10734  41.868  21.069   7.867
  484POPC   C1B10735  42.014  20.759   8.789
  484POPC   C2B10736  41.997  20.843   8.325
  484POPC   C3B10737  42.121  20.588   7.943
  484POPC   C4B10738  41.879  20.462   7.536
  485POPC   NC310739  22.601  23.047   9.502
  485POPC   PO410740  22.988  22.514   9.652
  485POPC   GL110741  23.041  22.856   9.281
  485POPC   GL210742  22.695  22.883   9.051
  485POPC   C1A10743  23.108  23.077   8.856
  485POPC   D2A10744  22.814  22.896   8.541
  485POPC   C3A10745  22.945  22.809   8.135
  485POPC   C4A10746  23.108  23.116   7.862
  485POPC   C1B10747  22.591  23.263   8.854
  485POPC   C2B10748  22.733  23.425   8.471
  485POPC   C3B10749  22.618  23.189   8.121
  485POPC   C4B10750  22.630  23.173   7.701
  486POPC   NC310751  11.058  36.621   9.592
  486POPC   PO410752  11.471  37.179   9.420
  486POPC   GL110753  11.337  37.074   9.043
  486POPC   GL210754  11.207  36.728   9.084
  486POPC   C1A10755  11.546  37.092   8.635
  486POPC   D2A10756  11.354  36.911   8.252
  486POPC   C3A10757  11.527  36.697   7.912
  486POPC   C4A10758  11.434  36.999   7.620
  486POPC   C1B10759  11.078  36.814   8.682
  486POPC   C2B10760  10.914  36.657   8.296
  486POPC   C3B10761  10.990  36.763   7.851
  486POPC   C4B10762  11.226  36.533   7.496
  487POPC   NC310763  18.391  41.680   9.582
  487POPC   PO410764  18.257  41.016   9.603
  487POPC   GL110765  18.302  41.292   9.214
  487POPC   GL210766  18.441  41.670   9.089
  487POPC   C1A10767  18.163  41.314   8.791
  487POPC   D2A10768  18.383  41.336   8.428
  487POPC   C3A10769  18.223  41.275   8.013
  487POPC   C4A10770  18.499  41.449   7.741
  487POPC   C1B10771  18.181  41.829   8.759
  487POPC   C2B10772  18.036  41.724   8.332
  487POPC   C3B10773  18.179  41.818   7.920
  487POPC   C4B10774  18.532  41.947   7.657
  488POPC   NC310775  33.294  12.375   9.397
  488POPC   PO410776  33.110  11.785   9.700
  488POPC   GL110777  32.959  12.000   9.296
  488POPC   GL210778  33.226  11.892   9.187
  488POPC   C1A10779  33.042  12.208   8.831
  488POPC   D2A10780  33.131  12.012   8.411
  488POPC   C3A10781  33.162  12.264   8.053
  488POPC   C4A10782  32.808  12.290   7.760
  488POPC   C1B10783  33.096  11.688   8.818
  488POPC   C2B10784  33.357  11.504   8.483
  488POPC   C3B10785  33.328  11.623   8.026
  488POPC   C4B10786  32.944  11.820   7.901
  489POPC   NC310787   9.124   6.765   9.348
  489POPC   PO410788   8.812   7.355   9.575
  489POPC   GL110789   9.007   7.396   9.182
  489POPC   GL210790   9.020   7.728   9.172
  489POPC   C1A10791   9.046   7.330   8.727
  489POPC   D2A10792   9.026   7.314   8.276
  489POPC   C3A10793   8.703   7.301   7.980
  489POPC   C4A10794   9.043   7.276   7.685
  489POPC   C1B10795   8.832   7.783   8.809
  489POPC   C2B10796   9.053   7.806   8.439
  489POPC   C3B10797   8.889   7.775   8.062
  489POPC   C4B10798   8.797   7.726   7.661
  490POPC   NC310799  30.873   3.490   9.744
  490POPC   PO410800  31.392   3.850   9.554
  490POPC   GL110801  30.977   3.735   9.286
  490POPC   GL210802  30.836   3.386   9.240
  490POPC   C1A10803  30.711   3.700   8.871
  490POPC   D2A10804  30.551   3.764   8.441
  490POPC   C3A10805  30.813   3.663   8.077
  490POPC   C4A10806  30.548   3.713   7.740
  490POPC   C1B10807  30.719   3.153   8.875
  490POPC   C2B10808  30.739   3.287   8.468
  490POPC   C3B10809  30.441   3.313   8.144
  490POPC   C4B10810  30.527   3.103   7.788
  491POPC   NC310811  37.143  37.233   9.564
  491POPC   PO410812  37.303  36.630   9.423
  491POPC   GL110813  37.038  36.828   9.070
  491POPC   GL210814  36.992  37.171   9.075
  491POPC   C1A10815  36.656  36.674   8.800
  491POPC   D2A10816  36.358  36.529   8.466
  491POPC   C3A10817  36.506  36.441   8.028
  491POPC   C4A10818  36.530  36.808   7.788
  491POPC   C1B10819  36.889  37.094   8.644
  491POPC   C2B10820  36.865  36.772   8.300
  491POPC   C3B10821  36.986  36.940   7.903
  491POPC   C4B10822  36.761  37.299   7.737
  492POPC   NC310823   1.994  30.288   9.586
  492POPC   PO410824   2.092  29.603   9.587
  492POPC   GL110825   1.969  29.864   9.247
  492POPC   GL210826   1.643  30.043   9.273
  492POPC   C1A10827   2.063  29.875   8.790
  492POPC   D2A10828   2.256  29.985   8.408
  492POPC   C3A10829   2.034  29.995   8.054
  492POPC   C4A10830   2.288  29.933   7.750
  492POPC   C1B10831   1.652  30.189   8.826
  492POPC   C2B10832   1.762  30.266   8.400
  492POPC   C3B10833   1.808  30.446   7.954
  492POPC   C4B10834   1.702  30.483   7.511
  493POPC   NC310835  27.170   3.323   9.454
  493POPC   PO410836  26.633   3.660   9.657
  493POPC   GL110837  26.624   3.670   9.208
  493POPC   GL210838  26.973   3.608   9.078
  493POPC   C1A10839  26.429   3.626   8.799
  493POPC   D2A10840  26.631   3.612   8.393
  493POPC   C3A10841  26.489   3.529   7.964
  493POPC   C4A10842  26.728   3.474   7.567
  493POPC   C1B10843  27.153   3.308   8.797
  493POPC   C2B10844  27.053   3.299   8.395
  493POPC   C3B10845  26.995   3.486   8.033
  493POPC   C4B10846  27.227   3.410   7.681
  494POPC   NC310847  10.704   5.461   9.544
  494POPC   PO410848  10.418   4.825   9.667
  494POPC   GL110849  10.522   5.001   9.284
  494POPC   GL210850  10.200   5.090   9.182
  494POPC   C1A10851  10.777   5.014   8.920
  494POPC   D2A10852  10.792   5.193   8.519
  494POPC   C3A10853  10.770   4.964   8.127
  494POPC   C4A10854  10.692   5.165   7.732
  494POPC   C1B10855  10.321   5.212   8.771
  494POPC   C2B10856  10.320   4.971   8.391
  494POPC   C3B10857  10.237   4.966   7.946
  494POPC   C4B10858  10.153   4.760   7.543
  495POPC   NC310859   1.647  38.190   9.308
  495POPC   PO410860   2.061  37.716   9.384
  495POPC   GL110861   1.815  37.736   9.030
  495POPC   GL210862   1.615  37.450   9.135
  495POPC   C1A10863   1.825  38.000   8.635
  495POPC   D2A10864   2.151  38.009   8.296
  495POPC   C3A10865   2.058  37.894   7.877
  495POPC   C4A10866   2.160  37.571   7.562
  495POPC   C1B10867   1.759  37.302   8.758
  495POPC   C2B10868   1.850  37.542   8.443
  495POPC   C3B10869   1.704  37.587   8.073
  495POPC   C4B10870   1.675  37.597   7.663
  496POPC   NC310871  33.737  10.149   9.540
  496POPC   PO410872  33.829   9.497   9.471
  496POPC   GL110873  34.030   9.659   9.112
  496POPC   GL210874  34.162  10.014   9.220
  496POPC   C1A10875  33.900   9.593   8.673
  496POPC   D2A10876  34.063   9.686   8.260
  496POPC   C3A10877  33.788   9.523   7.935
  496POPC   C4A10878  33.485   9.650   7.629
  496POPC   C1B10879  33.871  10.086   8.880
  496POPC   C2B10880  33.885  10.133   8.449
  496POPC   C3B10881  33.668  10.005   8.063
  496POPC   C4B10882  33.862   9.975   7.645
  497POPC   NC310883  43.203   9.981   9.563
  497POPC   PO410884  43.079   9.267   9.483
  497POPC   GL110885  43.204   9.594   9.167
  497POPC   GL210886  42.983   9.893   9.124
  497POPC   C1A10887  43.207   9.591   8.711
  497POPC   D2A10888  43.356   9.806   8.372
  497POPC   C3A10889  43.194   9.785   7.982
  497POPC   C4A10890  43.324   9.590   7.617
  497POPC   C1B10891  42.813  10.033   8.744
  497POPC   C2B10892  42.897  10.057   8.321
  497POPC   C3B10893  42.720  10.053   7.931
  497POPC   C4B10894  42.880   9.881   7.591
  498POPC   NC310895  31.495   1.733   9.226
  498POPC   PO410896  31.660   1.152   9.571
  498POPC   GL110897  31.673   1.153   9.124
  498POPC   GL210898  31.313   1.227   9.097
  498POPC   C1A10899  31.615   1.078   8.669
  498POPC   D2A10900  31.819   1.001   8.285
  498POPC   C3A10901  31.749   1.319   8.033
  498POPC   C4A10902  31.452   1.390   7.749
  498POPC   C1B10903  31.155   1.346   8.670
  498POPC   C2B10904  31.201   1.391   8.207
  498POPC   C3B10905  30.999   1.201   7.849
  498POPC   C4B10906  31.030   1.467   7.466
  499POPC   NC310907  23.438   1.039   9.773
  499POPC   PO410908  23.860   1.336   9.617
  499POPC   GL110909  23.795   1.205   9.195
  499POPC   GL210910  23.520   0.973   9.137
  499POPC   C1A10911  23.893   1.234   8.782
  499POPC   D2A10912  24.144   1.390   8.434
  499POPC   C3A10913  24.086   1.186   8.039
  499POPC   C4A10914  24.049   0.835   7.744
  499POPC   C1B10915  23.531   0.902   8.669
  499POPC   C2B10916  23.647   1.210   8.322
  499POPC   C3B10917  23.598   1.232   7.871
  499POPC   C4B10918  23.361   1.260   7.475
  500POPC   NC310919   8.712  29.263   9.514
  500POPC   PO410920   9.297  28.926   9.426
  500POPC   GL110921   9.081  29.196   9.152
  500POPC   GL210922   8.844  28.900   9.077
  500POPC   C1A10923   8.917  29.263   8.729
  500POPC   D2A10924   8.781  29.092   8.331
  500POPC   C3A10925   8.924  29.292   7.945
  500POPC   C4A10926   9.084  29.627   7.663
  500POPC   C1B10927   9.249  28.883   8.785
  500POPC   C2B10928   9.318  29.021   8.380
  500POPC   C3B10929   9.228  28.872   7.986
  500POPC   C4B10930   8.817  28.787   7.813
  501POPC   NC310931  19.490  38.247   9.568
  501POPC   PO410932  19.998  37.768   9.374
  501POPC   GL110933  19.666  37.754   9.043
  501POPC   GL210934  19.967  37.832   8.834
  501POPC   C1A10935  19.486  37.859   8.626
  501POPC   D2A10936  19.549  37.586   8.231
  501POPC   C3A10937  19.903  37.655   7.987
  501POPC   C4A10938  20.202  37.914   8.135
  501POPC   C1B10939  19.808  37.432   8.693
  501POPC   C2B10940  19.953  37.143   8.420
  501POPC   C3B10941  19.871  37.142   8.023
  501POPC   C4B10942  20.021  37.271   7.627
  502POPC   NC310943  30.334  31.218   9.522
  502POPC   PO410944  31.053  31.229   9.575
  502POPC   GL110945  30.793  31.493   9.285
  502POPC   GL210946  30.467  31.453   9.086
  502POPC   C1A10947  30.961  31.558   8.887
  502POPC   D2A10948  31.003  31.755   8.499
  502POPC   C3A10949  30.999  31.468   8.191
  502POPC   C4A10950  30.875  31.411   7.797
  502POPC   C1B10951  30.497  31.612   8.643
  502POPC   C2B10952  30.505  31.624   8.177
  502POPC   C3B10953  30.405  31.607   7.743
  502POPC   C4B10954  30.226  31.662   7.306
  503POPC   NC310955  19.352  43.693   9.587
  503POPC   PO410956  19.007  44.302   9.527
  503POPC   GL110957  18.988  43.988   9.166
  503POPC   GL210958  18.990  43.586   9.230
  503POPC   C1A10959  18.798  44.122   8.762
  503POPC   D2A10960  18.898  44.316   8.355
  503POPC   C3A10961  18.846  44.087   7.993
  503POPC   C4A10962  19.111  43.794   7.828
  503POPC   C1B10963  18.774  43.608   8.840
  503POPC   C2B10964  18.827  43.728   8.415
  503POPC   C3B10965  18.717  43.564   8.028
  503POPC   C4B10966  18.644  43.688   7.626
  504POPC   NC310967   8.834  26.206   9.430
  504POPC   PO410968   8.876  25.501   9.464
  504POPC   GL110969   8.811  25.788   9.116
  504POPC   GL210970   9.134  25.951   9.012
  504POPC   C1A10971   8.710  26.032   8.750
  504POPC   D2A10972   9.002  26.014   8.451
  504POPC   C3A10973   8.807  26.064   8.087
  504POPC   C4A10974   8.601  26.164   7.718
  504POPC   C1B10975   9.276  26.338   8.759
  504POPC   C2B10976   9.412  26.576   8.409
  504POPC   C3B10977   9.262  26.465   8.009
  504POPC   C4B10978   9.160  26.115   7.730
  505POPC   NC310979  18.476   0.729   9.610
  505POPC   PO410980  17.858   0.470   9.533
  505POPC   GL110981  18.083   0.550   9.139
  505POPC   GL210982  18.432   0.615   9.121
  505POPC   C1A10983  18.044   0.540   8.700
  505POPC   D2A10984  18.257   0.323   8.399
  505POPC   C3A10985  18.168   0.411   7.983
  505POPC   C4A10986  18.516   0.412   7.695
  505POPC   C1B10987  18.434   0.848   8.746
  505POPC   C2B10988  18.584   0.754   8.351
  505POPC   C3B10989  18.517   0.906   7.995
  505POPC   C4B10990  18.240   0.824   7.686
  506POPC   NC310991  11.066  30.498   9.318
  506POPC   PO410992  11.417  30.004   9.517
  506POPC   GL110993  11.287  29.927   9.088
  506POPC   GL210994  11.462  30.214   9.032
  506POPC   C1A10995  11.335  29.710   8.684
  506POPC   D2A10996  11.511  29.888   8.276
  506POPC   C3A10997  11.261  29.939   7.907
  506POPC   C4A10998  11.221  29.586   7.632
  506POPC   C1B10999  11.351  30.247   8.618
  506POPC   C2B11000  11.668  30.375   8.317
  506POPC   C3B11001  11.680  30.225   7.904
  506POPC   C4B11002  11.560  30.260   7.501
  507POPC   NC311003  34.251  40.282   9.681
  507POPC   PO411004  34.556  40.957   9.650
  507POPC   GL111005  34.505  40.837   9.214
  507POPC   GL211006  34.802  40.730   9.093
  507POPC   C1A11007  34.373  40.653   8.815
  507POPC   D2A11008  34.475  40.779   8.427
  507POPC   C3A11009  34.227  40.944   8.152
  507POPC   C4A11010  34.312  40.751   7.795
  507POPC   C1B11011  34.806  40.976   8.754
  507POPC   C2B11012  35.002  40.988   8.350
  507POPC   C3B11013  34.890  41.011   7.911
  507POPC   C4B11014  34.798  40.605   7.739
  508POPC   NC311015   4.827   3.722   9.462
  508POPC   PO411016   5.317   3.307   9.521
  508POPC   GL111017   5.162   3.425   9.145
  508POPC   GL211018   4.832   3.340   9.069
  508POPC   C1A11019   5.229   3.369   8.722
  508POPC   D2A11020   4.892   3.258   8.445
  508POPC   C3A11021   5.000   3.429   8.062
  508POPC   C4A11022   5.302   3.515   7.748
  508POPC   C1B11023   4.858   3.709   8.803
  508POPC   C2B11024   4.715   3.760   8.393
  508POPC   C3B11025   4.895   3.953   8.050
  508POPC   C4B11026   4.857   3.778   7.698
  509POPC   NC311027  16.069  43.456   9.497
  509POPC   PO411028  15.554  43.284   9.409
  509POPC   GL111029  15.809  43.351   9.045
  509POPC   GL211030  16.124  43.157   9.055
  509POPC   C1A11031  16.065  43.557   8.744
  509POPC   D2A11032  16.234  43.498   8.347
  509POPC   C3A11033  15.991  43.603   7.951
  509POPC   C4A11034  16.011  43.385   7.551
  509POPC   C1B11035  16.179  43.049   8.590
  509POPC   C2B11036  16.276  42.754   8.235
  509POPC   C3B11037  16.122  42.530   7.872
  509POPC   C4B11038  16.356  42.348   7.502
  510POPC   NC311039  37.621  23.443   9.588
  510POPC   PO411040  37.787  24.183   9.582
  510POPC   GL111041  37.911  23.984   9.166
  510POPC   GL211042  38.093  23.675   9.196
  510POPC   C1A11043  37.638  23.899   8.800
  510POPC   D2A11044  37.580  23.643   8.441
  510POPC   C3A11045  37.657  23.805   8.037
  510POPC   C4A11046  37.491  23.591   7.690
  510POPC   C1B11047  37.928  23.467   8.797
  510POPC   C2B11048  38.051  23.443   8.342
  510POPC   C3B11049  37.930  23.367   7.901
  510POPC   C4B11050  38.159  23.314   7.488
  511POPC   NC311051  24.097  32.978   9.377
  511POPC   PO411052  23.635  33.430   9.550
  511POPC   GL111053  23.445  33.162   9.176
  511POPC   GL211054  23.601  32.824   9.154
  511POPC   C1A11055  23.262  33.008   8.748
  511POPC   D2A11056  23.292  33.139   8.288
  511POPC   C3A11057  23.584  33.071   7.958
  511POPC   C4A11058  23.484  32.789   7.615
  511POPC   C1B11059  23.691  32.712   8.713
  511POPC   C2B11060  23.630  32.631   8.265
  511POPC   C3B11061  23.904  32.681   7.893
  511POPC   C4B11062  23.995  32.603   7.480
  512POPC   NC311063  41.315  41.048   9.511
  512POPC   PO411064  41.775  40.550   9.293
  512POPC   GL111065  41.493  40.809   9.058
  512POPC   GL211066  41.125  40.813   9.104
  512POPC   C1A11067  41.485  40.656   8.642
  512POPC   D2A11068  41.654  40.863   8.262
  512POPC   C3A11069  41.881  40.627   7.946
  512POPC   C4A11070  41.796  40.729   7.520
  512POPC   C1B11071  41.165  41.032   8.723
  512POPC   C2B11072  41.143  40.897   8.271
  512POPC   C3B11073  41.356  41.123   7.900
  512POPC   C4B11074  41.435  41.066   7.371
  513POPC   NC311075   8.550   5.267   9.430
  513POPC   PO411076   7.941   5.158   9.447
  513POPC   GL111077   8.240   4.973   9.127
  513POPC   GL211078   7.971   4.803   8.962
  513POPC   C1A11079   8.380   5.049   8.680
  513POPC   D2A11080   8.285   5.283   8.287
  513POPC   C3A11081   8.204   5.055   7.925
  513POPC   C4A11082   8.453   4.704   7.776
  513POPC   C1B11083   7.911   5.244   8.801
  513POPC   C2B11084   7.870   5.519   8.451
  513POPC   C3B11085   7.881   5.466   8.002
  513POPC   C4B11086   8.021   5.405   7.555
  514POPC   NC311087   6.094   5.626   9.389
  514POPC   PO411088   5.562   6.100   9.448
  514POPC   GL111089   5.660   5.798   9.153
  514POPC   GL211090   5.937   5.983   9.040
  514POPC   C1A11091   5.771   5.556   8.793
  514POPC   D2A11092   5.881   5.775   8.412
  514POPC   C3A11093   5.923   5.546   8.034
  514POPC   C4A11094   5.784   5.741   7.679
  514POPC   C1B11095   6.125   6.185   8.693
  514POPC   C2B11096   6.223   6.164   8.278
  514POPC   C3B11097   6.224   5.949   7.886
  514POPC   C4B11098   6.332   6.249   7.579
  515POPC   NC311099  39.968  35.907   9.371
  515POPC   PO411100  39.865  36.534   9.422
  515POPC   GL111101  40.087  36.330   9.073
  515POPC   GL211102  40.248  36.015   8.976
  515POPC   C1A11103  39.842  36.237   8.707
  515POPC   D2A11104  39.723  36.233   8.281
  515POPC   C3A11105  40.124  36.351   8.064
  515POPC   C4A11106  40.091  36.380   7.616
  515POPC   C1B11107  40.237  35.700   8.685
  515POPC   C2B11108  40.068  35.855   8.311
  515POPC   C3B11109  40.033  35.902   7.869
  515POPC   C4B11110  40.293  35.616   7.645
  516POPC   NC311111  33.082  14.067   9.415
  516POPC   PO411112  32.759  13.458   9.483
  516POPC   GL111113  32.946  13.660   9.135
  516POPC   GL211114  32.686  13.967   9.106
  516POPC   C1A11115  33.263  13.561   8.790
  516POPC   D2A11116  33.326  13.701   8.350
  516POPC   C3A11117  33.003  13.577   8.045
  516POPC   C4A11118  33.002  13.521   7.603
  516POPC   C1B11119  32.930  13.959   8.724
  516POPC   C2B11120  32.740  13.891   8.366
  516POPC   C3B11121  32.802  14.064   8.029
  516POPC   C4B11122  32.748  13.960   7.657
  517POPC   NC311123   4.553  25.530   9.484
  517POPC   PO411124   4.016  25.214   9.688
  517POPC   GL111125   4.123  25.224   9.250
  517POPC   GL211126   4.405  25.048   9.294
  517POPC   C1A11127   4.299  25.251   8.804
  517POPC   D2A11128   4.211  25.396   8.343
  517POPC   C3A11129   4.512  25.422   7.992
  517POPC   C4A11130   4.592  25.124   7.667
  517POPC   C1B11131   4.450  24.752   8.980
  517POPC   C2B11132   4.438  24.773   8.546
  517POPC   C3B11133   4.403  24.913   8.139
  517POPC   C4B11134   4.097  25.051   7.879
  518POPC   NC311135   5.921  14.145   9.567
  518POPC   PO411136   5.516  14.623   9.759
  518POPC   GL111137   5.649  14.464   9.268
  518POPC   GL211138   5.686  14.150   9.092
  518POPC   C1A11139   5.914  14.551   8.884
  518POPC   D2A11140   6.107  14.557   8.484
  518POPC   C3A11141   5.879  14.750   8.141
  518POPC   C4A11142   6.000  14.592   7.739
  518POPC   C1B11143   5.540  14.242   8.703
  518POPC   C2B11144   5.732  14.265   8.317
  518POPC   C3B11145   5.843  14.141   7.914
  518POPC   C4B11146   5.588  14.097   7.534
  519POPC   NC311147  15.000  32.061   9.563
  519POPC   PO411148  15.324  32.593   9.480
  519POPC   GL111149  15.216  32.272   9.129
  519POPC   GL211150  14.867  32.159   9.081
  519POPC   C1A11151  15.304  32.069   8.698
  519POPC   D2A11152  15.128  32.110   8.260
  519POPC   C3A11153  15.339  32.151   7.858
  519POPC   C4A11154  15.658  32.343   7.582
  519POPC   C1B11155  14.812  31.967   8.674
  519POPC   C2B11156  14.631  31.999   8.282
  519POPC   C3B11157  14.767  32.180   7.887
  519POPC   C4B11158  15.028  32.568   7.879
  520POPC   NC311159  26.667  10.924   9.330
  520POPC   PO411160  27.163  11.400   9.599
  520POPC   GL111161  27.013  11.275   9.184
  520POPC   GL211162  26.697  11.430   9.210
  520POPC   C1A11163  26.941  11.194   8.725
  520POPC   D2A11164  26.785  11.045   8.320
  520POPC   C3A11165  27.000  11.132   7.917
  520POPC   C4A11166  27.002  11.341   7.495
  520POPC   C1B11167  26.467  11.327   8.833
  520POPC   C2B11168  26.534  11.499   8.463
  520POPC   C3B11169  26.692  11.525   8.094
  520POPC   C4B11170  26.557  11.345   7.743
  521POPC   NC311171   4.131  39.430   9.493
  521POPC   PO411172   4.765  39.134   9.581
  521POPC   GL111173   4.497  39.116   9.184
  521POPC   GL211174   4.117  39.056   9.137
  521POPC   C1A11175   4.399  39.151   8.727
  521POPC   D2A11176   4.234  39.353   8.354
  521POPC   C3A11177   4.416  39.125   8.028
  521POPC   C4A11178   4.603  39.287   7.668
  521POPC   C1B11179   3.922  39.338   8.797
  521POPC   C2B11180   3.721  39.280   8.376
  521POPC   C3B11181   3.891  39.107   8.002
  521POPC   C4B11182   4.102  39.355   7.690
  522POPC   NC311183  30.966  15.419   9.477
  522POPC   PO411184  30.568  14.930   9.628
  522POPC   GL111185  30.670  15.116   9.184
  522POPC   GL211186  30.947  14.953   9.049
  522POPC   C1A11187  30.869  15.415   8.824
  522POPC   D2A11188  30.753  15.621   8.427
  522POPC   C3A11189  30.905  15.391   8.064
  522POPC   C4A11190  30.689  15.345   7.672
  522POPC   C1B11191  30.805  14.914   8.637
  522POPC   C2B11192  30.830  14.872   8.173
  522POPC   C3B11193  30.954  14.807   7.747
  522POPC   C4B11194  31.100  14.638   7.337
  523POPC   NC311195  40.512  27.384   9.562
  523POPC   PO411196  41.183  27.533   9.495
  523POPC   GL111197  40.828  27.708   9.254
  523POPC   GL211198  40.747  27.423   9.115
  523POPC   C1A11199  40.691  27.814   8.815
  523POPC   D2A11200  40.969  27.780   8.456
  523POPC   C3A11201  40.742  27.646   8.113
  523POPC   C4A11202  40.392  27.700   7.836
  523POPC   C1B11203  41.119  27.437   8.850
  523POPC   C2B11204  41.201  27.280   8.459
  523POPC   C3B11205  41.169  27.256   8.047
  523POPC   C4B11206  41.090  27.522   7.753
  524POPC   NC311207   1.721   4.495   9.325
  524POPC   PO411208   1.058   4.550   9.510
  524POPC   GL111209   0.963   4.412   9.102
  524POPC   GL211210   1.314   4.388   9.042
  524POPC   C1A11211   0.975   4.146   8.697
  524POPC   D2A11212   1.286   3.984   8.359
  524POPC   C3A11213   1.140   4.088   7.958
  524POPC   C4A11214   0.943   4.448   7.775
  524POPC   C1B11215   1.408   4.409   8.636
  524POPC   C2B11216   1.129   4.494   8.316
  524POPC   C3B11217   1.375   4.543   8.014
  524POPC   C4B11218   1.486   4.720   7.676
  525POPC   NC311219   1.442   6.523   9.461
  525POPC   PO411220   2.071   6.627   9.689
  525POPC   GL111221   1.948   6.752   9.263
  525POPC   GL211222   2.037   6.464   9.108
  525POPC   C1A11223   2.056   6.918   8.832
  525POPC   D2A11224   1.913   6.783   8.426
  525POPC   C3A11225   2.127   6.769   8.035
  525POPC   C4A11226   1.935   6.763   7.619
  525POPC   C1B11227   2.247   6.442   8.707
  525POPC   C2B11228   2.116   6.323   8.308
  525POPC   C3B11229   1.856   6.348   7.959
  525POPC   C4B11230   2.172   6.326   7.681
  526POPC   NC311231  43.424  16.660   9.581
  526POPC   PO411232  43.462  17.259   9.315
  526POPC   GL111233  43.300  16.841   9.101
  526POPC   GL211234  43.493  16.537   9.097
  526POPC   C1A11235  43.090  16.497   8.788
  526POPC   D2A11236  42.928  16.249   8.395
  526POPC   C3A11237  42.864  16.532   8.016
  526POPC   C4A11238  43.112  16.916   7.836
  526POPC   C1B11239  43.558  16.714   8.679
  526POPC   C2B11240  43.392  16.603   8.274
  526POPC   C3B11241  43.338  16.425   7.878
  526POPC   C4B11242  43.338  16.611   7.498
  527POPC   NC311243  12.243  20.302   9.541
  527POPC   PO411244  12.305  20.940   9.755
  527POPC   GL111245  12.271  20.809   9.290
  527POPC   GL211246  11.961  20.601   9.216
  527POPC   C1A11247  12.182  20.893   8.811
  527POPC   D2A11248  12.007  20.790   8.382
  527POPC   C3A11249  12.217  20.823   7.959
  527POPC   C4A11250  12.410  20.455   7.859
  527POPC   C1B11251  11.961  20.423   8.792
  527POPC   C2B11252  11.821  20.231   8.423
  527POPC   C3B11253  11.904  20.415   8.021
  527POPC   C4B11254  11.762  20.584   7.656
  528POPC   NC311255  39.936   7.816   9.536
  528POPC   PO411256  40.384   7.399   9.605
  528POPC   GL111257  40.218   7.480   9.141
  528POPC   GL211258  39.981   7.723   9.055
  528POPC   C1A11259  40.027   7.367   8.680
  528POPC   D2A11260  40.011   7.172   8.254
  528POPC   C3A11261  40.101   7.380   7.825
  528POPC   C4A11262  40.052   7.363   7.334
  528POPC   C1B11263  40.236   7.816   8.731
  528POPC   C2B11264  40.198   7.673   8.305
  528POPC   C3B11265  40.353   7.816   7.924
  528POPC   C4B11266  40.377   7.702   7.515
  529POPC   NC311267  35.620   1.703   9.386
  529POPC   PO411268  35.719   1.019   9.439
  529POPC   GL111269  35.538   1.077   9.038
  529POPC   GL211270  35.352   1.368   9.102
  529POPC   C1A11271  35.499   1.170   8.590
  529POPC   D2A11272  35.701   1.371   8.239
  529POPC   C3A11273  35.596   1.209   7.855
  529POPC   C4A11274  35.404   0.836   7.720
  529POPC   C1B11275  35.067   1.390   8.756
  529POPC   C2B11276  35.158   1.459   8.322
  529POPC   C3B11277  35.105   1.271   7.925
  529POPC   C4B11278  35.163   1.466   7.527
  530POPC   NC311279   6.624   6.189   9.773
  530POPC   PO411280   6.281   6.747   9.825
  530POPC   GL111281   6.310   6.706   9.282
  530POPC   GL211282   6.634   6.721   9.114
  530POPC   C1A11283   6.285   6.677   8.777
  530POPC   D2A11284   6.491   6.635   8.368
  530POPC   C3A11285   6.279   6.607   7.957
  530POPC   C4A11286   6.306   6.770   7.512
  530POPC   C1B11287   6.846   6.817   8.751
  530POPC   C2B11288   7.034   6.619   8.426
  530POPC   C3B11289   6.901   6.633   8.041
  530POPC   C4B11290   6.992   6.751   7.653
  531POPC   NC311291  27.640  12.413   9.655
  531POPC   PO411292  27.298  12.980   9.650
  531POPC   GL111293  27.534  12.932   9.266
  531POPC   GL211294  27.443  12.593   9.194
  531POPC   C1A11295  27.572  12.940   8.810
  531POPC   D2A11296  27.536  12.715   8.410
  531POPC   C3A11297  27.627  12.944   8.028
  531POPC   C4A11298  27.898  12.854   7.682
  531POPC   C1B11299  27.197  12.576   8.798
  531POPC   C2B11300  27.073  12.420   8.391
  531POPC   C3B11301  27.169  12.656   8.023
  531POPC   C4B11302  27.426  12.648   7.651
  532POPC   NC311303  11.835  12.353   9.437
  532POPC   PO411304  12.169  11.707   9.510
  532POPC   GL111305  11.935  11.921   9.158
  532POPC   GL211306  11.638  11.744   9.031
  532POPC   C1A11307  11.896  12.125   8.749
  532POPC   D2A11308  12.103  12.319   8.384
  532POPC   C3A11309  11.971  12.272   7.967
  532POPC   C4A11310  12.153  12.119   7.567
  532POPC   C1B11311  11.748  11.633   8.653
  532POPC   C2B11312  11.818  11.881   8.287
  532POPC   C3B11313  11.923  11.738   7.864
  532POPC   C4B11314  11.756  11.830   7.447
  533POPC   NC311315  20.174  28.940   9.500
  533POPC   PO411316  20.773  29.011   9.522
  533POPC   GL111317  20.561  29.196   9.191
  533POPC   GL211318  20.686  29.520   9.190
  533POPC   C1A11319  20.433  29.143   8.763
  533POPC   D2A11320  20.554  28.878   8.412
  533POPC   C3A11321  20.419  28.879   7.965
  533POPC   C4A11322  20.668  28.953   7.578
  533POPC   C1B11323  20.592  29.629   8.767
  533POPC   C2B11324  20.501  29.414   8.339
  533POPC   C3B11325  20.571  29.352   7.891
  533POPC   C4B11326  20.433  29.450   7.454
  534POPC   NC311327  22.694  13.828   9.465
  534POPC   PO411328  23.082  13.233   9.473
  534POPC   GL111329  23.101  13.603   9.148
  534POPC   GL211330  22.832  13.793   8.995
  534POPC   C1A11331  23.167  13.687   8.662
  534POPC   D2A11332  22.972  13.526   8.289
  534POPC   C3A11333  23.246  13.681   7.985
  534POPC   C4A11334  23.167  13.852   7.569
  534POPC   C1B11335  22.597  13.434   8.827
  534POPC   C2B11336  22.403  13.378   8.408
  534POPC   C3B11337  22.446  13.564   7.985
  534POPC   C4B11338  22.826  13.492   7.740
  535POPC   NC311339  40.953  31.420   9.657
  535POPC   PO411340  40.372  31.764   9.427
  535POPC   GL111341  40.706  31.818   9.112
  535POPC   GL211342  41.046  31.624   9.168
  535POPC   C1A11343  40.809  31.620   8.706
  535POPC   D2A11344  40.784  31.343   8.357
  535POPC   C3A11345  40.566  31.529   7.997
  535POPC   C4A11346  40.685  31.887   7.744
  535POPC   C1B11347  41.312  31.577   8.785
  535POPC   C2B11348  41.300  31.750   8.373
  535POPC   C3B11349  41.070  31.625   8.023
  535POPC   C4B11350  41.065  31.226   7.830
  536POPC   NC311351  26.731  40.710   9.467
  536POPC   PO411352  26.843  40.105   9.708
  536POPC   GL111353  26.991  40.344   9.244
  536POPC   GL211354  27.100  40.659   9.074
  536POPC   C1A11355  26.698  40.560   8.819
  536POPC   D2A11356  26.426  40.501   8.441
  536POPC   C3A11357  26.566  40.772   8.108
  536POPC   C4A11358  26.659  40.876   7.660
  536POPC   C1B11359  27.188  40.692   8.615
  536POPC   C2B11360  27.058  40.668   8.204
  536POPC   C3B11361  26.924  40.480   7.846
  536POPC   C4B11362  27.030  40.549   7.417
  537POPC   NC311363  17.860  42.519   9.463
  537POPC   PO411364  17.172  42.401   9.628
  537POPC   GL111365  17.400  42.330   9.206
  537POPC   GL211366  17.622  42.044   9.247
  537POPC   C1A11367  17.342  42.474   8.741
  537POPC   D2A11368  17.290  42.738   8.330
  537POPC   C3A11369  17.546  42.602   7.992
  537POPC   C4A11370  17.393  42.277   7.747
  537POPC   C1B11371  17.692  42.081   8.807
  537POPC   C2B11372  17.712  42.328   8.423
  537POPC   C3B11373  17.744  42.073   8.059
  537POPC   C4B11374  17.703  41.902   7.652
  538POPC   NC311375  11.389  14.786   9.503
  538POPC   PO411376  11.250  15.477   9.547
  538POPC   GL111377  11.328  15.239   9.165
  538POPC   GL211378  11.563  15.029   9.031
  538POPC   C1A11379  11.083  14.928   8.908
  538POPC   D2A11380  11.005  14.993   8.471
  538POPC   C3A11381  11.306  15.096   8.133
  538POPC   C4A11382  11.172  15.151   7.688
  538POPC   C1B11383  11.435  15.227   8.644
  538POPC   C2B11384  11.643  15.509   8.346
  538POPC   C3B11385  11.723  15.393   7.941
  538POPC   C4B11386  11.662  15.039   7.725
  539POPC   NC311387   2.557  31.678   9.767
  539POPC   PO411388   2.093  31.372   9.527
  539POPC   GL111389   1.939  31.350   9.075
  539POPC   GL211390   1.668  31.591   9.015
  539POPC   C1A11391   1.873  31.185   8.660
  539POPC   D2A11392   1.758  31.299   8.241
  539POPC   C3A11393   2.050  31.375   7.858
  539POPC   C4A11394   2.375  31.184   7.640
  539POPC   C1B11395   1.920  31.693   8.651
  539POPC   C2B11396   2.045  31.731   8.223
  539POPC   C3B11397   1.860  31.844   7.818
  539POPC   C4B11398   2.013  31.875   7.371
  540POPC   NC311399  15.451   8.870   9.695
  540POPC   PO411400  14.921   8.833   9.255
  540POPC   GL111401  15.197   8.701   8.993
  540POPC   GL211402  15.391   9.001   9.071
  540POPC   C1A11403  15.195   8.490   8.606
  540POPC   D2A11404  15.413   8.450   8.218
  540POPC   C3A11405  15.317   8.806   7.927
  540POPC   C4A11406  14.955   9.048   7.859
  540POPC   C1B11407  15.195   9.075   8.648
  540POPC   C2B11408  15.340   9.255   8.267
  540POPC   C3B11409  15.467   9.296   7.846
  540POPC   C4B11410  15.261   9.197   7.464
  541POPC   NC311411  37.117  13.549   9.757
  541POPC   PO411412  36.635  13.765   9.343
  541POPC   GL111413  36.861  13.681   9.021
  541POPC   GL211414  36.770  13.360   9.024
  541POPC   C1A11415  37.132  13.672   8.679
  541POPC   D2A11416  37.384  13.675   8.319
  541POPC   C3A11417  37.212  13.597   7.923
  541POPC   C4A11418  36.941  13.889   7.777
  541POPC   C1B11419  36.631  13.525   8.620
  541POPC   C2B11420  36.701  13.717   8.246
  541POPC   C3B11421  36.640  13.463   7.916
  541POPC   C4B11422  36.915  13.289   7.610
  542POPC   NC311423  32.139   7.089   9.858
  542POPC   PO411424  32.457   7.663   9.605
  542POPC   GL111425  32.221   7.576   9.204
  542POPC   GL211426  31.883   7.723   9.185
  542POPC   C1A11427  32.068   7.402   8.786
  542POPC   D2A11428  32.261   7.351   8.370
  542POPC   C3A11429  32.121   7.169   7.982
  542POPC   C4A11430  32.122   7.331   7.562
  542POPC   C1B11431  32.075   7.912   8.816
  542POPC   C2B11432  32.004   7.820   8.406
  542POPC   C3B11433  31.989   7.670   7.990
  542POPC   C4B11434  31.900   7.786   7.579
  543POPC   NC311435  40.523  23.237   9.412
  543POPC   PO411436  39.871  22.840   9.503
  543POPC   GL111437  40.081  23.046   9.206
  543POPC   GL211438  40.352  22.835   9.114
  543POPC   C1A11439  40.077  23.173   8.786
  543POPC   D2A11440  40.069  22.919   8.433
  543POPC   C3A11441  40.147  23.084   8.057
  543POPC   C4A11442  39.903  23.159   7.771
  543POPC   C1B11443  39.984  22.657   8.861
  543POPC   C2B11444  40.035  22.410   8.484
  543POPC   C3B11445  40.215  22.539   8.069
  543POPC   C4B11446  40.054  22.702   7.654
  544POPC   NC311447  14.171   4.776   9.735
  544POPC   PO411448  14.394   5.388   9.601
  544POPC   GL111449  14.291   5.160   9.154
  544POPC   GL211450  14.514   5.147   8.928
  544POPC   C1A11451  14.105   5.347   8.737
  544POPC   D2A11452  14.373   5.239   8.365
  544POPC   C3A11453  14.313   5.443   7.964
  544POPC   C4A11454  13.976   5.497   7.710
  544POPC   C1B11455  14.191   4.852   8.756
  544POPC   C2B11456  14.037   4.742   8.365
  544POPC   C3B11457  14.216   4.671   7.978
  544POPC   C4B11458  14.486   5.000   7.825
  545POPC   NC311459   9.422  40.257   9.510
  545POPC   PO411460   9.975  39.828   9.585
  545POPC   GL111461   9.940  40.010   9.198
  545POPC   GL211462   9.614  39.931   9.160
  545POPC   C1A11463   9.924  39.872   8.750
  545POPC   D2A11464  10.079  40.046   8.355
  545POPC   C3A11465  10.143  39.826   7.982
  545POPC   C4A11466   9.738  39.706   7.806
  545POPC   C1B11467   9.430  40.075   8.765
  545POPC   C2B11468   9.394  40.107   8.322
  545POPC   C3B11469   9.581  40.222   7.941
  545POPC   C4B11470   9.471  40.197   7.515
  546POPC   NC311471  41.077  33.155   9.497
  546POPC   PO411472  40.343  33.314   9.480
  546POPC   GL111473  40.684  33.371   9.175
  546POPC   GL211474  40.756  33.022   9.076
  546POPC   C1A11475  40.921  33.419   8.802
  546POPC   D2A11476  40.961  33.138   8.461
  546POPC   C3A11477  40.885  33.352   8.107
  546POPC   C4A11478  40.596  33.277   7.751
  546POPC   C1B11479  40.924  32.706   8.762
  546POPC   C2B11480  40.859  32.601   8.331
  546POPC   C3B11481  40.786  32.849   7.980
  546POPC   C4B11482  40.872  32.785   7.565
  547POPC   NC311483  18.315  22.316   9.542
  547POPC   PO411484  18.375  21.745   9.582
  547POPC   GL111485  18.349  22.015   9.136
  547POPC   GL211486  18.378  22.392   9.042
  547POPC   C1A11487  18.363  22.013   8.682
  547POPC   D2A11488  18.075  21.953   8.360
  547POPC   C3A11489  18.115  22.154   7.973
  547POPC   C4A11490  18.220  21.911   7.639
  547POPC   C1B11491  18.661  22.433   8.681
  547POPC   C2B11492  18.705  22.301   8.258
  547POPC   C3B11493  18.666  22.270   7.822
  547POPC   C4B11494  18.671  22.592   7.529
  548POPC   NC311495  32.638  36.634   9.509
  548POPC   PO411496  32.138  37.098   9.484
  548POPC   GL111497  32.305  36.985   9.119
  548POPC   GL211498  32.117  36.696   9.111
  548POPC   C1A11499  32.278  36.889   8.679
  548POPC   D2A11500  32.237  37.130   8.341
  548POPC   C3A11501  32.251  36.917   7.956
  548POPC   C4A11502  31.947  36.779   7.759
  548POPC   C1B11503  31.899  36.517   8.743
  548POPC   C2B11504  31.945  36.613   8.302
  548POPC   C3B11505  32.215  36.407   8.023
  548POPC   C4B11506  32.459  36.460   7.680
  549POPC   NC311507  29.732   7.316   9.308
  549POPC   PO411508  30.083   7.749   9.618
  549POPC   GL111509  30.185   7.522   9.179
  549POPC   GL211510  30.157   7.147   9.099
  549POPC   C1A11511  29.981   7.509   8.762
  549POPC   D2A11512  29.962   7.730   8.409
  549POPC   C3A11513  30.070   7.533   8.053
  549POPC   C4A11514  29.794   7.731   7.798
  549POPC   C1B11515  29.902   7.009   8.760
  549POPC   C2B11516  29.878   7.186   8.391
  549POPC   C3B11517  29.637   7.227   8.095
  549POPC   C4B11518  29.785   7.226   7.708
  550POPC   NC311519  14.748   5.721   9.527
  550POPC   PO411520  14.075   5.934   9.451
  550POPC   GL111521  14.282   5.971   9.110
  550POPC   GL211522  14.394   5.647   9.126
  550POPC   C1A11523  14.121   5.861   8.712
  550POPC   D2A11524  14.047   5.682   8.325
  550POPC   C3A11525  14.198   5.937   8.002
  550POPC   C4A11526  14.558   5.893   7.778
  550POPC   C1B11527  14.553   5.605   8.706
  550POPC   C2B11528  14.603   5.736   8.307
  550POPC   C3B11529  14.827   5.476   8.036
  550POPC   C4B11530  14.717   5.421   7.630
  551POPC   NC311531  24.333  14.795   9.227
  551POPC   PO411532  24.702  14.146   9.393
  551POPC   GL111533  24.582  14.396   9.074
  551POPC   GL211534  24.303  14.193   9.025
  551POPC   C1A11535  24.422  14.501   8.636
  551POPC   D2A11536  24.209  14.376   8.222
  551POPC   C3A11537  24.381  14.597   7.834
  551POPC   C4A11538  24.214  14.904   7.457
  551POPC   C1B11539  24.667  14.057   8.718
  551POPC   C2B11540  24.720  14.256   8.300
  551POPC   C3B11541  24.540  14.096   7.913
  551POPC   C4B11542  24.139  14.140   7.690
  552POPC   NC311543   8.157  32.930   9.481
  552POPC   PO411544   8.754  33.254   9.370
  552POPC   GL111545   8.437  33.076   9.056
  552POPC   GL211546   8.219  32.745   9.019
  552POPC   C1A11547   8.485  32.965   8.623
  552POPC   D2A11548   8.484  32.657   8.295
  552POPC   C3A11549   8.340  32.850   7.885
  552POPC   C4A11550   8.510  32.855   7.471
  552POPC   C1B11551   7.976  32.986   8.723
  552POPC   C2B11552   8.054  32.978   8.288
  552POPC   C3B11553   7.903  33.100   7.895
  552POPC   C4B11554   7.992  33.007   7.469
  553POPC   NC311555   6.330  10.881   9.633
  553POPC   PO411556   6.758  10.440   9.299
  553POPC   GL111557   6.410  10.388   9.109
  553POPC   GL211558   6.309  10.709   9.154
  553POPC   C1A11559   6.458  10.280   8.683
  553POPC   D2A11560   6.852  10.226   8.413
  553POPC   C3A11561   6.795  10.299   7.963
  553POPC   C4A11562   6.871  10.307   7.502
  553POPC   C1B11563   6.468  10.792   8.749
  553POPC   C2B11564   6.822  10.833   8.470
  553POPC   C3B11565   6.791  10.923   8.024
  553POPC   C4B11566   6.521  10.667   7.744
  554POPC   NC311567  16.581   0.924   9.517
  554POPC   PO411568  16.907   1.548   9.511
  554POPC   GL111569  16.731   1.334   9.210
  554POPC   GL211570  16.892   1.034   9.141
  554POPC   C1A11571  16.817   1.409   8.770
  554POPC   D2A11572  17.010   1.260   8.374
  554POPC   C3A11573  16.892   1.422   7.999
  554POPC   C4A11574  16.998   1.315   7.603
  554POPC   C1B11575  16.513   1.026   8.885
  554POPC   C2B11576  16.545   1.075   8.464
  554POPC   C3B11577  16.678   0.930   8.055
  554POPC   C4B11578  16.329   0.927   7.776
  555POPC   NC311579  29.840   3.235   9.502
  555POPC   PO411580  30.456   3.496   9.560
  555POPC   GL111581  30.209   3.444   9.158
  555POPC   GL211582  29.860   3.327   9.014
  555POPC   C1A11583  30.271   3.394   8.700
  555POPC   D2A11584  29.968   3.312   8.352
  555POPC   C3A11585  30.016   3.660   8.061
  555POPC   C4A11586  30.084   3.696   7.587
  555POPC   C1B11587  29.817   3.661   8.727
  555POPC   C2B11588  29.534   3.655   8.384
  555POPC   C3B11589  29.562   3.422   8.010
  555POPC   C4B11590  29.595   3.688   7.683
  556POPC   NC311591  17.041   3.432   9.356
  556POPC   PO411592  16.504   3.656   9.706
  556POPC   GL111593  16.585   3.718   9.258
  556POPC   GL211594  16.250   3.708   9.237
  556POPC   C1A11595  16.762   3.604   8.810
  556POPC   D2A11596  16.931   3.501   8.396
  556POPC   C3A11597  16.670   3.653   8.064
  556POPC   C4A11598  16.569   3.306   7.778
  556POPC   C1B11599  16.169   3.755   8.806
  556POPC   C2B11600  16.346   3.883   8.433
  556POPC   C3B11601  16.214   3.955   8.039
  556POPC   C4B11602  16.295   3.739   7.646
  557POPC   NC311603  34.677  21.579   9.531
  557POPC   PO411604  34.835  20.995   9.184
  557POPC   GL111605  34.448  21.074   8.998
  557POPC   GL211606  34.391  21.378   9.187
  557POPC   C1A11607  34.473  21.139   8.576
  557POPC   D2A11608  34.848  21.293   8.375
  557POPC   C3A11609  34.832  21.220   7.891
  557POPC   C4A11610  34.425  21.284   7.685
  557POPC   C1B11611  34.573  21.550   8.850
  557POPC   C2B11612  34.392  21.629   8.457
  557POPC   C3B11613  34.546  21.574   8.100
  557POPC   C4B11614  34.702  21.744   7.760
  558POPC   NC311615  13.125   0.172   9.268
  558POPC   PO411616  12.620   0.652   9.502
  558POPC   GL111617  12.745   0.659   9.113
  558POPC   GL211618  13.122   0.701   9.187
  558POPC   C1A11619  12.579   0.549   8.686
  558POPC   D2A11620  12.861   0.348   8.372
  558POPC   C3A11621  12.903   0.408   7.927
  558POPC   C4A11622  13.130   0.193   7.572
  558POPC   C1B11623  13.060   0.694   8.731
  558POPC   C2B11624  12.898   0.860   8.337
  558POPC   C3B11625  13.097   0.883   7.965
  558POPC   C4B11626  13.100   0.720   7.561
  559POPC   NC311627  26.700  33.196   9.419
  559POPC   PO411628  26.929  32.650   9.386
  559POPC   GL111629  26.845  32.793   9.015
  559POPC   GL211630  26.500  32.831   9.074
  559POPC   C1A11631  26.652  32.721   8.616
  559POPC   D2A11632  26.468  32.899   8.288
  559POPC   C3A11633  26.828  32.942   8.016
  559POPC   C4A11634  27.202  32.783   7.883
  559POPC   C1B11635  26.611  33.213   8.790
  559POPC   C2B11636  26.748  33.299   8.398
  559POPC   C3B11637  26.576  33.378   8.010
  559POPC   C4B11638  26.846  33.279   7.625
  560POPC   NC311639  35.580  14.618   9.657
  560POPC   PO411640  35.181  14.108   9.439
  560POPC   GL111641  35.273  14.501   9.224
  560POPC   GL211642  35.643  14.579   9.162
  560POPC   C1A11643  35.274  14.550   8.780
  560POPC   D2A11644  35.346  14.274   8.419
  560POPC   C3A11645  35.211  14.492   8.033
  560POPC   C4A11646  34.949  14.690   7.704
  560POPC   C1B11647  35.731  14.322   8.792
  560POPC   C2B11648  35.866  14.314   8.355
  560POPC   C3B11649  35.661  14.258   7.984
  560POPC   C4B11650  35.611  14.488   7.598
  561POPC   NC311651  20.846  21.726   9.336
  561POPC   PO411652  20.413  21.202   9.647
  561POPC   GL111653  20.622  21.284   9.237
  561POPC   GL211654  20.449  21.580   9.056
  561POPC   C1A11655  20.719  21.146   8.813
  561POPC   D2A11656  20.455  21.025   8.472
  561POPC   C3A11657  20.631  21.197   8.115
  561POPC   C4A11658  20.390  21.224   7.752
  561POPC   C1B11659  20.683  21.655   8.683
  561POPC   C2B11660  20.911  21.616   8.301
  561POPC   C3B11661  20.764  21.615   7.852
  561POPC   C4B11662  21.032  21.551   7.501
  562POPC   NC311663  42.482  23.054   9.780
  562POPC   PO411664  43.112  23.030   9.606
  562POPC   GL111665  42.728  23.071   9.269
  562POPC   GL211666  42.329  23.101   9.269
  562POPC   C1A11667  42.527  22.896   8.852
  562POPC   D2A11668  42.366  23.124   8.458
  562POPC   C3A11669  42.420  22.943   8.039
  562POPC   C4A11670  42.722  22.624   7.872
  562POPC   C1B11671  42.125  23.277   8.877
  562POPC   C2B11672  41.871  23.353   8.469
  562POPC   C3B11673  41.972  23.260   8.007
  562POPC   C4B11674  42.289  23.221   7.643
  563POPC   NC311675  24.483  20.084   9.566
  563POPC   PO411676  24.534  19.421   9.687
  563POPC   GL111677  24.597  19.571   9.240
  563POPC   GL211678  24.376  19.851   9.128
  563POPC   C1A11679  24.431  19.461   8.816
  563POPC   D2A11680  24.246  19.652   8.451
  563POPC   C3A11681  24.424  19.566   8.087
  563POPC   C4A11682  24.439  19.599   7.668
  563POPC   C1B11683  24.496  20.032   8.738
  563POPC   C2B11684  24.667  19.958   8.342
  563POPC   C3B11685  24.537  20.051   7.932
  563POPC   C4B11686  24.767  20.029   7.576
  564POPC   NC311687  26.309   9.554   9.732
  564POPC   PO411688  25.759   9.943   9.760
  564POPC   GL111689  26.019   9.959   9.369
  564POPC   GL211690  26.088   9.607   9.270
  564POPC   C1A11691  26.238   9.959   8.929
  564POPC   D2A11692  26.303   9.770   8.507
  564POPC   C3A11693  26.348   9.780   8.067
  564POPC   C4A11694  26.131   9.798   7.704
  564POPC   C1B11695  26.085   9.455   8.849
  564POPC   C2B11696  25.914   9.415   8.435
  564POPC   C3B11697  25.953   9.360   8.002
  564POPC   C4B11698  25.730   9.497   7.630
  565POPC   NC311699  33.046   1.579   9.704
  565POPC   PO411700  32.710   2.233   9.662
  565POPC   GL111701  32.896   2.041   9.240
  565POPC   GL211702  33.130   2.272   9.077
  565POPC   C1A11703  33.097   1.880   8.791
  565POPC   D2A11704  33.307   1.701   8.428
  565POPC   C3A11705  33.015   1.718   8.098
  565POPC   C4A11706  33.036   1.763   7.691
  565POPC   C1B11707  33.385   2.463   8.757
  565POPC   C2B11708  33.472   2.475   8.341
  565POPC   C3B11709  33.313   2.178   8.078
  565POPC   C4B11710  33.391   2.124   7.676
  566POPC   NC311711  40.534  30.551   9.695
  566POPC   PO411712  40.701  29.975   9.450
  566POPC   GL111713  40.765  29.965   9.043
  566POPC   GL211714  40.582  30.261   9.032
  566POPC   C1A11715  40.701  29.725   8.678
  566POPC   D2A11716  40.861  29.944   8.332
  566POPC   C3A11717  40.858  29.904   7.887
  566POPC   C4A11718  40.700  30.311   7.750
  566POPC   C1B11719  40.308  30.045   8.774
  566POPC   C2B11720  40.232  29.901   8.414
  566POPC   C3B11721  40.410  30.015   8.048
  566POPC   C4B11722  40.420  29.880   7.622
  567POPC   NC311723  22.107  36.165   9.630
  567POPC   PO411724  22.541  35.745   9.376
  567POPC   GL111725  22.109  35.858   9.189
  567POPC   GL211726  21.996  36.236   9.155
  567POPC   C1A11727  22.101  35.939   8.751
  567POPC   D2A11728  22.354  36.165   8.477
  567POPC   C3A11729  22.211  36.117   8.068
  567POPC   C4A11730  22.079  35.820   7.800
  567POPC   C1B11731  21.952  36.419   8.778
  567POPC   C2B11732  21.821  36.317   8.373
  567POPC   C3B11733  21.922  36.517   7.986
  567POPC   C4B11734  22.007  36.312   7.592
  568POPC   NC311735  21.119  20.421   9.350
  568POPC   PO411736  21.772  20.617   9.452
  568POPC   GL111737  21.536  20.683   9.049
  568POPC   GL211738  21.248  20.924   8.958
  568POPC   C1A11739  21.602  20.812   8.608
  568POPC   D2A11740  21.427  20.619   8.254
  568POPC   C3A11741  21.496  20.914   7.986
  568POPC   C4A11742  21.826  20.920   7.709
  568POPC   C1B11743  21.199  20.508   8.712
  568POPC   C2B11744  21.030  20.322   8.357
  568POPC   C3B11745  20.992  20.314   7.942
  568POPC   C4B11746  21.308  20.523   7.729
  569POPC   NC311747  29.550   5.540   9.485
  569POPC   PO411748  29.865   6.136   9.463
  569POPC   GL111749  30.037   5.873   9.155
  569POPC   GL211750  29.968   5.512   9.048
  569POPC   C1A11751  30.118   5.892   8.730
  569POPC   D2A11752  29.994   5.596   8.425
  569POPC   C3A11753  29.975   5.890   8.084
  569POPC   C4A11754  29.879   6.093   7.671
  569POPC   C1B11755  29.618   5.690   8.781
  569POPC   C2B11756  29.514   5.786   8.337
  569POPC   C3B11757  29.411   5.952   7.936
  569POPC   C4B11758  29.387   5.818   7.506
  570POPC   NC311759   0.027  35.563   9.441
  570POPC   PO411760  44.727  35.044   9.718
  570POPC   GL111761  44.602  35.091   9.262
  570POPC   GL211762  44.925  35.144   9.095
  570POPC   C1A11763  44.508  35.349   8.857
  570POPC   D2A11764  44.228  35.446   8.490
  570POPC   C3A11765  44.376  35.486   8.056
  570POPC   C4A11766  44.667  35.754   7.810
  570POPC   C1B11767  44.970  35.254   8.636
  570POPC   C2B11768  44.867  35.451   8.216
  570POPC   C3B11769  44.984  35.315   7.782
  570POPC   C4B11770   0.169  35.144   7.342
  571POPC   NC311771  11.528   6.443   9.510
  571POPC   PO411772  10.870   6.718   9.534
  571POPC   GL111773  11.137   6.623   9.205
  571POPC   GL211774  11.386   6.904   9.246
  571POPC   C1A11775  11.090   6.560   8.763
  571POPC   D2A11776  11.234   6.798   8.377
  571POPC   C3A11777  11.062   6.522   8.059
  571POPC   C4A11778  11.156   6.564   7.645
  571POPC   C1B11779  11.560   6.757   8.850
  571POPC   C2B11780  11.528   6.433   8.537
  571POPC   C3B11781  11.554   6.497   8.093
  571POPC   C4B11782  11.636   6.788   7.775
  572POPC   NC311783  40.260  26.497   9.481
  572POPC   PO411784  39.973  27.165   9.484
  572POPC   GL111785  40.075  26.912   9.153
  572POPC   GL211786  40.365  27.100   9.116
  572POPC   C1A11787  39.969  26.770   8.712
  572POPC   D2A11788  39.719  26.936   8.322
  572POPC   C3A11789  39.951  26.781   7.996
  572POPC   C4A11790  39.918  26.689   7.612
  572POPC   C1B11791  40.286  27.221   8.716
  572POPC   C2B11792  40.195  27.099   8.323
  572POPC   C3B11793  40.144  27.274   7.933
  572POPC   C4B11794  40.201  27.132   7.499
  573POPC   NC311795  22.745  29.208   9.444
  573POPC   PO411796  23.396  29.005   9.555
  573POPC   GL111797  23.139  29.037   9.194
  573POPC   GL211798  23.171  29.412   9.192
  573POPC   C1A11799  22.895  29.076   8.803
  573POPC   D2A11800  23.066  29.027   8.390
  573POPC   C3A11801  22.793  29.047   8.051
  573POPC   C4A11802  22.493  29.079   7.779
  573POPC   C1B11803  22.883  29.590   8.868
  573POPC   C2B11804  22.855  29.552   8.411
  573POPC   C3B11805  23.095  29.450   8.045
  573POPC   C4B11806  22.862  29.430   7.662
  574POPC   NC311807   9.064   8.890   9.723
  574POPC   PO411808   8.514   9.226   9.497
  574POPC   GL111809   8.745   9.037   9.152
  574POPC   GL211810   9.124   8.973   9.152
  574POPC   C1A11811   8.856   9.213   8.748
  574POPC   D2A11812   8.624   9.285   8.389
  574POPC   C3A11813   8.848   9.189   8.020
  574POPC   C4A11814   8.647   9.025   7.683
  574POPC   C1B11815   8.987   8.720   8.786
  574POPC   C2B11816   8.805   8.799   8.381
  574POPC   C3B11817   8.964   8.667   7.994
  574POPC   C4B11818   9.380   8.601   7.861
  575POPC   NC311819   1.688  14.276   9.438
  575POPC   PO411820   2.309  14.095   9.339
  575POPC   GL111821   2.058  14.333   9.079
  575POPC   GL211822   2.149  14.110   8.835
  575POPC   C1A11823   1.758  14.481   8.791
  575POPC   D2A11824   1.754  14.702   8.405
  575POPC   C3A11825   1.713  14.563   7.961
  575POPC   C4A11826   1.701  14.839   7.589
  575POPC   C1B11827   2.145  14.330   8.454
  575POPC   C2B11828   2.166  14.298   8.010
  575POPC   C3B11829   2.199  14.129   7.564
  575POPC   C4B11830   2.279  13.966   7.147
  576POPC   NC311831  30.100  43.925   9.382
  576POPC   PO411832  29.465  44.196   9.310
  576POPC   GL111833  29.725  44.002   8.969
  576POPC   GL211834  29.924  43.740   8.968
  576POPC   C1A11835  29.844  43.950   8.525
  576POPC   D2A11836  29.695  43.839   8.175
  576POPC   C3A11837  29.939  43.985   7.879
  576POPC   C4A11838  29.966  44.138   7.447
  576POPC   C1B11839  30.065  43.506   8.620
  576POPC   C2B11840  30.085  43.490   8.183
  576POPC   C3B11841  29.814  43.485   7.837
  576POPC   C4B11842  29.894  43.636   7.481
  577POPC   NC311843  13.388  24.280   9.366
  577POPC   PO411844  13.419  23.639   9.624
  577POPC   GL111845  13.683  23.868   9.266
  577POPC   GL211846  13.620  23.657   9.043
  577POPC   C1A11847  13.688  24.145   8.836
  577POPC   D2A11848  13.562  23.913   8.466
  577POPC   C3A11849  13.658  24.072   8.074
  577POPC   C4A11850  13.592  23.839   7.688
  577POPC   C1B11851  13.317  23.550   8.740
  577POPC   C2B11852  13.472  23.335   8.435
  577POPC   C3B11853  13.464  23.563   8.083
  577POPC   C4B11854  13.145  23.602   7.773
  578POPC   NC311855   4.131   9.491   9.509
  578POPC   PO411856   4.574   9.933   9.434
  578POPC   GL111857   4.400   9.703   9.108
  578POPC   GL211858   4.072   9.858   9.123
  578POPC   C1A11859   4.322   9.737   8.680
  578POPC   D2A11860   4.229  10.013   8.364
  578POPC   C3A11861   4.372   9.873   8.019
  578POPC   C4A11862   4.487   9.863   7.637
  578POPC   C1B11863   3.969   9.447   8.884
  578POPC   C2B11864   4.030   9.364   8.463
  578POPC   C3B11865   3.905   9.651   8.153
  578POPC   C4B11866   4.022   9.628   7.742
  579POPC   NC311867   6.264   7.872   9.405
  579POPC   PO411868   5.697   8.354   9.630
  579POPC   GL111869   5.682   8.112   9.196
  579POPC   GL211870   5.653   8.427   8.958
  579POPC   C1A11871   5.793   7.949   8.756
  579POPC   D2A11872   6.139   8.048   8.443
  579POPC   C3A11873   6.203   8.026   7.986
  579POPC   C4A11874   5.955   8.165   7.637
  579POPC   C1B11875   5.977   8.488   8.651
  579POPC   C2B11876   5.897   8.669   8.284
  579POPC   C3B11877   5.803   8.605   7.887
  579POPC   C4B11878   5.490   8.672   7.602
  580POPC   NC311879  20.766  33.383   9.448
  580POPC   PO411880  20.418  32.712   9.377
  580POPC   GL111881  20.592  33.033   9.104
  580POPC   GL211882  20.460  33.399   9.063
  580POPC   C1A11883  20.743  33.061   8.699
  580POPC   D2A11884  20.827  32.833   8.303
  580POPC   C3A11885  20.667  32.925   7.892
  580POPC   C4A11886  20.862  33.128   7.540
  580POPC   C1B11887  20.249  33.212   8.764
  580POPC   C2B11888  20.390  33.309   8.382
  580POPC   C3B11889  20.287  33.232   8.008
  580POPC   C4B11890  20.138  32.888   7.790
  581POPC   NC311891   9.883   3.911   9.363
  581POPC   PO411892   9.533   4.563   9.522
  581POPC   GL111893   9.799   4.402   9.183
  581POPC   GL211894   9.563   4.263   8.929
  581POPC   C1A11895   9.922   4.576   8.776
  581POPC   D2A11896   9.881   4.398   8.375
  581POPC   C3A11897   9.858   4.617   7.988
  581POPC   C4A11898   9.728   4.486   7.601
  581POPC   C1B11899   9.913   4.018   8.727
  581POPC   C2B11900   9.864   3.862   8.316
  581POPC   C3B11901   9.669   4.108   7.982
  581POPC   C4B11902   9.855   3.982   7.604
  582POPC   NC311903  15.009  29.512   9.514
  582POPC   PO411904  15.238  28.835   9.535
  582POPC   GL111905  15.113  29.103   9.205
  582POPC   GL211906  15.336  29.336   9.092
  582POPC   C1A11907  14.909  29.145   8.804
  582POPC   D2A11908  14.979  29.339   8.416
  582POPC   C3A11909  14.929  29.063   8.069
  582POPC   C4A11910  15.152  29.220   7.715
  582POPC   C1B11911  15.461  29.015   8.841
  582POPC   C2B11912  15.347  28.967   8.446
  582POPC   C3B11913  15.432  29.180   8.126
  582POPC   C4B11914  15.634  29.014   7.762
  583POPC   NC311915  21.835  17.895   9.465
  583POPC   PO411916  22.454  18.197   9.477
  583POPC   GL111917  22.176  18.180   9.146
  583POPC   GL211918  22.021  18.507   9.307
  583POPC   C1A11919  22.165  17.894   8.758
  583POPC   D2A11920  22.270  17.986   8.292
  583POPC   C3A11921  22.123  17.831   7.889
  583POPC   C4A11922  22.039  18.008   7.461
  583POPC   C1B11923  22.054  18.630   8.875
  583POPC   C2B11924  22.148  18.654   8.426
  583POPC   C3B11925  22.089  18.678   7.978
  583POPC   C4B11926  22.037  18.558   7.540
  584POPC   NC311927   9.938  35.918   9.540
  584POPC   PO411928   9.211  35.847   9.505
  584POPC   GL111929   9.570  35.777   9.179
  584POPC   GL211930   9.731  36.108   9.114
  584POPC   C1A11931   9.669  35.776   8.711
  584POPC   D2A11932   9.489  35.852   8.302
  584POPC   C3A11933   9.805  35.862   7.973
  584POPC   C4A11934   9.762  36.022   7.544
  584POPC   C1B11935   9.633  36.280   8.702
  584POPC   C2B11936   9.902  36.196   8.343
  584POPC   C3B11937  10.046  36.307   7.922
  584POPC   C4B11938   9.897  36.520   7.534
  585POPC   NC311939  11.308  31.038   9.805
  585POPC   PO411940  11.520  30.535   9.422
  585POPC   GL111941  11.368  30.929   9.234
  585POPC   GL211942  11.565  31.010   9.005
  585POPC   C1A11943  11.071  31.006   8.872
  585POPC   D2A11944  10.942  30.770   8.510
  585POPC   C3A11945  11.185  30.746   8.129
  585POPC   C4A11946  11.190  30.453   7.790
  585POPC   C1B11947  11.478  30.749   8.670
  585POPC   C2B11948  11.644  30.888   8.283
  585POPC   C3B11949  11.635  30.739   7.866
  585POPC   C4B11950  11.314  30.940   7.619
  586POPC   NC311951  17.120  32.047   9.587
  586POPC   PO411952  16.507  32.050   9.577
  586POPC   GL111953  16.810  32.084   9.173
  586POPC   GL211954  17.046  31.806   9.114
  586POPC   C1A11955  17.053  32.249   8.786
  586POPC   D2A11956  17.107  32.366   8.320
  586POPC   C3A11957  16.806  32.380   7.923
  586POPC   C4A11958  16.717  32.634   7.519
  586POPC   C1B11959  16.805  31.815   8.700
  586POPC   C2B11960  16.751  31.980   8.262
  586POPC   C3B11961  16.786  31.870   7.822
  586POPC   C4B11962  16.677  31.706   7.411
  587POPC   NC311963  21.735  11.536   9.761
  587POPC   PO411964  21.384  11.058   9.520
  587POPC   GL111965  21.480  11.278   9.133
  587POPC   GL211966  21.589  11.622   9.243
  587POPC   C1A11967  21.217  11.206   8.749
  587POPC   D2A11968  21.078  11.098   8.349
  587POPC   C3A11969  21.253  11.213   7.976
  587POPC   C4A11970  21.132  11.404   7.606
  587POPC   C1B11971  21.396  11.674   8.811
  587POPC   C2B11972  21.469  11.506   8.387
  587POPC   C3B11973  21.437  11.694   7.965
  587POPC   C4B11974  21.591  11.610   7.553
  588POPC   NC311975  19.736  29.666   9.265
  588POPC   PO411976  20.079  30.184   9.391
  588POPC   GL111977  19.934  30.089   9.014
  588POPC   GL211978  19.566  30.069   8.991
  588POPC   C1A11979  19.882  30.230   8.622
  588POPC   D2A11980  20.042  30.112   8.239
  588POPC   C3A11981  19.859  29.880   7.915
  588POPC   C4A11982  19.540  29.981   7.683
  588POPC   C1B11983  19.606  29.820   8.599
  588POPC   C2B11984  19.430  29.905   8.202
  588POPC   C3B11985  19.187  29.683   7.880
  588POPC   C4B11986  19.337  29.571   7.451
  589POPC   NC311987  38.228   9.505   9.508
  589POPC   PO411988  38.373  10.114   9.538
  589POPC   GL111989  38.214  10.121   9.142
  589POPC   GL211990  37.930   9.888   9.210
  589POPC   C1A11991  38.465  10.051   8.778
  589POPC   D2A11992  38.603   9.848   8.401
  589POPC   C3A11993  38.424   9.840   7.994
  589POPC   C4A11994  38.491   9.425   7.826
  589POPC   C1B11995  38.157   9.643   8.874
  589POPC   C2B11996  38.215   9.477   8.465
  589POPC   C3B11997  38.041   9.479   8.074
  589POPC   C4B11998  38.034   9.609   7.663
  590POPC   NC311999   8.420   4.403   9.507
  590POPC   PO412000   7.822   4.165   9.448
  590POPC   GL112001   7.907   4.298   9.055
  590POPC   GL212002   8.269   4.335   9.034
  590POPC   C1A12003   8.027   4.416   8.620
  590POPC   D2A12004   8.277   4.180   8.343
  590POPC   C3A12005   8.141   4.228   7.922
  590POPC   C4A12006   7.932   4.604   7.834
  590POPC   C1B12007   8.614   4.079   8.758
  590POPC   C2B12008   8.792   4.203   8.371
  590POPC   C3B12009   8.657   4.195   7.961
  590POPC   C4B12010   8.509   4.071   7.585
  591POPC   NC312011  13.856  35.940   9.507
  591POPC   PO412012  13.571  36.443   9.596
  591POPC   GL112013  13.490  36.164   9.213
  591POPC   GL212014  13.186  35.979   9.135
  591POPC   C1A12015  13.581  36.133   8.775
  591POPC   D2A12016  13.659  36.463   8.469
  591POPC   C3A12017  13.767  36.241   8.084
  591POPC   C4A12018  13.837  35.953   7.694
  591POPC   C1B12019  13.091  36.005   8.698
  591POPC   C2B12020  13.301  36.130   8.307
  591POPC   C3B12021  13.358  36.027   7.862
  591POPC   C4B12022  13.383  35.732   7.553
  592POPC   NC312023  25.402  34.944   9.546
  592POPC   PO412024  25.260  35.624   9.517
  592POPC   GL112025  25.320  35.324   9.151
  592POPC   GL212026  25.277  34.966   9.006
  592POPC   C1A12027  25.192  35.387   8.744
  592POPC   D2A12028  25.343  35.188   8.388
  592POPC   C3A12029  25.338  35.487   8.086
  592POPC   C4A12030  25.374  35.345   7.715
  592POPC   C1B12031  24.936  34.968   8.604
  592POPC   C2B12032  24.866  35.262   8.217
  592POPC   C3B12033  24.872  35.325   7.747
  592POPC   C4B12034  25.053  35.011   7.469
  593POPC   NC312035  11.066  24.801   9.489
  593POPC   PO412036  10.408  24.590   9.617
  593POPC   GL112037  10.401  24.424   9.158
  593POPC   GL212038  10.327  24.076   9.165
  593POPC   C1A12039  10.384  24.621   8.711
  593POPC   D2A12040  10.135  24.634   8.317
  593POPC   C3A12041  10.421  24.685   7.949
  593POPC   C4A12042  10.917  24.597   7.926
  593POPC   C1B12043  10.398  24.099   8.735
  593POPC   C2B12044  10.562  24.307   8.346
  593POPC   C3B12045  10.586  24.200   7.924
  593POPC   C4B12046  10.257  24.145   7.590
  594POPC   NC312047   5.341  40.285   9.410
  594POPC   PO412048   5.963  40.084   9.621
  594POPC   GL112049   5.811  39.922   9.240
  594POPC   GL212050   6.145  39.990   9.099
  594POPC   C1A12051   5.791  39.681   8.858
  594POPC   D2A12052   5.766  39.896   8.487
  594POPC   C3A12053   5.722  39.706   8.109
  594POPC   C4A12054   5.547  40.019   7.886
  594POPC   C1B12055   6.256  39.981   8.664
  594POPC   C2B12056   6.210  39.834   8.212
  594POPC   C3B12057   6.070  40.077   7.854
  594POPC   C4B12058   6.132  40.294   7.439
  595POPC   NC312059  29.638   6.532   9.575
  595POPC   PO412060  28.953   6.524   9.592
  595POPC   GL112061  28.981   6.569   9.141
  595POPC   GL212062  29.338   6.445   9.151
  595POPC   C1A12063  29.140   6.560   8.693
  595POPC   D2A12064  29.289   6.286   8.370
  595POPC   C3A12065  29.069   6.346   7.995
  595POPC   C4A12066  28.969   6.623   7.677
  595POPC   C1B12067  29.398   6.876   8.986
  595POPC   C2B12068  29.436   6.952   8.541
  595POPC   C3B12069  29.413   6.747   8.142
  595POPC   C4B12070  29.334   6.963   7.765
  596POPC   NC312071  25.713  20.498   9.602
  596POPC   PO412072  25.229  20.036   9.748
  596POPC   GL112073  25.160  19.924   9.296
  596POPC   GL212074  24.867  20.034   9.112
  596POPC   C1A12075  25.380  19.804   8.910
  596POPC   D2A12076  25.286  19.908   8.490
  596POPC   C3A12077  25.374  19.796   8.075
  596POPC   C4A12078  25.386  19.737   7.649
  596POPC   C1B12079  24.892  19.695   8.770
  596POPC   C2B12080  24.979  19.527   8.330
  596POPC   C3B12081  24.906  19.657   7.894
  596POPC   C4B12082  24.913  19.569   7.410
  597POPC   NC312083  37.250  10.874   9.334
  597POPC   PO412084  37.848  10.900   9.646
  597POPC   GL112085  37.679  10.661   9.242
  597POPC   GL212086  37.564  10.281   9.264
  597POPC   C1A12087  37.623  10.779   8.804
  597POPC   D2A12088  37.800  10.518   8.493
  597POPC   C3A12089  37.675  10.636   8.098
  597POPC   C4A12090  37.960  10.601   7.754
  597POPC   C1B12091  37.450  10.271   8.835
  597POPC   C2B12092  37.486  10.106   8.413
  597POPC   C3B12093  37.357  10.212   8.038
  597POPC   C4B12094  37.498  10.368   7.684
  598POPC   NC312095  35.259  10.723   9.546
  598POPC   PO412096  35.033  10.248   9.201
  598POPC   GL112097  35.271  10.601   9.054
  598POPC   GL212098  35.622  10.653   9.208
  598POPC   C1A12099  35.188  10.666   8.639
  598POPC   D2A12100  35.305  10.353   8.371
  598POPC   C3A12101  35.120  10.382   7.987
  598POPC   C4A12102  35.128  10.108   7.628
  598POPC   C1B12103  35.735  10.550   8.798
  598POPC   C2B12104  35.659  10.725   8.432
  598POPC   C3B12105  35.586  10.623   8.025
  598POPC   C4B12106  35.863  10.428   7.762
  599POPC   NC312107  10.354  24.914   9.282
  599POPC   PO412108  10.783  25.464   9.418
  599POPC   GL112109  10.557  25.343   9.074
  599POPC   GL212110  10.182  25.397   9.142
  599POPC   C1A12111  10.690  25.270   8.653
  599POPC   D2A12112  10.546  25.482   8.283
  599POPC   C3A12113  10.618  25.195   7.954
  599POPC   C4A12114  11.025  25.101   7.807
  599POPC   C1B12115  10.194  25.376   8.710
  599POPC   C2B12116  10.176  25.152   8.325
  599POPC   C3B12117  10.129  25.403   7.978
  599POPC   C4B12118  10.381  25.587   7.720
  600POPC   NC312119   6.586  19.397   9.529
  600POPC   PO412120   6.573  20.100   9.557
  600POPC   GL112121   6.600  20.145   9.154
  600POPC   GL212122   6.355  19.896   9.067
  600POPC   C1A12123   6.665  20.145   8.727
  600POPC   D2A12124   6.412  19.907   8.460
  600POPC   C3A12125   6.608  19.890   8.063
  600POPC   C4A12126   6.488  20.037   7.676
  600POPC   C1B12127   6.406  19.516   8.850
  600POPC   C2B12128   6.224  19.287   8.501
  600POPC   C3B12129   6.295  19.464   8.078
  600POPC   C4B12130   6.449  19.513   7.643
  601POPC   NC312131  15.745  11.754   9.298
  601POPC   PO412132  16.213  11.644   9.739
  601POPC   GL112133  16.190  12.029   9.321
  601POPC   GL212134  15.889  12.231   9.192
  601POPC   C1A12135  16.191  12.018   8.784
  601POPC   D2A12136  16.320  11.993   8.311
  601POPC   C3A12137  16.218  11.751   7.963
  601POPC   C4A12138  15.935  11.635   7.662
  601POPC   C1B12139  15.697  12.147   8.757
  601POPC   C2B12140  15.839  12.160   8.312
  601POPC   C3B12141  15.957  12.177   7.865
  601POPC   C4B12142  15.659  12.255   7.495
  602POPC   NC312143  31.789  25.658   9.445
  602POPC   PO412144  31.549  26.288   9.529
  602POPC   GL112145  31.437  26.182   9.148
  602POPC   GL212146  31.393  25.857   9.190
  602POPC   C1A12147  31.656  26.035   8.792
  602POPC   D2A12148  31.622  26.221   8.417
  602POPC   C3A12149  31.583  26.004   8.043
  602POPC   C4A12150  31.650  26.157   7.669
  602POPC   C1B12151  31.229  25.706   8.847
  602POPC   C2B12152  31.369  25.752   8.460
  602POPC   C3B12153  31.240  25.645   8.062
  602POPC   C4B12154  31.385  25.649   7.686
  603POPC   NC312155  11.404   3.437   9.549
  603POPC   PO412156  11.513   3.891   9.026
  603POPC   GL112157  11.481   3.431   9.038
  603POPC   GL212158  11.144   3.334   9.128
  603POPC   C1A12159  11.523   3.149   8.693
  603POPC   D2A12160  11.340   3.288   8.291
  603POPC   C3A12161  11.516   3.331   7.852
  603POPC   C4A12162  11.360   3.649   7.576
  603POPC   C1B12163  11.018   3.316   8.723
  603POPC   C2B12164  10.842   3.447   8.345
  603POPC   C3B12165  10.984   3.577   7.969
  603POPC   C4B12166  10.994   3.292   7.652
  604POPC   NC312167  43.455  38.051   9.354
  604POPC   PO412168  42.857  37.812   9.583
  604POPC   GL112169  42.945  37.952   9.184
  604POPC   GL212170  43.189  37.703   9.115
  604POPC   C1A12171  42.997  37.950   8.732
  604POPC   D2A12172  43.271  37.856   8.423
  604POPC   C3A12173  43.109  37.797   8.022
  604POPC   C4A12174  43.419  37.771   7.700
  604POPC   C1B12175  42.883  37.474   8.870
  604POPC   C2B12176  42.758  37.518   8.479
  604POPC   C3B12177  42.656  37.309   8.117
  604POPC   C4B12178  42.789  37.485   7.715
  605POPC   NC312179  37.235  27.366   9.430
  605POPC   PO412180  36.526  27.424   9.449
  605POPC   GL112181  36.842  27.541   9.109
  605POPC   GL212182  37.214  27.646   9.024
  605POPC   C1A12183  36.809  27.629   8.686
  605POPC   D2A12184  36.556  27.436   8.390
  605POPC   C3A12185  36.705  27.445   7.961
  605POPC   C4A12186  36.589  27.735   7.589
  605POPC   C1B12187  37.307  27.385   8.717
  605POPC   C2B12188  37.114  27.395   8.334
  605POPC   C3B12189  37.230  27.605   7.989
  605POPC   C4B12190  37.063  27.544   7.613
  606POPC   NC312191  39.674  30.913   9.270
  606POPC   PO412192  40.073  30.499   9.573
  606POPC   GL112193  39.972  30.526   9.118
  606POPC   GL212194  40.052  30.906   8.944
  606POPC   C1A12195  39.818  30.525   8.685
  606POPC   D2A12196  39.988  30.804   8.378
  606POPC   C3A12197  39.844  30.647   7.983
  606POPC   C4A12198  39.934  30.795   7.571
  606POPC   C1B12199  40.310  30.573   8.749
  606POPC   C2B12200  40.300  30.406   8.355
  606POPC   C3B12201  40.346  30.611   7.954
  606POPC   C4B12202  40.412  30.630   7.474
  607POPC   NC312203  43.576  27.163   9.522
  607POPC   PO412204  44.219  26.879   9.473
  607POPC   GL112205  43.937  27.006   9.177
  607POPC   GL212206  43.738  26.737   9.232
  607POPC   C1A12207  43.743  27.032   8.792
  607POPC   D2A12208  43.641  26.863   8.404
  607POPC   C3A12209  43.908  27.041   8.116
  607POPC   C4A12210  43.873  26.924   7.711
  607POPC   C1B12211  43.775  26.522   8.871
  607POPC   C2B12212  43.812  26.351   8.454
  607POPC   C3B12213  43.855  26.522   8.046
  607POPC   C4B12214  43.955  26.418   7.639
  608POPC   NC312215  33.820  29.866   9.486
  608POPC   PO412216  33.342  30.254   9.236
  608POPC   GL112217  33.645  30.038   9.048
  608POPC   GL212218  33.568  29.723   9.012
  608POPC   C1A12219  33.979  29.939   8.769
  608POPC   D2A12220  34.103  30.114   8.378
  608POPC   C3A12221  34.034  29.920   8.021
  608POPC   C4A12222  34.078  30.135   7.632
  608POPC   C1B12223  33.417  29.960   8.615
  608POPC   C2B12224  33.590  30.092   8.240
  608POPC   C3B12225  33.593  30.057   7.810
  608POPC   C4B12226  33.281  30.144   7.582
  609POPC   NC312227  36.808  32.661   9.412
  609POPC   PO412228  37.228  33.182   9.445
  609POPC   GL112229  36.994  33.044   9.107
  609POPC   GL212230  37.149  32.713   9.007
  609POPC   C1A12231  36.848  33.088   8.691
  609POPC   D2A12232  37.061  32.855   8.360
  609POPC   C3A12233  36.878  33.059   8.021
  609POPC   C4A12234  36.620  33.276   7.755
  609POPC   C1B12235  36.801  32.592   8.720
  609POPC   C2B12236  36.560  32.776   8.354
  609POPC   C3B12237  36.611  32.643   7.929
  609POPC   C4B12238  37.010  32.561   7.868
  610POPC   NC312239   1.916  26.920   9.591
  610POPC   PO412240   1.374  26.691   9.499
  610POPC   GL112241   1.629  26.949   9.157
  610POPC   GL212242   2.015  26.891   9.110
  610POPC   C1A12243   1.727  26.972   8.694
  610POPC   D2A12244   1.707  27.153   8.261
  610POPC   C3A12245   1.867  26.909   7.895
  610POPC   C4A12246   1.982  27.083   7.451
  610POPC   C1B12247   2.232  26.685   8.785
  610POPC   C2B12248   2.369  26.783   8.375
  610POPC   C3B12249   2.281  26.625   8.003
  610POPC   C4B12250   2.145  26.601   7.595
  611POPC   NC312251  10.728  31.963   9.582
  611POPC   PO412252  10.202  32.421   9.590
  611POPC   GL112253  10.445  32.390   9.202
  611POPC   GL212254  10.445  32.022   9.160
  611POPC   C1A12255  10.493  32.483   8.736
  611POPC   D2A12256  10.250  32.371   8.332
  611POPC   C3A12257  10.485  32.298   7.952
  611POPC   C4A12258  10.735  32.494   7.654
  611POPC   C1B12259  10.778  32.043   8.822
  611POPC   C2B12260  10.921  32.003   8.375
  611POPC   C3B12261  10.971  32.091   7.918
  611POPC   C4B12262  10.747  31.972   7.556
  612POPC   NC312263   2.928  30.444   9.610
  612POPC   PO412264   2.342  30.544   9.417
  612POPC   GL112265   2.678  30.662   9.149
  612POPC   GL212266   2.965  30.445   9.079
  612POPC   C1A12267   2.684  30.944   8.790
  612POPC   D2A12268   2.804  30.918   8.360
  612POPC   C3A12269   2.630  30.858   7.958
  612POPC   C4A12270   3.006  30.937   7.715
  612POPC   C1B12271   2.777  30.463   8.674
  612POPC   C2B12272   2.711  30.416   8.247
  612POPC   C3B12273   2.829  30.360   7.828
  612POPC   C4B12274   2.606  30.285   7.451
  613POPC   NC312275  19.784  13.230   9.461
  613POPC   PO412276  19.997  13.920   9.404
  613POPC   GL112277  19.730  13.657   9.181
  613POPC   GL212278  19.990  13.439   9.048
  613POPC   C1A12279  19.669  13.700   8.758
  613POPC   D2A12280  19.987  13.563   8.523
  613POPC   C3A12281  19.895  13.579   8.127
  613POPC   C4A12282  19.985  13.604   7.733
  613POPC   C1B12283  19.670  13.197   8.803
  613POPC   C2B12284  19.546  13.305   8.390
  613POPC   C3B12285  19.562  13.195   7.956
  613POPC   C4B12286  19.820  13.157   7.599
  614POPC   NC312287  31.754  19.065   9.677
  614POPC   PO412288  32.375  19.093   9.490
  614POPC   GL112289  32.307  19.322   9.131
  614POPC   GL212290  31.973  19.346   9.176
  614POPC   C1A12291  32.371  19.147   8.736
  614POPC   D2A12292  32.479  19.037   8.343
  614POPC   C3A12293  32.169  18.863   8.114
  614POPC   C4A12294  32.316  18.924   7.739
  614POPC   C1B12295  31.879  19.249   8.731
  614POPC   C2B12296  32.002  19.326   8.287
  614POPC   C3B12297  31.838  19.168   7.852
  614POPC   C4B12298  31.963  19.178   7.379
  615POPC   NC312299  39.802  33.809   9.430
  615POPC   PO412300  40.473  34.175   9.438
  615POPC   GL112301  40.230  33.949   9.161
  615POPC   GL212302  39.942  34.051   8.989
  615POPC   C1A12303  40.273  33.627   8.895
  615POPC   D2A12304  40.315  33.661   8.468
  615POPC   C3A12305  40.075  33.704   8.090
  615POPC   C4A12306  40.121  33.366   7.840
  615POPC   C1B12307  39.804  33.698   8.738
  615POPC   C2B12308  39.668  33.802   8.367
  615POPC   C3B12309  39.573  33.644   8.008
  615POPC   C4B12310  39.765  33.653   7.665
  616POPC   NC312311  24.508  34.516   9.676
  616POPC   PO412312  24.864  33.993   9.539
  616POPC   GL112313  24.699  33.791   9.089
  616POPC   GL212314  24.353  33.914   9.014
  616POPC   C1A12315  24.886  33.733   8.664
  616POPC   D2A12316  24.767  33.787   8.241
  616POPC   C3A12317  24.373  33.592   8.137
  616POPC   C4A12318  24.173  33.510   7.711
  616POPC   C1B12319  24.411  33.927   8.609
  616POPC   C2B12320  24.377  34.149   8.267
  616POPC   C3B12321  24.337  34.014   7.848
  616POPC   C4B12322  24.158  34.091   7.454
  617POPC   NC312323  40.303  31.252   9.416
  617POPC   PO412324  40.853  30.955   9.583
  617POPC   GL112325  40.791  30.707   9.200
  617POPC   GL212326  40.442  30.738   9.223
  617POPC   C1A12327  40.828  30.578   8.714
  617POPC   D2A12328  40.802  30.457   8.240
  617POPC   C3A12329  41.002  30.707   7.885
  617POPC   C4A12330  40.825  30.929   7.491
  617POPC   C1B12331  40.553  31.012   8.843
  617POPC   C2B12332  40.527  30.888   8.399
  617POPC   C3B12333  40.617  31.023   7.993
  617POPC   C4B12334  40.359  31.103   7.676
  618POPC   NC312335  30.416   5.488   9.402
  618POPC   PO412336  30.716   6.142   9.368
  618POPC   GL112337  30.541   5.859   9.080
  618POPC   GL212338  30.802   5.639   9.072
  618POPC   C1A12339  30.483   5.555   8.709
  618POPC   D2A12340  30.456   5.769   8.310
  618POPC   C3A12341  30.390   5.659   7.882
  618POPC   C4A12342  30.326   5.876   7.491
  618POPC   C1B12343  30.828   5.940   8.687
  618POPC   C2B12344  30.782   6.157   8.318
  618POPC   C3B12345  30.863   5.869   8.006
  618POPC   C4B12346  31.101   5.792   7.646
  619POPC   NC312347  40.904  29.575   9.358
  619POPC   PO412348  40.621  28.982   9.364
  619POPC   GL112349  40.757  29.192   9.011
  619POPC   GL212350  41.103  29.206   9.063
  619POPC   C1A12351  40.666  29.201   8.563
  619POPC   D2A12352  40.493  29.498   8.258
  619POPC   C3A12353  40.590  29.419   7.839
  619POPC   C4A12354  40.571  29.201   7.414
  619POPC   C1B12355  41.111  29.410   8.672
  619POPC   C2B12356  41.002  29.478   8.220
  619POPC   C3B12357  41.118  29.381   7.798
  619POPC   C4B12358  41.084  29.136   7.446
  620POPC   NC312359  12.001  24.902   9.573
  620POPC   PO412360  11.999  24.257   9.366
  620POPC   GL112361  12.095  24.571   9.110
  620POPC   GL212362  11.794  24.759   9.141
  620POPC   C1A12363  12.316  24.533   8.712
  620POPC   D2A12364  12.307  24.530   8.263
  620POPC   C3A12365  11.900  24.363   8.120
  620POPC   C4A12366  11.836  24.204   7.710
  620POPC   C1B12367  11.904  24.903   8.744
  620POPC   C2B12368  12.067  24.973   8.355
  620POPC   C3B12369  11.922  24.853   7.960
  620POPC   C4B12370  12.159  24.588   7.723
  621POPC   NC312371  17.254   2.616   9.371
  621POPC   PO412372  17.493   3.249   9.512
  621POPC   GL112373  17.555   3.034   9.119
  621POPC   GL212374  17.665   2.701   9.095
  621POPC   C1A12375  17.494   3.013   8.665
  621POPC   D2A12376  17.637   3.278   8.329
  621POPC   C3A12377  17.492   3.235   7.933
  621POPC   C4A12378  17.511   2.956   7.609
  621POPC   C1B12379  17.558   2.502   8.726
  621POPC   C2B12380  17.543   2.487   8.303
  621POPC   C3B12381  17.477   2.540   7.895
  621POPC   C4B12382  17.637   2.331   7.579
  622POPC   NC312383  27.148  34.852   9.602
  622POPC   PO412384  26.647  34.336   9.527
  622POPC   GL112385  26.728  34.690   9.264
  622POPC   GL212386  27.076  34.738   9.120
  622POPC   C1A12387  26.646  34.611   8.859
  622POPC   D2A12388  26.621  34.294   8.532
  622POPC   C3A12389  26.616  34.529   8.162
  622POPC   C4A12390  26.553  34.530   7.723
  622POPC   C1B12391  27.144  34.552   8.716
  622POPC   C2B12392  27.149  34.696   8.302
  622POPC   C3B12393  27.048  34.603   7.888
  622POPC   C4B12394  26.957  34.754   7.491
  623POPC   NC312395  34.819  29.916   9.487
  623POPC   PO412396  34.212  29.666   9.374
  623POPC   GL112397  34.439  29.978   9.135
  623POPC   GL212398  34.789  29.836   8.998
  623POPC   C1A12399  34.492  30.094   8.701
  623POPC   D2A12400  34.699  29.827   8.420
  623POPC   C3A12401  34.681  29.974   8.025
  623POPC   C4A12402  34.728  29.736   7.670
  623POPC   C1B12403  34.445  29.604   8.795
  623POPC   C2B12404  34.222  29.617   8.428
  623POPC   C3B12405  34.399  29.566   8.036
  623POPC   C4B12406  34.246  29.666   7.632
  624POPC   NC312407  31.407  22.554   9.585
  624POPC   PO412408  31.851  23.077   9.563
  624POPC   GL112409  31.485  22.995   9.279
  624POPC   GL212410  31.420  23.325   9.156
  624POPC   C1A12411  31.340  22.921   8.843
  624POPC   D2A12412  31.356  22.709   8.476
  624POPC   C3A12413  31.734  22.696   8.222
  624POPC   C4A12414  31.595  22.888   7.857
  624POPC   C1B12415  31.336  23.389   8.690
  624POPC   C2B12416  31.277  23.230   8.236
  624POPC   C3B12417  31.384  23.342   7.788
  624POPC   C4B12418  31.385  23.437   7.330
  625POPC   NC312419  39.794   8.554   9.448
  625POPC   PO412420  40.311   8.087   9.422
  625POPC   GL112421  40.012   8.219   9.131
  625POPC   GL212422  40.087   8.531   9.041
  625POPC   C1A12423  39.804   8.118   8.749
  625POPC   D2A12424  39.637   7.955   8.358
  625POPC   C3A12425  39.886   7.979   7.981
  625POPC   C4A12426  39.854   7.790   7.570
  625POPC   C1B12427  39.879   8.614   8.678
  625POPC   C2B12428  39.912   8.392   8.300
  625POPC   C3B12429  40.155   8.459   7.924
  625POPC   C4B12430  40.225   8.589   7.458
  626POPC   NC312431  34.640  34.063   9.366
  626POPC   PO412432  34.300  33.543   9.726
  626POPC   GL112433  34.425  33.617   9.266
  626POPC   GL212434  34.215  33.917   9.151
  626POPC   C1A12435  34.573  33.788   8.803
  626POPC   D2A12436  34.390  33.878   8.421
  626POPC   C3A12437  34.600  33.730   8.085
  626POPC   C4A12438  34.816  33.618   7.713
  626POPC   C1B12439  34.064  34.053   8.783
  626POPC   C2B12440  34.088  34.298   8.402
  626POPC   C3B12441  33.987  34.106   8.026
  626POPC   C4B12442  34.170  34.004   7.648
  627POPC   NC312443  37.338  35.906   9.549
  627POPC   PO412444  37.950  36.353   9.690
  627POPC   GL112445  37.685  36.279   9.322
  627POPC   GL212446  37.766  35.990   9.121
  627POPC   C1A12447  37.589  36.390   8.884
  627POPC   D2A12448  37.525  36.085   8.584
  627POPC   C3A12449  37.676  36.102   8.174
  627POPC   C4A12450  37.465  36.019   7.804
  627POPC   C1B12451  38.012  35.906   8.763
  627POPC   C2B12452  38.240  35.768   8.411
  627POPC   C3B12453  38.032  35.770   8.014
  627POPC   C4B12454  37.954  36.037   7.680
  628POPC   NC312455  20.442  37.945   9.526
  628POPC   PO412456  20.757  37.404   9.644
  628POPC   GL112457  20.756  37.509   9.188
  628POPC   GL212458  20.494  37.787   9.058
  628POPC   C1A12459  20.878  37.657   8.757
  628POPC   D2A12460  20.568  37.927   8.543
  628POPC   C3A12461  20.683  38.060   8.149
  628POPC   C4A12462  20.600  37.803   7.786
  628POPC   C1B12463  20.354  37.477   8.773
  628POPC   C2B12464  20.519  37.379   8.372
  628POPC   C3B12465  20.360  37.405   7.970
  628POPC   C4B12466  20.530  37.348   7.532
  629POPC   NC312467  27.986  20.525   9.472
  629POPC   PO412468  28.584  20.357   9.597
  629POPC   GL112469  28.507  20.641   9.243
  629POPC   GL212470  28.190  20.630   9.038
  629POPC   C1A12471  28.653  20.632   8.803
  629POPC   D2A12472  28.496  20.711   8.390
  629POPC   C3A12473  28.483  20.562   7.946
  629POPC   C4A12474  28.666  20.614   7.492
  629POPC   C1B12475  28.138  20.422   8.659
  629POPC   C2B12476  28.082  20.396   8.227
  629POPC   C3B12477  27.971  20.653   7.882
  629POPC   C4B12478  27.750  20.620   7.509
  630POPC   NC312479  10.687  23.337   9.477
  630POPC   PO412480  10.256  22.845   9.555
  630POPC   GL112481  10.462  22.960   9.204
  630POPC   GL212482  10.771  22.750   9.281
  630POPC   C1A12483  10.343  23.074   8.782
  630POPC   D2A12484  10.260  22.802   8.405
  630POPC   C3A12485  10.249  23.015   7.999
  630POPC   C4A12486  10.422  22.727   7.717
  630POPC   C1B12487  10.875  22.980   8.882
  630POPC   C2B12488  10.733  23.091   8.461
  630POPC   C3B12489  10.761  22.842   8.087
  630POPC   C4B12490  10.794  23.072   7.698
  631POPC   NC312491  24.203  10.849   9.356
  631POPC   PO412492  23.713  10.541   9.444
  631POPC   GL112493  23.775  10.748   9.049
  631POPC   GL212494  23.998  11.042   8.948
  631POPC   C1A12495  23.562  10.585   8.664
  631POPC   D2A12496  23.471  10.226   8.370
  631POPC   C3A12497  23.461  10.381   7.959
  631POPC   C4A12498  23.538  10.823   7.862
  631POPC   C1B12499  23.967  10.942   8.522
  631POPC   C2B12500  23.853  10.616   8.227
  631POPC   C3B12501  23.937  10.506   7.782
  631POPC   C4B12502  23.987  10.689   7.353
  632POPC   NC312503  37.078  10.005   9.531
  632POPC   PO412504  36.448   9.889   9.585
  632POPC   GL112505  36.699   9.921   9.195
  632POPC   GL212506  37.007  10.109   9.050
  632POPC   C1A12507  36.597   9.864   8.789
  632POPC   D2A12508  36.715   9.650   8.440
  632POPC   C3A12509  36.653   9.805   8.038
  632POPC   C4A12510  36.763   9.448   7.802
  632POPC   C1B12511  37.125   9.866   8.690
  632POPC   C2B12512  37.183   9.718   8.238
  632POPC   C3B12513  37.137   9.825   7.808
  632POPC   C4B12514  37.176  10.075   7.429
  633POPC   NC312515  22.703  13.099   9.744
  633POPC   PO412516  23.207  12.716   9.549
  633POPC   GL112517  23.279  12.842   9.085
  633POPC   GL212518  22.968  12.635   8.896
  633POPC   C1A12519  23.382  12.772   8.639
  633POPC   D2A12520  23.131  13.033   8.390
  633POPC   C3A12521  22.978  13.083   7.998
  633POPC   C4A12522  23.102  12.843   7.718
  633POPC   C1B12523  22.734  12.956   8.693
  633POPC   C2B12524  22.653  12.854   8.316
  633POPC   C3B12525  22.721  12.623   7.972
  633POPC   C4B12526  22.542  12.902   7.737
  634POPC   NC312527  16.363  38.143   9.333
  634POPC   PO412528  16.720  38.665   9.481
  634POPC   GL112529  16.697  38.477   9.094
  634POPC   GL212530  17.032  38.483   8.982
  634POPC   C1A12531  16.649  38.307   8.659
  634POPC   D2A12532  16.980  38.408   8.333
  634POPC   C3A12533  16.862  38.341   7.904
  634POPC   C4A12534  16.963  38.071   7.522
  634POPC   C1B12535  16.846  38.775   8.690
  634POPC   C2B12536  16.920  38.974   8.289
  634POPC   C3B12537  16.752  38.834   7.890
  634POPC   C4B12538  16.786  38.577   7.480
  635POPC   NC312539   7.440  16.667   9.672
  635POPC   PO412540   7.009  17.116   9.335
  635POPC   GL112541   7.241  16.849   8.953
  635POPC   GL212542   7.445  16.577   9.109
  635POPC   C1A12543   7.452  16.774   8.564
  635POPC   D2A12544   7.281  16.945   8.184
  635POPC   C3A12545   7.287  16.629   7.907
  635POPC   C4A12546   7.735  16.619   7.978
  635POPC   C1B12547   7.533  16.293   8.742
  635POPC   C2B12548   7.407  16.200   8.299
  635POPC   C3B12549   7.559  16.173   7.863
  635POPC   C4B12550   7.376  16.353   7.476
  636POPC   NC312551  40.344  44.015   9.385
  636POPC   PO412552  39.699  43.897   9.566
  636POPC   GL112553  39.888  43.618   9.221
  636POPC   GL212554  40.247  43.546   9.207
  636POPC   C1A12555  39.855  43.753   8.777
  636POPC   D2A12556  39.810  44.017   8.405
  636POPC   C3A12557  40.073  43.936   8.057
  636POPC   C4A12558  40.137  43.854   7.631
  636POPC   C1B12559  40.427  43.547   8.804
  636POPC   C2B12560  40.230  43.595   8.421
  636POPC   C3B12561  40.270  43.447   8.011
  636POPC   C4B12562  40.511  43.533   7.695
  637POPC   NC312563  20.479  11.779   9.564
  637POPC   PO412564  21.090  11.885   9.492
  637POPC   GL112565  20.847  12.169   9.158
  637POPC   GL212566  20.469  12.040   9.129
  637POPC   C1A12567  20.655  12.187   8.706
  637POPC   D2A12568  20.484  12.101   8.317
  637POPC   C3A12569  20.676  12.251   7.953
  637POPC   C4A12570  20.601  12.111   7.536
  637POPC   C1B12571  20.377  11.732   8.747
  637POPC   C2B12572  20.459  11.589   8.283
  637POPC   C3B12573  20.303  11.706   7.846
  637POPC   C4B12574  20.208  11.766   7.374
  638POPC   NC312575  23.793  39.058   9.706
  638POPC   PO412576  24.485  39.139   9.530
  638POPC   GL112577  24.509  39.284   9.133
  638POPC   GL212578  24.138  39.315   9.082
  638POPC   C1A12579  24.812  39.384   8.812
  638POPC   D2A12580  24.845  39.206   8.409
  638POPC   C3A12581  24.807  39.410   8.006
  638POPC   C4A12582  24.493  39.296   7.700
  638POPC   C1B12583  24.323  39.287   8.658
  638POPC   C2B12584  24.326  39.337   8.221
  638POPC   C3B12585  24.077  39.176   7.939
  638POPC   C4B12586  24.201  38.781   7.742
  639POPC   NC312587  10.743  34.231   9.444
  639POPC   PO412588  10.315  34.715   9.526
  639POPC   GL112589  10.419  34.595   9.153
  639POPC   GL212590  10.639  34.878   9.055
  639POPC   C1A12591  10.315  34.665   8.741
  639POPC   D2A12592  10.397  34.595   8.379
  639POPC   C3A12593  10.368  34.862   8.073
  639POPC   C4A12594  10.459  34.682   7.723
  639POPC   C1B12595  10.822  34.539   8.807
  639POPC   C2B12596  10.941  34.392   8.412
  639POPC   C3B12597  10.819  34.593   8.071
  639POPC   C4B12598  10.991  34.776   7.689
  640POPC   NC312599  11.801  13.293   9.256
  640POPC   PO412600  12.177  13.648   9.719
  640POPC   GL112601  12.019  13.804   9.257
  640POPC   GL212602  11.695  14.041   9.225
  640POPC   C1A12603  12.135  13.647   8.810
  640POPC   D2A12604  12.265  13.560   8.382
  640POPC   C3A12605  12.128  13.775   8.009
  640POPC   C4A12606  11.953  13.573   7.648
  640POPC   C1B12607  11.708  13.929   8.821
  640POPC   C2B12608  11.868  13.910   8.435
  640POPC   C3B12609  11.784  14.144   8.089
  640POPC   C4B12610  11.892  14.106   7.677
  641POPC   NC312611  25.493   5.230   9.280
  641POPC   PO412612  24.968   5.013   9.650
  641POPC   GL112613  25.090   4.941   9.199
  641POPC   GL212614  25.016   5.269   9.089
  641POPC   C1A12615  25.225   4.975   8.726
  641POPC   D2A12616  25.267   4.710   8.361
  641POPC   C3A12617  25.255   4.985   8.060
  641POPC   C4A12618  25.313   5.022   7.685
  641POPC   C1B12619  24.965   5.445   8.724
  641POPC   C2B12620  24.873   5.222   8.359
  641POPC   C3B12621  24.940   5.395   7.964
  641POPC   C4B12622  25.011   5.420   7.519
  642POPC   NC312623  37.812  42.038   9.663
  642POPC   PO412624  37.533  42.576   9.601
  642POPC   GL112625  37.543  42.354   9.173
  642POPC   GL212626  37.689  42.057   9.155
  642POPC   C1A12627  37.669  42.380   8.721
  642POPC   D2A12628  37.497  42.408   8.296
  642POPC   C3A12629  37.837  42.540   8.049
  642POPC   C4A12630  37.880  42.517   7.626
  642POPC   C1B12631  37.891  41.910   8.761
  642POPC   C2B12632  37.901  42.091   8.332
  642POPC   C3B12633  37.648  42.022   7.939
  642POPC   C4B12634  37.675  42.072   7.468
  643POPC   NC312635  38.790  32.105   9.554
  643POPC   PO412636  38.196  32.474   9.377
  643POPC   GL112637  38.450  32.193   9.127
  643POPC   GL212638  38.750  32.374   9.129
  643POPC   C1A12639  38.604  32.156   8.688
  643POPC   D2A12640  38.713  32.124   8.262
  643POPC   C3A12641  38.678  32.138   7.822
  643POPC   C4A12642  38.464  31.979   7.453
  643POPC   C1B12643  38.789  32.695   8.832
  643POPC   C2B12644  38.917  32.552   8.469
  643POPC   C3B12645  38.788  32.620   8.100
  643POPC   C4B12646  38.600  32.630   7.742
  644POPC   NC312647  27.382  43.185   9.842
  644POPC   PO412648  27.768  43.500   9.380
  644POPC   GL112649  27.532  43.388   9.032
  644POPC   GL212650  27.215  43.311   9.152
  644POPC   C1A12651  27.512  43.211   8.614
  644POPC   D2A12652  27.628  42.931   8.263
  644POPC   C3A12653  27.869  43.076   7.918
  644POPC   C4A12654  27.927  43.493   7.932
  644POPC   C1B12655  27.124  43.535   8.766
  644POPC   C2B12656  27.289  43.609   8.384
  644POPC   C3B12657  27.318  43.308   8.071
  644POPC   C4B12658  27.497  43.338   7.702
  645POPC   NC312659  24.190  28.245   9.365
  645POPC   PO412660  24.850  28.096   9.266
  645POPC   GL112661  24.610  28.420   9.072
  645POPC   GL212662  24.805  28.742   9.034
  645POPC   C1A12663  24.370  28.308   8.725
  645POPC   D2A12664  24.531  28.179   8.344
  645POPC   C3A12665  24.397  28.231   7.938
  645POPC   C4A12666  24.749  28.113   7.654
  645POPC   C1B12667  24.457  28.810   8.720
  645POPC   C2B12668  24.283  28.644   8.335
  645POPC   C3B12669  24.312  28.733   7.928
  645POPC   C4B12670  24.542  28.579   7.586
  646POPC   NC312671  40.633   7.079   9.808
  646POPC   PO412672  41.009   7.372   9.431
  646POPC   GL112673  40.733   7.395   9.055
  646POPC   GL212674  40.547   7.090   9.116
  646POPC   C1A12675  40.536   7.387   8.645
  646POPC   D2A12676  40.508   7.255   8.228
  646POPC   C3A12677  40.651   7.414   7.850
  646POPC   C4A12678  40.521   7.201   7.473
  646POPC   C1B12679  40.836   6.981   8.761
  646POPC   C2B12680  40.810   6.861   8.335
  646POPC   C3B12681  40.720   6.909   7.885
  646POPC   C4B12682  41.035   7.136   7.598
  647POPC   NC312683  25.649  39.663   9.524
  647POPC   PO412684  25.377  40.242   9.378
  647POPC   GL112685  25.500  39.958   9.085
  647POPC   GL212686  25.268  39.722   9.175
  647POPC   C1A12687  25.556  39.897   8.637
  647POPC   D2A12688  25.433  40.248   8.362
  647POPC   C3A12689  25.417  40.249   7.935
  647POPC   C4A12690  25.220  40.133   7.524
  647POPC   C1B12691  25.064  39.849   8.799
  647POPC   C2B12692  25.101  39.834   8.358
  647POPC   C3B12693  25.116  39.841   7.925
  647POPC   C4B12694  25.011  39.620   7.567
  648POPC   NC312695  22.682  23.871   9.438
  648POPC   PO412696  22.974  23.331   9.465
  648POPC   GL112697  22.956  23.563   9.078
  648POPC   GL212698  23.144  23.874   9.146
  648POPC   C1A12699  23.198  23.570   8.678
  648POPC   D2A12700  23.230  23.462   8.231
  648POPC   C3A12701  22.879  23.590   7.967
  648POPC   C4A12702  22.766  23.642   7.541
  648POPC   C1B12703  22.888  24.011   8.792
  648POPC   C2B12704  22.965  23.905   8.370
  648POPC   C3B12705  23.168  24.042   8.006
  648POPC   C4B12706  22.791  24.089   7.835
  649POPC   NC312707   2.724  20.311   9.510
  649POPC   PO412708   2.421  20.856   9.510
  649POPC   GL112709   2.535  20.669   9.120
  649POPC   GL212710   2.869  20.620   9.099
  649POPC   C1A12711   2.568  20.303   8.819
  649POPC   D2A12712   2.839  20.263   8.451
  649POPC   C3A12713   2.756  20.354   8.020
  649POPC   C4A12714   2.917  20.315   7.607
  649POPC   C1B12715   2.810  20.743   8.663
  649POPC   C2B12716   2.513  20.731   8.315
  649POPC   C3B12717   2.623  20.833   7.882
  649POPC   C4B12718   2.976  21.141   7.759
  650POPC   NC312719  41.073   0.069   9.727
  650POPC   PO412720  40.649   0.442   9.327
  650POPC   GL112721  40.772   0.538   8.969
  650POPC   GL212722  41.009   0.770   8.991
  650POPC   C1A12723  40.671   0.583   8.548
  650POPC   D2A12724  40.468   0.285   8.311
  650POPC   C3A12725  40.532   0.483   7.922
  650POPC   C4A12726  40.546   0.241   7.631
  650POPC   C1B12727  41.164   0.532   8.641
  650POPC   C2B12728  41.176   0.693   8.237
  650POPC   C3B12729  40.962   0.794   7.862
  650POPC   C4B12730  40.837   0.590   7.435
  651POPC   NC312731  44.035  31.493   9.274
  651POPC   PO412732  44.581  31.352   9.568
  651POPC   GL112733  44.703  31.426   9.147
  651POPC   GL212734  44.887  31.149   9.020
  651POPC   C1A12735  44.500  31.389   8.723
  651POPC   D2A12736  44.556  31.203   8.302
  651POPC   C3A12737  44.475  31.438   7.957
  651POPC   C4A12738  44.607  31.610   7.579
  651POPC   C1B12739  44.971  31.209   8.583
  651POPC   C2B12740   0.014  30.965   8.205
  651POPC   C3B12741  44.902  31.181   7.802
  651POPC   C4B12742  44.878  31.288   7.329
  652POPC   NC312743  24.594  24.707   9.767
  652POPC   PO412744  24.299  24.208   9.433
  652POPC   GL112745  24.542  24.395   9.121
  652POPC   GL212746  24.565  24.779   9.196
  652POPC   C1A12747  24.569  24.195   8.705
  652POPC   D2A12748  24.645  24.435   8.330
  652POPC   C3A12749  24.427  24.379   7.953
  652POPC   C4A12750  24.480  24.442   7.518
  652POPC   C1B12751  24.430  24.717   8.763
  652POPC   C2B12752  24.210  24.773   8.406
  652POPC   C3B12753  24.290  24.873   7.977
  652POPC   C4B12754  24.710  24.808   7.799
  653POPC   NC312755  34.642   2.869   9.708
  653POPC   PO412756  34.767   2.246   9.645
  653POPC   GL112757  34.764   2.587   9.274
  653POPC   GL212758  34.685   2.961   9.214
  653POPC   C1A12759  34.618   2.595   8.816
  653POPC   D2A12760  34.257   2.604   8.484
  653POPC   C3A12761  34.351   2.488   8.035
  653POPC   C4A12762  34.758   2.347   7.873
  653POPC   C1B12763  34.494   3.108   8.837
  653POPC   C2B12764  34.616   2.958   8.442
  653POPC   C3B12765  34.509   3.095   8.048
  653POPC   C4B12766  34.401   2.882   7.677
  654POPC   NC312767  35.940  11.161   9.786
  654POPC   PO412768  36.501  11.305   9.478
  654POPC   GL112769  36.261  11.223   9.119
  654POPC   GL212770  35.915  11.094   9.243
  654POPC   C1A12771  36.210  11.492   8.742
  654POPC   D2A12772  36.097  11.625   8.343
  654POPC   C3A12773  36.319  11.293   8.132
  654POPC   C4A12774  36.265  11.176   7.716
  654POPC   C1B12775  35.729  11.109   8.839
  654POPC   C2B12776  35.945  11.138   8.460
  654POPC   C3B12777  35.828  11.220   8.056
  654POPC   C4B12778  35.767  10.979   7.718
  655POPC   NC312779  33.403  40.279   9.396
  655POPC   PO412780  33.405  39.578   9.435
  655POPC   GL112781  33.086  39.770   9.117
  655POPC   GL212782  33.068  40.136   9.050
  655POPC   C1A12783  33.076  39.863   8.638
  655POPC   D2A12784  33.116  40.105   8.242
  655POPC   C3A12785  33.096  39.825   7.859
  655POPC   C4A12786  33.379  39.551   7.616
  655POPC   C1B12787  32.924  40.383   8.689
  655POPC   C2B12788  32.744  40.447   8.253
  655POPC   C3B12789  32.651  40.178   7.880
  655POPC   C4B12790  32.412  40.236   7.481
  656POPC   NC312791   0.139   3.184   9.557
  656POPC   PO412792   0.077   3.758   9.463
  656POPC   GL112793   0.294   3.622   9.132
  656POPC   GL212794   0.389   3.305   9.138
  656POPC   C1A12795   0.159   3.537   8.730
  656POPC   D2A12796   0.216   3.405   8.320
  656POPC   C3A12797   0.404   3.643   8.008
  656POPC   C4A12798   0.385   3.460   7.616
  656POPC   C1B12799   0.652   3.423   8.794
  656POPC   C2B12800   0.797   3.243   8.417
  656POPC   C3B12801   0.672   3.225   8.004
  656POPC   C4B12802   0.846   3.244   7.592
  657POPC   NC312803  40.380  43.256   9.616
  657POPC   PO412804  39.763  43.052   9.580
  657POPC   GL112805  40.036  43.083   9.229
  657POPC   GL212806  40.296  42.865   9.276
  657POPC   C1A12807  39.969  43.264   8.794
  657POPC   D2A12808  39.768  43.417   8.375
  657POPC   C3A12809  39.893  43.127   8.099
  657POPC   C4A12810  39.888  43.015   7.689
  657POPC   C1B12811  40.381  42.965   8.848
  657POPC   C2B12812  40.318  43.089   8.415
  657POPC   C3B12813  40.323  42.886   8.006
  657POPC   C4B12814  40.404  43.034   7.627
  658POPC   NC312815  30.185   3.935   9.457
  658POPC   PO412816  29.691   4.475   9.537
  658POPC   GL112817  29.973   4.395   9.222
  658POPC   GL212818  29.843   4.083   9.080
  658POPC   C1A12819  30.039   4.500   8.795
  658POPC   D2A12820  29.997   4.734   8.410
  658POPC   C3A12821  30.036   4.478   8.055
  658POPC   C4A12822  30.150   4.105   7.864
  658POPC   C1B12823  29.635   4.143   8.683
  658POPC   C2B12824  29.772   4.095   8.250
  658POPC   C3B12825  29.620   4.226   7.827
  658POPC   C4B12826  29.546   4.481   7.434
  659POPC   NC312827  36.787  44.289   9.388
  659POPC   PO412828  36.878  44.858   9.731
  659POPC   GL112829  37.020  44.783   9.281
  659POPC   GL212830  36.830   0.009   9.069
  659POPC   C1A12831  37.057  44.607   8.831
  659POPC   D2A12832  36.909  44.794   8.431
  659POPC   C3A12833  36.844  44.541   8.046
  659POPC   C4A12834  36.620  44.539   7.655
  659POPC   C1B12835  37.247   0.083   8.860
  659POPC   C2B12836  37.396  44.960   8.456
  659POPC   C3B12837  37.183  44.966   8.041
  659POPC   C4B12838  37.020  44.851   7.658
  660POPC   NC312839   1.716  23.461   9.345
  660POPC   PO412840   2.211  24.059   9.449
  660POPC   GL112841   2.002  23.839   9.149
  660POPC   GL212842   1.659  23.973   9.230
  660POPC   C1A12843   2.045  23.580   8.756
  660POPC   D2A12844   2.122  23.277   8.447
  660POPC   C3A12845   2.082  23.368   8.027
  660POPC   C4A12846   1.943  23.691   7.761
  660POPC   C1B12847   1.665  23.904   8.772
  660POPC   C2B12848   1.874  23.981   8.359
  660POPC   C3B12849   1.744  24.125   7.969
  660POPC   C4B12850   1.652  24.049   7.545
  661POPC   NC312851  43.783  31.705   9.671
  661POPC   PO412852  43.642  31.166   9.279
  661POPC   GL112853  43.652  31.359   8.976
  661POPC   GL212854  43.527  31.677   9.112
  661POPC   C1A12855  43.948  31.399   8.650
  661POPC   D2A12856  44.155  31.542   8.332
  661POPC   C3A12857  43.978  31.354   7.982
  661POPC   C4A12858  44.124  31.487   7.563
  661POPC   C1B12859  43.504  31.684   8.642
  661POPC   C2B12860  43.748  31.853   8.313
  661POPC   C3B12861  43.932  31.852   7.912
  661POPC   C4B12862  43.653  31.607   7.664
  662POPC   NC312863   2.060   6.145   9.750
  662POPC   PO412864   2.484   6.162   9.238
  662POPC   GL112865   2.147   5.982   8.991
  662POPC   GL212866   2.043   5.599   8.888
  662POPC   C1A12867   1.866   6.082   8.699
  662POPC   D2A12868   1.986   5.807   8.392
  662POPC   C3A12869   2.140   5.915   7.990
  662POPC   C4A12870   2.554   5.981   7.848
  662POPC   C1B12871   1.839   5.296   8.580
  662POPC   C2B12872   1.808   5.401   8.168
  662POPC   C3B12873   2.086   5.447   7.803
  662POPC   C4B12874   1.888   5.609   7.431
  663POPC   NC312875   1.336  11.606   9.343
  663POPC   PO412876   0.899  12.158   9.544
  663POPC   GL112877   1.102  12.173   9.075
  663POPC   GL212878   1.274  11.866   8.908
  663POPC   C1A12879   1.018  12.223   8.616
  663POPC   D2A12880   1.011  11.873   8.292
  663POPC   C3A12881   1.011  12.010   7.859
  663POPC   C4A12882   1.270  12.314   7.707
  663POPC   C1B12883   1.722  11.771   8.759
  663POPC   C2B12884   1.708  11.834   8.324
  663POPC   C3B12885   1.460  11.804   7.995
  663POPC   C4B12886   1.532  11.836   7.594
  664POPC   NC312887  30.165  26.220   9.376
  664POPC   PO412888  29.659  25.770   9.401
  664POPC   GL112889  29.793  25.950   9.057
  664POPC   GL212890  30.081  25.761   9.083
  664POPC   C1A12891  29.761  26.142   8.651
  664POPC   D2A12892  29.998  26.068   8.284
  664POPC   C3A12893  29.756  26.104   7.934
  664POPC   C4A12894  29.898  26.345   7.632
  664POPC   C1B12895  30.255  25.984   8.741
  664POPC   C2B12896  30.416  25.775   8.392
  664POPC   C3B12897  30.303  25.711   7.991
  664POPC   C4B12898  30.274  26.078   7.818
  665POPC   NC312899  21.153  30.257   9.490
  665POPC   PO412900  21.711  29.902   9.554
  665POPC   GL112901  21.491  29.996   9.186
  665POPC   GL212902  21.756  30.142   9.086
  665POPC   C1A12903  21.492  29.938   8.718
  665POPC   D2A12904  21.330  30.051   8.304
  665POPC   C3A12905  21.320  29.665   8.053
  665POPC   C4A12906  21.462  29.642   7.655
  665POPC   C1B12907  21.874  30.320   8.725
  665POPC   C2B12908  21.853  30.087   8.339
  665POPC   C3B12909  21.702  30.044   7.912
  665POPC   C4B12910  21.271  30.100   7.749
  666POPC   NC312911  38.908  30.642   9.659
  666POPC   PO412912  38.270  30.782   9.560
  666POPC   GL112913  38.234  30.885   9.156
  666POPC   GL212914  38.582  30.756   9.106
  666POPC   C1A12915  38.356  31.085   8.796
  666POPC   D2A12916  38.515  30.793   8.495
  666POPC   C3A12917  38.266  30.799   8.114
  666POPC   C4A12918  38.204  30.652   7.675
  666POPC   C1B12919  38.691  30.399   8.832
  666POPC   C2B12920  38.864  30.358   8.424
  666POPC   C3B12921  38.691  30.476   8.016
  666POPC   C4B12922  38.547  30.193   7.697
  667POPC   NC312923  30.359  35.187   9.387
  667POPC   PO412924  31.061  35.219   9.315
  667POPC   GL112925  30.697  35.333   9.060
  667POPC   GL212926  30.529  35.031   8.924
  667POPC   C1A12927  30.650  35.475   8.668
  667POPC   D2A12928  31.040  35.510   8.508
  667POPC   C3A12929  31.018  35.496   8.080
  667POPC   C4A12930  30.663  35.575   7.809
  667POPC   C1B12931  30.926  35.026   8.696
  667POPC   C2B12932  31.149  35.041   8.318
  667POPC   C3B12933  30.962  35.003   7.900
  667POPC   C4B12934  30.531  35.090   7.868
  668POPC   NC312935   0.182  22.656   9.586
  668POPC   PO412936  44.738  23.194   9.785
  668POPC   GL112937  44.590  23.020   9.334
  668POPC   GL212938  44.372  23.142   9.064
  668POPC   C1A12939  44.798  22.909   8.898
  668POPC   D2A12940  44.768  23.053   8.422
  668POPC   C3A12941  44.893  22.751   8.084
  668POPC   C4A12942  44.828  22.624   7.655
  668POPC   C1B12943  44.352  22.837   8.698
  668POPC   C2B12944  44.450  22.643   8.320
  668POPC   C3B12945  44.423  22.822   7.909
  668POPC   C4B12946  44.507  22.951   7.465
  669POPC   NC312947  23.190  22.259   9.321
  669POPC   PO412948  23.862  22.183   9.296
  669POPC   GL112949  23.696  21.935   8.982
  669POPC   GL212950  23.512  22.242   8.908
  669POPC   C1A12951  23.882  21.951   8.574
  669POPC   D2A12952  24.129  22.284   8.392
  669POPC   C3A12953  23.896  22.366   8.046
  669POPC   C4A12954  23.769  22.545   7.682
  669POPC   C1B12955  23.585  22.380   8.504
  669POPC   C2B12956  23.246  22.429   8.253
  669POPC   C3B12957  23.304  22.380   7.848
  669POPC   C4B12958  23.621  22.057   7.728
  670POPC   NC312959  41.994  25.034   9.465
  670POPC   PO412960  41.360  25.417   9.403
  670POPC   GL112961  41.515  25.272   9.024
  670POPC   GL212962  41.860  25.272   9.040
  670POPC   C1A12963  41.651  25.415   8.598
  670POPC   D2A12964  41.557  25.414   8.160
  670POPC   C3A12965  41.335  25.055   7.969
  670POPC   C4A12966  41.429  25.146   7.544
  670POPC   C1B12967  41.893  24.971   8.773
  670POPC   C2B12968  41.832  24.937   8.320
  670POPC   C3B12969  41.829  25.080   7.880
  670POPC   C4B12970  41.935  25.141   7.425
  671POPC   NC312971  26.316  27.347   9.758
  671POPC   PO412972  26.983  27.506   9.579
  671POPC   GL112973  26.738  27.623   9.240
  671POPC   GL212974  26.457  27.374   9.251
  671POPC   C1A12975  26.802  27.517   8.831
  671POPC   D2A12976  26.955  27.679   8.443
  671POPC   C3A12977  26.893  27.520   8.021
  671POPC   C4A12978  26.717  27.806   7.709
  671POPC   C1B12979  26.439  27.145   8.842
  671POPC   C2B12980  26.400  27.157   8.398
  671POPC   C3B12981  26.550  27.137   7.990
  671POPC   C4B12982  26.625  27.333   7.597
  672POPC   NC312983  19.985  19.930   9.393
  672POPC   PO412984  19.363  20.036   9.410
  672POPC   GL112985  19.547  19.856   9.064
  672POPC   GL212986  19.606  20.219   8.998
  672POPC   C1A12987  19.746  19.565   8.752
  672POPC   D2A12988  20.029  19.498   8.408
  672POPC   C3A12989  19.844  19.658   8.044
  672POPC   C4A12990  19.777  19.563   7.630
  672POPC   C1B12991  19.936  20.167   8.746
  672POPC   C2B12992  20.096  20.002   8.413
  672POPC   C3B12993  19.998  20.153   8.041
  672POPC   C4B12994  20.055  19.979   7.659
  673POPC   NC312995  26.701  38.161   9.533
  673POPC   PO412996  27.203  38.646   9.495
  673POPC   GL112997  27.012  38.374   9.188
  673POPC   GL212998  26.647  38.434   9.106
  673POPC   C1A12999  26.951  38.190   8.783
  673POPC   D2A13000  27.124  38.116   8.395
  673POPC   C3A13001  26.925  38.043   8.022
  673POPC   C4A13002  26.820  38.370   7.747
  673POPC   C1B13003  26.386  38.528   8.737
  673POPC   C2B13004  26.406  38.415   8.277
  673POPC   C3B13005  26.330  38.444   7.824
  673POPC   C4B13006  26.466  38.241   7.402
  674POPC   NC313007  26.641  29.158   9.747
  674POPC   PO413008  26.034  29.216   9.767
  674POPC   GL113009  26.244  29.237   9.325
  674POPC   GL213010  25.975  29.382   9.150
  674POPC   C1A13011  26.314  29.193   8.845
  674POPC   D2A13012  26.247  29.316   8.405
  674POPC   C3A13013  26.083  29.095   8.019
  674POPC   C4A13014  26.208  28.982   7.571
  674POPC   C1B13015  25.789  29.246   8.771
  674POPC   C2B13016  25.714  29.448   8.377
  674POPC   C3B13017  25.594  29.299   7.983
  674POPC   C4B13018  25.754  29.201   7.602
  675POPC   NC313019  32.990  35.144   9.536
  675POPC   PO413020  33.281  35.738   9.617
  675POPC   GL113021  33.182  35.522   9.225
  675POPC   GL213022  33.372  35.188   9.192
  675POPC   C1A13023  33.199  35.451   8.766
  675POPC   D2A13024  32.980  35.424   8.375
  675POPC   C3A13025  33.234  35.472   7.994
  675POPC   C4A13026  32.989  35.748   7.762
  675POPC   C1B13027  33.396  34.967   8.798
  675POPC   C2B13028  33.330  35.044   8.378
  675POPC   C3B13029  33.029  35.003   8.063
  675POPC   C4B13030  33.162  35.114   7.599
  676POPC   NC313031  19.854  32.462   9.459
  676POPC   PO413032  19.974  31.824   9.489
  676POPC   GL113033  19.706  31.835   9.116
  676POPC   GL213034  19.649  32.188   9.085
  676POPC   C1A13035  19.818  31.948   8.675
  676POPC   D2A13036  19.685  32.139   8.303
  676POPC   C3A13037  19.849  31.949   7.946
  676POPC   C4A13038  20.189  31.956   7.636
  676POPC   C1B13039  19.967  32.415   8.798
  676POPC   C2B13040  20.081  32.452   8.355
  676POPC   C3B13041  19.853  32.464   7.946
  676POPC   C4B13042  19.503  32.234   7.684
  677POPC   NC313043   8.354  38.651   9.413
  677POPC   PO413044   8.210  38.048   9.506
  677POPC   GL113045   8.159  38.188   9.085
  677POPC   GL213046   8.485  38.312   9.040
  677POPC   C1A13047   8.228  38.195   8.616
  677POPC   D2A13048   7.953  38.349   8.256
  677POPC   C3A13049   8.053  38.185   7.869
  677POPC   C4A13050   8.301  38.439   7.707
  677POPC   C1B13051   8.669  38.659   8.846
  677POPC   C2B13052   8.628  38.681   8.454
  677POPC   C3B13053   8.595  38.649   8.061
  677POPC   C4B13054   8.626  38.819   7.693
  678POPC   NC313055  21.799  40.233   9.667
  678POPC   PO413056  22.348  39.781   9.504
  678POPC   GL113057  22.250  39.874   9.135
  678POPC   GL213058  22.080  40.196   9.235
  678POPC   C1A13059  22.264  39.778   8.713
  678POPC   D2A13060  22.314  39.994   8.321
  678POPC   C3A13061  22.264  39.776   7.948
  678POPC   C4A13062  22.364  39.844   7.533
  678POPC   C1B13063  22.167  40.280   8.816
  678POPC   C2B13064  21.878  40.215   8.476
  678POPC   C3B13065  21.857  40.082   8.067
  678POPC   C4B13066  22.094  40.245   7.741
  679POPC   NC313067  26.399   5.745   9.542
  679POPC   PO413068  25.924   6.242   9.558
  679POPC   GL113069  26.002   6.153   9.115
  679POPC   GL213070  26.179   5.870   9.107
  679POPC   C1A13071  25.890   5.898   8.699
  679POPC   D2A13072  25.865   5.533   8.368
  679POPC   C3A13073  25.896   5.695   7.930
  679POPC   C4A13074  26.078   6.037   7.689
  679POPC   C1B13075  26.383   5.996   8.711
  679POPC   C2B13076  26.603   5.785   8.373
  679POPC   C3B13077  26.460   5.688   7.949
  679POPC   C4B13078  26.494   5.687   7.517
  680POPC   NC313079   9.073   4.436   9.492
  680POPC   PO413080   9.405   3.920   9.280
  680POPC   GL113081   9.033   4.119   9.073
  680POPC   GL213082   8.766   4.393   9.111
  680POPC   C1A13083   9.095   4.403   8.725
  680POPC   D2A13084   9.373   4.234   8.411
  680POPC   C3A13085   9.165   4.056   8.050
  680POPC   C4A13086   9.266   4.298   7.711
  680POPC   C1B13087   8.590   4.588   8.732
  680POPC   C2B13088   8.647   4.739   8.302
  680POPC   C3B13089   8.933   4.604   7.988
  680POPC   C4B13090   8.836   4.471   7.545
  681POPC   NC313091   6.579  42.770   9.527
  681POPC   PO413092   6.364  43.367   9.559
  681POPC   GL113093   6.594  43.174   9.188
  681POPC   GL213094   6.808  42.866   9.087
  681POPC   C1A13095   6.570  43.303   8.756
  681POPC   D2A13096   6.294  43.148   8.414
  681POPC   C3A13097   6.428  43.245   8.038
  681POPC   C4A13098   6.580  43.387   7.680
  681POPC   C1B13099   6.640  42.795   8.701
  681POPC   C2B13100   6.771  43.025   8.363
  681POPC   C3B13101   6.861  42.976   7.973
  681POPC   C4B13102   6.852  42.934   7.561
  682POPC   NC313103   4.877   9.116   9.333
  682POPC   PO413104   4.249   9.033   9.455
  682POPC   GL113105   4.345   8.768   9.135
  682POPC   GL213106   4.094   8.922   8.963
  682POPC   C1A13107   4.415   8.613   8.725
  682POPC   D2A13108   4.352   8.906   8.430
  682POPC   C3A13109   4.445   8.804   8.046
  682POPC   C4A13110   4.054   8.724   7.857
  682POPC   C1B13111   4.437   9.222   8.826
  682POPC   C2B13112   4.572   9.350   8.411
  682POPC   C3B13113   4.350   9.336   8.041
  682POPC   C4B13114   4.566   9.370   7.684
  683POPC   NC313115  40.444  40.562   9.454
  683POPC   PO413116  40.842  41.160   9.492
  683POPC   GL113117  40.659  41.011   9.064
  683POPC   GL213118  40.632  40.654   8.991
  683POPC   C1A13119  40.700  40.931   8.593
  683POPC   D2A13120  40.736  41.220   8.259
  683POPC   C3A13121  40.810  41.043   7.886
  683POPC   C4A13122  40.540  40.749   7.730
  683POPC   C1B13123  40.966  40.509   8.698
  683POPC   C2B13124  40.826  40.407   8.289
  683POPC   C3B13125  40.951  40.522   7.903
  683POPC   C4B13126  41.199  40.741   7.650
  684POPC   NC313127   2.048  30.916   9.368
  684POPC   PO413128   1.567  30.454   9.588
  684POPC   GL113129   1.797  30.522   9.178
  684POPC   GL213130   2.067  30.324   9.069
  684POPC   C1A13131   1.834  30.667   8.744
  684POPC   D2A13132   1.729  30.785   8.343
  684POPC   C3A13133   2.031  30.897   8.030
  684POPC   C4A13134   1.781  30.979   7.648
  684POPC   C1B13135   2.265  30.405   8.701
  684POPC   C2B13136   2.207  30.466   8.275
  684POPC   C3B13137   2.323  30.429   7.881
  684POPC   C4B13138   2.187  30.679   7.589
  685POPC   NC313139  19.603   2.941  10.030
  685POPC   PO413140  20.048   2.536   9.730
  685POPC   GL113141  19.917   2.643   9.263
  685POPC   GL213142  19.558   2.581   9.175
  685POPC   C1A13143  19.894   2.776   8.829
  685POPC   D2A13144  19.701   3.002   8.496
  685POPC   C3A13145  19.866   3.169   8.134
  685POPC   C4A13146  19.875   2.977   7.727
  685POPC   C1B13147  19.537   2.409   8.711
  685POPC   C2B13148  19.690   2.484   8.307
  685POPC   C3B13149  19.773   2.487   7.883
  685POPC   C4B13150  19.813   2.255   7.482
  686POPC   NC313151   1.596   2.666   9.523
  686POPC   PO413152   2.050   3.147   9.495
  686POPC   GL113153   2.014   2.954   9.143
  686POPC   GL213154   1.661   3.046   9.160
  686POPC   C1A13155   1.914   2.763   8.771
  686POPC   D2A13156   1.582   2.610   8.529
  686POPC   C3A13157   1.662   2.586   8.096
  686POPC   C4A13158   1.961   2.443   7.814
  686POPC   C1B13159   1.630   3.183   8.753
  686POPC   C2B13160   1.799   3.090   8.378
  686POPC   C3B13161   1.680   3.092   7.991
  686POPC   C4B13162   1.861   2.914   7.622
  687POPC   NC313163  12.577  29.693   9.513
  687POPC   PO413164  13.226  29.872   9.416
  687POPC   GL113165  12.936  30.196   9.162
  687POPC   GL213166  12.788  29.901   9.089
  687POPC   C1A13167  12.683  30.257   8.749
  687POPC   D2A13168  12.725  29.960   8.366
  687POPC   C3A13169  12.728  30.151   7.941
  687POPC   C4A13170  12.868  30.122   7.502
  687POPC   C1B13171  12.983  29.670   8.743
  687POPC   C2B13172  12.838  29.413   8.378
  687POPC   C3B13173  12.930  29.566   7.962
  687POPC   C4B13174  13.186  29.882   7.832
  688POPC   NC313175  29.944  34.513   9.537
  688POPC   PO413176  29.903  35.215   9.509
  688POPC   GL113177  29.797  34.886   9.204
  688POPC   GL213178  30.141  34.769   9.146
  688POPC   C1A13179  29.782  34.629   8.822
  688POPC   D2A13180  29.959  34.562   8.411
  688POPC   C3A13181  29.782  34.419   8.044
  688POPC   C4A13182  29.870  34.574   7.610
  688POPC   C1B13183  30.303  34.586   8.771
  688POPC   C2B13184  30.387  34.321   8.415
  688POPC   C3B13185  30.284  34.490   8.016
  688POPC   C4B13186  30.489  34.632   7.688
  689POPC   NC313187   2.009   5.704   9.380
  689POPC   PO413188   1.876   4.973   9.547
  689POPC   GL113189   2.021   5.203   9.251
  689POPC   GL213190   1.698   5.208   9.087
  689POPC   C1A13191   2.160   5.063   8.895
  689POPC   D2A13192   2.271   4.887   8.532
  689POPC   C3A13193   2.201   5.060   8.142
  689POPC   C4A13194   2.089   4.892   7.749
  689POPC   C1B13195   1.617   4.871   8.812
  689POPC   C2B13196   1.474   4.878   8.417
  689POPC   C3B13197   1.701   4.935   8.075
  689POPC   C4B13198   1.653   5.213   7.716
  690POPC   NC313199  11.753   2.603   9.369
  690POPC   PO413200  11.208   2.987   9.502
  690POPC   GL113201  11.339   2.861   9.095
  690POPC   GL213202  11.249   2.536   9.087
  690POPC   C1A13203  11.128   2.816   8.682
  690POPC   D2A13204  10.934   2.932   8.287
  690POPC   C3A13205  11.261   2.896   7.991
  690POPC   C4A13206  11.705   2.802   7.853
  690POPC   C1B13207  11.418   2.369   8.723
  690POPC   C2B13208  11.395   2.530   8.307
  690POPC   C3B13209  11.340   2.394   7.869
  690POPC   C4B13210  11.085   2.527   7.508
  691POPC   NC313211   1.809  15.942   9.535
  691POPC   PO413212   2.444  15.823   9.675
  691POPC   GL113213   2.194  15.854   9.242
  691POPC   GL213214   1.926  15.577   9.170
  691POPC   C1A13215   2.075  16.005   8.821
  691POPC   D2A13216   1.794  16.166   8.489
  691POPC   C3A13217   1.870  16.176   8.034
  691POPC   C4A13218   1.951  15.990   7.630
  691POPC   C1B13219   1.945  15.529   8.708
  691POPC   C2B13220   1.989  15.718   8.312
  691POPC   C3B13221   2.039  15.565   7.917
  691POPC   C4B13222   1.990  15.499   7.461
  692POPC   NC313223  36.001  41.084   9.487
  692POPC   PO413224  36.544  41.458   9.425
  692POPC   GL113225  36.414  41.036   9.181
  692POPC   GL213226  36.095  40.738   9.115
  692POPC   C1A13227  36.438  40.835   8.794
  692POPC   D2A13228  36.262  40.508   8.559
  692POPC   C3A13229  36.351  40.652   8.160
  692POPC   C4A13230  36.271  40.754   7.758
  692POPC   C1B13231  35.796  40.652   8.720
  692POPC   C2B13232  35.836  40.587   8.221
  692POPC   C3B13233  35.762  40.634   7.757
  692POPC   C4B13234  35.749  40.381   7.360
  693POPC   NC313235  19.480  21.092   9.439
  693POPC   PO413236  19.079  21.641   9.339
  693POPC   GL113237  19.056  21.266   9.107
  693POPC   GL213238  19.384  21.346   8.997
  693POPC   C1A13239  19.104  21.088   8.675
  693POPC   D2A13240  19.176  21.441   8.380
  693POPC   C3A13241  18.906  21.435   8.058
  693POPC   C4A13242  18.837  21.184   7.767
  693POPC   C1B13243  19.372  21.756   8.765
  693POPC   C2B13244  19.480  21.919   8.372
  693POPC   C3B13245  19.587  21.685   8.034
  693POPC   C4B13246  19.352  21.452   7.731
  694POPC   NC313247  35.587   5.659   9.349
  694POPC   PO413248  35.034   5.890   9.707
  694POPC   GL113249  35.246   5.957   9.164
  694POPC   GL213250  35.290   5.632   8.929
  694POPC   C1A13251  35.160   6.090   8.742
  694POPC   D2A13252  35.325   5.845   8.405
  694POPC   C3A13253  35.156   5.920   8.042
  694POPC   C4A13254  34.987   5.589   7.869
  694POPC   C1B13255  35.705   5.749   8.716
  694POPC   C2B13256  35.863   5.714   8.319
  694POPC   C3B13257  35.652   5.907   7.971
  694POPC   C4B13258  35.412   5.977   7.591
  695POPC   NC313259   8.384  13.375   9.403
  695POPC   PO413260   8.456  14.066   9.447
  695POPC   GL113261   8.161  13.779   9.164
  695POPC   GL213262   7.939  14.019   9.016
  695POPC   C1A13263   8.202  13.618   8.743
  695POPC   D2A13264   8.254  13.703   8.295
  695POPC   C3A13265   8.280  13.520   7.873
  695POPC   C4A13266   8.225  13.928   7.643
  695POPC   C1B13267   7.709  13.807   8.786
  695POPC   C2B13268   7.774  13.610   8.440
  695POPC   C3B13269   7.797  13.612   8.007
  695POPC   C4B13270   7.706  13.205   7.788
  696POPC   NC313271  16.537   5.960   9.474
  696POPC   PO413272  17.195   5.681   9.491
  696POPC   GL113273  16.984   5.797   9.152
  696POPC   GL213274  16.714   5.560   9.210
  696POPC   C1A13275  17.040   5.936   8.728
  696POPC   D2A13276  17.077   5.688   8.337
  696POPC   C3A13277  16.790   5.855   8.012
  696POPC   C4A13278  16.668   6.179   7.709
  696POPC   C1B13279  16.547   5.769   8.835
  696POPC   C2B13280  16.497   5.616   8.417
  696POPC   C3B13281  16.360   5.516   8.018
  696POPC   C4B13282  16.556   5.594   7.634
  697POPC   NC313283  30.162  35.977   9.383
  697POPC   PO413284  29.990  36.630   9.276
  697POPC   GL113285  29.843  36.273   9.000
  697POPC   GL213286  30.092  36.026   8.876
  697POPC   C1A13287  29.756  36.249   8.533
  697POPC   D2A13288  29.917  36.288   8.136
  697POPC   C3A13289  29.751  36.558   7.825
  697POPC   C4A13290  29.781  36.247   7.515
  697POPC   C1B13291  29.691  35.796   8.735
  697POPC   C2B13292  29.455  35.855   8.309
  697POPC   C3B13293  29.664  35.895   7.880
  697POPC   C4B13294  30.131  35.915   7.771
  698POPC   NC313295   0.705  39.340   9.505
  698POPC   PO413296   1.348  39.631   9.477
  698POPC   GL113297   1.199  39.295   9.243
  698POPC   GL213298   0.914  39.249   9.064
  698POPC   C1A13299   1.337  39.056   8.893
  698POPC   D2A13300   1.179  38.872   8.509
  698POPC   C3A13301   1.362  39.070   8.105
  698POPC   C4A13302   1.308  39.060   7.644
  698POPC   C1B13303   1.075  39.476   8.730
  698POPC   C2B13304   1.247  39.531   8.343
  698POPC   C3B13305   1.091  39.470   7.921
  698POPC   C4B13306   0.761  39.254   7.713
  699POPC   NC313307  11.431  22.694   9.661
  699POPC   PO413308  11.147  23.293   9.478
  699POPC   GL113309  11.322  23.177   9.120
  699POPC   GL213310  11.275  22.853   9.194
  699POPC   C1A13311  11.405  23.115   8.723
  699POPC   D2A13312  11.200  22.917   8.407
  699POPC   C3A13313  11.228  23.032   7.979
  699POPC   C4A13314  11.522  23.195   7.717
  699POPC   C1B13315  11.574  22.666   8.959
  699POPC   C2B13316  11.526  22.554   8.553
  699POPC   C3B13317  11.550  22.658   8.115
  699POPC   C4B13318  11.819  22.789   7.789
  700POPC   NC313319  24.933  42.269   9.476
  700POPC   PO413320  25.468  41.773   9.444
  700POPC   GL113321  25.506  42.122   9.111
  700POPC   GL213322  25.727  42.516   9.152
  700POPC   C1A13323  25.344  42.028   8.701
  700POPC   D2A13324  25.247  41.894   8.293
  700POPC   C3A13325  25.294  42.152   7.955
  700POPC   C4A13326  25.356  41.945   7.579
  700POPC   C1B13327  25.378  42.515   8.814
  700POPC   C2B13328  25.098  42.413   8.441
  700POPC   C3B13329  24.988  42.562   8.024
  700POPC   C4B13330  25.026  42.442   7.596
  701POPC   NC313331  17.422  20.761   9.821
  701POPC   PO413332  17.888  20.308   9.526
  701POPC   GL113333  17.585  20.372   9.202
  701POPC   GL213334  17.467  20.710   9.154
  701POPC   C1A13335  17.475  20.327   8.763
  701POPC   D2A13336  17.230  20.446   8.383
  701POPC   C3A13337  17.442  20.317   8.003
  701POPC   C4A13338  17.500  20.403   7.579
  701POPC   C1B13339  17.490  20.843   8.693
  701POPC   C2B13340  17.629  20.737   8.267
  701POPC   C3B13341  17.507  20.844   7.849
  701POPC   C4B13342  17.625  20.860   7.404
  702POPC   NC313343   9.890  24.204   9.808
  702POPC   PO413344   9.598  23.597   9.532
  702POPC   GL113345   9.506  23.740   9.149
  702POPC   GL213346   9.837  23.569   9.041
  702POPC   C1A13347   9.530  24.049   8.825
  702POPC   D2A13348   9.429  23.944   8.441
  702POPC   C3A13349   9.596  24.021   8.041
  702POPC   C4A13350   9.542  23.684   7.794
  702POPC   C1B13351   9.970  23.589   8.621
  702POPC   C2B13352   9.898  23.614   8.165
  702POPC   C3B13353   9.980  23.434   7.704
  702POPC   C4B13354   9.897  23.339   7.273
  703POPC   NC313355  41.900  31.725   9.558
  703POPC   PO413356  41.371  31.379   9.496
  703POPC   GL113357  41.642  31.358   9.169
  703POPC   GL213358  41.629  31.711   9.143
  703POPC   C1A13359  41.662  31.212   8.732
  703POPC   D2A13360  41.354  31.217   8.393
  703POPC   C3A13361  41.541  31.302   8.009
  703POPC   C4A13362  41.471  31.598   7.729
  703POPC   C1B13363  41.903  31.639   8.807
  703POPC   C2B13364  41.804  31.554   8.366
  703POPC   C3B13365  41.935  31.694   7.943
  703POPC   C4B13366  41.808  31.926   7.557
  704POPC   NC313367  29.493  44.622   9.459
  704POPC   PO413368  30.023  44.720   9.705
  704POPC   GL113369  29.939  44.779   9.241
  704POPC   GL213370  29.932  44.421   9.161
  704POPC   C1A13371  29.769  44.721   8.782
  704POPC   D2A13372  29.712  44.876   8.344
  704POPC   C3A13373  29.940  44.704   7.976
  704POPC   C4A13374  29.878  44.624   7.545
  704POPC   C1B13375  30.098  44.340   8.718
  704POPC   C2B13376  30.184  44.293   8.245
  704POPC   C3B13377  30.293  44.327   7.791
  704POPC   C4B13378  30.391  44.412   7.319
  705POPC   NC313379   5.763  36.637   9.463
  705POPC   PO413380   5.971  36.040   9.460
  705POPC   GL113381   6.188  36.342   9.189
  705POPC   GL213382   5.880  36.431   9.010
  705POPC   C1A13383   6.307  36.324   8.739
  705POPC   D2A13384   6.080  36.381   8.328
  705POPC   C3A13385   5.953  36.090   8.073
  705POPC   C4A13386   5.694  36.072   7.751
  705POPC   C1B13387   5.629  36.438   8.614
  705POPC   C2B13388   5.417  36.448   8.185
  705POPC   C3B13389   5.241  36.290   7.779
  705POPC   C4B13390   5.345  36.044   7.372
  706POPC   NC313391  17.830  31.999   9.451
  706POPC   PO413392  17.420  32.390   9.608
  706POPC   GL113393  17.411  32.178   9.179
  706POPC   GL213394  17.707  32.267   9.037
  706POPC   C1A13395  17.444  31.890   8.803
  706POPC   D2A13396  17.225  31.766   8.416
  706POPC   C3A13397  17.253  31.967   8.023
  706POPC   C4A13398  17.302  32.351   7.831
  706POPC   C1B13399  17.531  32.381   8.640
  706POPC   C2B13400  17.603  32.492   8.205
  706POPC   C3B13401  17.627  32.736   7.801
  706POPC   C4B13402  17.703  32.587   7.358
  707POPC   NC313403   9.176  22.302   9.435
  707POPC   PO413404   8.788  21.842   9.861
  707POPC   GL113405   9.008  21.836   9.373
  707POPC   GL213406   9.320  21.898   9.152
  707POPC   C1A13407   8.948  21.857   8.831
  707POPC   D2A13408   8.842  22.084   8.430
  707POPC   C3A13409   9.120  22.249   8.080
  707POPC   C4A13410   8.989  22.506   7.730
  707POPC   C1B13411   9.445  21.668   8.736
  707POPC   C2B13412   9.554  21.719   8.287
  707POPC   C3B13413   9.402  21.863   7.879
  707POPC   C4B13414   9.038  21.917   7.676
  708POPC   NC313415   9.295  15.370   9.478
  708POPC   PO413416   8.691  15.040   9.405
  708POPC   GL113417   8.984  15.150   9.108
  708POPC   GL213418   9.234  14.946   9.203
  708POPC   C1A13419   9.068  15.340   8.730
  708POPC   D2A13420   8.886  15.316   8.335
  708POPC   C3A13421   8.601  15.500   8.047
  708POPC   C4A13422   8.817  15.414   7.655
  708POPC   C1B13423   9.490  15.006   8.862
  708POPC   C2B13424   9.527  14.872   8.475
  708POPC   C3B13425   9.345  15.106   8.149
  708POPC   C4B13426   9.364  15.059   7.716
  709POPC   NC313427  30.082  23.868   9.533
  709POPC   PO413428  30.107  23.266   9.518
  709POPC   GL113429  29.949  23.566   9.152
  709POPC   GL213430  29.656  23.845   9.221
  709POPC   C1A13431  30.015  23.488   8.704
  709POPC   D2A13432  29.789  23.241   8.406
  709POPC   C3A13433  29.762  23.403   8.015
  709POPC   C4A13434  30.051  23.375   7.693
  709POPC   C1B13435  29.806  23.937   8.811
  709POPC   C2B13436  30.046  23.935   8.405
  709POPC   C3B13437  29.919  23.892   7.951
  709POPC   C4B13438  29.694  23.724   7.563
  710POPC   NC313439  11.849  30.235   9.556
  710POPC   PO413440  12.229  30.866   9.425
  710POPC   GL113441  12.152  30.594   9.102
  710POPC   GL213442  11.832  30.586   9.037
  710POPC   C1A13443  12.146  30.387   8.685
  710POPC   D2A13444  12.386  30.348   8.325
  710POPC   C3A13445  12.112  30.427   7.999
  710POPC   C4A13446  12.026  30.503   7.558
  710POPC   C1B13447  11.971  30.887   8.717
  710POPC   C2B13448  12.135  30.823   8.308
  710POPC   C3B13449  12.123  30.914   7.859
  710POPC   C4B13450  11.840  31.082   7.549
  711POPC   NC313451   3.435  17.845   9.491
  711POPC   PO413452   3.610  17.163   9.545
  711POPC   GL113453   3.469  17.364   9.184
  711POPC   GL213454   3.650  17.654   9.080
  711POPC   C1A13455   3.421  17.370   8.748
  711POPC   D2A13456   3.193  17.408   8.406
  711POPC   C3A13457   3.331  17.364   7.991
  711POPC   C4A13458   3.194  17.579   7.592
  711POPC   C1B13459   3.738  17.874   8.713
  711POPC   C2B13460   3.666  17.660   8.338
  711POPC   C3B13461   3.815  17.625   7.941
  711POPC   C4B13462   3.701  17.769   7.525
  712POPC   NC313463   8.310  28.501   9.539
  712POPC   PO413464   7.629  28.385   9.490
  712POPC   GL113465   7.971  28.460   9.128
  712POPC   GL213466   8.299  28.672   9.067
  712POPC   C1A13467   8.157  28.343   8.711
  712POPC   D2A13468   8.137  28.533   8.302
  712POPC   C3A13469   8.044  28.203   8.009
  712POPC   C4A13470   8.100  28.444   7.672
  712POPC   C1B13471   8.529  28.716   8.676
  712POPC   C2B13472   8.594  28.354   8.394
  712POPC   C3B13473   8.539  28.349   7.961
  712POPC   C4B13474   8.461  28.089   7.635
  713POPC   NC313475  32.212  35.229   9.614
  713POPC   PO413476  32.419  35.854   9.513
  713POPC   GL113477  32.301  35.523   9.206
  713POPC   GL213478  32.556  35.250   9.228
  713POPC   C1A13479  32.097  35.474   8.813
  713POPC   D2A13480  31.942  35.589   8.399
  713POPC   C3A13481  32.071  35.462   7.988
  713POPC   C4A13482  32.282  35.114   7.818
  713POPC   C1B13483  32.649  35.319   8.808
  713POPC   C2B13484  32.436  35.423   8.423
  713POPC   C3B13485  32.583  35.529   8.042
  713POPC   C4B13486  32.747  35.289   7.774
  714POPC   NC313487  35.168  19.139   9.460
  714POPC   PO413488  35.782  18.765   9.447
  714POPC   GL113489  35.688  18.959   9.077
  714POPC   GL213490  35.499  19.226   9.088
  714POPC   C1A13491  35.575  18.994   8.628
  714POPC   D2A13492  35.222  18.940   8.356
  714POPC   C3A13493  35.347  19.100   7.957
  714POPC   C4A13494  35.138  18.931   7.607
  714POPC   C1B13495  35.423  19.474   8.720
  714POPC   C2B13496  35.198  19.454   8.350
  714POPC   C3B13497  34.972  19.432   7.988
  714POPC   C4B13498  35.153  19.461   7.591
  715POPC   NC313499  18.272   5.568   9.352
  715POPC   PO413500  18.419   4.979   9.757
  715POPC   GL113501  18.243   5.064   9.358
  715POPC   GL213502  18.423   4.831   9.220
  715POPC   C1A13503  18.172   5.147   8.871
  715POPC   D2A13504  18.133   5.424   8.477
  715POPC   C3A13505  18.268   5.188   8.109
  715POPC   C4A13506  18.176   5.104   7.675
  715POPC   C1B13507  18.584   4.825   8.819
  715POPC   C2B13508  18.779   4.665   8.453
  715POPC   C3B13509  18.672   4.781   8.027
  715POPC   C4B13510  18.520   4.581   7.661
  716POPC   NC313511  20.960  22.293   9.731
  716POPC   PO413512  20.461  21.954   9.410
  716POPC   GL113513  20.670  22.152   9.070
  716POPC   GL213514  20.950  22.356   9.157
  716POPC   C1A13515  20.600  22.175   8.635
  716POPC   D2A13516  20.519  21.953   8.271
  716POPC   C3A13517  20.562  22.171   7.908
  716POPC   C4A13518  20.411  22.164   7.481
  716POPC   C1B13519  20.978  22.503   8.699
  716POPC   C2B13520  20.810  22.577   8.255
  716POPC   C3B13521  20.991  22.463   7.835
  716POPC   C4B13522  21.089  22.447   7.327
  717POPC   NC313523   1.634  22.338   9.472
  717POPC   PO413524   2.170  22.143   9.684
  717POPC   GL113525   2.133  22.278   9.275
  717POPC   GL213526   1.920  22.018   9.159
  717POPC   C1A13527   1.959  22.470   8.916
  717POPC   D2A13528   1.941  22.358   8.492
  717POPC   C3A13529   1.844  22.475   8.082
  717POPC   C4A13530   2.023  22.350   7.681
  717POPC   C1B13531   1.816  21.891   8.731
  717POPC   C2B13532   1.585  22.014   8.343
  717POPC   C3B13533   1.680  22.015   7.910
  717POPC   C4B13534   2.067  21.831   7.718
  718POPC   NC313535  10.964  11.932   9.371
  718POPC   PO413536  10.687  12.436   9.730
  718POPC   GL113537  10.588  12.336   9.280
  718POPC   GL213538  10.323  12.075   9.191
  718POPC   C1A13539  10.700  12.213   8.837
  718POPC   D2A13540  10.724  11.946   8.476
  718POPC   C3A13541  10.477  12.086   8.136
  718POPC   C4A13542  10.772  12.206   7.805
  718POPC   C1B13543  10.366  11.774   8.849
  718POPC   C2B13544  10.341  11.614   8.442
  718POPC   C3B13545  10.555  11.574   8.113
  718POPC   C4B13546  10.483  11.744   7.728
  719POPC   NC313547  13.195   2.626   9.571
  719POPC   PO413548  12.721   2.869   9.945
  719POPC   GL113549  12.719   2.872   9.415
  719POPC   GL213550  13.043   2.952   9.206
  719POPC   C1A13551  12.624   2.885   8.911
  719POPC   D2A13552  12.757   2.677   8.484
  719POPC   C3A13553  12.670   2.876   8.071
  719POPC   C4A13554  12.964   2.823   7.764
  719POPC   C1B13555  13.050   2.561   8.920
  719POPC   C2B13556  13.198   2.409   8.522
  719POPC   C3B13557  13.066   2.453   8.111
  719POPC   C4B13558  13.224   2.363   7.714
  720POPC   NC313559  12.295  36.177   9.414
  720POPC   PO413560  11.833  35.642   9.471
  720POPC   GL113561  11.945  35.888   9.151
  720POPC   GL213562  11.819  36.235   9.198
  720POPC   C1A13563  12.134  36.037   8.777
  720POPC   D2A13564  12.115  36.367   8.470
  720POPC   C3A13565  12.389  36.413   8.113
  720POPC   C4A13566  12.540  36.205   7.745
  720POPC   C1B13567  11.624  36.185   8.788
  720POPC   C2B13568  11.571  36.300   8.342
  720POPC   C3B13569  11.877  36.320   7.996
  720POPC   C4B13570  12.085  35.983   7.772
  721POPC   NC313571  17.960  17.122   9.413
  721POPC   PO413572  18.556  16.834   9.453
  721POPC   GL113573  18.355  16.822   9.077
  721POPC   GL213574  18.038  16.683   9.151
  721POPC   C1A13575  18.227  16.865   8.672
  721POPC   D2A13576  18.066  16.928   8.280
  721POPC   C3A13577  18.278  16.746   7.949
  721POPC   C4A13578  18.467  16.912   7.628
  721POPC   C1B13579  18.109  16.387   8.824
  721POPC   C2B13580  18.161  16.442   8.379
  721POPC   C3B13581  17.936  16.365   8.007
  721POPC   C4B13582  18.063  16.442   7.591
  722POPC   NC313583   4.926   4.723   9.322
  722POPC   PO413584   4.853   5.396   9.472
  722POPC   GL113585   5.112   5.221   9.180
  722POPC   GL213586   5.364   4.973   9.197
  722POPC   C1A13587   5.267   5.316   8.799
  722POPC   D2A13588   5.229   5.074   8.439
  722POPC   C3A13589   5.185   5.283   8.077
  722POPC   C4A13590   5.032   5.232   7.697
  722POPC   C1B13591   5.304   4.701   8.804
  722POPC   C2B13592   5.366   4.582   8.378
  722POPC   C3B13593   5.251   4.786   7.989
  722POPC   C4B13594   5.346   4.834   7.578
  723POPC   NC313595  35.958  15.033   9.478
  723POPC   PO413596  36.463  15.424   9.402
  723POPC   GL113597  36.254  15.207   9.105
  723POPC   GL213598  35.873  15.260   9.032
  723POPC   C1A13599  36.308  15.180   8.729
  723POPC   D2A13600  36.119  15.333   8.443
  723POPC   C3A13601  36.261  15.145   8.093
  723POPC   C4A13602  36.337  15.404   7.758
  723POPC   C1B13603  35.931  14.846   8.843
  723POPC   C2B13604  36.093  14.767   8.450
  723POPC   C3B13605  35.870  14.788   8.055
  723POPC   C4B13606  35.903  15.091   7.715
  724POPC   NC313607  36.119   3.163   9.425
  724POPC   PO413608  35.880   2.510   9.422
  724POPC   GL113609  36.029   2.728   9.111
  724POPC   GL213610  36.364   2.632   9.174
  724POPC   C1A13611  35.885   2.987   8.780
  724POPC   D2A13612  35.992   3.061   8.367
  724POPC   C3A13613  35.970   2.704   8.063
  724POPC   C4A13614  35.856   2.745   7.598
  724POPC   C1B13615  36.394   2.878   8.785
  724POPC   C2B13616  36.458   2.834   8.335
  724POPC   C3B13617  36.402   2.896   7.889
  724POPC   C4B13618  36.301   2.916   7.431
  725POPC   NC313619   3.752  19.273   9.686
  725POPC   PO413620   4.337  19.389   9.264
  725POPC   GL113621   4.225  18.994   9.093
  725POPC   GL213622   4.562  18.930   8.984
  725POPC   C1A13623   4.166  18.808   8.679
  725POPC   D2A13624   4.395  18.933   8.293
  725POPC   C3A13625   4.295  19.282   8.010
  725POPC   C4A13626   4.168  19.203   7.566
  725POPC   C1B13627   4.724  18.737   8.623
  725POPC   C2B13628   4.454  18.431   8.419
  725POPC   C3B13629   4.315  18.489   8.015
  725POPC   C4B13630   4.451  18.861   7.794
  726POPC   NC313631  32.854   4.844   9.562
  726POPC   PO413632  33.269   5.366   9.594
  726POPC   GL113633  33.210   5.161   9.181
  726POPC   GL213634  33.150   4.787   9.156
  726POPC   C1A13635  33.105   5.105   8.727
  726POPC   D2A13636  33.327   4.978   8.355
  726POPC   C3A13637  33.159   5.034   7.961
  726POPC   C4A13638  33.220   5.352   7.640
  726POPC   C1B13639  32.793   4.698   8.859
  726POPC   C2B13640  32.820   4.720   8.395
  726POPC   C3B13641  32.658   4.754   7.960
  726POPC   C4B13642  32.661   4.887   7.511
  727POPC   NC313643  39.583  42.686   9.815
  727POPC   PO413644  39.264  42.200   9.425
  727POPC   GL113645  39.460  42.315   9.054
  727POPC   GL213646  39.186  42.572   8.988
  727POPC   C1A13647  39.534  42.470   8.645
  727POPC   D2A13648  39.339  42.331   8.316
  727POPC   C3A13649  39.225  42.454   7.959
  727POPC   C4A13650  39.327  42.352   7.551
  727POPC   C1B13651  39.104  42.143   8.741
  727POPC   C2B13652  39.110  41.900   8.330
  727POPC   C3B13653  38.916  42.054   7.973
  727POPC   C4B13654  38.606  41.920   7.732
  728POPC   NC313655  20.016   3.722   9.369
  728POPC   PO413656  19.775   3.058   9.557
  728POPC   GL113657  19.894   3.243   9.141
  728POPC   GL213658  19.630   3.510   9.085
  728POPC   C1A13659  19.960   3.436   8.693
  728POPC   D2A13660  19.675   3.631   8.369
  728POPC   C3A13661  19.829   3.672   7.957
  728POPC   C4A13662  20.153   3.415   7.761
  728POPC   C1B13663  19.398   3.364   8.707
  728POPC   C2B13664  19.332   3.273   8.228
  728POPC   C3B13665  19.481   3.312   7.778
  728POPC   C4B13666  19.501   3.105   7.348
  729POPC   NC313667  26.001  17.313   9.456
  729POPC   PO413668  25.737  17.931   9.562
  729POPC   GL113669  25.874  17.733   9.185
  729POPC   GL213670  26.232  17.794   9.111
  729POPC   C1A13671  25.825  17.505   8.788
  729POPC   D2A13672  25.851  17.642   8.337
  729POPC   C3A13673  25.914  17.373   7.953
  729POPC   C4A13674  25.796  17.391   7.493
  729POPC   C1B13675  26.337  17.572   8.715
  729POPC   C2B13676  26.269  17.278   8.400
  729POPC   C3B13677  26.434  17.361   8.023
  729POPC   C4B13678  26.315  17.643   7.748
  730POPC   NC313679  35.516  44.813   9.765
  730POPC   PO413680  35.053  44.535   9.513
  730POPC   GL113681  35.182  44.707   9.126
  730POPC   GL213682  35.500  44.770   9.223
  730POPC   C1A13683  35.140  44.557   8.697
  730POPC   D2A13684  35.371  44.525   8.318
  730POPC   C3A13685  35.278  44.339   7.918
  730POPC   C4A13686  35.378  44.691   7.730
  730POPC   C1B13687  35.491  44.974   8.813
  730POPC   C2B13688  35.712   0.159   8.482
  730POPC   C3B13689  35.553   0.001   8.104
  730POPC   C4B13690  35.745   0.033   7.736
  731POPC   NC313691  27.084  44.322   9.510
  731POPC   PO413692  26.774  44.934   9.517
  731POPC   GL113693  26.803  44.626   9.224
  731POPC   GL213694  27.164  44.658   9.092
  731POPC   C1A13695  26.746  44.453   8.861
  731POPC   D2A13696  26.947  44.497   8.516
  731POPC   C3A13697  26.774  44.384   8.157
  731POPC   C4A13698  26.738  44.549   7.772
  731POPC   C1B13699  26.939  44.943   8.801
  731POPC   C2B13700  26.776  44.952   8.356
  731POPC   C3B13701  26.777   0.054   7.908
  731POPC   C4B13702  26.504  44.924   7.553
  732POPC   NC313703  21.430  34.101   9.325
  732POPC   PO413704  21.538  33.509   9.505
  732POPC   GL113705  21.693  33.706   9.132
  732POPC   GL213706  21.372  33.658   8.985
  732POPC   C1A13707  21.686  33.936   8.726
  732POPC   D2A13708  21.499  33.729   8.416
  732POPC   C3A13709  21.542  33.976   8.056
  732POPC   C4A13710  21.554  33.873   7.647
  732POPC   C1B13711  21.160  34.006   8.755
  732POPC   C2B13712  21.068  33.999   8.364
  732POPC   C3B13713  21.115  33.741   8.036
  732POPC   C4B13714  21.042  33.928   7.664
  733POPC   NC313715  19.868  38.168   9.204
  733POPC   PO413716  19.416  38.574   9.250
  733POPC   GL113717  19.804  38.652   9.064
  733POPC   GL213718  19.656  38.388   8.815
  733POPC   C1A13719  19.944  38.784   8.672
  733POPC   D2A13720  19.660  38.613   8.348
  733POPC   C3A13721  19.922  38.478   8.024
  733POPC   C4A13722  19.827  38.675   7.628
  733POPC   C1B13723  19.871  38.175   8.478
  733POPC   C2B13724  19.595  38.093   8.143
  733POPC   C3B13725  19.565  38.259   7.736
  733POPC   C4B13726  19.722  38.051   7.366
  734POPC   NC313727  26.907  17.728   9.537
  734POPC   PO413728  26.419  17.333   9.290
  734POPC   GL113729  26.814  17.413   9.144
  734POPC   GL213730  26.791  17.753   9.036
  734POPC   C1A13731  26.937  17.375   8.739
  734POPC   D2A13732  26.765  17.571   8.395
  734POPC   C3A13733  27.013  17.451   8.078
  734POPC   C4A13734  26.839  17.485   7.717
  734POPC   C1B13735  27.048  17.900   8.670
  734POPC   C2B13736  27.147  17.963   8.213
  734POPC   C3B13737  27.008  17.988   7.761
  734POPC   C4B13738  27.007  17.800   7.336
  735POPC   NC313739  15.590  37.519   9.383
  735POPC   PO413740  14.943  37.636   9.509
  735POPC   GL113741  14.914  37.848   9.107
  735POPC   GL213742  15.276  37.777   9.033
  735POPC   C1A13743  14.972  38.014   8.704
  735POPC   D2A13744  15.190  37.803   8.379
  735POPC   C3A13745  14.984  37.694   7.970
  735POPC   C4A13746  15.128  37.781   7.519
  735POPC   C1B13747  15.386  37.454   8.742
  735POPC   C2B13748  15.542  37.417   8.338
  735POPC   C3B13749  15.498  37.583   7.945
  735POPC   C4B13750  15.494  37.407   7.535
  736POPC   NC313751   8.309  11.873   9.441
  736POPC   PO413752   7.684  12.036   9.310
  736POPC   GL113753   8.031  12.134   9.098
  736POPC   GL213754   8.219  12.431   9.200
  736POPC   C1A13755   8.088  11.938   8.739
  736POPC   D2A13756   8.016  12.197   8.420
  736POPC   C3A13757   8.128  12.017   8.056
  736POPC   C4A13758   7.951  11.837   7.712
  736POPC   C1B13759   8.097  12.565   8.788
  736POPC   C2B13760   8.026  12.718   8.379
  736POPC   C3B13761   7.867  12.507   8.040
  736POPC   C4B13762   8.164  12.389   7.735
  737POPC   NC313763  21.985  33.647   9.544
  737POPC   PO413764  22.400  34.203   9.480
  737POPC   GL113765  22.395  33.992   9.110
  737POPC   GL213766  22.426  33.675   9.258
  737POPC   C1A13767  22.127  33.740   8.834
  737POPC   D2A13768  22.030  33.667   8.379
  737POPC   C3A13769  21.986  33.761   7.917
  737POPC   C4A13770  22.000  33.754   7.445
  737POPC   C1B13771  22.613  33.620   8.834
  737POPC   C2B13772  22.490  33.919   8.491
  737POPC   C3B13773  22.417  33.993   8.057
  737POPC   C4B13774  22.452  33.655   7.740
  738POPC   NC313775  44.941   0.705   9.508
  738POPC   PO413776  44.363   0.255   9.555
  738POPC   GL113777  44.619   0.416   9.202
  738POPC   GL213778  44.491   0.731   9.071
  738POPC   C1A13779  44.528   0.305   8.750
  738POPC   D2A13780  44.514   0.595   8.395
  738POPC   C3A13781  44.512   0.361   8.043
  738POPC   C4A13782  44.330   0.192   7.671
  738POPC   C1B13783  44.803   0.721   8.798
  738POPC   C2B13784   0.013   0.428   8.540
  738POPC   C3B13785   0.017   0.331   8.120
  738POPC   C4B13786  44.893   0.557   7.760
  739POPC   NC313787   1.330   9.733   9.889
  739POPC   PO413788   1.905   9.718   9.556
  739POPC   GL113789   1.839   9.719   9.142
  739POPC   GL213790   2.148   9.576   9.100
  739POPC   C1A13791   1.990   9.829   8.710
  739POPC   D2A13792   1.723   9.923   8.408
  739POPC   C3A13793   1.885  10.179   8.085
  739POPC   C4A13794   1.869   9.956   7.702
  739POPC   C1B13795   2.296   9.337   8.741
  739POPC   C2B13796   2.279   9.476   8.313
  739POPC   C3B13797   2.093   9.428   7.891
  739POPC   C4B13798   2.267   9.332   7.481
  740POPC   NC313799  33.240  27.898   9.289
  740POPC   PO413800  33.762  27.474   9.586
  740POPC   GL113801  33.809  27.324   9.160
  740POPC   GL213802  33.714  27.655   9.072
  740POPC   C1A13803  33.815  27.281   8.673
  740POPC   D2A13804  33.595  27.463   8.311
  740POPC   C3A13805  33.762  27.623   7.941
  740POPC   C4A13806  33.851  27.759   7.539
  740POPC   C1B13807  33.687  27.825   8.671
  740POPC   C2B13808  33.583  27.986   8.271
  740POPC   C3B13809  33.310  27.862   7.928
  740POPC   C4B13810  33.285  27.992   7.484
  741POPC   NC313811  15.239  40.098   9.611
  741POPC   PO413812  15.686  40.365   9.390
  741POPC   GL113813  15.542  39.929   9.203
  741POPC   GL213814  15.172  39.849   9.160
  741POPC   C1A13815  15.496  39.688   8.794
  741POPC   D2A13816  15.446  39.507   8.350
  741POPC   C3A13817  15.382  39.805   7.991
  741POPC   C4A13818  15.326  40.223   7.753
  741POPC   C1B13819  14.882  39.602   8.880
  741POPC   C2B13820  14.834  39.482   8.413
  741POPC   C3B13821  14.871  39.571   7.948
  741POPC   C4B13822  14.916  39.933   7.706
  742POPC   NC313823  38.813  37.103   9.258
  742POPC   PO413824  38.919  36.597   9.740
  742POPC   GL113825  38.595  36.623   9.324
  742POPC   GL213826  38.694  36.388   9.067
  742POPC   C1A13827  38.393  36.739   8.849
  742POPC   D2A13828  38.360  36.665   8.377
  742POPC   C3A13829  38.318  36.987   8.036
  742POPC   C4A13830  38.678  37.185   7.821
  742POPC   C1B13831  38.832  36.561   8.658
  742POPC   C2B13832  38.914  36.689   8.268
  742POPC   C3B13833  38.661  36.619   7.906
  742POPC   C4B13834  38.686  36.532   7.483
  743POPC   NC313835  25.851  25.530   9.560
  743POPC   PO413836  26.420  25.211   9.593
  743POPC   GL113837  26.155  25.213   9.239
  743POPC   GL213838  25.777  25.153   9.207
  743POPC   C1A13839  26.174  25.370   8.857
  743POPC   D2A13840  26.338  25.392   8.466
  743POPC   C3A13841  26.100  25.429   8.087
  743POPC   C4A13842  26.240  25.407   7.671
  743POPC   C1B13843  25.768  25.055   8.732
  743POPC   C2B13844  25.725  25.138   8.265
  743POPC   C3B13845  25.896  25.008   7.837
  743POPC   C4B13846  25.733  24.658   7.565
  744POPC   NC313847  35.239  38.649   9.528
  744POPC   PO413848  35.450  38.019   9.542
  744POPC   GL113849  35.461  38.288   9.212
  744POPC   GL213850  35.117  38.266   9.200
  744POPC   C1A13851  35.591  38.276   8.801
  744POPC   D2A13852  35.557  38.070   8.408
  744POPC   C3A13853  35.610  38.393   8.121
  744POPC   C4A13854  35.716  38.561   7.691
  744POPC   C1B13855  35.072  38.523   8.864
  744POPC   C2B13856  35.233  38.514   8.466
  744POPC   C3B13857  35.024  38.523   8.085
  744POPC   C4B13858  35.205  38.476   7.751
  745POPC   NC313859  27.116  18.478   9.814
  745POPC   PO413860  27.699  18.120   9.634
  745POPC   GL113861  27.693  18.050   9.201
  745POPC   GL213862  27.992  17.874   9.212
  745POPC   C1A13863  27.479  18.170   8.787
  745POPC   D2A13864  27.334  18.421   8.426
  745POPC   C3A13865  27.513  18.346   7.991
  745POPC   C4A13866  27.646  18.556   7.606
  745POPC   C1B13867  27.938  17.967   8.764
  745POPC   C2B13868  27.814  17.952   8.319
  745POPC   C3B13869  27.973  18.102   7.908
  745POPC   C4B13870  27.869  18.094   7.467
  746POPC   NC313871  28.655   5.423   9.398
  746POPC   PO413872  29.006   4.885   9.654
  746POPC   GL113873  29.070   5.058   9.256
  746POPC   GL213874  29.036   4.758   9.098
  746POPC   C1A13875  29.198   5.137   8.803
  746POPC   D2A13876  29.280   5.340   8.401
  746POPC   C3A13877  29.171   5.154   8.026
  746POPC   C4A13878  29.149   5.364   7.628
  746POPC   C1B13879  28.736   4.599   8.792
  746POPC   C2B13880  28.831   4.619   8.372
  746POPC   C3B13881  28.636   4.658   7.994
  746POPC   C4B13882  28.902   4.844   7.710
  747POPC   NC313883  17.258  16.942   9.931
  747POPC   PO413884  17.593  16.570   9.493
  747POPC   GL113885  17.545  16.814   9.110
  747POPC   GL213886  17.262  16.561   9.010
  747POPC   C1A13887  17.442  16.947   8.706
  747POPC   D2A13888  17.229  16.921   8.307
  747POPC   C3A13889  17.428  17.039   7.945
  747POPC   C4A13890  17.797  16.839   7.826
  747POPC   C1B13891  17.604  16.432   8.781
  747POPC   C2B13892  17.661  16.610   8.369
  747POPC   C3B13893  17.432  16.522   7.979
  747POPC   C4B13894  17.552  16.463   7.523
  748POPC   NC313895   5.841  39.505   9.512
  748POPC   PO413896   5.701  38.798   9.481
  748POPC   GL113897   5.885  38.957   9.112
  748POPC   GL213898   6.233  38.854   9.176
  748POPC   C1A13899   5.729  39.013   8.668
  748POPC   D2A13900   5.995  38.917   8.297
  748POPC   C3A13901   5.844  38.923   7.877
  748POPC   C4A13902   5.604  39.265   7.680
  748POPC   C1B13903   6.232  39.081   8.751
  748POPC   C2B13904   6.015  39.410   8.458
  748POPC   C3B13905   6.078  39.353   8.003
  748POPC   C4B13906   6.398  39.019   7.887
  749POPC   NC313907   9.421  13.019   9.575
  749POPC   PO413908   9.918  12.520   9.540
  749POPC   GL113909   9.706  12.776   9.198
  749POPC   GL213910   9.515  13.093   9.081
  749POPC   C1A13911   9.780  12.769   8.753
  749POPC   D2A13912   9.855  12.941   8.348
  749POPC   C3A13913   9.692  12.733   7.997
  749POPC   C4A13914   9.920  12.566   7.680
  749POPC   C1B13915   9.645  13.283   8.681
  749POPC   C2B13916   9.560  13.344   8.248
  749POPC   C3B13917   9.655  13.226   7.830
  749POPC   C4B13918   9.577  12.919   7.502
  750POPC   NC313919  43.333   0.735   9.506
  750POPC   PO413920  43.039   0.116   9.395
  750POPC   GL113921  42.992   0.520   9.164
  750POPC   GL213922  43.311   0.544   9.039
  750POPC   C1A13923  42.925   0.725   8.748
  750POPC   D2A13924  43.112   0.623   8.338
  750POPC   C3A13925  42.860   0.578   7.953
  750POPC   C4A13926  42.992   0.462   7.555
  750POPC   C1B13927  43.129   0.240   8.727
  750POPC   C2B13928  43.100  44.986   8.346
  750POPC   C3B13929  43.096   0.106   7.940
  750POPC   C4B13930  43.417   0.161   7.661
  751POPC   NC313931  28.013   8.469   9.584
  751POPC   PO413932  27.528   7.986   9.420
  751POPC   GL113933  27.850   8.092   9.116
  751POPC   GL213934  27.937   8.455   9.091
  751POPC   C1A13935  27.767   8.141   8.678
  751POPC   D2A13936  27.430   8.228   8.355
  751POPC   C3A13937  27.598   8.149   7.938
  751POPC   C4A13938  27.778   7.956   7.558
  751POPC   C1B13939  27.585   8.571   8.850
  751POPC   C2B13940  27.652   8.694   8.468
  751POPC   C3B13941  27.856   8.541   8.152
  751POPC   C4B13942  27.755   8.610   7.755
  752POPC   NC313943  41.616   0.797   9.283
  752POPC   PO413944  42.051   1.151   9.686
  752POPC   GL113945  41.876   1.252   9.220
  752POPC   GL213946  41.656   1.522   9.180
  752POPC   C1A13947  41.831   1.106   8.764
  752POPC   D2A13948  41.574   0.965   8.420
  752POPC   C3A13949  41.719   1.066   8.028
  752POPC   C4A13950  41.374   1.085   7.780
  752POPC   C1B13951  41.636   1.599   8.730
  752POPC   C2B13952  41.484   1.466   8.331
  752POPC   C3B13953  41.361   1.584   7.921
  752POPC   C4B13954  41.257   1.499   7.489
  753POPC   NC313955  12.933  34.738   9.513
  753POPC   PO413956  12.611  34.207   9.487
  753POPC   GL113957  12.757  34.447   9.110
  753POPC   GL213958  13.089  34.505   9.075
  753POPC   C1A13959  12.815  34.772   8.746
  753POPC   D2A13960  12.639  34.836   8.332
  753POPC   C3A13961  12.810  34.802   7.900
  753POPC   C4A13962  12.762  34.379   7.796
  753POPC   C1B13963  13.022  34.341   8.651
  753POPC   C2B13964  13.025  34.497   8.253
  753POPC   C3B13965  13.246  34.446   7.871
  753POPC   C4B13966  13.156  34.202   7.489
  754POPC   NC313967   4.087  42.083   9.525
  754POPC   PO413968   4.499  42.698   9.592
  754POPC   GL113969   4.594  42.551   9.175
  754POPC   GL213970   4.526  42.182   9.159
  754POPC   C1A13971   4.397  42.529   8.732
  754POPC   D2A13972   4.205  42.377   8.300
  754POPC   C3A13973   4.372  42.599   7.917
  754POPC   C4A13974   4.828  42.572   7.817
  754POPC   C1B13975   4.421  41.995   8.743
  754POPC   C2B13976   4.553  41.861   8.326
  754POPC   C3B13977   4.513  41.982   7.885
  754POPC   C4B13978   4.124  42.143   7.806
  755POPC   NC313979  32.622  19.526   9.492
  755POPC   PO413980  32.220  19.994   9.692
  755POPC   GL113981  32.183  19.807   9.296
  755POPC   GL213982  32.434  19.970   9.183
  755POPC   C1A13983  32.147  19.718   8.829
  755POPC   D2A13984  32.104  19.948   8.436
  755POPC   C3A13985  32.225  19.784   8.056
  755POPC   C4A13986  32.274  19.424   7.822
  755POPC   C1B13987  32.559  20.230   8.873
  755POPC   C2B13988  32.653  20.031   8.499
  755POPC   C3B13989  32.648  20.056   8.070
  755POPC   C4B13990  32.441  19.986   7.643
  756POPC   NC313991  30.953  14.553   9.591
  756POPC   PO413992  31.620  14.427   9.496
  756POPC   GL113993  31.368  14.652   9.192
  756POPC   GL213994  31.645  14.787   8.972
  756POPC   C1A13995  31.217  14.577   8.791
  756POPC   D2A13996  31.346  14.309   8.439
  756POPC   C3A13997  31.279  14.531   8.117
  756POPC   C4A13998  31.380  14.511   7.762
  756POPC   C1B13999  31.661  14.324   8.851
  756POPC   C2B14000  31.827  14.168   8.462
  756POPC   C3B14001  31.805  14.311   8.028
  756POPC   C4B14002  31.711  14.132   7.623
  757POPC   NC314003  30.440   8.007   9.457
  757POPC   PO414004  30.768   8.614   9.542
  757POPC   GL114005  30.855   8.422   9.136
  757POPC   GL214006  30.992   8.078   9.145
  757POPC   C1A14007  30.633   8.261   8.768
  757POPC   D2A14008  30.518   8.375   8.345
  757POPC   C3A14009  30.732   8.513   8.006
  757POPC   C4A14010  30.540   8.325   7.691
  757POPC   C1B14011  31.130   8.151   8.692
  757POPC   C2B14012  30.967   8.014   8.288
  757POPC   C3B14013  30.992   7.952   7.841
  757POPC   C4B14014  30.733   7.893   7.455
  758POPC   NC314015  32.687  21.380   9.441
  758POPC   PO414016  33.396  21.166   9.452
  758POPC   GL114017  33.138  21.379   9.187
  758POPC   GL214018  32.963  21.070   9.144
  758POPC   C1A14019  33.070  21.526   8.768
  758POPC   D2A14020  33.312  21.425   8.407
  758POPC   C3A14021  33.105  21.381   8.007
  758POPC   C4A14022  32.828  21.521   7.700
  758POPC   C1B14023  33.234  21.021   8.777
  758POPC   C2B14024  33.509  20.934   8.434
  758POPC   C3B14025  33.554  21.118   8.020
  758POPC   C4B14026  33.299  21.098   7.627
  759POPC   NC314027  41.913  44.492   9.737
  759POPC   PO414028  41.448  44.878   9.475
  759POPC   GL114029  41.537  44.511   9.147
  759POPC   GL214030  41.843  44.572   8.916
  759POPC   C1A14031  41.417  44.399   8.697
  759POPC   D2A14032  41.397  44.294   8.234
  759POPC   C3A14033  41.592  44.483   7.864
  759POPC   C4A14034  41.318  44.518   7.527
  759POPC   C1B14035  41.483  44.894   8.803
  759POPC   C2B14036  41.330  44.892   8.389
  759POPC   C3B14037  41.248  44.854   7.950
  759POPC   C4B14038  41.420   0.081   7.601
  760POPC   NC314039  39.042  35.569   9.530
  760POPC   PO414040  39.513  35.105   9.600
  760POPC   GL114041  39.526  35.196   9.165
  760POPC   GL214042  39.354  35.500   9.111
  760POPC   C1A14043  39.317  35.179   8.724
  760POPC   D2A14044  39.185  35.455   8.394
  760POPC   C3A14045  39.292  35.368   7.968
  760POPC   C4A14046  39.580  35.090   7.821
  760POPC   C1B14047  39.015  35.612   8.843
  760POPC   C2B14048  38.818  35.810   8.495
  760POPC   C3B14049  39.006  35.810   8.083
  760POPC   C4B14050  38.876  35.562   7.741
  761POPC   NC314051   9.189  23.809   9.551
  761POPC   PO414052   8.580  23.885   9.486
  761POPC   GL114053   8.874  23.805   9.138
  761POPC   GL214054   9.032  23.488   9.154
  761POPC   C1A14055   8.923  23.915   8.711
  761POPC   D2A14056   8.951  23.654   8.372
  761POPC   C3A14057   9.108  23.841   8.050
  761POPC   C4A14058   8.965  24.098   7.754
  761POPC   C1B14059   9.265  23.558   8.769
  761POPC   C2B14060   9.434  23.449   8.364
  761POPC   C3B14061   9.218  23.331   8.023
  761POPC   C4B14062   9.092  23.549   7.632
  762POPC   NC314063  40.466  32.239   9.410
  762POPC   PO414064  40.942  32.700   9.427
  762POPC   GL114065  40.899  32.381   9.160
  762POPC   GL214066  41.110  32.125   9.286
  762POPC   C1A14067  40.645  32.260   8.796
  762POPC   D2A14068  40.710  32.045   8.442
  762POPC   C3A14069  40.500  32.246   8.119
  762POPC   C4A14070  40.617  32.400   7.742
  762POPC   C1B14071  41.095  32.040   8.841
  762POPC   C2B14072  41.203  32.249   8.460
  762POPC   C3B14073  41.028  32.132   8.056
  762POPC   C4B14074  41.216  32.034   7.656
  763POPC   NC314075   7.394   4.013   9.535
  763POPC   PO414076   7.175   4.638   9.611
  763POPC   GL114077   7.419   4.476   9.223
  763POPC   GL214078   7.362   4.157   9.052
  763POPC   C1A14079   7.525   4.566   8.773
  763POPC   D2A14080   7.351   4.691   8.337
  763POPC   C3A14081   7.448   4.462   7.934
  763POPC   C4A14082   7.260   4.109   7.710
  763POPC   C1B14083   7.636   4.069   8.692
  763POPC   C2B14084   7.743   4.152   8.291
  763POPC   C3B14085   7.692   3.960   7.944
  763POPC   C4B14086   7.762   4.136   7.568
  764POPC   NC314087   0.478   3.976   9.461
  764POPC   PO414088   0.062   4.470   9.467
  764POPC   GL114089   0.408   4.425   9.213
  764POPC   GL214090   0.209   4.132   9.069
  764POPC   C1A14091   0.536   4.415   8.810
  764POPC   D2A14092   0.359   4.465   8.396
  764POPC   C3A14093   0.686   4.252   8.174
  764POPC   C4A14094   0.651   4.025   7.770
  764POPC   C1B14095   0.493   3.921   8.768
  764POPC   C2B14096   0.295   3.940   8.395
  764POPC   C3B14097   0.224   4.151   8.012
  764POPC   C4B14098   0.139   3.930   7.675
  765POPC   NC314099  37.017  22.286   9.571
  765POPC   PO414100  37.360  21.667   9.570
  765POPC   GL114101  37.257  22.031   9.232
  765POPC   GL214102  36.883  22.074   9.125
  765POPC   C1A14103  37.274  22.291   8.862
  765POPC   D2A14104  37.010  22.223   8.502
  765POPC   C3A14105  37.157  22.131   8.084
  765POPC   C4A14106  37.108  21.952   7.732
  765POPC   C1B14107  36.635  22.358   8.861
  765POPC   C2B14108  36.580  22.531   8.456
  765POPC   C3B14109  36.780  22.464   8.062
  765POPC   C4B14110  36.771  22.306   7.639
  766POPC   NC314111  20.892  18.784   9.532
  766POPC   PO414112  20.306  18.600   9.439
  766POPC   GL114113  20.527  18.834   9.085
  766POPC   GL214114  20.806  19.111   9.147
  766POPC   C1A14115  20.405  19.129   8.731
  766POPC   D2A14116  20.449  19.209   8.289
  766POPC   C3A14117  20.596  18.932   8.017
  766POPC   C4A14118  20.389  18.829   7.664
  766POPC   C1B14119  20.834  19.414   8.814
  766POPC   C2B14120  20.984  19.348   8.383
  766POPC   C3B14121  20.905  19.338   7.926
  766POPC   C4B14122  20.729  19.172   7.521
  767POPC   NC314123  39.811  10.865   9.477
  767POPC   PO414124  39.181  10.525   9.446
  767POPC   GL114125  39.173  10.464   9.049
  767POPC   GL214126  39.519  10.444   9.055
  767POPC   C1A14127  39.130  10.370   8.623
  767POPC   D2A14128  38.921  10.262   8.236
  767POPC   C3A14129  39.190  10.283   7.835
  767POPC   C4A14130  39.070  10.499   7.426
  767POPC   C1B14131  39.458  10.743   8.703
  767POPC   C2B14132  39.461  10.589   8.268
  767POPC   C3B14133  39.379  10.778   7.874
  767POPC   C4B14134  39.466  10.806   7.434
  768POPC   NC314135   8.814  44.261   9.445
  768POPC   PO414136   8.888  44.890   9.742
  768POPC   GL114137   9.035  44.711   9.304
  768POPC   GL214138   9.293  44.458   9.265
  768POPC   C1A14139   9.031  44.778   8.838
  768POPC   D2A14140   8.864  44.950   8.446
  768POPC   C3A14141   8.848  44.726   8.053
  768POPC   C4A14142   8.931  44.929   7.697
  768POPC   C1B14143   9.131  44.278   8.840
  768POPC   C2B14144   9.076  44.404   8.388
  768POPC   C3B14145   9.215  44.366   7.958
  768POPC   C4B14146   8.986  44.399   7.600
  769POPC   NC314147   3.195  21.848   9.422
  769POPC   PO414148   3.323  21.228   9.584
  769POPC   GL114149   3.427  21.191   9.164
  769POPC   GL214150   3.335  20.873   9.163
  769POPC   C1A14151   3.553  21.367   8.757
  769POPC   D2A14152   3.438  21.707   8.452
  769POPC   C3A14153   3.582  21.604   8.049
  769POPC   C4A14154   3.354  21.487   7.701
  769POPC   C1B14155   3.618  20.851   8.820
  769POPC   C2B14156   3.696  21.024   8.411
  769POPC   C3B14157   3.389  21.131   8.125
  769POPC   C4B14158   3.539  21.030   7.757
  770POPC   NC314159  39.755  27.578   9.477
  770POPC   PO414160  40.261  27.892   9.644
  770POPC   GL114161  40.241  27.644   9.203
  770POPC   GL214162  39.968  27.421   9.065
  770POPC   C1A14163  40.159  27.719   8.736
  770POPC   D2A14164  40.267  27.605   8.339
  770POPC   C3A14165  39.957  27.786   8.073
  770POPC   C4A14166  39.811  27.681   7.656
  770POPC   C1B14167  39.763  27.219   8.772
  770POPC   C2B14168  39.774  27.437   8.419
  770POPC   C3B14169  39.590  27.416   8.049
  770POPC   C4B14170  39.716  27.160   7.714
  771POPC   NC314171  27.023  34.005   9.441
  771POPC   PO414172  26.514  33.612   9.353
  771POPC   GL114173  26.690  33.845   9.049
  771POPC   GL214174  27.034  33.675   9.025
  771POPC   C1A14175  26.725  33.761   8.617
  771POPC   D2A14176  27.096  33.658   8.380
  771POPC   C3A14177  26.913  33.738   8.017
  771POPC   C4A14178  26.612  34.053   7.872
  771POPC   C1B14179  27.125  34.047   8.735
  771POPC   C2B14180  27.051  34.183   8.256
  771POPC   C3B14181  27.104  34.118   7.767
  771POPC   C4B14182  27.223  34.041   7.332
  772POPC   NC314183  15.109  20.135   9.462
  772POPC   PO414184  15.041  19.443   9.441
  772POPC   GL114185  15.279  19.676   9.088
  772POPC   GL214186  15.146  19.998   8.985
  772POPC   C1A14187  15.348  19.701   8.619
  772POPC   D2A14188  15.028  19.711   8.268
  772POPC   C3A14189  15.024  19.455   7.863
  772POPC   C4A14190  14.853  19.639   7.465
  772POPC   C1B14191  15.386  20.211   8.658
  772POPC   C2B14192  15.383  20.067   8.227
  772POPC   C3B14193  15.312  19.860   7.823
  772POPC   C4B14194  15.232  19.990   7.412
  773POPC   NC314195   8.625  37.037   9.519
  773POPC   PO414196   9.204  36.734   9.474
  773POPC   GL114197   8.931  36.770   9.168
  773POPC   GL214198   9.004  37.114   9.152
  773POPC   C1A14199   8.794  36.706   8.747
  773POPC   D2A14200   8.531  36.914   8.436
  773POPC   C3A14201   8.699  36.978   8.054
  773POPC   C4A14202   8.890  37.122   7.670
  773POPC   C1B14203   9.258  36.971   8.788
  773POPC   C2B14204   9.105  36.898   8.370
  773POPC   C3B14205   9.152  36.715   7.962
  773POPC   C4B14206   9.499  36.771   7.701
  774POPC   NC314207   1.536  13.293   9.341
  774POPC   PO414208   2.218  13.266   9.350
  774POPC   GL114209   1.987  13.547   9.087
  774POPC   GL214210   1.806  13.857   9.149
  774POPC   C1A14211   2.060  13.630   8.671
  774POPC   D2A14212   1.920  13.766   8.283
  774POPC   C3A14213   2.045  13.506   7.963
  774POPC   C4A14214   2.344  13.744   7.847
  774POPC   C1B14215   1.673  13.974   8.713
  774POPC   C2B14216   1.644  14.194   8.314
  774POPC   C3B14217   1.751  14.036   7.867
  774POPC   C4B14218   1.481  13.931   7.488
  775POPC   NC314219  36.847  38.390   9.471
  775POPC   PO414220  37.447  38.451   9.536
  775POPC   GL114221  37.222  38.322   9.125
  775POPC   GL214222  36.988  38.049   9.107
  775POPC   C1A14223  36.873  38.457   8.780
  775POPC   D2A14224  36.466  38.454   8.515
  775POPC   C3A14225  36.580  38.354   8.093
  775POPC   C4A14226  36.972  38.524   7.870
  775POPC   C1B14227  37.166  38.034   8.692
  775POPC   C2B14228  37.224  38.351   8.361
  775POPC   C3B14229  37.409  38.259   7.977
  775POPC   C4B14230  37.202  38.170   7.567
  776POPC   NC314231  40.393  28.290   9.455
  776POPC   PO414232  39.712  28.111   9.291
  776POPC   GL114233  39.962  28.395   9.128
  776POPC   GL214234  40.182  28.134   9.030
  776POPC   C1A14235  39.911  28.499   8.698
  776POPC   D2A14236  39.960  28.304   8.287
  776POPC   C3A14237  39.911  28.604   7.953
  776POPC   C4A14238  39.864  28.508   7.546
  776POPC   C1B14239  40.338  28.187   8.636
  776POPC   C2B14240  40.439  28.070   8.223
  776POPC   C3B14241  40.224  28.187   7.846
  776POPC   C4B14242  40.370  28.461   7.539
  777POPC   NC314243  32.518  11.397   9.643
  777POPC   PO414244  32.007  10.990   9.466
  777POPC   GL114245  31.993  11.192   9.093
  777POPC   GL214246  32.285  11.394   9.171
  777POPC   C1A14247  32.154  11.125   8.671
  777POPC   D2A14248  32.474  11.210   8.424
  777POPC   C3A14249  32.350  11.046   8.095
  777POPC   C4A14250  32.389  11.111   7.713
  777POPC   C1B14251  32.085  11.611   8.826
  777POPC   C2B14252  32.283  11.697   8.429
  777POPC   C3B14253  32.436  11.695   8.013
  777POPC   C4B14254  32.336  11.610   7.596
  778POPC   NC314255  30.307  36.862   9.506
  778POPC   PO414256  30.941  36.885   9.452
  778POPC   GL114257  30.745  36.971   9.111
  778POPC   GL214258  30.931  37.221   8.945
  778POPC   C1A14259  30.767  36.788   8.740
  778POPC   D2A14260  30.528  36.808   8.427
  778POPC   C3A14261  30.648  36.820   8.015
  778POPC   C4A14262  30.981  36.998   7.842
  778POPC   C1B14263  30.602  37.284   8.609
  778POPC   C2B14264  30.353  37.224   8.188
  778POPC   C3B14265  30.529  37.273   7.750
  778POPC   C4B14266  30.689  37.354   7.301
  779POPC   NC314267   7.653  37.159   9.721
  779POPC   PO414268   7.728  36.428   9.609
  779POPC   GL114269   7.554  36.683   9.200
  779POPC   GL214270   7.512  37.051   9.166
  779POPC   C1A14271   7.731  36.815   8.781
  779POPC   D2A14272   7.504  36.766   8.407
  779POPC   C3A14273   7.772  36.721   8.076
  779POPC   C4A14274   7.615  36.914   7.732
  779POPC   C1B14275   7.255  37.034   8.774
  779POPC   C2B14276   7.137  37.295   8.403
  779POPC   C3B14277   7.170  37.288   7.917
  779POPC   C4B14278   7.065  37.357   7.467
  780POPC   NC314279  33.725  22.546   9.370
  780POPC   PO414280  34.038  23.209   9.424
  780POPC   GL114281  33.895  23.018   9.041
  780POPC   GL214282  34.154  22.758   9.095
  780POPC   C1A14283  33.507  22.920   8.720
  780POPC   D2A14284  33.358  22.726   8.294
  780POPC   C3A14285  33.416  22.942   7.910
  780POPC   C4A14286  33.781  23.075   7.696
  780POPC   C1B14287  33.934  22.644   8.706
  780POPC   C2B14288  33.820  22.902   8.300
  780POPC   C3B14289  33.799  22.609   7.936
  780POPC   C4B14290  33.883  22.635   7.459
  781POPC   NC314291  40.538  33.735   9.508
  781POPC   PO414292  41.238  33.652   9.508
  781POPC   GL114293  41.136  33.752   9.120
  781POPC   GL214294  40.839  33.950   9.139
  781POPC   C1A14295  41.142  33.911   8.719
  781POPC   D2A14296  40.900  33.764   8.420
  781POPC   C3A14297  41.025  33.956   8.091
  781POPC   C4A14298  40.943  33.712   7.731
  781POPC   C1B14299  40.600  34.001   8.761
  781POPC   C2B14300  40.536  34.103   8.313
  781POPC   C3B14301  40.555  33.751   8.028
  781POPC   C4B14302  40.414  33.732   7.616
  782POPC   NC314303  19.426   6.193   9.928
  782POPC   PO414304  18.902   6.483   9.562
  782POPC   GL114305  18.850   6.673   9.180
  782POPC   GL214306  18.814   7.015   9.274
  782POPC   C1A14307  18.951   6.553   8.755
  782POPC   D2A14308  18.990   6.348   8.332
  782POPC   C3A14309  19.152   6.529   7.935
  782POPC   C4A14310  19.090   6.319   7.536
  782POPC   C1B14311  18.752   7.024   8.817
  782POPC   C2B14312  18.920   6.918   8.402
  782POPC   C3B14313  18.707   6.736   8.071
  782POPC   C4B14314  18.780   6.708   7.626
  783POPC   NC314315  21.021  41.787   9.398
  783POPC   PO414316  21.681  41.400   9.489
  783POPC   GL114317  21.419  41.446   9.163
  783POPC   GL214318  21.121  41.248   9.258
  783POPC   C1A14319  21.497  41.526   8.740
  783POPC   D2A14320  21.622  41.285   8.394
  783POPC   C3A14321  21.648  41.540   8.050
  783POPC   C4A14322  21.657  41.382   7.672
  783POPC   C1B14323  20.979  41.397   8.860
  783POPC   C2B14324  21.083  41.334   8.474
  783POPC   C3B14325  21.125  41.563   8.140
  783POPC   C4B14326  21.256  41.743   7.786
  784POPC   NC314327  20.334  20.862   9.296
  784POPC   PO414328  21.015  20.949   9.410
  784POPC   GL114329  20.780  20.721   9.091
  784POPC   GL214330  20.644  20.388   9.107
  784POPC   C1A14331  20.709  20.628   8.666
  784POPC   D2A14332  20.907  20.804   8.339
  784POPC   C3A14333  20.676  20.706   7.994
  784POPC   C4A14334  20.794  20.936   7.643
  784POPC   C1B14335  20.467  20.181   8.734
  784POPC   C2B14336  20.578  20.131   8.281
  784POPC   C3B14337  20.480  20.209   7.867
  784POPC   C4B14338  20.533  20.482   7.542
  785POPC   NC314339  36.478  16.951   9.386
  785POPC   PO414340  36.308  16.331   9.304
  785POPC   GL114341  36.059  16.617   9.044
  785POPC   GL214342  36.087  16.955   9.048
  785POPC   C1A14343  35.969  16.575   8.646
  785POPC   D2A14344  36.263  16.526   8.325
  785POPC   C3A14345  36.049  16.488   7.971
  785POPC   C4A14346  36.188  16.432   7.596
  785POPC   C1B14347  35.850  17.074   8.698
  785POPC   C2B14348  35.949  16.973   8.285
  785POPC   C3B14349  35.821  17.110   7.917
  785POPC   C4B14350  35.840  16.840   7.651
  786POPC   NC314351  17.267  30.343   9.533
  786POPC   PO414352  17.809  30.848   9.471
  786POPC   GL114353  17.553  30.659   9.166
  786POPC   GL214354  17.296  30.857   8.981
  786POPC   C1A14355  17.577  30.476   8.752
  786POPC   D2A14356  17.761  30.595   8.346
  786POPC   C3A14357  17.480  30.583   7.983
  786POPC   C4A14358  17.110  30.710   7.796
  786POPC   C1B14359  17.665  30.980   8.728
  786POPC   C2B14360  17.771  31.116   8.300
  786POPC   C3B14361  17.883  30.875   7.923
  786POPC   C4B14362  17.526  31.016   7.698
  787POPC   NC314363  39.517  36.830   9.392
  787POPC   PO414364  40.230  37.069   9.526
  787POPC   GL114365  40.059  36.895   9.115
  787POPC   GL214366  39.759  36.696   8.961
  787POPC   C1A14367  40.196  36.746   8.696
  787POPC   D2A14368  39.887  36.712   8.360
  787POPC   C3A14369  39.919  36.789   7.912
  787POPC   C4A14370  40.324  36.855   7.677
  787POPC   C1B14371  39.753  37.019   8.738
  787POPC   C2B14372  40.032  37.224   8.507
  787POPC   C3B14373  40.082  37.257   8.065
  787POPC   C4B14374  39.957  37.211   7.622
  788POPC   NC314375   6.007  25.011   9.549
  788POPC   PO414376   5.888  25.635   9.545
  788POPC   GL114377   6.075  25.478   9.183
  788POPC   GL214378   5.809  25.264   9.147
  788POPC   C1A14379   6.147  25.279   8.767
  788POPC   D2A14380   6.046  25.069   8.392
  788POPC   C3A14381   6.119  25.197   7.965
  788POPC   C4A14382   5.967  25.561   7.745
  788POPC   C1B14383   5.647  25.206   8.753
  788POPC   C2B14384   5.544  25.378   8.372
  788POPC   C3B14385   5.598  25.216   7.961
  788POPC   C4B14386   5.430  25.102   7.553
  789POPC   NC314387  44.579   7.817   9.831
  789POPC   PO414388  44.470   8.406   9.433
  789POPC   GL114389  44.760   8.201   9.124
  789POPC   GL214390  44.919   7.825   9.079
  789POPC   C1A14391  44.666   8.103   8.726
  789POPC   D2A14392  44.541   8.202   8.354
  789POPC   C3A14393  44.544   7.898   8.082
  789POPC   C4A14394  44.394   7.956   7.678
  789POPC   C1B14395   0.160   8.065   8.805
  789POPC   C2B14396   0.075   8.307   8.480
  789POPC   C3B14397   0.010   8.125   8.128
  789POPC   C4B14398  44.858   8.128   7.736
  790POPC   NC314399  23.248  17.007   9.382
  790POPC   PO414400  22.584  16.625   9.412
  790POPC   GL114401  22.824  16.817   9.129
  790POPC   GL214402  23.127  16.635   9.058
  790POPC   C1A14403  22.811  16.816   8.698
  790POPC   D2A14404  22.683  17.029   8.310
  790POPC   C3A14405  22.881  16.863   7.983
  790POPC   C4A14406  22.752  16.710   7.586
  790POPC   C1B14407  23.320  16.425   8.722
  790POPC   C2B14408  23.158  16.594   8.349
  790POPC   C3B14409  23.030  16.399   7.962
  790POPC   C4B14410  23.161  16.432   7.532
  791POPC   NC314411  11.029   1.028   9.819
  791POPC   PO414412  11.571   1.395   9.591
  791POPC   GL114413  11.540   1.533   9.183
  791POPC   GL214414  11.737   1.227   9.091
  791POPC   C1A14415  11.222   1.451   8.848
  791POPC   D2A14416  11.086   1.177   8.498
  791POPC   C3A14417  11.040   1.403   8.118
  791POPC   C4A14418  10.972   1.233   7.748
  791POPC   C1B14419  11.713   1.393   8.717
  791POPC   C2B14420  11.490   1.492   8.375
  791POPC   C3B14421  11.550   1.318   7.981
  791POPC   C4B14422  11.443   1.192   7.590
  792POPC   NC314423  17.254  21.551   9.373
  792POPC   PO414424  16.525  21.593   9.415
  792POPC   GL114425  16.637  21.226   9.138
  792POPC   GL214426  16.975  21.057   9.162
  792POPC   C1A14427  16.531  21.358   8.727
  792POPC   D2A14428  16.518  21.793   8.560
  792POPC   C3A14429  16.601  21.749   8.129
  792POPC   C4A14430  16.930  21.595   7.865
  792POPC   C1B14431  17.048  21.151   8.707
  792POPC   C2B14432  17.171  21.012   8.263
  792POPC   C3B14433  17.031  21.095   7.804
  792POPC   C4B14434  17.132  20.958   7.348
  793POPC   NC314435  37.406  15.514   9.739
  793POPC   PO414436  36.951  14.932   9.846
  793POPC   GL114437  37.028  14.910   9.319
  793POPC   GL214438  37.179  15.277   9.203
  793POPC   C1A14439  36.805  15.055   8.895
  793POPC   D2A14440  36.691  15.063   8.429
  793POPC   C3A14441  36.947  15.236   8.092
  793POPC   C4A14442  36.708  15.057   7.759
  793POPC   C1B14443  37.319  15.050   8.869
  793POPC   C2B14444  37.369  15.198   8.450
  793POPC   C3B14445  37.400  14.943   8.084
  793POPC   C4B14446  37.210  14.954   7.683
  794POPC   NC314447   9.616  11.385   9.517
  794POPC   PO414448   9.628  10.752   9.535
  794POPC   GL114449   9.507  11.034   9.165
  794POPC   GL214450   9.832  11.171   9.098
  794POPC   C1A14451   9.483  11.282   8.762
  794POPC   D2A14452   9.681  11.132   8.428
  794POPC   C3A14453   9.549  11.273   8.056
  794POPC   C4A14454   9.795  11.193   7.715
  794POPC   C1B14455   9.976  11.423   8.721
  794POPC   C2B14456   9.852  11.618   8.293
  794POPC   C3B14457   9.976  11.672   7.835
  794POPC   C4B14458  10.009  11.496   7.379
  795POPC   NC314459  13.213  32.459   9.269
  795POPC   PO414460  12.835  31.915   9.434
  795POPC   GL114461  12.730  32.060   9.057
  795POPC   GL214462  12.697  32.405   9.071
  795POPC   C1A14463  12.538  32.100   8.687
  795POPC   D2A14464  12.416  32.148   8.296
  795POPC   C3A14465  12.786  32.043   8.033
  795POPC   C4A14466  13.015  32.256   7.739
  795POPC   C1B14467  12.783  32.533   8.680
  795POPC   C2B14468  12.852  32.504   8.275
  795POPC   C3B14469  12.575  32.504   7.966
  795POPC   C4B14470  12.594  32.523   7.534
  796POPC   NC314471  10.399  32.837   9.535
  796POPC   PO414472  11.005  33.080   9.594
  796POPC   GL114473  10.757  33.096   9.176
  796POPC   GL214474  10.416  33.171   9.163
  796POPC   C1A14475  10.689  33.043   8.704
  796POPC   D2A14476  10.401  32.862   8.381
  796POPC   C3A14477  10.557  32.845   7.979
  796POPC   C4A14478  10.641  33.122   7.635
  796POPC   C1B14479  10.188  33.065   8.800
  796POPC   C2B14480  10.070  33.273   8.440
  796POPC   C3B14481  10.325  33.349   8.097
  796POPC   C4B14482  10.145  33.139   7.792
  797POPC   NC314483  22.461  15.523   9.160
  797POPC   PO414484  21.921  15.881   9.324
  797POPC   GL114485  22.089  16.037   8.982
  797POPC   GL214486  22.380  16.228   9.099
  797POPC   C1A14487  21.947  16.105   8.574
  797POPC   D2A14488  21.664  15.842   8.298
  797POPC   C3A14489  21.778  15.808   7.857
  797POPC   C4A14490  21.920  16.073   7.456
  797POPC   C1B14491  22.504  15.950   8.709
  797POPC   C2B14492  22.298  15.774   8.395
  797POPC   C3B14493  22.140  16.041   8.115
  797POPC   C4B14494  22.282  15.898   7.763
  798POPC   NC314495  34.274   9.359   9.456
  798POPC   PO414496  34.788   9.780   9.500
  798POPC   GL114497  34.559   9.683   9.144
  798POPC   GL214498  34.632   9.994   8.984
  798POPC   C1A14499  34.393   9.634   8.729
  798POPC   D2A14500  34.527   9.440   8.371
  798POPC   C3A14501  34.559   9.678   8.073
  798POPC   C4A14502  34.280   9.762   7.789
  798POPC   C1B14503  34.816  10.211   8.634
  798POPC   C2B14504  34.888  10.038   8.281
  798POPC   C3B14505  34.677  10.140   7.911
  798POPC   C4B14506  34.629   9.996   7.529
  799POPC   NC314507  34.840  26.230   9.957
  799POPC   PO414508  34.278  26.633   9.752
  799POPC   GL114509  34.489  26.760   9.319
  799POPC   GL214510  34.295  26.658   9.009
  799POPC   C1A14511  34.719  26.912   8.931
  799POPC   D2A14512  34.517  26.830   8.542
  799POPC   C3A14513  34.612  27.009   8.161
  799POPC   C4A14514  34.814  26.791   7.855
  799POPC   C1B14515  34.242  27.106   8.873
  799POPC   C2B14516  34.315  27.308   8.458
  799POPC   C3B14517  34.201  27.304   8.014
  799POPC   C4B14518  34.210  26.911   7.770
  800POPC   NC314519  34.277  29.197   9.520
  800POPC   PO414520  34.856  29.497   9.720
  800POPC   GL114521  34.711  29.345   9.263
  800POPC   GL214522  34.801  28.964   9.222
  800POPC   C1A14523  34.495  29.120   8.865
  800POPC   D2A14524  34.603  29.269   8.435
  800POPC   C3A14525  34.489  29.067   8.063
  800POPC   C4A14526  34.526  29.219   7.658
  800POPC   C1B14527  34.961  28.908   8.745
  800POPC   C2B14528  34.947  28.926   8.266
  800POPC   C3B14529  34.994  28.942   7.801
  800POPC   C4B14530  34.856  28.919   7.371
  801POPC   NC314531  21.833  22.600   9.374
  801POPC   PO414532  22.165  22.020   9.571
  801POPC   GL114533  22.194  21.974   9.143
  801POPC   GL214534  21.834  21.999   9.132
  801POPC   C1A14535  22.119  21.803   8.723
  801POPC   D2A14536  22.359  21.811   8.320
  801POPC   C3A14537  22.244  22.182   8.095
  801POPC   C4A14538  21.931  22.134   7.746
  801POPC   C1B14539  21.949  22.296   8.801
  801POPC   C2B14540  21.921  22.504   8.403
  801POPC   C3B14541  21.964  22.605   7.988
  801POPC   C4B14542  21.770  22.594   7.596
  802POPC   NC314543  43.280   5.221   9.476
  802POPC   PO414544  42.761   5.331   9.294
  802POPC   GL114545  43.130   5.212   8.985
  802POPC   GL214546  43.446   4.973   9.032
  802POPC   C1A14547  43.465   5.361   8.703
  802POPC   D2A14548  43.608   5.306   8.274
  802POPC   C3A14549  43.259   5.140   8.002
  802POPC   C4A14550  43.236   5.108   7.540
  802POPC   C1B14551  43.479   4.846   8.572
  802POPC   C2B14552  43.267   4.664   8.202
  802POPC   C3B14553  43.369   4.667   7.778
  802POPC   C4B14554  43.210   4.640   7.362
  803POPC   NC314555  10.743  20.135   9.692
  803POPC   PO414556  10.082  20.166   9.631
  803POPC   GL114557  10.407  19.977   9.283
  803POPC   GL214558  10.657  20.216   9.203
  803POPC   C1A14559  10.640  19.856   8.846
  803POPC   D2A14560  10.453  19.770   8.435
  803POPC   C3A14561  10.609  19.888   8.050
  803POPC   C4A14562  10.499  20.000   7.683
  803POPC   C1B14563  10.865  20.347   8.845
  803POPC   C2B14564  10.754  20.224   8.442
  803POPC   C3B14565  10.827  20.369   8.043
  803POPC   C4B14566  10.923  20.282   7.649
  804POPC   NC314567  20.401  31.625   9.447
  804POPC   PO414568  21.067  31.400   9.648
  804POPC   GL114569  21.035  31.356   9.180
  804POPC   GL214570  20.690  31.349   9.148
  804POPC   C1A14571  20.916  31.568   8.757
  804POPC   D2A14572  20.602  31.595   8.436
  804POPC   C3A14573  20.801  31.457   8.022
  804POPC   C4A14574  20.776  31.517   7.572
  804POPC   C1B14575  20.443  31.230   8.828
  804POPC   C2B14576  20.245  31.063   8.510
  804POPC   C3B14577  20.357  31.248   8.156
  804POPC   C4B14578  20.354  31.280   7.739
  805POPC   NC314579  17.280  37.745   9.314
  805POPC   PO414580  16.654  37.798   9.305
  805POPC   GL114581  16.709  37.581   8.941
  805POPC   GL214582  16.493  37.287   8.918
  805POPC   C1A14583  16.500  37.740   8.563
  805POPC   D2A14584  16.614  38.009   8.216
  805POPC   C3A14585  16.982  37.875   8.008
  805POPC   C4A14586  17.032  37.576   7.705
  805POPC   C1B14587  16.742  37.297   8.523
  805POPC   C2B14588  16.698  37.463   8.099
  805POPC   C3B14589  16.743  37.166   7.749
  805POPC   C4B14590  16.706  37.179   7.257
  806POPC   NC314591  13.883   1.375   9.245
  806POPC   PO414592  13.748   1.989   9.574
  806POPC   GL114593  13.647   1.877   9.179
  806POPC   GL214594  13.993   1.913   9.105
  806POPC   C1A14595  13.443   2.106   8.856
  806POPC   D2A14596  13.466   1.977   8.439
  806POPC   C3A14597  13.525   2.154   8.049
  806POPC   C4A14598  13.545   1.972   7.609
  806POPC   C1B14599  13.867   1.782   8.694
  806POPC   C2B14600  13.852   1.704   8.239
  806POPC   C3B14601  13.967   1.947   7.886
  806POPC   C4B14602  14.067   2.234   7.536
  807POPC   NC314603  31.226  31.669   9.547
  807POPC   PO414604  31.930  31.705   9.508
  807POPC   GL114605  31.631  31.529   9.213
  807POPC   GL214606  31.453  31.809   9.086
  807POPC   C1A14607  31.366  31.215   8.981
  807POPC   D2A14608  31.166  31.183   8.574
  807POPC   C3A14609  31.456  31.229   8.232
  807POPC   C4A14610  31.414  31.394   7.792
  807POPC   C1B14611  31.477  31.622   8.667
  807POPC   C2B14612  31.474  31.735   8.226
  807POPC   C3B14613  31.180  31.845   7.917
  807POPC   C4B14614  31.108  31.738   7.485
  808POPC   NC314615   6.578   0.098   9.503
  808POPC   PO414616   6.987   0.614   9.509
  808POPC   GL114617   6.795   0.454   9.174
  808POPC   GL214618   6.699   0.820   9.104
  808POPC   C1A14619   6.597   0.148   8.842
  808POPC   D2A14620   6.236   0.150   8.520
  808POPC   C3A14621   6.290   0.070   8.053
  808POPC   C4A14622   6.393   0.194   7.595
  808POPC   C1B14623   6.743   0.608   8.711
  808POPC   C2B14624   6.704   0.318   8.368
  808POPC   C3B14625   6.635   0.446   7.983
  808POPC   C4B14626   6.835   0.681   7.716
  809POPC   NC314627  44.291   8.915   9.497
  809POPC   PO414628  44.967   9.009   9.542
  809POPC   GL114629  44.683   9.078   9.205
  809POPC   GL214630  44.689   8.761   9.155
  809POPC   C1A14631  44.493   9.076   8.803
  809POPC   D2A14632  44.555   9.292   8.422
  809POPC   C3A14633  44.779   9.088   8.134
  809POPC   C4A14634  44.705   8.947   7.752
  809POPC   C1B14635  44.889   8.629   8.830
  809POPC   C2B14636  44.737   8.696   8.442
  809POPC   C3B14637  44.720   8.545   8.035
  809POPC   C4B14638  44.323   8.431   7.846
  810POPC   NC314639  36.842  41.806   9.503
  810POPC   PO414640  37.295  41.480   9.423
  810POPC   GL114641  36.970  41.554   9.064
  810POPC   GL214642  36.628  41.747   9.031
  810POPC   C1A14643  36.932  41.754   8.638
  810POPC   D2A14644  36.778  41.521   8.295
  810POPC   C3A14645  36.717  41.616   7.882
  810POPC   C4A14646  36.885  41.483   7.535
  810POPC   C1B14647  36.566  41.353   8.779
  810POPC   C2B14648  36.519  41.105   8.390
  810POPC   C3B14649  36.621  41.082   7.978
  810POPC   C4B14650  36.437  41.226   7.610
  811POPC   NC314651   5.407  37.306   9.322
  811POPC   PO414652   6.021  37.037   9.527
  811POPC   GL114653   5.835  37.029   9.128
  811POPC   GL214654   6.166  36.866   9.059
  811POPC   C1A14655   5.701  37.103   8.696
  811POPC   D2A14656   6.093  37.213   8.431
  811POPC   C3A14657   6.137  37.093   8.008
  811POPC   C4A14658   5.750  37.110   7.809
  811POPC   C1B14659   6.045  36.756   8.662
  811POPC   C2B14660   5.790  36.800   8.258
  811POPC   C3B14661   5.760  36.600   7.814
  811POPC   C4B14662   5.703  36.860   7.387
  812POPC   NC314663   5.963  24.340   9.404
  812POPC   PO414664   5.556  24.928   9.478
  812POPC   GL114665   5.839  24.758   9.133
  812POPC   GL214666   5.601  24.507   9.098
  812POPC   C1A14667   5.953  24.535   8.733
  812POPC   D2A14668   6.188  24.586   8.364
  812POPC   C3A14669   5.927  24.683   8.024
  812POPC   C4A14670   5.832  24.337   7.791
  812POPC   C1B14671   5.454  24.751   8.783
  812POPC   C2B14672   5.578  24.865   8.377
  812POPC   C3B14673   5.347  24.778   8.037
  812POPC   C4B14674   5.411  24.590   7.661
  813POPC   NC314675  44.167   0.708   9.470
  813POPC   PO414676  43.657   1.277   9.446
  813POPC   GL114677  43.735   0.928   9.193
  813POPC   GL214678  44.083   1.053   9.090
  813POPC   C1A14679  43.709   0.930   8.761
  813POPC   D2A14680  44.032   1.049   8.465
  813POPC   C3A14681  43.786   0.962   8.140
  813POPC   C4A14682  43.653   1.046   7.778
  813POPC   C1B14683  43.928   1.415   8.827
  813POPC   C2B14684  44.080   1.567   8.420
  813POPC   C3B14685  43.976   1.422   8.016
  813POPC   C4B14686  44.171   1.108   7.792
  814POPC   NC314687  20.259  36.474   9.362
  814POPC   PO414688  20.592  35.915   9.542
  814POPC   GL114689  20.663  36.117   9.146
  814POPC   GL214690  20.916  36.351   9.142
  814POPC   C1A14691  20.618  35.950   8.721
  814POPC   D2A14692  20.483  35.926   8.294
  814POPC   C3A14693  20.678  36.026   7.877
  814POPC   C4A14694  20.796  35.799   7.449
  814POPC   C1B14695  21.092  36.076   8.823
  814POPC   C2B14696  21.074  35.787   8.480
  814POPC   C3B14697  21.096  36.074   8.154
  814POPC   C4B14698  21.084  36.279   7.740
  815POPC   NC314699  35.639  18.257   9.455
  815POPC   PO414700  35.076  18.086   9.761
  815POPC   GL114701  35.166  18.292   9.276
  815POPC   GL214702  35.346  18.597   9.191
  815POPC   C1A14703  35.053  18.254   8.815
  815POPC   D2A14704  34.990  18.332   8.347
  815POPC   C3A14705  35.317  18.118   8.122
  815POPC   C4A14706  35.456  18.052   7.713
  815POPC   C1B14707  35.527  18.519   8.796
  815POPC   C2B14708  35.600  18.553   8.343
  815POPC   C3B14709  35.354  18.592   7.960
  815POPC   C4B14710  35.471  18.525   7.520
  816POPC   NC314711  38.254   4.910   9.563
  816POPC   PO414712  38.253   5.527   9.356
  816POPC   GL114713  38.434   5.167   9.128
  816POPC   GL214714  38.195   4.930   9.060
  816POPC   C1A14715  38.689   4.939   8.799
  816POPC   D2A14716  38.721   4.893   8.331
  816POPC   C3A14717  38.525   5.167   8.017
  816POPC   C4A14718  38.544   5.065   7.591
  816POPC   C1B14719  38.246   5.087   8.646
  816POPC   C2B14720  38.173   4.833   8.275
  816POPC   C3B14721  38.054   5.013   7.908
  816POPC   C4B14722  38.043   5.444   7.899
  817POPC   NC314723  25.754  38.866   9.481
  817POPC   PO414724  26.066  39.457   9.512
  817POPC   GL114725  25.931  39.283   9.158
  817POPC   GL214726  25.702  39.490   9.003
  817POPC   C1A14727  26.077  39.291   8.724
  817POPC   D2A14728  25.781  39.383   8.388
  817POPC   C3A14729  26.004  39.422   8.017
  817POPC   C4A14730  25.950  39.447   7.615
  817POPC   C1B14731  25.635  39.049   8.780
  817POPC   C2B14732  25.543  38.911   8.334
  817POPC   C3B14733  25.645  39.016   7.900
  817POPC   C4B14734  25.769  38.951   7.443
  818POPC   NC314735   8.371  26.780   9.510
  818POPC   PO414736   7.706  27.077   9.394
  818POPC   GL114737   7.951  26.789   9.211
  818POPC   GL214738   8.170  27.071   9.143
  818POPC   C1A14739   7.899  26.629   8.806
  818POPC   D2A14740   7.992  26.901   8.463
  818POPC   C3A14741   8.004  26.761   8.058
  818POPC   C4A14742   7.856  26.612   7.685
  818POPC   C1B14743   8.368  26.845   8.831
  818POPC   C2B14744   8.522  26.859   8.424
  818POPC   C3B14745   8.456  26.985   8.021
  818POPC   C4B14746   8.394  26.656   7.710
  819POPC   NC314747  40.580  39.815   9.611
  819POPC   PO414748  40.877  40.409   9.350
  819POPC   GL114749  40.700  40.141   9.084
  819POPC   GL214750  40.784  39.812   9.158
  819POPC   C1A14751  40.751  40.038   8.662
  819POPC   D2A14752  40.879  39.805   8.296
  819POPC   C3A14753  40.890  40.019   7.907
  819POPC   C4A14754  40.495  40.253   7.830
  819POPC   C1B14755  40.429  39.710   8.896
  819POPC   C2B14756  40.377  39.742   8.470
  819POPC   C3B14757  40.471  39.573   8.064
  819POPC   C4B14758  40.544  39.744   7.656
  820POPC   NC314759   5.948  33.780   9.534
  820POPC   PO414760   6.235  33.134   9.636
  820POPC   GL114761   6.124  33.392   9.236
  820POPC   GL214762   5.755  33.535   9.131
  820POPC   C1A14763   6.141  33.651   8.855
  820POPC   D2A14764   6.023  33.635   8.437
  820POPC   C3A14765   6.216  33.485   8.123
  820POPC   C4A14766   6.151  33.826   7.851
  820POPC   C1B14767   5.656  33.820   8.734
  820POPC   C2B14768   5.684  33.979   8.268
  820POPC   C3B14769   5.520  33.938   7.829
  820POPC   C4B14770   5.630  34.210   7.472
  821POPC   NC314771  11.384  35.770   9.480
  821POPC   PO414772  11.429  36.371   9.518
  821POPC   GL114773  11.262  36.188   9.169
  821POPC   GL214774  10.988  35.932   9.172
  821POPC   C1A14775  11.112  36.292   8.781
  821POPC   D2A14776  10.984  36.139   8.407
  821POPC   C3A14777  11.160  36.291   8.029
  821POPC   C4A14778  11.460  36.162   7.751
  821POPC   C1B14779  11.053  35.714   8.766
  821POPC   C2B14780  10.755  35.679   8.415
  821POPC   C3B14781  10.837  35.838   8.022
  821POPC   C4B14782  11.135  35.752   7.706
  822POPC   NC314783  43.871  43.326   9.549
  822POPC   PO414784  44.148  42.744   9.686
  822POPC   GL114785  43.949  42.967   9.227
  822POPC   GL214786  43.634  42.843   9.011
  822POPC   C1A14787  43.964  43.231   8.811
  822POPC   D2A14788  44.094  43.175   8.351
  822POPC   C3A14789  43.991  43.327   7.991
  822POPC   C4A14790  44.007  43.176   7.574
  822POPC   C1B14791  43.474  43.161   8.700
  822POPC   C2B14792  43.608  43.426   8.351
  822POPC   C3B14793  43.502  43.360   7.915
  822POPC   C4B14794  43.541  43.001   7.702
  823POPC   NC314795  30.219  32.858   9.778
  823POPC   PO414796  29.796  33.323   9.545
  823POPC   GL114797  29.882  33.018   9.226
  823POPC   GL214798  30.206  32.845   9.270
  823POPC   C1A14799  29.647  32.881   8.854
  823POPC   D2A14800  29.675  33.043   8.457
  823POPC   C3A14801  29.743  32.770   8.138
  823POPC   C4A14802  29.841  32.989   7.784
  823POPC   C1B14803  30.196  33.010   8.822
  823POPC   C2B14804  30.202  33.026   8.360
  823POPC   C3B14805  30.335  32.955   7.923
  823POPC   C4B14806  30.236  32.884   7.497
  824POPC   NC314807  21.747  19.362   9.396
  824POPC   PO414808  21.142  19.176   9.588
  824POPC   GL114809  21.315  18.962   9.223
  824POPC   GL214810  21.667  18.891   9.138
  824POPC   C1A14811  21.298  19.098   8.794
  824POPC   D2A14812  21.166  18.845   8.445
  824POPC   C3A14813  21.312  19.030   8.089
  824POPC   C4A14814  21.368  19.154   7.658
  824POPC   C1B14815  21.560  18.659   8.732
  824POPC   C2B14816  21.654  18.592   8.257
  824POPC   C3B14817  21.593  18.696   7.805
  824POPC   C4B14818  21.607  18.789   7.356
  825POPC   NC314819  27.879   4.793   9.426
  825POPC   PO414820  27.487   5.374   9.592
  825POPC   GL114821  27.399   5.247   9.161
  825POPC   GL214822  27.759   5.186   9.143
  825POPC   C1A14823  27.521   5.157   8.714
  825POPC   D2A14824  27.491   4.802   8.452
  825POPC   C3A14825  27.621   4.983   8.070
  825POPC   C4A14826  27.812   4.832   7.708
  825POPC   C1B14827  28.018   5.303   8.768
  825POPC   C2B14828  28.024   5.331   8.314
  825POPC   C3B14829  28.012   5.403   7.854
  825POPC   C4B14830  27.911   5.288   7.422
  826POPC   NC314831  24.327  21.106   9.383
  826POPC   PO414832  24.527  20.534   9.648
  826POPC   GL114833  24.594  20.465   9.210
  826POPC   GL214834  24.313  20.644   9.136
  826POPC   C1A14835  24.752  20.506   8.785
  826POPC   D2A14836  24.742  20.739   8.384
  826POPC   C3A14837  24.793  20.528   7.985
  826POPC   C4A14838  24.612  20.517   7.605
  826POPC   C1B14839  24.238  20.479   8.730
  826POPC   C2B14840  24.379  20.400   8.310
  826POPC   C3B14841  24.173  20.404   7.912
  826POPC   C4B14842  24.045  20.721   7.615
  827POPC   NC314843  34.346   3.803   9.510
  827POPC   PO414844  34.738   3.296   9.595
  827POPC   GL114845  34.592   3.490   9.189
  827POPC   GL214846  34.793   3.785   9.207
  827POPC   C1A14847  34.520   3.696   8.777
  827POPC   D2A14848  34.521   3.473   8.405
  827POPC   C3A14849  34.441   3.670   8.005
  827POPC   C4A14850  34.466   3.400   7.646
  827POPC   C1B14851  34.999   3.834   8.788
  827POPC   C2B14852  34.951   3.728   8.352
  827POPC   C3B14853  34.924   3.511   7.942
  827POPC   C4B14854  34.837   3.744   7.569
  828POPC   NC314855   8.562  12.740   9.511
  828POPC   PO414856   9.203  12.598   9.597
  828POPC   GL114857   9.001  12.763   9.218
  828POPC   GL214858   8.712  12.537   9.063
  828POPC   C1A14859   9.037  13.015   8.829
  828POPC   D2A14860   9.049  13.228   8.416
  828POPC   C3A14861   9.224  12.992   8.093
  828POPC   C4A14862   9.141  13.083   7.707
  828POPC   C1B14863   8.569  12.768   8.674
  828POPC   C2B14864   8.774  12.797   8.300
  828POPC   C3B14865   8.853  12.685   7.887
  828POPC   C4B14866   9.261  12.576   7.712
  829POPC   NC314867  41.545  35.512   9.641
  829POPC   PO414868  42.116  35.233   9.505
  829POPC   GL114869  41.786  35.304   9.173
  829POPC   GL214870  41.596  35.011   9.067
  829POPC   C1A14871  41.601  35.489   8.757
  829POPC   D2A14872  41.710  35.779   8.375
  829POPC   C3A14873  41.730  35.606   7.958
  829POPC   C4A14874  41.364  35.436   7.720
  829POPC   C1B14875  41.926  35.035   8.730
  829POPC   C2B14876  41.825  35.241   8.357
  829POPC   C3B14877  41.416  35.300   8.205
  829POPC   C4B14878  41.170  34.985   7.919
  830POPC   NC314879   5.766   1.946   9.249
  830POPC   PO414880   6.160   2.351   9.258
  830POPC   GL114881   5.891   2.352   8.954
  830POPC   GL214882   6.041   2.045   8.828
  830POPC   C1A14883   5.908   2.391   8.504
  830POPC   D2A14884   5.872   2.022   8.325
  830POPC   C3A14885   5.823   2.169   7.964
  830POPC   C4A14886   6.070   2.362   7.689
  830POPC   C1B14887   5.945   1.620   8.721
  830POPC   C2B14888   5.868   1.469   8.339
  830POPC   C3B14889   5.967   1.640   7.970
  830POPC   C4B14890   6.104   1.840   7.645
  831POPC   NC314891  31.960  36.645   9.598
  831POPC   PO414892  31.533  36.045   9.468
  831POPC   GL114893  31.434  36.076   9.064
  831POPC   GL214894  31.455  36.425   9.053
  831POPC   C1A14895  31.518  36.154   8.633
  831POPC   D2A14896  31.426  36.245   8.213
  831POPC   C3A14897  31.653  36.400   7.916
  831POPC   C4A14898  31.550  36.120   7.611
  831POPC   C1B14899  31.073  36.370   8.758
  831POPC   C2B14900  30.961  36.513   8.322
  831POPC   C3B14901  31.123  36.499   7.883
  831POPC   C4B14902  31.315  36.542   7.460
  832POPC   NC314903  17.078  10.808   9.382
  832POPC   PO414904  16.835  10.242   9.473
  832POPC   GL114905  16.854  10.414   9.107
  832POPC   GL214906  16.548  10.610   9.131
  832POPC   C1A14907  16.866  10.630   8.740
  832POPC   D2A14908  16.561  10.661   8.425
  832POPC   C3A14909  16.716  10.545   8.046
  832POPC   C4A14910  17.005  10.553   7.752
  832POPC   C1B14911  16.426  10.330   8.781
  832POPC   C2B14912  16.396  10.159   8.383
  832POPC   C3B14913  16.239  10.364   8.028
  832POPC   C4B14914  16.145  10.226   7.653
  833POPC   NC314915  35.238   9.613   9.537
  833POPC   PO414916  35.272   8.955   9.762
  833POPC   GL114917  35.288   8.902   9.289
  833POPC   GL214918  35.089   9.199   9.216
  833POPC   C1A14919  35.387   8.753   8.838
  833POPC   D2A14920  35.148   8.621   8.425
  833POPC   C3A14921  35.195   8.815   8.007
  833POPC   C4A14922  35.627   8.870   7.839
  833POPC   C1B14923  35.178   9.210   8.762
  833POPC   C2B14924  35.396   9.092   8.387
  833POPC   C3B14925  35.382   9.310   8.004
  833POPC   C4B14926  35.467   9.626   7.691
  834POPC   NC314927  37.237  39.285   9.522
  834POPC   PO414928  36.746  38.846   9.384
  834POPC   GL114929  36.784  39.223   9.110
  834POPC   GL214930  37.127  39.431   9.066
  834POPC   C1A14931  36.619  38.982   8.732
  834POPC   D2A14932  36.828  38.773   8.337
  834POPC   C3A14933  36.781  38.994   7.918
  834POPC   C4A14934  37.080  38.971   7.569
  834POPC   C1B14935  37.082  39.185   8.702
  834POPC   C2B14936  36.807  39.285   8.362
  834POPC   C3B14937  36.794  39.492   7.998
  834POPC   C4B14938  37.041  39.464   7.686
  835POPC   NC314939   9.649  18.203   9.364
  835POPC   PO414940  10.096  18.556   9.647
  835POPC   GL114941   9.936  18.634   9.146
  835POPC   GL214942   9.761  18.359   8.912
  835POPC   C1A14943   9.943  18.726   8.660
  835POPC   D2A14944   9.627  18.457   8.406
  835POPC   C3A14945   9.757  18.319   7.976
  835POPC   C4A14946  10.148  18.480   7.744
  835POPC   C1B14947   9.521  18.004   8.758
  835POPC   C2B14948   9.402  17.994   8.355
  835POPC   C3B14949   9.268  17.895   7.994
  835POPC   C4B14950   9.444  18.013   7.644
  836POPC   NC314951   2.476   4.379   9.543
  836POPC   PO414952   3.053   4.110   9.622
  836POPC   GL114953   3.001   4.322   9.203
  836POPC   GL214954   2.801   4.600   9.208
  836POPC   C1A14955   2.835   4.268   8.796
  836POPC   D2A14956   2.624   3.989   8.543
  836POPC   C3A14957   2.666   4.112   8.134
  836POPC   C4A14958   2.745   4.145   7.734
  836POPC   C1B14959   2.672   4.754   8.829
  836POPC   C2B14960   2.667   4.598   8.416
  836POPC   C3B14961   2.394   4.574   8.105
  836POPC   C4B14962   2.535   4.603   7.717
  837POPC   NC314963  32.122  31.272   9.479
  837POPC   PO414964  32.718  31.653   9.533
  837POPC   GL114965  32.464  31.527   9.185
  837POPC   GL214966  32.133  31.565   9.069
  837POPC   C1A14967  32.455  31.323   8.769
  837POPC   D2A14968  32.315  31.430   8.395
  837POPC   C3A14969  32.649  31.368   8.119
  837POPC   C4A14970  32.403  31.277   7.768
  837POPC   C1B14971  31.957  31.809   8.761
  837POPC   C2B14972  31.982  31.890   8.341
  837POPC   C3B14973  31.918  31.610   7.997
  837POPC   C4B14974  31.702  31.804   7.686
  838POPC   NC314975  16.568  23.668   9.494
  838POPC   PO414976  17.186  23.494   9.335
  838POPC   GL114977  16.758  23.412   9.081
  838POPC   GL214978  16.360  23.537   9.062
  838POPC   C1A14979  16.787  23.415   8.622
  838POPC   D2A14980  16.971  23.497   8.172
  838POPC   C3A14981  16.832  23.704   7.791
  838POPC   C4A14982  16.871  24.068   7.530
  838POPC   C1B14983  16.349  23.707   8.666
  838POPC   C2B14984  16.470  23.576   8.250
  838POPC   C3B14985  16.340  23.585   7.845
  838POPC   C4B14986  16.491  23.484   7.460
  839POPC   NC314987  19.330  11.323   9.762
  839POPC   PO414988  18.705  11.596   9.594
  839POPC   GL114989  18.864  11.581   9.169
  839POPC   GL214990  18.998  11.289   9.114
  839POPC   C1A14991  19.092  11.651   8.772
  839POPC   D2A14992  18.981  11.466   8.393
  839POPC   C3A14993  19.026  11.590   8.024
  839POPC   C4A14994  18.848  11.589   7.654
  839POPC   C1B14995  18.877  11.123   8.720
  839POPC   C2B14996  19.111  11.003   8.274
  839POPC   C3B14997  19.043  11.134   7.820
  839POPC   C4B14998  18.912  11.182   7.370
  840POPC   NC314999  44.589   3.101   9.672
  840POPC   PO415000  44.489   3.685   9.613
  840POPC   GL115001  44.640   3.582   9.189
  840POPC   GL215002  44.874   3.320   9.114
  840POPC   C1A15003  44.410   3.595   8.770
  840POPC   D2A15004  44.334   3.404   8.344
  840POPC   C3A15005  44.516   3.539   7.942
  840POPC   C4A15006  44.945   3.498   7.833
  840POPC   C1B15007  44.751   3.225   8.655
  840POPC   C2B15008  44.781   3.162   8.171
  840POPC   C3B15009  44.771   3.068   7.688
  840POPC   C4B15010   0.014   3.188   7.319
  841POPC   NC315011  30.328  28.739   9.483
  841POPC   PO415012  30.818  28.186   9.537
  841POPC   GL115013  30.947  28.268   9.140
  841POPC   GL215014  30.637  28.479   9.120
  841POPC   C1A15015  31.011  28.424   8.738
  841POPC   D2A15016  30.789  28.372   8.343
  841POPC   C3A15017  31.006  28.374   7.972
  841POPC   C4A15018  30.936  28.489   7.544
  841POPC   C1B15019  30.503  28.231   8.758
  841POPC   C2B15020  30.260  28.335   8.383
  841POPC   C3B15021  30.350  28.368   7.955
  841POPC   C4B15022  30.629  28.067   7.781
  842POPC   NC315023  36.893  12.477   9.549
  842POPC   PO415024  36.985  13.151   9.525
  842POPC   GL115025  37.067  12.964   9.093
  842POPC   GL215026  37.021  12.614   9.089
  842POPC   C1A15027  37.083  13.154   8.681
  842POPC   D2A15028  36.994  13.305   8.289
  842POPC   C3A15029  36.879  12.984   8.006
  842POPC   C4A15030  37.250  12.892   7.807
  842POPC   C1B15031  37.222  12.641   8.732
  842POPC   C2B15032  37.029  12.697   8.389
  842POPC   C3B15033  37.065  12.475   8.022
  842POPC   C4B15034  36.728  12.440   7.747
  843POPC   NC315035  38.048   2.698   9.431
  843POPC   PO415036  37.405   2.954   9.546
  843POPC   GL115037  37.619   2.912   9.185
  843POPC   GL215038  37.617   2.565   9.135
  843POPC   C1A15039  37.795   2.924   8.771
  843POPC   D2A15040  37.884   2.727   8.384
  843POPC   C3A15041  37.613   2.604   8.066
  843POPC   C4A15042  37.753   2.823   7.699
  843POPC   C1B15043  37.887   2.404   8.789
  843POPC   C2B15044  37.943   2.232   8.385
  843POPC   C3B15045  38.073   2.410   7.974
  843POPC   C4B15046  37.864   2.352   7.558
  844POPC   NC315047  25.909  23.949   9.321
  844POPC   PO415048  26.236  23.443   9.244
  844POPC   GL115049  26.007  23.638   8.938
  844POPC   GL215050  25.651  23.705   8.985
  844POPC   C1A15051  26.102  23.914   8.633
  844POPC   D2A15052  26.064  23.672   8.311
  844POPC   C3A15053  26.297  23.745   7.989
  844POPC   C4A15054  26.118  23.500   7.698
  844POPC   C1B15055  25.632  24.101   8.721
  844POPC   C2B15056  25.769  24.115   8.282
  844POPC   C3B15057  25.815  23.856   7.906
  844POPC   C4B15058  25.848  23.996   7.490
  845POPC   NC315059  23.319   3.882   9.184
  845POPC   PO415060  23.641   3.491   9.703
  845POPC   GL115061  23.585   3.429   9.203
  845POPC   GL215062  23.897   3.506   9.028
  845POPC   C1A15063  23.518   3.490   8.705
  845POPC   D2A15064  23.364   3.501   8.272
  845POPC   C3A15065  23.590   3.551   7.857
  845POPC   C4A15066  23.360   3.364   7.523
  845POPC   C1B15067  23.914   3.849   8.703
  845POPC   C2B15068  23.881   3.794   8.260
  845POPC   C3B15069  23.958   3.960   7.872
  845POPC   C4B15070  23.825   3.898   7.462
  846POPC   NC315071   4.963  11.450   9.574
  846POPC   PO415072   5.499  11.042   9.634
  846POPC   GL115073   5.257  11.081   9.272
  846POPC   GL215074   5.365  11.422   9.202
  846POPC   C1A15075   5.084  11.159   8.851
  846POPC   D2A15076   5.243  11.075   8.438
  846POPC   C3A15077   5.146  11.312   8.040
  846POPC   C4A15078   5.140  11.162   7.649
  846POPC   C1B15079   5.401  11.563   8.766
  846POPC   C2B15080   5.517  11.499   8.326
  846POPC   C3B15081   5.470  11.688   7.906
  846POPC   C4B15082   5.164  11.674   7.597
  847POPC   NC315083   3.334   6.909   9.462
  847POPC   PO415084   3.750   6.376   9.482
  847POPC   GL115085   3.571   6.591   9.125
  847POPC   GL215086   3.726   6.892   9.083
  847POPC   C1A15087   3.326   6.441   8.774
  847POPC   D2A15088   3.524   6.495   8.394
  847POPC   C3A15089   3.265   6.593   8.074
  847POPC   C4A15090   3.387   6.426   7.687
  847POPC   C1B15091   3.444   6.932   8.708
  847POPC   C2B15092   3.577   7.011   8.280
  847POPC   C3B15093   3.594   6.912   7.837
  847POPC   C4B15094   3.656   7.153   7.436
  848POPC   NC315095  40.995  26.489   9.567
  848POPC   PO415096  40.444  26.910   9.585
  848POPC   GL115097  40.688  26.731   9.236
  848POPC   GL215098  40.977  26.965   9.204
  848POPC   C1A15099  40.926  26.580   8.854
  848POPC   D2A15100  41.101  26.727   8.440
  848POPC   C3A15101  40.935  26.777   8.027
  848POPC   C4A15102  41.039  26.935   7.647
  848POPC   C1B15103  40.784  27.058   8.763
  848POPC   C2B15104  40.709  27.173   8.314
  848POPC   C3B15105  40.656  27.219   7.843
  848POPC   C4B15106  40.650  27.485   7.466
  849POPC   NC315107  42.734  28.663   9.508
  849POPC   PO415108  43.376  28.343   9.697
  849POPC   GL115109  43.265  28.279   9.222
  849POPC   GL215110  42.938  28.391   9.118
  849POPC   C1A15111  43.220  28.127   8.787
  849POPC   D2A15112  43.132  28.012   8.365
  849POPC   C3A15113  42.846  28.207   8.067
  849POPC   C4A15114  43.075  28.458   7.758
  849POPC   C1B15115  42.683  28.592   8.802
  849POPC   C2B15116  42.692  28.774   8.386
  849POPC   C3B15117  42.631  28.653   7.953
  849POPC   C4B15118  42.642  28.483   7.505
  850POPC   NC315119  42.461  29.445   9.509
  850POPC   PO415120  42.216  28.799   9.573
  850POPC   GL115121  42.346  28.987   9.229
  850POPC   GL215122  42.123  29.245   9.168
  850POPC   C1A15123  42.490  29.062   8.818
  850POPC   D2A15124  42.502  29.247   8.420
  850POPC   C3A15125  42.338  29.098   8.031
  850POPC   C4A15126  42.555  29.046   7.654
  850POPC   C1B15127  42.102  29.403   8.775
  850POPC   C2B15128  41.988  29.358   8.349
  850POPC   C3B15129  42.064  29.551   7.950
  850POPC   C4B15130  42.389  29.531   7.677
  851POPC   NC315131  20.243   2.965   9.506
  851POPC   PO415132  20.651   2.452   9.421
  851POPC   GL115133  20.719   2.744   9.065
  851POPC   GL215134  20.724   3.108   9.118
  851POPC   C1A15135  20.401   2.860   8.736
  851POPC   D2A15136  20.150   2.694   8.380
  851POPC   C3A15137  20.443   2.495   8.114
  851POPC   C4A15138  20.694   2.655   7.796
  851POPC   C1B15139  20.570   3.340   8.744
  851POPC   C2B15140  20.357   3.298   8.330
  851POPC   C3B15141  20.340   2.995   7.982
  851POPC   C4B15142  20.423   3.017   7.538
  852POPC   NC315143  16.515   2.552   9.376
  852POPC   PO415144  17.041   2.984   9.196
  852POPC   GL115145  16.800   2.714   8.991
  852POPC   GL215146  17.036   2.450   8.928
  852POPC   C1A15147  16.552   2.890   8.661
  852POPC   D2A15148  16.731   3.017   8.265
  852POPC   C3A15149  16.611   2.712   7.990
  852POPC   C4A15150  16.305   2.830   7.779
  852POPC   C1B15151  17.097   2.689   8.563
  852POPC   C2B15152  17.239   2.898   8.206
  852POPC   C3B15153  17.049   2.863   7.794
  852POPC   C4B15154  17.114   2.723   7.352
  853POPC   NC315155  15.427   3.637   9.734
  853POPC   PO415156  14.853   3.783   9.584
  853POPC   GL115157  15.151   3.620   9.293
  853POPC   GL215158  15.327   3.926   9.290
  853POPC   C1A15159  15.077   3.438   8.893
  853POPC   D2A15160  15.073   3.198   8.537
  853POPC   C3A15161  15.007   3.453   8.207
  853POPC   C4A15162  15.120   3.474   7.785
  853POPC   C1B15163  15.211   3.927   8.855
  853POPC   C2B15164  15.353   3.746   8.469
  853POPC   C3B15165  15.303   3.874   8.055
  853POPC   C4B15166  15.417   3.899   7.636
  854POPC   NC315167  13.869   3.226   9.329
  854POPC   PO415168  13.593   3.839   9.424
  854POPC   GL115169  13.652   3.619   9.048
  854POPC   GL215170  13.483   3.263   9.001
  854POPC   C1A15171  13.416   3.646   8.672
  854POPC   D2A15172  13.464   3.402   8.312
  854POPC   C3A15173  13.391   3.601   7.917
  854POPC   C4A15174  13.397   3.341   7.552
  854POPC   C1B15175  13.835   3.337   8.671
  854POPC   C2B15176  14.018   3.381   8.270
  854POPC   C3B15177  13.784   3.249   7.913
  854POPC   C4B15178  13.868   3.502   7.594
  855POPC   NC315179  10.669  35.072   9.521
  855POPC   PO415180  10.133  35.510   9.694
  855POPC   GL115181  10.303  35.241   9.262
  855POPC   GL215182  10.582  35.418   9.082
  855POPC   C1A15183  10.233  35.169   8.785
  855POPC   D2A15184  10.411  35.292   8.380
  855POPC   C3A15185  10.236  35.361   7.994
  855POPC   C4A15186  10.247  35.128   7.625
  855POPC   C1B15187  10.770  35.255   8.751
  855POPC   C2B15188  10.773  34.937   8.459
  855POPC   C3B15189  10.817  35.101   8.035
  855POPC   C4B15190  10.705  35.418   7.768
  856POPC   NC315191   1.814   8.117   9.528
  856POPC   PO415192   2.465   8.258   9.360
  856POPC   GL115193   2.147   8.066   9.102
  856POPC   GL215194   1.870   8.295   9.059
  856POPC   C1A15195   2.078   8.067   8.652
  856POPC   D2A15196   2.088   8.364   8.314
  856POPC   C3A15197   2.267   8.231   7.933
  856POPC   C4A15198   2.226   7.887   7.664
  856POPC   C1B15199   1.764   8.507   8.669
  856POPC   C2B15200   1.494   8.479   8.344
  856POPC   C3B15201   1.657   8.503   7.958
  856POPC   C4B15202   1.922   8.433   7.599
  857POPC   NC315203   6.982  35.063   9.477
  857POPC   PO415204   6.828  35.732   9.541
  857POPC   GL115205   6.768  35.442   9.210
  857POPC   GL215206   7.108  35.438   9.139
  857POPC   C1A15207   6.770  35.522   8.753
  857POPC   D2A15208   6.846  35.647   8.328
  857POPC   C3A15209   6.477  35.482   8.090
  857POPC   C4A15210   6.427  35.278   7.683
  857POPC   C1B15211   7.093  35.129   8.802
  857POPC   C2B15212   6.846  35.120   8.402
  857POPC   C3B15213   6.905  35.203   7.955
  857POPC   C4B15214   6.821  34.928   7.600
  858POPC   NC315215  22.131  37.764   9.384
  858POPC   PO415216  22.478  37.288   9.490
  858POPC   GL115217  22.255  37.305   9.102
  858POPC   GL215218  21.919  37.464   9.050
  858POPC   C1A15219  22.311  37.414   8.681
  858POPC   D2A15220  22.229  37.813   8.509
  858POPC   C3A15221  22.205  37.808   8.084
  858POPC   C4A15222  22.448  37.449   7.977
  858POPC   C1B15223  21.808  37.848   8.822
  858POPC   C2B15224  21.735  37.853   8.403
  858POPC   C3B15225  21.743  38.033   8.001
  858POPC   C4B15226  21.889  37.796   7.649
  859POPC   NC315227  11.495   5.682   9.362
  859POPC   PO415228  11.097   6.195   9.595
  859POPC   GL115229  11.188   6.084   9.170
  859POPC   GL215230  11.500   6.236   9.039
  859POPC   C1A15231  11.173   5.924   8.737
  859POPC   D2A15232  11.345   6.015   8.318
  859POPC   C3A15233  11.402   5.741   7.979
  859POPC   C4A15234  11.361   6.112   7.761
  859POPC   C1B15235  11.689   5.976   8.709
  859POPC   C2B15236  11.751   5.686   8.374
  859POPC   C3B15237  11.934   5.605   7.972
  859POPC   C4B15238  11.773   5.835   7.627
  860POPC   NC315239  17.481  36.854   9.721
  860POPC   PO415240  17.560  37.403   9.453
  860POPC   GL115241  17.295  37.214   9.119
  860POPC   GL215242  17.259  36.863   9.224
  860POPC   C1A15243  17.300  37.167   8.643
  860POPC   D2A15244  17.565  37.218   8.236
  860POPC   C3A15245  17.431  37.037   7.835
  860POPC   C4A15246  17.154  37.096   7.484
  860POPC   C1B15247  17.319  36.676   8.792
  860POPC   C2B15248  17.364  36.732   8.330
  860POPC   C3B15249  17.454  36.525   7.941
  860POPC   C4B15250  17.729  36.557   7.575
  861POPC   NC315251  34.314  24.618   9.320
  861POPC   PO415252  34.990  24.374   9.412
  861POPC   GL115253  34.667  24.268   9.147
  861POPC   GL215254  34.892  24.032   9.028
  861POPC   C1A15255  34.456  24.414   8.741
  861POPC   D2A15256  34.129  24.419   8.449
  861POPC   C3A15257  34.341  24.490   8.080
  861POPC   C4A15258  34.443  24.263   7.765
  861POPC   C1B15259  34.976  24.410   8.770
  861POPC   C2B15260  34.797  24.731   8.472
  861POPC   C3B15261  34.825  24.713   8.027
  861POPC   C4B15262  34.587  24.768   7.666
  862POPC   NC315263   8.441  16.823   9.177
  862POPC   PO415264   7.833  16.768   9.427
  862POPC   GL115265   7.927  16.733   9.025
  862POPC   GL215266   8.149  16.491   8.913
  862POPC   C1A15267   7.991  17.003   8.699
  862POPC   D2A15268   8.303  17.202   8.464
  862POPC   C3A15269   8.129  17.094   8.089
  862POPC   C4A15270   8.079  16.829   7.695
  862POPC   C1B15271   8.411  16.680   8.534
  862POPC   C2B15272   8.372  16.655   8.072
  862POPC   C3B15273   8.477  16.525   7.662
  862POPC   C4B15274   8.448  16.662   7.248
  863POPC   NC315275  30.085  19.018   9.616
  863POPC   PO415276  29.689  19.570   9.566
  863POPC   GL115277  29.794  19.214   9.219
  863POPC   GL215278  30.048  18.947   9.107
  863POPC   C1A15279  29.923  19.284   8.767
  863POPC   D2A15280  29.944  19.070   8.375
  863POPC   C3A15281  29.876  19.249   7.941
  863POPC   C4A15282  29.982  19.333   7.493
  863POPC   C1B15283  30.293  18.879   8.722
  863POPC   C2B15284  30.237  18.672   8.327
  863POPC   C3B15285  30.007  18.751   7.981
  863POPC   C4B15286  30.215  18.894   7.611
  864POPC   NC315287  27.472   0.894   9.445
  864POPC   PO415288  27.710   0.280   9.465
  864POPC   GL115289  27.768   0.573   9.115
  864POPC   GL215290  27.440   0.563   9.039
  864POPC   C1A15291  27.729   0.675   8.643
  864POPC   D2A15292  27.483   0.676   8.238
  864POPC   C3A15293  27.686   0.569   7.840
  864POPC   C4A15294  27.947   0.540   7.463
  864POPC   C1B15295  27.196   0.628   8.687
  864POPC   C2B15296  27.123   0.329   8.368
  864POPC   C3B15297  27.396   0.166   8.068
  864POPC   C4B15298  27.208   0.295   7.723
  865POPC   NC315299  16.206  11.169   9.725
  865POPC   PO415300  16.137  11.555   9.206
  865POPC   GL115301  15.920  11.226   9.089
  865POPC   GL215302  16.244  11.052   9.162
  865POPC   C1A15303  15.763  11.411   8.697
  865POPC   D2A15304  15.950  11.621   8.379
  865POPC   C3A15305  16.004  11.309   8.060
  865POPC   C4A15306  15.744  11.161   7.765
  865POPC   C1B15307  16.235  11.142   8.712
  865POPC   C2B15308  16.178  10.973   8.386
  865POPC   C3B15309  16.342  10.906   8.003
  865POPC   C4B15310  16.260  11.144   7.629
  866POPC   NC315311   0.459   6.378   9.477
  866POPC   PO415312   0.181   6.996   9.404
  866POPC   GL115313   0.443   6.735   9.105
  866POPC   GL215314   0.689   6.466   9.044
  866POPC   C1A15315   0.398   6.576   8.666
  866POPC   D2A15316   0.461   6.811   8.333
  866POPC   C3A15317   0.451   6.617   7.965
  866POPC   C4A15318   0.437   6.899   7.704
  866POPC   C1B15319   0.848   6.788   8.698
  866POPC   C2B15320   0.948   6.955   8.248
  866POPC   C3B15321   0.936   6.894   7.776
  866POPC   C4B15322   0.753   6.641   7.400
  867POPC   NC315323  10.300  39.501   9.600
  867POPC   PO415324  10.849  39.262   9.724
  867POPC   GL115325  10.718  39.324   9.290
  867POPC   GL215326  10.403  39.193   9.190
  867POPC   C1A15327  10.745  39.202   8.835
  867POPC   D2A15328  10.652  38.990   8.470
  867POPC   C3A15329  10.579  39.268   8.123
  867POPC   C4A15330  10.749  39.131   7.729
  867POPC   C1B15331  10.336  38.862   8.874
  867POPC   C2B15332  10.158  38.860   8.429
  867POPC   C3B15333  10.371  38.817   8.012
  867POPC   C4B15334  10.241  39.165   7.728
  868POPC   NC315335  31.353  16.361  10.036
  868POPC   PO415336  31.525  16.808   9.587
  868POPC   GL115337  31.495  16.591   9.225
  868POPC   GL215338  31.808  16.415   9.152
  868POPC   C1A15339  31.302  16.754   8.870
  868POPC   D2A15340  31.479  16.886   8.516
  868POPC   C3A15341  31.349  16.865   8.125
  868POPC   C4A15342  31.409  16.689   7.754
  868POPC   C1B15343  31.819  16.667   8.800
  868POPC   C2B15344  31.881  16.535   8.399
  868POPC   C3B15345  31.841  16.683   8.003
  868POPC   C4B15346  31.879  16.593   7.589
  869POPC   NC315347  38.925  12.616   9.477
  869POPC   PO415348  39.681  12.658   9.415
  869POPC   GL115349  39.311  12.824   9.166
  869POPC   GL215350  39.254  13.178   9.077
  869POPC   C1A15351  39.077  12.700   8.785
  869POPC   D2A15352  38.997  12.862   8.360
  869POPC   C3A15353  39.122  12.663   7.959
  869POPC   C4A15354  39.011  12.818   7.532
  869POPC   C1B15355  39.343  13.122   8.641
  869POPC   C2B15356  39.390  13.138   8.219
  869POPC   C3B15357  39.162  13.163   7.888
  869POPC   C4B15358  39.279  13.256   7.482
  870POPC   NC315359  19.970  11.397   9.410
  870POPC   PO415360  19.347  11.589   9.401
  870POPC   GL115361  19.573  11.531   9.056
  870POPC   GL215362  19.512  11.192   9.098
  870POPC   C1A15363  19.870  11.347   8.739
  870POPC   D2A15364  20.114  11.194   8.405
  870POPC   C3A15365  20.012  11.298   7.977
  870POPC   C4A15366  19.835  11.454   7.590
  870POPC   C1B15367  19.370  11.239   8.684
  870POPC   C2B15368  19.474  11.560   8.390
  870POPC   C3B15369  19.500  11.428   7.981
  870POPC   C4B15370  19.524  11.064   7.749
  871POPC   NC315371  18.581  44.153   9.449
  871POPC   PO415372  18.327  43.569   9.516
  871POPC   GL115373  18.211  43.771   9.129
  871POPC   GL215374  18.012  44.057   9.255
  871POPC   C1A15375  18.312  43.756   8.683
  871POPC   D2A15376  18.446  44.071   8.392
  871POPC   C3A15377  18.341  43.991   7.979
  871POPC   C4A15378  18.134  43.806   7.658
  871POPC   C1B15379  18.026  44.152   8.801
  871POPC   C2B15380  17.945  43.978   8.372
  871POPC   C3B15381  17.849  44.171   7.992
  871POPC   C4B15382  18.105  44.445   7.762
  872POPC   NC315383  38.264   8.728   9.603
  872POPC   PO415384  38.490   9.267   9.796
  872POPC   GL115385  38.516   9.099   9.310
  872POPC   GL215386  38.777   8.894   9.195
  872POPC   C1A15387  38.365   9.125   8.848
  872POPC   D2A15388  38.546   9.094   8.395
  872POPC   C3A15389  38.294   9.030   8.045
  872POPC   C4A15390  38.081   9.092   7.665
  872POPC   C1B15391  38.888   9.052   8.780
  872POPC   C2B15392  38.997   8.858   8.385
  872POPC   C3B15393  38.788   8.694   8.019
  872POPC   C4B15394  38.601   8.863   7.677
  873POPC   NC315395  14.065  18.740   9.480
  873POPC   PO415396  13.393  18.991   9.573
  873POPC   GL115397  13.731  19.018   9.225
  873POPC   GL215398  13.481  19.083   8.993
  873POPC   C1A15399  13.978  19.190   8.876
  873POPC   D2A15400  13.700  19.191   8.502
  873POPC   C3A15401  13.882  19.186   8.100
  873POPC   C4A15402  13.697  19.126   7.702
  873POPC   C1B15403  13.299  18.776   8.726
  873POPC   C2B15404  13.455  18.756   8.325
  873POPC   C3B15405  13.334  18.896   7.958
  873POPC   C4B15406  13.381  18.686   7.608
  874POPC   NC315407  41.855  22.609   9.462
  874POPC   PO415408  41.515  22.074   9.410
  874POPC   GL115409  41.804  22.210   9.139
  874POPC   GL215410  41.655  22.499   8.994
  874POPC   C1A15411  41.909  22.092   8.749
  874POPC   D2A15412  41.991  22.271   8.374
  874POPC   C3A15413  41.911  22.012   8.012
  874POPC   C4A15414  41.600  21.849   7.730
  874POPC   C1B15415  41.300  22.265   8.783
  874POPC   C2B15416  41.109  22.321   8.339
  874POPC   C3B15417  41.402  22.317   7.945
  874POPC   C4B15418  41.377  22.247   7.472
  875POPC   NC315419   0.957  22.811   9.311
  875POPC   PO415420   0.457  23.112   9.642
  875POPC   GL115421   0.479  23.051   9.195
  875POPC   GL215422   0.412  22.712   9.069
  875POPC   C1A15423   0.249  23.131   8.811
  875POPC   D2A15424   0.195  22.802   8.542
  875POPC   C3A15425   0.341  22.948   8.175
  875POPC   C4A15426   0.214  23.124   7.800
  875POPC   C1B15427   0.681  22.870   8.716
  875POPC   C2B15428   0.796  23.070   8.330
  875POPC   C3B15429   0.735  23.057   7.866
  875POPC   C4B15430   0.726  22.953   7.446
  876POPC   NC315431  16.991  29.788  10.046
  876POPC   PO415432  17.474  29.909   9.549
  876POPC   GL115433  17.569  30.049   9.113
  876POPC   GL215434  17.766  29.761   9.045
  876POPC   C1A15435  17.519  29.985   8.624
  876POPC   D2A15436  17.611  30.133   8.170
  876POPC   C3A15437  17.275  30.133   7.827
  876POPC   C4A15438  17.253  30.244   7.351
  876POPC   C1B15439  17.742  29.520   8.672
  876POPC   C2B15440  17.656  29.645   8.250
  876POPC   C3B15441  17.922  29.807   7.902
  876POPC   C4B15442  18.033  29.638   7.475
  877POPC   NC315443  20.487  17.299   9.468
  877POPC   PO415444  21.169  17.410   9.558
  877POPC   GL115445  20.893  17.359   9.167
  877POPC   GL215446  20.800  17.701   9.101
  877POPC   C1A15447  20.524  17.355   8.830
  877POPC   D2A15448  20.274  17.527   8.465
  877POPC   C3A15449  20.486  17.482   8.086
  877POPC   C4A15450  20.694  17.318   7.742
  877POPC   C1B15451  20.523  17.864   8.787
  877POPC   C2B15452  20.615  17.891   8.380
  877POPC   C3B15453  20.309  17.968   8.090
  877POPC   C4B15454  20.141  17.820   7.727
  878POPC   NC315455  42.576  25.715   9.440
  878POPC   PO415456  42.601  26.404   9.449
  878POPC   GL115457  42.502  26.139   9.098
  878POPC   GL215458  42.189  25.934   9.136
  878POPC   C1A15459  42.460  26.293   8.669
  878POPC   D2A15460  42.517  26.048   8.284
  878POPC   C3A15461  42.532  26.222   7.893
  878POPC   C4A15462  42.127  26.045   7.823
  878POPC   C1B15463  42.358  25.805   8.719
  878POPC   C2B15464  42.562  25.549   8.372
  878POPC   C3B15465  42.453  25.572   7.928
  878POPC   C4B15466  42.026  25.541   7.776
  879POPC   NC315467  11.273  14.111   9.483
  879POPC   PO415468  11.672  14.579   9.208
  879POPC   GL115469  11.289  14.440   9.036
  879POPC   GL215470  10.992  14.195   9.057
  879POPC   C1A15471  11.203  14.513   8.615
  879POPC   D2A15472  10.982  14.556   8.233
  879POPC   C3A15473  11.138  14.664   7.832
  879POPC   C4A15474  11.352  14.715   7.435
  879POPC   C1B15475  11.205  14.008   8.722
  879POPC   C2B15476  11.336  14.082   8.316
  879POPC   C3B15477  11.305  14.175   7.885
  879POPC   C4B15478  11.412  14.019   7.469
  880POPC   NC315479  38.894   2.732   9.541
  880POPC   PO415480  39.514   2.814   9.468
  880POPC   GL115481  39.292   2.691   9.103
  880POPC   GL215482  39.072   2.466   9.068
  880POPC   C1A15483  39.339   2.625   8.648
  880POPC   D2A15484  39.273   2.882   8.265
  880POPC   C3A15485  39.280   2.637   7.918
  880POPC   C4A15486  39.576   2.346   7.781
  880POPC   C1B15487  38.863   2.780   8.803
  880POPC   C2B15488  38.691   2.789   8.383
  880POPC   C3B15489  38.814   2.876   7.958
  880POPC   C4B15490  38.941   2.768   7.536
  881POPC   NC315491   4.441   5.434   9.708
  881POPC   PO415492   4.521   4.789   9.556
  881POPC   GL115493   4.380   4.857   9.172
  881POPC   GL215494   4.591   5.123   9.137
  881POPC   C1A15495   4.261   5.020   8.753
  881POPC   D2A15496   4.193   5.251   8.363
  881POPC   C3A15497   4.142   5.016   7.978
  881POPC   C4A15498   4.145   5.271   7.615
  881POPC   C1B15499   4.799   5.080   8.756
  881POPC   C2B15500   4.742   5.289   8.379
  881POPC   C3B15501   4.617   5.213   7.980
  881POPC   C4B15502   4.745   4.831   7.803
  882POPC   NC315503  10.839   2.628   9.474
  882POPC   PO415504  10.308   3.081   9.396
  882POPC   GL115505  10.632   2.950   9.113
  882POPC   GL215506  10.453   2.629   9.124
  882POPC   C1A15507  10.609   2.829   8.674
  882POPC   D2A15508  10.367   2.992   8.325
  882POPC   C3A15509  10.419   2.785   7.944
  882POPC   C4A15510  10.808   2.842   7.783
  882POPC   C1B15511  10.359   2.372   8.783
  882POPC   C2B15512  10.447   2.432   8.352
  882POPC   C3B15513  10.151   2.314   8.049
  882POPC   C4B15514  10.101   2.487   7.650
  883POPC   NC315515  24.230  30.622   9.468
  883POPC   PO415516  24.839  30.845   9.273
  883POPC   GL115517  24.571  30.605   9.109
  883POPC   GL215518  24.824  30.338   9.139
  883POPC   C1A15519  24.307  30.771   8.769
  883POPC   D2A15520  24.448  31.013   8.375
  883POPC   C3A15521  24.299  30.864   8.006
  883POPC   C4A15522  24.485  30.730   7.646
  883POPC   C1B15523  24.681  30.348   8.717
  883POPC   C2B15524  24.501  30.513   8.377
  883POPC   C3B15525  24.729  30.538   8.047
  883POPC   C4B15526  24.725  30.287   7.686
  884POPC   NC315527  36.228   5.589   9.520
  884POPC   PO415528  35.807   6.063   9.261
  884POPC   GL115529  36.133   5.856   9.069
  884POPC   GL215530  36.044   5.528   9.046
  884POPC   C1A15531  36.178   5.993   8.638
  884POPC   D2A15532  35.950   6.215   8.331
  884POPC   C3A15533  36.136   6.056   8.004
  884POPC   C4A15534  36.022   6.138   7.613
  884POPC   C1B15535  36.387   5.542   8.735
  884POPC   C2B15536  36.372   5.603   8.301
  884POPC   C3B15537  36.371   5.606   7.889
  884POPC   C4B15538  35.978   5.616   7.725
  885POPC   NC315539   7.920  29.425   9.534
  885POPC   PO415540   8.310  28.968   9.525
  885POPC   GL115541   8.352  29.162   9.162
  885POPC   GL215542   8.005  29.098   9.091
  885POPC   C1A15543   8.407  29.314   8.773
  885POPC   D2A15544   8.244  29.261   8.393
  885POPC   C3A15545   8.421  29.261   8.000
  885POPC   C4A15546   8.313  28.949   7.685
  885POPC   C1B15547   8.007  28.895   8.676
  885POPC   C2B15548   7.837  28.986   8.239
  885POPC   C3B15549   7.772  29.014   7.776
  885POPC   C4B15550   7.762  29.203   7.361
  886POPC   NC315551  13.157  16.728   9.403
  886POPC   PO415552  12.574  16.777   9.457
  886POPC   GL115553  12.706  16.715   9.096
  886POPC   GL215554  12.549  16.395   9.086
  886POPC   C1A15555  12.783  16.909   8.729
  886POPC   D2A15556  12.708  16.815   8.316
  886POPC   C3A15557  12.798  16.974   7.926
  886POPC   C4A15558  12.576  16.981   7.552
  886POPC   C1B15559  12.778  16.393   8.694
  886POPC   C2B15560  12.877  16.329   8.279
  886POPC   C3B15561  12.808  16.461   7.883
  886POPC   C4B15562  13.132  16.419   7.616
  887POPC   NC315563  43.540  37.221   9.821
  887POPC   PO415564  43.117  36.853   9.470
  887POPC   GL115565  43.239  36.923   9.078
  887POPC   GL215566  43.456  37.155   9.079
  887POPC   C1A15567  43.093  37.029   8.678
  887POPC   D2A15568  42.976  36.825   8.285
  887POPC   C3A15569  42.883  36.954   7.839
  887POPC   C4A15570  42.654  37.070   7.428
  887POPC   C1B15571  43.371  37.442   8.727
  887POPC   C2B15572  43.216  37.353   8.297
  887POPC   C3B15573  43.248  37.323   7.858
  887POPC   C4B15574  43.601  37.282   7.569
  888POPC   NC315575  31.651  10.688   9.436
  888POPC   PO415576  31.038  10.744   9.485
  888POPC   GL115577  31.243  10.685   9.107
  888POPC   GL215578  31.530  10.425   9.019
  888POPC   C1A15579  31.288  10.788   8.715
  888POPC   D2A15580  31.382  10.440   8.503
  888POPC   C3A15581  31.249  10.524   8.140
  888POPC   C4A15582  31.284  10.308   7.773
  888POPC   C1B15583  31.779  10.674   8.712
  888POPC   C2B15584  31.690  10.823   8.296
  888POPC   C3B15585  31.717  10.522   7.946
  888POPC   C4B15586  31.962  10.478   7.610
  889POPC   NC315587  39.651  13.170   9.407
  889POPC   PO415588  40.264  13.096   9.495
  889POPC   GL115589  40.028  12.945   9.110
  889POPC   GL215590  39.752  13.103   8.934
  889POPC   C1A15591  40.110  12.827   8.687
  889POPC   D2A15592  39.838  12.981   8.398
  889POPC   C3A15593  39.997  13.047   8.008
  889POPC   C4A15594  40.220  12.776   7.712
  889POPC   C1B15595  39.615  12.715   8.774
  889POPC   C2B15596  39.439  12.621   8.400
  889POPC   C3B15597  39.647  12.647   8.037
  889POPC   C4B15598  39.539  12.866   7.689
  890POPC   NC315599  32.336  26.493   9.356
  890POPC   PO415600  32.124  25.940   9.583
  890POPC   GL115601  32.162  26.037   9.183
  890POPC   GL215602  31.926  26.280   9.169
  890POPC   C1A15603  32.436  26.062   8.823
  890POPC   D2A15604  32.239  26.083   8.394
  890POPC   C3A15605  32.479  26.178   8.015
  890POPC   C4A15606  32.520  25.971   7.603
  890POPC   C1B15607  32.054  26.391   8.769
  890POPC   C2B15608  31.971  26.583   8.419
  890POPC   C3B15609  31.957  26.340   8.048
  890POPC   C4B15610  32.139  26.316   7.667
  891POPC   NC315611   0.637   7.972   9.613
  891POPC   PO415612  44.961   7.959   9.558
  891POPC   GL115613   0.276   8.204   9.281
  891POPC   GL215614   0.580   8.054   9.118
  891POPC   C1A15615   0.393   8.491   8.918
  891POPC   D2A15616   0.587   8.270   8.554
  891POPC   C3A15617   0.450   8.406   8.151
  891POPC   C4A15618   0.370   8.258   7.750
  891POPC   C1B15619   0.788   7.824   8.810
  891POPC   C2B15620   0.916   7.868   8.424
  891POPC   C3B15621   0.767   8.038   8.081
  891POPC   C4B15622   0.689   7.869   7.715
  892POPC   NC315623  24.872  36.390   9.172
  892POPC   PO415624  24.450  35.896   9.493
  892POPC   GL115625  24.525  35.985   9.107
  892POPC   GL215626  24.375  36.323   9.036
  892POPC   C1A15627  24.386  35.902   8.714
  892POPC   D2A15628  24.596  36.115   8.384
  892POPC   C3A15629  24.482  36.089   7.964
  892POPC   C4A15630  24.647  36.220   7.589
  892POPC   C1B15631  24.055  36.295   8.705
  892POPC   C2B15632  24.114  36.315   8.250
  892POPC   C3B15633  24.035  36.267   7.805
  892POPC   C4B15634  24.240  35.963   7.489
  893POPC   NC315635   5.455  43.915   9.523
  893POPC   PO415636   4.796  44.061   9.632
  893POPC   GL115637   4.973  43.963   9.217
  893POPC   GL215638   5.302  43.905   9.050
  893POPC   C1A15639   4.784  43.844   8.830
  893POPC   D2A15640   4.889  43.639   8.427
  893POPC   C3A15641   4.858  43.829   8.044
  893POPC   C4A15642   4.758  44.104   7.717
  893POPC   C1B15643   5.250  43.923   8.628
  893POPC   C2B15644   5.372  44.176   8.302
  893POPC   C3B15645   5.226  44.158   7.899
  893POPC   C4B15646   5.305  44.233   7.467
  894POPC   NC315647  44.271  38.418   9.465
  894POPC   PO415648  44.884  38.305   9.566
  894POPC   GL115649  44.709  38.215   9.133
  894POPC   GL215650  44.550  38.494   9.043
  894POPC   C1A15651  44.573  38.194   8.643
  894POPC   D2A15652  44.510  38.239   8.163
  894POPC   C3A15653  44.804  38.057   7.799
  894POPC   C4A15654  44.989  38.293   7.396
  894POPC   C1B15655  44.477  38.679   8.590
  894POPC   C2B15656  44.579  38.738   8.139
  894POPC   C3B15657  44.614  38.532   7.703
  894POPC   C4B15658  44.483  38.682   7.245
  895POPC   NC315659  35.434  41.809   9.485
  895POPC   PO415660  34.911  41.373   9.464
  895POPC   GL115661  35.131  41.627   9.135
  895POPC   GL215662  34.957  41.819   8.925
  895POPC   C1A15663  35.472  41.672   8.804
  895POPC   D2A15664  35.715  41.429   8.478
  895POPC   C3A15665  35.745  41.581   8.084
  895POPC   C4A15666  35.595  41.518   7.697
  895POPC   C1B15667  35.038  41.439   8.653
  895POPC   C2B15668  35.249  41.422   8.239
  895POPC   C3B15669  35.097  41.508   7.827
  895POPC   C4B15670  35.044  41.371   7.392
  896POPC   NC315671  30.717   0.541   9.396
  896POPC   PO415672  30.874   0.029   9.723
  896POPC   GL115673  30.873   0.036   9.226
  896POPC   GL215674  30.602   0.065   9.112
  896POPC   C1A15675  30.947   0.261   8.771
  896POPC   D2A15676  30.786   0.578   8.460
  896POPC   C3A15677  30.904   0.666   8.020
  896POPC   C4A15678  31.245   0.421   7.880
  896POPC   C1B15679  30.444   0.332   8.799
  896POPC   C2B15680  30.408   0.223   8.421
  896POPC   C3B15681  30.599   0.267   8.072
  896POPC   C4B15682  30.489   0.293   7.656
  897POPC   NC315683  42.789  41.470   9.435
  897POPC   PO415684  43.388  41.153   9.427
  897POPC   GL115685  43.400  41.371   9.033
  897POPC   GL215686  43.124  41.585   9.066
  897POPC   C1A15687  43.213  41.367   8.619
  897POPC   D2A15688  43.084  41.156   8.261
  897POPC   C3A15689  43.196  41.448   7.948
  897POPC   C4A15690  43.328  41.541   7.550
  897POPC   C1B15691  43.014  41.834   8.704
  897POPC   C2B15692  43.206  41.822   8.334
  897POPC   C3B15693  43.228  42.076   8.005
  897POPC   C4B15694  43.010  42.003   7.645
  898POPC   NC315695  33.032  44.875   9.351
  898POPC   PO415696  33.463  44.393   9.351
  898POPC   GL115697  33.226  44.560   9.018
  898POPC   GL215698  32.827  44.563   9.022
  898POPC   C1A15699  33.117  44.731   8.623
  898POPC   D2A15700  33.324  44.978   8.312
  898POPC   C3A15701  33.459  44.687   8.003
  898POPC   C4A15702  33.097  44.484   7.785
  898POPC   C1B15703  32.614  44.819   8.705
  898POPC   C2B15704  32.432  44.684   8.381
  898POPC   C3B15705  32.774  44.644   8.161
  898POPC   C4B15706  32.682  44.786   7.793
  899POPC   NC315707  33.385  18.886   9.583
  899POPC   PO415708  33.694  19.505   9.533
  899POPC   GL115709  33.596  19.205   9.204
  899POPC   GL215710  33.911  18.977   9.129
  899POPC   C1A15711  33.616  19.167   8.757
  899POPC   D2A15712  33.483  18.979   8.394
  899POPC   C3A15713  33.674  19.195   8.088
  899POPC   C4A15714  33.925  19.234   7.794
  899POPC   C1B15715  33.960  18.786   8.698
  899POPC   C2B15716  34.058  18.915   8.283
  899POPC   C3B15717  33.857  18.752   7.911
  899POPC   C4B15718  34.052  18.695   7.464
  900POPC   NC315719  24.474  41.156   9.478
  900POPC   PO415720  24.607  41.837   9.552
  900POPC   GL115721  24.519  41.597   9.157
  900POPC   GL215722  24.285  41.329   9.062
  900POPC   C1A15723  24.543  41.582   8.704
  900POPC   D2A15724  24.340  41.782   8.385
  900POPC   C3A15725  24.382  41.802   7.989
  900POPC   C4A15726  24.657  41.703   7.707
  900POPC   C1B15727  24.206  41.107   8.692
  900POPC   C2B15728  24.432  41.202   8.338
  900POPC   C3B15729  24.265  41.323   7.979
  900POPC   C4B15730  24.162  41.126   7.650
  901POPC   NC315731  17.511  22.515   9.445
  901POPC   PO415732  17.525  21.886   9.522
  901POPC   GL115733  17.840  21.939   9.207
  901POPC   GL215734  17.900  22.263   9.200
  901POPC   C1A15735  17.840  21.822   8.799
  901POPC   D2A15736  17.550  21.932   8.472
  901POPC   C3A15737  17.660  21.877   8.045
  901POPC   C4A15738  17.357  21.821   7.745
  901POPC   C1B15739  17.939  22.324   8.748
  901POPC   C2B15740  17.754  22.373   8.313
  901POPC   C3B15741  17.632  22.386   7.894
  901POPC   C4B15742  17.285  22.336   7.591
  902POPC   NC315743  24.559  18.422   9.506
  902POPC   PO415744  24.896  17.839   9.560
  902POPC   GL115745  24.519  17.965   9.230
  902POPC   GL215746  24.383  18.269   9.069
  902POPC   C1A15747  24.256  17.850   8.854
  902POPC   D2A15748  24.066  18.068   8.478
  902POPC   C3A15749  24.364  18.199   8.153
  902POPC   C4A15750  24.393  18.004   7.710
  902POPC   C1B15751  24.364  18.460   8.648
  902POPC   C2B15752  24.383  18.736   8.269
  902POPC   C3B15753  24.224  18.594   7.886
  902POPC   C4B15754  24.322  18.452   7.440
  903POPC   NC315755  13.789  25.415   9.482
  903POPC   PO415756  13.122  25.423   9.508
  903POPC   GL115757  13.436  25.244   9.156
  903POPC   GL215758  13.772  25.115   9.076
  903POPC   C1A15759  13.499  25.396   8.728
  903POPC   D2A15760  13.505  25.624   8.335
  903POPC   C3A15761  13.486  25.307   8.029
  903POPC   C4A15762  13.402  25.388   7.595
  903POPC   C1B15763  14.003  25.240   8.722
  903POPC   C2B15764  13.904  25.073   8.319
  903POPC   C3B15765  13.819  24.932   7.899
  903POPC   C4B15766  13.774  25.086   7.472
  904POPC   NC315767   4.816  36.936   9.582
  904POPC   PO415768   5.383  36.838   9.325
  904POPC   GL115769   5.146  37.002   8.991
  904POPC   GL215770   4.746  37.001   9.061
  904POPC   C1A15771   5.250  36.784   8.583
  904POPC   D2A15772   4.941  36.515   8.382
  904POPC   C3A15773   4.925  36.634   7.971
  904POPC   C4A15774   5.299  36.838   7.778
  904POPC   C1B15775   4.780  36.949   8.650
  904POPC   C2B15776   4.908  37.049   8.282
  904POPC   C3B15777   4.898  37.136   7.898
  904POPC   C4B15778   4.836  36.906   7.497
  905POPC   NC315779  42.424  12.717   9.574
  905POPC   PO415780  42.838  13.124   9.210
  905POPC   GL115781  42.412  13.185   9.056
  905POPC   GL215782  42.214  12.869   9.068
  905POPC   C1A15783  42.320  13.119   8.614
  905POPC   D2A15784  42.312  12.709   8.429
  905POPC   C3A15785  42.509  12.750   8.034
  905POPC   C4A15786  42.478  13.125   7.789
  905POPC   C1B15787  41.881  12.888   8.721
  905POPC   C2B15788  41.859  13.081   8.344
  905POPC   C3B15789  42.026  12.897   8.012
  905POPC   C4B15790  42.169  12.755   7.612
  906POPC   NC315791  26.626  42.677   9.430
  906POPC   PO415792  26.872  42.075   9.557
  906POPC   GL115793  26.705  42.205   9.179
  906POPC   GL215794  27.006  42.390   9.146
  906POPC   C1A15795  26.565  42.113   8.763
  906POPC   D2A15796  26.810  42.151   8.379
  906POPC   C3A15797  26.649  42.253   7.997
  906POPC   C4A15798  26.616  42.019   7.627
  906POPC   C1B15799  26.901  42.516   8.733
  906POPC   C2B15800  26.754  42.710   8.361
  906POPC   C3B15801  26.950  42.850   7.978
  906POPC   C4B15802  27.016  42.473   7.716
  907POPC   NC315803  32.625   0.385   9.299
  907POPC   PO415804  32.127   0.811   9.461
  907POPC   GL115805  32.084   0.784   9.042
  907POPC   GL215806  32.182   0.422   9.017
  907POPC   C1A15807  32.008   0.651   8.613
  907POPC   D2A15808  32.083   0.288   8.314
  907POPC   C3A15809  32.235   0.439   7.944
  907POPC   C4A15810  32.090   0.815   7.791
  907POPC   C1B15811  32.457   0.316   8.648
  907POPC   C2B15812  32.584   0.150   8.214
  907POPC   C3B15813  32.697   0.287   7.775
  907POPC   C4B15814  32.618   0.158   7.301
  908POPC   NC315815  35.693   7.981   9.510
  908POPC   PO415816  35.296   8.409   9.483
  908POPC   GL115817  35.484   8.302   9.116
  908POPC   GL215818  35.344   7.972   9.109
  908POPC   C1A15819  35.423   8.275   8.667
  908POPC   D2A15820  35.249   8.134   8.255
  908POPC   C3A15821  35.358   8.354   7.855
  908POPC   C4A15822  35.566   8.539   7.462
  908POPC   C1B15823  35.204   7.824   8.707
  908POPC   C2B15824  35.476   7.665   8.358
  908POPC   C3B15825  35.585   7.832   7.975
  908POPC   C4B15826  35.201   7.867   7.778
  909POPC   NC315827  34.273  19.984   9.397
  909POPC   PO415828  34.691  19.457   9.474
  909POPC   GL115829  34.545  19.565   9.113
  909POPC   GL215830  34.687  19.902   9.096
  909POPC   C1A15831  34.481  19.644   8.695
  909POPC   D2A15832  34.654  19.646   8.318
  909POPC   C3A15833  34.396  19.817   8.001
  909POPC   C4A15834  34.504  19.691   7.573
  909POPC   C1B15835  34.872  20.227   8.853
  909POPC   C2B15836  34.660  20.161   8.507
  909POPC   C3B15837  34.714  20.312   8.116
  909POPC   C4B15838  34.548  20.213   7.735
  910POPC   NC315839   3.154  40.554   9.418
  910POPC   PO415840   2.959  41.170   9.384
  910POPC   GL115841   3.070  40.893   9.046
  910POPC   GL215842   2.792  40.632   9.030
  910POPC   C1A15843   3.061  40.772   8.619
  910POPC   D2A15844   2.817  40.958   8.327
  910POPC   C3A15845   2.720  40.754   7.995
  910POPC   C4A15846   2.945  40.755   7.660
  910POPC   C1B15847   2.594  41.001   8.796
  910POPC   C2B15848   2.415  41.246   8.441
  910POPC   C3B15849   2.363  41.108   7.983
  910POPC   C4B15850   2.456  40.887   7.556
  911POPC   NC315851   7.275  27.185   9.282
  911POPC   PO415852   6.879  26.761   9.527
  911POPC   GL115853   7.082  26.651   9.131
  911POPC   GL215854   7.447  26.755   9.056
  911POPC   C1A15855   7.102  26.851   8.707
  911POPC   D2A15856   7.313  26.875   8.328
  911POPC   C3A15857   7.106  26.795   7.943
  911POPC   C4A15858   7.343  26.574   7.662
  911POPC   C1B15859   7.583  27.084   8.726
  911POPC   C2B15860   7.653  27.269   8.301
  911POPC   C3B15861   7.573  27.024   7.902
  911POPC   C4B15862   7.360  27.054   7.480
  912POPC   NC315863  33.938   2.284   9.529
  912POPC   PO415864  33.298   1.983   9.591
  912POPC   GL115865  33.516   1.911   9.202
  912POPC   GL215866  33.636   2.227   9.136
  912POPC   C1A15867  33.660   1.906   8.745
  912POPC   D2A15868  33.837   1.708   8.356
  912POPC   C3A15869  33.743   1.873   7.965
  912POPC   C4A15870  34.025   2.053   7.698
  912POPC   C1B15871  33.891   2.375   8.781
  912POPC   C2B15872  33.952   2.220   8.346
  912POPC   C3B15873  33.835   2.424   7.968
  912POPC   C4B15874  33.800   2.463   7.502
  913POPC   NC315875  23.582  16.077   9.534
  913POPC   PO415876  23.940  15.501   9.580
  913POPC   GL115877  23.913  15.840   9.197
  913POPC   GL215878  23.698  16.204   9.077
  913POPC   C1A15879  23.974  15.971   8.745
  913POPC   D2A15880  24.027  15.731   8.385
  913POPC   C3A15881  23.807  15.925   8.079
  913POPC   C4A15882  23.724  15.844   7.683
  913POPC   C1B15883  23.513  15.806   8.892
  913POPC   C2B15884  23.448  15.808   8.460
  913POPC   C3B15885  23.387  16.154   8.201
  913POPC   C4B15886  23.564  16.320   7.806
  914POPC   NC315887   3.881  19.389   9.200
  914POPC   PO415888   3.399  18.960   9.565
  914POPC   GL115889   3.461  19.003   9.112
  914POPC   GL215890   3.182  19.168   9.009
  914POPC   C1A15891   3.580  19.213   8.672
  914POPC   D2A15892   3.910  19.134   8.362
  914POPC   C3A15893   3.793  19.121   7.948
  914POPC   C4A15894   3.454  18.913   7.780
  914POPC   C1B15895   3.131  19.017   8.573
  914POPC   C2B15896   3.200  19.181   8.157
  914POPC   C3B15897   3.362  19.412   7.795
  914POPC   C4B15898   3.705  19.372   7.506
  915POPC   NC315899  41.936  14.136   9.333
  915POPC   PO415900  42.304  14.671   9.576
  915POPC   GL115901  42.415  14.476   9.179
  915POPC   GL215902  42.120  14.566   9.063
  915POPC   C1A15903  42.668  14.521   8.793
  915POPC   D2A15904  42.541  14.425   8.349
  915POPC   C3A15905  42.595  14.640   7.954
  915POPC   C4A15906  42.418  14.618   7.527
  915POPC   C1B15907  42.210  14.286   8.737
  915POPC   C2B15908  42.075  14.238   8.334
  915POPC   C3B15909  42.121  14.379   7.895
  915POPC   C4B15910  42.041  14.298   7.434
  916POPC   NC315911  12.634  27.860   9.519
  916POPC   PO415912  13.020  27.351   9.444
  916POPC   GL115913  13.140  27.608   9.084
  916POPC   GL215914  12.815  27.756   9.068
  916POPC   C1A15915  13.145  27.959   8.760
  916POPC   D2A15916  12.931  27.999   8.372
  916POPC   C3A15917  13.172  27.791   8.113
  916POPC   C4A15918  13.108  27.626   7.757
  916POPC   C1B15919  12.806  27.539   8.690
  916POPC   C2B15920  12.745  27.530   8.278
  916POPC   C3B15921  12.651  27.726   7.926
  916POPC   C4B15922  12.656  27.431   7.581
  917POPC   NC315923  14.884  27.667   9.440
  917POPC   PO415924  15.283  27.208   9.576
  917POPC   GL115925  15.248  27.445   9.150
  917POPC   GL215926  14.914  27.370   9.040
  917POPC   C1A15927  15.217  27.533   8.679
  917POPC   D2A15928  14.954  27.305   8.365
  917POPC   C3A15929  15.067  27.360   7.925
  917POPC   C4A15930  15.319  27.653   7.684
  917POPC   C1B15931  14.714  27.615   8.726
  917POPC   C2B15932  14.828  27.814   8.353
  917POPC   C3B15933  14.841  27.822   7.938
  917POPC   C4B15934  14.962  28.050   7.609
  918POPC   NC315935   0.886  23.807   9.482
  918POPC   PO415936   1.492  23.616   9.713
  918POPC   GL115937   1.269  23.613   9.224
  918POPC   GL215938   1.196  23.895   9.046
  918POPC   C1A15939   1.356  23.492   8.753
  918POPC   D2A15940   1.660  23.521   8.390
  918POPC   C3A15941   1.442  23.683   8.016
  918POPC   C4A15942   1.076  23.444   7.840
  918POPC   C1B15943   1.023  23.964   8.686
  918POPC   C2B15944   1.024  23.702   8.354
  918POPC   C3B15945   0.914  23.885   8.007
  918POPC   C4B15946   1.232  24.123   7.822
  919POPC   NC315947   1.923  37.243   9.476
  919POPC   PO415948   2.198  36.626   9.380
  919POPC   GL115949   2.064  36.943   9.064
  919POPC   GL215950   2.160  37.319   9.039
  919POPC   C1A15951   1.907  36.810   8.657
  919POPC   D2A15952   1.933  36.496   8.323
  919POPC   C3A15953   2.021  36.666   7.893
  919POPC   C4A15954   2.410  36.543   7.669
  919POPC   C1B15955   2.232  37.189   8.603
  919POPC   C2B15956   1.931  37.086   8.250
  919POPC   C3B15957   2.007  37.195   7.882
  919POPC   C4B15958   1.856  37.142   7.525
  920POPC   NC315959   9.256  38.794   9.720
  920POPC   PO415960   8.793  38.391   9.444
  920POPC   GL115961   9.045  38.394   9.079
  920POPC   GL215962   9.176  38.697   9.197
  920POPC   C1A15963   9.048  38.410   8.617
  920POPC   D2A15964   9.003  38.374   8.190
  920POPC   C3A15965   9.012  38.477   7.757
  920POPC   C4A15966   8.709  38.369   7.415
  920POPC   C1B15967   9.366  38.766   8.790
  920POPC   C2B15968   9.455  38.605   8.360
  920POPC   C3B15969   9.399  38.811   7.972
  920POPC   C4B15970   9.251  38.879   7.557
  921POPC   NC315971  40.487  10.524   9.746
  921POPC   PO415972  39.868  10.381   9.525
  921POPC   GL115973  40.021  10.374   9.139
  921POPC   GL215974  40.340  10.513   9.238
  921POPC   C1A15975  39.885  10.481   8.695
  921POPC   D2A15976  39.901  10.855   8.403
  921POPC   C3A15977  39.939  10.810   7.957
  921POPC   C4A15978  39.776  10.502   7.685
  921POPC   C1B15979  40.369  10.476   8.805
  921POPC   C2B15980  40.319  10.512   8.368
  921POPC   C3B15981  40.128  10.324   8.015
  921POPC   C4B15982  40.311  10.054   7.717
  922POPC   NC315983   9.740  18.828   9.581
  922POPC   PO415984   9.748  19.494   9.643
  922POPC   GL115985   9.795  19.218   9.239
  922POPC   GL215986  10.141  19.104   9.125
  922POPC   C1A15987   9.568  18.977   8.906
  922POPC   D2A15988   9.550  18.988   8.441
  922POPC   C3A15989   9.853  18.826   8.123
  922POPC   C4A15990   9.704  18.730   7.699
  922POPC   C1B15991   9.971  19.247   8.725
  922POPC   C2B15992  10.113  19.371   8.317
  922POPC   C3B15993   9.898  19.336   7.954
  922POPC   C4B15994   9.502  19.139   7.939
  923POPC   NC315995  43.705  21.718   9.530
  923POPC   PO415996  44.143  21.177   9.546
  923POPC   GL115997  44.008  21.440   9.231
  923POPC   GL215998  43.702  21.491   9.076
  923POPC   C1A15999  44.100  21.468   8.772
  923POPC   D2A16000  43.879  21.452   8.398
  923POPC   C3A16001  43.849  21.686   8.047
  923POPC   C4A16002  43.835  21.558   7.646
  923POPC   C1B16003  43.591  21.217   8.771
  923POPC   C2B16004  43.464  21.132   8.346
  923POPC   C3B16005  43.728  21.135   7.990
  923POPC   C4B16006  43.681  20.945   7.605
  924POPC   NC316007  10.116  30.196   9.391
  924POPC   PO416008   9.684  29.776   9.593
  924POPC   GL116009   9.683  29.774   9.152
  924POPC   GL216010  10.026  29.667   9.072
  924POPC   C1A16011   9.735  29.930   8.727
  924POPC   D2A16012   9.649  29.779   8.338
  924POPC   C3A16013   9.852  29.967   8.008
  924POPC   C4A16014   9.791  30.180   7.632
  924POPC   C1B16015  10.199  29.722   8.638
  924POPC   C2B16016  10.114  29.516   8.228
  924POPC   C3B16017  10.076  29.564   7.779
  924POPC   C4B16018   9.889  29.560   7.319
  925POPC   NC316019  31.996  42.843   9.430
  925POPC   PO416020  32.575  42.488   9.451
  925POPC   GL116021  32.260  42.495   9.116
  925POPC   GL216022  31.955  42.315   9.190
  925POPC   C1A16023  32.235  42.617   8.674
  925POPC   D2A16024  32.213  42.828   8.259
  925POPC   C3A16025  32.442  42.547   8.000
  925POPC   C4A16026  32.377  42.400   7.554
  925POPC   C1B16027  32.100  42.136   8.766
  925POPC   C2B16028  32.382  42.149   8.390
  925POPC   C3B16029  32.243  42.064   7.961
  925POPC   C4B16030  31.779  42.004   7.848
  926POPC   NC316031  43.789  41.050   9.637
  926POPC   PO416032  44.133  40.532   9.660
  926POPC   GL116033  44.068  40.780   9.300
  926POPC   GL216034  44.003  40.485   9.062
  926POPC   C1A16035  43.863  40.969   8.934
  926POPC   D2A16036  43.835  40.708   8.563
  926POPC   C3A16037  43.851  40.752   8.116
  926POPC   C4A16038  43.821  40.795   7.665
  926POPC   C1B16039  44.263  40.380   8.696
  926POPC   C2B16040  44.340  40.546   8.259
  926POPC   C3B16041  44.148  40.424   7.850
  926POPC   C4B16042  44.069  40.488   7.351
  927POPC   NC316043  13.758  44.932   9.493
  927POPC   PO416044  13.200  44.731   9.299
  927POPC   GL116045  13.530  44.893   9.027
  927POPC   GL216046  13.817  44.667   9.067
  927POPC   C1A16047  13.631  44.878   8.596
  927POPC   D2A16048  13.396  44.816   8.214
  927POPC   C3A16049  13.535   0.033   7.846
  927POPC   C4A16050  13.772  44.902   7.496
  927POPC   C1B16051  13.746  44.367   8.762
  927POPC   C2B16052  13.711  44.381   8.334
  927POPC   C3B16053  13.609  44.512   7.881
  927POPC   C4B16054  13.297  44.654   7.581
  928POPC   NC316055  30.959  32.465   9.250
  928POPC   PO416056  30.448  32.478   9.654
  928POPC   GL116057  30.470  32.369   9.150
  928POPC   GL216058  30.534  31.992   9.136
  928POPC   C1A16059  30.683  32.265   8.677
  928POPC   D2A16060  30.756  32.100   8.212
  928POPC   C3A16061  31.008  32.323   7.907
  928POPC   C4A16062  30.957  32.419   7.435
  928POPC   C1B16063  30.238  32.063   8.793
  928POPC   C2B16064  30.266  32.056   8.356
  928POPC   C3B16065  30.272  32.078   7.909
  928POPC   C4B16066  30.250  32.144   7.464
  929POPC   NC316067   9.330  25.422   9.448
  929POPC   PO416068   8.913  24.880   9.430
  929POPC   GL116069   9.058  25.115   9.127
  929POPC   GL216070   8.763  25.276   9.014
  929POPC   C1A16071   9.116  24.965   8.728
  929POPC   D2A16072   9.207  24.801   8.329
  929POPC   C3A16073   8.974  25.039   8.013
  929POPC   C4A16074   9.188  25.372   7.790
  929POPC   C1B16075   8.864  25.525   8.634
  929POPC   C2B16076   8.890  25.563   8.169
  929POPC   C3B16077   8.802  25.683   7.725
  929POPC   C4B16078   8.781  25.502   7.286
  930POPC   NC316079   8.327  31.948   9.560
  930POPC   PO416080   8.461  32.580   9.498
  930POPC   GL116081   8.330  32.264   9.152
  930POPC   GL216082   8.044  32.023   9.147
  930POPC   C1A16083   8.322  32.314   8.715
  930POPC   D2A16084   8.018  32.492   8.451
  930POPC   C3A16085   8.098  32.397   8.039
  930POPC   C4A16086   8.000  32.512   7.618
  930POPC   C1B16087   7.840  32.082   8.771
  930POPC   C2B16088   8.051  31.981   8.410
  930POPC   C3B16089   7.908  31.924   8.002
  930POPC   C4B16090   8.215  32.030   7.668
  931POPC   NC316091  34.927  28.468   9.304
  931POPC   PO416092  34.327  28.684   9.479
  931POPC   GL116093  34.408  28.404   9.188
  931POPC   GL216094  34.256  28.095   9.322
  931POPC   C1A16095  34.526  28.430   8.758
  931POPC   D2A16096  34.837  28.441   8.436
  931POPC   C3A16097  34.581  28.572   8.113
  931POPC   C4A16098  34.540  28.684   7.702
  931POPC   C1B16099  34.533  27.950   8.985
  931POPC   C2B16100  34.483  27.962   8.529
  931POPC   C3B16101  34.625  28.063   8.124
  931POPC   C4B16102  34.860  27.972   7.777
  932POPC   NC316103  15.274  22.796   9.907
  932POPC   PO416104  14.996  23.103   9.373
  932POPC   GL116105  15.352  23.089   9.158
  932POPC   GL216106  15.427  22.737   9.312
  932POPC   C1A16107  15.225  23.142   8.715
  932POPC   D2A16108  14.820  23.131   8.400
  932POPC   C3A16109  14.955  23.213   7.959
  932POPC   C4A16110  15.352  23.077   7.785
  932POPC   C1B16111  15.324  22.637   8.886
  932POPC   C2B16112  15.073  22.711   8.526
  932POPC   C3B16113  15.130  22.705   8.097
  932POPC   C4B16114  15.474  22.583   7.826
  933POPC   NC316115   2.624  17.150   9.506
  933POPC   PO416116   3.052  17.628   9.358
  933POPC   GL116117   2.796  17.423   9.115
  933POPC   GL216118   3.006  17.109   9.144
  933POPC   C1A16119   2.607  17.582   8.744
  933POPC   D2A16120   2.801  17.852   8.441
  933POPC   C3A16121   2.933  17.692   8.070
  933POPC   C4A16122   2.697  17.651   7.709
  933POPC   C1B16123   2.850  17.141   8.708
  933POPC   C2B16124   2.733  17.258   8.310
  933POPC   C3B16125   2.835  17.213   7.904
  933POPC   C4B16126   2.451  17.196   7.669
  934POPC   NC316127   1.002  37.471   9.568
  934POPC   PO416128   1.153  38.135   9.361
  934POPC   GL116129   1.183  37.729   9.125
  934POPC   GL216130   0.854  37.546   9.101
  934POPC   C1A16131   1.399  37.677   8.718
  934POPC   D2A16132   1.252  37.703   8.299
  934POPC   C3A16133   1.415  38.024   8.024
  934POPC   C4A16134   1.318  38.092   7.592
  934POPC   C1B16135   0.927  37.484   8.685
  934POPC   C2B16136   0.719  37.444   8.314
  934POPC   C3B16137   1.011  37.294   8.065
  934POPC   C4B16138   1.200  37.584   7.792
  935POPC   NC316139  13.116   6.675   9.660
  935POPC   PO416140  12.719   6.146   9.476
  935POPC   GL116141  12.763   6.526   9.200
  935POPC   GL216142  13.084   6.741   9.158
  935POPC   C1A16143  12.617   6.749   8.810
  935POPC   D2A16144  12.358   6.658   8.459
  935POPC   C3A16145  12.584   6.771   8.054
  935POPC   C4A16146  12.976   6.740   7.836
  935POPC   C1B16147  13.089   6.951   8.768
  935POPC   C2B16148  13.277   6.945   8.366
  935POPC   C3B16149  13.401   7.039   7.951
  935POPC   C4B16150  13.239   7.043   7.520
  936POPC   NC316151  32.622  32.812   9.447
  936POPC   PO416152  32.133  33.276   9.585
  936POPC   GL116153  32.178  33.003   9.228
  936POPC   GL216154  32.460  33.152   9.099
  936POPC   C1A16155  31.979  33.039   8.826
  936POPC   D2A16156  31.936  33.359   8.505
  936POPC   C3A16157  31.966  33.215   8.078
  936POPC   C4A16158  32.071  33.029   7.705
  936POPC   C1B16159  32.438  32.809   8.779
  936POPC   C2B16160  32.195  32.849   8.382
  936POPC   C3B16161  32.359  32.732   7.979
  936POPC   C4B16162  32.567  32.960   7.656
  937POPC   NC316163  38.739   7.293   9.249
  937POPC   PO416164  38.239   7.664   9.297
  937POPC   GL116165  38.290   7.361   8.994
  937POPC   GL216166  38.289   7.013   9.185
  937POPC   C1A16167  38.560   7.477   8.620
  937POPC   D2A16168  38.807   7.830   8.404
  937POPC   C3A16169  38.842   7.724   7.975
  937POPC   C4A16170  38.499   7.748   7.715
  937POPC   C1B16171  38.248   6.928   8.748
  937POPC   C2B16172  38.147   7.243   8.436
  937POPC   C3B16173  38.410   7.380   8.074
  937POPC   C4B16174  38.657   7.231   7.683
  938POPC   NC316175  17.495  11.126   9.606
  938POPC   PO416176  18.006  11.571   9.544
  938POPC   GL116177  17.660  11.381   9.198
  938POPC   GL216178  17.448  11.034   9.119
  938POPC   C1A16179  17.576  11.317   8.744
  938POPC   D2A16180  17.289  11.313   8.433
  938POPC   C3A16181  17.541  11.354   8.069
  938POPC   C4A16182  17.306  11.549   7.762
  938POPC   C1B16183  17.372  10.816   8.724
  938POPC   C2B16184  17.506  10.876   8.301
  938POPC   C3B16185  17.705  10.874   7.920
  938POPC   C4B16186  17.611  11.125   7.599
  939POPC   NC316187  13.221  18.274   9.242
  939POPC   PO416188  13.826  18.323   9.475
  939POPC   GL116189  13.727  18.245   9.073
  939POPC   GL216190  13.613  18.561   9.060
  939POPC   C1A16191  13.586  18.249   8.641
  939POPC   D2A16192  13.574  18.002   8.245
  939POPC   C3A16193  13.783  18.175   7.882
  939POPC   C4A16194  13.641  18.254   7.445
  939POPC   C1B16195  13.821  18.725   8.718
  939POPC   C2B16196  13.899  18.524   8.323
  939POPC   C3B16197  13.817  18.678   7.927
  939POPC   C4B16198  13.881  18.685   7.493
  940POPC   NC316199   9.349  30.084   9.699
  940POPC   PO416200   9.075  29.536   9.573
  940POPC   GL116201   9.150  29.748   9.197
  940POPC   GL216202   9.075  30.112   9.246
  940POPC   C1A16203   8.879  29.774   8.809
  940POPC   D2A16204   8.663  29.597   8.419
  940POPC   C3A16205   8.821  29.781   8.073
  940POPC   C4A16206   8.750  30.126   7.799
  940POPC   C1B16207   9.283  30.144   8.848
  940POPC   C2B16208   9.154  30.016   8.443
  940POPC   C3B16209   9.291  29.965   8.030
  940POPC   C4B16210   9.273  30.202   7.693
  941POPC   NC316211  38.689   1.069   9.576
  941POPC   PO416212  38.087   1.525   9.517
  941POPC   GL116213  38.224   1.380   9.115
  941POPC   GL216214  38.545   1.261   9.094
  941POPC   C1A16215  38.247   1.220   8.688
  941POPC   D2A16216  38.355   1.064   8.274
  941POPC   C3A16217  38.365   1.354   7.958
  941POPC   C4A16218  38.497   1.004   7.729
  941POPC   C1B16219  38.807   1.026   8.851
  941POPC   C2B16220  38.943   0.851   8.471
  941POPC   C3B16221  38.731   0.682   8.122
  941POPC   C4B16222  38.861   0.626   7.693
  942POPC   NC316223  17.571   8.995   9.612
  942POPC   PO416224  17.500   8.451   9.400
  942POPC   GL116225  17.704   8.766   9.167
  942POPC   GL216226  17.637   9.130   9.130
  942POPC   C1A16227  17.760   8.702   8.760
  942POPC   D2A16228  17.561   8.690   8.388
  942POPC   C3A16229  17.707   8.718   7.974
  942POPC   C4A16230  17.410   8.666   7.619
  942POPC   C1B16231  17.601   9.348   8.772
  942POPC   C2B16232  17.711   9.188   8.405
  942POPC   C3B16233  17.591   9.242   8.021
  942POPC   C4B16234  17.710   9.134   7.630
  943POPC   NC316235  17.658  23.504   9.428
  943POPC   PO416236  17.406  22.927   9.626
  943POPC   GL116237  17.528  22.967   9.173
  943POPC   GL216238  17.750  22.728   9.032
  943POPC   C1A16239  17.311  22.875   8.759
  943POPC   D2A16240  17.165  23.114   8.422
  943POPC   C3A16241  17.187  23.073   7.962
  943POPC   C4A16242  17.447  22.830   7.702
  943POPC   C1B16243  17.777  22.804   8.599
  943POPC   C2B16244  17.602  22.871   8.204
  943POPC   C3B16245  17.734  23.208   7.941
  943POPC   C4B16246  17.915  23.566   7.739
  944POPC   NC316247  41.981  14.969   9.353
  944POPC   PO416248  41.369  15.274   9.473
  944POPC   GL116249  41.337  15.190   9.072
  944POPC   GL216250  41.695  15.291   9.068
  944POPC   C1A16251  41.436  15.201   8.648
  944POPC   D2A16252  41.393  14.917   8.352
  944POPC   C3A16253  41.436  15.143   8.009
  944POPC   C4A16254  41.495  15.104   7.599
  944POPC   C1B16255  41.947  15.193   8.726
  944POPC   C2B16256  41.855  15.149   8.302
  944POPC   C3B16257  41.925  15.363   7.917
  944POPC   C4B16258  41.859  15.411   7.451
  945POPC   NC316259  44.209  22.677   9.459
  945POPC   PO416260  44.114  21.958   9.525
  945POPC   GL116261  43.988  21.931   9.120
  945POPC   GL216262  44.302  21.835   9.055
  945POPC   C1A16263  43.716  21.887   8.755
  945POPC   D2A16264  43.769  22.081   8.365
  945POPC   C3A16265  43.503  22.065   8.014
  945POPC   C4A16266  43.783  22.065   7.679
  945POPC   C1B16267  44.207  21.948   8.636
  945POPC   C2B16268  44.307  21.751   8.270
  945POPC   C3B16269  44.273  21.893   7.852
  945POPC   C4B16270  44.167  21.878   7.428
  946POPC   NC316271  39.447  28.185   9.660
  946POPC   PO416272  39.349  27.484   9.684
  946POPC   GL116273  39.305  27.685   9.248
  946POPC   GL216274  38.944  27.745   9.158
  946POPC   C1A16275  39.577  27.690   8.837
  946POPC   D2A16276  39.630  27.940   8.456
  946POPC   C3A16277  39.299  27.897   8.150
  946POPC   C4A16278  39.302  27.738   7.739
  946POPC   C1B16279  39.090  27.655   8.740
  946POPC   C2B16280  38.908  27.609   8.359
  946POPC   C3B16281  38.928  27.447   7.968
  946POPC   C4B16282  39.213  27.223   7.767
  947POPC   NC316283  12.429  21.704   9.418
  947POPC   PO416284  12.967  21.291   9.636
  947POPC   GL116285  12.953  21.456   9.142
  947POPC   GL216286  12.815  21.767   9.075
  947POPC   C1A16287  12.769  21.309   8.675
  947POPC   D2A16288  12.823  21.479   8.245
  947POPC   C3A16289  12.772  21.320   7.806
  947POPC   C4A16290  13.135  21.375   7.494
  947POPC   C1B16291  12.489  21.736   8.764
  947POPC   C2B16292  12.399  21.731   8.366
  947POPC   C3B16293  12.576  21.826   7.946
  947POPC   C4B16294  12.818  21.779   7.568
  948POPC   NC316295  36.047  36.821   9.467
  948POPC   PO416296  36.679  37.103   9.520
  948POPC   GL116297  36.465  37.230   9.114
  948POPC   GL216298  36.074  37.191   9.080
  948POPC   C1A16299  36.370  37.115   8.664
  948POPC   D2A16300  36.011  37.047   8.375
  948POPC   C3A16301  36.093  36.747   8.051
  948POPC   C4A16302  36.062  36.815   7.593
  948POPC   C1B16303  36.020  36.763   8.814
  948POPC   C2B16304  35.745  36.606   8.466
  948POPC   C3B16305  35.600  36.738   8.062
  948POPC   C4B16306  35.609  36.586   7.628
  949POPC   NC316307  26.838  37.355   9.660
  949POPC   PO416308  27.136  37.938   9.510
  949POPC   GL116309  26.845  37.852   9.157
  949POPC   GL216310  26.949  37.547   9.167
  949POPC   C1A16311  26.645  37.588   8.776
  949POPC   D2A16312  26.836  37.537   8.341
  949POPC   C3A16313  26.730  37.582   7.891
  949POPC   C4A16314  26.816  37.884   7.532
  949POPC   C1B16315  27.142  37.703   8.756
  949POPC   C2B16316  27.342  37.661   8.363
  949POPC   C3B16317  27.227  37.575   7.983
  949POPC   C4B16318  27.355  37.423   7.612
  950POPC   NC316319  30.770  22.450   9.541
  950POPC   PO416320  30.542  21.805   9.430
  950POPC   GL116321  30.659  21.961   9.042
  950POPC   GL216322  30.850  22.196   9.119
  950POPC   C1A16323  30.543  22.212   8.680
  950POPC   D2A16324  30.254  22.294   8.328
  950POPC   C3A16325  30.410  22.185   7.943
  950POPC   C4A16326  30.523  22.401   7.582
  950POPC   C1B16327  31.105  22.219   8.744
  950POPC   C2B16328  30.932  22.305   8.332
  950POPC   C3B16329  30.905  22.376   7.909
  950POPC   C4B16330  31.070  22.007   7.741
  951POPC   NC316331  29.921  21.310   9.759
  951POPC   PO416332  30.672  21.245   9.729
  951POPC   GL116333  30.700  21.122   9.273
  951POPC   GL216334  30.699  21.448   9.114
  951POPC   C1A16335  30.797  21.093   8.794
  951POPC   D2A16336  30.841  20.852   8.416
  951POPC   C3A16337  30.618  20.981   8.055
  951POPC   C4A16338  30.686  21.238   7.705
  951POPC   C1B16339  30.402  21.622   8.761
  951POPC   C2B16340  30.466  21.796   8.328
  951POPC   C3B16341  30.625  21.723   7.891
  951POPC   C4B16342  30.528  21.903   7.489
  952POPC   NC316343   0.776  31.402   9.490
  952POPC   PO416344   0.125  31.628   9.457
  952POPC   GL116345   0.362  31.341   9.186
  952POPC   GL216346   0.604  31.567   9.044
  952POPC   C1A16347   0.396  31.114   8.815
  952POPC   D2A16348   0.506  31.174   8.407
  952POPC   C3A16349   0.295  31.369   8.075
  952POPC   C4A16350   0.372  31.269   7.648
  952POPC   C1B16351   0.278  31.597   8.746
  952POPC   C2B16352   0.196  31.779   8.383
  952POPC   C3B16353   0.438  31.854   8.011
  952POPC   C4B16354   0.602  31.738   7.612
  953POPC   NC316355   1.043   7.156   9.494
  953POPC   PO416356   0.982   6.515   9.548
  953POPC   GL116357   1.076   6.759   9.177
  953POPC   GL216358   1.215   6.477   8.993
  953POPC   C1A16359   1.287   6.990   8.849
  953POPC   D2A16360   1.431   6.994   8.451
  953POPC   C3A16361   1.426   6.655   8.196
  953POPC   C4A16362   1.464   6.658   7.766
  953POPC   C1B16363   0.960   6.243   8.686
  953POPC   C2B16364   0.769   6.391   8.315
  953POPC   C3B16365   1.005   6.431   7.963
  953POPC   C4B16366   1.376   6.199   7.954
  954POPC   NC316367  33.224  33.616   9.476
  954POPC   PO416368  32.746  33.941   9.780
  954POPC   GL116369  32.821  33.915   9.314
  954POPC   GL216370  32.770  33.590   9.135
  954POPC   C1A16371  32.829  34.037   8.860
  954POPC   D2A16372  32.782  33.791   8.481
  954POPC   C3A16373  32.942  33.920   8.074
  954POPC   C4A16374  32.865  33.589   7.787
  954POPC   C1B16375  33.133  33.609   8.838
  954POPC   C2B16376  33.287  33.722   8.440
  954POPC   C3B16377  33.317  33.567   8.053
  954POPC   C4B16378  33.399  33.441   7.686
  955POPC   NC316379   0.417  18.791   9.585
  955POPC   PO416380   0.699  18.240   9.580
  955POPC   GL116381   0.435  18.181   9.252
  955POPC   GL216382   0.385  18.488   9.156
  955POPC   C1A16383   0.429  18.116   8.800
  955POPC   D2A16384   0.608  18.216   8.411
  955POPC   C3A16385   0.505  17.937   8.090
  955POPC   C4A16386   0.360  18.123   7.731
  955POPC   C1B16387   0.629  18.592   8.813
  955POPC   C2B16388   0.437  18.713   8.427
  955POPC   C3B16389   0.197  18.500   8.120
  955POPC   C4B16390   0.283  18.675   7.729
  956POPC   NC316391  23.048  24.791   9.575
  956POPC   PO416392  22.651  24.262   9.662
  956POPC   GL116393  22.801  24.338   9.235
  956POPC   GL216394  22.608  24.612   9.172
  956POPC   C1A16395  23.030  24.522   8.863
  956POPC   D2A16396  23.172  24.363   8.457
  956POPC   C3A16397  23.244  24.580   8.067
  956POPC   C4A16398  23.169  24.453   7.662
  956POPC   C1B16399  22.590  24.784   8.749
  956POPC   C2B16400  22.829  24.765   8.356
  956POPC   C3B16401  22.730  24.587   7.954
  956POPC   C4B16402  22.394  24.705   7.661
  957POPC   NC316403  12.183  14.112   9.683
  957POPC   PO416404  11.716  14.535   9.736
  957POPC   GL116405  12.082  14.335   9.258
  957POPC   GL216406  12.098  14.617   8.959
  957POPC   C1A16407  12.188  14.152   8.830
  957POPC   D2A16408  12.099  14.381   8.437
  957POPC   C3A16409  12.268  14.286   8.021
  957POPC   C4A16410  12.521  14.420   7.714
  957POPC   C1B16411  11.797  14.784   8.595
  957POPC   C2B16412  11.524  14.608   8.224
  957POPC   C3B16413  11.658  14.544   7.806
  957POPC   C4B16414  12.061  14.702   7.791
  958POPC   NC316415  24.178   1.649   9.489
  958POPC   PO416416  23.997   2.274   9.299
  958POPC   GL116417  23.862   2.033   8.977
  958POPC   GL216418  23.926   1.680   9.028
  958POPC   C1A16419  23.813   2.182   8.576
  958POPC   D2A16420  24.047   2.225   8.211
  958POPC   C3A16421  23.878   2.105   7.795
  958POPC   C4A16422  23.462   2.120   7.578
  958POPC   C1B16423  23.753   1.683   8.596
  958POPC   C2B16424  23.892   1.740   8.180
  958POPC   C3B16425  23.938   1.600   7.763
  958POPC   C4B16426  23.666   1.671   7.430
  959POPC   NC316427   9.595  39.507   9.580
  959POPC   PO416428  10.139  39.054   9.587
  959POPC   GL116429   9.882  39.161   9.252
  959POPC   GL216430   9.961  39.492   9.176
  959POPC   C1A16431   9.828  39.037   8.812
  959POPC   D2A16432   9.567  39.105   8.444
  959POPC   C3A16433   9.780  39.192   8.056
  959POPC   C4A16434   9.749  39.039   7.641
  959POPC   C1B16435   9.590  39.489   8.915
  959POPC   C2B16436   9.459  39.617   8.516
  959POPC   C3B16437   9.263  39.440   8.172
  959POPC   C4B16438   9.375  39.347   7.762
  960POPC   NC316439  32.669  34.356   9.568
  960POPC   PO416440  33.184  34.759   9.407
  960POPC   GL116441  32.881  34.857   9.110
  960POPC   GL216442  32.813  34.500   9.080
  960POPC   C1A16443  32.768  34.816   8.672
  960POPC   D2A16444  32.784  34.417   8.435
  960POPC   C3A16445  32.930  34.468   7.995
  960POPC   C4A16446  32.781  34.774   7.672
  960POPC   C1B16447  33.182  34.483   8.764
  960POPC   C2B16448  33.402  34.540   8.327
  960POPC   C3B16449  33.431  34.765   7.910
  960POPC   C4B16450  33.343  34.672   7.469
  961POPC   NC316451  39.560  41.021   9.358
  961POPC   PO416452  39.249  40.370   9.499
  961POPC   GL116453  39.326  40.624   9.156
  961POPC   GL216454  38.988  40.623   9.101
  961POPC   C1A16455  39.496  40.710   8.731
  961POPC   D2A16456  39.270  40.699   8.332
  961POPC   C3A16457  39.257  40.689   7.880
  961POPC   C4A16458  39.214  41.119   7.746
  961POPC   C1B16459  39.050  40.411   8.735
  961POPC   C2B16460  38.827  40.436   8.347
  961POPC   C3B16461  38.866  40.337   7.932
  961POPC   C4B16462  38.848  40.576   7.577
  962POPC   NC316463  16.736  29.515   9.354
  962POPC   PO416464  16.814  30.133   9.655
  962POPC   GL116465  16.872  30.001   9.216
  962POPC   GL216466  16.613  30.153   8.991
  962POPC   C1A16467  17.025  29.966   8.758
  962POPC   D2A16468  17.101  30.089   8.305
  962POPC   C3A16469  16.838  29.889   7.954
  962POPC   C4A16470  17.013  29.815   7.511
  962POPC   C1B16471  16.551  29.843   8.615
  962POPC   C2B16472  16.325  29.693   8.234
  962POPC   C3B16473  16.286  29.686   7.780
  962POPC   C4B16474  16.526  29.919   7.467
  963POPC   NC316475  22.830  15.434   9.677
  963POPC   PO416476  23.198  14.838   9.479
  963POPC   GL116477  22.918  15.072   9.158
  963POPC   GL216478  22.976  15.443   9.187
  963POPC   C1A16479  22.787  15.180   8.687
  963POPC   D2A16480  22.475  15.237   8.304
  963POPC   C3A16481  22.576  15.088   7.877
  963POPC   C4A16482  22.953  14.881   7.742
  963POPC   C1B16483  23.275  15.317   8.878
  963POPC   C2B16484  23.236  15.351   8.440
  963POPC   C3B16485  22.981  15.259   8.115
  963POPC   C4B16486  22.957  15.417   7.696
  964POPC   NC316487  26.571  22.405   9.596
  964POPC   PO416488  27.073  21.917   9.766
  964POPC   GL116489  26.891  22.137   9.345
  964POPC   GL216490  27.130  22.341   9.179
  964POPC   C1A16491  26.633  22.190   8.941
  964POPC   D2A16492  26.543  22.353   8.506
  964POPC   C3A16493  26.822  22.195   8.149
  964POPC   C4A16494  27.082  22.112   7.774
  964POPC   C1B16495  27.047  22.454   8.759
  964POPC   C2B16496  26.954  22.655   8.355
  964POPC   C3B16497  26.592  22.677   8.082
  964POPC   C4B16498  26.644  22.447   7.724
  965POPC   NC316499  26.159  18.386   9.517
  965POPC   PO416500  26.799  18.158   9.708
  965POPC   GL116501  26.912  18.223   9.274
  965POPC   GL216502  26.575  18.198   9.180
  965POPC   C1A16503  26.941  18.385   8.823
  965POPC   D2A16504  26.762  18.315   8.379
  965POPC   C3A16505  27.013  18.447   8.025
  965POPC   C4A16506  27.120  18.531   7.596
  965POPC   C1B16507  26.502  18.061   8.748
  965POPC   C2B16508  26.346  17.922   8.335
  965POPC   C3B16509  26.535  18.050   7.960
  965POPC   C4B16510  26.640  18.389   7.676
  966POPC   NC316511   7.438   2.237   9.591
  966POPC   PO416512   7.226   1.645   9.396
  966POPC   GL116513   7.210   2.036   9.152
  966POPC   GL216514   7.549   2.170   9.110
  966POPC   C1A16515   7.144   2.236   8.744
  966POPC   D2A16516   7.280   2.089   8.332
  966POPC   C3A16517   7.478   2.314   8.025
  966POPC   C4A16518   7.611   2.173   7.612
  966POPC   C1B16519   7.565   1.932   8.739
  966POPC   C2B16520   7.750   1.792   8.366
  966POPC   C3B16521   7.575   1.701   7.986
  966POPC   C4B16522   7.675   1.651   7.577
  967POPC   NC316523  31.645   3.098   9.489
  967POPC   PO416524  31.880   2.437   9.541
  967POPC   GL116525  31.614   2.662   9.183
  967POPC   GL216526  31.704   2.999   9.015
  967POPC   C1A16527  31.674   2.588   8.727
  967POPC   D2A16528  31.609   2.414   8.313
  967POPC   C3A16529  31.805   2.578   7.962
  967POPC   C4A16530  31.481   2.603   7.668
  967POPC   C1B16531  31.636   3.282   8.681
  967POPC   C2B16532  31.359   3.138   8.381
  967POPC   C3B16533  31.460   2.923   8.063
  967POPC   C4B16534  31.690   3.059   7.698
  968POPC   NC316535  25.516   2.874  10.061
  968POPC   PO416536  25.237   2.589   9.498
  968POPC   GL116537  25.325   2.479   9.115
  968POPC   GL216538  25.345   2.830   9.052
  968POPC   C1A16539  25.220   2.495   8.703
  968POPC   D2A16540  25.326   2.780   8.397
  968POPC   C3A16541  25.304   2.595   8.011
  968POPC   C4A16542  25.549   2.571   7.698
  968POPC   C1B16543  25.010   2.963   8.819
  968POPC   C2B16544  24.837   2.955   8.428
  968POPC   C3B16545  25.052   3.055   8.042
  968POPC   C4B16546  25.026   2.874   7.673
  969POPC   NC316547  37.490  37.991   9.559
  969POPC   PO416548  37.640  37.296   9.561
  969POPC   GL116549  37.662  37.486   9.159
  969POPC   GL216550  37.644  37.794   9.125
  969POPC   C1A16551  37.785  37.382   8.769
  969POPC   D2A16552  37.609  37.436   8.386
  969POPC   C3A16553  37.845  37.271   8.064
  969POPC   C4A16554  37.732  37.394   7.722
  969POPC   C1B16555  37.674  37.893   8.724
  969POPC   C2B16556  37.975  37.791   8.439
  969POPC   C3B16557  37.855  37.793   8.048
  969POPC   C4B16558  38.003  37.801   7.662
  970POPC   NC316559  38.237  24.043   9.560
  970POPC   PO416560  38.752  23.666   9.533
  970POPC   GL116561  38.631  23.641   9.141
  970POPC   GL216562  38.555  23.973   9.149
  970POPC   C1A16563  38.368  23.713   8.754
  970POPC   D2A16564  38.060  23.940   8.498
  970POPC   C3A16565  38.167  23.908   8.053
  970POPC   C4A16566  38.249  24.151   7.697
  970POPC   C1B16567  38.832  23.932   8.771
  970POPC   C2B16568  38.746  23.999   8.317
  970POPC   C3B16569  38.725  23.963   7.837
  970POPC   C4B16570  38.821  24.043   7.371
  971POPC   NC316571  40.307  21.569   9.593
  971POPC   PO416572  39.813  21.297   9.401
  971POPC   GL116573  39.977  21.611   9.086
  971POPC   GL216574  40.332  21.701   9.105
  971POPC   C1A16575  39.922  21.554   8.629
  971POPC   D2A16576  39.825  21.233   8.295
  971POPC   C3A16577  39.991  21.283   7.849
  971POPC   C4A16578  39.989  21.418   7.395
  971POPC   C1B16579  40.420  21.485   8.709
  971POPC   C2B16580  40.302  21.417   8.277
  971POPC   C3B16581  40.474  21.483   7.862
  971POPC   C4B16582  40.510  21.426   7.403
  972POPC   NC316583  21.612   4.801   9.310
  972POPC   PO416584  21.439   4.396   9.798
  972POPC   GL116585  21.567   4.297   9.279
  972POPC   GL216586  21.343   4.533   9.004
  972POPC   C1A16587  21.592   4.151   8.813
  972POPC   D2A16588  21.416   4.381   8.433
  972POPC   C3A16589  21.373   4.240   7.993
  972POPC   C4A16590  21.540   4.318   7.564
  972POPC   C1B16591  21.068   4.684   8.635
  972POPC   C2B16592  20.998   4.600   8.158
  972POPC   C3B16593  21.269   4.729   7.777
  972POPC   C4B16594  21.312   5.137   7.495
  973POPC   NC316595  37.287  17.260   9.469
  973POPC   PO416596  37.095  17.941   9.428
  973POPC   GL116597  36.975  17.606   9.143
  973POPC   GL216598  36.796  17.310   9.180
  973POPC   C1A16599  36.672  17.578   8.779
  973POPC   D2A16600  36.827  17.499   8.385
  973POPC   C3A16601  36.682  17.687   8.041
  973POPC   C4A16602  36.798  17.841   7.686
  973POPC   C1B16603  36.903  17.128   8.768
  973POPC   C2B16604  36.971  17.023   8.308
  973POPC   C3B16605  36.763  17.176   7.935
  973POPC   C4B16606  36.875  17.367   7.551
  974POPC   NC316607  23.962  21.849   9.587
  974POPC   PO416608  23.970  21.181   9.676
  974POPC   GL116609  23.851  21.341   9.279
  974POPC   GL216610  24.155  21.560   9.193
  974POPC   C1A16611  23.521  21.292   8.936
  974POPC   D2A16612  23.499  21.564   8.553
  974POPC   C3A16613  23.498  21.389   8.119
  974POPC   C4A16614  23.475  21.566   7.699
  974POPC   C1B16615  23.959  21.486   8.796
  974POPC   C2B16616  24.007  21.493   8.365
  974POPC   C3B16617  23.892  21.722   8.003
  974POPC   C4B16618  23.944  21.667   7.547
  975POPC   NC316619  29.534  17.388   9.492
  975POPC   PO416620  28.896  17.173   9.546
  975POPC   GL116621  29.122  17.318   9.148
  975POPC   GL216622  29.382  17.578   9.025
  975POPC   C1A16623  29.122  17.306   8.693
  975POPC   D2A16624  29.134  17.540   8.334
  975POPC   C3A16625  29.027  17.266   8.016
  975POPC   C4A16626  29.258  17.129   7.688
  975POPC   C1B16627  28.964  17.765   8.829
  975POPC   C2B16628  28.841  17.959   8.416
  975POPC   C3B16629  28.869  17.801   7.973
  975POPC   C4B16630  29.245  17.648   7.730
  976POPC   NC316631  22.480  18.656   9.522
  976POPC   PO416632  23.211  18.392   9.507
  976POPC   GL116633  23.090  18.183   9.131
  976POPC   GL216634  22.730  18.131   9.048
  976POPC   C1A16635  23.122  18.389   8.744
  976POPC   D2A16636  23.444  18.468   8.451
  976POPC   C3A16637  23.301  18.564   8.037
  976POPC   C4A16638  22.924  18.372   7.799
  976POPC   C1B16639  22.631  18.150   8.619
  976POPC   C2B16640  22.588  18.404   8.226
  976POPC   C3B16641  22.399  18.275   7.837
  976POPC   C4B16642  22.523  17.911   7.596
  977POPC   NC316643  40.519  14.109   9.395
  977POPC   PO416644  39.885  14.373   9.495
  977POPC   GL116645  40.001  14.208   9.113
  977POPC   GL216646  40.239  14.478   9.074
  977POPC   C1A16647  39.920  14.275   8.673
  977POPC   D2A16648  40.125  14.510   8.372
  977POPC   C3A16649  39.973  14.474   7.980
  977POPC   C4A16650  39.899  14.056   7.827
  977POPC   C1B16651  40.414  14.211   8.764
  977POPC   C2B16652  40.370  13.988   8.396
  977POPC   C3B16653  40.382  14.139   7.991
  977POPC   C4B16654  40.375  14.398   7.633
  978POPC   NC316655   2.437   6.607   9.403
  978POPC   PO416656   3.093   6.500   9.399
  978POPC   GL116657   2.831   6.521   9.027
  978POPC   GL216658   2.561   6.789   8.959
  978POPC   C1A16659   2.851   6.588   8.588
  978POPC   D2A16660   2.510   6.708   8.367
  978POPC   C3A16661   2.557   6.476   8.010
  978POPC   C4A16662   2.892   6.575   7.715
  978POPC   C1B16663   2.508   7.148   8.695
  978POPC   C2B16664   2.342   7.198   8.293
  978POPC   C3B16665   2.582   7.019   7.958
  978POPC   C4B16666   2.438   6.768   7.619
  979POPC   NC316667  33.471  44.813   9.611
  979POPC   PO416668  33.843  44.262   9.823
  979POPC   GL116669  33.933  44.567   9.377
  979POPC   GL216670  33.774  44.874   9.226
  979POPC   C1A16671  33.924  44.555   8.892
  979POPC   D2A16672  33.914  44.671   8.464
  979POPC   C3A16673  33.913  44.394   8.132
  979POPC   C4A16674  33.899  44.581   7.739
  979POPC   C1B16675  33.592  44.930   8.792
  979POPC   C2B16676  33.781   0.157   8.447
  979POPC   C3B16677  33.923  44.990   8.047
  979POPC   C4B16678  33.660   0.067   7.701
  980POPC   NC316679   5.439  31.021   9.495
  980POPC   PO416680   5.789  30.441   9.428
  980POPC   GL116681   5.779  30.711   9.119
  980POPC   GL216682   6.058  30.867   9.233
  980POPC   C1A16683   5.513  30.826   8.784
  980POPC   D2A16684   5.778  30.777   8.437
  980POPC   C3A16685   5.611  30.802   8.048
  980POPC   C4A16686   5.547  30.487   7.772
  980POPC   C1B16687   6.342  30.914   8.881
  980POPC   C2B16688   6.261  30.968   8.457
  980POPC   C3B16689   6.107  30.938   8.059
  980POPC   C4B16690   6.166  31.208   7.712
  981POPC   NC316691  30.020  24.848   9.719
  981POPC   PO416692  29.807  24.214   9.631
  981POPC   GL116693  30.015  24.285   9.240
  981POPC   GL216694  29.779  24.525   9.145
  981POPC   C1A16695  30.119  24.334   8.800
  981POPC   D2A16696  29.909  24.638   8.584
  981POPC   C3A16697  29.870  24.611   8.136
  981POPC   C4A16698  30.025  24.665   7.725
  981POPC   C1B16699  29.541  24.367   8.801
  981POPC   C2B16700  29.615  24.223   8.373
  981POPC   C3B16701  29.563  24.293   7.926
  981POPC   C4B16702  29.790  24.252   7.532
  982POPC   NC316703  21.978  29.537   9.478
  982POPC   PO416704  22.423  29.167   9.757
  982POPC   GL116705  22.299  29.219   9.232
  982POPC   GL216706  22.447  29.461   9.077
  982POPC   C1A16707  22.292  28.954   8.829
  982POPC   D2A16708  21.992  29.046   8.460
  982POPC   C3A16709  22.038  29.155   8.003
  982POPC   C4A16710  22.030  29.000   7.578
  982POPC   C1B16711  22.355  29.434   8.692
  982POPC   C2B16712  22.420  29.295   8.307
  982POPC   C3B16713  22.482  29.540   7.974
  982POPC   C4B16714  22.514  29.786   7.605
  983POPC   NC316715  41.104  10.033   9.907
  983POPC   PO416716  40.858  10.477   9.469
  983POPC   GL116717  40.809  10.450   9.046
  983POPC   GL216718  40.986  10.181   8.954
  983POPC   C1A16719  40.821  10.481   8.595
  983POPC   D2A16720  40.814  10.260   8.245
  983POPC   C3A16721  40.619  10.456   7.938
  983POPC   C4A16722  40.808  10.730   7.656
  983POPC   C1B16723  41.301  10.342   8.702
  983POPC   C2B16724  41.246  10.541   8.324
  983POPC   C3B16725  41.146  10.463   7.898
  983POPC   C4B16726  41.126  10.382   7.429
  984POPC   NC316727  23.614  13.436   9.477
  984POPC   PO416728  23.864  14.097   9.400
  984POPC   GL116729  23.871  13.901   8.981
  984POPC   GL216730  23.591  13.706   9.033
  984POPC   C1A16731  23.931  13.541   8.640
  984POPC   D2A16732  24.040  13.336   8.278
  984POPC   C3A16733  23.767  13.594   8.060
  984POPC   C4A16734  23.673  13.695   7.691
  984POPC   C1B16735  23.442  13.312   8.848
  984POPC   C2B16736  23.522  13.332   8.420
  984POPC   C3B16737  23.473  13.192   8.011
  984POPC   C4B16738  23.301  13.319   7.626
  985POPC   NC316739   1.813  29.278   9.445
  985POPC   PO416740   2.376  28.951   9.569
  985POPC   GL116741   2.319  29.166   9.178
  985POPC   GL216742   2.084  29.409   9.058
  985POPC   C1A16743   2.374  29.154   8.743
  985POPC   D2A16744   2.293  29.021   8.336
  985POPC   C3A16745   1.949  29.055   8.120
  985POPC   C4A16746   1.765  28.889   7.797
  985POPC   C1B16747   1.928  29.377   8.663
  985POPC   C2B16748   2.027  29.531   8.283
  985POPC   C3B16749   2.017  29.495   7.841
  985POPC   C4B16750   1.695  29.368   7.598
  986POPC   NC316751   2.549  39.788   9.888
  986POPC   PO416752   2.917  39.440   9.415
  986POPC   GL116753   2.993  39.536   9.041
  986POPC   GL216754   2.653  39.494   8.977
  986POPC   C1A16755   2.974  39.189   8.742
  986POPC   D2A16756   2.657  39.147   8.460
  986POPC   C3A16757   2.804  39.199   8.067
  986POPC   C4A16758   2.672  39.316   7.664
  986POPC   C1B16759   2.698  39.637   8.626
  986POPC   C2B16760   2.940  39.835   8.377
  986POPC   C3B16761   2.887  39.702   8.004
  986POPC   C4B16762   3.060  39.674   7.632
  987POPC   NC316763  35.451  24.411   9.438
  987POPC   PO416764  35.812  24.976   9.345
  987POPC   GL116765  35.496  24.759   9.071
  987POPC   GL216766  35.482  24.410   8.942
  987POPC   C1A16767  35.221  24.844   8.739
  987POPC   D2A16768  35.395  24.887   8.337
  987POPC   C3A16769  35.498  24.565   8.031
  987POPC   C4A16770  35.189  24.516   7.713
  987POPC   C1B16771  35.442  24.428   8.538
  987POPC   C2B16772  35.091  24.358   8.276
  987POPC   C3B16773  34.942  24.153   7.931
  987POPC   C4B16774  35.142  24.045   7.525
  988POPC   NC316775  35.148  33.362   9.436
  988POPC   PO416776  35.772  33.100   9.467
  988POPC   GL116777  35.455  33.119   9.126
  988POPC   GL216778  35.122  32.916   9.151
  988POPC   C1A16779  35.248  33.213   8.738
  988POPC   D2A16780  35.414  33.038   8.379
  988POPC   C3A16781  35.262  32.946   7.993
  988POPC   C4A16782  35.547  32.981   7.622
  988POPC   C1B16783  34.841  32.851   8.786
  988POPC   C2B16784  34.923  32.763   8.358
  988POPC   C3B16785  34.812  32.686   7.925
  988POPC   C4B16786  34.940  32.776   7.498
  989POPC   NC316787  35.078  34.931   9.603
  989POPC   PO416788  35.681  34.596   9.507
  989POPC   GL116789  35.378  34.659   9.187
  989POPC   GL216790  35.083  34.452   9.304
  989POPC   C1A16791  35.529  34.618   8.742
  989POPC   D2A16792  35.536  34.312   8.390
  989POPC   C3A16793  35.524  34.543   7.997
  989POPC   C4A16794  35.277  34.801   7.709
  989POPC   C1B16795  35.039  34.424   8.847
  989POPC   C2B16796  35.075  34.576   8.422
  989POPC   C3B16797  34.941  34.502   8.010
  989POPC   C4B16798  35.149  34.274   7.705
  990POPC   NC316799   9.727   6.570   9.633
  990POPC   PO416800   9.155   6.284   9.313
  990POPC   GL116801   9.523   6.538   9.112
  990POPC   GL216802   9.834   6.737   9.172
  990POPC   C1A16803   9.785   6.609   8.710
  990POPC   D2A16804   9.854   6.887   8.387
  990POPC   C3A16805   9.964   6.587   8.128
  990POPC   C4A16806   9.800   6.564   7.754
  990POPC   C1B16807   9.605   7.053   8.883
  990POPC   C2B16808   9.392   7.041   8.500
  990POPC   C3B16809   9.458   7.076   8.039
  990POPC   C4B16810   9.426   6.919   7.589
  991POPC   NC316811  26.676   7.292   9.477
  991POPC   PO416812  27.294   7.039   9.197
  991POPC   GL116813  26.893   7.188   9.033
  991POPC   GL216814  26.914   7.517   8.987
  991POPC   C1A16815  26.658   7.116   8.667
  991POPC   D2A16816  26.951   7.231   8.330
  991POPC   C3A16817  26.886   7.219   7.884
  991POPC   C4A16818  27.111   7.335   7.501
  991POPC   C1B16819  26.724   7.623   8.596
  991POPC   C2B16820  26.492   7.443   8.233
  991POPC   C3B16821  26.547   7.658   7.824
  991POPC   C4B16822  26.818   7.735   7.441
  992POPC   NC316823   5.564  13.159   9.996
  992POPC   PO416824   6.036  13.558   9.682
  992POPC   GL116825   5.871  13.710   9.277
  992POPC   GL216826   6.145  13.938   9.141
  992POPC   C1A16827   5.745  13.700   8.831
  992POPC   D2A16828   5.539  13.786   8.426
  992POPC   C3A16829   5.475  13.432   8.146
  992POPC   C4A16830   5.647  13.315   7.722
  992POPC   C1B16831   6.070  14.082   8.714
  992POPC   C2B16832   6.041  13.840   8.334
  992POPC   C3B16833   6.012  13.549   8.009
  992POPC   C4B16834   5.927  13.722   7.643
  993POPC   NC316835  14.063   1.706   9.766
  993POPC   PO416836  14.472   2.166   9.713
  993POPC   GL116837  14.488   2.061   9.209
  993POPC   GL216838  14.497   1.764   9.038
  993POPC   C1A16839  14.285   2.205   8.790
  993POPC   D2A16840  14.124   2.129   8.350
  993POPC   C3A16841  14.405   2.203   7.958
  993POPC   C4A16842  14.748   1.935   7.790
  993POPC   C1B16843  14.380   1.735   8.587
  993POPC   C2B16844  14.406   1.714   8.133
  993POPC   C3B16845  14.327   1.666   7.677
  993POPC   C4B16846  13.983   1.755   7.387
  994POPC   NC316847  35.901  25.439   9.202
  994POPC   PO416848  36.258  25.054   9.659
  994POPC   GL116849  36.271  25.093   9.210
  994POPC   GL216850  36.409  25.387   9.032
  994POPC   C1A16851  36.400  24.907   8.841
  994POPC   D2A16852  36.531  25.085   8.464
  994POPC   C3A16853  36.208  25.180   8.159
  994POPC   C4A16854  36.103  25.215   7.714
  994POPC   C1B16855  36.221  25.494   8.623
  994POPC   C2B16856  36.075  25.675   8.218
  994POPC   C3B16857  35.785  25.600   7.882
  994POPC   C4B16858  35.839  25.572   7.438
  995POPC   NC316859  40.243  10.101   9.531
  995POPC   PO416860  39.704   9.722   9.530
  995POPC   GL116861  39.934   9.866   9.203
  995POPC   GL216862  40.197   9.639   9.264
  995POPC   C1A16863  40.068   9.956   8.803
  995POPC   D2A16864  39.927  10.066   8.409
  995POPC   C3A16865  39.968   9.831   8.050
  995POPC   C4A16866  39.782   9.986   7.672
  995POPC   C1B16867  40.345   9.500   8.879
  995POPC   C2B16868  40.206   9.562   8.487
  995POPC   C3B16869  40.324   9.460   8.107
  995POPC   C4B16870  40.391   9.489   7.697
  996POPC   NC316871  26.846  21.610   9.486
  996POPC   PO416872  26.963  20.942   9.594
  996POPC   GL116873  26.862  21.130   9.151
  996POPC   GL216874  26.869  21.466   9.016
  996POPC   C1A16875  26.912  21.108   8.684
  996POPC   D2A16876  27.099  21.387   8.355
  996POPC   C3A16877  26.961  21.200   8.010
  996POPC   C4A16878  26.545  21.081   7.935
  996POPC   C1B16879  26.519  21.680   8.846
  996POPC   C2B16880  26.610  21.835   8.464
  996POPC   C3B16881  26.661  21.670   8.055
  996POPC   C4B16882  26.587  21.939   7.730
  997POPC   NC316883  44.272  25.482   9.718
  997POPC   PO416884  43.778  26.010   9.696
  997POPC   GL116885  43.811  26.198   9.268
  997POPC   GL216886  43.519  26.114   9.172
  997POPC   C1A16887  44.050  26.106   8.857
  997POPC   D2A16888  44.070  25.909   8.455
  997POPC   C3A16889  44.198  26.147   8.112
  997POPC   C4A16890  44.082  25.949   7.728
  997POPC   C1B16891  43.555  25.993   8.778
  997POPC   C2B16892  43.408  26.026   8.403
  997POPC   C3B16893  43.671  26.038   8.055
  997POPC   C4B16894  43.547  25.929   7.663
  998POPC   NC316895   8.978   6.008   9.644
  998POPC   PO416896   8.672   6.657   9.429
  998POPC   GL116897   8.722   6.625   9.002
  998POPC   GL216898   8.850   6.302   8.886
  998POPC   C1A16899   8.804   6.876   8.639
  998POPC   D2A16900   9.010   6.790   8.259
  998POPC   C3A16901   8.813   6.528   7.980
  998POPC   C4A16902   8.709   6.860   7.705
  998POPC   C1B16903   9.218   6.528   8.691
  998POPC   C2B16904   9.464   6.570   8.330
  998POPC   C3B16905   9.340   6.562   7.932
  998POPC   C4B16906   9.097   6.525   7.572
  999POPC   NC316907  15.494   6.266   9.909
  999POPC   PO416908  15.069   6.080   9.444
  999POPC   GL116909  15.149   5.774   9.165
  999POPC   GL216910  14.862   5.818   9.021
  999POPC   C1A16911  15.249   5.556   8.787
  999POPC   D2A16912  15.121   5.734   8.415
  999POPC   C3A16913  15.318   5.672   8.010
  999POPC   C4A16914  15.054   5.802   7.687
  999POPC   C1B16915  15.067   6.153   8.810
  999POPC   C2B16916  15.139   6.302   8.444
  999POPC   C3B16917  15.193   6.141   8.089
  999POPC   C4B16918  15.336   6.216   7.716
 1000POPC   NC316919  10.716   6.309   9.337
 1000POPC   PO416920  10.436   5.824   9.692
 1000POPC   GL116921  10.315   5.604   9.260
 1000POPC   GL216922  10.611   5.529   9.036
 1000POPC   C1A16923  10.145   5.697   8.827
 1000POPC   D2A16924  10.219   5.565   8.402
 1000POPC   C3A16925  10.031   5.810   8.068
 1000POPC   C4A16926  10.171   6.180   7.858
 1000POPC   C1B16927  10.633   5.923   8.743
 1000POPC   C2B16928  10.842   6.168   8.374
 1000POPC   C3B16929  10.841   6.074   7.893
 1000POPC   C4B16930  10.804   5.683   7.603
 1001POPC   NC316931   5.162   1.147   9.548
 1001POPC   PO416932   5.380   1.731   9.349
 1001POPC   GL116933   5.175   1.439   9.088
 1001POPC   GL216934   4.964   1.151   9.067
 1001POPC   C1A16935   5.037   1.453   8.660
 1001POPC   D2A16936   4.857   1.258   8.276
 1001POPC   C3A16937   5.082   1.448   7.930
 1001POPC   C4A16938   5.226   1.526   7.513
 1001POPC   C1B16939   5.269   0.886   8.879
 1001POPC   C2B16940   5.411   0.809   8.454
 1001POPC   C3B16941   5.301   0.936   8.012
 1001POPC   C4B16942   4.923   0.960   7.830
 1002POPC   NC316943  11.520   7.963   9.375
 1002POPC   PO416944  10.986   8.305   9.643
 1002POPC   GL116945  11.100   8.221   9.208
 1002POPC   GL216946  11.102   7.863   9.103
 1002POPC   C1A16947  11.235   8.240   8.774
 1002POPC   D2A16948  11.173   8.562   8.484
 1002POPC   C3A16949  11.287   8.496   8.055
 1002POPC   C4A16950  11.111   8.328   7.712
 1002POPC   C1B16951  11.382   7.735   8.730
 1002POPC   C2B16952  11.604   7.855   8.363
 1002POPC   C3B16953  11.406   7.978   7.996
 1002POPC   C4B16954  11.285   7.808   7.644
 1003POPC   NC316955  34.589  39.193   9.552
 1003POPC   PO416956  34.050  38.826   9.443
 1003POPC   GL116957  34.389  38.981   9.118
 1003POPC   GL216958  34.774  39.013   9.113
 1003POPC   C1A16959  34.542  39.088   8.660
 1003POPC   D2A16960  34.761  39.407   8.374
 1003POPC   C3A16961  34.527  39.401   7.972
 1003POPC   C4A16962  34.255  39.057   7.797
 1003POPC   C1B16963  35.035  39.021   8.741
 1003POPC   C2B16964  35.077  38.986   8.354
 1003POPC   C3B16965  35.045  39.198   7.992
 1003POPC   C4B16966  34.813  39.114   7.658
 1004POPC   NC316967  31.275   4.977   9.427
 1004POPC   PO416968  31.630   5.531   9.533
 1004POPC   GL116969  31.515   5.520   9.110
 1004POPC   GL216970  31.215   5.341   9.070
 1004POPC   C1A16971  31.665   5.304   8.745
 1004POPC   D2A16972  31.806   5.077   8.385
 1004POPC   C3A16973  31.483   4.935   8.127
 1004POPC   C4A16974  31.569   4.824   7.705
 1004POPC   C1B16975  31.117   5.514   8.674
 1004POPC   C2B16976  31.206   5.591   8.247
 1004POPC   C3B16977  31.296   5.355   7.882
 1004POPC   C4B16978  31.074   4.992   7.756
 1005POPC   NC316979  10.155  40.264   9.619
 1005POPC   PO416980  10.728  40.237   9.539
 1005POPC   GL116981  10.452  40.069   9.229
 1005POPC   GL216982  10.405  39.752   9.190
 1005POPC   C1A16983  10.305  40.213   8.813
 1005POPC   D2A16984  10.334  40.481   8.438
 1005POPC   C3A16985  10.509  40.248   8.139
 1005POPC   C4A16986  10.475  40.140   7.706
 1005POPC   C1B16987  10.583  39.703   8.807
 1005POPC   C2B16988  10.502  39.779   8.389
 1005POPC   C3B16989  10.748  39.814   8.035
 1005POPC   C4B16990  10.569  39.624   7.736
 1006POPC   NC316991  42.463  38.082   9.476
 1006POPC   PO416992  42.282  38.660   9.531
 1006POPC   GL116993  42.254  38.527   9.136
 1006POPC   GL216994  42.102  38.193   9.119
 1006POPC   C1A16995  42.246  38.776   8.746
 1006POPC   D2A16996  41.975  38.736   8.396
 1006POPC   C3A16997  42.212  38.776   7.996
 1006POPC   C4A16998  42.143  38.632   7.581
 1006POPC   C1B16999  42.150  38.301   8.701
 1006POPC   C2B17000  42.345  38.387   8.297
 1006POPC   C3B17001  42.257  38.236   7.896
 1006POPC   C4B17002  42.380  38.220   7.404
 1007POPC   NC317003   1.024  26.390   9.458
 1007POPC   PO417004   1.329  25.770   9.514
 1007POPC   GL117005   1.455  25.994   9.153
 1007POPC   GL217006   1.147  26.093   9.075
 1007POPC   C1A17007   1.642  25.923   8.753
 1007POPC   D2A17008   1.597  26.135   8.346
 1007POPC   C3A17009   1.614  25.884   7.957
 1007POPC   C4A17010   1.267  25.895   7.658
 1007POPC   C1B17011   1.164  26.142   8.651
 1007POPC   C2B17012   1.093  26.346   8.268
 1007POPC   C3B17013   0.951  26.295   7.869
 1007POPC   C4B17014   1.191  26.448   7.558
 1008POPC   NC317015  41.830  10.979   9.698
 1008POPC   PO417016  41.296  11.052   9.395
 1008POPC   GL117017  41.638  11.143   9.148
 1008POPC   GL217018  41.538  11.452   9.019
 1008POPC   C1A17019  41.743  11.091   8.705
 1008POPC   D2A17020  42.009  11.255   8.399
 1008POPC   C3A17021  41.950  11.025   8.028
 1008POPC   C4A17022  41.788  10.962   7.627
 1008POPC   C1B17023  41.320  11.370   8.721
 1008POPC   C2B17024  41.500  11.559   8.348
 1008POPC   C3B17025  41.579  11.408   7.942
 1008POPC   C4B17026  41.203  11.278   7.764
 1009POPC   NC317027  34.266  34.909   9.439
 1009POPC   PO417028  34.265  35.581   9.412
 1009POPC   GL117029  34.472  35.312   9.161
 1009POPC   GL217030  34.817  35.330   9.273
 1009POPC   C1A17031  34.344  35.211   8.764
 1009POPC   D2A17032  34.211  35.404   8.350
 1009POPC   C3A17033  34.530  35.341   8.013
 1009POPC   C4A17034  34.546  35.329   7.556
 1009POPC   C1B17035  34.859  35.538   8.868
 1009POPC   C2B17036  34.779  35.338   8.478
 1009POPC   C3B17037  34.942  35.044   8.179
 1009POPC   C4B17038  34.812  34.966   7.777
 1010POPC   NC317039  25.817   6.570   9.936
 1010POPC   PO417040  25.222   6.565   9.510
 1010POPC   GL117041  25.285   6.746   9.110
 1010POPC   GL217042  25.468   7.063   9.232
 1010POPC   C1A17043  25.277   6.583   8.678
 1010POPC   D2A17044  25.520   6.431   8.321
 1010POPC   C3A17045  25.251   6.504   7.959
 1010POPC   C4A17046  25.133   6.835   7.687
 1010POPC   C1B17047  25.638   6.975   8.815
 1010POPC   C2B17048  25.792   6.872   8.406
 1010POPC   C3B17049  25.610   6.878   7.970
 1010POPC   C4B17050  25.623   6.813   7.515
 1011POPC   NC317051  25.680  18.747   9.480
 1011POPC   PO417052  26.320  18.644   9.172
 1011POPC   GL117053  26.090  18.292   9.019
 1011POPC   GL217054  25.763  18.274   9.182
 1011POPC   C1A17055  26.066  18.317   8.596
 1011POPC   D2A17056  26.073  18.677   8.364
 1011POPC   C3A17057  26.271  18.503   8.014
 1011POPC   C4A17058  26.139  18.219   7.643
 1011POPC   C1B17059  25.714  18.019   8.803
 1011POPC   C2B17060  25.640  18.122   8.392
 1011POPC   C3B17061  25.909  18.104   8.079
 1011POPC   C4B17062  25.836  17.824   7.735
 1012POPC   NC317063  21.221  38.864   9.616
 1012POPC   PO417064  21.527  39.416   9.461
 1012POPC   GL117065  21.450  39.126   9.172
 1012POPC   GL217066  21.111  39.080   9.126
 1012POPC   C1A17067  21.593  38.949   8.768
 1012POPC   D2A17068  21.830  39.070   8.364
 1012POPC   C3A17069  21.592  39.030   7.982
 1012POPC   C4A17070  21.367  39.028   7.598
 1012POPC   C1B17071  21.261  39.325   8.749
 1012POPC   C2B17072  21.414  39.362   8.333
 1012POPC   C3B17073  21.183  39.358   7.940
 1012POPC   C4B17074  20.799  39.548   7.816
 1013POPC   NC317075  17.206   4.419   9.348
 1013POPC   PO417076  17.839   4.180   9.614
 1013POPC   GL117077  17.718   4.111   9.174
 1013POPC   GL217078  17.611   4.446   9.015
 1013POPC   C1A17079  17.914   4.130   8.742
 1013POPC   D2A17080  17.818   4.385   8.366
 1013POPC   C3A17081  17.404   4.230   8.168
 1013POPC   C4A17082  17.429   4.023   7.759
 1013POPC   C1B17083  17.508   4.698   8.631
 1013POPC   C2B17084  17.476   4.730   8.151
 1013POPC   C3B17085  17.273   4.584   7.746
 1013POPC   C4B17086  17.046   4.786   7.384
 1014POPC   NC317087   7.495  33.507   9.519
 1014POPC   PO417088   7.697  32.884   9.397
 1014POPC   GL117089   7.397  33.140   9.143
 1014POPC   GL217090   7.119  33.403   9.169
 1014POPC   C1A17091   7.437  33.095   8.729
 1014POPC   D2A17092   7.644  33.244   8.379
 1014POPC   C3A17093   7.421  33.071   8.026
 1014POPC   C4A17094   7.506  32.930   7.621
 1014POPC   C1B17095   6.983  33.333   8.778
 1014POPC   C2B17096   7.174  33.392   8.401
 1014POPC   C3B17097   7.057  33.415   7.987
 1014POPC   C4B17098   7.131  33.263   7.591
 1015POPC   NC317099   6.454  23.469   9.408
 1015POPC   PO417100   7.032  23.869   9.407
 1015POPC   GL117101   6.711  23.879   9.081
 1015POPC   GL217102   6.722  23.516   8.990
 1015POPC   C1A17103   6.731  23.861   8.620
 1015POPC   D2A17104   6.538  23.536   8.364
 1015POPC   C3A17105   6.687  23.539   7.987
 1015POPC   C4A17106   6.921  23.797   7.745
 1015POPC   C1B17107   6.288  23.578   8.802
 1015POPC   C2B17108   6.036  23.671   8.434
 1015POPC   C3B17109   6.161  23.591   8.005
 1015POPC   C4B17110   6.368  23.872   7.712
 1016POPC   NC317111  23.345  21.054   9.567
 1016POPC   PO417112  23.002  21.735   9.498
 1016POPC   GL117113  22.860  21.489   9.096
 1016POPC   GL217114  23.060  21.230   9.168
 1016POPC   C1A17115  22.984  21.498   8.646
 1016POPC   D2A17116  22.883  21.708   8.230
 1016POPC   C3A17117  22.991  21.423   7.875
 1016POPC   C4A17118  23.209  21.160   7.566
 1016POPC   C1B17119  22.836  21.022   8.859
 1016POPC   C2B17120  22.861  20.792   8.485
 1016POPC   C3B17121  22.606  20.761   8.149
 1016POPC   C4B17122  22.666  21.020   7.830
 1017POPC   NC317123  10.215  20.512   9.338
 1017POPC   PO417124  10.638  20.960   9.641
 1017POPC   GL117125  10.661  20.723   9.174
 1017POPC   GL217126  10.404  20.625   8.896
 1017POPC   C1A17127  10.788  20.883   8.743
 1017POPC   D2A17128  10.599  20.738   8.368
 1017POPC   C3A17129  10.830  20.898   8.022
 1017POPC   C4A17130  10.665  20.756   7.650
 1017POPC   C1B17131  10.306  20.231   8.698
 1017POPC   C2B17132  10.272  20.210   8.247
 1017POPC   C3B17133  10.330  20.450   7.867
 1017POPC   C4B17134  10.180  20.687   7.472
 1018POPC   NC317135  16.150  40.452   9.389
 1018POPC   PO417136  16.294  39.673   9.557
 1018POPC   GL117137  16.055  39.965   9.265
 1018POPC   GL217138  16.260  39.914   9.090
 1018POPC   C1A17139  15.869  40.068   8.812
 1018POPC   D2A17140  15.710  39.968   8.381
 1018POPC   C3A17141  15.793  40.132   7.937
 1018POPC   C4A17142  15.671  39.922   7.528
 1018POPC   C1B17143  16.368  40.159   8.759
 1018POPC   C2B17144  16.222  40.202   8.359
 1018POPC   C3B17145  16.291  40.059   7.943
 1018POPC   C4B17146  16.187  40.349   7.610
 1019POPC   NC317147  32.188   2.092   9.671
 1019POPC   PO417148  32.506   1.479   9.598
 1019POPC   GL117149  32.357   1.756   9.224
 1019POPC   GL217150  32.368   2.139   9.206
 1019POPC   C1A17151  32.106   1.832   8.810
 1019POPC   D2A17152  32.063   2.200   8.512
 1019POPC   C3A17153  32.167   2.250   8.096
 1019POPC   C4A17154  32.201   2.069   7.704
 1019POPC   C1B17155  32.578   2.017   8.806
 1019POPC   C2B17156  32.483   1.902   8.355
 1019POPC   C3B17157  32.653   2.098   7.977
 1019POPC   C4B17158  32.681   2.058   7.507
 1020POPC   NC317159  44.877  38.768   9.556
 1020POPC   PO417160   0.387  38.303   9.725
 1020POPC   GL117161   0.376  38.592   9.339
 1020POPC   GL217162   0.104  38.526   9.177
 1020POPC   C1A17163   0.424  38.617   8.823
 1020POPC   D2A17164   0.393  38.259   8.521
 1020POPC   C3A17165   0.495  38.279   8.090
 1020POPC   C4A17166   0.361  38.156   7.712
 1020POPC   C1B17167  44.940  38.776   8.872
 1020POPC   C2B17168   0.002  38.674   8.470
 1020POPC   C3B17169  44.996  38.413   8.131
 1020POPC   C4B17170   0.137  38.598   7.785
 1021POPC   NC317171  18.893  15.754   9.738
 1021POPC   PO417172  19.273  16.271   9.546
 1021POPC   GL117173  19.144  16.102   9.186
 1021POPC   GL217174  19.093  15.750   9.205
 1021POPC   C1A17175  19.056  16.215   8.786
 1021POPC   D2A17176  19.008  16.400   8.389
 1021POPC   C3A17177  19.166  16.140   8.095
 1021POPC   C4A17178  18.888  16.065   7.784
 1021POPC   C1B17179  18.890  15.730   8.811
 1021POPC   C2B17180  18.909  15.785   8.369
 1021POPC   C3B17181  19.081  15.623   7.976
 1021POPC   C4B17182  18.965  15.566   7.562
 1022POPC   NC317183  34.355  19.070   9.434
 1022POPC   PO417184  34.927  18.730   9.433
 1022POPC   GL117185  34.787  19.066   9.125
 1022POPC   GL217186  34.454  19.005   8.943
 1022POPC   C1A17187  34.846  19.259   8.718
 1022POPC   D2A17188  34.577  19.109   8.389
 1022POPC   C3A17189  34.801  18.972   8.001
 1022POPC   C4A17190  34.712  19.199   7.582
 1022POPC   C1B17191  34.144  19.258   8.716
 1022POPC   C2B17192  34.125  19.450   8.303
 1022POPC   C3B17193  34.390  19.319   7.962
 1022POPC   C4B17194  34.335  18.916   7.808
 1023POPC   NC317195  18.424  24.240   9.606
 1023POPC   PO417196  18.130  23.589   9.432
 1023POPC   GL117197  18.198  23.656   9.005
 1023POPC   GL217198  18.477  23.511   8.838
 1023POPC   C1A17199  17.989  23.716   8.626
 1023POPC   D2A17200  18.090  23.525   8.233
 1023POPC   C3A17201  18.388  23.700   8.010
 1023POPC   C4A17202  18.659  23.871   7.710
 1023POPC   C1B17203  18.468  23.838   8.515
 1023POPC   C2B17204  18.139  24.063   8.278
 1023POPC   C3B17205  18.079  24.047   7.826
 1023POPC   C4B17206  18.331  24.173   7.459
 1024POPC   NC317207  32.779  29.696   9.527
 1024POPC   PO417208  32.931  29.010   9.617
 1024POPC   GL117209  32.941  29.254   9.276
 1024POPC   GL217210  33.250  29.362   9.165
 1024POPC   C1A17211  32.906  29.162   8.828
 1024POPC   D2A17212  33.142  28.915   8.536
 1024POPC   C3A17213  33.141  28.981   8.081
 1024POPC   C4A17214  32.936  29.321   7.852
 1024POPC   C1B17215  33.465  29.303   8.749
 1024POPC   C2B17216  33.705  29.559   8.418
 1024POPC   C3B17217  33.640  29.564   7.962
 1024POPC   C4B17218  33.408  29.279   7.678
 1025POPC   NC317219  24.852  31.615   9.552
 1025POPC   PO417220  24.516  30.973   9.663
 1025POPC   GL117221  24.429  31.100   9.166
 1025POPC   GL217222  24.461  31.446   9.140
 1025POPC   C1A17223  24.678  31.248   8.746
 1025POPC   D2A17224  24.673  31.488   8.325
 1025POPC   C3A17225  24.624  31.253   7.913
 1025POPC   C4A17226  24.297  31.178   7.585
 1025POPC   C1B17227  24.390  31.719   8.747
 1025POPC   C2B17228  24.349  31.890   8.306
 1025POPC   C3B17229  24.413  31.745   7.897
 1025POPC   C4B17230  24.221  31.673   7.505
 1026POPC   NC317231  41.973  28.383   9.525
 1026POPC   PO417232  42.649  28.205   9.496
 1026POPC   GL117233  42.384  28.450   9.202
 1026POPC   GL217234  42.186  28.187   9.118
 1026POPC   C1A17235  42.154  28.643   8.847
 1026POPC   D2A17236  42.134  28.876   8.467
 1026POPC   C3A17237  42.001  28.693   8.052
 1026POPC   C4A17238  42.203  28.680   7.662
 1026POPC   C1B17239  42.356  28.191   8.724
 1026POPC   C2B17240  42.345  28.401   8.325
 1026POPC   C3B17241  42.270  28.248   7.907
 1026POPC   C4B17242  42.224  28.209   7.426
 1027POPC   NC317243  35.859  35.129   9.499
 1027POPC   PO417244  35.233  35.379   9.565
 1027POPC   GL117245  35.417  35.413   9.151
 1027POPC   GL217246  35.595  35.104   9.049
 1027POPC   C1A17247  35.446  35.553   8.714
 1027POPC   D2A17248  35.416  35.309   8.331
 1027POPC   C3A17249  35.415  35.476   7.917
 1027POPC   C4A17250  35.016  35.432   7.741
 1027POPC   C1B17251  35.799  35.105   8.631
 1027POPC   C2B17252  35.852  35.103   8.166
 1027POPC   C3B17253  35.701  35.101   7.738
 1027POPC   C4B17254  35.655  34.825   7.362
 1028POPC   NC317255  19.593  10.342   9.571
 1028POPC   PO417256  19.530  10.959   9.567
 1028POPC   GL117257  19.687  10.737   9.191
 1028POPC   GL217258  19.778  10.411   9.092
 1028POPC   C1A17259  19.686  10.837   8.733
 1028POPC   D2A17260  19.633  11.003   8.285
 1028POPC   C3A17261  19.689  10.633   7.988
 1028POPC   C4A17262  19.658  10.199   7.800
 1028POPC   C1B17263  19.530  10.316   8.709
 1028POPC   C2B17264  19.583  10.076   8.322
 1028POPC   C3B17265  19.783   9.757   8.053
 1028POPC   C4B17266  19.670   9.591   7.672
 1029POPC   NC317267   6.500  16.882   9.364
 1029POPC   PO417268   6.998  16.745   9.742
 1029POPC   GL117269   6.894  16.627   9.216
 1029POPC   GL217270   6.674  16.359   9.108
 1029POPC   C1A17271   6.621  16.727   8.766
 1029POPC   D2A17272   6.284  16.866   8.512
 1029POPC   C3A17273   6.379  16.907   8.083
 1029POPC   C4A17274   6.764  16.959   7.796
 1029POPC   C1B17275   7.020  16.447   8.759
 1029POPC   C2B17276   7.014  16.550   8.363
 1029POPC   C3B17277   6.746  16.519   8.043
 1029POPC   C4B17278   6.417  16.509   7.728
 1030POPC   NC317279   1.761  18.342   9.137
 1030POPC   PO417280   2.372  18.259   9.408
 1030POPC   GL117281   2.255  18.289   8.996
 1030POPC   GL217282   2.109  17.941   9.060
 1030POPC   C1A17283   2.079  18.462   8.579
 1030POPC   D2A17284   1.851  18.442   8.161
 1030POPC   C3A17285   2.165  18.332   7.841
 1030POPC   C4A17286   2.110  18.405   7.381
 1030POPC   C1B17287   2.248  17.930   8.642
 1030POPC   C2B17288   2.093  18.016   8.256
 1030POPC   C3B17289   1.818  17.960   7.922
 1030POPC   C4B17290   2.038  17.940   7.530
 1031POPC   NC317291   6.842  24.816   9.448
 1031POPC   PO417292   6.859  25.484   9.567
 1031POPC   GL117293   6.613  25.336   9.228
 1031POPC   GL217294   6.382  25.066   9.175
 1031POPC   C1A17295   6.570  25.520   8.845
 1031POPC   D2A17296   6.600  25.489   8.406
 1031POPC   C3A17297   6.345  25.668   8.091
 1031POPC   C4A17298   6.490  25.495   7.712
 1031POPC   C1B17299   6.402  24.830   8.779
 1031POPC   C2B17300   6.628  24.946   8.402
 1031POPC   C3B17301   6.618  25.043   7.966
 1031POPC   C4B17302   6.362  24.790   7.677
 1032POPC   NC317303  26.717   9.167   9.562
 1032POPC   PO417304  27.199   8.756   9.504
 1032POPC   GL117305  26.851   8.786   9.220
 1032POPC   GL217306  26.672   9.095   9.058
 1032POPC   C1A17307  26.787   8.642   8.818
 1032POPC   D2A17308  26.627   8.890   8.516
 1032POPC   C3A17309  26.853   9.061   8.195
 1032POPC   C4A17310  26.815   9.011   7.756
 1032POPC   C1B17311  26.566   9.366   8.697
 1032POPC   C2B17312  26.399   9.305   8.267
 1032POPC   C3B17313  26.415   9.309   7.803
 1032POPC   C4B17314  26.163   9.335   7.427
 1033POPC   NC317315  27.987  42.596  10.013
 1033POPC   PO417316  28.423  42.674   9.481
 1033POPC   GL117317  28.415  42.522   9.112
 1033POPC   GL217318  28.166  42.272   9.076
 1033POPC   C1A17319  28.355  42.678   8.747
 1033POPC   D2A17320  28.247  42.488   8.377
 1033POPC   C3A17321  28.604  42.390   8.144
 1033POPC   C4A17322  28.701  42.562   7.762
 1033POPC   C1B17323  27.858  42.390   8.772
 1033POPC   C2B17324  27.727  42.436   8.370
 1033POPC   C3B17325  27.899  42.581   8.003
 1033POPC   C4B17326  28.222  42.402   7.814
 1034POPC   NC317327   0.485  17.714   9.530
 1034POPC   PO417328  44.939  18.066   9.304
 1034POPC   GL117329   0.259  17.731   9.079
 1034POPC   GL217330   0.348  17.358   9.145
 1034POPC   C1A17331   0.475  17.615   8.680
 1034POPC   D2A17332   0.244  17.495   8.309
 1034POPC   C3A17333   0.353  17.477   7.894
 1034POPC   C4A17334   0.493  17.673   7.489
 1034POPC   C1B17335   0.613  17.143   8.872
 1034POPC   C2B17336   0.609  17.123   8.415
 1034POPC   C3B17337   0.727  17.040   7.989
 1034POPC   C4B17338   0.573  17.130   7.581
 1035POPC   NC317339   2.720  17.955   9.318
 1035POPC   PO417340   3.253  18.335   9.466
 1035POPC   GL117341   2.990  18.365   9.097
 1035POPC   GL217342   3.054  18.681   8.960
 1035POPC   C1A17343   2.707  18.235   8.752
 1035POPC   D2A17344   2.506  18.315   8.362
 1035POPC   C3A17345   2.562  18.043   8.018
 1035POPC   C4A17346   2.934  18.080   7.740
 1035POPC   C1B17347   3.099  18.505   8.579
 1035POPC   C2B17348   3.075  18.265   8.208
 1035POPC   C3B17349   3.229  18.467   7.818
 1035POPC   C4B17350   3.362  18.598   7.372
 1036POPC   NC317351  26.841  23.881   9.676
 1036POPC   PO417352  26.369  23.498   9.772
 1036POPC   GL117353  26.721  23.493   9.353
 1036POPC   GL217354  26.904  23.814   9.184
 1036POPC   C1A17355  26.751  23.445   8.845
 1036POPC   D2A17356  26.571  23.619   8.432
 1036POPC   C3A17357  26.738  23.508   8.005
 1036POPC   C4A17358  26.600  23.579   7.562
 1036POPC   C1B17359  27.238  23.850   8.865
 1036POPC   C2B17360  27.215  23.857   8.408
 1036POPC   C3B17361  27.209  23.708   7.973
 1036POPC   C4B17362  26.953  23.930   7.643
 1037POPC   NC317363   3.317   8.401   9.640
 1037POPC   PO417364   3.251   7.808   9.336
 1037POPC   GL117365   3.460   8.115   9.079
 1037POPC   GL217366   3.519   8.462   9.171
 1037POPC   C1A17367   3.570   8.044   8.664
 1037POPC   D2A17368   3.830   8.032   8.334
 1037POPC   C3A17369   3.580   7.920   8.035
 1037POPC   C4A17370   3.217   8.046   7.813
 1037POPC   C1B17371   3.568   8.551   8.761
 1037POPC   C2B17372   3.567   8.450   8.326
 1037POPC   C3B17373   3.650   8.399   7.890
 1037POPC   C4B17374   3.297   8.515   7.611
 1038POPC   NC317375  35.548  42.557   9.477
 1038POPC   PO417376  34.993  42.107   9.432
 1038POPC   GL117377  35.338  42.168   9.122
 1038POPC   GL217378  35.303  42.532   9.054
 1038POPC   C1A17379  35.481  42.251   8.687
 1038POPC   D2A17380  35.277  42.584   8.429
 1038POPC   C3A17381  35.247  42.415   7.995
 1038POPC   C4A17382  35.418  41.964   7.896
 1038POPC   C1B17383  35.629  42.751   8.813
 1038POPC   C2B17384  35.806  42.653   8.413
 1038POPC   C3B17385  35.806  42.487   7.978
 1038POPC   C4B17386  35.702  42.731   7.620
 1039POPC   NC317387  32.547  25.715   9.559
 1039POPC   PO417388  32.030  25.236   9.479
 1039POPC   GL117389  32.068  25.349   9.092
 1039POPC   GL217390  32.353  25.572   9.094
 1039POPC   C1A17391  32.251  25.221   8.707
 1039POPC   D2A17392  32.399  24.895   8.427
 1039POPC   C3A17393  32.500  25.096   8.010
 1039POPC   C4A17394  32.601  25.101   7.552
 1039POPC   C1B17395  32.072  25.726   8.758
 1039POPC   C2B17396  31.874  25.750   8.369
 1039POPC   C3B17397  32.071  25.819   7.957
 1039POPC   C4B17398  32.278  25.497   7.715
 1040POPC   NC317399   6.827  39.339   9.508
 1040POPC   PO417400   6.784  38.744   9.461
 1040POPC   GL117401   6.705  39.026   9.107
 1040POPC   GL217402   6.473  39.333   9.129
 1040POPC   C1A17403   6.775  39.131   8.689
 1040POPC   D2A17404   7.008  39.427   8.426
 1040POPC   C3A17405   7.196  39.106   8.163
 1040POPC   C4A17406   6.948  38.943   7.811
 1040POPC   C1B17407   6.470  39.530   8.717
 1040POPC   C2B17408   6.507  39.372   8.298
 1040POPC   C3B17409   6.539  39.536   7.887
 1040POPC   C4B17410   6.314  39.355   7.499
 1041POPC   NC317411   2.647  36.679   9.435
 1041POPC   PO417412   2.395  37.234   9.495
 1041POPC   GL117413   2.574  37.034   9.084
 1041POPC   GL217414   2.914  36.901   9.049
 1041POPC   C1A17415   2.438  36.749   8.747
 1041POPC   D2A17416   2.341  36.790   8.303
 1041POPC   C3A17417   2.640  37.072   8.168
 1041POPC   C4A17418   3.049  37.179   7.991
 1041POPC   C1B17419   2.918  36.562   8.758
 1041POPC   C2B17420   2.789  36.581   8.334
 1041POPC   C3B17421   2.891  36.670   7.916
 1041POPC   C4B17422   2.884  36.352   7.602
 1042POPC   NC317423   8.765  18.418   9.477
 1042POPC   PO417424   9.290  18.712   9.472
 1042POPC   GL117425   9.190  18.393   9.138
 1042POPC   GL217426   9.016  18.063   9.195
 1042POPC   C1A17427   9.144  18.363   8.689
 1042POPC   D2A17428   9.135  18.679   8.372
 1042POPC   C3A17429   9.281  18.512   7.998
 1042POPC   C4A17430   9.047  18.295   7.713
 1042POPC   C1B17431   8.694  18.193   8.879
 1042POPC   C2B17432   8.533  18.276   8.498
 1042POPC   C3B17433   8.729  18.384   8.124
 1042POPC   C4B17434   8.548  18.243   7.728
 1043POPC   NC317435  39.619  42.727   9.272
 1043POPC   PO417436  40.192  42.442   9.517
 1043POPC   GL117437  40.004  42.424   9.091
 1043POPC   GL217438  39.959  42.693   8.898
 1043POPC   C1A17439  39.968  42.201   8.677
 1043POPC   D2A17440  39.846  42.329   8.251
 1043POPC   C3A17441  40.002  42.159   7.859
 1043POPC   C4A17442  39.796  42.216   7.435
 1043POPC   C1B17443  39.863  42.837   8.510
 1043POPC   C2B17444  39.562  42.772   8.183
 1043POPC   C3B17445  39.712  42.566   7.825
 1043POPC   C4B17446  40.121  42.578   7.605
 1044POPC   NC317447   7.851   5.620   9.405
 1044POPC   PO417448   8.587   5.761   9.500
 1044POPC   GL117449   8.357   5.712   9.146
 1044POPC   GL217450   8.118   5.994   9.187
 1044POPC   C1A17451   8.320   5.584   8.716
 1044POPC   D2A17452   8.367   5.795   8.309
 1044POPC   C3A17453   8.340   5.640   7.864
 1044POPC   C4A17454   8.263   5.953   7.493
 1044POPC   C1B17455   8.150   6.085   8.769
 1044POPC   C2B17456   7.977   6.173   8.373
 1044POPC   C3B17457   8.026   6.044   7.958
 1044POPC   C4B17458   7.787   5.831   7.660
 1045POPC   NC317459  37.336  40.258   9.477
 1045POPC   PO417460  36.892  39.755   9.465
 1045POPC   GL117461  36.842  39.880   9.072
 1045POPC   GL217462  36.957  40.198   9.116
 1045POPC   C1A17463  36.868  39.668   8.714
 1045POPC   D2A17464  36.707  39.795   8.385
 1045POPC   C3A17465  36.975  39.943   8.135
 1045POPC   C4A17466  36.892  39.962   7.729
 1045POPC   C1B17467  37.114  40.117   8.682
 1045POPC   C2B17468  37.211  40.369   8.327
 1045POPC   C3B17469  37.288  40.272   7.906
 1045POPC   C4B17470  37.124  40.385   7.537
 1046POPC   NC317471  18.866  16.495   9.492
 1046POPC   PO417472  19.353  16.972   9.433
 1046POPC   GL117473  19.241  16.644   9.155
 1046POPC   GL217474  18.894  16.710   9.052
 1046POPC   C1A17475  19.272  16.701   8.710
 1046POPC   D2A17476  19.115  16.895   8.336
 1046POPC   C3A17477  19.312  16.682   8.006
 1046POPC   C4A17478  19.247  16.413   7.682
 1046POPC   C1B17479  18.748  16.910   8.717
 1046POPC   C2B17480  18.609  16.784   8.322
 1046POPC   C3B17481  18.796  16.610   7.953
 1046POPC   C4B17482  18.937  16.793   7.568
 1047POPC   NC317483  13.115  18.624   9.683
 1047POPC   PO417484  12.883  18.030   9.473
 1047POPC   GL117485  12.800  18.008   9.065
 1047POPC   GL217486  12.838  17.687   8.957
 1047POPC   C1A17487  12.871  18.190   8.675
 1047POPC   D2A17488  13.152  18.353   8.398
 1047POPC   C3A17489  13.041  18.468   8.003
 1047POPC   C4A17490  13.289  18.208   7.806
 1047POPC   C1B17491  12.497  17.842   8.693
 1047POPC   C2B17492  12.662  17.906   8.289
 1047POPC   C3B17493  12.826  17.987   7.901
 1047POPC   C4B17494  12.616  18.293   7.724
 1048POPC   NC317495  15.679  29.091   9.469
 1048POPC   PO417496  16.341  29.320   9.535
 1048POPC   GL117497  16.116  29.266   9.134
 1048POPC   GL217498  15.841  29.472   9.106
 1048POPC   C1A17499  15.965  29.104   8.702
 1048POPC   D2A17500  15.882  28.974   8.259
 1048POPC   C3A17501  16.073  29.210   7.887
 1048POPC   C4A17502  16.090  28.979   7.475
 1048POPC   C1B17503  16.058  29.599   8.702
 1048POPC   C2B17504  15.863  29.480   8.276
 1048POPC   C3B17505  15.653  29.536   7.858
 1048POPC   C4B17506  15.522  29.430   7.420
 1049POPC   NC317507  35.171   3.262   9.726
 1049POPC   PO417508  35.769   3.493   9.572
 1049POPC   GL117509  35.440   3.378   9.263
 1049POPC   GL217510  35.084   3.344   9.206
 1049POPC   C1A17511  35.436   3.267   8.829
 1049POPC   D2A17512  35.388   3.561   8.523
 1049POPC   C3A17513  35.399   3.422   8.119
 1049POPC   C4A17514  35.416   3.530   7.692
 1049POPC   C1B17515  34.921   3.355   8.775
 1049POPC   C2B17516  35.025   3.223   8.388
 1049POPC   C3B17517  35.013   2.982   8.022
 1049POPC   C4B17518  35.268   3.067   7.698
 1050POPC   NC317519  12.521  30.489   9.433
 1050POPC   PO417520  13.214  30.519   9.473
 1050POPC   GL117521  13.025  30.778   9.171
 1050POPC   GL217522  12.663  30.865   9.143
 1050POPC   C1A17523  12.968  30.689   8.734
 1050POPC   D2A17524  12.988  30.457   8.343
 1050POPC   C3A17525  13.009  30.775   8.026
 1050POPC   C4A17526  12.969  30.619   7.634
 1050POPC   C1B17527  12.469  30.788   8.750
 1050POPC   C2B17528  12.622  30.804   8.349
 1050POPC   C3B17529  12.546  30.648   7.920
 1050POPC   C4B17530  12.510  30.736   7.473
 1051POPC   NC317531  29.054  32.121   9.682
 1051POPC   PO417532  29.548  32.520   9.573
 1051POPC   GL117533  29.383  32.176   9.267
 1051POPC   GL217534  29.006  32.077   9.179
 1051POPC   C1A17535  29.289  32.322   8.834
 1051POPC   D2A17536  29.284  32.166   8.430
 1051POPC   C3A17537  29.044  32.380   8.155
 1051POPC   C4A17538  29.285  32.329   7.765
 1051POPC   C1B17539  28.918  31.954   8.746
 1051POPC   C2B17540  28.767  31.979   8.308
 1051POPC   C3B17541  28.908  32.010   7.865
 1051POPC   C4B17542  29.011  32.060   7.369
 1052POPC   NC317543   7.761  20.479   9.292
 1052POPC   PO417544   7.140  20.866   9.485
 1052POPC   GL117545   7.284  20.664   9.113
 1052POPC   GL217546   7.014  20.426   9.088
 1052POPC   C1A17547   7.375  20.453   8.702
 1052POPC   D2A17548   7.113  20.311   8.337
 1052POPC   C3A17549   7.393  20.273   8.004
 1052POPC   C4A17550   7.694  20.547   7.771
 1052POPC   C1B17551   6.905  20.626   8.718
 1052POPC   C2B17552   7.125  20.825   8.402
 1052POPC   C3B17553   7.302  20.796   8.009
 1052POPC   C4B17554   7.220  20.580   7.594
 1053POPC   NC317555  34.940   4.591   9.361
 1053POPC   PO417556  35.563   4.263   9.548
 1053POPC   GL117557  35.347   4.337   9.196
 1053POPC   GL217558  35.276   3.971   9.213
 1053POPC   C1A17559  35.384   4.481   8.753
 1053POPC   D2A17560  35.198   4.652   8.345
 1053POPC   C3A17561  35.202   4.395   7.983
 1053POPC   C4A17562  35.308   4.489   7.500
 1053POPC   C1B17563  35.468   3.974   8.820
 1053POPC   C2B17564  35.334   4.082   8.407
 1053POPC   C3B17565  35.289   3.908   8.000
 1053POPC   C4B17566  35.300   3.999   7.564
 1054POPC   NC317567  26.067  29.636   9.580
 1054POPC   PO417568  26.301  30.334   9.631
 1054POPC   GL117569  26.102  30.240   9.178
 1054POPC   GL217570  25.962  29.910   9.151
 1054POPC   C1A17571  25.925  30.158   8.714
 1054POPC   D2A17572  25.806  29.984   8.317
 1054POPC   C3A17573  26.067  30.171   8.037
 1054POPC   C4A17574  26.012  30.128   7.629
 1054POPC   C1B17575  26.094  29.686   8.763
 1054POPC   C2B17576  26.291  29.829   8.383
 1054POPC   C3B17577  26.098  29.641   8.041
 1054POPC   C4B17578  26.162  29.499   7.649
 1055POPC   NC317579  38.329  34.627   9.533
 1055POPC   PO417580  38.050  35.177   9.253
 1055POPC   GL117581  38.164  34.718   9.059
 1055POPC   GL217582  38.326  34.332   9.131
 1055POPC   C1A17583  38.449  34.616   8.719
 1055POPC   D2A17584  38.525  34.853   8.318
 1055POPC   C3A17585  38.411  34.630   7.973
 1055POPC   C4A17586  38.555  34.610   7.547
 1055POPC   C1B17587  38.566  34.101   8.818
 1055POPC   C2B17588  38.620  33.962   8.386
 1055POPC   C3B17589  38.624  34.166   7.982
 1055POPC   C4B17590  38.281  34.223   7.703
 1056POPC   NC317591  17.456  41.841   9.895
 1056POPC   PO417592  17.364  41.187   9.495
 1056POPC   GL117593  17.524  41.500   9.178
 1056POPC   GL217594  17.898  41.613   9.156
 1056POPC   C1A17595  17.284  41.791   8.865
 1056POPC   D2A17596  17.366  41.953   8.419
 1056POPC   C3A17597  17.299  41.797   7.964
 1056POPC   C4A17598  17.198  41.876   7.504
 1056POPC   C1B17599  17.724  41.570   8.713
 1056POPC   C2B17600  17.558  41.481   8.295
 1056POPC   C3B17601  17.764  41.467   7.901
 1056POPC   C4B17602  18.034  41.511   7.534
 1057POPC   NC317603  27.938  36.190   9.495
 1057POPC   PO417604  28.498  35.820   9.441
 1057POPC   GL117605  28.351  36.183   9.185
 1057POPC   GL217606  28.060  35.988   9.030
 1057POPC   C1A17607  28.254  36.373   8.774
 1057POPC   D2A17608  28.146  36.517   8.371
 1057POPC   C3A17609  28.349  36.177   8.173
 1057POPC   C4A17610  28.222  35.947   7.832
 1057POPC   C1B17611  28.456  35.873   8.795
 1057POPC   C2B17612  28.778  35.940   8.473
 1057POPC   C3B17613  28.720  35.821   8.063
 1057POPC   C4B17614  28.633  35.715   7.648
 1058POPC   NC317615   1.989  40.500   9.561
 1058POPC   PO417616   2.083  41.165   9.477
 1058POPC   GL117617   1.728  40.911   9.248
 1058POPC   GL217618   1.822  40.585   9.108
 1058POPC   C1A17619   1.590  40.860   8.783
 1058POPC   D2A17620   1.717  40.593   8.453
 1058POPC   C3A17621   1.673  40.719   8.036
 1058POPC   C4A17622   2.067  40.707   7.825
 1058POPC   C1B17623   2.216  40.564   8.850
 1058POPC   C2B17624   2.341  40.699   8.438
 1058POPC   C3B17625   2.341  40.419   8.115
 1058POPC   C4B17626   2.486  40.400   7.712
 1059POPC   NC317627  32.909  42.182   9.475
 1059POPC   PO417628  33.413  42.528   9.694
 1059POPC   GL117629  33.191  42.548   9.254
 1059POPC   GL217630  33.114  42.246   9.021
 1059POPC   C1A17631  33.190  42.669   8.803
 1059POPC   D2A17632  32.977  42.407   8.491
 1059POPC   C3A17633  33.122  42.459   8.077
 1059POPC   C4A17634  32.870  42.508   7.729
 1059POPC   C1B17635  33.076  41.950   8.695
 1059POPC   C2B17636  33.304  41.970   8.288
 1059POPC   C3B17637  33.271  42.037   7.838
 1059POPC   C4B17638  33.198  42.196   7.441
 1060POPC   NC317639  18.655  40.562   9.368
 1060POPC   PO417640  19.203  40.960   9.283
 1060POPC   GL117641  18.992  40.755   9.028
 1060POPC   GL217642  19.122  40.439   9.162
 1060POPC   C1A17643  18.879  40.839   8.619
 1060POPC   D2A17644  19.112  40.660   8.304
 1060POPC   C3A17645  19.218  41.005   8.087
 1060POPC   C4A17646  18.909  41.148   7.833
 1060POPC   C1B17647  18.982  40.348   8.710
 1060POPC   C2B17648  18.756  40.300   8.280
 1060POPC   C3B17649  18.917  40.418   7.816
 1060POPC   C4B17650  18.836  40.298   7.330
 1061POPC   NC317651  43.028  10.879   9.423
 1061POPC   PO417652  42.805  10.227   9.528
 1061POPC   GL117653  43.048  10.399   9.222
 1061POPC   GL217654  43.372  10.304   9.211
 1061POPC   C1A17655  43.078  10.548   8.819
 1061POPC   D2A17656  42.866  10.566   8.433
 1061POPC   C3A17657  43.080  10.494   8.055
 1061POPC   C4A17658  43.035  10.378   7.653
 1061POPC   C1B17659  43.327  10.097   8.823
 1061POPC   C2B17660  43.344  10.304   8.437
 1061POPC   C3B17661  43.516  10.181   8.048
 1061POPC   C4B17662  43.474  10.071   7.633
 1062POPC   NC317663   8.777   7.946   9.560
 1062POPC   PO417664   8.916   8.592   9.415
 1062POPC   GL117665   8.968   8.240   9.182
 1062POPC   GL217666   8.609   8.116   9.124
 1062POPC   C1A17667   9.182   8.164   8.810
 1062POPC   D2A17668   9.071   8.361   8.432
 1062POPC   C3A17669   9.193   8.182   8.108
 1062POPC   C4A17670   9.046   8.174   7.741
 1062POPC   C1B17671   8.672   8.272   8.760
 1062POPC   C2B17672   8.636   8.082   8.412
 1062POPC   C3B17673   8.655   8.225   8.054
 1062POPC   C4B17674   8.452   8.080   7.723
 1063POPC   NC317675   7.480  17.071   9.309
 1063POPC   PO417676   7.701  17.759   9.399
 1063POPC   GL117677   7.493  17.546   9.073
 1063POPC   GL217678   7.105  17.507   9.016
 1063POPC   C1A17679   7.437  17.721   8.695
 1063POPC   D2A17680   7.102  17.670   8.445
 1063POPC   C3A17681   7.357  17.725   8.117
 1063POPC   C4A17682   7.386  17.584   7.732
 1063POPC   C1B17683   7.304  17.248   8.657
 1063POPC   C2B17684   7.660  17.278   8.348
 1063POPC   C3B17685   7.649  17.157   7.900
 1063POPC   C4B17686   7.262  17.077   7.666
 1064POPC   NC317687  18.365  11.248   9.512
 1064POPC   PO417688  17.840  10.876   9.402
 1064POPC   GL117689  18.100  11.167   9.101
 1064POPC   GL217690  18.470  11.131   9.041
 1064POPC   C1A17691  18.082  11.409   8.737
 1064POPC   D2A17692  18.093  11.486   8.295
 1064POPC   C3A17693  18.033  11.299   7.883
 1064POPC   C4A17694  17.893  11.548   7.541
 1064POPC   C1B17695  18.391  11.017   8.643
 1064POPC   C2B17696  18.561  11.169   8.251
 1064POPC   C3B17697  18.550  11.194   7.801
 1064POPC   C4B17698  18.355  11.246   7.411
 1065POPC   NC317699  23.047  35.875   9.480
 1065POPC   PO417700  22.879  36.520   9.581
 1065POPC   GL117701  22.853  36.256   9.195
 1065POPC   GL217702  22.509  36.186   9.099
 1065POPC   C1A17703  22.939  36.099   8.768
 1065POPC   D2A17704  22.983  35.832   8.390
 1065POPC   C3A17705  23.191  35.975   8.023
 1065POPC   C4A17706  23.020  36.136   7.653
 1065POPC   C1B17707  22.607  36.507   8.792
 1065POPC   C2B17708  22.796  36.438   8.385
 1065POPC   C3B17709  22.712  36.168   8.059
 1065POPC   C4B17710  22.492  36.171   7.632
 1066POPC   NC317711  35.037  17.675   9.568
 1066POPC   PO417712  34.420  17.903   9.461
 1066POPC   GL117713  34.624  17.672   9.186
 1066POPC   GL217714  34.872  17.901   9.162
 1066POPC   C1A17715  34.540  17.546   8.774
 1066POPC   D2A17716  34.278  17.434   8.460
 1066POPC   C3A17717  34.470  17.600   8.122
 1066POPC   C4A17718  34.463  17.475   7.702
 1066POPC   C1B17719  35.017  17.727   8.818
 1066POPC   C2B17720  34.860  17.842   8.473
 1066POPC   C3B17721  34.948  17.779   8.109
 1066POPC   C4B17722  34.952  17.783   7.735
 1067POPC   NC317723  15.203  16.533   9.485
 1067POPC   PO417724  14.585  16.767   9.412
 1067POPC   GL117725  14.473  16.893   9.016
 1067POPC   GL217726  14.282  16.615   8.934
 1067POPC   C1A17727  14.489  16.907   8.566
 1067POPC   D2A17728  14.307  16.806   8.165
 1067POPC   C3A17729  14.527  16.940   7.790
 1067POPC   C4A17730  14.615  16.887   7.344
 1067POPC   C1B17731  14.644  16.451   8.746
 1067POPC   C2B17732  14.799  16.516   8.331
 1067POPC   C3B17733  14.709  16.462   7.894
 1067POPC   C4B17734  14.941  16.491   7.487
 1068POPC   NC317735  31.596  12.081   9.483
 1068POPC   PO417736  31.072  12.368   9.523
 1068POPC   GL117737  31.237  12.099   9.110
 1068POPC   GL217738  31.602  11.995   8.997
 1068POPC   C1A17739  31.079  11.979   8.684
 1068POPC   D2A17740  31.088  11.715   8.282
 1068POPC   C3A17741  31.180  11.835   7.850
 1068POPC   C4A17742  31.328  11.870   7.404
 1068POPC   C1B17743  31.496  12.282   8.705
 1068POPC   C2B17744  31.404  12.131   8.296
 1068POPC   C3B17745  31.655  11.913   7.991
 1068POPC   C4B17746  31.674  12.186   7.653
 1069POPC   NC317747  34.304  10.971   9.493
 1069POPC   PO417748  33.639  11.198   9.517
 1069POPC   GL117749  33.827  11.393   9.176
 1069POPC   GL217750  33.480  11.461   9.066
 1069POPC   C1A17751  33.908  11.609   8.776
 1069POPC   D2A17752  33.880  11.427   8.392
 1069POPC   C3A17753  33.874  11.609   7.987
 1069POPC   C4A17754  34.134  11.551   7.635
 1069POPC   C1B17755  33.559  11.094   8.830
 1069POPC   C2B17756  33.693  10.945   8.459
 1069POPC   C3B17757  33.810  11.059   8.054
 1069POPC   C4B17758  33.600  10.878   7.756
 1070POPC   NC317759  36.797   4.192   9.429
 1070POPC   PO417760  36.400   4.590   9.110
 1070POPC   GL117761  36.714   4.348   8.926
 1070POPC   GL217762  37.054   4.372   9.047
 1070POPC   C1A17763  36.691   4.157   8.522
 1070POPC   D2A17764  36.781   3.874   8.181
 1070POPC   C3A17765  36.742   4.102   7.756
 1070POPC   C4A17766  36.620   4.170   7.270
 1070POPC   C1B17767  37.120   4.031   8.778
 1070POPC   C2B17768  37.199   4.154   8.363
 1070POPC   C3B17769  37.240   4.036   7.942
 1070POPC   C4B17770  37.286   4.365   7.672
 1071POPC   NC317771  44.737   4.075   9.504
 1071POPC   PO417772  44.341   4.691   9.438
 1071POPC   GL117773  44.384   4.422   9.063
 1071POPC   GL217774  44.425   4.052   9.094
 1071POPC   C1A17775  44.486   4.260   8.628
 1071POPC   D2A17776  44.886   4.263   8.444
 1071POPC   C3A17777  44.876   4.516   8.092
 1071POPC   C4A17778  44.636   4.616   7.743
 1071POPC   C1B17779  44.807   3.908   8.837
 1071POPC   C2B17780  44.786   3.701   8.434
 1071POPC   C3B17781  44.827   3.890   8.108
 1071POPC   C4B17782  44.675   4.118   7.808
 1072POPC   NC317783  29.241  13.472   9.531
 1072POPC   PO417784  28.842  13.969   9.639
 1072POPC   GL117785  28.836  13.709   9.238
 1072POPC   GL217786  29.070  13.435   9.065
 1072POPC   C1A17787  28.951  13.853   8.827
 1072POPC   D2A17788  29.264  13.729   8.533
 1072POPC   C3A17789  29.031  13.738   8.173
 1072POPC   C4A17790  29.068  13.886   7.756
 1072POPC   C1B17791  29.505  13.398   8.888
 1072POPC   C2B17792  29.755  13.396   8.504
 1072POPC   C3B17793  29.679  13.461   8.092
 1072POPC   C4B17794  29.321  13.472   7.841
 1073POPC   NC317795  37.955   0.309   9.437
 1073POPC   PO417796  37.323   0.418   9.456
 1073POPC   GL117797  37.532   0.488   9.058
 1073POPC   GL217798  37.871   0.481   8.973
 1073POPC   C1A17799  37.429   0.594   8.631
 1073POPC   D2A17800  37.360   0.415   8.222
 1073POPC   C3A17801  37.368   0.693   7.883
 1073POPC   C4A17802  37.645   0.744   7.582
 1073POPC   C1B17803  37.803   0.232   8.629
 1073POPC   C2B17804  37.971   0.159   8.244
 1073POPC   C3B17805  37.788   0.370   7.922
 1073POPC   C4B17806  37.435   0.233   7.693
 1074POPC   NC317807  44.643   2.344   9.339
 1074POPC   PO417808  44.953   2.812   9.761
 1074POPC   GL117809  44.911   2.796   9.303
 1074POPC   GL217810  44.596   2.895   9.166
 1074POPC   C1A17811   0.011   2.647   8.879
 1074POPC   D2A17812  44.929   2.789   8.485
 1074POPC   C3A17813  44.862   2.619   8.119
 1074POPC   C4A17814  44.560   2.647   7.824
 1074POPC   C1B17815  44.503   2.745   8.766
 1074POPC   C2B17816  44.409   2.870   8.325
 1074POPC   C3B17817  44.312   3.065   7.926
 1074POPC   C4B17818  44.213   2.886   7.523
 1075POPC   NC317819  37.242  14.594   9.964
 1075POPC   PO417820  36.789  14.045   9.760
 1075POPC   GL117821  36.756  14.296   9.280
 1075POPC   GL217822  36.575  14.155   9.045
 1075POPC   C1A17823  36.915  14.530   8.896
 1075POPC   D2A17824  37.094  14.752   8.504
 1075POPC   C3A17825  36.925  14.708   8.085
 1075POPC   C4A17826  36.981  14.405   7.761
 1075POPC   C1B17827  36.777  14.068   8.652
 1075POPC   C2B17828  36.850  14.197   8.210
 1075POPC   C3B17829  36.541  14.182   7.846
 1075POPC   C4B17830  36.438  14.339   7.407
 1076POPC   NC317831  17.634  18.486   9.448
 1076POPC   PO417832  17.169  17.954   9.445
 1076POPC   GL117833  17.480  18.087   9.063
 1076POPC   GL217834  17.705  18.435   8.918
 1076POPC   C1A17835  17.450  18.134   8.615
 1076POPC   D2A17836  17.691  18.268   8.277
 1076POPC   C3A17837  17.567  18.234   7.846
 1076POPC   C4A17838  17.615  18.505   7.497
 1076POPC   C1B17839  17.399  18.635   8.561
 1076POPC   C2B17840  17.095  18.485   8.257
 1076POPC   C3B17841  17.150  18.572   7.805
 1076POPC   C4B17842  17.195  18.790   7.417
 1077POPC   NC317843  30.349   1.346   9.490
 1077POPC   PO417844  29.676   1.056   9.505
 1077POPC   GL117845  29.959   1.102   9.174
 1077POPC   GL217846  30.082   1.434   9.085
 1077POPC   C1A17847  29.752   1.160   8.792
 1077POPC   D2A17848  29.876   1.002   8.407
 1077POPC   C3A17849  29.754   1.186   8.039
 1077POPC   C4A17850  29.715   1.040   7.629
 1077POPC   C1B17851  30.220   1.318   8.684
 1077POPC   C2B17852  30.117   1.464   8.272
 1077POPC   C3B17853  30.166   1.385   7.798
 1077POPC   C4B17854  30.121   1.178   7.371
 1078POPC   NC317855   8.660   9.655   9.363
 1078POPC   PO417856   9.224   9.913   9.649
 1078POPC   GL117857   9.243   9.794   9.199
 1078POPC   GL217858   9.076   9.476   9.135
 1078POPC   C1A17859   9.453   9.596   8.839
 1078POPC   D2A17860   9.314   9.393   8.472
 1078POPC   C3A17861   9.038   9.619   8.242
 1078POPC   C4A17862   9.056   9.674   7.807
 1078POPC   C1B17863   8.947   9.742   8.747
 1078POPC   C2B17864   8.863  10.140   8.486
 1078POPC   C3B17865   8.738  10.201   8.056
 1078POPC   C4B17866   8.692  10.003   7.641
 1079POPC   NC317867  34.792  39.942   9.337
 1079POPC   PO417868  34.273  39.774   9.669
 1079POPC   GL117869  34.300  39.956   9.209
 1079POPC   GL217870  34.481  40.312   9.187
 1079POPC   C1A17871  34.286  40.140   8.758
 1079POPC   D2A17872  34.557  40.083   8.406
 1079POPC   C3A17873  34.510  40.174   7.995
 1079POPC   C4A17874  34.402  39.828   7.688
 1079POPC   C1B17875  34.780  40.337   8.790
 1079POPC   C2B17876  34.871  40.479   8.376
 1079POPC   C3B17877  35.024  40.255   8.047
 1079POPC   C4B17878  34.919  40.099   7.674
 1080POPC   NC317879  26.660  17.002   9.483
 1080POPC   PO417880  26.702  16.374   9.316
 1080POPC   GL117881  26.516  16.617   8.992
 1080POPC   GL217882  26.616  16.967   8.986
 1080POPC   C1A17883  26.588  16.708   8.554
 1080POPC   D2A17884  26.742  16.370   8.292
 1080POPC   C3A17885  26.853  16.495   7.885
 1080POPC   C4A17886  27.041  16.553   7.487
 1080POPC   C1B17887  27.016  16.867   8.818
 1080POPC   C2B17888  27.029  16.966   8.391
 1080POPC   C3B17889  26.773  16.981   8.052
 1080POPC   C4B17890  27.061  16.995   7.742
 1081POPC   NC317891  28.642  19.187   9.528
 1081POPC   PO417892  28.005  18.863   9.424
 1081POPC   GL117893  28.233  19.157   9.239
 1081POPC   GL217894  28.077  19.428   9.096
 1081POPC   C1A17895  28.501  19.127   8.877
 1081POPC   D2A17896  28.521  19.236   8.459
 1081POPC   C3A17897  28.509  18.937   8.150
 1081POPC   C4A17898  28.334  18.935   7.748
 1081POPC   C1B17899  27.993  19.034   8.815
 1081POPC   C2B17900  28.078  18.917   8.423
 1081POPC   C3B17901  28.016  19.157   8.068
 1081POPC   C4B17902  27.746  19.178   7.707
 1082POPC   NC317903   9.506  14.596   9.482
 1082POPC   PO417904  10.022  14.129   9.594
 1082POPC   GL117905   9.955  14.359   9.215
 1082POPC   GL217906   9.920  14.013   9.087
 1082POPC   C1A17907   9.924  14.679   8.838
 1082POPC   D2A17908   9.977  14.589   8.377
 1082POPC   C3A17909   9.639  14.616   8.040
 1082POPC   C4A17910   9.605  14.572   7.640
 1082POPC   C1B17911   9.595  14.277   8.841
 1082POPC   C2B17912   9.524  14.265   8.391
 1082POPC   C3B17913   9.826  14.159   8.031
 1082POPC   C4B17914   9.752  14.080   7.603
 1083POPC   NC317915  25.777  42.134   9.523
 1083POPC   PO417916  26.134  42.741   9.451
 1083POPC   GL117917  26.262  42.487   9.122
 1083POPC   GL217918  26.132  42.160   9.118
 1083POPC   C1A17919  26.259  42.504   8.708
 1083POPC   D2A17920  26.173  42.240   8.385
 1083POPC   C3A17921  26.224  42.508   8.078
 1083POPC   C4A17922  26.211  42.341   7.689
 1083POPC   C1B17923  25.820  42.269   8.753
 1083POPC   C2B17924  25.601  42.360   8.379
 1083POPC   C3B17925  25.764  42.334   7.987
 1083POPC   C4B17926  25.610  42.407   7.591
 1084POPC   NC317927  18.089   9.451   9.522
 1084POPC   PO417928  18.214  10.096   9.724
 1084POPC   GL117929  17.916   9.924   9.284
 1084POPC   GL217930  17.974   9.561   9.066
 1084POPC   C1A17931  17.806   9.921   8.789
 1084POPC   D2A17932  18.054  10.059   8.412
 1084POPC   C3A17933  18.176   9.998   7.953
 1084POPC   C4A17934  18.519   9.933   7.616
 1084POPC   C1B17935  18.159   9.575   8.651
 1084POPC   C2B17936  18.059   9.561   8.233
 1084POPC   C3B17937  18.295   9.532   7.875
 1084POPC   C4B17938  18.156   9.361   7.561
 1085POPC   NC317939  18.705  21.395   9.513
 1085POPC   PO417940  18.039  21.184   9.446
 1085POPC   GL117941  18.224  21.515   9.157
 1085POPC   GL217942  18.613  21.593   9.072
 1085POPC   C1A17943  18.235  21.510   8.739
 1085POPC   D2A17944  18.374  21.122   8.558
 1085POPC   C3A17945  18.421  21.157   8.137
 1085POPC   C4A17946  18.337  21.375   7.777
 1085POPC   C1B17947  18.752  21.478   8.679
 1085POPC   C2B17948  18.524  21.631   8.346
 1085POPC   C3B17949  18.555  21.808   7.986
 1085POPC   C4B17950  18.672  21.670   7.564
 1086POPC   NC317951  25.819  13.794   9.587
 1086POPC   PO417952  26.426  13.459   9.556
 1086POPC   GL117953  26.205  13.603   9.220
 1086POPC   GL217954  25.918  13.435   9.156
 1086POPC   C1A17955  26.234  13.493   8.764
 1086POPC   D2A17956  26.368  13.463   8.343
 1086POPC   C3A17957  26.136  13.688   8.031
 1086POPC   C4A17958  26.214  13.627   7.590
 1086POPC   C1B17959  25.720  13.453   8.777
 1086POPC   C2B17960  25.875  13.338   8.347
 1086POPC   C3B17961  25.694  13.353   7.946
 1086POPC   C4B17962  25.724  13.582   7.570
 1087POPC   NC317963  43.223  13.407   9.393
 1087POPC   PO417964  43.038  13.992   9.555
 1087POPC   GL117965  43.235  13.873   9.149
 1087POPC   GL217966  43.050  13.589   8.971
 1087POPC   C1A17967  43.295  13.929   8.709
 1087POPC   D2A17968  43.097  13.642   8.415
 1087POPC   C3A17969  43.313  13.647   8.030
 1087POPC   C4A17970  43.184  13.744   7.645
 1087POPC   C1B17971  43.382  13.368   8.749
 1087POPC   C2B17972  43.335  13.198   8.345
 1087POPC   C3B17973  43.450  13.121   7.967
 1087POPC   C4B17974  43.233  13.216   7.641
 1088POPC   NC317975  13.331   4.181   9.262
 1088POPC   PO417976  13.586   4.718   9.715
 1088POPC   GL117977  13.470   4.687   9.196
 1088POPC   GL217978  13.794   4.570   8.969
 1088POPC   C1A17979  13.337   4.663   8.754
 1088POPC   D2A17980  13.647   4.429   8.499
 1088POPC   C3A17981  13.779   4.392   8.079
 1088POPC   C4A17982  13.516   4.158   7.846
 1088POPC   C1B17983  13.850   4.094   8.836
 1088POPC   C2B17984  13.836   3.831   8.451
 1088POPC   C3B17985  13.890   3.847   8.009
 1088POPC   C4B17986  13.946   3.987   7.578
 1089POPC   NC317987  42.212   7.349   9.591
 1089POPC   PO417988  42.564   7.773   9.524
 1089POPC   GL117989  42.240   7.688   9.172
 1089POPC   GL217990  41.980   7.414   9.098
 1089POPC   C1A17991  42.211   7.669   8.701
 1089POPC   D2A17992  42.484   7.773   8.345
 1089POPC   C3A17993  42.342   7.714   7.932
 1089POPC   C4A17994  42.436   7.477   7.552
 1089POPC   C1B17995  41.961   7.229   8.645
 1089POPC   C2B17996  42.165   7.293   8.217
 1089POPC   C3B17997  41.947   7.406   7.821
 1089POPC   C4B17998  41.600   7.229   7.553
 1090POPC   NC317999   1.879  25.933   9.432
 1090POPC   PO418000   2.299  26.598   9.523
 1090POPC   GL118001   2.139  26.350   9.185
 1090POPC   GL218002   1.779  26.428   9.240
 1090POPC   C1A18003   2.188  26.064   8.805
 1090POPC   D2A18004   2.022  25.854   8.421
 1090POPC   C3A18005   2.197  25.973   8.058
 1090POPC   C4A18006   2.062  25.956   7.629
 1090POPC   C1B18007   1.803  26.413   8.784
 1090POPC   C2B18008   2.048  26.368   8.386
 1090POPC   C3B18009   1.858  26.346   7.938
 1090POPC   C4B18010   1.719  26.294   7.489
 1091POPC   NC318011  13.254   3.619   9.669
 1091POPC   PO418012  12.626   3.758   9.497
 1091POPC   GL118013  12.841   3.504   9.208
 1091POPC   GL218014  13.156   3.672   9.164
 1091POPC   C1A18015  12.989   3.292   8.828
 1091POPC   D2A18016  12.787   3.170   8.470
 1091POPC   C3A18017  13.022   3.246   8.089
 1091POPC   C4A18018  12.920   3.380   7.718
 1091POPC   C1B18019  12.952   3.803   8.793
 1091POPC   C2B18020  12.948   3.636   8.417
 1091POPC   C3B18021  12.882   3.764   8.037
 1091POPC   C4B18022  13.057   3.971   7.707
 1092POPC   NC318023   9.642   9.713   9.544
 1092POPC   PO418024  10.361  10.072   9.530
 1092POPC   GL118025  10.086  10.037   9.122
 1092POPC   GL218026   9.880   9.701   9.088
 1092POPC   C1A18027   9.819  10.055   8.705
 1092POPC   D2A18028   9.749   9.697   8.432
 1092POPC   C3A18029   9.559   9.632   8.047
 1092POPC   C4A18030   9.677   9.982   7.799
 1092POPC   C1B18031   9.905   9.359   8.756
 1092POPC   C2B18032   9.817   9.199   8.330
 1092POPC   C3B18033   9.990   9.306   7.903
 1092POPC   C4B18034   9.944   9.434   7.438
 1093POPC   NC318035  29.029   3.497   9.442
 1093POPC   PO418036  29.738   3.695   9.420
 1093POPC   GL118037  29.432   3.738   9.067
 1093POPC   GL218038  29.054   3.775   9.024
 1093POPC   C1A18039  29.375   3.390   8.806
 1093POPC   D2A18040  29.463   3.143   8.431
 1093POPC   C3A18041  29.107   3.203   8.138
 1093POPC   C4A18042  29.129   3.414   7.731
 1093POPC   C1B18043  29.042   3.735   8.587
 1093POPC   C2B18044  28.943   3.691   8.157
 1093POPC   C3B18045  28.980   3.898   7.775
 1093POPC   C4B18046  28.875   3.874   7.334
 1094POPC   NC318047   3.123   3.646   9.754
 1094POPC   PO418048   2.547   3.554   9.439
 1094POPC   GL118049   2.811   3.387   9.137
 1094POPC   GL218050   3.054   3.614   9.245
 1094POPC   C1A18051   2.665   3.350   8.710
 1094POPC   D2A18052   2.705   3.557   8.288
 1094POPC   C3A18053   2.672   3.320   7.930
 1094POPC   C4A18054   2.485   3.677   7.771
 1094POPC   C1B18055   3.006   3.721   8.810
 1094POPC   C2B18056   3.145   3.444   8.474
 1094POPC   C3B18057   3.201   3.689   8.115
 1094POPC   C4B18058   2.995   3.689   7.735
 1095POPC   NC318059  14.025  29.121   9.478
 1095POPC   PO418060  13.335  28.884   9.526
 1095POPC   GL118061  13.578  28.965   9.122
 1095POPC   GL218062  13.811  29.272   9.056
 1095POPC   C1A18063  13.676  28.985   8.669
 1095POPC   D2A18064  13.808  29.293   8.364
 1095POPC   C3A18065  13.747  29.124   7.930
 1095POPC   C4A18066  13.453  28.910   7.695
 1095POPC   C1B18067  13.479  29.428   8.786
 1095POPC   C2B18068  13.346  29.544   8.385
 1095POPC   C3B18069  13.553  29.582   8.022
 1095POPC   C4B18070  13.422  29.451   7.644
 1096POPC   NC318071  11.637  33.657   9.493
 1096POPC   PO418072  11.083  33.945   9.633
 1096POPC   GL118073  11.282  33.957   9.239
 1096POPC   GL218074  10.930  33.860   9.134
 1096POPC   C1A18075  11.462  33.715   8.854
 1096POPC   D2A18076  11.576  33.486   8.461
 1096POPC   C3A18077  11.524  33.658   8.086
 1096POPC   C4A18078  11.287  33.670   7.729
 1096POPC   C1B18079  11.086  34.081   8.788
 1096POPC   C2B18080  11.149  33.859   8.412
 1096POPC   C3B18081  11.120  34.040   8.029
 1096POPC   C4B18082  10.974  34.275   7.735
 1097POPC   NC318083  17.902  21.603   9.574
 1097POPC   PO418084  17.367  21.119   9.507
 1097POPC   GL118085  17.470  21.209   9.072
 1097POPC   GL218086  17.716  21.438   9.121
 1097POPC   C1A18087  17.464  21.451   8.676
 1097POPC   D2A18088  17.215  21.559   8.313
 1097POPC   C3A18089  17.436  21.378   7.994
 1097POPC   C4A18090  17.440  21.294   7.577
 1097POPC   C1B18091  17.885  21.155   8.785
 1097POPC   C2B18092  17.904  21.163   8.333
 1097POPC   C3B18093  17.895  21.164   7.885
 1097POPC   C4B18094  17.850  21.563   7.656
 1098POPC   NC318095  37.132  29.886   9.747
 1098POPC   PO418096  36.631  29.703   9.310
 1098POPC   GL118097  37.031  29.808   9.123
 1098POPC   GL218098  37.121  30.149   9.128
 1098POPC   C1A18099  37.044  29.779   8.675
 1098POPC   D2A18100  37.027  30.113   8.414
 1098POPC   C3A18101  37.129  30.124   7.971
 1098POPC   C4A18102  37.002  29.906   7.544
 1098POPC   C1B18103  36.742  30.194   8.871
 1098POPC   C2B18104  36.509  30.134   8.477
 1098POPC   C3B18105  36.638  30.082   8.056
 1098POPC   C4B18106  36.729  30.334   7.678
 1099POPC   NC318107   6.656  20.985   9.610
 1099POPC   PO418108   6.145  21.455   9.564
 1099POPC   GL118109   6.462  21.375   9.233
 1099POPC   GL218110   6.738  21.606   9.269
 1099POPC   C1A18111   6.503  21.565   8.817
 1099POPC   D2A18112   6.495  21.408   8.396
 1099POPC   C3A18113   6.343  21.445   7.989
 1099POPC   C4A18114   6.566  21.242   7.681
 1099POPC   C1B18115   7.004  21.663   8.874
 1099POPC   C2B18116   6.838  21.796   8.487
 1099POPC   C3B18117   6.796  21.693   8.059
 1099POPC   C4B18118   7.039  21.571   7.715
 1100POPC   NC318119   2.893  12.440   9.570
 1100POPC   PO418120   3.063  13.060   9.587
 1100POPC   GL118121   2.880  12.977   9.220
 1100POPC   GL218122   2.672  12.693   9.174
 1100POPC   C1A18123   2.958  13.107   8.821
 1100POPC   D2A18124   2.684  13.118   8.477
 1100POPC   C3A18125   2.738  12.841   8.153
 1100POPC   C4A18126   2.744  12.855   7.722
 1100POPC   C1B18127   2.593  12.564   8.744
 1100POPC   C2B18128   2.496  12.326   8.369
 1100POPC   C3B18129   2.666  12.372   7.941
 1100POPC   C4B18130   2.529  12.454   7.497
 1101POPC   NC318131  19.477   8.973   9.562
 1101POPC   PO418132  18.901   9.226   9.550
 1101POPC   GL118133  19.024   9.009   9.161
 1101POPC   GL218134  19.322   8.866   9.096
 1101POPC   C1A18135  18.906   8.842   8.760
 1101POPC   D2A18136  18.655   8.813   8.379
 1101POPC   C3A18137  18.908   8.908   8.049
 1101POPC   C4A18138  19.030   9.280   7.962
 1101POPC   C1B18139  19.362   9.090   8.755
 1101POPC   C2B18140  19.286   9.042   8.350
 1101POPC   C3B18141  19.526   9.239   8.017
 1101POPC   C4B18142  19.382   8.909   7.792
 1102POPC   NC318143  29.049  18.415   9.449
 1102POPC   PO418144  29.446  17.847   9.464
 1102POPC   GL118145  29.254  18.075   9.121
 1102POPC   GL218146  29.451  18.386   9.072
 1102POPC   C1A18147  29.021  18.289   8.780
 1102POPC   D2A18148  29.195  18.407   8.394
 1102POPC   C3A18149  28.987  18.420   8.023
 1102POPC   C4A18150  29.113  18.151   7.707
 1102POPC   C1B18151  29.464  18.705   8.725
 1102POPC   C2B18152  29.556  18.758   8.272
 1102POPC   C3B18153  29.461  18.545   7.867
 1102POPC   C4B18154  29.103  18.604   7.531
 1103POPC   NC318155  42.078  34.164   9.510
 1103POPC   PO418156  42.232  33.551   9.462
 1103POPC   GL118157  42.310  33.775   9.126
 1103POPC   GL218158  42.670  33.780   9.142
 1103POPC   C1A18159  42.134  33.703   8.736
 1103POPC   D2A18160  41.884  33.519   8.418
 1103POPC   C3A18161  42.038  33.731   8.058
 1103POPC   C4A18162  42.057  33.963   7.680
 1103POPC   C1B18163  42.632  33.545   8.757
 1103POPC   C2B18164  42.474  33.665   8.332
 1103POPC   C3B18165  42.519  33.807   7.886
 1103POPC   C4B18166  42.782  34.115   7.616
 1104POPC   NC318167  43.728  42.634   9.815
 1104POPC   PO418168  43.787  42.070   9.413
 1104POPC   GL118169  44.201  42.200   9.235
 1104POPC   GL218170  44.059  42.487   9.211
 1104POPC   C1A18171  44.343  42.310   8.826
 1104POPC   D2A18172  44.081  42.332   8.454
 1104POPC   C3A18173  44.152  42.084   8.105
 1104POPC   C4A18174  44.202  42.251   7.645
 1104POPC   C1B18175  44.055  42.708   8.804
 1104POPC   C2B18176  43.788  42.791   8.492
 1104POPC   C3B18177  43.840  42.813   8.068
 1104POPC   C4B18178  43.922  42.667   7.672
 1105POPC   NC318179   0.194  16.973   9.520
 1105POPC   PO418180   0.610  16.354   9.470
 1105POPC   GL118181   0.573  16.677   9.161
 1105POPC   GL218182   0.232  16.747   9.063
 1105POPC   C1A18183   0.601  16.672   8.708
 1105POPC   D2A18184   0.380  16.462   8.441
 1105POPC   C3A18185   0.467  16.614   8.059
 1105POPC   C4A18186   0.480  16.617   7.618
 1105POPC   C1B18187   0.182  16.975   8.690
 1105POPC   C2B18188   0.138  16.965   8.277
 1105POPC   C3B18189   0.168  16.981   7.866
 1105POPC   C4B18190   0.095  16.906   7.461
 1106POPC   NC318191   4.499   2.870   9.536
 1106POPC   PO418192   4.514   2.229   9.304
 1106POPC   GL118193   4.359   2.594   9.078
 1106POPC   GL218194   4.205   2.954   9.141
 1106POPC   C1A18195   4.190   2.670   8.668
 1106POPC   D2A18196   4.075   2.651   8.221
 1106POPC   C3A18197   4.386   2.731   7.942
 1106POPC   C4A18198   4.426   2.466   7.600
 1106POPC   C1B18199   4.032   3.136   8.784
 1106POPC   C2B18200   3.895   3.081   8.362
 1106POPC   C3B18201   4.005   3.097   7.914
 1106POPC   C4B18202   3.947   2.929   7.485
 1107POPC   NC318203   8.860  17.617   9.458
 1107POPC   PO418204   9.034  17.122   9.747
 1107POPC   GL118205   9.130  17.254   9.209
 1107POPC   GL218206   8.837  17.387   8.989
 1107POPC   C1A18207   9.212  17.324   8.695
 1107POPC   D2A18208   8.890  17.444   8.375
 1107POPC   C3A18209   9.004  17.399   7.944
 1107POPC   C4A18210   9.310  17.518   7.646
 1107POPC   C1B18211   8.945  17.759   8.792
 1107POPC   C2B18212   8.903  17.960   8.414
 1107POPC   C3B18213   8.768  17.882   8.014
 1107POPC   C4B18214   8.857  17.821   7.585
 1108POPC   NC318215  32.703  18.755   9.540
 1108POPC   PO418216  33.074  19.359   9.523
 1108POPC   GL118217  33.060  19.033   9.204
 1108POPC   GL218218  32.717  19.024   9.094
 1108POPC   C1A18219  33.118  19.164   8.774
 1108POPC   D2A18220  32.930  19.337   8.429
 1108POPC   C3A18221  33.180  19.309   8.082
 1108POPC   C4A18222  33.306  18.965   7.820
 1108POPC   C1B18223  32.778  18.816   8.691
 1108POPC   C2B18224  32.990  18.850   8.299
 1108POPC   C3B18225  32.792  19.004   7.923
 1108POPC   C4B18226  32.801  18.901   7.479
 1109POPC   NC318227   0.236  15.275   9.588
 1109POPC   PO418228   0.898  15.397   9.456
 1109POPC   GL118229   0.673  15.101   9.154
 1109POPC   GL218230   0.306  15.005   9.164
 1109POPC   C1A18231   0.579  15.160   8.724
 1109POPC   D2A18232   0.486  15.408   8.412
 1109POPC   C3A18233   0.687  15.369   8.075
 1109POPC   C4A18234   0.443  15.395   7.748
 1109POPC   C1B18235   0.079  15.088   8.778
 1109POPC   C2B18236   0.011  15.217   8.345
 1109POPC   C3B18237  44.984  15.243   7.908
 1109POPC   C4B18238   0.194  14.961   7.592
 1110POPC   NC318239  19.053  11.948   9.462
 1110POPC   PO418240  19.347  12.575   9.482
 1110POPC   GL118241  19.173  12.356   9.110
 1110POPC   GL218242  18.923  12.090   9.020
 1110POPC   C1A18243  19.340  12.107   8.759
 1110POPC   D2A18244  19.500  12.109   8.356
 1110POPC   C3A18245  19.243  12.238   8.034
 1110POPC   C4A18246  19.292  11.920   7.741
 1110POPC   C1B18247  18.785  12.038   8.678
 1110POPC   C2B18248  18.975  11.968   8.343
 1110POPC   C3B18249  18.797  12.029   7.915
 1110POPC   C4B18250  18.814  12.456   7.788
 1111POPC   NC318251  27.508  13.386   9.537
 1111POPC   PO418252  27.425  14.014   9.718
 1111POPC   GL118253  27.750  13.752   9.327
 1111POPC   GL218254  27.504  13.565   9.062
 1111POPC   C1A18255  27.954  13.658   8.862
 1111POPC   D2A18256  27.931  13.758   8.398
 1111POPC   C3A18257  27.547  13.642   8.153
 1111POPC   C4A18258  27.503  13.431   7.752
 1111POPC   C1B18259  27.293  13.678   8.660
 1111POPC   C2B18260  27.095  13.878   8.316
 1111POPC   C3B18261  27.282  14.093   7.997
 1111POPC   C4B18262  27.510  13.955   7.657
 1112POPC   NC318263  37.572  20.315   9.471
 1112POPC   PO418264  37.224  20.911   9.542
 1112POPC   GL118265  37.437  20.738   9.155
 1112POPC   GL218266  37.194  20.617   8.938
 1112POPC   C1A18267  37.649  20.623   8.720
 1112POPC   D2A18268  37.740  20.793   8.241
 1112POPC   C3A18269  37.586  20.520   7.825
 1112POPC   C4A18270  37.556  20.365   7.329
 1112POPC   C1B18271  37.262  20.956   8.628
 1112POPC   C2B18272  37.305  21.164   8.214
 1112POPC   C3B18273  37.533  21.041   7.834
 1112POPC   C4B18274  37.433  20.851   7.409
 1113POPC   NC318275  41.428  12.633   9.505
 1113POPC   PO418276  42.041  12.998   9.574
 1113POPC   GL118277  41.719  12.929   9.195
 1113POPC   GL218278  41.634  12.579   9.069
 1113POPC   C1A18279  41.546  13.246   8.872
 1113POPC   D2A18280  41.389  13.270   8.437
 1113POPC   C3A18281  41.422  13.022   8.061
 1113POPC   C4A18282  41.691  13.058   7.682
 1113POPC   C1B18283  41.373  12.780   8.786
 1113POPC   C2B18284  41.466  12.624   8.388
 1113POPC   C3B18285  41.599  12.561   7.967
 1113POPC   C4B18286  41.324  12.688   7.665
 1114POPC   NC318287  34.164  27.086   9.544
 1114POPC   PO418288  34.771  27.276   9.482
 1114POPC   GL118289  34.558  27.370   9.150
 1114POPC   GL218290  34.267  27.550   9.232
 1114POPC   C1A18291  34.674  27.511   8.751
 1114POPC   D2A18292  34.894  27.664   8.372
 1114POPC   C3A18293  34.675  27.541   8.007
 1114POPC   C4A18294  34.605  27.228   7.694
 1114POPC   C1B18295  34.156  27.649   8.800
 1114POPC   C2B18296  34.067  27.721   8.334
 1114POPC   C3B18297  34.236  27.807   7.905
 1114POPC   C4B18298  34.405  28.126   7.624
 1115POPC   NC318299  38.778  26.509   9.474
 1115POPC   PO418300  38.247  26.898   9.600
 1115POPC   GL118301  38.322  26.827   9.173
 1115POPC   GL218302  38.167  27.123   9.099
 1115POPC   C1A18303  38.606  26.639   8.825
 1115POPC   D2A18304  38.611  26.409   8.420
 1115POPC   C3A18305  38.573  26.612   8.031
 1115POPC   C4A18306  38.631  26.404   7.634
 1115POPC   C1B18307  38.353  27.080   8.718
 1115POPC   C2B18308  38.274  26.812   8.406
 1115POPC   C3B18309  38.091  26.828   8.016
 1115POPC   C4B18310  38.287  26.792   7.611
 1116POPC   NC318311  29.688  28.443   9.402
 1116POPC   PO418312  30.300  28.281   9.498
 1116POPC   GL118313  30.163  28.231   9.141
 1116POPC   GL218314  30.067  28.576   9.054
 1116POPC   C1A18315  29.982  28.159   8.775
 1116POPC   D2A18316  29.674  28.103   8.467
 1116POPC   C3A18317  29.826  28.300   8.108
 1116POPC   C4A18318  29.939  28.170   7.737
 1116POPC   C1B18319  29.667  28.561   8.767
 1116POPC   C2B18320  29.472  28.577   8.353
 1116POPC   C3B18321  29.662  28.774   7.999
 1116POPC   C4B18322  29.977  28.670   7.681
 1117POPC   NC318323  26.564  13.990   9.585
 1117POPC   PO418324  27.082  13.502   9.372
 1117POPC   GL118325  26.744  13.570   9.125
 1117POPC   GL218326  26.799  13.915   9.133
 1117POPC   C1A18327  26.744  13.646   8.677
 1117POPC   D2A18328  26.872  13.420   8.355
 1117POPC   C3A18329  26.736  13.472   7.946
 1117POPC   C4A18330  27.061  13.706   7.734
 1117POPC   C1B18331  26.427  13.937   8.936
 1117POPC   C2B18332  26.311  13.953   8.515
 1117POPC   C3B18333  26.595  13.923   8.175
 1117POPC   C4B18334  26.590  13.950   7.733
 1118POPC   NC318335  28.417  12.984   9.423
 1118POPC   PO418336  28.105  12.389   9.654
 1118POPC   GL118337  28.115  12.661   9.186
 1118POPC   GL218338  28.448  12.674   8.999
 1118POPC   C1A18339  28.085  13.016   8.819
 1118POPC   D2A18340  27.862  13.225   8.439
 1118POPC   C3A18341  28.080  13.216   8.024
 1118POPC   C4A18342  28.485  13.024   7.894
 1118POPC   C1B18343  28.175  12.532   8.638
 1118POPC   C2B18344  28.056  12.662   8.186
 1118POPC   C3B18345  28.287  12.561   7.793
 1118POPC   C4B18346  28.685  12.579   7.611
 1119POPC   NC318347  38.680  23.216   9.496
 1119POPC   PO418348  38.016  23.217   9.460
 1119POPC   GL118349  38.303  22.939   9.256
 1119POPC   GL218350  38.330  23.232   9.045
 1119POPC   C1A18351  38.635  22.851   8.922
 1119POPC   D2A18352  38.736  22.768   8.482
 1119POPC   C3A18353  38.614  22.933   8.082
 1119POPC   C4A18354  38.517  22.655   7.760
 1119POPC   C1B18355  38.006  22.949   8.850
 1119POPC   C2B18356  38.132  22.899   8.458
 1119POPC   C3B18357  38.161  22.671   8.125
 1119POPC   C4B18358  38.054  22.873   7.725
 1120POPC   NC318359  39.605  39.425   9.390
 1120POPC   PO418360  38.926  39.473   9.367
 1120POPC   GL118361  39.191  39.283   9.080
 1120POPC   GL218362  39.470  39.032   9.131
 1120POPC   C1A18363  39.086  39.376   8.678
 1120POPC   D2A18364  39.303  39.505   8.340
 1120POPC   C3A18365  39.105  39.411   7.977
 1120POPC   C4A18366  39.084  39.082   7.711
 1120POPC   C1B18367  39.601  39.323   8.758
 1120POPC   C2B18368  39.661  39.128   8.379
 1120POPC   C3B18369  39.513  39.076   7.990
 1120POPC   C4B18370  39.596  38.940   7.578
 1121POPC   NC318371   6.834  16.338   9.609
 1121POPC   PO418372   6.628  15.775   9.441
 1121POPC   GL118373   6.748  15.844   9.067
 1121POPC   GL218374   7.062  15.679   9.064
 1121POPC   C1A18375   6.595  16.044   8.710
 1121POPC   D2A18376   6.323  16.331   8.507
 1121POPC   C3A18377   6.402  16.144   8.127
 1121POPC   C4A18378   6.685  16.085   7.766
 1121POPC   C1B18379   6.830  15.543   8.671
 1121POPC   C2B18380   6.505  15.562   8.372
 1121POPC   C3B18381   6.474  15.653   7.948
 1121POPC   C4B18382   6.799  15.584   7.629
 1122POPC   NC318383  37.005  41.112   9.359
 1122POPC   PO418384  37.415  40.534   9.120
 1122POPC   GL118385  37.066  40.728   9.027
 1122POPC   GL218386  36.764  40.667   9.168
 1122POPC   C1A18387  36.932  40.964   8.699
 1122POPC   D2A18388  36.866  40.757   8.321
 1122POPC   C3A18389  37.150  40.790   8.002
 1122POPC   C4A18390  37.007  40.994   7.659
 1122POPC   C1B18391  36.746  40.451   8.740
 1122POPC   C2B18392  36.683  40.298   8.330
 1122POPC   C3B18393  36.767  40.460   7.895
 1122POPC   C4B18394  36.688  40.644   7.468
 1123POPC   NC318395  12.115  27.059   9.392
 1123POPC   PO418396  12.147  27.840   9.450
 1123POPC   GL118397  11.995  27.556   9.150
 1123POPC   GL218398  12.332  27.426   9.099
 1123POPC   C1A18399  11.922  27.569   8.692
 1123POPC   D2A18400  11.874  27.266   8.358
 1123POPC   C3A18401  11.742  27.532   8.056
 1123POPC   C4A18402  11.845  27.856   7.767
 1123POPC   C1B18403  12.364  27.789   8.842
 1123POPC   C2B18404  12.403  27.869   8.445
 1123POPC   C3B18405  12.227  27.591   8.191
 1123POPC   C4B18406  12.187  27.461   7.781
 1124POPC   NC318407   4.497  19.825   9.345
 1124POPC   PO418408   3.871  19.709   9.555
 1124POPC   GL118409   3.939  19.916   9.162
 1124POPC   GL218410   4.151  20.198   9.165
 1124POPC   C1A18411   4.085  19.889   8.747
 1124POPC   D2A18412   4.071  19.616   8.375
 1124POPC   C3A18413   3.948  19.634   7.929
 1124POPC   C4A18414   4.192  19.711   7.605
 1124POPC   C1B18415   4.473  20.316   8.863
 1124POPC   C2B18416   4.332  20.209   8.452
 1124POPC   C3B18417   4.338  19.973   8.068
 1124POPC   C4B18418   4.583  20.006   7.684
 1125POPC   NC318419  12.391   4.952   9.589
 1125POPC   PO418420  11.805   5.313   9.409
 1125POPC   GL118421  12.086   5.136   9.155
 1125POPC   GL218422  11.986   4.853   9.140
 1125POPC   C1A18423  12.060   5.240   8.720
 1125POPC   D2A18424  12.265   5.335   8.325
 1125POPC   C3A18425  12.162   5.105   7.935
 1125POPC   C4A18426  12.180   5.148   7.477
 1125POPC   C1B18427  12.287   4.801   8.813
 1125POPC   C2B18428  12.116   4.815   8.386
 1125POPC   C3B18429  11.798   4.739   8.050
 1125POPC   C4B18430  11.783   4.848   7.629
 1126POPC   NC318431   7.404  31.588   9.499
 1126POPC   PO418432   6.749  31.429   9.518
 1126POPC   GL118433   7.061  31.543   9.123
 1126POPC   GL218434   7.373  31.347   9.066
 1126POPC   C1A18435   7.356  31.737   8.765
 1126POPC   D2A18436   7.247  31.795   8.330
 1126POPC   C3A18437   7.457  31.575   7.987
 1126POPC   C4A18438   7.422  31.547   7.563
 1126POPC   C1B18439   7.589  31.189   8.716
 1126POPC   C2B18440   7.492  31.147   8.272
 1126POPC   C3B18441   7.600  31.081   7.837
 1126POPC   C4B18442   7.774  31.140   7.424
 1127POPC   NC318443  21.044  23.223   9.373
 1127POPC   PO418444  21.543  22.907   9.563
 1127POPC   GL118445  21.400  22.767   9.150
 1127POPC   GL218446  21.065  22.853   9.038
 1127POPC   C1A18447  21.633  22.754   8.744
 1127POPC   D2A18448  21.379  22.657   8.406
 1127POPC   C3A18449  21.494  22.811   8.016
 1127POPC   C4A18450  21.296  22.804   7.638
 1127POPC   C1B18451  21.250  23.081   8.697
 1127POPC   C2B18452  21.434  23.235   8.322
 1127POPC   C3B18453  21.346  23.275   7.890
 1127POPC   C4B18454  21.218  23.276   7.449
 1128POPC   NC318455  17.051  23.009   9.351
 1128POPC   PO418456  16.416  23.218   9.504
 1128POPC   GL118457  16.333  23.041   9.102
 1128POPC   GL218458  16.624  22.923   9.080
 1128POPC   C1A18459  16.361  23.143   8.627
 1128POPC   D2A18460  16.664  23.060   8.267
 1128POPC   C3A18461  16.671  23.184   7.865
 1128POPC   C4A18462  16.560  22.993   7.487
 1128POPC   C1B18463  16.790  22.822   8.693
 1128POPC   C2B18464  16.992  22.639   8.312
 1128POPC   C3B18465  16.905  22.650   7.868
 1128POPC   C4B18466  17.018  22.802   7.454
 1129POPC   NC318467  42.582   9.206   9.447
 1129POPC   PO418468  42.230   9.735   9.732
 1129POPC   GL118469  42.198   9.826   9.249
 1129POPC   GL218470  42.534   9.705   9.258
 1129POPC   C1A18471  42.340   9.749   8.785
 1129POPC   D2A18472  42.189   9.533   8.413
 1129POPC   C3A18473  42.291   9.768   8.061
 1129POPC   C4A18474  42.253   9.832   7.636
 1129POPC   C1B18475  42.753   9.492   8.901
 1129POPC   C2B18476  42.735   9.572   8.466
 1129POPC   C3B18477  42.750   9.542   8.035
 1129POPC   C4B18478  42.583   9.463   7.630
 1130POPC   NC318479  40.249  14.809   9.468
 1130POPC   PO418480  39.704  15.239   9.576
 1130POPC   GL118481  39.656  15.214   9.123
 1130POPC   GL218482  39.952  15.008   9.098
 1130POPC   C1A18483  39.713  15.384   8.687
 1130POPC   D2A18484  40.069  15.385   8.405
 1130POPC   C3A18485  40.134  15.235   7.977
 1130POPC   C4A18486  39.969  15.330   7.560
 1130POPC   C1B18487  39.954  14.894   8.686
 1130POPC   C2B18488  39.773  14.972   8.287
 1130POPC   C3B18489  39.753  14.926   7.847
 1130POPC   C4B18490  40.126  14.851   7.614
 1131POPC   NC318491  37.114  16.342   9.390
 1131POPC   PO418492  36.930  16.958   9.502
 1131POPC   GL118493  37.146  16.822   9.131
 1131POPC   GL218494  36.812  16.671   9.039
 1131POPC   C1A18495  37.160  16.706   8.661
 1131POPC   D2A18496  36.811  16.534   8.396
 1131POPC   C3A18497  36.819  16.647   7.952
 1131POPC   C4A18498  37.013  16.881   7.605
 1131POPC   C1B18499  36.486  16.819   8.720
 1131POPC   C2B18500  36.453  17.006   8.296
 1131POPC   C3B18501  36.366  16.855   7.846
 1131POPC   C4B18502  36.608  16.655   7.450
 1132POPC   NC318503  42.082  32.497   9.818
 1132POPC   PO418504  41.518  32.985   9.625
 1132POPC   GL118505  41.582  33.040   9.203
 1132POPC   GL218506  41.270  32.949   9.074
 1132POPC   C1A18507  41.826  33.099   8.812
 1132POPC   D2A18508  41.946  32.904   8.414
 1132POPC   C3A18509  41.911  33.141   8.042
 1132POPC   C4A18510  41.732  32.842   7.804
 1132POPC   C1B18511  41.387  32.901   8.650
 1132POPC   C2B18512  41.445  33.031   8.244
 1132POPC   C3B18513  41.274  33.034   7.865
 1132POPC   C4B18514  41.069  33.232   7.664
 1133POPC   NC318515  36.457  44.976   9.911
 1133POPC   PO418516  35.922  44.630   9.607
 1133POPC   GL118517  35.981  44.622   9.154
 1133POPC   GL218518  35.952  44.288   9.003
 1133POPC   C1A18519  36.080  44.869   8.764
 1133POPC   D2A18520  36.398  44.829   8.436
 1133POPC   C3A18521  36.304  44.618   8.059
 1133POPC   C4A18522  36.205  44.832   7.695
 1133POPC   C1B18523  35.712  44.526   8.715
 1133POPC   C2B18524  35.866  44.677   8.321
 1133POPC   C3B18525  35.820  44.534   7.888
 1133POPC   C4B18526  35.810  44.649   7.418
 1134POPC   NC318527   9.808  32.644   9.725
 1134POPC   PO418528   9.552  32.039   9.653
 1134POPC   GL118529   9.714  32.284   9.270
 1134POPC   GL218530   9.974  32.212   9.109
 1134POPC   C1A18531   9.570  32.329   8.797
 1134POPC   D2A18532   9.773  32.206   8.418
 1134POPC   C3A18533   9.602  32.411   8.083
 1134POPC   C4A18534   9.416  32.270   7.731
 1134POPC   C1B18535  10.165  32.058   8.742
 1134POPC   C2B18536  10.044  31.737   8.444
 1134POPC   C3B18537  10.115  31.741   8.023
 1134POPC   C4B18538  10.004  32.147   7.849
 1135POPC   NC318539  41.164  22.471   9.465
 1135POPC   PO418540  41.653  22.996   9.639
 1135POPC   GL118541  41.788  23.037   9.189
 1135POPC   GL218542  41.618  23.348   9.117
 1135POPC   C1A18543  41.746  22.927   8.739
 1135POPC   D2A18544  41.965  22.836   8.339
 1135POPC   C3A18545  41.749  22.758   7.964
 1135POPC   C4A18546  41.472  22.724   7.621
 1135POPC   C1B18547  41.335  23.236   8.760
 1135POPC   C2B18548  41.426  23.094   8.323
 1135POPC   C3B18549  41.267  23.116   7.882
 1135POPC   C4B18550  41.346  23.271   7.444
 1136POPC   NC318551  31.687   0.713   9.409
 1136POPC   PO418552  31.313   0.247   9.323
 1136POPC   GL118553  31.669   0.309   9.079
 1136POPC   GL218554  31.597   0.640   8.928
 1136POPC   C1A18555  31.720   0.233   8.662
 1136POPC   D2A18556  31.543   0.568   8.397
 1136POPC   C3A18557  31.728   0.512   8.020
 1136POPC   C4A18558  31.807   0.104   7.883
 1136POPC   C1B18559  31.192   0.776   8.778
 1136POPC   C2B18560  31.166   0.922   8.365
 1136POPC   C3B18561  31.413   0.918   7.972
 1136POPC   C4B18562  31.617   0.748   7.576
 1137POPC   NC318563  30.607   2.151   9.417
 1137POPC   PO418564  31.130   1.777   9.493
 1137POPC   GL118565  30.898   1.821   9.112
 1137POPC   GL218566  30.527   1.736   9.125
 1137POPC   C1A18567  30.814   2.038   8.733
 1137POPC   D2A18568  30.721   2.322   8.406
 1137POPC   C3A18569  30.717   2.135   8.019
 1137POPC   C4A18570  30.488   2.173   7.649
 1137POPC   C1B18571  30.317   2.017   8.824
 1137POPC   C2B18572  30.361   1.929   8.410
 1137POPC   C3B18573  30.289   1.855   7.994
 1137POPC   C4B18574  30.082   1.860   7.607
 1138POPC   NC318575  20.748  35.488   9.425
 1138POPC   PO418576  20.399  34.905   9.380
 1138POPC   GL118577  20.519  35.184   9.116
 1138POPC   GL218578  20.282  35.453   9.180
 1138POPC   C1A18579  20.575  35.450   8.765
 1138POPC   D2A18580  20.601  35.373   8.354
 1138POPC   C3A18581  20.793  35.581   8.070
 1138POPC   C4A18582  20.545  35.481   7.738
 1138POPC   C1B18583  20.116  35.186   8.829
 1138POPC   C2B18584  20.192  35.076   8.411
 1138POPC   C3B18585  20.352  35.042   7.998
 1138POPC   C4B18586  20.318  35.089   7.536
 1139POPC   NC318587  31.836   3.573   9.711
 1139POPC   PO418588  31.190   3.155   9.636
 1139POPC   GL118589  31.317   3.314   9.154
 1139POPC   GL218590  31.434   3.658   9.063
 1139POPC   C1A18591  31.156   3.473   8.708
 1139POPC   D2A18592  31.413   3.637   8.321
 1139POPC   C3A18593  31.311   3.394   7.910
 1139POPC   C4A18594  31.335   3.296   7.410
 1139POPC   C1B18595  31.156   3.985   8.863
 1139POPC   C2B18596  31.018   3.987   8.443
 1139POPC   C3B18597  31.204   4.000   8.034
 1139POPC   C4B18598  31.239   3.787   7.607
 1140POPC   NC318599  27.185   5.709   9.468
 1140POPC   PO418600  26.650   6.129   9.464
 1140POPC   GL118601  26.703   5.920   9.097
 1140POPC   GL218602  26.955   5.693   9.038
 1140POPC   C1A18603  26.893   6.083   8.717
 1140POPC   D2A18604  27.073   6.208   8.356
 1140POPC   C3A18605  26.857   6.047   8.003
 1140POPC   C4A18606  26.578   6.174   7.694
 1140POPC   C1B18607  27.146   5.512   8.729
 1140POPC   C2B18608  27.126   5.678   8.322
 1140POPC   C3B18609  27.059   5.524   7.914
 1140POPC   C4B18610  26.991   5.553   7.481
 1141POPC   NC318611  22.909  20.352   9.656
 1141POPC   PO418612  22.882  21.025   9.607
 1141POPC   GL118613  22.965  20.694   9.251
 1141POPC   GL218614  22.757  20.348   9.181
 1141POPC   C1A18615  23.128  20.518   8.847
 1141POPC   D2A18616  23.344  20.486   8.431
 1141POPC   C3A18617  23.352  20.847   8.155
 1141POPC   C4A18618  23.076  20.742   7.828
 1141POPC   C1B18619  22.580  20.471   8.785
 1141POPC   C2B18620  22.672  20.301   8.364
 1141POPC   C3B18621  22.766  20.336   7.891
 1141POPC   C4B18622  22.677  20.624   7.503
 1142POPC   NC318623   9.929  43.002   9.926
 1142POPC   PO418624   9.659  42.709   9.424
 1142POPC   GL118625   9.674  42.815   9.014
 1142POPC   GL218626   9.793  43.155   9.015
 1142POPC   C1A18627   9.401  42.869   8.668
 1142POPC   D2A18628   9.480  43.133   8.295
 1142POPC   C3A18629   9.447  42.979   7.920
 1142POPC   C4A18630   9.758  42.704   7.783
 1142POPC   C1B18631   9.891  43.101   8.596
 1142POPC   C2B18632   9.926  43.415   8.288
 1142POPC   C3B18633   9.781  43.417   7.919
 1142POPC   C4B18634   9.736  43.182   7.565
 1143POPC   NC318635  26.752  38.814   9.513
 1143POPC   PO418636  26.768  39.442   9.556
 1143POPC   GL118637  26.743  39.516   9.114
 1143POPC   GL218638  27.060  39.442   9.052
 1143POPC   C1A18639  26.697  39.271   8.707
 1143POPC   D2A18640  26.748  38.848   8.462
 1143POPC   C3A18641  26.767  38.899   7.988
 1143POPC   C4A18642  26.497  39.234   7.786
 1143POPC   C1B18643  27.219  39.240   8.678
 1143POPC   C2B18644  27.041  39.276   8.285
 1143POPC   C3B18645  26.948  39.452   7.895
 1143POPC   C4B18646  26.634  39.741   7.845
 1144POPC   NC318647  36.422  13.346   9.399
 1144POPC   PO418648  36.064  12.766   9.478
 1144POPC   GL118649  36.235  12.875   9.089
 1144POPC   GL218650  36.578  12.853   9.243
 1144POPC   C1A18651  36.198  12.778   8.611
 1144POPC   D2A18652  36.445  12.606   8.216
 1144POPC   C3A18653  36.232  12.559   7.789
 1144POPC   C4A18654  36.343  12.696   7.318
 1144POPC   C1B18655  36.665  12.894   8.796
 1144POPC   C2B18656  36.564  13.070   8.409
 1144POPC   C3B18657  36.257  13.061   8.100
 1144POPC   C4B18658  36.471  13.018   7.705
 1145POPC   NC318659   9.351   3.627   9.612
 1145POPC   PO418660   9.971   3.519   9.626
 1145POPC   GL118661   9.968   3.417   9.201
 1145POPC   GL218662   9.633   3.448   9.172
 1145POPC   C1A18663   9.997   3.369   8.745
 1145POPC   D2A18664   9.768   3.347   8.341
 1145POPC   C3A18665   9.988   3.389   7.946
 1145POPC   C4A18666  10.011   3.452   7.482
 1145POPC   C1B18667   9.564   3.629   8.743
 1145POPC   C2B18668   9.384   3.714   8.370
 1145POPC   C3B18669   9.523   3.633   7.961
 1145POPC   C4B18670   9.369   3.827   7.597
 1146POPC   NC318671  10.108   7.050   9.469
 1146POPC   PO418672  10.522   7.513   9.496
 1146POPC   GL118673  10.292   7.429   9.108
 1146POPC   GL218674  10.114   7.117   8.965
 1146POPC   C1A18675  10.463   7.372   8.703
 1146POPC   D2A18676  10.678   7.306   8.349
 1146POPC   C3A18677  10.407   7.478   8.035
 1146POPC   C4A18678  10.451   7.586   7.602
 1146POPC   C1B18679  10.292   6.898   8.628
 1146POPC   C2B18680  10.313   6.963   8.178
 1146POPC   C3B18681   9.998   7.054   7.860
 1146POPC   C4B18682  10.075   7.235   7.445
 1147POPC   NC318683  11.197   0.106   9.615
 1147POPC   PO418684  11.559  44.621   9.489
 1147POPC   GL118685  11.163  44.662   9.216
 1147POPC   GL218686  11.041  44.993   9.141
 1147POPC   C1A18687  11.105  44.685   8.749
 1147POPC   D2A18688  11.249   0.005   8.460
 1147POPC   C3A18689  11.270  44.805   8.072
 1147POPC   C4A18690  11.301  44.345   7.909
 1147POPC   C1B18691  11.452   0.038   8.947
 1147POPC   C2B18692  11.776  44.979   8.632
 1147POPC   C3B18693  11.791  44.919   8.192
 1147POPC   C4B18694  11.647   0.106   7.825
 1148POPC   NC318695  38.915  13.842   9.491
 1148POPC   PO418696  39.528  13.610   9.480
 1148POPC   GL118697  39.251  13.703   9.129
 1148POPC   GL218698  38.885  13.542   9.093
 1148POPC   C1A18699  39.135  13.844   8.746
 1148POPC   D2A18700  39.196  13.601   8.399
 1148POPC   C3A18701  39.395  13.780   8.081
 1148POPC   C4A18702  39.293  13.750   7.670
 1148POPC   C1B18703  38.885  13.337   8.710
 1148POPC   C2B18704  38.778  13.320   8.295
 1148POPC   C3B18705  38.909  13.577   7.983
 1148POPC   C4B18706  38.828  13.446   7.607
 1149POPC   NC318707  19.344   3.138   9.404
 1149POPC   PO418708  18.954   3.628   9.550
 1149POPC   GL118709  19.028   3.459   9.178
 1149POPC   GL218710  19.178   3.755   9.057
 1149POPC   C1A18711  18.893   3.414   8.777
 1149POPC   D2A18712  19.021   3.628   8.434
 1149POPC   C3A18713  18.837   3.503   8.065
 1149POPC   C4A18714  18.970   3.300   7.696
 1149POPC   C1B18715  19.411   3.919   8.722
 1149POPC   C2B18716  19.315   4.018   8.316
 1149POPC   C3B18717  19.294   3.763   7.973
 1149POPC   C4B18718  18.998   3.817   7.674
 1150POPC   NC318719  19.287  19.589   9.476
 1150POPC   PO418720  18.928  20.088   9.865
 1150POPC   GL118721  18.881  19.914   9.393
 1150POPC   GL218722  18.935  20.196   9.147
 1150POPC   C1A18723  18.844  19.712   8.954
 1150POPC   D2A18724  18.800  19.838   8.497
 1150POPC   C3A18725  18.942  19.616   8.141
 1150POPC   C4A18726  18.968  19.769   7.718
 1150POPC   C1B18727  19.155  20.069   8.793
 1150POPC   C2B18728  19.487  19.968   8.536
 1150POPC   C3B18729  19.398  19.891   8.130
 1150POPC   C4B18730  19.467  19.961   7.731
 1151POPC   NC318731  37.338   8.668   9.408
 1151POPC   PO418732  37.764   8.133   9.485
 1151POPC   GL118733  37.702   8.366   9.155
 1151POPC   GL218734  37.830   8.667   9.267
 1151POPC   C1A18735  37.637   8.205   8.747
 1151POPC   D2A18736  37.436   8.203   8.358
 1151POPC   C3A18737  37.619   7.991   7.999
 1151POPC   C4A18738  37.457   8.010   7.593
 1151POPC   C1B18739  37.871   8.706   8.826
 1151POPC   C2B18740  37.905   8.495   8.424
 1151POPC   C3B18741  37.717   8.513   8.031
 1151POPC   C4B18742  37.778   8.399   7.659
 1152POPC   NC318743  12.800   9.298   9.565
 1152POPC   PO418744  13.338   8.881   9.784
 1152POPC   GL118745  13.026   8.814   9.362
 1152POPC   GL218746  12.762   9.034   9.149
 1152POPC   C1A18747  12.979   8.701   8.875
 1152POPC   D2A18748  12.749   8.811   8.458
 1152POPC   C3A18749  13.012   8.777   8.052
 1152POPC   C4A18750  12.803   8.661   7.678
 1152POPC   C1B18751  12.916   9.205   8.738
 1152POPC   C2B18752  13.120   9.172   8.336
 1152POPC   C3B18753  12.962   9.264   7.900
 1152POPC   C4B18754  12.969   9.130   7.436
 1153POPC   NC318755  10.410   3.531   9.481
 1153POPC   PO418756  11.049   3.748   9.464
 1153POPC   GL118757  10.715   3.601   9.092
 1153POPC   GL218758  10.342   3.726   8.972
 1153POPC   C1A18759  10.508   3.332   8.733
 1153POPC   D2A18760  10.322   3.518   8.335
 1153POPC   C3A18761  10.525   3.314   7.955
 1153POPC   C4A18762  10.490   3.192   7.529
 1153POPC   C1B18763  10.672   3.813   8.643
 1153POPC   C2B18764  10.839   4.086   8.318
 1153POPC   C3B18765  10.647   4.024   7.928
 1153POPC   C4B18766  10.332   3.747   7.747
 1154POPC   NC318767   9.265   2.701   9.549
 1154POPC   PO418768   8.648   2.413   9.541
 1154POPC   GL118769   8.881   2.667   9.208
 1154POPC   GL218770   9.182   2.505   9.112
 1154POPC   C1A18771   9.064   2.856   8.798
 1154POPC   D2A18772   8.928   2.743   8.412
 1154POPC   C3A18773   8.930   3.007   8.120
 1154POPC   C4A18774   9.022   2.884   7.761
 1154POPC   C1B18775   9.350   2.448   8.727
 1154POPC   C2B18776   9.442   2.728   8.423
 1154POPC   C3B18777   9.293   2.610   8.068
 1154POPC   C4B18778   9.233   2.434   7.657
 1155POPC   NC318779   6.207  15.936   9.507
 1155POPC   PO418780   5.552  16.085   9.656
 1155POPC   GL118781   5.765  16.024   9.230
 1155POPC   GL218782   6.113  16.187   9.084
 1155POPC   C1A18783   5.666  16.130   8.803
 1155POPC   D2A18784   5.815  16.197   8.406
 1155POPC   C3A18785   5.576  16.172   8.007
 1155POPC   C4A18786   5.596  16.207   7.547
 1155POPC   C1B18787   6.163  15.767   8.885
 1155POPC   C2B18788   6.031  15.685   8.489
 1155POPC   C3B18789   5.962  15.832   8.094
 1155POPC   C4B18790   6.055  16.105   7.773
 1156POPC   NC318791   4.198  12.784   9.432
 1156POPC   PO418792   4.631  13.310   9.428
 1156POPC   GL118793   4.467  13.078   9.107
 1156POPC   GL218794   4.158  13.234   9.068
 1156POPC   C1A18795   4.480  12.749   8.762
 1156POPC   D2A18796   4.650  12.577   8.368
 1156POPC   C3A18797   4.550  12.795   7.960
 1156POPC   C4A18798   4.176  12.731   7.793
 1156POPC   C1B18799   4.328  13.225   8.642
 1156POPC   C2B18800   4.233  13.070   8.263
 1156POPC   C3B18801   4.069  13.198   7.903
 1156POPC   C4B18802   4.243  13.130   7.497
 1157POPC   NC318803  44.782  39.532   9.449
 1157POPC   PO418804  44.402  38.881   9.498
 1157POPC   GL118805  44.565  39.153   9.221
 1157POPC   GL218806  44.505  38.989   8.984
 1157POPC   C1A18807  44.372  39.476   8.884
 1157POPC   D2A18808  44.326  39.521   8.400
 1157POPC   C3A18809  44.627  39.488   8.027
 1157POPC   C4A18810   0.105  39.494   7.936
 1157POPC   C1B18811  44.648  39.152   8.602
 1157POPC   C2B18812  44.907  39.129   8.271
 1157POPC   C3B18813  44.894  39.039   7.866
 1157POPC   C4B18814  44.525  39.022   7.678
 1158POPC   NC318815  12.774   1.092   9.440
 1158POPC   PO418816  13.469   1.310   9.502
 1158POPC   GL118817  13.172   1.211   9.104
 1158POPC   GL218818  12.797   1.181   8.968
 1158POPC   C1A18819  13.154   1.194   8.633
 1158POPC   D2A18820  13.268   1.275   8.243
 1158POPC   C3A18821  12.910   1.365   8.008
 1158POPC   C4A18822  13.030   1.234   7.616
 1158POPC   C1B18823  12.539   1.049   8.650
 1158POPC   C2B18824  12.465   1.154   8.208
 1158POPC   C3B18825  12.552   1.070   7.766
 1158POPC   C4B18826  12.692   0.947   7.341
 1159POPC   NC318827  25.402  16.180   9.446
 1159POPC   PO418828  24.917  15.705   9.523
 1159POPC   GL118829  25.234  15.729   9.198
 1159POPC   GL218830  25.234  16.027   9.005
 1159POPC   C1A18831  25.385  15.603   8.777
 1159POPC   D2A18832  25.355  15.734   8.342
 1159POPC   C3A18833  25.009  15.770   8.076
 1159POPC   C4A18834  24.990  15.870   7.665
 1159POPC   C1B18835  25.345  16.177   8.625
 1159POPC   C2B18836  25.603  16.237   8.283
 1159POPC   C3B18837  25.398  16.084   7.942
 1159POPC   C4B18838  25.426  16.079   7.499
 1160POPC   NC318839  43.168  32.945   9.587
 1160POPC   PO418840  42.763  32.565   9.241
 1160POPC   GL118841  42.894  32.957   9.130
 1160POPC   GL218842  42.946  33.318   9.106
 1160POPC   C1A18843  42.776  33.050   8.735
 1160POPC   D2A18844  43.037  32.994   8.415
 1160POPC   C3A18845  42.863  32.820   8.073
 1160POPC   C4A18846  43.059  32.911   7.659
 1160POPC   C1B18847  43.158  33.374   8.758
 1160POPC   C2B18848  42.979  33.492   8.363
 1160POPC   C3B18849  42.927  33.318   7.956
 1160POPC   C4B18850  43.081  33.439   7.558
 1161POPC   NC318851  12.536   1.954   9.313
 1161POPC   PO418852  12.001   2.270   9.595
 1161POPC   GL118853  12.071   2.123   9.184
 1161POPC   GL218854  12.057   1.774   9.058
 1161POPC   C1A18855  11.994   2.260   8.802
 1161POPC   D2A18856  11.836   2.326   8.417
 1161POPC   C3A18857  12.047   2.189   8.071
 1161POPC   C4A18858  11.859   2.178   7.672
 1161POPC   C1B18859  12.360   1.909   8.690
 1161POPC   C2B18860  12.546   1.672   8.334
 1161POPC   C3B18861  12.447   1.603   7.910
 1161POPC   C4B18862  12.111   1.728   7.608
 1162POPC   NC318863  43.777  25.703   9.355
 1162POPC   PO418864  43.940  25.137   9.645
 1162POPC   GL118865  43.854  25.072   9.205
 1162POPC   GL218866  43.545  25.263   9.155
 1162POPC   C1A18867  43.876  25.235   8.775
 1162POPC   D2A18868  44.137  25.404   8.482
 1162POPC   C3A18869  43.928  25.349   8.102
 1162POPC   C4A18870  44.075  25.272   7.744
 1162POPC   C1B18871  43.415  25.481   8.782
 1162POPC   C2B18872  43.644  25.597   8.442
 1162POPC   C3B18873  43.457  25.572   8.044
 1162POPC   C4B18874  43.581  25.391   7.670
 1163POPC   NC318875  25.346  34.058   9.753
 1163POPC   PO418876  25.420  33.447   9.351
 1163POPC   GL118877  25.231  33.645   9.021
 1163POPC   GL218878  25.130  34.028   9.105
 1163POPC   C1A18879  25.372  33.583   8.583
 1163POPC   D2A18880  25.298  33.856   8.214
 1163POPC   C3A18881  25.060  33.910   7.818
 1163POPC   C4A18882  25.060  33.639   7.445
 1163POPC   C1B18883  25.314  34.067   8.711
 1163POPC   C2B18884  25.548  34.272   8.401
 1163POPC   C3B18885  25.691  34.109   8.002
 1163POPC   C4B18886  25.467  34.146   7.596
 1164POPC   NC318887  24.989  40.455   9.542
 1164POPC   PO418888  25.554  40.970   9.536
 1164POPC   GL118889  25.236  40.919   9.217
 1164POPC   GL218890  25.153  40.622   9.115
 1164POPC   C1A18891  25.216  40.941   8.741
 1164POPC   D2A18892  24.993  41.103   8.407
 1164POPC   C3A18893  25.232  40.978   8.041
 1164POPC   C4A18894  25.210  41.042   7.581
 1164POPC   C1B18895  25.169  40.380   8.780
 1164POPC   C2B18896  25.034  40.560   8.431
 1164POPC   C3B18897  24.939  40.344   8.129
 1164POPC   C4B18898  25.080  40.577   7.784
 1165POPC   NC318899  39.814  31.727   9.790
 1165POPC   PO418900  40.007  32.346   9.451
 1165POPC   GL118901  40.045  32.527   9.082
 1165POPC   GL218902  39.749  32.751   9.106
 1165POPC   C1A18903  40.119  32.278   8.720
 1165POPC   D2A18904  39.827  32.060   8.475
 1165POPC   C3A18905  39.932  32.174   8.068
 1165POPC   C4A18906  40.193  32.120   7.709
 1165POPC   C1B18907  39.655  32.518   8.728
 1165POPC   C2B18908  39.539  32.480   8.304
 1165POPC   C3B18909  39.594  32.477   7.844
 1165POPC   C4B18910  39.881  32.737   7.615
 1166POPC   NC318911  44.290  41.860   9.593
 1166POPC   PO418912  44.829  41.405   9.575
 1166POPC   GL118913  44.534  41.545   9.254
 1166POPC   GL218914  44.681  41.874   9.252
 1166POPC   C1A18915  44.305  41.371   8.856
 1166POPC   D2A18916  44.195  41.576   8.431
 1166POPC   C3A18917  44.431  41.435   8.043
 1166POPC   C4A18918  44.357  41.478   7.582
 1166POPC   C1B18919  44.479  41.837   8.854
 1166POPC   C2B18920  44.550  41.957   8.438
 1166POPC   C3B18921  44.854  41.787   8.180
 1166POPC   C4B18922  44.812  41.682   7.749
 1167POPC   NC318923  22.980  16.402   9.477
 1167POPC   PO418924  23.115  15.790   9.558
 1167POPC   GL118925  23.132  15.977   9.179
 1167POPC   GL218926  22.789  15.966   9.190
 1167POPC   C1A18927  23.011  15.762   8.780
 1167POPC   D2A18928  22.799  15.638   8.419
 1167POPC   C3A18929  23.055  15.765   8.097
 1167POPC   C4A18930  23.203  15.963   7.737
 1167POPC   C1B18931  22.852  16.275   8.847
 1167POPC   C2B18932  22.933  16.140   8.441
 1167POPC   C3B18933  22.653  16.061   8.099
 1167POPC   C4B18934  22.688  16.185   7.666
 1168POPC   NC318935  35.458  21.162   9.487
 1168POPC   PO418936  34.878  21.174   9.686
 1168POPC   GL118937  35.086  21.434   9.262
 1168POPC   GL218938  35.462  21.552   9.162
 1168POPC   C1A18939  35.109  21.440   8.797
 1168POPC   D2A18940  35.329  21.547   8.420
 1168POPC   C3A18941  35.098  21.632   8.076
 1168POPC   C4A18942  35.157  21.579   7.660
 1168POPC   C1B18943  35.638  21.336   8.784
 1168POPC   C2B18944  35.773  21.280   8.346
 1168POPC   C3B18945  35.526  21.345   7.965
 1168POPC   C4B18946  35.570  21.322   7.518
 1169POPC   NC318947  40.085  38.219   9.502
 1169POPC   PO418948  39.705  38.879   9.568
 1169POPC   GL118949  39.890  38.612   9.234
 1169POPC   GL218950  39.736  38.325   9.124
 1169POPC   C1A18951  40.135  38.463   8.859
 1169POPC   D2A18952  39.991  38.195   8.513
 1169POPC   C3A18953  40.181  38.323   8.151
 1169POPC   C4A18954  40.005  38.378   7.759
 1169POPC   C1B18955  39.613  38.468   8.722
 1169POPC   C2B18956  39.599  38.613   8.309
 1169POPC   C3B18957  39.469  38.562   7.892
 1169POPC   C4B18958  39.613  38.445   7.455
 1170POPC   NC318959  31.442  13.963   9.508
 1170POPC   PO418960  31.206  13.285   9.611
 1170POPC   GL118961  31.226  13.528   9.242
 1170POPC   GL218962  31.563  13.653   9.130
 1170POPC   C1A18963  31.089  13.557   8.836
 1170POPC   D2A18964  31.283  13.751   8.498
 1170POPC   C3A18965  31.168  13.631   8.099
 1170POPC   C4A18966  31.192  14.042   7.928
 1170POPC   C1B18967  31.813  13.737   8.762
 1170POPC   C2B18968  31.754  13.585   8.380
 1170POPC   C3B18969  31.655  13.825   8.069
 1170POPC   C4B18970  31.501  13.668   7.713
 1171POPC   NC318971  33.306  19.732   9.359
 1171POPC   PO418972  33.852  20.128   9.535
 1171POPC   GL118973  33.759  19.918   9.156
 1171POPC   GL218974  33.455  20.022   8.998
 1171POPC   C1A18975  33.781  19.650   8.774
 1171POPC   D2A18976  33.551  19.590   8.364
 1171POPC   C3A18977  33.784  19.706   7.967
 1171POPC   C4A18978  34.006  19.663   7.552
 1171POPC   C1B18979  33.525  20.054   8.598
 1171POPC   C2B18980  33.539  20.105   8.200
 1171POPC   C3B18981  33.559  20.157   7.818
 1171POPC   C4B18982  33.585  19.921   7.465
 1172POPC   NC318983   8.571  21.592   9.321
 1172POPC   PO418984   8.074  21.218   9.545
 1172POPC   GL118985   8.121  21.309   9.121
 1172POPC   GL218986   8.420  21.161   9.051
 1172POPC   C1A18987   8.048  21.293   8.661
 1172POPC   D2A18988   7.874  21.464   8.288
 1172POPC   C3A18989   7.971  21.181   7.966
 1172POPC   C4A18990   8.236  21.451   7.752
 1172POPC   C1B18991   8.542  21.427   8.692
 1172POPC   C2B18992   8.538  21.439   8.248
 1172POPC   C3B18993   8.737  21.508   7.853
 1172POPC   C4B18994   8.523  21.901   7.699
 1173POPC   NC318995  31.117  26.095   9.566
 1173POPC   PO418996  30.486  25.816   9.379
 1173POPC   GL118997  30.856  25.881   9.141
 1173POPC   GL218998  30.939  26.231   9.097
 1173POPC   C1A18999  30.794  25.956   8.690
 1173POPC   D2A19000  30.590  26.297   8.458
 1173POPC   C3A19001  30.690  26.265   8.048
 1173POPC   C4A19002  30.792  25.833   7.922
 1173POPC   C1B19003  31.185  26.270   8.698
 1173POPC   C2B19004  31.128  26.143   8.252
 1173POPC   C3B19005  31.157  26.160   7.779
 1173POPC   C4B19006  31.163  26.311   7.327
 1174POPC   NC319007  25.474  27.652   9.675
 1174POPC   PO419008  24.898  27.253   9.521
 1174POPC   GL119009  25.047  27.208   9.072
 1174POPC   GL219010  25.214  27.469   8.865
 1174POPC   C1A19011  24.783  27.240   8.699
 1174POPC   D2A19012  24.815  27.476   8.335
 1174POPC   C3A19013  25.238  27.460   8.184
 1174POPC   C4A19014  25.326  27.318   7.761
 1174POPC   C1B19015  25.075  27.854   8.645
 1174POPC   C2B19016  24.994  28.007   8.230
 1174POPC   C3B19017  25.107  27.822   7.860
 1174POPC   C4B19018  25.522  27.779   7.687
 1175POPC   NC319019  21.131  24.009   9.376
 1175POPC   PO419020  20.660  23.444   9.553
 1175POPC   GL119021  20.748  23.574   9.114
 1175POPC   GL219022  20.989  23.800   8.947
 1175POPC   C1A19023  20.553  23.649   8.712
 1175POPC   D2A19024  20.670  23.742   8.288
 1175POPC   C3A19025  20.555  23.411   8.017
 1175POPC   C4A19026  20.252  23.302   7.724
 1175POPC   C1B19027  20.772  24.132   8.691
 1175POPC   C2B19028  20.594  24.278   8.292
 1175POPC   C3B19029  20.360  24.031   7.984
 1175POPC   C4B19030  20.561  23.808   7.667
 1176POPC   NC319031  23.878   5.737   9.846
 1176POPC   PO419032  24.346   5.605   9.381
 1176POPC   GL119033  24.614   5.627   9.060
 1176POPC   GL219034  24.765   5.919   9.185
 1176POPC   C1A19035  24.513   5.687   8.660
 1176POPC   D2A19036  24.564   5.628   8.237
 1176POPC   C3A19037  24.172   5.625   7.999
 1176POPC   C4A19038  24.063   5.868   7.649
 1176POPC   C1B19039  24.901   6.018   8.754
 1176POPC   C2B19040  25.058   6.172   8.325
 1176POPC   C3B19041  24.844   6.202   7.898
 1176POPC   C4B19042  24.635   5.831   7.779
 1177POPC   NC319043  29.725  43.001   9.453
 1177POPC   PO419044  30.065  43.462   9.386
 1177POPC   GL119045  29.877  43.236   9.023
 1177POPC   GL219046  29.586  43.373   9.122
 1177POPC   C1A19047  29.895  43.032   8.598
 1177POPC   D2A19048  30.255  42.999   8.281
 1177POPC   C3A19049  30.281  43.166   7.833
 1177POPC   C4A19050  30.296  43.324   7.384
 1177POPC   C1B19051  29.553  43.541   8.708
 1177POPC   C2B19052  29.614  43.343   8.312
 1177POPC   C3B19053  29.813  43.026   8.026
 1177POPC   C4B19054  29.871  43.067   7.532
 1178POPC   NC319055  11.695   8.948   9.385
 1178POPC   PO419056  12.394   9.071   9.515
 1178POPC   GL119057  12.221   9.036   9.116
 1178POPC   GL219058  12.107   8.693   9.165
 1178POPC   C1A19059  11.970   9.169   8.750
 1178POPC   D2A19060  11.827   9.128   8.336
 1178POPC   C3A19061  12.119   9.246   8.012
 1178POPC   C4A19062  12.100   9.223   7.559
 1178POPC   C1B19063  12.038   8.657   8.721
 1178POPC   C2B19064  12.214   8.738   8.286
 1178POPC   C3B19065  12.254   8.785   7.821
 1178POPC   C4B19066  11.968   8.726   7.455
 1179POPC   NC319067   9.948  25.814   9.439
 1179POPC   PO419068   9.387  26.251   9.373
 1179POPC   GL119069   9.649  26.032   9.041
 1179POPC   GL219070   9.709  25.653   9.014
 1179POPC   C1A19071   9.599  25.955   8.585
 1179POPC   D2A19072   9.363  25.707   8.272
 1179POPC   C3A19073   9.515  25.807   7.888
 1179POPC   C4A19074   9.696  26.224   7.903
 1179POPC   C1B19075  10.080  25.874   8.802
 1179POPC   C2B19076  10.259  25.923   8.410
 1179POPC   C3B19077  10.012  25.878   8.074
 1179POPC   C4B19078   9.952  25.826   7.634
 1180POPC   NC319079  22.778  14.612   9.423
 1180POPC   PO419080  23.130  14.070   9.478
 1180POPC   GL119081  23.090  14.311   9.126
 1180POPC   GL219082  22.747  14.286   9.046
 1180POPC   C1A19083  23.169  14.664   8.814
 1180POPC   D2A19084  23.030  14.820   8.399
 1180POPC   C3A19085  23.167  14.545   8.068
 1180POPC   C4A19086  22.916  14.365   7.722
 1180POPC   C1B19087  22.885  14.219   8.657
 1180POPC   C2B19088  22.664  14.196   8.291
 1180POPC   C3B19089  22.786  13.947   7.969
 1180POPC   C4B19090  22.660  13.940   7.547
 1181POPC   NC319091   3.387  39.532   9.407
 1181POPC   PO419092   3.830  39.063   9.569
 1181POPC   GL119093   3.586  39.150   9.145
 1181POPC   GL219094   3.213  39.075   9.179
 1181POPC   C1A19095   3.420  39.432   8.768
 1181POPC   D2A19096   3.189  39.402   8.357
 1181POPC   C3A19097   3.364  39.484   7.985
 1181POPC   C4A19098   3.602  39.335   7.649
 1181POPC   C1B19099   3.349  38.762   8.856
 1181POPC   C2B19100   3.599  38.782   8.469
 1181POPC   C3B19101   3.385  38.985   8.108
 1181POPC   C4B19102   3.148  39.096   7.714
 1182POPC   NC319103  33.469  32.900   9.634
 1182POPC   PO419104  32.858  33.233   9.498
 1182POPC   GL119105  32.965  33.082   9.128
 1182POPC   GL219106  33.226  32.821   9.161
 1182POPC   C1A19107  32.805  33.224   8.735
 1182POPC   D2A19108  33.001  33.310   8.379
 1182POPC   C3A19109  32.867  33.151   8.016
 1182POPC   C4A19110  33.064  33.054   7.629
 1182POPC   C1B19111  32.979  32.753   8.742
 1182POPC   C2B19112  32.748  32.786   8.347
 1182POPC   C3B19113  32.865  32.647   7.910
 1182POPC   C4B19114  32.847  32.567   7.475
 1183POPC   NC319115  38.330   1.942   9.513
 1183POPC   PO419116  38.753   1.513   9.463
 1183POPC   GL119117  38.558   1.795   9.086
 1183POPC   GL219118  38.262   2.044   9.022
 1183POPC   C1A19119  38.572   1.884   8.631
 1183POPC   D2A19120  38.831   1.881   8.289
 1183POPC   C3A19121  38.685   1.809   7.883
 1183POPC   C4A19122  38.670   2.144   7.594
 1183POPC   C1B19123  38.107   1.728   8.775
 1183POPC   C2B19124  38.234   1.631   8.372
 1183POPC   C3B19125  38.262   1.940   8.111
 1183POPC   C4B19126  38.205   1.986   7.689
 1184POPC   NC319127  14.097  28.250   9.236
 1184POPC   PO419128  14.777  28.070   9.622
 1184POPC   GL119129  14.657  28.017   9.067
 1184POPC   GL219130  14.411  28.339   8.872
 1184POPC   C1A19131  14.821  28.208   8.669
 1184POPC   D2A19132  14.541  28.259   8.354
 1184POPC   C3A19133  14.700  28.331   7.951
 1184POPC   C4A19134  14.511  28.278   7.558
 1184POPC   C1B19135  14.608  28.702   8.640
 1184POPC   C2B19136  14.530  28.744   8.199
 1184POPC   C3B19137  14.271  28.616   7.848
 1184POPC   C4B19138  14.623  28.773   7.632
 1185POPC   NC319139   3.664  20.125   9.549
 1185POPC   PO419140   3.455  19.439   9.365
 1185POPC   GL119141   3.459  19.617   9.020
 1185POPC   GL219142   3.427  19.900   9.150
 1185POPC   C1A19143   3.614  19.718   8.645
 1185POPC   D2A19144   3.568  19.533   8.265
 1185POPC   C3A19145   3.517  19.861   8.001
 1185POPC   C4A19146   3.191  19.911   7.740
 1185POPC   C1B19147   3.146  20.003   8.844
 1185POPC   C2B19148   3.297  20.072   8.451
 1185POPC   C3B19149   3.270  20.293   8.084
 1185POPC   C4B19150   3.551  20.294   7.721
 1186POPC   NC319151   5.449  25.413   9.484
 1186POPC   PO419152   4.837  25.145   9.540
 1186POPC   GL119153   4.941  25.324   9.177
 1186POPC   GL219154   5.256  25.132   9.088
 1186POPC   C1A19155   4.841  25.202   8.759
 1186POPC   D2A19156   5.122  25.082   8.438
 1186POPC   C3A19157   4.985  25.146   8.020
 1186POPC   C4A19158   5.012  25.395   7.660
 1186POPC   C1B19159   5.252  25.529   8.826
 1186POPC   C2B19160   5.072  25.603   8.426
 1186POPC   C3B19161   5.235  25.621   8.037
 1186POPC   C4B19162   5.467  25.619   7.678
 1187POPC   NC319163  44.171  32.610   9.848
 1187POPC   PO419164  43.591  32.793   9.610
 1187POPC   GL119165  43.666  32.870   9.175
 1187POPC   GL219166  43.403  33.072   9.138
 1187POPC   C1A19167  43.951  32.811   8.814
 1187POPC   D2A19168  44.077  33.084   8.473
 1187POPC   C3A19169  44.142  32.861   8.086
 1187POPC   C4A19170  43.783  32.709   7.854
 1187POPC   C1B19171  43.668  33.239   8.801
 1187POPC   C2B19172  43.527  33.303   8.400
 1187POPC   C3B19173  43.397  33.068   8.051
 1187POPC   C4B19174  43.543  33.139   7.658
 1188POPC   NC319175  40.719   0.892   9.435
 1188POPC   PO419176  40.739   1.622   9.420
 1188POPC   GL119177  40.893   1.279   9.135
 1188POPC   GL219178  41.251   1.190   9.175
 1188POPC   C1A19179  40.692   1.084   8.759
 1188POPC   D2A19180  40.533   1.276   8.380
 1188POPC   C3A19181  40.500   0.990   8.059
 1188POPC   C4A19182  40.557   0.969   7.623
 1188POPC   C1B19183  41.208   1.173   8.704
 1188POPC   C2B19184  41.057   1.183   8.238
 1188POPC   C3B19185  40.863   1.350   7.852
 1188POPC   C4B19186  40.832   1.779   7.666
 1189POPC   NC319187  32.623  16.139   9.442
 1189POPC   PO419188  33.257  16.101   9.513
 1189POPC   GL119189  33.035  15.932   9.188
 1189POPC   GL219190  32.843  15.645   9.194
 1189POPC   C1A19191  32.937  15.996   8.764
 1189POPC   D2A19192  33.082  16.330   8.487
 1189POPC   C3A19193  33.003  16.118   8.114
 1189POPC   C4A19194  32.746  16.007   7.727
 1189POPC   C1B19195  33.255  15.554   8.958
 1189POPC   C2B19196  33.244  15.551   8.520
 1189POPC   C3B19197  32.980  15.617   8.156
 1189POPC   C4B19198  33.061  15.613   7.706
 1190POPC   NC319199  22.664  21.426   9.548
 1190POPC   PO419200  21.957  21.264   9.529
 1190POPC   GL119201  22.050  21.476   9.178
 1190POPC   GL219202  22.361  21.339   9.138
 1190POPC   C1A19203  21.926  21.316   8.784
 1190POPC   D2A19204  22.054  21.399   8.380
 1190POPC   C3A19205  21.785  21.337   8.035
 1190POPC   C4A19206  21.920  21.537   7.674
 1190POPC   C1B19207  22.477  21.435   8.723
 1190POPC   C2B19208  22.567  21.276   8.315
 1190POPC   C3B19209  22.464  21.488   7.919
 1190POPC   C4B19210  22.664  21.776   7.642
 1191POPC   NC319211  29.225  35.020   9.694
 1191POPC   PO419212  29.050  35.566   9.452
 1191POPC   GL119213  29.216  35.394   9.109
 1191POPC   GL219214  29.304  35.107   9.202
 1191POPC   C1A19215  29.250  35.528   8.698
 1191POPC   D2A19216  28.937  35.440   8.387
 1191POPC   C3A19217  29.082  35.470   7.975
 1191POPC   C4A19218  29.130  35.868   7.744
 1191POPC   C1B19219  28.999  35.078   8.785
 1191POPC   C2B19220  29.063  34.929   8.356
 1191POPC   C3B19221  29.303  34.998   7.959
 1191POPC   C4B19222  29.210  34.951   7.553
 1192POPC   NC319223  38.777  40.893   9.486
 1192POPC   PO419224  38.126  40.923   9.403
 1192POPC   GL119225  38.405  40.647   9.177
 1192POPC   GL219226  38.567  40.925   9.024
 1192POPC   C1A19227  38.481  40.527   8.726
 1192POPC   D2A19228  38.463  40.819   8.361
 1192POPC   C3A19229  38.430  40.625   7.943
 1192POPC   C4A19230  38.062  40.511   7.753
 1192POPC   C1B19231  38.869  40.901   8.681
 1192POPC   C2B19232  38.984  41.136   8.346
 1192POPC   C3B19233  38.836  40.928   8.021
 1192POPC   C4B19234  38.681  41.039   7.649
 1193POPC   NC319235  24.049  42.061   9.464
 1193POPC   PO419236  24.525  42.498   9.434
 1193POPC   GL119237  24.254  42.376   9.066
 1193POPC   GL219238  24.233  42.009   9.000
 1193POPC   C1A19239  24.489  42.319   8.674
 1193POPC   D2A19240  24.782  42.024   8.525
 1193POPC   C3A19241  24.807  42.070   8.087
 1193POPC   C4A19242  24.585  42.212   7.739
 1193POPC   C1B19243  24.034  42.121   8.592
 1193POPC   C2B19244  24.228  42.245   8.200
 1193POPC   C3B19245  24.190  42.495   7.844
 1193POPC   C4B19246  24.063  42.434   7.397
 1194POPC   NC319247  44.258  44.135   9.473
 1194POPC   PO419248  43.751  43.767   9.574
 1194POPC   GL119249  43.822  44.001   9.197
 1194POPC   GL219250  44.143  43.802   9.094
 1194POPC   C1A19251  43.831  43.953   8.739
 1194POPC   D2A19252  44.054  43.683   8.469
 1194POPC   C3A19253  43.864  43.807   8.095
 1194POPC   C4A19254  43.799  43.693   7.697
 1194POPC   C1B19255  44.327  44.076   8.736
 1194POPC   C2B19256  44.217  44.142   8.288
 1194POPC   C3B19257  44.152  44.118   7.810
 1194POPC   C4B19258  44.336  44.069   7.393
 1195POPC   NC319259  27.374  32.458   9.442
 1195POPC   PO419260  26.794  32.073   9.531
 1195POPC   GL119261  26.731  32.250   9.098
 1195POPC   GL219262  27.089  32.255   9.074
 1195POPC   C1A19263  26.828  32.244   8.640
 1195POPC   D2A19264  27.046  31.988   8.341
 1195POPC   C3A19265  26.855  31.924   7.952
 1195POPC   C4A19266  26.551  32.087   7.680
 1195POPC   C1B19267  27.244  32.559   8.758
 1195POPC   C2B19268  27.091  32.607   8.350
 1195POPC   C3B19269  26.784  32.430   8.073
 1195POPC   C4B19270  26.846  32.494   7.627
 1196POPC   NC319271   4.409  37.359   9.340
 1196POPC   PO419272   4.415  36.717   9.546
 1196POPC   GL119273   4.290  36.774   9.119
 1196POPC   GL219274   4.089  37.056   9.060
 1196POPC   C1A19275   4.359  36.650   8.702
 1196POPC   D2A19276   4.497  36.739   8.281
 1196POPC   C3A19277   4.245  36.723   7.908
 1196POPC   C4A19278   4.243  36.750   7.441
 1196POPC   C1B19279   4.340  37.164   8.724
 1196POPC   C2B19280   4.527  37.357   8.413
 1196POPC   C3B19281   4.355  37.191   8.104
 1196POPC   C4B19282   4.428  37.142   7.713
 1197POPC   NC319283  22.553  28.007   9.564
 1197POPC   PO419284  22.676  28.741   9.517
 1197POPC   GL119285  22.758  28.392   9.263
 1197POPC   GL219286  22.476  28.492   9.095
 1197POPC   C1A19287  23.045  28.270   8.920
 1197POPC   D2A19288  22.904  28.160   8.507
 1197POPC   C3A19289  22.981  28.071   8.086
 1197POPC   C4A19290  23.072  28.207   7.670
 1197POPC   C1B19291  22.686  28.599   8.723
 1197POPC   C2B19292  22.789  28.588   8.287
 1197POPC   C3B19293  23.060  28.611   7.970
 1197POPC   C4B19294  22.740  28.632   7.698
 1198POPC   NC319295   4.609  22.261   9.600
 1198POPC   PO419296   3.947  22.058   9.717
 1198POPC   GL119297   3.990  22.231   9.274
 1198POPC   GL219298   4.341  22.367   9.164
 1198POPC   C1A19299   4.024  22.188   8.808
 1198POPC   D2A19300   4.186  22.311   8.401
 1198POPC   C3A19301   4.159  22.126   7.981
 1198POPC   C4A19302   4.016  22.306   7.586
 1198POPC   C1B19303   4.530  22.510   8.738
 1198POPC   C2B19304   4.610  22.537   8.259
 1198POPC   C3B19305   4.329  22.602   7.880
 1198POPC   C4B19306   4.396  22.582   7.374
 1199POPC   NC319307   0.315  13.125   9.798
 1199POPC   PO419308   0.364  13.709   9.521
 1199POPC   GL119309   0.468  13.473   9.167
 1199POPC   GL219310   0.196  13.263   9.076
 1199POPC   C1A19311   0.500  13.618   8.741
 1199POPC   D2A19312   0.613  13.862   8.398
 1199POPC   C3A19313   0.641  13.679   8.010
 1199POPC   C4A19314   0.363  13.812   7.697
 1199POPC   C1B19315   0.005  13.464   8.687
 1199POPC   C2B19316   0.171  13.587   8.280
 1199POPC   C3B19317   0.293  13.300   7.938
 1199POPC   C4B19318   0.200  13.224   7.513
 1200POPC   NC319319  20.297  15.959   9.820
 1200POPC   PO419320  20.684  16.143   9.332
 1200POPC   GL119321  20.826  16.013   8.998
 1200POPC   GL219322  20.848  15.686   8.952
 1200POPC   C1A19323  20.779  16.128   8.585
 1200POPC   D2A19324  20.448  16.144   8.304
 1200POPC   C3A19325  20.595  16.060   7.895
 1200POPC   C4A19326  20.309  15.865   7.575
 1200POPC   C1B19327  20.409  15.814   8.745
 1200POPC   C2B19328  20.287  15.658   8.370
 1200POPC   C3B19329  20.454  15.585   7.994
 1200POPC   C4B19330  20.761  15.645   7.668
 1201POPC   NC319331  26.362  36.415   9.564
 1201POPC   PO419332  26.148  35.793   9.359
 1201POPC   GL119333  26.235  36.066   9.042
 1201POPC   GL219334  26.082  36.382   9.063
 1201POPC   C1A19335  26.196  36.080   8.607
 1201POPC   D2A19336  26.157  36.316   8.232
 1201POPC   C3A19337  25.871  36.088   7.967
 1201POPC   C4A19338  25.819  35.652   7.862
 1201POPC   C1B19339  25.795  36.398   8.653
 1201POPC   C2B19340  25.708  36.625   8.262
 1201POPC   C3B19341  25.771  36.567   7.817
 1201POPC   C4B19342  25.852  36.476   7.411
 1202POPC   NC319343  23.844  11.772   9.492
 1202POPC   PO419344  24.012  12.459   9.410
 1202POPC   GL119345  23.951  12.141   9.112
 1202POPC   GL219346  23.647  12.018   9.096
 1202POPC   C1A19347  24.033  11.946   8.708
 1202POPC   D2A19348  23.826  11.843   8.298
 1202POPC   C3A19349  23.924  12.096   7.952
 1202POPC   C4A19350  23.669  12.364   7.737
 1202POPC   C1B19351  23.514  11.855   8.730
 1202POPC   C2B19352  23.275  11.907   8.332
 1202POPC   C3B19353  23.430  11.893   7.923
 1202POPC   C4B19354  23.751  11.639   7.735
 1203POPC   NC319355  38.778  15.677   9.209
 1203POPC   PO419356  39.082  16.018   9.653
 1203POPC   GL119357  39.141  16.028   9.157
 1203POPC   GL219358  38.945  16.141   8.865
 1203POPC   C1A19359  39.352  15.853   8.758
 1203POPC   D2A19360  39.360  15.652   8.353
 1203POPC   C3A19361  39.508  15.923   8.047
 1203POPC   C4A19362  39.359  15.946   7.662
 1203POPC   C1B19363  38.856  15.800   8.594
 1203POPC   C2B19364  38.711  15.644   8.245
 1203POPC   C3B19365  39.023  15.633   7.939
 1203POPC   C4B19366  38.847  15.883   7.602
 1204POPC   NC319367  42.439  11.470   9.381
 1204POPC   PO419368  43.123  11.336   9.508
 1204POPC   GL119369  43.349  11.368   9.112
 1204POPC   GL219370  43.331  11.012   8.993
 1204POPC   C1A19371  43.294  11.478   8.681
 1204POPC   D2A19372  43.361  11.266   8.278
 1204POPC   C3A19373  43.055  11.446   7.937
 1204POPC   C4A19374  42.826  11.196   7.636
 1204POPC   C1B19375  42.982  11.040   8.666
 1204POPC   C2B19376  42.909  11.014   8.201
 1204POPC   C3B19377  43.200  10.957   7.870
 1204POPC   C4B19378  43.197  10.874   7.424
 1205POPC   NC319379  19.133  20.417   9.580
 1205POPC   PO419380  19.046  21.094   9.609
 1205POPC   GL119381  18.981  20.770   9.229
 1205POPC   GL219382  19.289  20.621   9.114
 1205POPC   C1A19383  18.801  20.648   8.789
 1205POPC   D2A19384  18.666  20.741   8.334
 1205POPC   C3A19385  18.909  20.701   7.917
 1205POPC   C4A19386  18.838  20.740   7.434
 1205POPC   C1B19387  19.281  20.541   8.665
 1205POPC   C2B19388  18.973  20.321   8.379
 1205POPC   C3B19389  19.059  20.218   7.956
 1205POPC   C4B19390  19.247  20.454   7.592
 1206POPC   NC319391  10.730   4.466   9.636
 1206POPC   PO419392  10.354   4.012   9.373
 1206POPC   GL119393  10.358   4.474   9.245
 1206POPC   GL219394  10.730   4.462   9.110
 1206POPC   C1A19395  10.387   4.723   8.859
 1206POPC   D2A19396  10.717   4.637   8.539
 1206POPC   C3A19397  10.522   4.510   8.146
 1206POPC   C4A19398  10.600   4.656   7.733
 1206POPC   C1B19399  10.435   4.238   8.778
 1206POPC   C2B19400  10.319   4.078   8.385
 1206POPC   C3B19401  10.161   4.171   8.002
 1206POPC   C4B19402  10.287   4.253   7.616
 1207POPC   NC319403  29.840  25.346   9.458
 1207POPC   PO419404  30.139  24.861   9.271
 1207POPC   GL119405  29.751  25.046   9.047
 1207POPC   GL219406  29.679  25.431   9.004
 1207POPC   C1A19407  29.672  25.127   8.613
 1207POPC   D2A19408  29.946  25.066   8.328
 1207POPC   C3A19409  29.882  25.110   7.929
 1207POPC   C4A19410  30.014  25.156   7.507
 1207POPC   C1B19411  29.849  25.636   8.650
 1207POPC   C2B19412  29.922  25.556   8.270
 1207POPC   C3B19413  29.806  25.604   7.866
 1207POPC   C4B19414  29.990  25.741   7.533
 1208POPC   NC319415   4.582  43.138   9.459
 1208POPC   PO419416   5.146  43.127   9.711
 1208POPC   GL119417   5.066  43.334   9.298
 1208POPC   GL219418   4.944  43.055   9.115
 1208POPC   C1A19419   5.148  43.451   8.846
 1208POPC   D2A19420   5.295  43.300   8.434
 1208POPC   C3A19421   5.223  43.428   8.016
 1208POPC   C4A19422   5.525  43.383   7.674
 1208POPC   C1B19423   4.863  42.760   8.793
 1208POPC   C2B19424   4.949  42.615   8.380
 1208POPC   C3B19425   5.069  42.922   8.091
 1208POPC   C4B19426   5.170  42.990   7.716
 1209POPC   NC319427  18.983   9.689   9.555
 1209POPC   PO419428  18.396   9.775   9.317
 1209POPC   GL119429  18.812   9.870   9.130
 1209POPC   GL219430  18.872   9.509   9.049
 1209POPC   C1A19431  19.152   9.883   8.825
 1209POPC   D2A19432  19.049   9.938   8.400
 1209POPC   C3A19433  19.273   9.710   8.087
 1209POPC   C4A19434  19.185   9.806   7.676
 1209POPC   C1B19435  18.643   9.748   8.691
 1209POPC   C2B19436  18.522   9.834   8.299
 1209POPC   C3B19437  18.767   9.703   7.989
 1209POPC   C4B19438  18.778   9.494   7.585
 1210POPC   NC319439  22.157  20.840   9.576
 1210POPC   PO419440  22.410  20.214   9.587
 1210POPC   GL119441  22.263  20.502   9.218
 1210POPC   GL219442  22.475  20.814   9.181
 1210POPC   C1A19443  22.004  20.586   8.842
 1210POPC   D2A19444  21.847  20.363   8.463
 1210POPC   C3A19445  21.922  20.541   8.066
 1210POPC   C4A19446  22.262  20.592   7.791
 1210POPC   C1B19447  22.334  20.956   8.782
 1210POPC   C2B19448  22.111  20.882   8.413
 1210POPC   C3B19449  22.196  21.046   8.021
 1210POPC   C4B19450  22.254  21.156   7.582
 1211POPC   NC319451  11.830  31.140   9.398
 1211POPC   PO419452  12.126  31.835   9.461
 1211POPC   GL119453  12.046  31.551   9.137
 1211POPC   GL219454  12.297  31.258   9.094
 1211POPC   C1A19455  11.952  31.401   8.729
 1211POPC   D2A19456  12.233  31.318   8.375
 1211POPC   C3A19457  12.065  31.396   7.937
 1211POPC   C4A19458  11.956  31.563   7.517
 1211POPC   C1B19459  12.471  31.592   8.828
 1211POPC   C2B19460  12.638  31.675   8.441
 1211POPC   C3B19461  12.463  31.673   8.085
 1211POPC   C4B19462  12.448  31.649   7.700
 1212POPC   NC319463  34.251  11.882   9.317
 1212POPC   PO419464  34.910  11.860   9.431
 1212POPC   GL119465  34.712  11.972   9.071
 1212POPC   GL219466  34.859  12.279   9.101
 1212POPC   C1A19467  34.411  11.843   8.709
 1212POPC   D2A19468  34.154  11.870   8.348
 1212POPC   C3A19469  34.375  11.808   8.014
 1212POPC   C4A19470  34.601  12.051   7.758
 1212POPC   C1B19471  34.684  12.278   8.673
 1212POPC   C2B19472  34.753  12.161   8.250
 1212POPC   C3B19473  35.011  12.325   7.893
 1212POPC   C4B19474  34.911  12.381   7.447
 1213POPC   NC319475  27.401  28.672   9.527
 1213POPC   PO419476  27.525  27.969   9.502
 1213POPC   GL119477  27.462  28.262   9.178
 1213POPC   GL219478  27.776  28.453   9.189
 1213POPC   C1A19479  27.468  28.495   8.780
 1213POPC   D2A19480  27.629  28.440   8.384
 1213POPC   C3A19481  27.416  28.611   8.035
 1213POPC   C4A19482  27.656  28.604   7.682
 1213POPC   C1B19483  27.808  28.111   8.816
 1213POPC   C2B19484  27.815  27.954   8.364
 1213POPC   C3B19485  27.656  28.132   7.946
 1213POPC   C4B19486  27.659  28.109   7.488
 1214POPC   NC319487  44.969   1.506   9.527
 1214POPC   PO419488  44.556   0.983   9.499
 1214POPC   GL119489  44.707   1.218   9.175
 1214POPC   GL219490  44.435   1.466   9.249
 1214POPC   C1A19491  44.883   1.203   8.755
 1214POPC   D2A19492   0.006   0.939   8.373
 1214POPC   C3A19493  44.697   0.942   8.045
 1214POPC   C4A19494  44.679   1.143   7.662
 1214POPC   C1B19495  44.432   1.454   8.808
 1214POPC   C2B19496  44.529   1.295   8.398
 1214POPC   C3B19497  44.487   1.457   7.997
 1214POPC   C4B19498  44.335   1.529   7.561
 1215POPC   NC319499   4.915  17.257   9.557
 1215POPC   PO419500   5.526  17.728   9.507
 1215POPC   GL119501   5.215  17.587   9.240
 1215POPC   GL219502   5.270  17.242   9.181
 1215POPC   C1A19503   4.981  17.558   8.854
 1215POPC   D2A19504   5.113  17.485   8.432
 1215POPC   C3A19505   4.950  17.725   8.095
 1215POPC   C4A19506   4.850  17.501   7.727
 1215POPC   C1B19507   5.258  17.099   8.788
 1215POPC   C2B19508   5.414  17.063   8.369
 1215POPC   C3B19509   5.179  17.171   8.016
 1215POPC   C4B19510   5.289  17.184   7.589
 1216POPC   NC319511  41.083  28.823   9.409
 1216POPC   PO419512  40.850  28.197   9.393
 1216POPC   GL119513  40.699  28.282   9.025
 1216POPC   GL219514  40.761  28.637   9.004
 1216POPC   C1A19515  40.833  28.281   8.611
 1216POPC   D2A19516  40.827  28.580   8.294
 1216POPC   C3A19517  40.729  28.377   7.911
 1216POPC   C4A19518  40.910  27.996   7.790
 1216POPC   C1B19519  41.080  28.819   8.724
 1216POPC   C2B19520  41.136  29.002   8.314
 1216POPC   C3B19521  40.936  28.924   7.916
 1216POPC   C4B19522  40.782  28.746   7.545
 1217POPC   NC319523  30.155  11.327   9.383
 1217POPC   PO419524  29.446  11.220   9.501
 1217POPC   GL119525  29.674  11.401   9.146
 1217POPC   GL219526  29.838  11.134   9.023
 1217POPC   C1A19527  29.750  11.561   8.709
 1217POPC   D2A19528  29.888  11.449   8.285
 1217POPC   C3A19529  29.841  11.674   7.893
 1217POPC   C4A19530  30.006  11.500   7.512
 1217POPC   C1B19531  29.925  11.052   8.605
 1217POPC   C2B19532  29.762  10.940   8.219
 1217POPC   C3B19533  29.895  11.076   7.818
 1217POPC   C4B19534  30.187  10.882   7.538
 1218POPC   NC319535  21.163  37.254   9.472
 1218POPC   PO419536  21.716  37.673   9.554
 1218POPC   GL119537  21.436  37.656   9.171
 1218POPC   GL219538  21.133  37.859   9.210
 1218POPC   C1A19539  21.430  37.494   8.727
 1218POPC   D2A19540  21.447  37.332   8.300
 1218POPC   C3A19541  21.547  37.587   7.997
 1218POPC   C4A19542  21.374  37.803   7.630
 1218POPC   C1B19543  21.305  37.983   8.797
 1218POPC   C2B19544  21.237  37.849   8.380
 1218POPC   C3B19545  21.054  37.738   8.027
 1218POPC   C4B19546  20.952  37.395   7.799
 1219POPC   NC319547  34.703  31.640   9.566
 1219POPC   PO419548  34.261  31.090   9.502
 1219POPC   GL119549  34.573  31.265   9.194
 1219POPC   GL219550  34.552  31.617   9.088
 1219POPC   C1A19551  34.795  31.167   8.810
 1219POPC   D2A19552  34.848  31.339   8.369
 1219POPC   C3A19553  34.634  31.353   7.957
 1219POPC   C4A19554  34.241  31.345   7.719
 1219POPC   C1B19555  34.459  31.515   8.682
 1219POPC   C2B19556  34.254  31.433   8.303
 1219POPC   C3B19557  34.309  31.764   8.025
 1219POPC   C4B19558  34.668  31.843   7.779
 1220POPC   NC319559  11.708  11.567   9.483
 1220POPC   PO419560  11.017  11.497   9.630
 1220POPC   GL119561  11.122  11.501   9.186
 1220POPC   GL219562  11.371  11.325   9.177
 1220POPC   C1A19563  11.050  11.665   8.759
 1220POPC   D2A19564  11.051  11.505   8.323
 1220POPC   C3A19565  11.454  11.560   8.080
 1220POPC   C4A19566  11.488  11.409   7.660
 1220POPC   C1B19567  11.401  11.283   8.760
 1220POPC   C2B19568  11.519  11.152   8.367
 1220POPC   C3B19569  11.259  11.091   8.034
 1220POPC   C4B19570  11.199  10.959   7.639
 1221POPC   NC319571  28.314   2.366   9.856
 1221POPC   PO419572  28.320   1.720   9.570
 1221POPC   GL119573  28.322   1.916   9.200
 1221POPC   GL219574  28.293   2.277   9.269
 1221POPC   C1A19575  28.387   1.786   8.801
 1221POPC   D2A19576  28.503   1.917   8.435
 1221POPC   C3A19577  28.255   1.887   8.074
 1221POPC   C4A19578  28.296   2.054   7.657
 1221POPC   C1B19579  28.526   2.282   8.858
 1221POPC   C2B19580  28.669   2.383   8.425
 1221POPC   C3B19581  28.517   2.351   8.012
 1221POPC   C4B19582  28.282   2.563   7.691
 1222POPC   NC319583   8.124  18.506   9.602
 1222POPC   PO419584   8.589  17.992   9.524
 1222POPC   GL119585   8.338  18.216   9.245
 1222POPC   GL219586   8.401  18.556   9.102
 1222POPC   C1A19587   8.153  18.180   8.871
 1222POPC   D2A19588   8.018  18.232   8.460
 1222POPC   C3A19589   8.222  18.084   8.090
 1222POPC   C4A19590   8.060  18.111   7.658
 1222POPC   C1B19591   8.242  18.655   8.665
 1222POPC   C2B19592   8.254  18.589   8.202
 1222POPC   C3B19593   8.142  18.588   7.793
 1222POPC   C4B19594   8.288  18.477   7.364
 1223POPC   NC319595  29.181  37.545   9.570
 1223POPC   PO419596  29.072  36.867   9.470
 1223POPC   GL119597  29.239  37.087   9.134
 1223POPC   GL219598  28.928  37.123   9.030
 1223POPC   C1A19599  29.348  37.083   8.676
 1223POPC   D2A19600  29.339  37.187   8.280
 1223POPC   C3A19601  29.302  36.837   7.954
 1223POPC   C4A19602  29.281  37.210   7.762
 1223POPC   C1B19603  29.026  36.725   8.791
 1223POPC   C2B19604  28.974  36.846   8.353
 1223POPC   C3B19605  28.833  37.013   7.956
 1223POPC   C4B19606  28.894  36.665   7.664
 1224POPC   NC319607  32.481  22.048   9.505
 1224POPC   PO419608  31.850  22.296   9.489
 1224POPC   GL119609  32.069  21.952   9.145
 1224POPC   GL219610  32.439  21.760   9.088
 1224POPC   C1A19611  31.998  21.986   8.686
 1224POPC   D2A19612  32.078  22.427   8.525
 1224POPC   C3A19613  32.183  22.443   8.091
 1224POPC   C4A19614  32.170  22.095   7.843
 1224POPC   C1B19615  32.454  22.104   8.835
 1224POPC   C2B19616  32.523  22.169   8.406
 1224POPC   C3B19617  32.666  22.230   8.010
 1224POPC   C4B19618  32.629  22.555   7.766
 1225POPC   NC319619   2.544  27.016   9.445
 1225POPC   PO419620   3.079  26.610   9.522
 1225POPC   GL119621   2.809  26.648   9.188
 1225POPC   GL219622   3.085  26.570   9.005
 1225POPC   C1A19623   2.717  26.848   8.776
 1225POPC   D2A19624   2.886  26.804   8.354
 1225POPC   C3A19625   2.692  27.091   8.051
 1225POPC   C4A19626   2.427  27.009   7.701
 1225POPC   C1B19627   3.197  26.990   8.877
 1225POPC   C2B19628   3.300  27.111   8.476
 1225POPC   C3B19629   3.229  27.102   8.057
 1225POPC   C4B19630   3.088  26.837   7.763
 1226POPC   NC319631  44.571  21.868   9.514
 1226POPC   PO419632  44.699  22.556   9.524
 1226POPC   GL119633  44.481  22.302   9.204
 1226POPC   GL219634  44.761  22.064   9.082
 1226POPC   C1A19635  44.500  22.341   8.749
 1226POPC   D2A19636  44.673  22.096   8.391
 1226POPC   C3A19637  44.604  22.283   7.979
 1226POPC   C4A19638  44.578  22.179   7.540
 1226POPC   C1B19639   0.071  21.821   8.829
 1226POPC   C2B19640   0.160  21.907   8.408
 1226POPC   C3B19641   0.053  22.000   7.990
 1226POPC   C4B19642   0.010  21.825   7.589
 1227POPC   NC319643  20.296  39.486   9.466
 1227POPC   PO419644  20.872  39.153   9.585
 1227POPC   GL119645  20.659  39.283   9.207
 1227POPC   GL219646  20.572  38.973   9.050
 1227POPC   C1A19647  20.764  39.401   8.804
 1227POPC   D2A19648  20.907  39.500   8.391
 1227POPC   C3A19649  20.750  39.156   8.145
 1227POPC   C4A19650  20.430  39.210   7.868
 1227POPC   C1B19651  20.415  39.051   8.628
 1227POPC   C2B19652  20.263  38.852   8.239
 1227POPC   C3B19653  20.280  38.756   7.790
 1227POPC   C4B19654  20.270  38.948   7.382
 1228POPC   NC319655  32.611   3.232   9.860
 1228POPC   PO419656  33.141   3.559   9.536
 1228POPC   GL119657  33.177   3.278   9.186
 1228POPC   GL219658  32.833   3.307   9.099
 1228POPC   C1A19659  33.187   3.362   8.754
 1228POPC   D2A19660  32.894   3.414   8.451
 1228POPC   C3A19661  33.132   3.376   8.094
 1228POPC   C4A19662  32.952   3.413   7.723
 1228POPC   C1B19663  32.828   3.734   8.869
 1228POPC   C2B19664  32.562   3.839   8.488
 1228POPC   C3B19665  32.714   3.745   8.059
 1228POPC   C4B19666  33.154   3.864   7.875
 1229POPC   NC319667  35.589  34.197   9.259
 1229POPC   PO419668  35.051  33.819   9.401
 1229POPC   GL119669  35.320  33.761   9.102
 1229POPC   GL219670  35.637  33.611   9.239
 1229POPC   C1A19671  35.246  33.952   8.695
 1229POPC   D2A19672  34.894  34.050   8.426
 1229POPC   C3A19673  35.064  33.928   8.063
 1229POPC   C4A19674  35.480  34.021   7.955
 1229POPC   C1B19675  35.640  33.590   8.770
 1229POPC   C2B19676  35.404  33.566   8.363
 1229POPC   C3B19677  35.324  33.479   7.936
 1229POPC   C4B19678  35.111  33.238   7.629
 1230POPC   NC319679  24.331  37.973   9.603
 1230POPC   PO419680  24.789  37.457   9.615
 1230POPC   GL119681  24.619  37.699   9.269
 1230POPC   GL219682  24.259  37.601   9.217
 1230POPC   C1A19683  24.620  37.827   8.830
 1230POPC   D2A19684  24.579  37.623   8.428
 1230POPC   C3A19685  24.552  37.892   8.097
 1230POPC   C4A19686  24.558  37.763   7.707
 1230POPC   C1B19687  24.144  37.937   8.953
 1230POPC   C2B19688  24.194  37.935   8.526
 1230POPC   C3B19689  24.060  37.980   8.130
 1230POPC   C4B19690  23.942  37.963   7.728
 1231POPC   NC319691   7.173  18.779   9.529
 1231POPC   PO419692   7.068  19.418   9.460
 1231POPC   GL119693   7.380  19.276   9.119
 1231POPC   GL219694   7.543  18.948   9.115
 1231POPC   C1A19695   7.323  19.090   8.675
 1231POPC   D2A19696   7.232  19.387   8.341
 1231POPC   C3A19697   7.305  19.263   7.920
 1231POPC   C4A19698   7.000  18.937   7.824
 1231POPC   C1B19699   7.725  18.701   8.730
 1231POPC   C2B19700   7.733  18.619   8.286
 1231POPC   C3B19701   7.725  18.891   7.943
 1231POPC   C4B19702   7.825  18.860   7.502
 1232POPC   NC319703  44.422  11.812   9.720
 1232POPC   PO419704  44.899  11.396   9.382
 1232POPC   GL119705  44.584  11.483   9.031
 1232POPC   GL219706  44.350  11.783   9.096
 1232POPC   C1A19707  44.622  11.383   8.601
 1232POPC   D2A19708  44.435  11.168   8.248
 1232POPC   C3A19709  44.821  11.147   8.030
 1232POPC   C4A19710  44.964  11.286   7.663
 1232POPC   C1B19711  44.183  11.618   8.702
 1232POPC   C2B19712  44.365  11.698   8.291
 1232POPC   C3B19713  44.685  11.651   7.976
 1232POPC   C4B19714  44.591  11.637   7.540
 1233POPC   NC319715  17.459   0.361   9.744
 1233POPC   PO419716  16.871   0.563   9.405
 1233POPC   GL119717  16.638   0.559   9.067
 1233POPC   GL219718  16.774   0.254   8.987
 1233POPC   C1A19719  16.664   0.598   8.627
 1233POPC   D2A19720  16.370   0.608   8.309
 1233POPC   C3A19721  16.451   0.453   7.928
 1233POPC   C4A19722  16.759   0.466   7.674
 1233POPC   C1B19723  16.818   0.092   8.606
 1233POPC   C2B19724  16.647   0.081   8.216
 1233POPC   C3B19725  16.705  44.961   7.804
 1233POPC   C4B19726  16.896   0.002   7.414
 1234POPC   NC319727   6.902  27.214   9.730
 1234POPC   PO419728   7.352  27.625   9.356
 1234POPC   GL119729   7.427  27.544   8.951
 1234POPC   GL219730   7.076  27.465   8.910
 1234POPC   C1A19731   7.680  27.752   8.660
 1234POPC   D2A19732   7.696  27.828   8.245
 1234POPC   C3A19733   7.330  27.641   8.098
 1234POPC   C4A19734   7.459  27.485   7.730
 1234POPC   C1B19735   7.167  27.345   8.513
 1234POPC   C2B19736   6.913  27.231   8.172
 1234POPC   C3B19737   6.959  27.404   7.763
 1234POPC   C4B19738   7.116  27.516   7.352
 1235POPC   NC319739   7.381  19.756   9.480
 1235POPC   PO419740   7.990  19.582   9.274
 1235POPC   GL119741   7.645  19.788   9.048
 1235POPC   GL219742   7.433  20.126   9.110
 1235POPC   C1A19743   7.659  20.021   8.683
 1235POPC   D2A19744   7.530  19.826   8.341
 1235POPC   C3A19745   7.629  19.787   7.921
 1235POPC   C4A19746   7.372  19.664   7.540
 1235POPC   C1B19747   7.105  19.931   8.906
 1235POPC   C2B19748   7.034  19.840   8.496
 1235POPC   C3B19749   7.118  19.800   8.051
 1235POPC   C4B19750   7.032  20.032   7.710
 1236POPC   NC319751   0.444   2.299   9.908
 1236POPC   PO419752   0.411   2.815   9.464
 1236POPC   GL119753   0.458   2.770   9.091
 1236POPC   GL219754   0.712   2.941   8.977
 1236POPC   C1A19755   0.505   2.563   8.704
 1236POPC   D2A19756   0.249   2.391   8.408
 1236POPC   C3A19757   0.346   2.523   7.976
 1236POPC   C4A19758   0.061   2.627   7.650
 1236POPC   C1B19759   0.335   3.045   8.698
 1236POPC   C2B19760   0.379   2.915   8.300
 1236POPC   C3B19761   0.218   3.036   7.918
 1236POPC   C4B19762   0.430   2.971   7.533
 1237POPC   NC319763  36.285  42.588   9.460
 1237POPC   PO419764  35.806  42.134   9.433
 1237POPC   GL119765  35.918  42.449   9.121
 1237POPC   GL219766  35.957  42.165   8.924
 1237POPC   C1A19767  36.205  42.553   8.747
 1237POPC   D2A19768  36.199  42.349   8.315
 1237POPC   C3A19769  36.324  42.576   7.929
 1237POPC   C4A19770  36.183  42.549   7.527
 1237POPC   C1B19771  36.399  42.068   8.707
 1237POPC   C2B19772  36.565  41.993   8.260
 1237POPC   C3B19773  36.390  42.087   7.815
 1237POPC   C4B19774  36.248  42.062   7.350
 1238POPC   NC319775  27.341  24.304   9.518
 1238POPC   PO419776  27.748  24.845   9.523
 1238POPC   GL119777  27.841  24.632   9.185
 1238POPC   GL219778  27.511  24.552   9.107
 1238POPC   C1A19779  27.883  24.579   8.762
 1238POPC   D2A19780  27.560  24.566   8.464
 1238POPC   C3A19781  27.746  24.559   8.073
 1238POPC   C4A19782  27.584  24.529   7.696
 1238POPC   C1B19783  27.361  24.872   8.836
 1238POPC   C2B19784  27.156  24.891   8.457
 1238POPC   C3B19785  27.320  24.868   8.038
 1238POPC   C4B19786  27.177  24.950   7.612
 1239POPC   NC319787  44.643  30.252   9.552
 1239POPC   PO419788  44.361  29.649   9.437
 1239POPC   GL119789  44.628  29.874   9.172
 1239POPC   GL219790  44.586  30.202   9.062
 1239POPC   C1A19791  44.835  29.842   8.809
 1239POPC   D2A19792  44.680  29.814   8.434
 1239POPC   C3A19793  44.819  30.022   8.144
 1239POPC   C4A19794  44.632  29.920   7.786
 1239POPC   C1B19795  44.529  30.256   8.654
 1239POPC   C2B19796  44.358  30.195   8.270
 1239POPC   C3B19797  44.346  30.331   7.835
 1239POPC   C4B19798  44.579  30.292   7.428
 1240POPC   NC319799  42.525  15.120   9.719
 1240POPC   PO419800  42.051  15.428   9.397
 1240POPC   GL119801  42.367  15.306   9.107
 1240POPC   GL219802  42.480  14.981   9.136
 1240POPC   C1A19803  42.633  15.260   8.709
 1240POPC   D2A19804  42.616  15.070   8.294
 1240POPC   C3A19805  42.549  15.382   8.001
 1240POPC   C4A19806  42.353  15.492   7.639
 1240POPC   C1B19807  42.316  14.853   8.689
 1240POPC   C2B19808  42.183  14.774   8.247
 1240POPC   C3B19809  42.254  14.990   7.855
 1240POPC   C4B19810  42.661  15.054   7.626
 1241POPC   NC319811   8.365  19.852   9.376
 1241POPC   PO419812   7.710  20.079   9.510
 1241POPC   GL119813   8.046  20.100   9.077
 1241POPC   GL219814   8.235  19.780   8.905
 1241POPC   C1A19815   8.349  20.194   8.700
 1241POPC   D2A19816   8.258  20.102   8.277
 1241POPC   C3A19817   8.526  20.171   7.916
 1241POPC   C4A19818   8.404  19.953   7.527
 1241POPC   C1B19819   8.031  19.692   8.570
 1241POPC   C2B19820   8.239  19.536   8.268
 1241POPC   C3B19821   8.158  19.674   7.888
 1241POPC   C4B19822   7.929  19.761   7.496
 1242POPC   NC319823  16.749   7.455   9.567
 1242POPC   PO419824  17.240   7.102   9.282
 1242POPC   GL119825  16.845   7.209   9.116
 1242POPC   GL219826  16.711   7.542   9.066
 1242POPC   C1A19827  16.771   7.072   8.706
 1242POPC   D2A19828  16.952   7.188   8.307
 1242POPC   C3A19829  16.720   7.091   7.918
 1242POPC   C4A19830  16.736   7.270   7.505
 1242POPC   C1B19831  16.606   7.569   8.645
 1242POPC   C2B19832  16.697   7.656   8.222
 1242POPC   C3B19833  16.559   7.608   7.816
 1242POPC   C4B19834  16.450   7.693   7.352
 1243POPC   NC319835  44.765  32.942   9.544
 1243POPC   PO419836  44.071  32.906   9.506
 1243POPC   GL119837  44.339  32.998   9.160
 1243POPC   GL219838  44.617  33.254   9.144
 1243POPC   C1A19839  44.475  32.881   8.754
 1243POPC   D2A19840  44.594  33.051   8.346
 1243POPC   C3A19841  44.645  32.779   7.966
 1243POPC   C4A19842  44.474  32.452   7.673
 1243POPC   C1B19843  44.433  33.408   8.744
 1243POPC   C2B19844  44.310  33.493   8.298
 1243POPC   C3B19845  44.411  33.294   7.940
 1243POPC   C4B19846  44.585  33.390   7.588
 1244POPC   NC319847  25.174  30.064   9.439
 1244POPC   PO419848  25.625  29.626   9.428
 1244POPC   GL119849  25.461  29.805   9.092
 1244POPC   GL219850  25.107  29.748   9.024
 1244POPC   C1A19851  25.514  29.830   8.696
 1244POPC   D2A19852  25.157  29.802   8.422
 1244POPC   C3A19853  25.387  29.757   8.071
 1244POPC   C4A19854  25.690  29.762   7.769
 1244POPC   C1B19855  25.145  30.154   8.793
 1244POPC   C2B19856  25.092  30.322   8.388
 1244POPC   C3B19857  25.062  30.138   8.019
 1244POPC   C4B19858  25.376  30.171   7.748
 1245POPC   NC319859  30.888  11.944   9.460
 1245POPC   PO419860  30.389  12.506   9.433
 1245POPC   GL119861  30.477  12.142   9.178
 1245POPC   GL219862  30.769  12.295   9.121
 1245POPC   C1A19863  30.570  12.003   8.744
 1245POPC   D2A19864  30.594  12.170   8.324
 1245POPC   C3A19865  30.678  11.868   7.986
 1245POPC   C4A19866  30.804  11.976   7.548
 1245POPC   C1B19867  31.018  12.499   8.848
 1245POPC   C2B19868  30.987  12.486   8.437
 1245POPC   C3B19869  30.988  12.302   8.034
 1245POPC   C4B19870  31.184  12.336   7.678
 1246POPC   NC319871  32.097  21.029   9.564
 1246POPC   PO419872  32.250  21.633   9.539
 1246POPC   GL119873  32.076  21.402   9.181
 1246POPC   GL219874  32.339  21.160   9.106
 1246POPC   C1A19875  32.234  21.481   8.729
 1246POPC   D2A19876  32.609  21.678   8.520
 1246POPC   C3A19877  32.528  21.750   8.056
 1246POPC   C4A19878  32.249  21.641   7.668
 1246POPC   C1B19879  32.667  21.172   8.752
 1246POPC   C2B19880  32.726  21.225   8.305
 1246POPC   C3B19881  32.418  21.264   7.976
 1246POPC   C4B19882  32.472  21.217   7.547
 1247POPC   NC319883  29.468   4.878   9.601
 1247POPC   PO419884  30.031   5.219   9.467
 1247POPC   GL119885  29.972   4.988   9.096
 1247POPC   GL219886  29.606   5.068   9.112
 1247POPC   C1A19887  30.210   5.114   8.719
 1247POPC   D2A19888  30.396   5.238   8.321
 1247POPC   C3A19889  30.093   5.271   8.031
 1247POPC   C4A19890  30.040   4.908   7.816
 1247POPC   C1B19891  29.706   5.174   8.662
 1247POPC   C2B19892  29.658   5.050   8.209
 1247POPC   C3B19893  29.627   5.206   7.790
 1247POPC   C4B19894  29.773   5.596   7.735
 1248POPC   NC319895   3.577  12.537   9.453
 1248POPC   PO419896   3.873  13.135   9.497
 1248POPC   GL119897   3.755  12.923   9.174
 1248POPC   GL219898   3.409  12.989   9.207
 1248POPC   C1A19899   3.964  12.833   8.794
 1248POPC   D2A19900   4.038  12.628   8.412
 1248POPC   C3A19901   3.770  12.826   8.090
 1248POPC   C4A19902   3.630  13.027   7.683
 1248POPC   C1B19903   3.388  12.784   8.818
 1248POPC   C2B19904   3.284  12.933   8.420
 1248POPC   C3B19905   3.262  12.809   8.016
 1248POPC   C4B19906   3.242  12.698   7.597
 1249POPC   NC319907  30.826  29.803   9.410
 1249POPC   PO419908  30.230  30.111   9.673
 1249POPC   GL119909  30.473  30.268   9.185
 1249POPC   GL219910  30.822  30.189   9.074
 1249POPC   C1A19911  30.516  30.048   8.707
 1249POPC   D2A19912  30.669  30.141   8.315
 1249POPC   C3A19913  30.405  30.190   7.954
 1249POPC   C4A19914  30.352  29.906   7.624
 1249POPC   C1B19915  30.950  29.802   8.792
 1249POPC   C2B19916  30.946  29.652   8.391
 1249POPC   C3B19917  30.948  29.754   7.979
 1249POPC   C4B19918  31.315  29.758   7.706
 1250POPC   NC319919  42.860  30.289   9.502
 1250POPC   PO419920  43.088  30.881   9.600
 1250POPC   GL119921  43.187  30.853   9.151
 1250POPC   GL219922  43.148  30.518   9.138
 1250POPC   C1A19923  42.975  30.816   8.731
 1250POPC   D2A19924  43.238  30.789   8.321
 1250POPC   C3A19925  43.025  30.874   7.900
 1250POPC   C4A19926  42.704  31.183   7.769
 1250POPC   C1B19927  43.383  30.540   8.775
 1250POPC   C2B19928  43.481  30.305   8.449
 1250POPC   C3B19929  43.364  30.342   8.050
 1250POPC   C4B19930  43.411  30.585   7.693
 1251POPC   NC319931  33.773  41.815   9.470
 1251POPC   PO419932  33.674  41.161   9.289
 1251POPC   GL119933  33.927  41.444   9.069
 1251POPC   GL219934  33.614  41.622   9.034
 1251POPC   C1A19935  33.953  41.545   8.612
 1251POPC   D2A19936  33.534  41.520   8.413
 1251POPC   C3A19937  33.437  41.562   7.973
 1251POPC   C4A19938  33.512  41.270   7.649
 1251POPC   C1B19939  33.579  41.901   8.745
 1251POPC   C2B19940  33.872  42.068   8.495
 1251POPC   C3B19941  33.986  41.868   8.119
 1251POPC   C4B19942  33.751  41.878   7.732
 1252POPC   NC319943  17.771  40.109   9.489
 1252POPC   PO419944  17.268  39.762   9.763
 1252POPC   GL119945  17.299  39.840   9.262
 1252POPC   GL219946  17.618  39.730   9.098
 1252POPC   C1A19947  17.287  39.891   8.765
 1252POPC   D2A19948  17.145  40.008   8.337
 1252POPC   C3A19949  17.332  39.892   7.985
 1252POPC   C4A19950  17.434  40.115   7.636
 1252POPC   C1B19951  17.763  40.085   8.815
 1252POPC   C2B19952  17.655  40.182   8.387
 1252POPC   C3B19953  17.808  40.122   7.970
 1252POPC   C4B19954  18.035  40.266   7.632
 1253POPC   NC319955  16.484   1.745   9.462
 1253POPC   PO419956  16.936   2.269   9.387
 1253POPC   GL119957  16.651   2.112   9.111
 1253POPC   GL219958  16.826   1.815   9.083
 1253POPC   C1A19959  16.542   1.942   8.696
 1253POPC   D2A19960  16.800   1.740   8.390
 1253POPC   C3A19961  16.861   1.948   8.015
 1253POPC   C4A19962  16.553   2.215   7.829
 1253POPC   C1B19963  17.065   1.976   8.765
 1253POPC   C2B19964  17.167   2.166   8.409
 1253POPC   C3B19965  17.029   2.429   8.113
 1253POPC   C4B19966  17.031   2.348   7.697
 1254POPC   NC319967  32.936  30.280   9.451
 1254POPC   PO419968  33.238  29.655   9.601
 1254POPC   GL119969  33.068  29.846   9.155
 1254POPC   GL219970  32.771  29.657   9.026
 1254POPC   C1A19971  32.853  30.089   8.787
 1254POPC   D2A19972  32.883  29.960   8.347
 1254POPC   C3A19973  32.706  30.156   7.976
 1254POPC   C4A19974  32.809  30.310   7.545
 1254POPC   C1B19975  33.071  29.615   8.709
 1254POPC   C2B19976  33.209  29.474   8.308
 1254POPC   C3B19977  33.190  29.775   7.987
 1254POPC   C4B19978  32.931  29.808   7.687
 1255POPC   NC319979   7.080  39.879   9.354
 1255POPC   PO419980   7.732  40.027   9.481
 1255POPC   GL119981   7.540  39.866   9.115
 1255POPC   GL219982   7.337  40.163   9.002
 1255POPC   C1A19983   7.401  39.740   8.688
 1255POPC   D2A19984   7.334  40.048   8.346
 1255POPC   C3A19985   7.385  39.971   7.886
 1255POPC   C4A19986   7.799  39.795   7.801
 1255POPC   C1B19987   7.039  40.392   8.733
 1255POPC   C2B19988   6.909  40.309   8.334
 1255POPC   C3B19989   7.154  40.428   7.980
 1255POPC   C4B19990   7.148  40.316   7.560
 1256POPC   NC319991  36.258  18.642   9.482
 1256POPC   PO419992  36.089  18.052   9.505
 1256POPC   GL119993  36.243  18.237   9.151
 1256POPC   GL219994  35.953  18.428   9.084
 1256POPC   C1A19995  36.345  18.387   8.752
 1256POPC   D2A19996  36.120  18.436   8.374
 1256POPC   C3A19997  36.367  18.372   7.997
 1256POPC   C4A19998  36.338  18.586   7.604
 1256POPC   C1B19999  35.847  18.135   8.720
 1256POPC   C2B20000  35.795  18.053   8.261
 1256POPC   C3B20001  35.839  18.361   7.915
 1256POPC   C4B20002  35.785  18.821   7.843
 1257POPC   NC320003   5.618   9.394   9.405
 1257POPC   PO420004   5.438  10.095   9.427
 1257POPC   GL120005   5.695   9.879   9.087
 1257POPC   GL220006   6.039  10.030   9.055
 1257POPC   C1A20007   5.840   9.545   8.766
 1257POPC   D2A20008   6.091   9.538   8.347
 1257POPC   C3A20009   5.889   9.393   7.955
 1257POPC   C4A20010   5.745   9.605   7.584
 1257POPC   C1B20011   5.994  10.011   8.615
 1257POPC   C2B20012   5.674   9.822   8.364
 1257POPC   C3B20013   5.864   9.894   7.994
 1257POPC   C4B20014   5.922  10.114   7.625
 1258POPC   NC320015   9.893  23.932   9.375
 1258POPC   PO420016   9.821  24.632   9.619
 1258POPC   GL120017   9.907  24.420   9.270
 1258POPC   GL220018   9.607  24.457   9.137
 1258POPC   C1A20019   9.963  24.365   8.808
 1258POPC   D2A20020   9.937  24.075   8.471
 1258POPC   C3A20021  10.076  24.200   8.073
 1258POPC   C4A20022   9.879  24.465   7.792
 1258POPC   C1B20023   9.528  24.631   8.738
 1258POPC   C2B20024   9.597  24.434   8.344
 1258POPC   C3B20025   9.392  24.490   7.948
 1258POPC   C4B20026   9.435  24.907   7.812
 1259POPC   NC320027  20.650   2.111   9.718
 1259POPC   PO420028  21.242   2.064   9.517
 1259POPC   GL120029  21.476   2.114   9.143
 1259POPC   GL220030  21.711   2.385   9.126
 1259POPC   C1A20031  21.513   1.907   8.746
 1259POPC   D2A20032  21.266   1.725   8.439
 1259POPC   C3A20033  21.341   1.820   7.998
 1259POPC   C4A20034  21.042   1.990   7.676
 1259POPC   C1B20035  21.462   2.420   8.734
 1259POPC   C2B20036  21.197   2.264   8.398
 1259POPC   C3B20037  21.294   2.317   7.979
 1259POPC   C4B20038  21.599   2.547   7.807
 1260POPC   NC320039   7.268  23.267   9.462
 1260POPC   PO420040   7.223  22.582   9.386
 1260POPC   GL120041   7.167  22.927   9.084
 1260POPC   GL220042   7.488  23.136   9.015
 1260POPC   C1A20043   7.124  23.068   8.649
 1260POPC   D2A20044   7.382  23.117   8.270
 1260POPC   C3A20045   7.289  22.836   7.906
 1260POPC   C4A20046   7.243  22.921   7.474
 1260POPC   C1B20047   7.654  22.717   8.848
 1260POPC   C2B20048   7.878  22.581   8.467
 1260POPC   C3B20049   7.775  22.801   8.106
 1260POPC   C4B20050   7.709  23.186   7.849
 1261POPC   NC320051  36.430  34.338   9.297
 1261POPC   PO420052  37.054  34.706   9.511
 1261POPC   GL120053  36.860  34.622   9.128
 1261POPC   GL220054  36.933  34.272   9.113
 1261POPC   C1A20055  36.995  34.699   8.699
 1261POPC   D2A20056  37.282  34.714   8.361
 1261POPC   C3A20057  37.061  34.585   8.009
 1261POPC   C4A20058  36.938  34.834   7.675
 1261POPC   C1B20059  36.668  34.281   8.717
 1261POPC   C2B20060  36.615  34.521   8.354
 1261POPC   C3B20061  36.601  34.310   7.969
 1261POPC   C4B20062  36.830  34.340   7.600
 1262POPC   NC320063  12.451  26.374   9.337
 1262POPC   PO420064  12.719  25.750   9.225
 1262POPC   GL120065  12.644  26.008   8.990
 1262POPC   GL220066  12.885  26.250   9.110
 1262POPC   C1A20067  12.610  25.926   8.562
 1262POPC   D2A20068  12.497  26.233   8.351
 1262POPC   C3A20069  12.706  26.221   8.009
 1262POPC   C4A20070  12.948  26.070   7.715
 1262POPC   C1B20071  12.998  26.234   8.703
 1262POPC   C2B20072  13.086  26.470   8.375
 1262POPC   C3B20073  13.219  26.375   8.006
 1262POPC   C4B20074  13.133  26.605   7.663
 1263POPC   NC320075  10.780  15.560   9.675
 1263POPC   PO420076  10.456  14.999   9.583
 1263POPC   GL120077  10.533  15.112   9.193
 1263POPC   GL220078  10.833  15.256   9.249
 1263POPC   C1A20079  10.566  14.961   8.768
 1263POPC   D2A20080  10.521  14.820   8.324
 1263POPC   C3A20081  10.356  15.143   8.013
 1263POPC   C4A20082  10.497  15.162   7.575
 1263POPC   C1B20083  10.908  15.400   8.821
 1263POPC   C2B20084  10.655  15.351   8.438
 1263POPC   C3B20085  10.826  15.278   8.042
 1263POPC   C4B20086  10.790  15.546   7.702
 1264POPC   NC320087   1.990  43.743   9.580
 1264POPC   PO420088   2.094  44.403   9.545
 1264POPC   GL120089   1.955  44.140   9.205
 1264POPC   GL220090   2.003  43.771   9.090
 1264POPC   C1A20091   1.700  44.111   8.859
 1264POPC   D2A20092   1.856  43.980   8.507
 1264POPC   C3A20093   1.658  43.850   8.159
 1264POPC   C4A20094   1.797  43.869   7.756
 1264POPC   C1B20095   2.198  43.680   8.729
 1264POPC   C2B20096   2.084  43.567   8.333
 1264POPC   C3B20097   2.249  43.674   7.953
 1264POPC   C4B20098   2.190  43.574   7.540
 1265POPC   NC320099   3.812  30.516   9.282
 1265POPC   PO420100   4.242  30.706   9.785
 1265POPC   GL120101   4.272  30.715   9.183
 1265POPC   GL220102   4.232  30.413   8.946
 1265POPC   C1A20103   4.143  30.876   8.735
 1265POPC   D2A20104   4.065  31.129   8.320
 1265POPC   C3A20105   4.180  30.933   7.924
 1265POPC   C4A20106   4.421  30.816   7.511
 1265POPC   C1B20107   4.493  30.493   8.647
 1265POPC   C2B20108   4.389  30.662   8.296
 1265POPC   C3B20109   4.389  30.478   7.910
 1265POPC   C4B20110   4.717  30.397   7.721
 1266POPC   NC320111  25.846  19.428   9.439
 1266POPC   PO420112  26.119  18.853   9.624
 1266POPC   GL120113  26.010  19.033   9.184
 1266POPC   GL220114  25.861  18.762   9.018
 1266POPC   C1A20115  25.852  19.200   8.769
 1266POPC   D2A20116  26.055  19.387   8.401
 1266POPC   C3A20117  25.969  19.134   8.075
 1266POPC   C4A20118  25.884  19.240   7.672
 1266POPC   C1B20119  25.652  18.641   8.704
 1266POPC   C2B20120  25.602  18.903   8.359
 1266POPC   C3B20121  25.731  18.688   7.977
 1266POPC   C4B20122  26.035  18.737   7.643
 1267POPC   NC320123  16.528  30.498   9.516
 1267POPC   PO420124  17.099  30.770   9.479
 1267POPC   GL120125  16.906  30.548   9.161
 1267POPC   GL220126  17.169  30.358   9.040
 1267POPC   C1A20127  16.665  30.737   8.805
 1267POPC   D2A20128  16.866  30.887   8.391
 1267POPC   C3A20129  16.669  30.956   7.980
 1267POPC   C4A20130  16.416  30.650   7.743
 1267POPC   C1B20131  17.074  30.473   8.660
 1267POPC   C2B20132  16.711  30.355   8.480
 1267POPC   C3B20133  16.763  30.445   8.074
 1267POPC   C4B20134  16.821  30.312   7.649
 1268POPC   NC320135  37.907  28.982   9.635
 1268POPC   PO420136  37.416  29.527   9.613
 1268POPC   GL120137  37.617  29.315   9.267
 1268POPC   GL220138  37.558  28.934   9.236
 1268POPC   C1A20139  37.800  29.414   8.858
 1268POPC   D2A20140  37.718  29.248   8.438
 1268POPC   C3A20141  37.393  29.291   8.131
 1268POPC   C4A20142  37.600  29.424   7.733
 1268POPC   C1B20143  37.695  28.843   8.787
 1268POPC   C2B20144  37.560  28.763   8.333
 1268POPC   C3B20145  37.658  28.927   7.896
 1268POPC   C4B20146  37.590  29.026   7.417
 1269POPC   NC320147  20.455  12.948   9.603
 1269POPC   PO420148  21.023  12.773   9.515
 1269POPC   GL120149  20.776  12.909   9.201
 1269POPC   GL220150  20.558  12.602   9.212
 1269POPC   C1A20151  20.665  13.056   8.805
 1269POPC   D2A20152  20.526  13.054   8.379
 1269POPC   C3A20153  20.897  13.086   8.167
 1269POPC   C4A20154  20.974  13.241   7.770
 1269POPC   C1B20155  20.392  12.633   8.802
 1269POPC   C2B20156  20.235  12.626   8.398
 1269POPC   C3B20157  20.385  12.663   8.017
 1269POPC   C4B20158  20.748  12.780   7.784
 1270POPC   NC320159  10.163  15.350   9.527
 1270POPC   PO420160   9.618  15.041   9.527
 1270POPC   GL120161   9.745  15.286   9.221
 1270POPC   GL220162   9.828  15.627   9.235
 1270POPC   C1A20163   9.968  15.257   8.851
 1270POPC   D2A20164  10.130  15.113   8.479
 1270POPC   C3A20165   9.874  15.032   8.113
 1270POPC   C4A20166  10.018  14.934   7.696
 1270POPC   C1B20167   9.531  15.534   8.843
 1270POPC   C2B20168   9.677  15.391   8.446
 1270POPC   C3B20169   9.940  15.512   8.094
 1270POPC   C4B20170   9.787  15.391   7.669
 1271POPC   NC320171  26.449  44.622   9.624
 1271POPC   PO420172  25.836  44.786   9.743
 1271POPC   GL120173  26.014  44.513   9.365
 1271POPC   GL220174  25.819  44.306   9.125
 1271POPC   C1A20175  26.238  44.536   8.925
 1271POPC   D2A20176  26.415  44.558   8.476
 1271POPC   C3A20177  26.281  44.575   8.028
 1271POPC   C4A20178  26.038  44.798   7.709
 1271POPC   C1B20179  25.770  44.572   8.713
 1271POPC   C2B20180  25.803  44.647   8.222
 1271POPC   C3B20181  25.583  44.613   7.809
 1271POPC   C4B20182  25.629  44.811   7.387
 1272POPC   NC320183  32.869  35.981   9.559
 1272POPC   PO420184  33.345  36.499   9.682
 1272POPC   GL120185  33.217  36.274   9.304
 1272POPC   GL220186  33.463  36.028   9.232
 1272POPC   C1A20187  32.958  36.249   8.908
 1272POPC   D2A20188  32.885  36.023   8.498
 1272POPC   C3A20189  32.799  36.287   8.129
 1272POPC   C4A20190  32.959  36.309   7.717
 1272POPC   C1B20191  33.368  35.953   8.802
 1272POPC   C2B20192  33.359  35.800   8.374
 1272POPC   C3B20193  33.339  36.052   7.989
 1272POPC   C4B20194  33.370  36.054   7.527
 1273POPC   NC320195  35.088   5.356   9.628
 1273POPC   PO420196  35.340   4.765   9.556
 1273POPC   GL120197  35.300   4.883   9.155
 1273POPC   GL220198  35.453   5.196   9.175
 1273POPC   C1A20199  35.287   4.991   8.725
 1273POPC   D2A20200  35.291   5.330   8.416
 1273POPC   C3A20201  35.218   5.125   8.005
 1273POPC   C4A20202  35.497   4.799   7.884
 1273POPC   C1B20203  35.709   5.246   8.784
 1273POPC   C2B20204  35.756   5.072   8.368
 1273POPC   C3B20205  35.662   5.351   8.045
 1273POPC   C4B20206  35.446   5.478   7.678
 1274POPC   NC320207  43.871   4.567   9.410
 1274POPC   PO420208  43.612   4.026   9.276
 1274POPC   GL120209  43.913   4.237   8.993
 1274POPC   GL220210  43.797   4.586   8.908
 1274POPC   C1A20211  43.967   4.186   8.546
 1274POPC   D2A20212  43.678   4.372   8.260
 1274POPC   C3A20213  43.815   4.418   7.842
 1274POPC   C4A20214  44.218   4.307   7.748
 1274POPC   C1B20215  44.152   4.644   8.657
 1274POPC   C2B20216  44.180   4.533   8.207
 1274POPC   C3B20217  44.160   4.806   7.819
 1274POPC   C4B20218  44.267   4.672   7.381
 1275POPC   NC320219  42.980   2.133   9.564
 1275POPC   PO420220  42.728   1.529   9.406
 1275POPC   GL120221  42.948   1.839   9.148
 1275POPC   GL220222  42.832   2.181   9.074
 1275POPC   C1A20223  43.149   1.863   8.760
 1275POPC   D2A20224  43.168   1.682   8.362
 1275POPC   C3A20225  43.248   1.893   7.968
 1275POPC   C4A20226  43.102   1.706   7.619
 1275POPC   C1B20227  42.764   2.222   8.626
 1275POPC   C2B20228  42.800   2.062   8.189
 1275POPC   C3B20229  42.871   2.175   7.739
 1275POPC   C4B20230  42.774   2.438   7.353
 1276POPC   NC320231   3.489  10.849   9.567
 1276POPC   PO420232   3.661  11.428   9.512
 1276POPC   GL120233   3.444  11.243   9.189
 1276POPC   GL220234   3.669  11.003   9.112
 1276POPC   C1A20235   3.447  11.291   8.745
 1276POPC   D2A20236   3.508  11.499   8.361
 1276POPC   C3A20237   3.313  11.397   8.006
 1276POPC   C4A20238   3.535  11.524   7.692
 1276POPC   C1B20239   3.791  10.859   8.750
 1276POPC   C2B20240   3.759  11.051   8.401
 1276POPC   C3B20241   3.806  11.184   8.031
 1276POPC   C4B20242   3.585  11.018   7.724
 1277POPC   NC320243   9.317  28.468   9.486
 1277POPC   PO420244   8.650  28.175   9.553
 1277POPC   GL120245   8.918  28.317   9.204
 1277POPC   GL220246   9.235  28.123   9.143
 1277POPC   C1A20247   8.980  28.446   8.784
 1277POPC   D2A20248   8.997  28.638   8.398
 1277POPC   C3A20249   9.040  28.368   8.060
 1277POPC   C4A20250   8.969  28.299   7.645
 1277POPC   C1B20251   9.181  27.962   8.778
 1277POPC   C2B20252   9.288  28.051   8.374
 1277POPC   C3B20253   9.359  27.806   8.033
 1277POPC   C4B20254   9.348  27.905   7.585
 1278POPC   NC320255  18.755  31.976   9.505
 1278POPC   PO420256  19.172  31.455   9.622
 1278POPC   GL120257  19.208  31.515   9.193
 1278POPC   GL220258  19.141  31.210   9.005
 1278POPC   C1A20259  18.999  31.658   8.812
 1278POPC   D2A20260  19.092  31.373   8.454
 1278POPC   C3A20261  19.010  31.497   8.026
 1278POPC   C4A20262  19.137  31.265   7.622
 1278POPC   C1B20263  18.709  31.252   8.774
 1278POPC   C2B20264  18.648  31.141   8.315
 1278POPC   C3B20265  18.690  31.155   7.846
 1278POPC   C4B20266  18.716  31.118   7.358
 1279POPC   NC320267  17.966  20.741   9.349
 1279POPC   PO420268  18.587  20.445   9.412
 1279POPC   GL120269  18.374  20.552   9.076
 1279POPC   GL220270  18.102  20.347   9.073
 1279POPC   C1A20271  18.260  20.606   8.644
 1279POPC   D2A20272  18.141  20.675   8.227
 1279POPC   C3A20273  18.414  20.510   7.939
 1279POPC   C4A20274  18.455  20.851   7.738
 1279POPC   C1B20275  18.028  20.146   8.746
 1279POPC   C2B20276  17.871  20.247   8.366
 1279POPC   C3B20277  17.970  20.252   7.955
 1279POPC   C4B20278  17.975  20.587   7.669
 1280POPC   NC320279   0.634  19.599   9.752
 1280POPC   PO420280   0.094  19.936   9.518
 1280POPC   GL120281   0.468  19.845   9.262
 1280POPC   GL220282   0.608  20.142   9.143
 1280POPC   C1A20283   0.587  19.747   8.815
 1280POPC   D2A20284   0.615  19.644   8.383
 1280POPC   C3A20285   0.522  19.913   8.078
 1280POPC   C4A20286   0.345  19.728   7.739
 1280POPC   C1B20287   0.194  20.050   8.901
 1280POPC   C2B20288   0.185  19.962   8.482
 1280POPC   C3B20289  44.994  19.947   8.099
 1280POPC   C4B20290  44.870  20.006   7.698
 1281POPC   NC320291  30.274   9.649   9.458
 1281POPC   PO420292  29.625   9.633   9.473
 1281POPC   GL120293  29.890   9.782   9.121
 1281POPC   GL220294  30.235   9.966   9.058
 1281POPC   C1A20295  30.044   9.567   8.758
 1281POPC   D2A20296  30.259   9.383   8.387
 1281POPC   C3A20297  30.184   9.633   8.018
 1281POPC   C4A20298  29.954   9.602   7.630
 1281POPC   C1B20299  29.999  10.060   8.697
 1281POPC   C2B20300  29.841   9.892   8.308
 1281POPC   C3B20301  29.860  10.052   7.882
 1281POPC   C4B20302  29.688  10.090   7.448
 1282POPC   NC320303   5.026  37.926   9.569
 1282POPC   PO420304   4.935  37.329   9.382
 1282POPC   GL120305   5.122  37.658   9.136
 1282POPC   GL220306   4.903  37.861   9.023
 1282POPC   C1A20307   5.349  37.767   8.769
 1282POPC   D2A20308   5.047  37.926   8.477
 1282POPC   C3A20309   5.114  37.742   8.075
 1282POPC   C4A20310   5.308  37.899   7.708
 1282POPC   C1B20311   4.900  37.466   8.741
 1282POPC   C2B20312   5.245  37.294   8.571
 1282POPC   C3B20313   5.390  37.169   8.166
 1282POPC   C4B20314   5.322  37.384   7.755
 1283POPC   NC320315  12.912  33.110   9.425
 1283POPC   PO420316  13.249  32.812   8.986
 1283POPC   GL120317  12.776  32.959   8.961
 1283POPC   GL220318  12.625  33.326   9.065
 1283POPC   C1A20319  12.709  33.101   8.562
 1283POPC   D2A20320  13.051  33.068   8.272
 1283POPC   C3A20321  12.941  32.884   7.918
 1283POPC   C4A20322  12.557  32.966   7.776
 1283POPC   C1B20323  12.841  33.557   8.756
 1283POPC   C2B20324  12.706  33.573   8.338
 1283POPC   C3B20325  12.536  33.457   7.930
 1283POPC   C4B20326  12.764  33.343   7.524
 1284POPC   NC320327  13.423  30.180   9.734
 1284POPC   PO420328  13.807  29.581   9.498
 1284POPC   GL120329  13.639  29.755   9.133
 1284POPC   GL220330  13.888  29.986   9.079
 1284POPC   C1A20331  13.522  29.920   8.681
 1284POPC   D2A20332  13.361  30.094   8.306
 1284POPC   C3A20333  13.653  30.075   7.997
 1284POPC   C4A20334  13.673  29.890   7.614
 1284POPC   C1B20335  13.975  29.697   8.764
 1284POPC   C2B20336  13.910  29.810   8.351
 1284POPC   C3B20337  14.096  29.589   8.035
 1284POPC   C4B20338  13.999  29.498   7.626
 1285POPC   NC320339   3.563  16.031   9.530
 1285POPC   PO420340   4.057  15.558   9.685
 1285POPC   GL120341   3.824  15.609   9.252
 1285POPC   GL220342   3.505  15.702   9.143
 1285POPC   C1A20343   3.882  15.713   8.788
 1285POPC   D2A20344   3.717  15.712   8.358
 1285POPC   C3A20345   3.726  16.051   8.078
 1285POPC   C4A20346   3.849  15.952   7.651
 1285POPC   C1B20347   3.346  15.719   8.722
 1285POPC   C2B20348   3.268  15.972   8.361
 1285POPC   C3B20349   3.267  15.827   7.963
 1285POPC   C4B20350   2.922  15.864   7.716
 1286POPC   NC320351  44.215  26.395   9.486
 1286POPC   PO420352  44.942  26.389   9.431
 1286POPC   GL120353  44.666  26.613   9.172
 1286POPC   GL220354  44.603  26.990   9.143
 1286POPC   C1A20355  44.805  26.699   8.761
 1286POPC   D2A20356  44.692  26.785   8.352
 1286POPC   C3A20357  44.812  26.541   8.012
 1286POPC   C4A20358  44.742  26.848   7.718
 1286POPC   C1B20359  44.283  26.737   8.847
 1286POPC   C2B20360  44.186  26.685   8.408
 1286POPC   C3B20361  44.310  26.712   7.958
 1286POPC   C4B20362  44.306  26.761   7.491
 1287POPC   NC320363   7.699  14.843   9.868
 1287POPC   PO420364   7.372  14.383   9.584
 1287POPC   GL120365   7.325  14.473   9.162
 1287POPC   GL220366   7.696  14.491   9.161
 1287POPC   C1A20367   7.180  14.588   8.761
 1287POPC   D2A20368   6.979  14.338   8.478
 1287POPC   C3A20369   7.087  14.552   8.099
 1287POPC   C4A20370   7.339  14.479   7.740
 1287POPC   C1B20371   7.598  14.311   8.770
 1287POPC   C2B20372   7.519  14.438   8.365
 1287POPC   C3B20373   7.734  14.262   8.025
 1287POPC   C4B20374   7.989  14.380   7.665
 1288POPC   NC320375   0.666  12.364   9.886
 1288POPC   PO420376   0.230  11.985   9.481
 1288POPC   GL120377   0.292  12.063   9.051
 1288POPC   GL220378   0.601  12.234   8.992
 1288POPC   C1A20379   0.259  12.020   8.611
 1288POPC   D2A20380   0.569  12.109   8.304
 1288POPC   C3A20381   0.521  11.871   7.946
 1288POPC   C4A20382   0.174  11.763   7.652
 1288POPC   C1B20383   0.462  12.486   8.634
 1288POPC   C2B20384   0.478  12.593   8.202
 1288POPC   C3B20385   0.590  12.360   7.807
 1288POPC   C4B20386   0.807  12.362   7.419
 1289POPC   NC320387  26.193  12.387   9.478
 1289POPC   PO420388  25.720  11.906   9.376
 1289POPC   GL120389  26.057  12.005   9.108
 1289POPC   GL220390  26.283  12.283   8.996
 1289POPC   C1A20391  25.906  12.080   8.708
 1289POPC   D2A20392  25.646  11.873   8.446
 1289POPC   C3A20393  25.794  11.987   8.064
 1289POPC   C4A20394  26.000  12.157   7.716
 1289POPC   C1B20395  26.561  12.394   8.639
 1289POPC   C2B20396  26.575  12.474   8.196
 1289POPC   C3B20397  26.495  12.327   7.774
 1289POPC   C4B20398  26.340  12.310   7.348
 1290POPC   NC320399   8.231   2.685   9.489
 1290POPC   PO420400   8.351   3.352   9.370
 1290POPC   GL120401   8.098   3.046   9.146
 1290POPC   GL220402   8.415   2.870   9.067
 1290POPC   C1A20403   7.999   2.678   8.851
 1290POPC   D2A20404   7.682   2.446   8.593
 1290POPC   C3A20405   7.810   2.667   8.201
 1290POPC   C4A20406   8.062   2.658   7.836
 1290POPC   C1B20407   8.482   2.778   8.658
 1290POPC   C2B20408   8.384   2.747   8.240
 1290POPC   C3B20409   8.524   2.840   7.854
 1290POPC   C4B20410   8.412   2.758   7.446
 1291POPC   NC320411  35.410  10.048   9.048
 1291POPC   PO420412  35.681   9.511   9.392
 1291POPC   GL120413  35.438   9.542   9.031
 1291POPC   GL220414  35.071   9.684   9.067
 1291POPC   C1A20415  35.521   9.554   8.575
 1291POPC   D2A20416  35.396   9.862   8.282
 1291POPC   C3A20417  35.535  10.069   7.929
 1291POPC   C4A20418  35.709  10.023   7.506
 1291POPC   C1B20419  34.905   9.671   8.686
 1291POPC   C2B20420  35.032   9.518   8.329
 1291POPC   C3B20421  35.041   9.708   7.932
 1291POPC   C4B20422  34.950   9.578   7.533
 1292POPC   NC320423  11.510   9.977   9.461
 1292POPC   PO420424  11.887   9.373   9.365
 1292POPC   GL120425  11.545   9.561   9.140
 1292POPC   GL220426  11.508   9.911   8.967
 1292POPC   C1A20427  11.469   9.391   8.750
 1292POPC   D2A20428  11.597   9.592   8.392
 1292POPC   C3A20429  11.507   9.643   7.954
 1292POPC   C4A20430  11.557   9.974   7.642
 1292POPC   C1B20431  11.178   9.815   8.682
 1292POPC   C2B20432  11.100   9.688   8.257
 1292POPC   C3B20433  11.085   9.893   7.833
 1292POPC   C4B20434  11.131   9.974   7.356
 1293POPC   NC320435  29.415  26.156   9.359
 1293POPC   PO420436  28.802  25.896   9.563
 1293POPC   GL120437  29.001  25.916   9.174
 1293POPC   GL220438  29.222  25.653   9.171
 1293POPC   C1A20439  29.060  26.173   8.809
 1293POPC   D2A20440  28.874  26.073   8.429
 1293POPC   C3A20441  29.127  26.200   8.102
 1293POPC   C4A20442  29.057  26.208   7.661
 1293POPC   C1B20443  29.369  25.762   8.752
 1293POPC   C2B20444  29.485  25.850   8.309
 1293POPC   C3B20445  29.325  25.782   7.879
 1293POPC   C4B20446  29.405  25.859   7.451
 1294POPC   NC320447  42.001  11.921   9.410
 1294POPC   PO420448  42.632  12.206   9.548
 1294POPC   GL120449  42.426  12.388   9.141
 1294POPC   GL220450  42.081  12.420   9.284
 1294POPC   C1A20451  42.427  12.226   8.647
 1294POPC   D2A20452  42.536  12.283   8.226
 1294POPC   C3A20453  42.388  11.969   7.957
 1294POPC   C4A20454  42.787  11.890   7.791
 1294POPC   C1B20455  42.024  12.423   8.830
 1294POPC   C2B20456  41.926  12.374   8.379
 1294POPC   C3B20457  42.084  12.384   7.977
 1294POPC   C4B20458  42.005  12.233   7.568
 1295POPC   NC320459  13.970   5.391   9.424
 1295POPC   PO420460  13.411   5.700   9.650
 1295POPC   GL120461  13.624   5.743   9.254
 1295POPC   GL220462  13.614   6.109   9.237
 1295POPC   C1A20463  13.638   5.589   8.814
 1295POPC   D2A20464  13.579   5.835   8.440
 1295POPC   C3A20465  13.592   5.707   8.007
 1295POPC   C4A20466  13.402   5.993   7.726
 1295POPC   C1B20467  13.748   6.179   8.807
 1295POPC   C2B20468  13.964   6.243   8.396
 1295POPC   C3B20469  13.789   6.238   7.984
 1295POPC   C4B20470  13.900   6.066   7.589
 1296POPC   NC320471  36.340  35.876   9.616
 1296POPC   PO420472  36.347  36.485   9.407
 1296POPC   GL120473  36.227  36.111   9.178
 1296POPC   GL220474  36.428  35.810   9.126
 1296POPC   C1A20475  36.207  36.126   8.764
 1296POPC   D2A20476  35.990  36.158   8.396
 1296POPC   C3A20477  36.111  36.027   8.028
 1296POPC   C4A20478  36.054  36.328   7.739
 1296POPC   C1B20479  36.479  35.679   8.722
 1296POPC   C2B20480  36.290  35.556   8.318
 1296POPC   C3B20481  36.458  35.658   7.931
 1296POPC   C4B20482  36.467  36.013   7.662
 1297POPC   NC320483  12.481  23.070   9.520
 1297POPC   PO420484  11.890  22.735   9.614
 1297POPC   GL120485  12.119  22.826   9.208
 1297POPC   GL220486  12.487  22.660   9.188
 1297POPC   C1A20487  11.955  23.015   8.811
 1297POPC   D2A20488  11.770  23.003   8.401
 1297POPC   C3A20489  11.950  23.196   8.064
 1297POPC   C4A20490  12.210  23.154   7.695
 1297POPC   C1B20491  12.352  22.677   8.769
 1297POPC   C2B20492  12.311  22.964   8.409
 1297POPC   C3B20493  12.265  22.769   8.025
 1297POPC   C4B20494  12.442  22.716   7.621
 1298POPC   NC320495  15.626   1.037   9.513
 1298POPC   PO420496  16.238   1.336   9.458
 1298POPC   GL120497  15.965   1.204   9.135
 1298POPC   GL220498  15.683   1.439   9.133
 1298POPC   C1A20499  15.961   1.239   8.695
 1298POPC   D2A20500  16.079   1.052   8.282
 1298POPC   C3A20501  15.883   1.141   7.902
 1298POPC   C4A20502  15.590   0.876   7.714
 1298POPC   C1B20503  15.587   1.618   8.728
 1298POPC   C2B20504  15.726   1.473   8.308
 1298POPC   C3B20505  15.507   1.490   7.924
 1298POPC   C4B20506  15.624   1.355   7.496
 1299POPC   NC320507   7.097  37.734   9.693
 1299POPC   PO420508   6.571  37.360   9.517
 1299POPC   GL120509   6.539  37.658   9.211
 1299POPC   GL220510   6.851  37.815   9.246
 1299POPC   C1A20511   6.403  37.599   8.802
 1299POPC   D2A20512   6.243  37.702   8.404
 1299POPC   C3A20513   6.440  37.510   8.072
 1299POPC   C4A20514   6.301  37.705   7.730
 1299POPC   C1B20515   6.808  37.937   8.816
 1299POPC   C2B20516   6.767  37.747   8.450
 1299POPC   C3B20517   6.946  37.895   8.113
 1299POPC   C4B20518   6.815  37.689   7.758
 1300POPC   NC320519  31.254  26.917   9.461
 1300POPC   PO420520  31.943  26.905   9.502
 1300POPC   GL120521  31.650  26.710   9.239
 1300POPC   GL220522  31.597  27.051   9.070
 1300POPC   C1A20523  31.583  26.591   8.808
 1300POPC   D2A20524  31.495  26.784   8.394
 1300POPC   C3A20525  31.420  26.525   8.037
 1300POPC   C4A20526  31.440  26.625   7.603
 1300POPC   C1B20527  31.216  27.050   8.766
 1300POPC   C2B20528  31.049  27.157   8.333
 1300POPC   C3B20529  31.191  27.003   7.913
 1300POPC   C4B20530  31.548  27.146   7.655
 1301POPC   NC320531  17.923   1.897   9.559
 1301POPC   PO420532  18.546   1.992   9.676
 1301POPC   GL120533  18.314   2.152   9.242
 1301POPC   GL220534  18.129   2.425   9.358
 1301POPC   C1A20535  18.469   2.200   8.748
 1301POPC   D2A20536  18.533   2.373   8.315
 1301POPC   C3A20537  18.437   2.118   7.989
 1301POPC   C4A20538  18.417   1.823   7.666
 1301POPC   C1B20539  18.048   2.454   8.904
 1301POPC   C2B20540  18.024   2.302   8.489
 1301POPC   C3B20541  17.997   2.381   8.042
 1301POPC   C4B20542  18.220   2.332   7.602
 1302POPC   NC320543  17.867   2.895   9.518
 1302POPC   PO420544  18.579   2.750   9.503
 1302POPC   GL120545  18.512   2.646   9.092
 1302POPC   GL220546  18.234   2.873   9.138
 1302POPC   C1A20547  18.388   2.702   8.660
 1302POPC   D2A20548  18.385   2.882   8.294
 1302POPC   C3A20549  18.384   2.705   7.925
 1302POPC   C4A20550  18.515   3.077   7.755
 1302POPC   C1B20551  17.982   2.984   8.833
 1302POPC   C2B20552  17.910   2.806   8.462
 1302POPC   C3B20553  17.828   2.867   8.059
 1302POPC   C4B20554  17.944   2.730   7.673
 1303POPC   NC320555  40.994  14.987   9.447
 1303POPC   PO420556  40.388  15.213   9.289
 1303POPC   GL120557  40.733  15.113   9.036
 1303POPC   GL220558  40.672  14.777   9.099
 1303POPC   C1A20559  40.908  15.326   8.686
 1303POPC   D2A20560  40.586  15.402   8.377
 1303POPC   C3A20561  40.655  15.264   7.965
 1303POPC   C4A20562  41.049  15.381   7.782
 1303POPC   C1B20563  40.471  14.775   8.727
 1303POPC   C2B20564  40.350  14.954   8.361
 1303POPC   C3B20565  40.429  14.776   8.007
 1303POPC   C4B20566  40.635  14.845   7.638
 1304POPC   NC320567  41.822  29.060   9.605
 1304POPC   PO420568  41.329  29.490   9.489
 1304POPC   GL120569  41.595  29.190   9.177
 1304POPC   GL220570  41.814  28.848   9.152
 1304POPC   C1A20571  41.611  29.260   8.742
 1304POPC   D2A20572  41.494  29.479   8.358
 1304POPC   C3A20573  41.604  29.332   7.987
 1304POPC   C4A20574  41.576  29.235   7.572
 1304POPC   C1B20575  41.610  28.755   8.787
 1304POPC   C2B20576  41.630  28.916   8.351
 1304POPC   C3B20577  41.498  28.834   7.914
 1304POPC   C4B20578  41.745  28.775   7.528
 1305POPC   NC320579  38.339  36.161   9.924
 1305POPC   PO420580  38.745  35.890   9.347
 1305POPC   GL120581  38.412  35.963   9.080
 1305POPC   GL220582  38.232  36.123   9.335
 1305POPC   C1A20583  38.445  36.189   8.661
 1305POPC   D2A20584  38.663  36.236   8.266
 1305POPC   C3A20585  38.523  35.916   8.001
 1305POPC   C4A20586  38.431  35.887   7.577
 1305POPC   C1B20587  38.084  36.369   8.986
 1305POPC   C2B20588  37.966  36.372   8.520
 1305POPC   C3B20589  38.160  36.277   8.100
 1305POPC   C4B20590  38.207  36.488   7.684
 1306POPC   NC320591  38.091  39.673   9.572
 1306POPC   PO420592  37.683  39.151   9.552
 1306POPC   GL120593  37.635  39.253   9.140
 1306POPC   GL220594  37.729  39.564   9.219
 1306POPC   C1A20595  37.598  39.235   8.683
 1306POPC   D2A20596  37.333  39.416   8.336
 1306POPC   C3A20597  37.270  39.119   8.037
 1306POPC   C4A20598  37.564  39.160   7.724
 1306POPC   C1B20599  37.945  39.578   8.843
 1306POPC   C2B20600  37.835  39.600   8.401
 1306POPC   C3B20601  37.870  39.563   7.959
 1306POPC   C4B20602  38.237  39.484   7.732
 1307POPC   NC320603  12.192   5.588   9.336
 1307POPC   PO420604  11.845   6.096   9.440
 1307POPC   GL120605  12.030   6.019   9.072
 1307POPC   GL220606  12.355   6.018   9.091
 1307POPC   C1A20607  12.156   5.752   8.710
 1307POPC   D2A20608  12.219   5.853   8.321
 1307POPC   C3A20609  12.518   5.738   8.091
 1307POPC   C4A20610  12.372   5.544   7.724
 1307POPC   C1B20611  12.448   6.202   8.663
 1307POPC   C2B20612  12.464   6.257   8.175
 1307POPC   C3B20613  12.247   6.042   7.785
 1307POPC   C4B20614  12.447   5.972   7.357
 1308POPC   NC320615  34.665  13.400   9.672
 1308POPC   PO420616  34.206  13.890   9.463
 1308POPC   GL120617  34.555  13.664   9.229
 1308POPC   GL220618  34.476  13.330   9.147
 1308POPC   C1A20619  34.828  13.585   8.849
 1308POPC   D2A20620  34.954  13.833   8.483
 1308POPC   C3A20621  34.814  13.695   8.062
 1308POPC   C4A20622  34.739  13.497   7.648
 1308POPC   C1B20623  34.289  13.495   8.791
 1308POPC   C2B20624  34.222  13.307   8.392
 1308POPC   C3B20625  34.371  13.471   8.019
 1308POPC   C4B20626  34.207  13.645   7.685
 1309POPC   NC320627  37.302  31.460   9.373
 1309POPC   PO420628  37.957  31.709   9.352
 1309POPC   GL120629  37.857  31.326   9.068
 1309POPC   GL220630  37.525  31.219   8.934
 1309POPC   C1A20631  37.943  31.373   8.627
 1309POPC   D2A20632  37.861  31.619   8.257
 1309POPC   C3A20633  37.776  31.337   7.899
 1309POPC   C4A20634  37.847  31.187   7.462
 1309POPC   C1B20635  37.413  31.562   8.672
 1309POPC   C2B20636  37.351  31.625   8.245
 1309POPC   C3B20637  37.528  31.802   7.861
 1309POPC   C4B20638  37.594  31.621   7.455
 1310POPC   NC320639  24.505  32.351   9.484
 1310POPC   PO420640  24.388  31.695   9.574
 1310POPC   GL120641  24.514  31.948   9.179
 1310POPC   GL220642  24.240  32.152   9.086
 1310POPC   C1A20643  24.629  32.200   8.773
 1310POPC   D2A20644  24.484  32.374   8.374
 1310POPC   C3A20645  24.645  32.277   7.951
 1310POPC   C4A20646  24.537  32.466   7.522
 1310POPC   C1B20647  24.084  32.143   8.659
 1310POPC   C2B20648  23.996  32.266   8.210
 1310POPC   C3B20649  24.161  32.213   7.770
 1310POPC   C4B20650  24.196  32.157   7.292
 1311POPC   NC320651   8.872  41.089   9.430
 1311POPC   PO420652   8.401  40.701   9.408
 1311POPC   GL120653   8.616  40.818   9.052
 1311POPC   GL220654   8.959  40.771   9.030
 1311POPC   C1A20655   8.641  40.733   8.613
 1311POPC   D2A20656   8.506  40.486   8.270
 1311POPC   C3A20657   8.717  40.668   7.909
 1311POPC   C4A20658   9.087  40.487   7.699
 1311POPC   C1B20659   9.077  40.995   8.649
 1311POPC   C2B20660   8.969  41.041   8.266
 1311POPC   C3B20661   9.163  40.946   7.911
 1311POPC   C4B20662   9.107  41.013   7.491
 1312POPC   NC320663  28.553   1.316   9.556
 1312POPC   PO420664  27.930   1.059   9.507
 1312POPC   GL120665  28.143   1.273   9.196
 1312POPC   GL220666  28.368   0.993   9.175
 1312POPC   C1A20667  28.252   1.295   8.773
 1312POPC   D2A20668  28.489   1.402   8.442
 1312POPC   C3A20669  28.292   1.360   8.065
 1312POPC   C4A20670  28.452   1.574   7.714
 1312POPC   C1B20671  28.250   0.793   8.757
 1312POPC   C2B20672  28.393   0.830   8.299
 1312POPC   C3B20673  28.214   0.778   7.847
 1312POPC   C4B20674  28.401   0.767   7.396
 1313POPC   NC320675  37.874  12.108   9.462
 1313POPC   PO420676  37.219  12.205   9.351
 1313POPC   GL120677  37.543  11.959   9.079
 1313POPC   GL220678  37.942  11.968   8.997
 1313POPC   C1A20679  37.547  11.902   8.634
 1313POPC   D2A20680  37.708  12.132   8.281
 1313POPC   C3A20681  37.432  12.042   7.923
 1313POPC   C4A20682  37.545  12.105   7.505
 1313POPC   C1B20683  38.057  11.831   8.624
 1313POPC   C2B20684  37.878  11.656   8.267
 1313POPC   C3B20685  37.925  11.894   7.877
 1313POPC   C4B20686  37.893  11.746   7.464
 1314POPC   NC320687  36.366  14.088   9.546
 1314POPC   PO420688  35.951  13.513   9.425
 1314POPC   GL120689  36.093  13.383   9.028
 1314POPC   GL220690  36.308  13.677   8.972
 1314POPC   C1A20691  36.159  13.301   8.615
 1314POPC   D2A20692  36.213  13.571   8.285
 1314POPC   C3A20693  36.118  13.478   7.851
 1314POPC   C4A20694  36.162  13.449   7.407
 1314POPC   C1B20695  35.943  13.793   8.731
 1314POPC   C2B20696  35.716  13.819   8.355
 1314POPC   C3B20697  35.691  13.725   7.936
 1314POPC   C4B20698  35.642  13.954   7.581
 1315POPC   NC320699   5.908  43.024   9.562
 1315POPC   PO420700   5.738  43.593   9.341
 1315POPC   GL120701   6.038  43.323   9.169
 1315POPC   GL220702   5.709  43.119   9.103
 1315POPC   C1A20703   6.132  43.021   8.865
 1315POPC   D2A20704   5.803  43.154   8.532
 1315POPC   C3A20705   5.928  43.374   8.119
 1315POPC   C4A20706   6.043  43.161   7.719
 1315POPC   C1B20707   5.388  42.977   8.835
 1315POPC   C2B20708   5.445  42.814   8.418
 1315POPC   C3B20709   5.577  43.009   8.049
 1315POPC   C4B20710   5.638  42.862   7.642
 1316POPC   NC320711  38.651  21.913   9.368
 1316POPC   PO420712  38.145  22.225   9.458
 1316POPC   GL120713  38.431  22.426   9.144
 1316POPC   GL220714  38.715  22.251   8.965
 1316POPC   C1A20715  38.362  22.488   8.677
 1316POPC   D2A20716  38.626  22.294   8.350
 1316POPC   C3A20717  38.470  22.197   7.962
 1316POPC   C4A20718  38.449  22.172   7.518
 1316POPC   C1B20719  38.669  21.887   8.660
 1316POPC   C2B20720  38.588  21.772   8.202
 1316POPC   C3B20721  38.807  21.839   7.752
 1316POPC   C4B20722  39.119  21.713   7.403
 1317POPC   NC320723   6.784  12.531   9.571
 1317POPC   PO420724   6.244  12.976   9.564
 1317POPC   GL120725   6.637  12.959   9.319
 1317POPC   GL220726   6.453  12.982   9.067
 1317POPC   C1A20727   6.938  12.988   8.929
 1317POPC   D2A20728   6.960  13.161   8.510
 1317POPC   C3A20729   6.796  12.912   8.190
 1317POPC   C4A20730   6.937  12.646   7.852
 1317POPC   C1B20731   6.487  13.130   8.699
 1317POPC   C2B20732   6.297  12.987   8.344
 1317POPC   C3B20733   6.382  13.122   7.936
 1317POPC   C4B20734   6.787  13.112   7.697
 1318POPC   NC320735  38.767  10.303   9.368
 1318POPC   PO420736  38.184  10.709   9.250
 1318POPC   GL120737  38.555  10.627   9.031
 1318POPC   GL220738  38.798  10.811   9.218
 1318POPC   C1A20739  38.636  10.510   8.614
 1318POPC   D2A20740  38.367  10.297   8.332
 1318POPC   C3A20741  38.407  10.399   7.924
 1318POPC   C4A20742  38.191  10.142   7.634
 1318POPC   C1B20743  38.969  10.868   8.799
 1318POPC   C2B20744  38.992  10.797   8.351
 1318POPC   C3B20745  38.872  10.685   7.930
 1318POPC   C4B20746  38.741  10.864   7.559
 1319POPC   NC320747  19.227  42.052   9.496
 1319POPC   PO420748  19.075  42.622   9.491
 1319POPC   GL120749  19.013  42.337   9.113
 1319POPC   GL220750  18.941  41.937   9.093
 1319POPC   C1A20751  18.967  42.606   8.768
 1319POPC   D2A20752  19.127  42.716   8.375
 1319POPC   C3A20753  19.072  42.475   8.018
 1319POPC   C4A20754  19.088  42.656   7.575
 1319POPC   C1B20755  19.231  41.884   8.761
 1319POPC   C2B20756  19.197  42.066   8.360
 1319POPC   C3B20757  19.304  42.025   7.936
 1319POPC   C4B20758  19.029  42.144   7.632
 1320POPC   NC320759  38.695   5.461   9.442
 1320POPC   PO420760  38.402   5.983   9.671
 1320POPC   GL120761  38.260   5.986   9.157
 1320POPC   GL220762  38.547   5.804   9.034
 1320POPC   C1A20763  38.137   5.674   8.759
 1320POPC   D2A20764  38.282   5.528   8.364
 1320POPC   C3A20765  38.260   5.870   8.106
 1320POPC   C4A20766  38.102   5.937   7.725
 1320POPC   C1B20767  38.633   5.461   8.763
 1320POPC   C2B20768  38.788   5.397   8.386
 1320POPC   C3B20769  38.717   5.648   8.024
 1320POPC   C4B20770  38.464   5.613   7.667
 1321POPC   NC320771  17.975  16.313   9.520
 1321POPC   PO420772  18.466  15.844   9.569
 1321POPC   GL120773  18.630  16.009   9.188
 1321POPC   GL220774  18.511  16.346   9.156
 1321POPC   C1A20775  18.427  15.957   8.786
 1321POPC   D2A20776  18.066  15.960   8.503
 1321POPC   C3A20777  18.110  15.860   8.057
 1321POPC   C4A20778  17.866  15.967   7.677
 1321POPC   C1B20779  18.598  16.425   8.708
 1321POPC   C2B20780  18.565  16.154   8.322
 1321POPC   C3B20781  18.424  16.242   7.919
 1321POPC   C4B20782  18.567  16.387   7.531
 1322POPC   NC320783  43.823   8.373   9.808
 1322POPC   PO420784  43.771   8.954   9.480
 1322POPC   GL120785  44.021   9.019   9.086
 1322POPC   GL220786  44.189   8.700   9.073
 1322POPC   C1A20787  44.019   8.968   8.659
 1322POPC   D2A20788  43.714   8.818   8.413
 1322POPC   C3A20789  43.767   8.966   8.013
 1322POPC   C4A20790  43.669   9.215   7.673
 1322POPC   C1B20791  44.368   8.526   8.751
 1322POPC   C2B20792  44.240   8.613   8.347
 1322POPC   C3B20793  44.293   8.924   8.077
 1322POPC   C4B20794  44.189   8.905   7.657
 1323POPC   NC320795  40.182  12.634   9.482
 1323POPC   PO420796  40.008  11.985   9.569
 1323POPC   GL120797  39.989  12.035   9.155
 1323POPC   GL220798  40.305  11.886   9.047
 1323POPC   C1A20799  40.131  12.336   8.848
 1323POPC   D2A20800  40.441  12.453   8.522
 1323POPC   C3A20801  40.180  12.540   8.170
 1323POPC   C4A20802  39.939  12.237   7.933
 1323POPC   C1B20803  39.997  11.850   8.692
 1323POPC   C2B20804  39.900  11.800   8.258
 1323POPC   C3B20805  39.913  11.733   7.837
 1323POPC   C4B20806  40.287  11.799   7.574
 1324POPC   NC320807  20.004  35.861   9.653
 1324POPC   PO420808  19.812  36.431   9.350
 1324POPC   GL120809  19.845  36.050   9.173
 1324POPC   GL220810  20.180  35.956   9.169
 1324POPC   C1A20811  19.634  36.068   8.787
 1324POPC   D2A20812  19.652  36.383   8.499
 1324POPC   C3A20813  19.519  36.164   8.168
 1324POPC   C4A20814  19.695  36.046   7.783
 1324POPC   C1B20815  20.133  36.095   8.735
 1324POPC   C2B20816  19.970  36.012   8.321
 1324POPC   C3B20817  20.167  36.113   7.945
 1324POPC   C4B20818  20.283  35.902   7.615
 1325POPC   NC320819   3.453  44.263   9.516
 1325POPC   PO420820   3.121  43.662   9.487
 1325POPC   GL120821   3.399  43.847   9.150
 1325POPC   GL220822   3.752  43.813   9.049
 1325POPC   C1A20823   3.406  43.702   8.704
 1325POPC   D2A20824   3.683  43.889   8.381
 1325POPC   C3A20825   3.654  43.758   7.959
 1325POPC   C4A20826   3.545  43.795   7.514
 1325POPC   C1B20827   4.027  44.027   8.784
 1325POPC   C2B20828   4.042  44.291   8.442
 1325POPC   C3B20829   3.906  44.278   8.029
 1325POPC   C4B20830   3.949  44.082   7.631
 1326POPC   NC320831  33.514  19.881   9.770
 1326POPC   PO420832  32.870  19.961   9.450
 1326POPC   GL120833  32.926  19.848   9.063
 1326POPC   GL220834  32.907  19.510   9.077
 1326POPC   C1A20835  33.169  19.697   8.701
 1326POPC   D2A20836  33.092  19.855   8.311
 1326POPC   C3A20837  33.215  19.790   7.913
 1326POPC   C4A20838  32.931  19.940   7.634
 1326POPC   C1B20839  32.626  19.583   8.783
 1326POPC   C2B20840  32.475  19.549   8.402
 1326POPC   C3B20841  32.724  19.562   8.011
 1326POPC   C4B20842  32.904  19.416   7.636
 1327POPC   NC320843  14.699   9.254   9.254
 1327POPC   PO420844  14.236   8.812   9.349
 1327POPC   GL120845  14.251   9.145   9.016
 1327POPC   GL220846  14.081   9.390   9.198
 1327POPC   C1A20847  14.498   9.345   8.644
 1327POPC   D2A20848  14.773   9.182   8.317
 1327POPC   C3A20849  14.473   8.919   8.059
 1327POPC   C4A20850  14.029   8.780   7.906
 1327POPC   C1B20851  14.034   9.543   8.749
 1327POPC   C2B20852  14.060   9.626   8.320
 1327POPC   C3B20853  13.929   9.392   8.002
 1327POPC   C4B20854  14.197   9.250   7.755
 1328POPC   NC320855  12.900  24.884   9.522
 1328POPC   PO420856  12.867  24.187   9.355
 1328POPC   GL120857  12.940  24.520   9.112
 1328POPC   GL220858  12.621  24.722   9.105
 1328POPC   C1A20859  12.839  24.457   8.676
 1328POPC   D2A20860  12.948  24.578   8.270
 1328POPC   C3A20861  12.733  24.346   7.994
 1328POPC   C4A20862  12.569  24.366   7.567
 1328POPC   C1B20863  12.912  24.942   8.794
 1328POPC   C2B20864  13.162  25.055   8.430
 1328POPC   C3B20865  13.067  25.004   7.981
 1328POPC   C4B20866  12.991  24.656   7.694
 1329POPC   NC320867  27.953   6.112   9.340
 1329POPC   PO420868  28.471   5.730   9.695
 1329POPC   GL120869  28.374   5.806   9.227
 1329POPC   GL220870  28.480   6.045   8.978
 1329POPC   C1A20871  28.457   5.578   8.817
 1329POPC   D2A20872  28.509   5.818   8.483
 1329POPC   C3A20873  28.437   5.619   8.099
 1329POPC   C4A20874  28.333   5.829   7.735
 1329POPC   C1B20875  28.275   6.304   8.723
 1329POPC   C2B20876  27.971   6.345   8.431
 1329POPC   C3B20877  28.163   6.299   8.054
 1329POPC   C4B20878  28.026   6.405   7.691
 1330POPC   NC320879  36.539  25.431   9.524
 1330POPC   PO420880  36.820  24.842   9.672
 1330POPC   GL120881  36.744  24.979   9.215
 1330POPC   GL220882  36.916  25.287   9.159
 1330POPC   C1A20883  36.933  24.973   8.774
 1330POPC   D2A20884  37.052  25.123   8.374
 1330POPC   C3A20885  36.773  25.135   8.017
 1330POPC   C4A20886  36.605  25.197   7.618
 1330POPC   C1B20887  36.802  25.454   8.717
 1330POPC   C2B20888  36.621  25.579   8.317
 1330POPC   C3B20889  36.790  25.656   7.926
 1330POPC   C4B20890  37.088  25.420   7.686
 1331POPC   NC320891   2.515  41.328   9.366
 1331POPC   PO420892   2.897  41.835   9.554
 1331POPC   GL120893   2.690  41.800   9.169
 1331POPC   GL220894   2.931  41.564   9.078
 1331POPC   C1A20895   2.526  41.657   8.769
 1331POPC   D2A20896   2.353  41.788   8.385
 1331POPC   C3A20897   2.557  41.565   8.065
 1331POPC   C4A20898   2.815  41.722   7.771
 1331POPC   C1B20899   3.031  41.317   8.735
 1331POPC   C2B20900   2.956  41.453   8.356
 1331POPC   C3B20901   3.007  41.282   7.967
 1331POPC   C4B20902   2.755  41.241   7.677
 1332POPC   NC320903   2.307  38.834   9.695
 1332POPC   PO420904   1.653  38.627   9.492
 1332POPC   GL120905   2.050  38.532   9.259
 1332POPC   GL220906   2.365  38.681   9.178
 1332POPC   C1A20907   2.063  38.415   8.826
 1332POPC   D2A20908   1.776  38.531   8.514
 1332POPC   C3A20909   1.849  38.352   8.097
 1332POPC   C4A20910   1.971  38.365   7.670
 1332POPC   C1B20911   2.360  38.806   8.732
 1332POPC   C2B20912   2.245  38.629   8.319
 1332POPC   C3B20913   2.396  38.395   7.930
 1332POPC   C4B20914   2.400  38.556   7.466
 1333POPC   NC320915  38.889   9.334   9.584
 1333POPC   PO420916  39.413   8.855   9.458
 1333POPC   GL120917  39.273   8.984   9.089
 1333POPC   GL220918  39.230   9.321   9.170
 1333POPC   C1A20919  39.442   8.901   8.659
 1333POPC   D2A20920  39.646   8.833   8.236
 1333POPC   C3A20921  39.279   8.786   7.969
 1333POPC   C4A20922  38.962   9.168   7.904
 1333POPC   C1B20923  39.296   9.393   8.723
 1333POPC   C2B20924  39.350   9.239   8.264
 1333POPC   C3B20925  39.477   9.194   7.803
 1333POPC   C4B20926  39.539   9.247   7.365
 1334POPC   NC320927  43.393  22.642   9.767
 1334POPC   PO420928  43.117  22.030   9.577
 1334POPC   GL120929  43.127  22.276   9.222
 1334POPC   GL220930  42.809  22.418   9.050
 1334POPC   C1A20931  43.340  22.228   8.862
 1334POPC   D2A20932  43.266  22.084   8.473
 1334POPC   C3A20933  43.046  22.308   8.163
 1334POPC   C4A20934  43.177  22.364   7.740
 1334POPC   C1B20935  42.876  22.000   8.852
 1334POPC   C2B20936  42.817  21.870   8.430
 1334POPC   C3B20937  43.000  21.816   8.016
 1334POPC   C4B20938  42.874  21.967   7.606
 1335POPC   NC320939   0.866   9.992   9.457
 1335POPC   PO420940   1.112   9.386   9.665
 1335POPC   GL120941   1.291   9.674   9.298
 1335POPC   GL220942   1.023   9.671   9.100
 1335POPC   C1A20943   1.421   9.851   8.844
 1335POPC   D2A20944   1.208  10.006   8.427
 1335POPC   C3A20945   1.407   9.909   8.012
 1335POPC   C4A20946   1.385   9.734   7.604
 1335POPC   C1B20947   0.759   9.373   8.869
 1335POPC   C2B20948   0.747   9.356   8.434
 1335POPC   C3B20949   0.887   9.687   8.150
 1335POPC   C4B20950   0.867   9.691   7.714
 1336POPC   NC320951  15.782   4.514   9.409
 1336POPC   PO420952  15.848   3.844   9.664
 1336POPC   GL120953  15.823   3.998   9.236
 1336POPC   GL220954  16.088   4.161   9.114
 1336POPC   C1A20955  15.669   4.161   8.812
 1336POPC   D2A20956  15.822   3.998   8.417
 1336POPC   C3A20957  15.725   4.183   8.025
 1336POPC   C4A20958  15.905   4.099   7.656
 1336POPC   C1B20959  16.159   4.292   8.701
 1336POPC   C2B20960  15.956   4.537   8.382
 1336POPC   C3B20961  16.076   4.545   7.955
 1336POPC   C4B20962  16.362   4.302   7.701
 1337POPC   NC320963  15.939   9.439   9.523
 1337POPC   PO420964  15.902  10.077   9.581
 1337POPC   GL120965  16.065   9.800   9.200
 1337POPC   GL220966  16.327   9.523   9.204
 1337POPC   C1A20967  15.925   9.596   8.818
 1337POPC   D2A20968  15.748   9.601   8.406
 1337POPC   C3A20969  15.967   9.864   8.056
 1337POPC   C4A20970  15.704   9.872   7.711
 1337POPC   C1B20971  16.266   9.224   8.854
 1337POPC   C2B20972  16.164   9.133   8.412
 1337POPC   C3B20973  15.975   9.354   8.033
 1337POPC   C4B20974  16.119   9.524   7.630
 1338POPC   NC320975  21.144  27.478   9.828
 1338POPC   PO420976  21.403  27.812   9.318
 1338POPC   GL120977  21.426  27.436   9.170
 1338POPC   GL220978  21.158  27.244   9.295
 1338POPC   C1A20979  21.476  27.484   8.723
 1338POPC   D2A20980  21.507  27.592   8.302
 1338POPC   C3A20981  21.392  27.949   8.084
 1338POPC   C4A20982  21.332  27.879   7.654
 1338POPC   C1B20983  20.977  27.399   8.885
 1338POPC   C2B20984  21.048  27.362   8.407
 1338POPC   C3B20985  21.069  27.564   7.962
 1338POPC   C4B20986  21.017  27.495   7.491
 1339POPC   NC320987   3.518  40.177   9.749
 1339POPC   PO420988   3.804  39.731   9.374
 1339POPC   GL120989   3.456  40.002   9.216
 1339POPC   GL220990   3.708  40.209   9.108
 1339POPC   C1A20991   3.248  39.964   8.797
 1339POPC   D2A20992   3.264  40.208   8.388
 1339POPC   C3A20993   3.310  40.015   7.939
 1339POPC   C4A20994   3.358  40.078   7.432
 1339POPC   C1B20995   3.747  39.883   8.761
 1339POPC   C2B20996   3.562  39.768   8.376
 1339POPC   C3B20997   3.819  39.686   8.018
 1339POPC   C4B20998   3.773  39.829   7.598
 1340POPC   NC320999  37.016  21.324   9.731
 1340POPC   PO421000  36.517  21.585   9.338
 1340POPC   GL121001  36.857  21.358   9.164
 1340POPC   GL221002  37.051  21.589   9.147
 1340POPC   C1A21003  36.932  21.356   8.706
 1340POPC   D2A21004  36.629  21.269   8.389
 1340POPC   C3A21005  36.779  21.165   7.999
 1340POPC   C4A21006  37.054  21.067   7.685
 1340POPC   C1B21007  37.163  21.807   8.772
 1340POPC   C2B21008  37.139  21.677   8.343
 1340POPC   C3B21009  36.829  21.669   8.045
 1340POPC   C4B21010  36.803  21.538   7.622
 1341POPC   NC321011   4.578  10.385   9.487
 1341POPC   PO421012   3.920  10.686   9.495
 1341POPC   GL121013   4.133  10.435   9.207
 1341POPC   GL221014   4.176  10.767   9.070
 1341POPC   C1A21015   4.359  10.245   8.827
 1341POPC   D2A21016   4.608  10.358   8.437
 1341POPC   C3A21017   4.377  10.398   8.026
 1341POPC   C4A21018   4.327  10.534   7.600
 1341POPC   C1B21019   4.363  10.765   8.710
 1341POPC   C2B21020   4.248  10.930   8.338
 1341POPC   C3B21021   4.268  10.927   7.909
 1341POPC   C4B21022   4.061  10.943   7.509
 1342POPC   NC321023   1.364  19.135   9.480
 1342POPC   PO421024   0.726  19.178   9.563
 1342POPC   GL121025   1.039  18.922   9.178
 1342POPC   GL221026   1.300  19.199   8.997
 1342POPC   C1A21027   1.014  18.924   8.713
 1342POPC   D2A21028   1.330  19.167   8.429
 1342POPC   C3A21029   1.230  19.098   8.000
 1342POPC   C4A21030   1.261  19.327   7.640
 1342POPC   C1B21031   1.518  18.851   8.776
 1342POPC   C2B21032   1.787  18.864   8.439
 1342POPC   C3B21033   1.695  18.915   8.015
 1342POPC   C4B21034   1.612  18.946   7.548
 1343POPC   NC321035  13.833  24.658   9.803
 1343POPC   PO421036  13.158  24.493   9.696
 1343POPC   GL121037  13.385  24.766   9.320
 1343POPC   GL221038  13.745  24.624   9.204
 1343POPC   C1A21039  13.369  24.711   8.841
 1343POPC   D2A21040  13.404  24.416   8.472
 1343POPC   C3A21041  13.420  24.549   8.022
 1343POPC   C4A21042  13.387  24.315   7.630
 1343POPC   C1B21043  13.882  24.688   8.744
 1343POPC   C2B21044  13.900  24.498   8.302
 1343POPC   C3B21045  13.930  24.430   7.842
 1343POPC   C4B21046  13.820  24.588   7.470
 1344POPC   NC321047  44.980  24.206   9.339
 1344POPC   PO421048  44.626  24.768   9.508
 1344POPC   GL121049  44.695  24.641   9.126
 1344POPC   GL221050  44.767  24.967   9.044
 1344POPC   C1A21051  44.574  24.500   8.730
 1344POPC   D2A21052  44.361  24.562   8.345
 1344POPC   C3A21053  44.586  24.512   7.950
 1344POPC   C4A21054  44.606  24.329   7.552
 1344POPC   C1B21055  44.960  24.861   8.696
 1344POPC   C2B21056  44.855  24.727   8.337
 1344POPC   C3B21057  44.908  24.915   7.973
 1344POPC   C4B21058  44.939  24.706   7.553
 1345POPC   NC321059  43.574  11.191   9.541
 1345POPC   PO421060  44.082  11.618   9.484
 1345POPC   GL121061  44.110  11.311   9.139
 1345POPC   GL221062  43.827  11.114   9.100
 1345POPC   C1A21063  44.232  11.082   8.750
 1345POPC   D2A21064  43.975  10.909   8.416
 1345POPC   C3A21065  43.974  11.021   7.965
 1345POPC   C4A21066  43.644  11.094   7.651
 1345POPC   C1B21067  43.766  11.302   8.693
 1345POPC   C2B21068  43.914  11.442   8.269
 1345POPC   C3B21069  44.169  11.480   7.854
 1345POPC   C4B21070  44.062  11.274   7.431
 1346POPC   NC321071  12.055  32.863   9.670
 1346POPC   PO421072  12.675  32.671   9.490
 1346POPC   GL121073  12.341  32.934   9.238
 1346POPC   GL221074  11.971  32.864   9.148
 1346POPC   C1A21075  12.233  33.116   8.792
 1346POPC   D2A21076  11.858  33.043   8.501
 1346POPC   C3A21077  11.822  33.224   8.074
 1346POPC   C4A21078  12.119  33.201   7.707
 1346POPC   C1B21079  12.284  32.616   8.851
 1346POPC   C2B21080  12.399  32.729   8.434
 1346POPC   C3B21081  12.183  32.866   8.112
 1346POPC   C4B21082  12.137  32.669   7.748
 1347POPC   NC321083   7.599  43.290   9.580
 1347POPC   PO421084   7.030  42.981   9.526
 1347POPC   GL121085   7.283  43.079   9.201
 1347POPC   GL221086   7.083  43.351   9.131
 1347POPC   C1A21087   7.542  43.030   8.828
 1347POPC   D2A21088   7.635  43.192   8.427
 1347POPC   C3A21089   7.544  43.145   7.986
 1347POPC   C4A21090   7.654  43.395   7.633
 1347POPC   C1B21091   7.063  43.188   8.750
 1347POPC   C2B21092   7.138  43.400   8.400
 1347POPC   C3B21093   6.889  43.499   8.087
 1347POPC   C4B21094   7.124  43.359   7.758
 1348POPC   NC321095  23.484  14.386   9.497
 1348POPC   PO421096  23.949  14.873   9.483
 1348POPC   GL121097  23.913  14.528   9.133
 1348POPC   GL221098  23.582  14.438   9.022
 1348POPC   C1A21099  23.929  14.345   8.696
 1348POPC   D2A21100  23.629  14.450   8.395
 1348POPC   C3A21101  23.829  14.710   8.096
 1348POPC   C4A21102  23.902  14.588   7.694
 1348POPC   C1B21103  23.435  14.124   8.768
 1348POPC   C2B21104  23.670  13.932   8.434
 1348POPC   C3B21105  23.731  14.118   8.010
 1348POPC   C4B21106  23.439  14.277   7.698
 1349POPC   NC321107  23.599  15.178   9.491
 1349POPC   PO421108  24.274  15.265   9.184
 1349POPC   GL121109  23.842  15.269   9.061
 1349POPC   GL221110  23.610  14.945   9.065
 1349POPC   C1A21111  23.729  15.379   8.655
 1349POPC   D2A21112  23.931  15.206   8.306
 1349POPC   C3A21113  23.831  15.409   7.969
 1349POPC   C4A21114  23.420  15.499   7.891
 1349POPC   C1B21115  23.821  14.851   8.719
 1349POPC   C2B21116  23.520  14.938   8.455
 1349POPC   C3B21117  23.420  15.018   8.052
 1349POPC   C4B21118  23.458  14.816   7.679
 1350POPC   NC321119  34.724  14.143   9.399
 1350POPC   PO421120  34.620  14.768   9.224
 1350POPC   GL121121  34.809  14.432   8.968
 1350POPC   GL221122  34.987  14.095   8.958
 1350POPC   C1A21123  34.846  14.340   8.529
 1350POPC   D2A21124  34.810  14.191   8.125
 1350POPC   C3A21125  34.555  14.445   7.909
 1350POPC   C4A21126  34.436  14.682   7.588
 1350POPC   C1B21127  34.545  13.998   8.791
 1350POPC   C2B21128  34.435  13.829   8.410
 1350POPC   C3B21129  34.332  14.003   8.028
 1350POPC   C4B21130  34.595  13.975   7.690
 1351POPC   NC321131   6.980   5.706   9.968
 1351POPC   PO421132   6.498   5.823   9.510
 1351POPC   GL121133   6.516   5.913   9.076
 1351POPC   GL221134   6.398   6.237   9.127
 1351POPC   C1A21135   6.816   5.802   8.706
 1351POPC   D2A21136   7.076   5.699   8.310
 1351POPC   C3A21137   6.903   5.761   7.881
 1351POPC   C4A21138   6.573   5.776   7.552
 1351POPC   C1B21139   6.673   6.320   8.770
 1351POPC   C2B21140   6.751   6.182   8.376
 1351POPC   C3B21141   6.643   6.212   7.977
 1351POPC   C4B21142   6.852   6.211   7.611
 1352POPC   NC321143  35.875  38.164   9.536
 1352POPC   PO421144  36.467  38.363   9.738
 1352POPC   GL121145  36.311  38.387   9.313
 1352POPC   GL221146  36.510  38.226   9.069
 1352POPC   C1A21147  36.202  38.624   8.927
 1352POPC   D2A21148  35.936  38.557   8.539
 1352POPC   C3A21149  36.070  38.598   8.107
 1352POPC   C4A21150  36.362  38.723   7.826
 1352POPC   C1B21151  36.156  38.124   8.779
 1352POPC   C2B21152  36.092  38.108   8.312
 1352POPC   C3B21153  36.104  38.146   7.832
 1352POPC   C4B21154  36.290  37.995   7.415
 1353POPC   NC321155   8.526  33.858   9.530
 1353POPC   PO421156   7.899  33.671   9.676
 1353POPC   GL121157   8.089  33.662   9.290
 1353POPC   GL221158   8.168  33.998   9.202
 1353POPC   C1A21159   7.983  33.487   8.907
 1353POPC   D2A21160   8.201  33.419   8.535
 1353POPC   C3A21161   8.011  33.528   8.167
 1353POPC   C4A21162   8.016  33.564   7.714
 1353POPC   C1B21163   8.339  33.857   8.805
 1353POPC   C2B21164   8.254  33.960   8.376
 1353POPC   C3B21165   8.396  33.809   7.996
 1353POPC   C4B21166   8.569  33.931   7.618
 1354POPC   NC321167  33.080   9.789   9.433
 1354POPC   PO421168  32.549  10.150   9.489
 1354POPC   GL121169  32.641   9.826   9.164
 1354POPC   GL221170  32.766   9.460   9.126
 1354POPC   C1A21171  32.780   9.811   8.741
 1354POPC   D2A21172  32.821   9.520   8.423
 1354POPC   C3A21173  32.788   9.743   8.048
 1354POPC   C4A21174  33.147   9.978   7.873
 1354POPC   C1B21175  33.165   9.449   8.841
 1354POPC   C2B21176  33.432   9.503   8.472
 1354POPC   C3B21177  33.271   9.516   8.075
 1354POPC   C4B21178  33.229   9.216   7.772
 1355POPC   NC321179  17.801  41.046   9.446
 1355POPC   PO421180  17.420  40.491   9.449
 1355POPC   GL121181  17.548  40.552   9.087
 1355POPC   GL221182  17.437  40.885   9.078
 1355POPC   C1A21183  17.366  40.426   8.728
 1355POPC   D2A21184  17.422  40.670   8.382
 1355POPC   C3A21185  17.419  40.448   8.011
 1355POPC   C4A21186  17.626  40.591   7.621
 1355POPC   C1B21187  17.566  41.074   8.705
 1355POPC   C2B21188  17.850  41.072   8.363
 1355POPC   C3B21189  17.598  40.984   7.993
 1355POPC   C4B21190  17.290  41.269   7.831
 1356POPC   NC321191  33.101  31.295   9.682
 1356POPC   PO421192  33.056  30.680   9.640
 1356POPC   GL121193  32.929  30.712   9.203
 1356POPC   GL221194  32.604  30.526   9.135
 1356POPC   C1A21195  33.000  30.596   8.791
 1356POPC   D2A21196  32.886  30.460   8.394
 1356POPC   C3A21197  33.167  30.387   8.047
 1356POPC   C4A21198  33.138  30.650   7.677
 1356POPC   C1B21199  32.518  30.775   8.773
 1356POPC   C2B21200  32.698  30.950   8.438
 1356POPC   C3B21201  32.871  30.869   8.058
 1356POPC   C4B21202  32.684  30.882   7.657
 1357POPC   NC321203  32.969  23.309   9.431
 1357POPC   PO421204  33.310  22.736   9.365
 1357POPC   GL121205  32.962  22.643   9.135
 1357POPC   GL221206  32.978  22.951   9.009
 1357POPC   C1A21207  32.721  22.522   8.769
 1357POPC   D2A21208  32.573  22.691   8.346
 1357POPC   C3A21209  32.908  22.841   8.071
 1357POPC   C4A21210  33.034  22.784   7.596
 1357POPC   C1B21211  32.993  22.911   8.587
 1357POPC   C2B21212  33.179  23.209   8.310
 1357POPC   C3B21213  33.051  23.309   7.914
 1357POPC   C4B21214  33.201  23.246   7.534
 1358POPC   NC321215  21.141  16.320   9.423
 1358POPC   PO421216  20.961  15.684   9.523
 1358POPC   GL121217  21.287  15.869   9.186
 1358POPC   GL221218  21.540  16.160   9.125
 1358POPC   C1A21219  21.254  16.006   8.736
 1358POPC   D2A21220  21.251  16.163   8.307
 1358POPC   C3A21221  21.193  15.870   7.981
 1358POPC   C4A21222  21.130  15.947   7.536
 1358POPC   C1B21223  21.564  16.391   8.721
 1358POPC   C2B21224  21.562  16.586   8.334
 1358POPC   C3B21225  21.747  16.382   8.001
 1358POPC   C4B21226  21.506  16.205   7.736
 1359POPC   NC321227  28.710  31.707   9.420
 1359POPC   PO421228  28.095  31.456   9.473
 1359POPC   GL121229  28.227  31.308   9.100
 1359POPC   GL221230  28.595  31.274   9.125
 1359POPC   C1A21231  28.126  31.482   8.701
 1359POPC   D2A21232  28.278  31.772   8.396
 1359POPC   C3A21233  28.099  31.740   8.024
 1359POPC   C4A21234  28.207  31.410   7.732
 1359POPC   C1B21235  28.614  31.550   8.785
 1359POPC   C2B21236  28.704  31.473   8.372
 1359POPC   C3B21237  28.597  31.620   7.978
 1359POPC   C4B21238  28.660  31.717   7.559
 1360POPC   NC321239  18.840  37.441   9.596
 1360POPC   PO421240  19.310  37.852   9.394
 1360POPC   GL121241  19.101  37.772   9.042
 1360POPC   GL221242  18.860  37.565   9.108
 1360POPC   C1A21243  18.950  37.883   8.659
 1360POPC   D2A21244  19.094  37.958   8.263
 1360POPC   C3A21245  19.133  37.671   7.933
 1360POPC   C4A21246  19.494  37.771   7.726
 1360POPC   C1B21247  18.737  37.417   8.721
 1360POPC   C2B21248  18.771  37.524   8.288
 1360POPC   C3B21249  18.620  37.488   7.848
 1360POPC   C4B21250  18.810  37.516   7.432
 1361POPC   NC321251  14.134  22.832   9.461
 1361POPC   PO421252  14.394  23.425   9.566
 1361POPC   GL121253  14.521  23.159   9.198
 1361POPC   GL221254  14.237  23.072   9.039
 1361POPC   C1A21255  14.645  22.843   8.812
 1361POPC   D2A21256  14.604  22.604   8.383
 1361POPC   C3A21257  14.639  22.802   7.972
 1361POPC   C4A21258  14.507  22.641   7.558
 1361POPC   C1B21259  14.402  23.291   8.723
 1361POPC   C2B21260  14.320  22.999   8.413
 1361POPC   C3B21261  14.138  22.796   8.061
 1361POPC   C4B21262  14.293  23.225   7.942
 1362POPC   NC321263  25.337  17.980   9.795
 1362POPC   PO421264  25.437  17.377   9.470
 1362POPC   GL121265  25.327  17.372   9.024
 1362POPC   GL221266  25.187  17.007   8.918
 1362POPC   C1A21267  25.315  17.696   8.660
 1362POPC   D2A21268  25.139  17.981   8.338
 1362POPC   C3A21269  25.400  17.840   8.003
 1362POPC   C4A21270  25.374  17.463   7.748
 1362POPC   C1B21271  24.982  17.301   8.660
 1362POPC   C2B21272  25.010  17.483   8.238
 1362POPC   C3B21273  24.872  17.402   7.793
 1362POPC   C4B21274  25.026  17.310   7.359
 1363POPC   NC321275  29.423  38.125   9.615
 1363POPC   PO421276  28.802  37.827   9.547
 1363POPC   GL121277  28.989  37.634   9.121
 1363POPC   GL221278  29.216  37.866   8.993
 1363POPC   C1A21279  29.053  37.477   8.689
 1363POPC   D2A21280  28.799  37.353   8.349
 1363POPC   C3A21281  28.957  37.530   7.980
 1363POPC   C4A21282  29.022  37.604   7.539
 1363POPC   C1B21283  28.870  37.947   8.711
 1363POPC   C2B21284  28.870  37.958   8.245
 1363POPC   C3B21285  29.134  38.008   7.836
 1363POPC   C4B21286  28.996  38.079   7.375
 1364POPC   NC321287  10.034  34.303   9.533
 1364POPC   PO421288   9.591  34.773   9.675
 1364POPC   GL121289   9.459  34.719   9.238
 1364POPC   GL221290   9.692  34.456   9.192
 1364POPC   C1A21291   9.388  34.600   8.818
 1364POPC   D2A21292   9.617  34.540   8.434
 1364POPC   C3A21293   9.458  34.613   8.039
 1364POPC   C4A21294   9.654  34.408   7.726
 1364POPC   C1B21295   9.947  34.308   8.849
 1364POPC   C2B21296  10.026  34.217   8.417
 1364POPC   C3B21297  10.089  34.390   8.009
 1364POPC   C4B21298  10.096  34.196   7.609
 1365POPC   NC321299   9.338  10.371   9.531
 1365POPC   PO421300   8.668  10.726   9.477
 1365POPC   GL121301   8.838  10.628   9.087
 1365POPC   GL221302   9.178  10.645   9.117
 1365POPC   C1A21303   8.934  10.620   8.647
 1365POPC   D2A21304   9.247  10.489   8.359
 1365POPC   C3A21305   9.108  10.593   7.946
 1365POPC   C4A21306   8.790  10.514   7.631
 1365POPC   C1B21307   9.236  10.259   8.849
 1365POPC   C2B21308   9.343   9.986   8.509
 1365POPC   C3B21309   9.254  10.057   8.097
 1365POPC   C4B21310   9.184  10.156   7.705
 1366POPC   NC321311  13.152  36.242   9.591
 1366POPC   PO421312  12.606  35.792   9.446
 1366POPC   GL121313  12.673  36.004   9.067
 1366POPC   GL221314  12.814  36.352   9.188
 1366POPC   C1A21315  12.591  35.859   8.617
 1366POPC   D2A21316  12.491  35.826   8.139
 1366POPC   C3A21317  12.870  35.823   7.858
 1366POPC   C4A21318  12.987  36.041   7.472
 1366POPC   C1B21319  12.725  36.384   8.731
 1366POPC   C2B21320  12.802  36.218   8.318
 1366POPC   C3B21321  12.972  36.323   7.945
 1366POPC   C4B21322  13.212  36.471   7.592
 1367POPC   NC321323   4.444   8.254   9.597
 1367POPC   PO421324   3.770   8.300   9.566
 1367POPC   GL121325   4.011   8.266   9.161
 1367POPC   GL221326   4.397   8.258   9.105
 1367POPC   C1A21327   4.016   8.290   8.732
 1367POPC   D2A21328   4.086   8.473   8.334
 1367POPC   C3A21329   4.177   8.248   7.981
 1367POPC   C4A21330   4.601   8.330   7.877
 1367POPC   C1B21331   4.456   8.036   8.754
 1367POPC   C2B21332   4.484   8.106   8.344
 1367POPC   C3B21333   4.565   7.836   8.005
 1367POPC   C4B21334   4.438   7.764   7.595
 1368POPC   NC321335  15.814  24.206   9.458
 1368POPC   PO421336  15.408  24.657   9.446
 1368POPC   GL121337  15.590  24.539   9.101
 1368POPC   GL221338  15.528  24.180   9.037
 1368POPC   C1A21339  15.919  24.657   8.791
 1368POPC   D2A21340  15.883  24.597   8.333
 1368POPC   C3A21341  16.135  24.352   8.043
 1368POPC   C4A21342  16.473  24.053   7.977
 1368POPC   C1B21343  15.518  24.371   8.642
 1368POPC   C2B21344  15.613  24.160   8.297
 1368POPC   C3B21345  15.625  24.286   7.921
 1368POPC   C4B21346  15.755  24.676   7.842
 1369POPC   NC321347  34.794   1.776   9.441
 1369POPC   PO421348  34.119   1.858   9.408
 1369POPC   GL121349  34.408   1.918   9.102
 1369POPC   GL221350  34.730   2.121   9.081
 1369POPC   C1A21351  34.355   2.135   8.728
 1369POPC   D2A21352  34.546   2.158   8.367
 1369POPC   C3A21353  34.343   1.949   8.083
 1369POPC   C4A21354  34.507   1.927   7.672
 1369POPC   C1B21355  34.758   1.791   8.763
 1369POPC   C2B21356  34.665   1.640   8.385
 1369POPC   C3B21357  34.791   1.652   7.983
 1369POPC   C4B21358  35.006   1.914   7.701
 1370POPC   NC321359  21.044  17.990   9.448
 1370POPC   PO421360  20.412  17.759   9.450
 1370POPC   GL121361  20.519  18.151   9.197
 1370POPC   GL221362  20.765  18.383   9.250
 1370POPC   C1A21363  20.353  18.390   8.806
 1370POPC   D2A21364  20.363  18.685   8.451
 1370POPC   C3A21365  20.413  18.456   8.054
 1370POPC   C4A21366  20.546  18.357   7.654
 1370POPC   C1B21367  20.857  18.265   8.835
 1370POPC   C2B21368  20.759  18.369   8.418
 1370POPC   C3B21369  20.846  18.152   8.009
 1370POPC   C4B21370  20.668  17.862   7.702
 1371POPC   NC321371  18.444   7.361   9.571
 1371POPC   PO421372  17.935   7.314   9.284
 1371POPC   GL121373  18.218   7.535   9.068
 1371POPC   GL221374  18.571   7.443   9.072
 1371POPC   C1A21375  18.005   7.540   8.698
 1371POPC   D2A21376  18.026   7.280   8.351
 1371POPC   C3A21377  18.152   7.478   7.966
 1371POPC   C4A21378  17.954   7.484   7.558
 1371POPC   C1B21379  18.491   7.447   8.618
 1371POPC   C2B21380  18.530   7.203   8.247
 1371POPC   C3B21381  18.563   7.165   7.805
 1371POPC   C4B21382  18.506   7.510   7.521
 1372POPC   NC321383   0.045  39.662   9.965
 1372POPC   PO421384   0.577  39.794   9.564
 1372POPC   GL121385   0.576  39.972   9.175
 1372POPC   GL221386   0.801  39.732   9.090
 1372POPC   C1A21387   0.532  40.072   8.734
 1372POPC   D2A21388   0.295  39.900   8.390
 1372POPC   C3A21389   0.286  40.148   8.028
 1372POPC   C4A21390   0.338  40.004   7.608
 1372POPC   C1B21391   0.573  39.567   8.765
 1372POPC   C2B21392   0.732  39.641   8.349
 1372POPC   C3B21393   0.595  39.679   7.909
 1372POPC   C4B21394   0.717  39.732   7.419
 1373POPC   NC321395  23.262  31.529   9.673
 1373POPC   PO421396  22.615  31.309   9.540
 1373POPC   GL121397  22.835  31.567   9.210
 1373POPC   GL221398  23.185  31.601   9.166
 1373POPC   C1A21399  22.953  31.414   8.764
 1373POPC   D2A21400  23.108  31.250   8.361
 1373POPC   C3A21401  22.775  31.181   8.051
 1373POPC   C4A21402  22.817  31.273   7.619
 1373POPC   C1B21403  23.316  31.814   8.795
 1373POPC   C2B21404  23.094  31.792   8.422
 1373POPC   C3B21405  23.018  31.655   8.007
 1373POPC   C4B21406  23.340  31.845   7.756
 1374POPC   NC321407   6.304  42.107   9.520
 1374POPC   PO421408   6.767  42.382   9.372
 1374POPC   GL121409   6.599  42.367   9.005
 1374POPC   GL221410   6.230  42.342   9.057
 1374POPC   C1A21411   6.814  42.289   8.604
 1374POPC   D2A21412   6.910  42.526   8.238
 1374POPC   C3A21413   6.846  42.460   7.784
 1374POPC   C4A21414   6.959  42.160   7.419
 1374POPC   C1B21415   6.312  42.382   8.588
 1374POPC   C2B21416   6.409  42.679   8.242
 1374POPC   C3B21417   6.409  42.762   7.806
 1374POPC   C4B21418   6.294  42.387   7.631
 1375POPC   NC321419  22.420  32.748   9.320
 1375POPC   PO421420  21.999  33.191   9.566
 1375POPC   GL121421  22.071  33.313   9.145
 1375POPC   GL221422  22.026  32.984   9.068
 1375POPC   C1A21423  22.245  33.257   8.699
 1375POPC   D2A21424  22.325  33.023   8.318
 1375POPC   C3A21425  22.131  33.259   7.981
 1375POPC   C4A21426  22.150  33.288   7.552
 1375POPC   C1B21427  22.068  32.738   8.714
 1375POPC   C2B21428  21.822  32.701   8.369
 1375POPC   C3B21429  21.997  32.754   7.991
 1375POPC   C4B21430  22.332  32.827   7.724
 1376POPC   NC321431   8.958  41.780   9.463
 1376POPC   PO421432   9.243  41.225   9.206
 1376POPC   GL121433   8.845  41.294   8.977
 1376POPC   GL221434   8.757  41.595   9.040
 1376POPC   C1A21435   8.814  41.446   8.561
 1376POPC   D2A21436   9.170  41.591   8.347
 1376POPC   C3A21437   9.204  41.450   7.962
 1376POPC   C4A21438   8.801  41.308   7.866
 1376POPC   C1B21439   8.978  41.893   8.755
 1376POPC   C2B21440   8.860  42.011   8.342
 1376POPC   C3B21441   8.814  41.823   7.941
 1376POPC   C4B21442   9.057  41.728   7.564
 1377POPC   NC321443  31.338  24.955   9.618
 1377POPC   PO421444  31.186  25.593   9.559
 1377POPC   GL121445  31.221  25.307   9.219
 1377POPC   GL221446  31.554  25.267   9.204
 1377POPC   C1A21447  31.210  25.159   8.793
 1377POPC   D2A21448  31.317  25.259   8.382
 1377POPC   C3A21449  31.307  25.004   8.017
 1377POPC   C4A21450  31.386  25.115   7.606
 1377POPC   C1B21451  31.657  25.433   8.794
 1377POPC   C2B21452  31.819  25.249   8.427
 1377POPC   C3B21453  31.709  25.380   8.015
 1377POPC   C4B21454  31.895  25.120   7.727
 1378POPC   NC321455   9.389   5.811   9.401
 1378POPC   PO421456   8.979   5.377   9.350
 1378POPC   GL121457   8.918   5.792   9.110
 1378POPC   GL221458   9.219   5.931   8.950
 1378POPC   C1A21459   8.809   5.815   8.659
 1378POPC   D2A21460   9.024   5.700   8.261
 1378POPC   C3A21461   8.763   5.890   7.962
 1378POPC   C4A21462   8.753   6.152   7.611
 1378POPC   C1B21463   9.346   6.019   8.553
 1378POPC   C2B21464   9.121   6.204   8.245
 1378POPC   C3B21465   9.209   6.081   7.852
 1378POPC   C4B21466   9.233   5.965   7.460
 1379POPC   NC321467  42.687  22.157   9.471
 1379POPC   PO421468  42.280  22.691   9.592
 1379POPC   GL121469  42.270  22.490   9.177
 1379POPC   GL221470  42.321  22.129   9.093
 1379POPC   C1A21471  42.134  22.567   8.770
 1379POPC   D2A21472  42.409  22.590   8.404
 1379POPC   C3A21473  42.236  22.464   7.995
 1379POPC   C4A21474  42.415  22.157   7.751
 1379POPC   C1B21475  42.421  22.137   8.647
 1379POPC   C2B21476  42.377  21.962   8.209
 1379POPC   C3B21477  42.544  21.664   7.838
 1379POPC   C4B21478  42.553  21.650   7.368
 1380POPC   NC321479  43.810   9.396   9.371
 1380POPC   PO421480  43.668   9.991   9.526
 1380POPC   GL121481  43.768   9.994   9.103
 1380POPC   GL221482  44.099   9.854   9.066
 1380POPC   C1A21483  43.701   9.736   8.753
 1380POPC   D2A21484  43.877   9.822   8.370
 1380POPC   C3A21485  43.714   9.680   7.989
 1380POPC   C4A21486  43.962  10.021   7.833
 1380POPC   C1B21487  44.165   9.508   8.720
 1380POPC   C2B21488  44.066   9.344   8.290
 1380POPC   C3B21489  44.133   9.385   7.844
 1380POPC   C4B21490  44.292   9.530   7.445
 1381POPC   NC321491  12.168  16.580   9.399
 1381POPC   PO421492  11.607  17.015   9.469
 1381POPC   GL121493  11.802  16.832   9.109
 1381POPC   GL221494  12.181  16.944   9.047
 1381POPC   C1A21495  11.860  16.820   8.672
 1381POPC   D2A21496  11.904  16.564   8.336
 1381POPC   C3A21497  11.858  16.724   7.941
 1381POPC   C4A21498  11.741  16.426   7.609
 1381POPC   C1B21499  12.331  16.655   8.716
 1381POPC   C2B21500  12.379  16.443   8.330
 1381POPC   C3B21501  12.361  16.684   7.950
 1381POPC   C4B21502  12.329  16.545   7.534
 1382POPC   NC321503  12.125  19.446   9.542
 1382POPC   PO421504  11.830  20.097   9.503
 1382POPC   GL121505  12.037  20.033   9.126
 1382POPC   GL221506  12.173  19.712   9.125
 1382POPC   C1A21507  12.267  20.019   8.725
 1382POPC   D2A21508  12.320  20.240   8.338
 1382POPC   C3A21509  12.295  19.969   7.983
 1382POPC   C4A21510  12.184  20.099   7.598
 1382POPC   C1B21511  12.236  19.504   8.750
 1382POPC   C2B21512  12.142  19.660   8.370
 1382POPC   C3B21513  12.009  19.472   8.015
 1382POPC   C4B21514  11.989  19.622   7.626
 1383POPC   NC321515  10.139  37.798   9.549
 1383POPC   PO421516   9.502  37.687   9.415
 1383POPC   GL121517   9.746  37.794   9.083
 1383POPC   GL221518  10.076  37.606   9.067
 1383POPC   C1A21519   9.456  37.749   8.744
 1383POPC   D2A21520   9.355  37.532   8.383
 1383POPC   C3A21521   9.582  37.653   8.027
 1383POPC   C4A21522   9.577  37.863   7.625
 1383POPC   C1B21523   9.943  37.613   8.632
 1383POPC   C2B21524   9.986  37.882   8.282
 1383POPC   C3B21525  10.038  37.829   7.853
 1383POPC   C4B21526   9.995  37.606   7.464
 1384POPC   NC321527   9.717   0.698   9.471
 1384POPC   PO421528   9.322   0.195   9.273
 1384POPC   GL121529   9.598   0.457   9.033
 1384POPC   GL221530   9.941   0.368   9.143
 1384POPC   C1A21531   9.782   0.544   8.625
 1384POPC   D2A21532   9.583   0.534   8.200
 1384POPC   C3A21533   9.762   0.528   7.763
 1384POPC   C4A21534   9.764   0.162   7.438
 1384POPC   C1B21535  10.198   0.238   8.807
 1384POPC   C2B21536  10.231   0.353   8.397
 1384POPC   C3B21537  10.364   0.407   8.008
 1384POPC   C4B21538  10.192   0.241   7.689
 1385POPC   NC321539  23.699  32.053   9.546
 1385POPC   PO421540  24.053  32.528   9.401
 1385POPC   GL121541  23.757  32.326   9.062
 1385POPC   GL221542  23.765  31.955   9.051
 1385POPC   C1A21543  23.583  32.217   8.621
 1385POPC   D2A21544  23.421  32.122   8.197
 1385POPC   C3A21545  23.607  32.289   7.827
 1385POPC   C4A21546  23.582  32.349   7.365
 1385POPC   C1B21547  23.847  31.683   8.743
 1385POPC   C2B21548  23.807  31.805   8.351
 1385POPC   C3B21549  23.881  31.828   7.939
 1385POPC   C4B21550  23.793  31.925   7.515
 1386POPC   NC321551  23.119  28.637   9.574
 1386POPC   PO421552  23.718  28.280   9.466
 1386POPC   GL121553  23.749  28.385   9.089
 1386POPC   GL221554  23.468  28.641   9.106
 1386POPC   C1A21555  23.615  28.295   8.674
 1386POPC   D2A21556  23.348  28.386   8.326
 1386POPC   C3A21557  23.495  28.151   7.972
 1386POPC   C4A21558  23.844  28.210   7.678
 1386POPC   C1B21559  23.786  28.797   8.809
 1386POPC   C2B21560  23.777  28.770   8.398
 1386POPC   C3B21561  23.815  28.605   8.007
 1386POPC   C4B21562  23.518  28.608   7.692
 1387POPC   NC321563   9.335  26.983   9.684
 1387POPC   PO421564   8.775  26.594   9.678
 1387POPC   GL121565   9.051  26.706   9.307
 1387POPC   GL221566   8.776  26.918   9.168
 1387POPC   C1A21567   9.207  26.845   8.873
 1387POPC   D2A21568   8.994  27.051   8.551
 1387POPC   C3A21569   9.092  26.931   8.146
 1387POPC   C4A21570   8.889  27.024   7.763
 1387POPC   C1B21571   8.794  26.556   8.856
 1387POPC   C2B21572   8.900  26.510   8.433
 1387POPC   C3B21573   8.759  26.566   8.035
 1387POPC   C4B21574   8.916  26.540   7.631
 1388POPC   NC321575  33.469  10.710   9.422
 1388POPC   PO421576  34.103  10.458   9.502
 1388POPC   GL121577  33.903  10.527   9.164
 1388POPC   GL221578  33.900  10.881   9.176
 1388POPC   C1A21579  33.664  10.554   8.809
 1388POPC   D2A21580  33.443  10.336   8.520
 1388POPC   C3A21581  33.653  10.523   8.173
 1388POPC   C4A21582  33.767  10.426   7.790
 1388POPC   C1B21583  34.099  10.832   8.782
 1388POPC   C2B21584  34.131  10.611   8.385
 1388POPC   C3B21585  34.171  10.717   7.954
 1388POPC   C4B21586  34.024  10.772   7.521
 1389POPC   NC321587   2.201  21.705   9.509
 1389POPC   PO421588   1.766  21.229   9.637
 1389POPC   GL121589   1.976  21.196   9.236
 1389POPC   GL221590   1.860  21.505   9.104
 1389POPC   C1A21591   2.082  21.114   8.791
 1389POPC   D2A21592   2.258  21.200   8.364
 1389POPC   C3A21593   1.996  21.413   8.033
 1389POPC   C4A21594   2.075  21.318   7.614
 1389POPC   C1B21595   1.647  21.390   8.704
 1389POPC   C2B21596   1.396  21.440   8.361
 1389POPC   C3B21597   1.448  21.564   7.963
 1389POPC   C4B21598   1.652  21.580   7.613
 1390POPC   NC321599   4.891  41.806   9.429
 1390POPC   PO421600   5.230  41.156   9.379
 1390POPC   GL121601   5.100  41.451   9.140
 1390POPC   GL221602   5.364  41.704   9.237
 1390POPC   C1A21603   4.985  41.628   8.767
 1390POPC   D2A21604   4.898  41.443   8.362
 1390POPC   C3A21605   4.859  41.623   7.979
 1390POPC   C4A21606   4.857  41.649   7.528
 1390POPC   C1B21607   5.504  41.479   8.847
 1390POPC   C2B21608   5.302  41.191   8.565
 1390POPC   C3B21609   5.324  41.261   8.103
 1390POPC   C4B21610   5.322  41.622   7.795
 1391POPC   NC321611  13.289   8.438   9.713
 1391POPC   PO421612  12.776   8.074   9.607
 1391POPC   GL121613  12.715   8.142   9.169
 1391POPC   GL221614  12.609   8.505   9.186
 1391POPC   C1A21615  12.932   8.215   8.787
 1391POPC   D2A21616  13.072   8.429   8.422
 1391POPC   C3A21617  12.949   8.283   8.026
 1391POPC   C4A21618  12.762   8.137   7.689
 1391POPC   C1B21619  12.491   8.448   8.759
 1391POPC   C2B21620  12.559   8.261   8.365
 1391POPC   C3B21621  12.367   8.310   7.944
 1391POPC   C4B21622  12.394   8.418   7.461
 1392POPC   NC321623   7.292  32.662   9.335
 1392POPC   PO421624   7.172  32.009   9.396
 1392POPC   GL121625   7.415  32.212   9.075
 1392POPC   GL221626   7.729  32.412   9.185
 1392POPC   C1A21627   7.315  32.259   8.641
 1392POPC   D2A21628   7.588  32.198   8.315
 1392POPC   C3A21629   7.406  32.071   7.931
 1392POPC   C4A21630   7.675  32.056   7.579
 1392POPC   C1B21631   7.659  32.600   8.793
 1392POPC   C2B21632   7.558  32.726   8.389
 1392POPC   C3B21633   7.630  32.591   7.979
 1392POPC   C4B21634   7.371  32.461   7.635
 1393POPC   NC321635  36.870   0.279   9.499
 1393POPC   PO421636  36.687   0.940   9.302
 1393POPC   GL121637  36.680   0.547   9.103
 1393POPC   GL221638  37.016   0.495   9.052
 1393POPC   C1A21639  36.671   0.319   8.694
 1393POPC   D2A21640  36.830   0.302   8.259
 1393POPC   C3A21641  36.616   0.026   7.941
 1393POPC   C4A21642  36.600   0.039   7.441
 1393POPC   C1B21643  36.949   0.755   8.712
 1393POPC   C2B21644  37.059   0.831   8.290
 1393POPC   C3B21645  36.870   0.707   7.923
 1393POPC   C4B21646  36.943   0.344   7.723
 1394POPC   NC321647  26.625   4.120   9.662
 1394POPC   PO421648  27.154   4.499   9.657
 1394POPC   GL121649  27.015   4.429   9.233
 1394POPC   GL221650  26.942   4.092   9.240
 1394POPC   C1A21651  27.052   4.441   8.760
 1394POPC   D2A21652  26.794   4.474   8.367
 1394POPC   C3A21653  26.921   4.443   7.934
 1394POPC   C4A21654  26.886   4.261   7.518
 1394POPC   C1B21655  26.752   4.030   8.840
 1394POPC   C2B21656  26.476   4.094   8.500
 1394POPC   C3B21657  26.613   4.036   8.071
 1394POPC   C4B21658  26.530   3.938   7.644
 1395POPC   NC321659   5.307  20.343   9.541
 1395POPC   PO421660   4.875  20.898   9.715
 1395POPC   GL121661   4.944  20.647   9.296
 1395POPC   GL221662   5.304  20.713   9.175
 1395POPC   C1A21663   4.954  20.645   8.819
 1395POPC   D2A21664   5.228  20.866   8.499
 1395POPC   C3A21665   5.085  20.726   8.128
 1395POPC   C4A21666   4.984  20.751   7.728
 1395POPC   C1B21667   5.444  20.516   8.775
 1395POPC   C2B21668   5.317  20.346   8.369
 1395POPC   C3B21669   5.441  20.390   7.931
 1395POPC   C4B21670   5.348  20.163   7.535
 1396POPC   NC321671  32.834   1.518   9.253
 1396POPC   PO421672  33.413   1.189   9.522
 1396POPC   GL121673  33.205   1.185   9.087
 1396POPC   GL221674  33.329   1.475   8.990
 1396POPC   C1A21675  32.866   1.275   8.677
 1396POPC   D2A21676  32.647   1.403   8.280
 1396POPC   C3A21677  32.811   1.271   7.835
 1396POPC   C4A21678  32.812   1.445   7.385
 1396POPC   C1B21679  33.340   1.213   8.605
 1396POPC   C2B21680  33.195   1.239   8.203
 1396POPC   C3B21681  33.320   1.351   7.812
 1396POPC   C4B21682  33.234   1.126   7.447
 1397POPC   NC321683  37.945  43.441   9.414
 1397POPC   PO421684  37.628  42.850   9.193
 1397POPC   GL121685  37.380  43.145   9.057
 1397POPC   GL221686  37.641  43.353   9.035
 1397POPC   C1A21687  37.391  43.248   8.615
 1397POPC   D2A21688  37.589  42.924   8.359
 1397POPC   C3A21689  37.669  43.027   7.946
 1397POPC   C4A21690  37.464  42.820   7.703
 1397POPC   C1B21691  37.899  43.281   8.676
 1397POPC   C2B21692  37.782  43.386   8.282
 1397POPC   C3B21693  37.989  43.417   7.886
 1397POPC   C4B21694  37.804  43.489   7.495
 1398POPC   NC321695  29.154  12.540   9.399
 1398POPC   PO421696  28.841  13.182   9.453
 1398POPC   GL121697  28.979  12.901   9.078
 1398POPC   GL221698  28.964  12.530   8.931
 1398POPC   C1A21699  29.185  13.006   8.693
 1398POPC   D2A21700  29.303  13.192   8.292
 1398POPC   C3A21701  29.094  13.004   7.883
 1398POPC   C4A21702  28.837  13.056   7.494
 1398POPC   C1B21703  29.350  12.519   8.677
 1398POPC   C2B21704  29.247  12.676   8.273
 1398POPC   C3B21705  29.068  12.474   7.939
 1398POPC   C4B21706  29.316  12.233   7.701
 1399POPC   NC321707  14.282  29.775   9.464
 1399POPC   PO421708  14.895  30.016   9.514
 1399POPC   GL121709  14.723  29.763   9.157
 1399POPC   GL221710  14.400  29.917   9.013
 1399POPC   C1A21711  14.648  29.590   8.737
 1399POPC   D2A21712  14.411  29.771   8.421
 1399POPC   C3A21713  14.569  29.942   8.047
 1399POPC   C4A21714  14.486  29.740   7.671
 1399POPC   C1B21715  14.219  30.141   8.708
 1399POPC   C2B21716  14.340  30.362   8.412
 1399POPC   C3B21717  14.180  30.259   8.068
 1399POPC   C4B21718  14.113  30.025   7.789
 1400POPC   NC321719  43.049  28.008   9.608
 1400POPC   PO421720  42.850  27.370   9.527
 1400POPC   GL121721  43.118  27.469   9.173
 1400POPC   GL221722  43.369  27.236   9.074
 1400POPC   C1A21723  43.102  27.615   8.728
 1400POPC   D2A21724  42.767  27.655   8.401
 1400POPC   C3A21725  42.934  27.715   7.979
 1400POPC   C4A21726  43.064  27.953   7.593
 1400POPC   C1B21727  43.253  27.130   8.671
 1400POPC   C2B21728  43.504  27.378   8.381
 1400POPC   C3B21729  43.550  27.369   7.947
 1400POPC   C4B21730  43.219  27.438   7.683
 1401POPC   NC321731  14.431   7.342   9.413
 1401POPC   PO421732  15.082   7.194   9.341
 1401POPC   GL121733  14.696   7.188   8.990
 1401POPC   GL221734  14.291   7.120   8.989
 1401POPC   C1A21735  14.467   7.542   8.715
 1401POPC   D2A21736  14.160   7.603   8.331
 1401POPC   C3A21737  14.204   7.640   7.819
 1401POPC   C4A21738  14.471   7.573   7.415
 1401POPC   C1B21739  14.189   7.111   8.603
 1401POPC   C2B21740  14.596   7.134   8.429
 1401POPC   C3B21741  14.487   7.294   8.086
 1401POPC   C4B21742  14.279   7.107   7.751
 1402POPC   NC321743  42.359  32.401   9.364
 1402POPC   PO421744  42.219  31.954   9.816
 1402POPC   GL121745  42.274  31.919   9.281
 1402POPC   GL221746  42.619  32.009   9.157
 1402POPC   C1A21747  42.078  32.110   8.854
 1402POPC   D2A21748  42.183  32.347   8.473
 1402POPC   C3A21749  42.035  32.378   8.067
 1402POPC   C4A21750  42.134  32.570   7.665
 1402POPC   C1B21751  42.578  32.138   8.732
 1402POPC   C2B21752  42.726  32.312   8.358
 1402POPC   C3B21753  42.629  32.378   7.946
 1402POPC   C4B21754  42.723  32.010   7.722
 1403POPC   NC321755  15.424   0.306   9.551
 1403POPC   PO421756  15.887   0.665   9.554
 1403POPC   GL121757  16.156   0.712   9.192
 1403POPC   GL221758  15.968   0.428   9.051
 1403POPC   C1A21759  16.127   0.763   8.728
 1403POPC   D2A21760  15.866   0.569   8.432
 1403POPC   C3A21761  15.957   0.617   7.995
 1403POPC   C4A21762  16.041   0.515   7.583
 1403POPC   C1B21763  16.256   0.266   8.706
 1403POPC   C2B21764  16.141   0.155   8.254
 1403POPC   C3B21765  16.176   0.048   7.802
 1403POPC   C4B21766  16.412   0.194   7.443
 1404POPC   NC321767  17.246  42.815   9.811
 1404POPC   PO421768  17.776  42.999   9.511
 1404POPC   GL121769  17.477  42.996   9.172
 1404POPC   GL221770  17.502  43.355   9.057
 1404POPC   C1A21771  17.289  43.032   8.734
 1404POPC   D2A21772  17.385  43.286   8.332
 1404POPC   C3A21773  17.279  43.090   7.934
 1404POPC   C4A21774  17.098  43.165   7.509
 1404POPC   C1B21775  17.793  43.093   8.769
 1404POPC   C2B21776  17.760  42.932   8.342
 1404POPC   C3B21777  17.785  43.149   7.975
 1404POPC   C4B21778  17.621  43.281   7.590
 1405POPC   NC321779  37.317  44.702   9.695
 1405POPC   PO421780  37.968  44.609   9.675
 1405POPC   GL121781  37.823  44.634   9.212
 1405POPC   GL221782  37.724  44.965   9.065
 1405POPC   C1A21783  37.571  44.467   8.866
 1405POPC   D2A21784  37.579  44.238   8.469
 1405POPC   C3A21785  37.340  44.504   8.198
 1405POPC   C4A21786  37.303  44.460   7.761
 1405POPC   C1B21787  37.975  44.744   8.706
 1405POPC   C2B21788  37.801  44.687   8.317
 1405POPC   C3B21789  37.677  44.842   7.922
 1405POPC   C4B21790  37.948   0.016   7.609
 1406POPC   NC321791   2.036  36.209   9.437
 1406POPC   PO421792   2.707  36.236   9.466
 1406POPC   GL121793   2.476  36.323   9.080
 1406POPC   GL221794   2.454  35.963   9.082
 1406POPC   C1A21795   2.516  36.253   8.638
 1406POPC   D2A21796   2.933  36.114   8.476
 1406POPC   C3A21797   2.940  36.164   8.051
 1406POPC   C4A21798   3.270  36.033   7.717
 1406POPC   C1B21799   2.619  35.757   8.693
 1406POPC   C2B21800   2.551  35.843   8.241
 1406POPC   C3B21801   2.495  36.046   7.806
 1406POPC   C4B21802   2.495  36.130   7.336
 1407POPC   NC321803  24.773   5.452   9.504
 1407POPC   PO421804  24.133   5.348   9.809
 1407POPC   GL121805  24.270   5.098   9.286
 1407POPC   GL221806  24.588   5.021   9.252
 1407POPC   C1A21807  24.280   5.259   8.843
 1407POPC   D2A21808  24.192   5.332   8.428
 1407POPC   C3A21809  24.420   5.149   8.107
 1407POPC   C4A21810  24.494   5.351   7.732
 1407POPC   C1B21811  24.716   4.982   8.825
 1407POPC   C2B21812  24.600   4.790   8.470
 1407POPC   C3B21813  24.781   4.771   8.106
 1407POPC   C4B21814  24.805   4.959   7.748
 1408POPC   NC321815  42.603  42.119   9.551
 1408POPC   PO421816  42.011  42.410   9.501
 1408POPC   GL121817  42.303  42.328   9.140
 1408POPC   GL221818  42.683  42.380   9.115
 1408POPC   C1A21819  42.341  42.623   8.779
 1408POPC   D2A21820  42.406  42.548   8.364
 1408POPC   C3A21821  42.086  42.532   8.059
 1408POPC   C4A21822  42.078  42.303   7.668
 1408POPC   C1B21823  42.608  42.185   8.722
 1408POPC   C2B21824  42.775  42.141   8.327
 1408POPC   C3B21825  42.565  42.259   7.969
 1408POPC   C4B21826  42.578  42.316   7.535
 1409POPC   NC321827  31.940  16.868   9.395
 1409POPC   PO421828  32.444  16.500   9.696
 1409POPC   GL121829  32.312  16.509   9.254
 1409POPC   GL221830  32.356  16.856   9.092
 1409POPC   C1A21831  32.227  16.394   8.828
 1409POPC   D2A21832  32.336  16.745   8.574
 1409POPC   C3A21833  32.312  16.752   8.160
 1409POPC   C4A21834  32.350  16.745   7.709
 1409POPC   C1B21835  32.075  17.120   8.775
 1409POPC   C2B21836  31.930  17.077   8.338
 1409POPC   C3B21837  32.088  17.129   7.899
 1409POPC   C4B21838  32.039  17.043   7.426
 1410POPC   NC321839   0.351  11.532   9.500
 1410POPC   PO421840   0.925  11.289   9.665
 1410POPC   GL121841   0.718  11.312   9.258
 1410POPC   GL221842   0.833  11.669   9.187
 1410POPC   C1A21843   0.419  11.170   8.917
 1410POPC   D2A21844   0.249  11.202   8.499
 1410POPC   C3A21845   0.369  11.019   8.108
 1410POPC   C4A21846   0.307  10.817   7.745
 1410POPC   C1B21847   0.747  11.799   8.761
 1410POPC   C2B21848   0.559  11.597   8.401
 1410POPC   C3B21849   0.228  11.495   8.083
 1410POPC   C4B21850   0.458  11.348   7.700
 1411POPC   NC321851   7.724   1.549   9.342
 1411POPC   PO421852   7.544   0.922   9.558
 1411POPC   GL121853   7.380   0.817   9.191
 1411POPC   GL221854   7.374   1.190   9.109
 1411POPC   C1A21855   7.192   0.810   8.826
 1411POPC   D2A21856   7.226   1.060   8.460
 1411POPC   C3A21857   7.195   0.978   8.031
 1411POPC   C4A21858   7.442   1.227   7.764
 1411POPC   C1B21859   7.412   1.446   8.753
 1411POPC   C2B21860   7.257   1.578   8.377
 1411POPC   C3B21861   7.062   1.504   8.000
 1411POPC   C4B21862   7.072   1.516   7.551
 1412POPC   NC321863  43.232  31.275   9.431
 1412POPC   PO421864  42.835  31.778   9.561
 1412POPC   GL121865  43.001  31.650   9.160
 1412POPC   GL221866  42.914  31.287   9.044
 1412POPC   C1A21867  42.954  31.696   8.738
 1412POPC   D2A21868  42.737  31.782   8.364
 1412POPC   C3A21869  42.864  31.606   7.980
 1412POPC   C4A21870  42.864  31.590   7.482
 1412POPC   C1B21871  43.232  31.242   8.742
 1412POPC   C2B21872  43.149  31.397   8.369
 1412POPC   C3B21873  43.377  31.552   8.079
 1412POPC   C4B21874  43.231  31.338   7.710
 1413POPC   NC321875  14.771  28.753   9.333
 1413POPC   PO421876  14.549  29.380   9.468
 1413POPC   GL121877  14.353  29.264   9.104
 1413POPC   GL221878  14.344  28.887   9.070
 1413POPC   C1A21879  14.214  29.260   8.702
 1413POPC   D2A21880  14.486  29.197   8.402
 1413POPC   C3A21881  14.609  29.443   8.059
 1413POPC   C4A21882  14.658  29.274   7.631
 1413POPC   C1B21883  14.121  28.755   8.698
 1413POPC   C2B21884  14.045  28.858   8.278
 1413POPC   C3B21885  14.249  29.107   7.937
 1413POPC   C4B21886  14.202  29.049   7.496
 1414POPC   NC321887  25.366   9.710   9.797
 1414POPC   PO421888  24.921   9.926   9.420
 1414POPC   GL121889  25.261   9.788   9.138
 1414POPC   GL221890  25.563   9.692   9.324
 1414POPC   C1A21891  25.333   9.703   8.671
 1414POPC   D2A21892  25.310   9.907   8.247
 1414POPC   C3A21893  25.327   9.591   7.903
 1414POPC   C4A21894  25.266   9.319   7.493
 1414POPC   C1B21895  25.745   9.835   8.951
 1414POPC   C2B21896  25.791   9.908   8.526
 1414POPC   C3B21897  25.780   9.810   8.093
 1414POPC   C4B21898  25.586   9.995   7.725
 1415POPC   NC321899  16.572   9.193   9.543
 1415POPC   PO421900  16.840   8.634   9.578
 1415POPC   GL121901  16.661   8.832   9.203
 1415POPC   GL221902  16.957   9.031   9.228
 1415POPC   C1A21903  16.683   8.949   8.778
 1415POPC   D2A21904  16.654   9.300   8.490
 1415POPC   C3A21905  16.799   9.165   8.108
 1415POPC   C4A21906  16.679   9.065   7.702
 1415POPC   C1B21907  17.220   8.865   8.910
 1415POPC   C2B21908  17.095   8.881   8.481
 1415POPC   C3B21909  17.221   8.880   8.070
 1415POPC   C4B21910  17.189   9.125   7.729
 1416POPC   NC321911  27.844  14.610   9.314
 1416POPC   PO421912  28.249  14.219   9.777
 1416POPC   GL121913  28.243  14.256   9.309
 1416POPC   GL221914  28.474  14.520   9.267
 1416POPC   C1A21915  28.287  14.121   8.848
 1416POPC   D2A21916  28.589  13.998   8.450
 1416POPC   C3A21917  28.489  14.172   8.038
 1416POPC   C4A21918  28.179  14.147   7.720
 1416POPC   C1B21919  28.328  14.648   8.849
 1416POPC   C2B21920  28.288  14.441   8.448
 1416POPC   C3B21921  28.130  14.553   8.047
 1416POPC   C4B21922  28.438  14.622   7.745
 1417POPC   NC321923  16.636  20.859   9.512
 1417POPC   PO421924  17.074  20.448   9.722
 1417POPC   GL121925  16.997  20.540   9.268
 1417POPC   GL221926  16.636  20.554   9.111
 1417POPC   C1A21927  17.036  20.653   8.827
 1417POPC   D2A21928  16.737  20.512   8.501
 1417POPC   C3A21929  16.782  20.704   8.093
 1417POPC   C4A21930  17.071  20.599   7.785
 1417POPC   C1B21931  16.436  20.231   8.846
 1417POPC   C2B21932  16.309  20.231   8.416
 1417POPC   C3B21933  16.257  20.088   8.014
 1417POPC   C4B21934  16.453  20.422   7.791
 1418POPC   NC321935  32.511  15.490   9.560
 1418POPC   PO421936  32.216  14.880   9.509
 1418POPC   GL121937  32.156  14.952   9.127
 1418POPC   GL221938  32.173  15.307   9.216
 1418POPC   C1A21939  32.370  14.971   8.767
 1418POPC   D2A21940  32.165  15.040   8.436
 1418POPC   C3A21941  32.268  14.837   8.094
 1418POPC   C4A21942  32.243  15.019   7.713
 1418POPC   C1B21943  32.314  15.463   8.844
 1418POPC   C2B21944  32.094  15.551   8.465
 1418POPC   C3B21945  32.206  15.392   8.060
 1418POPC   C4B21946  32.570  15.532   7.858
 1419POPC   NC321947  14.289  37.717   9.593
 1419POPC   PO421948  13.915  37.829   9.131
 1419POPC   GL121949  14.366  37.854   9.073
 1419POPC   GL221950  14.522  37.518   9.158
 1419POPC   C1A21951  14.481  37.900   8.639
 1419POPC   D2A21952  14.181  37.874   8.310
 1419POPC   C3A21953  14.375  37.799   7.943
 1419POPC   C4A21954  14.658  37.937   7.679
 1419POPC   C1B21955  14.327  37.430   8.734
 1419POPC   C2B21956  14.526  37.469   8.309
 1419POPC   C3B21957  14.600  37.352   7.852
 1419POPC   C4B21958  14.239  37.381   7.574
 1420POPC   NC321959   6.162  30.167   9.483
 1420POPC   PO421960   6.576  30.729   9.500
 1420POPC   GL121961   6.611  30.518   9.144
 1420POPC   GL221962   6.297  30.448   9.086
 1420POPC   C1A21963   6.657  30.555   8.703
 1420POPC   D2A21964   6.782  30.902   8.460
 1420POPC   C3A21965   6.623  31.029   8.060
 1420POPC   C4A21966   6.910  30.792   7.810
 1420POPC   C1B21967   6.134  30.485   8.667
 1420POPC   C2B21968   6.341  30.500   8.257
 1420POPC   C3B21969   6.306  30.507   7.805
 1420POPC   C4B21970   6.375  30.473   7.318
 1421POPC   NC321971  34.597   6.115   9.701
 1421POPC   PO421972  34.908   5.627   9.292
 1421POPC   GL121973  34.699   5.990   9.133
 1421POPC   GL221974  34.375   5.851   9.032
 1421POPC   C1A21975  34.646   6.018   8.671
 1421POPC   D2A21976  34.800   5.774   8.384
 1421POPC   C3A21977  34.616   5.896   8.025
 1421POPC   C4A21978  34.435   6.186   7.809
 1421POPC   C1B21979  34.393   5.512   8.716
 1421POPC   C2B21980  34.323   5.261   8.361
 1421POPC   C3B21981  34.387   5.446   7.986
 1421POPC   C4B21982  34.155   5.696   7.737
 1422POPC   NC321983  41.707  16.475   9.425
 1422POPC   PO421984  41.868  17.077   9.403
 1422POPC   GL121985  41.809  16.803   9.031
 1422POPC   GL221986  41.550  16.537   8.947
 1422POPC   C1A21987  41.773  16.806   8.589
 1422POPC   D2A21988  41.517  16.507   8.387
 1422POPC   C3A21989  41.454  16.581   7.955
 1422POPC   C4A21990  41.439  16.865   7.595
 1422POPC   C1B21991  41.878  16.295   8.703
 1422POPC   C2B21992  41.904  16.174   8.253
 1422POPC   C3B21993  41.953  16.410   7.843
 1422POPC   C4B21994  41.922  16.706   7.467
 1423POPC   NC321995  24.361  27.357   9.573
 1423POPC   PO421996  24.183  26.643   9.544
 1423POPC   GL121997  24.385  26.926   9.273
 1423POPC   GL221998  24.739  26.854   9.228
 1423POPC   C1A21999  24.361  26.918   8.840
 1423POPC   D2A22000  24.291  26.649   8.481
 1423POPC   C3A22001  24.187  26.788   8.037
 1423POPC   C4A22002  24.298  26.655   7.581
 1423POPC   C1B22003  24.830  26.725   8.811
 1423POPC   C2B22004  24.755  26.836   8.384
 1423POPC   C3B22005  24.706  26.737   7.957
 1423POPC   C4B22006  24.969  26.912   7.648
 1424POPC   NC322007   2.809   7.760   9.477
 1424POPC   PO422008   2.473   7.147   9.414
 1424POPC   GL122009   2.553   7.488   9.100
 1424POPC   GL222010   2.930   7.499   9.058
 1424POPC   C1A22011   2.620   7.656   8.669
 1424POPC   D2A22012   2.765   7.511   8.274
 1424POPC   C3A22013   2.497   7.527   7.921
 1424POPC   C4A22014   2.460   7.474   7.482
 1424POPC   C1B22015   3.052   7.306   8.669
 1424POPC   C2B22016   3.035   7.029   8.301
 1424POPC   C3B22017   3.095   7.066   7.850
 1424POPC   C4B22018   2.804   7.115   7.504
 1425POPC   NC322019   1.604  39.990   9.629
 1425POPC   PO422020   2.243  40.054   9.620
 1425POPC   GL122021   1.964  40.080   9.245
 1425POPC   GL222022   1.761  39.794   9.188
 1425POPC   C1A22023   1.813  40.183   8.830
 1425POPC   D2A22024   2.007  40.180   8.449
 1425POPC   C3A22025   1.830  40.227   8.056
 1425POPC   C4A22026   2.048  40.191   7.682
 1425POPC   C1B22027   1.887  39.685   8.754
 1425POPC   C2B22028   2.089  39.669   8.363
 1425POPC   C3B22029   1.965  39.683   7.932
 1425POPC   C4B22030   2.214  39.534   7.633
 1426POPC   NC322031   2.443  29.437   9.859
 1426POPC   PO422032   2.951  29.571   9.407
 1426POPC   GL122033   2.847  29.216   9.189
 1426POPC   GL222034   3.197  29.191   9.110
 1426POPC   C1A22035   2.850  29.002   8.783
 1426POPC   D2A22036   2.783  29.118   8.360
 1426POPC   C3A22037   2.616  28.980   7.949
 1426POPC   C4A22038   2.231  29.033   7.675
 1426POPC   C1B22039   3.268  29.408   8.702
 1426POPC   C2B22040   3.042  29.550   8.321
 1426POPC   C3B22041   2.952  29.435   7.931
 1426POPC   C4B22042   3.015  29.107   7.662
 1427POPC   NC322043  43.520  42.425   9.296
 1427POPC   PO422044  43.028  41.925   9.448
 1427POPC   GL122045  43.164  42.113   9.084
 1427POPC   GL222046  43.486  41.960   8.971
 1427POPC   C1A22047  43.091  42.367   8.708
 1427POPC   D2A22048  43.281  42.726   8.502
 1427POPC   C3A22049  43.311  42.694   8.059
 1427POPC   C4A22050  42.999  42.499   7.803
 1427POPC   C1B22051  43.610  42.309   8.682
 1427POPC   C2B22052  43.614  42.352   8.257
 1427POPC   C3B22053  43.722  42.239   7.869
 1427POPC   C4B22054  43.520  42.002   7.579
 1428POPC   NC322055  44.904  25.890   9.536
 1428POPC   PO422056  44.228  25.880   9.427
 1428POPC   GL122057  44.500  26.111   9.164
 1428POPC   GL222058  44.755  25.892   9.055
 1428POPC   C1A22059  44.522  26.261   8.729
 1428POPC   D2A22060  44.804  26.160   8.392
 1428POPC   C3A22061  44.685  26.014   7.971
 1428POPC   C4A22062  44.473  26.304   7.679
 1428POPC   C1B22063  44.445  25.740   8.785
 1428POPC   C2B22064  44.563  25.679   8.379
 1428POPC   C3B22065  44.338  25.638   8.030
 1428POPC   C4B22066  44.444  25.592   7.606
 1429POPC   NC322067  21.961  37.267   9.536
 1429POPC   PO422068  22.058  36.607   9.528
 1429POPC   GL122069  22.006  36.865   9.191
 1429POPC   GL222070  21.740  36.830   8.964
 1429POPC   C1A22071  22.241  36.876   8.813
 1429POPC   D2A22072  22.228  36.665   8.422
 1429POPC   C3A22073  22.180  36.944   8.114
 1429POPC   C4A22074  22.457  36.985   7.782
 1429POPC   C1B22075  21.840  37.172   8.661
 1429POPC   C2B22076  21.961  37.396   8.282
 1429POPC   C3B22077  21.973  37.314   7.838
 1429POPC   C4B22078  21.972  36.891   7.611
 1430POPC   NC322079  39.197   4.669   9.790
 1430POPC   PO422080  38.728   5.015   9.559
 1430POPC   GL122081  38.988   5.169   9.131
 1430POPC   GL222082  39.380   5.202   9.093
 1430POPC   C1A22083  39.141   5.135   8.652
 1430POPC   D2A22084  39.227   4.986   8.219
 1430POPC   C3A22085  39.037   5.263   7.963
 1430POPC   C4A22086  38.908   5.419   7.583
 1430POPC   C1B22087  39.680   5.183   8.697
 1430POPC   C2B22088  39.739   5.062   8.244
 1430POPC   C3B22089  39.542   5.276   7.874
 1430POPC   C4B22090  39.345   5.639   7.725
 1431POPC   NC322091   2.782  10.261   9.354
 1431POPC   PO422092   2.253  10.622   9.186
 1431POPC   GL122093   2.645  10.670   8.987
 1431POPC   GL222094   2.927  10.810   9.112
 1431POPC   C1A22095   2.888  10.468   8.665
 1431POPC   D2A22096   2.979  10.108   8.379
 1431POPC   C3A22097   2.790  10.176   7.992
 1431POPC   C4A22098   2.777  10.538   7.747
 1431POPC   C1B22099   3.256  10.816   8.796
 1431POPC   C2B22100   3.226  11.008   8.358
 1431POPC   C3B22101   3.091  10.936   7.913
 1431POPC   C4B22102   3.236  10.690   7.546
 1432POPC   NC322103  43.935  12.064   9.411
 1432POPC   PO422104  43.320  12.252   9.342
 1432POPC   GL122105  43.642  12.097   9.015
 1432POPC   GL222106  43.772  11.720   9.042
 1432POPC   C1A22107  44.051  12.097   8.785
 1432POPC   D2A22108  44.155  12.146   8.383
 1432POPC   C3A22109  43.945  11.920   8.052
 1432POPC   C4A22110  43.986  12.109   7.637
 1432POPC   C1B22111  43.694  11.807   8.587
 1432POPC   C2B22112  43.431  11.771   8.242
 1432POPC   C3B22113  43.545  11.556   7.898
 1432POPC   C4B22114  43.759  11.669   7.609
 1433POPC   NC322115  40.160  29.201   9.350
 1433POPC   PO422116  39.729  28.726   9.498
 1433POPC   GL122117  39.793  28.903   9.084
 1433POPC   GL222118  39.699  29.246   9.047
 1433POPC   C1A22119  39.821  29.023   8.625
 1433POPC   D2A22120  39.674  29.030   8.200
 1433POPC   C3A22121  40.039  29.114   7.945
 1433POPC   C4A22122  40.169  28.922   7.571
 1433POPC   C1B22123  39.632  29.537   8.715
 1433POPC   C2B22124  39.489  29.511   8.269
 1433POPC   C3B22125  39.647  29.424   7.844
 1433POPC   C4B22126  39.704  29.443   7.342
 1434POPC   NC322127  32.299  12.452   9.468
 1434POPC   PO422128  32.175  13.073   9.744
 1434POPC   GL122129  32.174  12.940   9.285
 1434POPC   GL222130  32.505  12.782   9.140
 1434POPC   C1A22131  32.009  12.845   8.855
 1434POPC   D2A22132  31.957  12.535   8.507
 1434POPC   C3A22133  31.943  12.752   8.108
 1434POPC   C4A22134  31.933  13.017   7.741
 1434POPC   C1B22135  32.460  12.601   8.710
 1434POPC   C2B22136  32.402  12.854   8.322
 1434POPC   C3B22137  32.431  12.954   7.857
 1434POPC   C4B22138  32.696  12.744   7.557
 1435POPC   NC322139  39.021  24.030   9.422
 1435POPC   PO422140  39.527  23.634   9.536
 1435POPC   GL122141  39.332  23.738   9.151
 1435POPC   GL222142  39.117  23.446   9.253
 1435POPC   C1A22143  39.331  24.040   8.765
 1435POPC   D2A22144  39.235  24.172   8.316
 1435POPC   C3A22145  39.428  24.025   7.946
 1435POPC   C4A22146  39.193  23.819   7.603
 1435POPC   C1B22147  39.165  23.345   8.837
 1435POPC   C2B22148  39.174  23.626   8.478
 1435POPC   C3B22149  39.046  23.616   8.056
 1435POPC   C4B22150  39.077  23.324   7.714
 1436POPC   NC322151   8.138  17.639   9.490
 1436POPC   PO422152   8.615  17.204   9.379
 1436POPC   GL122153   8.326  17.388   9.067
 1436POPC   GL222154   8.471  17.730   9.105
 1436POPC   C1A22155   7.970  17.521   8.769
 1436POPC   D2A22156   7.867  17.758   8.385
 1436POPC   C3A22157   7.897  17.634   7.941
 1436POPC   C4A22158   8.087  17.334   7.661
 1436POPC   C1B22159   8.420  17.790   8.697
 1436POPC   C2B22160   8.418  17.673   8.324
 1436POPC   C3B22161   8.487  17.447   7.979
 1436POPC   C4B22162   8.375  17.736   7.722
 1437POPC   NC322163  18.472  17.970   9.273
 1437POPC   PO422164  17.942  17.981   9.677
 1437POPC   GL122165  17.979  18.086   9.200
 1437POPC   GL222166  18.178  18.401   9.158
 1437POPC   C1A22167  18.170  18.099   8.725
 1437POPC   D2A22168  18.370  18.276   8.329
 1437POPC   C3A22169  18.096  18.180   7.957
 1437POPC   C4A22170  17.906  17.805   7.783
 1437POPC   C1B22171  18.265  18.617   8.744
 1437POPC   C2B22172  18.622  18.755   8.494
 1437POPC   C3B22173  18.613  18.671   8.058
 1437POPC   C4B22174  18.505  18.383   7.732
 1438POPC   NC322175  26.908  25.616   9.477
 1438POPC   PO422176  26.878  24.921   9.544
 1438POPC   GL122177  26.756  25.166   9.198
 1438POPC   GL222178  27.056  25.224   9.105
 1438POPC   C1A22179  26.732  25.072   8.765
 1438POPC   D2A22180  26.822  25.269   8.403
 1438POPC   C3A22181  26.577  25.207   8.048
 1438POPC   C4A22182  26.775  25.252   7.669
 1438POPC   C1B22183  27.203  25.362   8.752
 1438POPC   C2B22184  27.200  25.631   8.409
 1438POPC   C3B22185  27.081  25.451   8.019
 1438POPC   C4B22186  27.281  25.507   7.639
 1439POPC   NC322187  24.006  25.052   9.460
 1439POPC   PO422188  23.600  25.570   9.364
 1439POPC   GL122189  23.799  25.270   9.050
 1439POPC   GL222190  24.088  25.107   8.923
 1439POPC   C1A22191  23.673  25.078   8.645
 1439POPC   D2A22192  23.872  25.109   8.238
 1439POPC   C3A22193  23.608  25.306   7.954
 1439POPC   C4A22194  23.289  25.052   7.806
 1439POPC   C1B22195  23.942  25.509   8.644
 1439POPC   C2B22196  23.988  25.612   8.237
 1439POPC   C3B22197  24.113  25.374   7.867
 1439POPC   C4B22198  24.123  25.383   7.412
 1440POPC   NC322199  28.417  30.869   9.367
 1440POPC   PO422200  28.003  30.476   9.652
 1440POPC   GL122201  28.203  30.362   9.141
 1440POPC   GL222202  28.415  30.656   8.927
 1440POPC   C1A22203  28.316  30.264   8.665
 1440POPC   D2A22204  28.512  30.603   8.396
 1440POPC   C3A22205  28.417  30.611   7.947
 1440POPC   C4A22206  28.593  30.365   7.624
 1440POPC   C1B22207  28.423  31.058   8.677
 1440POPC   C2B22208  28.271  31.235   8.268
 1440POPC   C3B22209  28.547  31.099   7.954
 1440POPC   C4B22210  28.492  30.899   7.531
 1441POPC   NC322211   7.351  25.535   9.507
 1441POPC   PO422212   7.267  24.913   9.331
 1441POPC   GL122213   7.456  25.226   9.106
 1441POPC   GL222214   7.125  25.385   9.078
 1441POPC   C1A22215   7.476  25.307   8.688
 1441POPC   D2A22216   7.433  25.023   8.379
 1441POPC   C3A22217   7.553  25.207   8.056
 1441POPC   C4A22218   7.509  24.928   7.803
 1441POPC   C1B22219   6.978  25.231   8.677
 1441POPC   C2B22220   7.088  25.388   8.251
 1441POPC   C3B22221   7.085  25.279   7.799
 1441POPC   C4B22222   7.078  25.443   7.367
 1442POPC   NC322223  33.562  17.244   9.457
 1442POPC   PO422224  32.996  17.635   9.528
 1442POPC   GL122225  33.155  17.629   9.133
 1442POPC   GL222226  33.191  17.278   9.119
 1442POPC   C1A22227  32.915  17.571   8.747
 1442POPC   D2A22228  32.947  17.291   8.377
 1442POPC   C3A22229  32.980  17.510   7.998
 1442POPC   C4A22230  32.819  17.789   7.693
 1442POPC   C1B22231  33.322  17.260   8.730
 1442POPC   C2B22232  33.397  16.985   8.392
 1442POPC   C3B22233  33.274  17.090   7.998
 1442POPC   C4B22234  33.488  17.358   7.748
 1443POPC   NC322235  30.997   6.528   9.378
 1443POPC   PO422236  30.385   6.827   9.411
 1443POPC   GL122237  30.668   6.761   9.039
 1443POPC   GL222238  30.844   6.434   8.911
 1443POPC   C1A22239  30.840   6.871   8.638
 1443POPC   D2A22240  31.024   6.613   8.333
 1443POPC   C3A22241  30.752   6.570   8.000
 1443POPC   C4A22242  30.920   6.660   7.609
 1443POPC   C1B22243  30.459   6.292   8.732
 1443POPC   C2B22244  30.263   6.267   8.331
 1443POPC   C3B22245  30.368   6.205   7.899
 1443POPC   C4B22246  30.755   6.187   7.651
 1444POPC   NC322247   3.232  24.642   9.410
 1444POPC   PO422248   3.842  24.256   9.626
 1444POPC   GL122249   3.628  24.226   9.215
 1444POPC   GL222250   3.683  24.521   9.030
 1444POPC   C1A22251   3.363  24.164   8.822
 1444POPC   D2A22252   3.416  24.043   8.379
 1444POPC   C3A22253   3.395  24.409   8.090
 1444POPC   C4A22254   3.467  24.429   7.644
 1444POPC   C1B22255   3.958  24.851   8.858
 1444POPC   C2B22256   3.959  24.979   8.463
 1444POPC   C3B22257   3.687  25.149   8.173
 1444POPC   C4B22258   3.608  24.853   7.873
 1445POPC   NC322259  20.907  40.381   9.579
 1445POPC   PO422260  20.622  39.807   9.366
 1445POPC   GL122261  20.633  39.840   8.984
 1445POPC   GL222262  20.311  39.675   8.968
 1445POPC   C1A22263  20.757  40.023   8.616
 1445POPC   D2A22264  20.484  40.112   8.302
 1445POPC   C3A22265  20.592  40.014   7.901
 1445POPC   C4A22266  20.944  40.248   7.744
 1445POPC   C1B22267  20.397  39.646   8.530
 1445POPC   C2B22268  20.189  39.716   8.131
 1445POPC   C3B22269  20.285  39.646   7.686
 1445POPC   C4B22270  20.270  39.904   7.322
 1446POPC   NC322271  20.493  37.032   9.725
 1446POPC   PO422272  21.058  36.629   9.547
 1446POPC   GL122273  20.822  36.941   9.266
 1446POPC   GL222274  20.557  36.771   9.103
 1446POPC   C1A22275  20.752  37.145   8.840
 1446POPC   D2A22276  20.384  36.953   8.627
 1446POPC   C3A22277  20.346  36.908   8.172
 1446POPC   C4A22278  20.652  36.999   7.895
 1446POPC   C1B22279  20.508  36.459   8.771
 1446POPC   C2B22280  20.745  36.352   8.427
 1446POPC   C3B22281  20.763  36.523   8.035
 1446POPC   C4B22282  20.399  36.557   7.770
 1447POPC   NC322283   5.730  27.975   9.612
 1447POPC   PO422284   5.965  28.661   9.448
 1447POPC   GL122285   5.781  28.320   9.206
 1447POPC   GL222286   6.089  28.326   9.033
 1447POPC   C1A22287   5.625  28.145   8.795
 1447POPC   D2A22288   5.592  28.394   8.402
 1447POPC   C3A22289   5.713  28.239   8.009
 1447POPC   C4A22290   5.675  28.532   7.690
 1447POPC   C1B22291   6.332  28.374   8.667
 1447POPC   C2B22292   6.149  28.376   8.290
 1447POPC   C3B22293   6.117  28.553   7.914
 1447POPC   C4B22294   6.178  28.546   7.450
 1448POPC   NC322295  10.045  38.597   9.503
 1448POPC   PO422296   9.451  38.386   9.640
 1448POPC   GL122297   9.574  38.348   9.215
 1448POPC   GL222298   9.690  38.680   9.158
 1448POPC   C1A22299   9.513  38.264   8.772
 1448POPC   D2A22300   9.486  38.069   8.353
 1448POPC   C3A22301   9.673  38.206   7.980
 1448POPC   C4A22302   9.533  38.414   7.617
 1448POPC   C1B22303   9.959  38.512   8.815
 1448POPC   C2B22304   9.933  38.404   8.372
 1448POPC   C3B22305   9.886  38.669   7.982
 1448POPC   C4B22306  10.032  38.649   7.526
 1449POPC   NC322307  27.417  22.096   9.517
 1449POPC   PO422308  27.676  22.649   9.450
 1449POPC   GL122309  27.748  22.261   9.151
 1449POPC   GL222310  27.745  21.847   9.228
 1449POPC   C1A22311  27.599  22.142   8.738
 1449POPC   D2A22312  27.342  22.292   8.374
 1449POPC   C3A22313  27.504  22.399   7.975
 1449POPC   C4A22314  27.482  22.352   7.537
 1449POPC   C1B22315  27.895  21.695   8.839
 1449POPC   C2B22316  27.767  21.741   8.403
 1449POPC   C3B22317  27.497  21.895   8.082
 1449POPC   C4B22318  27.517  21.854   7.648
 1450POPC   NC322319  41.967  23.344   9.557
 1450POPC   PO422320  41.493  23.806   9.532
 1450POPC   GL122321  41.625  23.873   9.152
 1450POPC   GL222322  41.859  24.181   9.161
 1450POPC   C1A22323  41.371  23.743   8.800
 1450POPC   D2A22324  41.227  23.821   8.375
 1450POPC   C3A22325  41.316  23.579   8.082
 1450POPC   C4A22326  41.440  23.708   7.703
 1450POPC   C1B22327  41.656  24.163   8.746
 1450POPC   C2B22328  41.707  23.872   8.420
 1450POPC   C3B22329  41.790  23.764   8.065
 1450POPC   C4B22330  41.800  24.069   7.680
 1451POPC   NC322331  43.738  20.957   9.451
 1451POPC   PO422332  44.277  20.512   9.501
 1451POPC   GL122333  44.037  20.657   9.136
 1451POPC   GL222334  44.061  20.997   9.003
 1451POPC   C1A22335  44.018  20.514   8.723
 1451POPC   D2A22336  44.175  20.275   8.391
 1451POPC   C3A22337  43.960  20.296   8.004
 1451POPC   C4A22338  44.032  20.485   7.637
 1451POPC   C1B22339  44.011  20.985   8.550
 1451POPC   C2B22340  43.774  20.706   8.299
 1451POPC   C3B22341  43.523  20.594   7.949
 1451POPC   C4B22342  43.547  20.463   7.525
 1452POPC   NC322343  21.602  36.525   9.432
 1452POPC   PO422344  21.581  37.191   9.297
 1452POPC   GL122345  21.276  37.081   9.012
 1452POPC   GL222346  21.263  36.738   9.098
 1452POPC   C1A22347  21.346  36.961   8.615
 1452POPC   D2A22348  21.681  36.807   8.359
 1452POPC   C3A22349  21.618  36.954   7.957
 1452POPC   C4A22350  21.410  37.236   7.684
 1452POPC   C1B22351  20.958  36.685   8.784
 1452POPC   C2B22352  20.840  36.881   8.407
 1452POPC   C3B22353  21.123  36.976   8.106
 1452POPC   C4B22354  21.158  36.800   7.729
 1453POPC   NC322355  40.156  11.559   9.542
 1453POPC   PO422356  40.318  10.910   9.548
 1453POPC   GL122357  40.119  11.150   9.187
 1453POPC   GL222358  39.947  11.513   9.078
 1453POPC   C1A22359  39.827  11.087   8.848
 1453POPC   D2A22360  39.806  11.390   8.545
 1453POPC   C3A22361  39.882  11.292   8.125
 1453POPC   C4A22362  39.660  11.192   7.736
 1453POPC   C1B22363  40.291  11.426   8.801
 1453POPC   C2B22364  40.381  11.332   8.400
 1453POPC   C3B22365  40.336  11.539   8.041
 1453POPC   C4B22366  40.176  11.321   7.709
 1454POPC   NC322367  31.048  16.685   9.497
 1454POPC   PO422368  30.310  16.554   9.397
 1454POPC   GL122369  30.456  16.557   9.008
 1454POPC   GL222370  30.753  16.772   9.082
 1454POPC   C1A22371  30.537  16.782   8.633
 1454POPC   D2A22372  30.578  16.596   8.277
 1454POPC   C3A22373  30.409  16.755   7.915
 1454POPC   C4A22374  30.566  16.950   7.556
 1454POPC   C1B22375  30.918  16.426   8.841
 1454POPC   C2B22376  31.050  16.523   8.439
 1454POPC   C3B22377  30.982  16.516   7.985
 1454POPC   C4B22378  31.182  16.203   7.760
 1455POPC   NC322379  40.465  39.087   9.380
 1455POPC   PO422380  40.939  39.444   9.607
 1455POPC   GL122381  41.047  39.364   9.173
 1455POPC   GL222382  40.833  39.085   9.024
 1455POPC   C1A22383  40.887  39.517   8.762
 1455POPC   D2A22384  40.651  39.279   8.481
 1455POPC   C3A22385  40.915  39.177   8.170
 1455POPC   C4A22386  40.974  39.495   7.864
 1455POPC   C1B22387  40.481  38.879   8.758
 1455POPC   C2B22388  40.526  38.736   8.339
 1455POPC   C3B22389  40.425  39.048   8.053
 1455POPC   C4B22390  40.714  39.054   7.709
 1456POPC   NC322391  35.101  30.875   9.481
 1456POPC   PO422392  35.669  30.650   9.226
 1456POPC   GL122393  35.330  30.512   9.008
 1456POPC   GL222394  35.098  30.748   8.982
 1456POPC   C1A22395  35.277  30.383   8.640
 1456POPC   D2A22396  35.536  30.601   8.365
 1456POPC   C3A22397  35.367  30.440   7.984
 1456POPC   C4A22398  35.222  30.655   7.590
 1456POPC   C1B22399  35.134  30.876   8.579
 1456POPC   C2B22400  35.279  31.073   8.238
 1456POPC   C3B22401  35.031  31.039   7.882
 1456POPC   C4B22402  34.958  31.050   7.426
 1457POPC   NC322403  24.428  15.668   9.382
 1457POPC   PO422404  24.045  16.251   9.485
 1457POPC   GL122405  24.361  16.088   9.107
 1457POPC   GL222406  24.732  16.017   9.137
 1457POPC   C1A22407  24.448  15.821   8.722
 1457POPC   D2A22408  24.551  15.780   8.284
 1457POPC   C3A22409  24.256  15.792   7.910
 1457POPC   C4A22410  24.184  15.897   7.463
 1457POPC   C1B22411  24.834  16.151   8.710
 1457POPC   C2B22412  24.935  16.248   8.276
 1457POPC   C3B22413  24.647  16.154   7.939
 1457POPC   C4B22414  24.574  16.205   7.523
 1458POPC   NC322415  21.604  24.856   9.510
 1458POPC   PO422416  21.223  25.348   9.455
 1458POPC   GL122417  21.261  25.109   9.074
 1458POPC   GL222418  21.563  25.016   9.014
 1458POPC   C1A22419  21.230  25.069   8.612
 1458POPC   D2A22420  21.012  25.373   8.326
 1458POPC   C3A22421  20.952  25.332   7.892
 1458POPC   C4A22422  21.309  25.311   7.648
 1458POPC   C1B22423  21.575  25.411   8.776
 1458POPC   C2B22424  21.530  25.398   8.349
 1458POPC   C3B22425  21.726  25.307   7.987
 1458POPC   C4B22426  21.862  25.530   7.681
 1459POPC   NC322427  28.138  32.661   9.467
 1459POPC   PO422428  28.615  32.148   9.558
 1459POPC   GL122429  28.466  32.080   9.125
 1459POPC   GL222430  28.261  32.374   9.059
 1459POPC   C1A22431  28.448  32.159   8.668
 1459POPC   D2A22432  28.476  32.411   8.318
 1459POPC   C3A22433  28.429  32.175   7.955
 1459POPC   C4A22434  28.593  32.265   7.549
 1459POPC   C1B22435  28.087  32.578   8.669
 1459POPC   C2B22436  28.122  32.800   8.280
 1459POPC   C3B22437  28.166  32.622   7.906
 1459POPC   C4B22438  27.916  32.616   7.560
 1460POPC   NC322439   2.155   1.843   9.623
 1460POPC   PO422440   1.660   2.247   9.692
 1460POPC   GL122441   1.741   2.236   9.245
 1460POPC   GL222442   2.007   2.442   9.154
 1460POPC   C1A22443   1.824   2.040   8.835
 1460POPC   D2A22444   1.942   1.795   8.445
 1460POPC   C3A22445   1.754   1.999   8.083
 1460POPC   C4A22446   1.786   2.008   7.645
 1460POPC   C1B22447   2.239   2.363   8.740
 1460POPC   C2B22448   2.182   2.251   8.291
 1460POPC   C3B22449   2.243   2.020   7.905
 1460POPC   C4B22450   2.248   2.159   7.473
 1461POPC   NC322451  21.311  17.062   9.283
 1461POPC   PO422452  21.569  16.494   9.526
 1461POPC   GL122453  21.596  16.674   9.137
 1461POPC   GL222454  21.252  16.642   9.007
 1461POPC   C1A22455  21.672  16.901   8.738
 1461POPC   D2A22456  21.392  17.109   8.448
 1461POPC   C3A22457  21.523  17.031   8.038
 1461POPC   C4A22458  21.412  16.699   7.747
 1461POPC   C1B22459  21.087  16.551   8.599
 1461POPC   C2B22460  20.835  16.500   8.221
 1461POPC   C3B22461  21.018  16.353   7.844
 1461POPC   C4B22462  21.047  16.464   7.410
 1462POPC   NC322463  44.374  14.567   9.544
 1462POPC   PO422464  44.602  13.918   9.470
 1462POPC   GL122465  44.604  14.265   9.144
 1462POPC   GL222466  44.708  14.615   9.145
 1462POPC   C1A22467  44.637  14.232   8.702
 1462POPC   D2A22468  44.679  13.923   8.420
 1462POPC   C3A22469  44.500  14.105   8.083
 1462POPC   C4A22470  44.597  14.474   7.872
 1462POPC   C1B22471  44.971  14.581   8.772
 1462POPC   C2B22472  44.879  14.519   8.324
 1462POPC   C3B22473   0.096  14.527   7.938
 1462POPC   C4B22474   0.086  14.263   7.566
 1463POPC   NC322475  11.357  25.453   9.460
 1463POPC   PO422476  11.510  24.808   9.619
 1463POPC   GL122477  11.367  25.022   9.152
 1463POPC   GL222478  11.071  25.194   9.094
 1463POPC   C1A22479  11.509  25.234   8.754
 1463POPC   D2A22480  11.661  25.284   8.330
 1463POPC   C3A22481  11.455  25.002   8.055
 1463POPC   C4A22482  11.488  25.023   7.597
 1463POPC   C1B22483  11.110  25.558   8.808
 1463POPC   C2B22484  11.105  25.519   8.356
 1463POPC   C3B22485  11.326  25.498   7.969
 1463POPC   C4B22486  11.195  25.518   7.566
 1464POPC   NC322487   4.116  23.126   9.502
 1464POPC   PO422488   4.688  22.723   9.630
 1464POPC   GL122489   4.527  22.856   9.222
 1464POPC   GL222490   4.725  23.155   9.228
 1464POPC   C1A22491   4.177  22.864   8.873
 1464POPC   D2A22492   4.255  22.865   8.405
 1464POPC   C3A22493   4.080  23.044   8.010
 1464POPC   C4A22494   4.025  22.888   7.587
 1464POPC   C1B22495   4.588  23.155   8.788
 1464POPC   C2B22496   4.777  23.021   8.414
 1464POPC   C3B22497   4.629  23.005   8.008
 1464POPC   C4B22498   4.513  23.023   7.592
 1465POPC   NC322499  33.058   2.365  10.081
 1465POPC   PO422500  32.758   2.818   9.700
 1465POPC   GL122501  32.908   2.821   9.292
 1465POPC   GL222502  32.715   2.544   9.183
 1465POPC   C1A22503  33.047   2.842   8.852
 1465POPC   D2A22504  33.155   2.953   8.431
 1465POPC   C3A22505  33.014   2.646   8.136
 1465POPC   C4A22506  32.973   2.419   7.754
 1465POPC   C1B22507  32.565   2.908   8.938
 1465POPC   C2B22508  32.628   2.937   8.505
 1465POPC   C3B22509  32.734   3.076   8.092
 1465POPC   C4B22510  32.664   2.965   7.684
 1466POPC   NC322511  36.257   1.056   9.524
 1466POPC   PO422512  36.099   1.746   9.374
 1466POPC   GL122513  35.960   1.399   9.111
 1466POPC   GL222514  36.098   1.057   9.058
 1466POPC   C1A22515  35.981   1.348   8.663
 1466POPC   D2A22516  36.272   1.182   8.353
 1466POPC   C3A22517  36.161   1.276   7.938
 1466POPC   C4A22518  35.893   1.626   7.829
 1466POPC   C1B22519  36.363   0.822   8.753
 1466POPC   C2B22520  36.553   0.741   8.380
 1466POPC   C3B22521  36.385   0.775   8.006
 1466POPC   C4B22522  36.500   0.981   7.636
 1467POPC   NC322523  36.446   7.323   9.488
 1467POPC   PO422524  35.765   7.527   9.530
 1467POPC   GL122525  36.021   7.506   9.137
 1467POPC   GL222526  36.323   7.714   9.167
 1467POPC   C1A22527  36.291   7.290   8.802
 1467POPC   D2A22528  36.324   6.927   8.500
 1467POPC   C3A22529  36.215   7.010   8.062
 1467POPC   C4A22530  36.110   7.184   7.653
 1467POPC   C1B22531  36.240   7.796   8.750
 1467POPC   C2B22532  36.052   7.662   8.378
 1467POPC   C3B22533  36.234   7.534   8.010
 1467POPC   C4B22534  36.444   7.772   7.665
 1468POPC   NC322535  16.372  10.193   9.582
 1468POPC   PO422536  16.722   9.625   9.528
 1468POPC   GL122537  16.799   9.845   9.133
 1468POPC   GL222538  16.524  10.013   9.138
 1468POPC   C1A22539  16.853  10.037   8.721
 1468POPC   D2A22540  16.796   9.790   8.348
 1468POPC   C3A22541  16.837  10.032   7.979
 1468POPC   C4A22542  17.180  10.075   7.698
 1468POPC   C1B22543  16.404   9.788   8.776
 1468POPC   C2B22544  16.271   9.640   8.400
 1468POPC   C3B22545  16.470   9.550   8.007
 1468POPC   C4B22546  16.860   9.548   7.752
 1469POPC   NC322547  44.061  28.802   9.412
 1469POPC   PO422548  43.616  29.339   9.524
 1469POPC   GL122549  43.706  29.078   9.136
 1469POPC   GL222550  44.035  29.174   9.063
 1469POPC   C1A22551  43.688  28.921   8.698
 1469POPC   D2A22552  43.601  29.173   8.336
 1469POPC   C3A22553  43.769  29.091   7.940
 1469POPC   C4A22554  43.914  28.929   7.589
 1469POPC   C1B22555  44.011  29.332   8.657
 1469POPC   C2B22556  44.143  29.152   8.268
 1469POPC   C3B22557  44.238  29.312   7.860
 1469POPC   C4B22558  44.422  29.034   7.568
 1470POPC   NC322559   4.505  40.276   9.873
 1470POPC   PO422560   4.318  40.845   9.645
 1470POPC   GL122561   4.500  40.983   9.258
 1470POPC   GL222562   4.582  40.648   9.217
 1470POPC   C1A22563   4.329  40.983   8.833
 1470POPC   D2A22564   4.277  40.690   8.487
 1470POPC   C3A22565   4.229  40.887   8.091
 1470POPC   C4A22566   3.883  40.735   7.835
 1470POPC   C1B22567   4.695  40.590   8.794
 1470POPC   C2B22568   4.715  40.324   8.446
 1470POPC   C3B22569   4.519  40.430   8.088
 1470POPC   C4B22570   4.491  40.686   7.725
 1471POPC   NC322571  11.975   1.153   9.522
 1471POPC   PO422572  12.541   1.489   9.365
 1471POPC   GL122573  12.283   1.292   9.079
 1471POPC   GL222574  12.300   0.939   9.155
 1471POPC   C1A22575  12.210   1.424   8.648
 1471POPC   D2A22576  11.973   1.285   8.294
 1471POPC   C3A22577  12.056   1.279   7.855
 1471POPC   C4A22578  11.898   1.001   7.558
 1471POPC   C1B22579  12.027   0.960   8.772
 1471POPC   C2B22580  12.145   0.785   8.398
 1471POPC   C3B22581  12.148   0.785   7.955
 1471POPC   C4B22582  12.280   0.684   7.519
 1472POPC   NC322583  28.941  25.434   9.597
 1472POPC   PO422584  29.561  25.055   9.685
 1472POPC   GL122585  29.318  25.173   9.327
 1472POPC   GL222586  28.953  25.026   9.290
 1472POPC   C1A22587  29.240  25.211   8.889
 1472POPC   D2A22588  29.175  25.154   8.455
 1472POPC   C3A22589  29.462  25.342   8.170
 1472POPC   C4A22590  29.425  25.292   7.721
 1472POPC   C1B22591  28.750  25.029   8.879
 1472POPC   C2B22592  28.667  25.195   8.446
 1472POPC   C3B22593  28.867  25.001   8.051
 1472POPC   C4B22594  28.994  25.023   7.621
 1473POPC   NC322595  11.320  26.564   9.744
 1473POPC   PO422596  11.365  25.921   9.505
 1473POPC   GL122597  11.348  26.065   9.129
 1473POPC   GL222598  11.403  26.410   9.059
 1473POPC   C1A22599  11.119  26.074   8.765
 1473POPC   D2A22600  11.123  26.297   8.419
 1473POPC   C3A22601  11.231  25.993   8.135
 1473POPC   C4A22602  11.276  25.989   7.748
 1473POPC   C1B22603  11.637  26.221   8.719
 1473POPC   C2B22604  11.614  26.282   8.276
 1473POPC   C3B22605  11.765  26.266   7.852
 1473POPC   C4B22606  11.608  26.287   7.403
 1474POPC   NC322607   6.893  20.471   9.594
 1474POPC   PO422608   6.301  20.683   9.459
 1474POPC   GL122609   6.521  20.660   9.099
 1474POPC   GL222610   6.782  20.905   9.129
 1474POPC   C1A22611   6.405  20.584   8.669
 1474POPC   D2A22612   6.390  20.389   8.229
 1474POPC   C3A22613   6.748  20.437   7.900
 1474POPC   C4A22614   6.794  20.376   7.422
 1474POPC   C1B22615   6.687  21.086   8.752
 1474POPC   C2B22616   6.626  20.911   8.350
 1474POPC   C3B22617   6.416  20.841   7.972
 1474POPC   C4B22618   6.491  20.756   7.536
 1475POPC   NC322619  28.800  20.315  10.013
 1475POPC   PO422620  29.299  20.488   9.629
 1475POPC   GL122621  29.112  20.531   9.212
 1475POPC   GL222622  28.854  20.268   9.134
 1475POPC   C1A22623  29.196  20.645   8.773
 1475POPC   D2A22624  29.032  20.635   8.350
 1475POPC   C3A22625  29.328  20.707   7.979
 1475POPC   C4A22626  29.221  20.764   7.544
 1475POPC   C1B22627  28.842  20.173   8.660
 1475POPC   C2B22628  28.746  20.207   8.213
 1475POPC   C3B22629  28.952  20.415   7.849
 1475POPC   C4B22630  29.043  20.299   7.402
 1476POPC   NC322631   6.143  37.542   9.533
 1476POPC   PO422632   5.471  37.825   9.456
 1476POPC   GL122633   5.770  37.651   9.170
 1476POPC   GL222634   6.053  37.866   9.106
 1476POPC   C1A22635   5.877  37.572   8.750
 1476POPC   D2A22636   5.668  37.534   8.388
 1476POPC   C3A22637   5.895  37.542   8.034
 1476POPC   C4A22638   5.792  37.766   7.679
 1476POPC   C1B22639   5.771  38.075   8.812
 1476POPC   C2B22640   5.665  38.053   8.364
 1476POPC   C3B22641   6.026  38.032   8.055
 1476POPC   C4B22642   6.089  38.178   7.636
 1477POPC   NC322643  41.393  29.953   9.497
 1477POPC   PO422644  41.983  29.552   9.538
 1477POPC   GL122645  41.754  29.685   9.148
 1477POPC   GL222646  41.384  29.657   9.037
 1477POPC   C1A22647  41.737  29.760   8.698
 1477POPC   D2A22648  41.908  29.872   8.320
 1477POPC   C3A22649  41.738  30.055   7.939
 1477POPC   C4A22650  41.704  29.732   7.611
 1477POPC   C1B22651  41.219  29.921   8.743
 1477POPC   C2B22652  41.392  29.981   8.352
 1477POPC   C3B22653  41.332  29.796   7.962
 1477POPC   C4B22654  41.244  30.015   7.555
 1478POPC   NC322655  26.872  13.119   9.541
 1478POPC   PO422656  26.421  12.726   9.235
 1478POPC   GL122657  26.636  13.064   9.094
 1478POPC   GL222658  27.009  12.949   9.098
 1478POPC   C1A22659  26.612  13.132   8.681
 1478POPC   D2A22660  26.852  12.907   8.367
 1478POPC   C3A22661  26.697  12.910   7.932
 1478POPC   C4A22662  26.859  12.632   7.600
 1478POPC   C1B22663  27.117  13.211   8.781
 1478POPC   C2B22664  27.343  13.209   8.412
 1478POPC   C3B22665  27.170  13.184   8.037
 1478POPC   C4B22666  27.127  13.056   7.672
 1479POPC   NC322667  28.084   0.560   9.526
 1479POPC   PO422668  28.812   0.590   9.532
 1479POPC   GL122669  28.626   0.568   9.060
 1479POPC   GL222670  28.299   0.409   9.095
 1479POPC   C1A22671  28.498   0.348   8.637
 1479POPC   D2A22672  28.706   0.211   8.251
 1479POPC   C3A22673  28.582   0.395   7.830
 1479POPC   C4A22674  28.688   0.288   7.388
 1479POPC   C1B22675  27.999   0.257   8.776
 1479POPC   C2B22676  27.845   0.269   8.334
 1479POPC   C3B22677  28.086   0.277   7.944
 1479POPC   C4B22678  28.224   0.144   7.543
 1480POPC   NC322679  33.081  31.922   9.427
 1480POPC   PO422680  33.294  32.469   9.576
 1480POPC   GL122681  32.984  32.367   9.183
 1480POPC   GL222682  33.147  32.098   8.951
 1480POPC   C1A22683  32.723  32.317   8.775
 1480POPC   D2A22684  32.901  32.310   8.377
 1480POPC   C3A22685  32.713  32.179   8.003
 1480POPC   C4A22686  33.028  32.136   7.718
 1480POPC   C1B22687  33.363  32.450   8.836
 1480POPC   C2B22688  33.453  32.697   8.490
 1480POPC   C3B22689  33.295  32.548   8.124
 1480POPC   C4B22690  33.381  32.494   7.687
 1481POPC   NC322691   8.563  14.581   9.493
 1481POPC   PO422692   9.215  14.209   9.589
 1481POPC   GL122693   9.046  14.470   9.281
 1481POPC   GL222694   8.847  14.260   9.173
 1481POPC   C1A22695   9.128  14.596   8.849
 1481POPC   D2A22696   8.994  14.840   8.509
 1481POPC   C3A22697   9.152  14.635   8.158
 1481POPC   C4A22698   9.120  14.469   7.750
 1481POPC   C1B22699   9.093  14.073   8.863
 1481POPC   C2B22700   9.009  14.202   8.453
 1481POPC   C3B22701   9.096  14.059   8.043
 1481POPC   C4B22702   9.141  13.977   7.604
 1482POPC   NC322703   7.490   6.594   9.594
 1482POPC   PO422704   6.851   6.339   9.405
 1482POPC   GL122705   7.177   6.605   9.130
 1482POPC   GL222706   7.561   6.569   9.112
 1482POPC   C1A22707   7.364   6.844   8.752
 1482POPC   D2A22708   7.244   7.105   8.410
 1482POPC   C3A22709   7.364   6.854   8.059
 1482POPC   C4A22710   7.488   6.760   7.663
 1482POPC   C1B22711   7.724   6.420   8.769
 1482POPC   C2B22712   7.628   6.558   8.381
 1482POPC   C3B22713   7.620   6.368   7.994
 1482POPC   C4B22714   7.768   6.320   7.582
 1483POPC   NC322715  41.630  13.228   9.590
 1483POPC   PO422716  41.651  13.917   9.645
 1483POPC   GL122717  41.490  13.911   9.167
 1483POPC   GL222718  41.744  13.698   9.053
 1483POPC   C1A22719  41.336  13.737   8.704
 1483POPC   D2A22720  41.284  13.698   8.198
 1483POPC   C3A22721  41.661  13.470   8.032
 1483POPC   C4A22722  42.092  13.415   7.940
 1483POPC   C1B22723  41.757  14.028   8.727
 1483POPC   C2B22724  41.598  14.064   8.363
 1483POPC   C3B22725  41.770  13.966   7.995
 1483POPC   C4B22726  41.477  13.835   7.713
 1484POPC   NC322727  39.487  29.938   9.410
 1484POPC   PO422728  39.061  29.467   9.553
 1484POPC   GL122729  39.090  29.732   9.168
 1484POPC   GL222730  38.883  30.006   9.100
 1484POPC   C1A22731  39.114  29.640   8.729
 1484POPC   D2A22732  39.113  29.886   8.347
 1484POPC   C3A22733  39.148  29.704   7.925
 1484POPC   C4A22734  39.466  29.824   7.610
 1484POPC   C1B22735  39.187  30.153   8.802
 1484POPC   C2B22736  39.387  30.342   8.453
 1484POPC   C3B22737  39.409  30.162   8.025
 1484POPC   C4B22738  39.616  30.290   7.677
 1485POPC   NC322739  24.542   7.843   9.576
 1485POPC   PO422740  24.945   8.246   9.615
 1485POPC   GL122741  24.779   8.093   9.207
 1485POPC   GL222742  25.022   7.930   9.052
 1485POPC   C1A22743  24.445   7.984   8.878
 1485POPC   D2A22744  24.504   7.931   8.393
 1485POPC   C3A22745  24.469   8.191   8.015
 1485POPC   C4A22746  24.472   8.010   7.603
 1485POPC   C1B22747  24.862   8.167   8.667
 1485POPC   C2B22748  24.937   8.270   8.207
 1485POPC   C3B22749  24.901   8.265   7.724
 1485POPC   C4B22750  25.063   8.554   7.354
 1486POPC   NC322751  28.258  24.706   9.535
 1486POPC   PO422752  28.196  24.098   9.527
 1486POPC   GL122753  28.234  24.286   9.147
 1486POPC   GL222754  28.352  24.584   9.066
 1486POPC   C1A22755  28.217  24.208   8.733
 1486POPC   D2A22756  28.236  24.457   8.377
 1486POPC   C3A22757  28.142  24.198   8.039
 1486POPC   C4A22758  27.982  24.158   7.643
 1486POPC   C1B22759  28.658  24.512   8.802
 1486POPC   C2B22760  28.743  24.673   8.435
 1486POPC   C3B22761  28.665  24.510   8.051
 1486POPC   C4B22762  28.644  24.642   7.667
 1487POPC   NC322763  17.908  43.418   9.365
 1487POPC   PO422764  17.409  43.944   9.502
 1487POPC   GL122765  17.545  43.883   9.097
 1487POPC   GL222766  17.569  44.224   9.022
 1487POPC   C1A22767  17.798  43.678   8.772
 1487POPC   D2A22768  17.913  43.447   8.400
 1487POPC   C3A22769  17.767  43.653   8.001
 1487POPC   C4A22770  17.636  43.886   7.634
 1487POPC   C1B22771  17.529  44.110   8.626
 1487POPC   C2B22772  17.423  43.952   8.246
 1487POPC   C3B22773  17.326  44.177   7.895
 1487POPC   C4B22774  17.181  44.049   7.485
 1488POPC   NC322775  38.669  43.474   9.538
 1488POPC   PO422776  38.203  44.005   9.515
 1488POPC   GL122777  38.532  43.909   9.211
 1488POPC   GL222778  38.549  43.571   9.059
 1488POPC   C1A22779  38.652  44.011   8.785
 1488POPC   D2A22780  38.495  43.956   8.357
 1488POPC   C3A22781  38.671  44.165   7.991
 1488POPC   C4A22782  38.723  43.948   7.587
 1488POPC   C1B22783  38.285  43.632   8.718
 1488POPC   C2B22784  38.295  43.454   8.306
 1488POPC   C3B22785  38.469  43.614   7.916
 1488POPC   C4B22786  38.272  43.716   7.529
 1489POPC   NC322787  29.481   4.076   9.454
 1489POPC   PO422788  28.818   3.995   9.469
 1489POPC   GL122789  29.077   4.258   9.149
 1489POPC   GL222790  29.428   4.429   9.098
 1489POPC   C1A22791  29.136   4.271   8.691
 1489POPC   D2A22792  29.257   4.103   8.277
 1489POPC   C3A22793  29.079   4.366   7.964
 1489POPC   C4A22794  28.829   4.358   7.589
 1489POPC   C1B22795  29.530   4.668   8.725
 1489POPC   C2B22796  29.509   4.557   8.274
 1489POPC   C3B22797  29.430   4.735   7.852
 1489POPC   C4B22798  29.322   4.928   7.424
 1490POPC   NC322799  25.379   4.775   9.672
 1490POPC   PO422800  25.262   4.149   9.418
 1490POPC   GL122801  25.165   4.441   9.115
 1490POPC   GL222802  25.454   4.597   8.961
 1490POPC   C1A22803  24.984   4.510   8.722
 1490POPC   D2A22804  24.790   4.322   8.382
 1490POPC   C3A22805  24.963   4.326   7.975
 1490POPC   C4A22806  24.951   4.533   7.536
 1490POPC   C1B22807  25.427   4.233   8.692
 1490POPC   C2B22808  25.489   3.990   8.324
 1490POPC   C3B22809  25.688   4.160   7.968
 1490POPC   C4B22810  25.406   4.449   7.778
 1491POPC   NC322811  36.438  43.404   9.420
 1491POPC   PO422812  35.919  42.915   9.441
 1491POPC   GL122813  36.174  42.982   9.115
 1491POPC   GL222814  36.056  43.307   9.090
 1491POPC   C1A22815  36.069  43.039   8.671
 1491POPC   D2A22816  36.275  42.876   8.336
 1491POPC   C3A22817  36.020  42.975   8.006
 1491POPC   C4A22818  36.076  43.059   7.580
 1491POPC   C1B22819  36.346  43.481   8.779
 1491POPC   C2B22820  36.482  43.346   8.386
 1491POPC   C3B22821  36.426  43.448   7.966
 1491POPC   C4B22822  36.046  43.592   7.775
 1492POPC   NC322823  33.828  35.722   9.446
 1492POPC   PO422824  33.806  34.976   9.427
 1492POPC   GL122825  33.905  35.299   9.124
 1492POPC   GL222826  33.648  35.575   9.010
 1492POPC   C1A22827  33.840  35.245   8.701
 1492POPC   D2A22828  33.684  35.409   8.360
 1492POPC   C3A22829  33.762  35.150   8.047
 1492POPC   C4A22830  33.639  35.265   7.665
 1492POPC   C1B22831  33.850  35.789   8.685
 1492POPC   C2B22832  33.952  35.852   8.275
 1492POPC   C3B22833  33.736  35.716   7.936
 1492POPC   C4B22834  34.078  35.480   7.807
 1493POPC   NC322835  13.139  26.891   9.435
 1493POPC   PO422836  12.443  26.780   9.574
 1493POPC   GL122837  12.691  26.811   9.198
 1493POPC   GL222838  12.754  27.143   9.070
 1493POPC   C1A22839  12.842  26.707   8.795
 1493POPC   D2A22840  12.611  26.714   8.426
 1493POPC   C3A22841  12.783  26.718   8.025
 1493POPC   C4A22842  12.631  26.926   7.661
 1493POPC   C1B22843  13.117  27.134   8.803
 1493POPC   C2B22844  12.964  27.087   8.375
 1493POPC   C3B22845  12.962  27.184   7.944
 1493POPC   C4B22846  13.096  27.170   7.503
 1494POPC   NC322847   3.713  43.561   9.479
 1494POPC   PO422848   3.553  42.925   9.482
 1494POPC   GL122849   3.415  43.056   9.103
 1494POPC   GL222850   3.676  43.294   9.042
 1494POPC   C1A22851   3.315  43.153   8.668
 1494POPC   D2A22852   3.317  42.934   8.257
 1494POPC   C3A22853   3.219  43.227   7.911
 1494POPC   C4A22854   3.398  43.135   7.498
 1494POPC   C1B22855   3.881  43.490   8.688
 1494POPC   C2B22856   3.663  43.372   8.342
 1494POPC   C3B22857   3.715  43.156   7.999
 1494POPC   C4B22858   3.810  43.370   7.672
 1495POPC   NC322859  30.986  44.111   9.215
 1495POPC   PO422860  31.279  43.646   9.686
 1495POPC   GL122861  31.375  43.686   9.178
 1495POPC   GL222862  31.718  43.522   9.084
 1495POPC   C1A22863  31.642  43.984   8.876
 1495POPC   D2A22864  31.693  44.077   8.441
 1495POPC   C3A22865  31.458  44.045   8.059
 1495POPC   C4A22866  31.118  43.972   7.782
 1495POPC   C1B22867  31.869  43.579   8.650
 1495POPC   C2B22868  31.727  43.614   8.217
 1495POPC   C3B22869  31.738  43.632   7.791
 1495POPC   C4B22870  31.726  43.574   7.294
 1496POPC   NC322871  17.621  13.764   9.590
 1496POPC   PO422872  17.117  14.022   9.484
 1496POPC   GL122873  17.425  13.838   9.114
 1496POPC   GL222874  17.772  13.962   9.143
 1496POPC   C1A22875  17.660  13.586   8.753
 1496POPC   D2A22876  17.692  13.373   8.326
 1496POPC   C3A22877  17.492  13.565   7.958
 1496POPC   C4A22878  17.563  13.638   7.522
 1496POPC   C1B22879  17.806  14.069   8.706
 1496POPC   C2B22880  17.622  13.916   8.316
 1496POPC   C3B22881  17.636  14.045   7.882
 1496POPC   C4B22882  17.636  14.296   7.516
 1497POPC   NC322883  11.684  15.713   9.277
 1497POPC   PO422884  11.235  16.100   9.622
 1497POPC   GL122885  11.154  16.064   9.217
 1497POPC   GL222886  11.206  15.749   9.116
 1497POPC   C1A22887  11.079  16.168   8.804
 1497POPC   D2A22888  11.376  16.183   8.458
 1497POPC   C3A22889  11.162  16.061   8.113
 1497POPC   C4A22890  11.318  16.066   7.701
 1497POPC   C1B22891  11.298  15.718   8.702
 1497POPC   C2B22892  11.121  15.569   8.345
 1497POPC   C3B22893  11.252  15.596   7.930
 1497POPC   C4B22894  11.447  15.577   7.537
 1498POPC   NC322895  43.736  33.255   9.511
 1498POPC   PO422896  44.069  33.894   9.578
 1498POPC   GL122897  43.910  33.864   9.165
 1498POPC   GL222898  43.644  34.066   9.115
 1498POPC   C1A22899  43.992  33.670   8.728
 1498POPC   D2A22900  43.848  33.696   8.292
 1498POPC   C3A22901  43.901  33.315   8.008
 1498POPC   C4A22902  44.026  33.346   7.544
 1498POPC   C1B22903  43.742  34.163   8.694
 1498POPC   C2B22904  43.719  34.193   8.244
 1498POPC   C3B22905  43.886  34.196   7.835
 1498POPC   C4B22906  43.776  34.372   7.428
 1499POPC   NC322907  44.023  44.982   9.714
 1499POPC   PO422908  43.705   0.460   9.466
 1499POPC   GL122909  43.801   0.403   9.084
 1499POPC   GL222910  44.129   0.352   9.099
 1499POPC   C1A22911  43.629   0.421   8.681
 1499POPC   D2A22912  43.518   0.261   8.303
 1499POPC   C3A22913  43.631   0.493   7.961
 1499POPC   C4A22914  43.865   0.359   7.564
 1499POPC   C1B22915  44.116   0.619   8.748
 1499POPC   C2B22916  43.995   0.537   8.338
 1499POPC   C3B22917  44.111   0.627   7.922
 1499POPC   C4B22918  44.432   0.698   7.641
 1500POPC   NC322919   6.016  12.492   9.665
 1500POPC   PO422920   5.768  11.903   9.439
 1500POPC   GL122921   5.975  12.229   9.210
 1500POPC   GL222922   5.698  12.328   9.059
 1500POPC   C1A22923   6.156  12.229   8.780
 1500POPC   D2A22924   6.087  11.925   8.419
 1500POPC   C3A22925   6.202  12.125   8.052
 1500POPC   C4A22926   6.057  12.192   7.628
 1500POPC   C1B22927   5.710  11.976   8.766
 1500POPC   C2B22928   5.527  11.995   8.361
 1500POPC   C3B22929   5.692  12.133   7.999
 1500POPC   C4B22930   5.628  12.428   7.710
 1501POPC   NC322931  33.212  11.368   9.540
 1501POPC   PO422932  32.679  10.938   9.623
 1501POPC   GL122933  32.775  11.186   9.246
 1501POPC   GL222934  32.798  11.533   9.236
 1501POPC   C1A22935  33.048  11.195   8.897
 1501POPC   D2A22936  32.995  11.126   8.459
 1501POPC   C3A22937  33.295  11.119   8.134
 1501POPC   C4A22938  33.184  11.130   7.724
 1501POPC   C1B22939  32.621  11.514   8.813
 1501POPC   C2B22940  32.801  11.609   8.394
 1501POPC   C3B22941  32.811  11.345   8.037
 1501POPC   C4B22942  32.786  11.404   7.619
 1502POPC   NC322943  23.906  37.166   9.398
 1502POPC   PO422944  23.894  37.833   9.535
 1502POPC   GL122945  23.663  37.774   9.161
 1502POPC   GL222946  23.776  37.490   9.003
 1502POPC   C1A22947  23.697  37.892   8.706
 1502POPC   D2A22948  23.797  37.620   8.385
 1502POPC   C3A22949  23.587  37.724   8.027
 1502POPC   C4A22950  23.439  37.794   7.638
 1502POPC   C1B22951  24.147  37.443   8.731
 1502POPC   C2B22952  24.203  37.306   8.289
 1502POPC   C3B22953  24.128  37.526   7.901
 1502POPC   C4B22954  23.853  37.504   7.537
 1503POPC   NC322955  35.843  31.844   9.371
 1503POPC   PO422956  36.092  31.394   9.743
 1503POPC   GL122957  36.300  31.458   9.306
 1503POPC   GL222958  36.187  31.214   9.075
 1503POPC   C1A22959  36.363  31.656   8.853
 1503POPC   D2A22960  36.232  31.863   8.416
 1503POPC   C3A22961  36.307  31.715   7.957
 1503POPC   C4A22962  36.079  31.730   7.537
 1503POPC   C1B22963  36.495  31.150   8.720
 1503POPC   C2B22964  36.518  31.006   8.299
 1503POPC   C3B22965  36.261  31.004   7.916
 1503POPC   C4B22966  35.957  31.304   7.772
 1504POPC   NC322967   2.285   4.941   9.779
 1504POPC   PO422968   2.032   4.354   9.626
 1504POPC   GL122969   2.130   4.265   9.159
 1504POPC   GL222970   2.258   4.607   9.108
 1504POPC   C1A22971   1.870   4.210   8.723
 1504POPC   D2A22972   1.885   4.572   8.424
 1504POPC   C3A22973   1.884   4.472   8.005
 1504POPC   C4A22974   1.659   4.107   7.967
 1504POPC   C1B22975   2.325   4.381   8.693
 1504POPC   C2B22976   2.172   4.142   8.289
 1504POPC   C3B22977   2.230   4.150   7.815
 1504POPC   C4B22978   2.311   4.221   7.378
 1505POPC   NC322979   9.760  35.201   9.602
 1505POPC   PO422980  10.100  35.667   9.190
 1505POPC   GL122981   9.817  35.289   9.097
 1505POPC   GL222982   9.934  34.915   9.217
 1505POPC   C1A22983   9.670  35.265   8.682
 1505POPC   D2A22984   9.854  35.462   8.327
 1505POPC   C3A22985   9.718  35.368   7.904
 1505POPC   C4A22986   9.988  35.568   7.596
 1505POPC   C1B22987   9.846  34.816   8.808
 1505POPC   C2B22988   9.954  34.930   8.359
 1505POPC   C3B22989   9.879  34.875   7.879
 1505POPC   C4B22990   9.773  35.088   7.453
 1506POPC   NC322991  38.477  11.790   9.703
 1506POPC   PO422992  38.281  12.247   9.305
 1506POPC   GL122993  38.579  12.069   9.134
 1506POPC   GL222994  38.734  12.332   8.955
 1506POPC   C1A22995  38.542  11.821   8.795
 1506POPC   D2A22996  38.761  11.887   8.466
 1506POPC   C3A22997  38.677  11.751   8.077
 1506POPC   C4A22998  38.622  11.928   7.690
 1506POPC   C1B22999  38.390  12.272   8.621
 1506POPC   C2B23000  38.283  12.075   8.237
 1506POPC   C3B23001  38.259  12.288   7.868
 1506POPC   C4B23002  38.049  12.210   7.498
 1507POPC   NC323003   1.011  22.027   9.494
 1507POPC   PO423004   1.310  22.648   9.602
 1507POPC   GL123005   1.220  22.360   9.190
 1507POPC   GL223006   1.131  22.023   9.007
 1507POPC   C1A23007   1.494  22.273   8.789
 1507POPC   D2A23008   1.474  22.545   8.427
 1507POPC   C3A23009   1.277  22.354   8.064
 1507POPC   C4A23010   1.323  22.281   7.632
 1507POPC   C1B23011   1.033  22.087   8.591
 1507POPC   C2B23012   1.116  21.864   8.249
 1507POPC   C3B23013   1.056  21.898   7.846
 1507POPC   C4B23014   1.249  21.809   7.465
 1508POPC   NC323015   1.945  10.965   9.396
 1508POPC   PO423016   1.728  11.605   9.631
 1508POPC   GL123017   1.900  11.484   9.189
 1508POPC   GL223018   2.181  11.667   9.020
 1508POPC   C1A23019   1.938  11.282   8.747
 1508POPC   D2A23020   1.804  11.345   8.310
 1508POPC   C3A23021   2.015  11.154   7.949
 1508POPC   C4A23022   1.975  10.868   7.573
 1508POPC   C1B23023   2.439  11.477   8.708
 1508POPC   C2B23024   2.340  11.332   8.315
 1508POPC   C3B23025   2.397  11.516   7.936
 1508POPC   C4B23026   2.345  11.647   7.491
 1509POPC   NC323027   3.943  17.457   9.435
 1509POPC   PO423028   4.538  17.577   9.522
 1509POPC   GL123029   4.503  17.742   9.119
 1509POPC   GL223030   4.147  17.787   9.039
 1509POPC   C1A23031   4.484  17.488   8.765
 1509POPC   D2A23032   4.707  17.197   8.556
 1509POPC   C3A23033   4.659  17.171   8.110
 1509POPC   C4A23034   4.511  17.136   7.692
 1509POPC   C1B23035   3.990  17.454   8.726
 1509POPC   C2B23036   4.205  17.577   8.321
 1509POPC   C3B23037   4.344  17.587   7.885
 1509POPC   C4B23038   4.115  17.450   7.532
 1510POPC   NC323039   5.387  30.202   9.425
 1510POPC   PO423040   5.888  29.793   9.395
 1510POPC   GL123041   5.814  29.813   8.966
 1510POPC   GL223042   5.904  30.148   9.004
 1510POPC   C1A23043   5.945  29.949   8.522
 1510POPC   D2A23044   6.335  29.985   8.272
 1510POPC   C3A23045   6.290  29.965   7.831
 1510POPC   C4A23046   5.941  29.671   7.895
 1510POPC   C1B23047   5.629  30.338   8.719
 1510POPC   C2B23048   5.589  30.330   8.285
 1510POPC   C3B23049   5.910  30.236   8.012
 1510POPC   C4B23050   5.948  30.255   7.535
 1511POPC   NC323051  38.481  38.119   9.508
 1511POPC   PO423052  38.301  38.826   9.506
 1511POPC   GL123053  38.418  38.548   9.172
 1511POPC   GL223054  38.757  38.485   9.153
 1511POPC   C1A23055  38.342  38.668   8.743
 1511POPC   D2A23056  38.165  38.641   8.355
 1511POPC   C3A23057  38.418  38.742   8.045
 1511POPC   C4A23058  38.316  38.612   7.665
 1511POPC   C1B23059  38.836  38.642   8.751
 1511POPC   C2B23060  38.653  38.435   8.370
 1511POPC   C3B23061  38.547  38.250   7.941
 1511POPC   C4B23062  38.692  38.198   7.494
 1512POPC   NC323063  36.694  10.926   9.622
 1512POPC   PO423064  37.116  10.460   9.436
 1512POPC   GL123065  36.848  10.635   9.134
 1512POPC   GL223066  36.592  10.419   9.085
 1512POPC   C1A23067  37.067  10.757   8.737
 1512POPC   D2A23068  37.287  10.576   8.439
 1512POPC   C3A23069  37.112  10.658   8.077
 1512POPC   C4A23070  37.101  10.703   7.649
 1512POPC   C1B23071  36.747  10.350   8.674
 1512POPC   C2B23072  36.918  10.167   8.302
 1512POPC   C3B23073  36.864  10.273   7.860
 1512POPC   C4B23074  36.607  10.675   7.731
 1513POPC   NC323075   6.837  34.123   9.550
 1513POPC   PO423076   6.633  34.767   9.488
 1513POPC   GL123077   6.661  34.418   9.171
 1513POPC   GL223078   7.005  34.456   9.208
 1513POPC   C1A23079   6.705  34.208   8.718
 1513POPC   D2A23080   6.829  34.298   8.245
 1513POPC   C3A23081   6.572  34.502   7.896
 1513POPC   C4A23082   6.320  34.777   7.578
 1513POPC   C1B23083   7.002  34.624   8.818
 1513POPC   C2B23084   7.163  34.706   8.434
 1513POPC   C3B23085   7.051  34.708   8.015
 1513POPC   C4B23086   7.051  34.333   7.758
 1514POPC   NC323087  21.423  31.369   9.933
 1514POPC   PO423088  21.679  31.594   9.358
 1514POPC   GL123089  21.549  31.614   9.014
 1514POPC   GL223090  21.537  31.996   9.061
 1514POPC   C1A23091  21.364  31.323   8.743
 1514POPC   D2A23092  21.199  31.381   8.353
 1514POPC   C3A23093  21.486  31.304   8.030
 1514POPC   C4A23094  21.212  31.298   7.708
 1514POPC   C1B23095  21.352  31.909   8.676
 1514POPC   C2B23096  21.617  31.686   8.419
 1514POPC   C3B23097  21.766  31.746   8.022
 1514POPC   C4B23098  21.566  31.645   7.640
 1515POPC   NC323099  15.595   8.558   9.269
 1515POPC   PO423100  16.133   9.006   9.521
 1515POPC   GL123101  15.895   9.031   9.154
 1515POPC   GL223102  16.095   8.729   9.068
 1515POPC   C1A23103  15.729   9.135   8.701
 1515POPC   D2A23104  15.722   8.917   8.258
 1515POPC   C3A23105  16.096   8.882   7.949
 1515POPC   C4A23106  15.858   9.078   7.599
 1515POPC   C1B23107  15.923   8.662   8.661
 1515POPC   C2B23108  15.929   8.449   8.235
 1515POPC   C3B23109  15.746   8.561   7.825
 1515POPC   C4B23110  16.015   8.644   7.433
 1516POPC   NC323111  39.189  22.480   9.702
 1516POPC   PO423112  39.105  21.871   9.443
 1516POPC   GL123113  39.202  22.177   9.187
 1516POPC   GL223114  39.553  22.212   9.236
 1516POPC   C1A23115  39.167  22.085   8.764
 1516POPC   D2A23116  39.131  22.397   8.469
 1516POPC   C3A23117  39.219  22.248   8.053
 1516POPC   C4A23118  38.926  22.342   7.744
 1516POPC   C1B23119  39.518  22.446   8.843
 1516POPC   C2B23120  39.580  22.675   8.483
 1516POPC   C3B23121  39.742  22.716   8.093
 1516POPC   C4B23122  39.505  22.583   7.765
 1517POPC   NC323123  28.601  36.973   9.411
 1517POPC   PO423124  28.111  36.614   9.588
 1517POPC   GL123125  28.237  36.720   9.153
 1517POPC   GL223126  28.570  36.675   9.018
 1517POPC   C1A23127  28.113  36.872   8.742
 1517POPC   D2A23128  27.942  37.017   8.351
 1517POPC   C3A23129  28.037  36.912   7.918
 1517POPC   C4A23130  27.986  36.895   7.434
 1517POPC   C1B23131  28.598  36.980   8.688
 1517POPC   C2B23132  28.459  36.934   8.299
 1517POPC   C3B23133  28.482  36.650   8.007
 1517POPC   C4B23134  28.207  36.461   7.764
 1518POPC   NC323135   2.789  43.309   9.521
 1518POPC   PO423136   2.764  42.756   9.216
 1518POPC   GL123137   2.627  43.097   9.050
 1518POPC   GL223138   2.942  43.291   9.026
 1518POPC   C1A23139   2.706  42.994   8.624
 1518POPC   D2A23140   2.890  43.175   8.340
 1518POPC   C3A23141   2.805  42.909   8.006
 1518POPC   C4A23142   3.143  42.682   7.787
 1518POPC   C1B23143   2.669  43.482   8.720
 1518POPC   C2B23144   2.609  43.598   8.343
 1518POPC   C3B23145   2.737  43.450   7.962
 1518POPC   C4B23146   2.470  43.216   7.758
 1519POPC   NC323147   2.375  44.780   9.487
 1519POPC   PO423148   3.002  44.444   9.419
 1519POPC   GL123149   2.711  44.618   9.137
 1519POPC   GL223150   2.698  44.975   9.069
 1519POPC   C1A23151   2.580  44.593   8.720
 1519POPC   D2A23152   2.603  44.485   8.288
 1519POPC   C3A23153   2.999  44.418   8.092
 1519POPC   C4A23154   2.925  44.254   7.697
 1519POPC   C1B23155   2.338   0.042   8.801
 1519POPC   C2B23156   2.254  44.843   8.411
 1519POPC   C3B23157   2.409  44.908   8.018
 1519POPC   C4B23158   2.785  44.796   7.808
 1520POPC   NC323159   4.051  24.743   9.590
 1520POPC   PO423160   4.676  24.320   9.570
 1520POPC   GL123161   4.520  24.275   9.169
 1520POPC   GL223162   4.160  24.326   9.215
 1520POPC   C1A23163   4.614  24.313   8.702
 1520POPC   D2A23164   4.349  24.312   8.338
 1520POPC   C3A23165   4.468  24.363   7.947
 1520POPC   C4A23166   4.383  24.664   7.688
 1520POPC   C1B23167   4.106  24.359   8.793
 1520POPC   C2B23168   3.838  24.458   8.455
 1520POPC   C3B23169   3.980  24.551   8.041
 1520POPC   C4B23170   4.017  24.222   7.745
 1521POPC   NC323171  15.662  18.803   9.531
 1521POPC   PO423172  15.979  19.436   9.593
 1521POPC   GL123173  16.072  19.237   9.202
 1521POPC   GL223174  15.826  19.039   9.118
 1521POPC   C1A23175  16.218  19.000   8.801
 1521POPC   D2A23176  16.049  18.868   8.383
 1521POPC   C3A23177  16.268  18.993   8.004
 1521POPC   C4A23178  16.132  19.161   7.621
 1521POPC   C1B23179  15.683  19.374   8.882
 1521POPC   C2B23180  15.766  19.379   8.481
 1521POPC   C3B23181  15.827  19.240   8.094
 1521POPC   C4B23182  15.678  19.386   7.748
 1522POPC   NC323183  33.835  39.713   9.516
 1522POPC   PO423184  33.972  40.303   9.325
 1522POPC   GL123185  33.809  40.129   9.031
 1522POPC   GL223186  33.560  39.927   9.072
 1522POPC   C1A23187  33.842  39.924   8.644
 1522POPC   D2A23188  34.174  39.739   8.428
 1522POPC   C3A23189  34.075  39.915   8.068
 1522POPC   C4A23190  33.834  39.807   7.729
 1522POPC   C1B23191  33.433  40.231   8.707
 1522POPC   C2B23192  33.617  40.254   8.285
 1522POPC   C3B23193  33.474  40.167   7.868
 1522POPC   C4B23194  33.487  40.005   7.426
 1523POPC   NC323195  28.288  10.142   9.458
 1523POPC   PO423196  28.590  10.715   9.607
 1523POPC   GL123197  28.422  10.585   9.199
 1523POPC   GL223198  28.057  10.554   9.163
 1523POPC   C1A23199  28.534  10.444   8.764
 1523POPC   D2A23200  28.730  10.675   8.419
 1523POPC   C3A23201  28.572  10.670   7.966
 1523POPC   C4A23202  28.168  10.724   7.720
 1523POPC   C1B23203  28.031  10.382   8.728
 1523POPC   C2B23204  28.237  10.455   8.329
 1523POPC   C3B23205  28.235  10.254   7.955
 1523POPC   C4B23206  28.042  10.202   7.529
 1524POPC   NC323207  27.230   0.126   9.414
 1524POPC   PO423208  27.556  44.476   9.411
 1524POPC   GL123209  27.688  44.664   9.020
 1524POPC   GL223210  27.641   0.012   9.058
 1524POPC   C1A23211  27.803  44.762   8.593
 1524POPC   D2A23212  27.652  44.543   8.254
 1524POPC   C3A23213  27.665  44.668   7.895
 1524POPC   C4A23214  27.899  44.291   7.766
 1524POPC   C1B23215  27.480   0.169   8.700
 1524POPC   C2B23216  27.306  44.853   8.464
 1524POPC   C3B23217  27.169  44.696   8.095
 1524POPC   C4B23218  27.187  44.791   7.709
 1525POPC   NC323219  26.366   4.832   9.518
 1525POPC   PO423220  25.700   4.811   9.347
 1525POPC   GL123221  26.026   5.064   9.179
 1525POPC   GL223222  25.941   5.398   9.020
 1525POPC   C1A23223  26.258   4.980   8.810
 1525POPC   D2A23224  26.196   5.150   8.389
 1525POPC   C3A23225  26.264   4.963   7.980
 1525POPC   C4A23226  26.200   5.301   7.671
 1525POPC   C1B23227  25.759   5.105   8.713
 1525POPC   C2B23228  25.703   5.004   8.324
 1525POPC   C3B23229  25.792   5.172   7.949
 1525POPC   C4B23230  25.780   5.025   7.536
 1526POPC   NC323231  36.179  21.826   9.514
 1526POPC   PO423232  35.851  22.389   9.380
 1526POPC   GL123233  35.988  22.051   9.061
 1526POPC   GL223234  36.355  21.963   9.050
 1526POPC   C1A23235  36.152  22.109   8.610
 1526POPC   D2A23236  36.139  22.385   8.246
 1526POPC   C3A23237  35.938  22.220   7.893
 1526POPC   C4A23238  35.994  22.121   7.475
 1526POPC   C1B23239  36.643  21.856   8.705
 1526POPC   C2B23240  36.590  22.044   8.296
 1526POPC   C3B23241  36.423  22.025   7.893
 1526POPC   C4B23242  36.405  21.821   7.484
 1527POPC   NC323243   1.231  40.943   9.542
 1527POPC   PO423244   0.588  40.786   9.442
 1527POPC   GL123245   0.940  40.820   9.125
 1527POPC   GL223246   1.267  40.645   9.125
 1527POPC   C1A23247   1.093  40.942   8.723
 1527POPC   D2A23248   1.284  40.929   8.337
 1527POPC   C3A23249   0.948  41.088   8.065
 1527POPC   C4A23250   1.001  41.189   7.651
 1527POPC   C1B23251   1.355  40.406   8.750
 1527POPC   C2B23252   1.247  40.406   8.341
 1527POPC   C3B23253   1.299  40.358   7.927
 1527POPC   C4B23254   1.248  40.763   7.747
 1528POPC   NC323255   8.776  11.179   9.425
 1528POPC   PO423256   9.302  11.645   9.309
 1528POPC   GL123257   9.065  11.413   9.072
 1528POPC   GL223258   8.713  11.521   9.055
 1528POPC   C1A23259   9.042  11.072   8.826
 1528POPC   D2A23260   9.204  10.990   8.407
 1528POPC   C3A23261   9.041  11.090   8.012
 1528POPC   C4A23262   9.300  11.080   7.648
 1528POPC   C1B23263   8.841  11.535   8.630
 1528POPC   C2B23264   9.121  11.516   8.286
 1528POPC   C3B23265   8.970  11.571   7.842
 1528POPC   C4B23266   8.625  11.407   7.554
 1529POPC   NC323267  10.973  19.187   9.474
 1529POPC   PO423268  11.665  19.317   9.466
 1529POPC   GL123269  11.421  19.186   9.136
 1529POPC   GL223270  11.150  19.402   9.067
 1529POPC   C1A23271  11.242  18.976   8.799
 1529POPC   D2A23272  10.940  18.914   8.457
 1529POPC   C3A23273  11.148  18.879   8.064
 1529POPC   C4A23274  11.245  18.935   7.634
 1529POPC   C1B23275  10.965  19.375   8.689
 1529POPC   C2B23276  11.215  19.340   8.308
 1529POPC   C3B23277  11.042  19.365   7.908
 1529POPC   C4B23278  10.812  19.613   7.595
 1530POPC   NC323279  35.940  32.618   9.391
 1530POPC   PO423280  36.371  33.004   9.627
 1530POPC   GL123281  36.315  32.941   9.185
 1530POPC   GL223282  35.962  32.946   9.033
 1530POPC   C1A23283  36.306  32.700   8.796
 1530POPC   D2A23284  36.050  32.833   8.402
 1530POPC   C3A23285  36.219  32.977   8.019
 1530POPC   C4A23286  36.290  32.896   7.623
 1530POPC   C1B23287  35.775  33.108   8.734
 1530POPC   C2B23288  35.888  33.326   8.395
 1530POPC   C3B23289  35.762  33.182   8.023
 1530POPC   C4B23290  35.985  33.313   7.665
 1531POPC   NC323291  22.697  22.138   9.575
 1531POPC   PO423292  22.895  22.435   9.029
 1531POPC   GL123293  22.822  22.003   9.069
 1531POPC   GL223294  23.168  21.863   8.997
 1531POPC   C1A23295  22.684  21.911   8.688
 1531POPC   D2A23296  22.716  22.292   8.406
 1531POPC   C3A23297  22.782  22.253   7.973
 1531POPC   C4A23298  22.473  22.241   7.643
 1531POPC   C1B23299  23.200  21.999   8.573
 1531POPC   C2B23300  23.383  21.918   8.171
 1531POPC   C3B23301  23.130  21.911   7.802
 1531POPC   C4B23302  22.969  22.172   7.480
 1532POPC   NC323303  28.769   8.509   9.628
 1532POPC   PO423304  28.241   8.095   9.740
 1532POPC   GL123305  28.344   8.190   9.294
 1532POPC   GL223306  28.683   8.194   9.233
 1532POPC   C1A23307  28.296   8.112   8.818
 1532POPC   D2A23308  28.148   8.174   8.362
 1532POPC   C3A23309  28.086   7.921   7.996
 1532POPC   C4A23310  28.131   8.273   7.733
 1532POPC   C1B23311  28.806   8.282   8.815
 1532POPC   C2B23312  28.628   8.389   8.414
 1532POPC   C3B23313  28.570   8.145   8.021
 1532POPC   C4B23314  28.608   8.208   7.577
 1533POPC   NC323315  24.494  13.059   9.525
 1533POPC   PO423316  24.008  13.444   9.235
 1533POPC   GL123317  24.379  13.183   9.017
 1533POPC   GL223318  24.464  12.791   9.062
 1533POPC   C1A23319  24.330  13.002   8.599
 1533POPC   D2A23320  24.535  13.039   8.208
 1533POPC   C3A23321  24.352  12.959   7.797
 1533POPC   C4A23322  24.494  12.814   7.416
 1533POPC   C1B23323  24.657  12.613   8.642
 1533POPC   C2B23324  24.966  12.701   8.316
 1533POPC   C3B23325  24.819  12.743   7.889
 1533POPC   C4B23326  24.663  12.400   7.663
 1534POPC   NC323327   5.884   0.405   9.616
 1534POPC   PO423328   5.292   0.000   9.558
 1534POPC   GL123329   5.607   0.245   9.218
 1534POPC   GL223330   5.907   0.504   9.135
 1534POPC   C1A23331   5.556   0.457   8.797
 1534POPC   D2A23332   5.825   0.479   8.438
 1534POPC   C3A23333   5.637   0.574   8.034
 1534POPC   C4A23334   5.795   0.559   7.628
 1534POPC   C1B23335   6.260   0.570   8.870
 1534POPC   C2B23336   6.304   0.686   8.435
 1534POPC   C3B23337   6.149   0.572   8.032
 1534POPC   C4B23338   6.310   0.705   7.634
 1535POPC   NC323339   0.474  29.786   9.344
 1535POPC   PO423340   0.288  29.176   9.402
 1535POPC   GL123341   0.540  29.114   9.047
 1535POPC   GL223342   0.767  29.391   9.134
 1535POPC   C1A23343   0.465  29.046   8.606
 1535POPC   D2A23344   0.133  29.117   8.296
 1535POPC   C3A23345   0.323  29.174   7.920
 1535POPC   C4A23346   0.597  28.840   7.780
 1535POPC   C1B23347   0.497  29.533   8.761
 1535POPC   C2B23348   0.630  29.443   8.341
 1535POPC   C3B23349   0.805  29.317   7.971
 1535POPC   C4B23350   0.624  29.533   7.654
 1536POPC   NC323351  19.124  34.396   9.436
 1536POPC   PO423352  18.864  35.069   9.483
 1536POPC   GL123353  18.896  34.771   9.160
 1536POPC   GL223354  19.251  34.739   9.080
 1536POPC   C1A23355  18.839  34.643   8.722
 1536POPC   D2A23356  19.016  34.673   8.288
 1536POPC   C3A23357  19.150  34.329   8.041
 1536POPC   C4A23358  18.943  34.526   7.742
 1536POPC   C1B23359  19.328  34.851   8.665
 1536POPC   C2B23360  19.516  34.830   8.268
 1536POPC   C3B23361  19.363  34.773   7.869
 1536POPC   C4B23362  19.198  34.900   7.472
 1537POPC   NC323363   1.011  27.045   9.471
 1537POPC   PO423364   0.752  26.472   9.098
 1537POPC   GL123365   1.058  26.754   9.065
 1537POPC   GL223366   1.330  26.556   9.023
 1537POPC   C1A23367   1.201  27.061   8.783
 1537POPC   D2A23368   1.235  26.977   8.320
 1537POPC   C3A23369   0.952  26.842   8.010
 1537POPC   C4A23370   0.822  27.149   7.710
 1537POPC   C1B23371   1.366  26.601   8.630
 1537POPC   C2B23372   1.625  26.636   8.307
 1537POPC   C3B23373   1.431  26.648   7.953
 1537POPC   C4B23374   1.356  27.061   7.810
 1538POPC   NC323375  38.873  16.454   9.474
 1538POPC   PO423376  38.217  16.557   9.603
 1538POPC   GL123377  38.313  16.558   9.158
 1538POPC   GL223378  38.636  16.537   9.008
 1538POPC   C1A23379  38.228  16.770   8.783
 1538POPC   D2A23380  38.487  16.753   8.432
 1538POPC   C3A23381  38.233  16.523   8.151
 1538POPC   C4A23382  37.968  16.684   7.825
 1538POPC   C1B23383  38.915  16.613   8.691
 1538POPC   C2B23384  39.074  16.688   8.314
 1538POPC   C3B23385  38.763  16.610   8.014
 1538POPC   C4B23386  38.463  16.884   7.862
 1539POPC   NC323387  31.273   7.476   9.533
 1539POPC   PO423388  31.859   7.210   9.515
 1539POPC   GL123389  31.543   7.337   9.121
 1539POPC   GL223390  31.242   7.609   9.057
 1539POPC   C1A23391  31.575   7.244   8.689
 1539POPC   D2A23392  31.749   7.355   8.310
 1539POPC   C3A23393  31.626   7.240   7.877
 1539POPC   C4A23394  31.607   7.262   7.425
 1539POPC   C1B23395  31.080   7.284   8.807
 1539POPC   C2B23396  31.192   7.132   8.370
 1539POPC   C3B23397  31.127   7.312   7.981
 1539POPC   C4B23398  30.962   7.486   7.649
 1540POPC   NC323399  30.710  11.038   9.378
 1540POPC   PO423400  30.507  11.647   9.407
 1540POPC   GL123401  30.808  11.655   9.037
 1540POPC   GL223402  31.051  11.368   9.012
 1540POPC   C1A23403  30.734  11.514   8.598
 1540POPC   D2A23404  30.388  11.284   8.369
 1540POPC   C3A23405  30.313  11.434   7.942
 1540POPC   C4A23406  30.573  11.475   7.561
 1540POPC   C1B23407  30.837  11.024   8.745
 1540POPC   C2B23408  30.806  10.967   8.298
 1540POPC   C3B23409  30.831  11.286   7.975
 1540POPC   C4B23410  31.065  11.304   7.581
 1541POPC   NC323411  35.183   2.324   9.854
 1541POPC   PO423412  35.199   1.962   9.278
 1541POPC   GL123413  35.322   2.088   8.938
 1541POPC   GL223414  35.158   2.419   8.976
 1541POPC   C1A23415  35.413   1.776   8.639
 1541POPC   D2A23416  35.578   1.867   8.252
 1541POPC   C3A23417  35.397   1.698   7.939
 1541POPC   C4A23418  35.510   1.899   7.603
 1541POPC   C1B23419  34.958   2.242   8.636
 1541POPC   C2B23420  35.056   1.984   8.301
 1541POPC   C3B23421  35.269   2.208   7.998
 1541POPC   C4B23422  35.224   2.373   7.588
 1542POPC   NC323423  23.009  12.310   9.611
 1542POPC   PO423424  23.318  11.739   9.394
 1542POPC   GL123425  23.083  12.076   9.143
 1542POPC   GL223426  23.291  12.353   9.170
 1542POPC   C1A23427  22.744  12.117   8.797
 1542POPC   D2A23428  22.680  11.961   8.392
 1542POPC   C3A23429  22.866  11.928   8.002
 1542POPC   C4A23430  22.661  12.191   7.713
 1542POPC   C1B23431  23.216  12.268   8.692
 1542POPC   C2B23432  23.049  12.372   8.272
 1542POPC   C3B23433  23.148  12.327   7.801
 1542POPC   C4B23434  23.282  12.510   7.390
 1543POPC   NC323435  13.662  34.630  10.189
 1543POPC   PO423436  13.373  34.572   9.624
 1543POPC   GL123437  13.552  34.415   9.240
 1543POPC   GL223438  13.570  34.691   9.007
 1543POPC   C1A23439  13.512  34.265   8.773
 1543POPC   D2A23440  13.489  34.253   8.295
 1543POPC   C3A23441  13.750  34.490   7.933
 1543POPC   C4A23442  13.817  34.457   7.457
 1543POPC   C1B23443  13.324  34.758   8.649
 1543POPC   C2B23444  13.458  34.761   8.273
 1543POPC   C3B23445  13.419  34.917   7.910
 1543POPC   C4B23446  13.755  34.942   7.639
 1544POPC   NC323447  30.296   4.780   9.479
 1544POPC   PO423448  30.844   5.270   9.434
 1544POPC   GL123449  30.609   5.120   9.081
 1544POPC   GL223450  30.466   4.779   9.011
 1544POPC   C1A23451  30.761   5.108   8.672
 1544POPC   D2A23452  31.013   5.106   8.299
 1544POPC   C3A23453  30.794   5.349   8.001
 1544POPC   C4A23454  30.516   5.106   7.775
 1544POPC   C1B23455  30.475   4.692   8.589
 1544POPC   C2B23456  30.485   4.738   8.155
 1544POPC   C3B23457  30.472   4.589   7.744
 1544POPC   C4B23458  30.330   4.815   7.369
 1545POPC   NC323459  19.991  34.862   9.615
 1545POPC   PO423460  19.694  35.509   9.710
 1545POPC   GL123461  19.774  35.538   9.288
 1545POPC   GL223462  19.840  35.205   9.276
 1545POPC   C1A23463  19.884  35.634   8.857
 1545POPC   D2A23464  20.164  35.593   8.520
 1545POPC   C3A23465  20.160  35.577   8.071
 1545POPC   C4A23466  19.974  35.499   7.669
 1545POPC   C1B23467  19.609  35.195   8.909
 1545POPC   C2B23468  19.718  35.280   8.476
 1545POPC   C3B23469  19.824  35.176   8.054
 1545POPC   C4B23470  19.601  35.148   7.643
 1546POPC   NC323471  20.773   3.848   9.565
 1546POPC   PO423472  20.368   3.411   9.394
 1546POPC   GL123473  20.494   3.712   9.121
 1546POPC   GL223474  20.826   3.614   9.133
 1546POPC   C1A23475  20.426   3.831   8.691
 1546POPC   D2A23476  20.178   3.785   8.320
 1546POPC   C3A23477  20.465   3.768   7.979
 1546POPC   C4A23478  20.704   3.416   7.809
 1546POPC   C1B23479  20.918   3.717   8.761
 1546POPC   C2B23480  20.822   3.611   8.362
 1546POPC   C3B23481  21.145   3.740   8.122
 1546POPC   C4B23482  21.146   3.840   7.730
 1547POPC   NC323483   0.815  15.911   9.425
 1547POPC   PO423484   0.280  15.709   9.747
 1547POPC   GL123485   0.365  15.876   9.241
 1547POPC   GL223486   0.278  16.234   9.126
 1547POPC   C1A23487   0.355  15.715   8.794
 1547POPC   D2A23488   0.058  15.705   8.462
 1547POPC   C3A23489   0.205  15.685   8.079
 1547POPC   C4A23490   0.089  15.783   7.671
 1547POPC   C1B23491   0.570  16.161   8.812
 1547POPC   C2B23492   0.529  15.970   8.382
 1547POPC   C3B23493   0.455  16.117   7.956
 1547POPC   C4B23494   0.730  16.174   7.620
 1548POPC   NC323495   0.994  39.972   9.497
 1548POPC   PO423496   1.516  40.426   9.533
 1548POPC   GL123497   1.378  40.137   9.189
 1548POPC   GL223498   1.033  40.178   9.039
 1548POPC   C1A23499   1.410  39.856   8.837
 1548POPC   D2A23500   1.527  39.989   8.424
 1548POPC   C3A23501   1.492  39.829   8.006
 1548POPC   C4A23502   1.601  40.021   7.619
 1548POPC   C1B23503   1.010  40.004   8.595
 1548POPC   C2B23504   1.033  39.975   8.148
 1548POPC   C3B23505   0.774  40.141   7.841
 1548POPC   C4B23506   0.799  40.232   7.413
 1549POPC   NC323507  28.042  26.746   9.868
 1549POPC   PO423508  27.462  26.973   9.560
 1549POPC   GL123509  27.314  27.122   9.168
 1549POPC   GL223510  27.626  27.200   9.069
 1549POPC   C1A23511  27.366  26.918   8.738
 1549POPC   D2A23512  27.434  26.498   8.559
 1549POPC   C3A23513  27.382  26.585   8.132
 1549POPC   C4A23514  27.426  26.756   7.706
 1549POPC   C1B23515  27.868  27.055   8.720
 1549POPC   C2B23516  27.772  26.993   8.282
 1549POPC   C3B23517  27.764  27.110   7.836
 1549POPC   C4B23518  27.362  27.299   7.723
 1550POPC   NC323519  43.575  39.800   9.425
 1550POPC   PO423520  44.274  39.855   9.464
 1550POPC   GL123521  44.089  39.887   9.080
 1550POPC   GL223522  43.849  39.614   9.049
 1550POPC   C1A23523  44.007  39.888   8.640
 1550POPC   D2A23524  43.913  40.258   8.344
 1550POPC   C3A23525  43.594  40.314   8.063
 1550POPC   C4A23526  43.687  40.288   7.668
 1550POPC   C1B23527  43.527  39.816   8.764
 1550POPC   C2B23528  43.598  39.866   8.316
 1550POPC   C3B23529  43.929  39.780   7.994
 1550POPC   C4B23530  43.903  39.557   7.560
 1551POPC   NC323531  23.643  18.511   9.657
 1551POPC   PO423532  24.151  18.060   9.584
 1551POPC   GL123533  23.921  18.082   9.172
 1551POPC   GL223534  23.603  18.233   9.207
 1551POPC   C1A23535  23.899  18.409   8.836
 1551POPC   D2A23536  23.928  18.612   8.417
 1551POPC   C3A23537  23.813  18.343   8.097
 1551POPC   C4A23538  23.941  17.934   7.950
 1551POPC   C1B23539  23.553  18.042   8.771
 1551POPC   C2B23540  23.548  17.951   8.321
 1551POPC   C3B23541  23.398  18.085   7.878
 1551POPC   C4B23542  23.348  18.357   7.482
 1552POPC   NC323543  44.863  43.396   9.473
 1552POPC   PO423544  44.727  44.178   9.506
 1552POPC   GL123545  44.661  44.089   9.126
 1552POPC   GL223546  44.637  43.745   9.178
 1552POPC   C1A23547  44.855  44.107   8.749
 1552POPC   D2A23548  44.861  43.860   8.373
 1552POPC   C3A23549  44.627  44.017   8.023
 1552POPC   C4A23550  44.757  43.931   7.649
 1552POPC   C1B23551  44.766  43.577   8.795
 1552POPC   C2B23552  44.543  43.457   8.428
 1552POPC   C3B23553  44.609  43.517   8.009
 1552POPC   C4B23554  44.321  43.654   7.749
 1553POPC   NC323555  13.208   4.947   9.534
 1553POPC   PO423556  13.909   4.881   9.366
 1553POPC   GL123557  13.765   5.101   9.046
 1553POPC   GL223558  13.471   5.234   9.181
 1553POPC   C1A23559  13.697   5.021   8.638
 1553POPC   D2A23560  13.514   4.894   8.264
 1553POPC   C3A23561  13.822   5.080   8.003
 1553POPC   C4A23562  14.000   4.977   7.616
 1553POPC   C1B23563  13.240   5.186   8.776
 1553POPC   C2B23564  13.305   5.379   8.366
 1553POPC   C3B23565  13.270   5.257   7.933
 1553POPC   C4B23566  13.550   5.228   7.582
 1554POPC   NC323567   9.060  16.120   9.425
 1554POPC   PO423568   8.468  16.398   9.351
 1554POPC   GL123569   8.752  16.000   9.067
 1554POPC   GL223570   9.020  15.708   9.124
 1554POPC   C1A23571   8.676  15.707   8.697
 1554POPC   D2A23572   8.759  15.943   8.305
 1554POPC   C3A23573   8.983  15.816   7.935
 1554POPC   C4A23574   8.930  15.896   7.487
 1554POPC   C1B23575   9.142  15.894   8.725
 1554POPC   C2B23576   9.258  15.686   8.371
 1554POPC   C3B23577   9.445  15.596   7.994
 1554POPC   C4B23578   9.318  15.578   7.577
 1555POPC   NC323579  23.905  34.657   9.430
 1555POPC   PO423580  23.191  34.409   9.489
 1555POPC   GL123581  23.500  34.486   9.187
 1555POPC   GL223582  23.699  34.220   9.224
 1555POPC   C1A23583  23.614  34.788   8.848
 1555POPC   D2A23584  23.737  34.967   8.472
 1555POPC   C3A23585  23.659  34.728   8.103
 1555POPC   C4A23586  23.832  34.834   7.732
 1555POPC   C1B23587  23.861  34.325   8.834
 1555POPC   C2B23588  23.977  34.496   8.439
 1555POPC   C3B23589  23.942  34.304   8.027
 1555POPC   C4B23590  23.751  34.354   7.657
 1556POPC   NC323591  37.868  29.641   9.592
 1556POPC   PO423592  37.437  30.223   9.593
 1556POPC   GL123593  37.548  29.931   9.307
 1556POPC   GL223594  37.841  30.084   9.186
 1556POPC   C1A23595  37.500  29.849   8.883
 1556POPC   D2A23596  37.523  30.028   8.472
 1556POPC   C3A23597  37.486  29.796   8.117
 1556POPC   C4A23598  37.495  29.914   7.690
 1556POPC   C1B23599  37.990  29.970   8.763
 1556POPC   C2B23600  38.005  29.930   8.337
 1556POPC   C3B23601  37.952  29.604   8.073
 1556POPC   C4B23602  38.117  29.496   7.708
 1557POPC   NC323603   6.998   3.500   9.202
 1557POPC   PO423604   7.554   3.572   9.510
 1557POPC   GL123605   7.560   3.398   9.105
 1557POPC   GL223606   7.696   3.733   9.040
 1557POPC   C1A23607   7.370   3.424   8.672
 1557POPC   D2A23608   7.417   3.746   8.355
 1557POPC   C3A23609   7.239   3.672   7.976
 1557POPC   C4A23610   7.238   3.301   7.740
 1557POPC   C1B23611   7.862   3.515   8.683
 1557POPC   C2B23612   7.919   3.585   8.255
 1557POPC   C3B23613   7.696   3.442   7.919
 1557POPC   C4B23614   7.574   3.651   7.546
 1558POPC   NC323615  44.518  33.901   9.682
 1558POPC   PO423616  44.937  33.398   9.550
 1558POPC   GL123617  44.792  33.745   9.275
 1558POPC   GL223618  44.419  33.731   9.187
 1558POPC   C1A23619  44.819  33.781   8.848
 1558POPC   D2A23620  44.609  33.833   8.491
 1558POPC   C3A23621  44.749  33.704   8.063
 1558POPC   C4A23622   0.024  33.627   7.702
 1558POPC   C1B23623  44.265  34.061   8.893
 1558POPC   C2B23624  44.187  34.107   8.455
 1558POPC   C3B23625  44.363  34.077   8.059
 1558POPC   C4B23626  44.257  33.758   7.768
 1559POPC   NC323627   9.119  31.924   9.803
 1559POPC   PO423628   9.246  32.398   9.353
 1559POPC   GL123629   8.844  32.333   9.164
 1559POPC   GL223630   8.744  31.956   9.216
 1559POPC   C1A23631   8.809  32.526   8.733
 1559POPC   D2A23632   9.163  32.489   8.416
 1559POPC   C3A23633   9.003  32.531   7.994
 1559POPC   C4A23634   8.574  32.418   7.845
 1559POPC   C1B23635   8.841  32.009   8.763
 1559POPC   C2B23636   8.692  32.113   8.324
 1559POPC   C3B23637   8.797  31.976   7.874
 1559POPC   C4B23638   8.700  31.903   7.410
 1560POPC   NC323639   6.298  32.758   9.375
 1560POPC   PO423640   6.942  32.982   9.384
 1560POPC   GL123641   6.615  33.106   9.101
 1560POPC   GL223642   6.621  32.774   8.991
 1560POPC   C1A23643   6.504  33.135   8.650
 1560POPC   D2A23644   6.679  33.339   8.300
 1560POPC   C3A23645   6.590  33.252   7.854
 1560POPC   C4A23646   6.234  33.370   7.623
 1560POPC   C1B23647   6.983  32.817   8.741
 1560POPC   C2B23648   7.040  32.913   8.331
 1560POPC   C3B23649   6.954  32.867   7.903
 1560POPC   C4B23650   6.599  32.779   7.646
 1561POPC   NC323651  36.976  29.435   9.460
 1561POPC   PO423652  36.860  28.750   9.327
 1561POPC   GL123653  37.098  28.988   9.019
 1561POPC   GL223654  36.925  29.322   8.953
 1561POPC   C1A23655  37.175  29.051   8.567
 1561POPC   D2A23656  36.892  29.363   8.374
 1561POPC   C3A23657  36.998  29.608   8.006
 1561POPC   C4A23658  37.102  29.355   7.656
 1561POPC   C1B23659  36.675  29.005   8.714
 1561POPC   C2B23660  36.745  28.808   8.314
 1561POPC   C3B23661  36.780  29.055   7.939
 1561POPC   C4B23662  36.641  29.117   7.522
 1562POPC   NC323663   7.449  44.760   9.858
 1562POPC   PO423664   7.663  44.308   9.317
 1562POPC   GL123665   7.463  44.625   9.141
 1562POPC   GL223666   7.755  44.774   9.110
 1562POPC   C1A23667   7.408  44.844   8.735
 1562POPC   D2A23668   7.165  45.000   8.376
 1562POPC   C3A23669   7.285  44.827   7.987
 1562POPC   C4A23670   7.309  44.636   7.569
 1562POPC   C1B23671   7.907  44.628   8.725
 1562POPC   C2B23672   7.821  44.678   8.291
 1562POPC   C3B23673   7.782  44.725   7.846
 1562POPC   C4B23674   7.707  44.888   7.447
 1563POPC   NC323675  37.355  24.401   9.695
 1563POPC   PO423676  37.517  24.708   9.105
 1563POPC   GL123677  37.656  24.378   8.965
 1563POPC   GL223678  37.429  24.187   9.208
 1563POPC   C1A23679  37.620  24.450   8.516
 1563POPC   D2A23680  37.503  24.851   8.311
 1563POPC   C3A23681  37.555  24.680   7.936
 1563POPC   C4A23682  37.809  24.308   7.864
 1563POPC   C1B23683  37.190  24.190   8.834
 1563POPC   C2B23684  37.303  24.074   8.407
 1563POPC   C3B23685  37.326  24.221   7.997
 1563POPC   C4B23686  37.153  24.425   7.647
 1564POPC   NC323687  29.733   0.560   9.538
 1564POPC   PO423688  30.320   0.295   9.436
 1564POPC   GL123689  30.028   0.292   9.117
 1564POPC   GL223690  29.795   0.587   9.030
 1564POPC   C1A23691  29.960   0.195   8.699
 1564POPC   D2A23692  29.907   0.393   8.329
 1564POPC   C3A23693  30.102   0.186   7.998
 1564POPC   C4A23694  29.988   0.152   7.572
 1564POPC   C1B23695  30.159   0.769   8.800
 1564POPC   C2B23696  30.311   0.740   8.362
 1564POPC   C3B23697  30.059   0.741   7.981
 1564POPC   C4B23698  30.145   0.713   7.571
 1565POPC   NC323699  25.704   4.253   9.295
 1565POPC   PO423700  26.243   4.369   9.587
 1565POPC   GL123701  26.467   4.312   9.197
 1565POPC   GL223702  26.259   4.069   9.003
 1565POPC   C1A23703  26.515   4.521   8.799
 1565POPC   D2A23704  26.273   4.636   8.409
 1565POPC   C3A23705  26.191   4.338   8.097
 1565POPC   C4A23706  26.393   4.421   7.739
 1565POPC   C1B23707  26.001   4.363   8.738
 1565POPC   C2B23708  25.757   4.489   8.372
 1565POPC   C3B23709  25.826   4.668   7.958
 1565POPC   C4B23710  25.856   4.520   7.546
 1566POPC   NC323711   0.100  37.893   9.655
 1566POPC   PO423712  44.539  37.466   9.476
 1566POPC   GL123713  44.469  37.733   9.112
 1566POPC   GL223714  44.247  38.030   9.110
 1566POPC   C1A23715  44.642  37.713   8.722
 1566POPC   D2A23716  44.787  37.848   8.330
 1566POPC   C3A23717  44.865  37.517   8.115
 1566POPC   C4A23718  44.798  37.478   7.726
 1566POPC   C1B23719  44.144  37.847   8.710
 1566POPC   C2B23720  44.133  37.917   8.269
 1566POPC   C3B23721  44.400  37.732   7.957
 1566POPC   C4B23722  44.402  37.686   7.512
 1567POPC   NC323723   2.502  37.677   9.463
 1567POPC   PO423724   3.099  37.849   9.448
 1567POPC   GL123725   2.836  37.861   9.078
 1567POPC   GL223726   2.607  37.560   8.992
 1567POPC   C1A23727   2.784  37.865   8.635
 1567POPC   D2A23728   2.752  37.633   8.278
 1567POPC   C3A23729   2.574  37.863   7.933
 1567POPC   C4A23730   2.801  37.773   7.550
 1567POPC   C1B23731   2.313  37.675   8.641
 1567POPC   C2B23732   2.282  37.502   8.174
 1567POPC   C3B23733   2.572  37.387   7.788
 1567POPC   C4B23734   2.554  37.431   7.294
 1568POPC   NC323735  14.510  17.249   9.406
 1568POPC   PO423736  14.667  17.845   9.399
 1568POPC   GL123737  14.356  17.659   9.101
 1568POPC   GL223738  14.068  17.867   9.014
 1568POPC   C1A23739  14.239  17.468   8.709
 1568POPC   D2A23740  14.366  17.320   8.308
 1568POPC   C3A23741  14.576  17.514   7.945
 1568POPC   C4A23742  14.881  17.380   7.616
 1568POPC   C1B23743  13.932  17.875   8.614
 1568POPC   C2B23744  13.948  17.627   8.271
 1568POPC   C3B23745  14.111  17.755   7.878
 1568POPC   C4B23746  14.140  17.789   7.429
 1569POPC   NC323747   7.852   7.862   9.622
 1569POPC   PO423748   8.377   8.237   9.559
 1569POPC   GL123749   8.103   8.240   9.231
 1569POPC   GL223750   8.096   7.906   9.140
 1569POPC   C1A23751   8.096   8.315   8.797
 1569POPC   D2A23752   7.791   8.487   8.542
 1569POPC   C3A23753   7.949   8.650   8.159
 1569POPC   C4A23754   8.043   8.351   7.813
 1569POPC   C1B23755   8.304   7.868   8.730
 1569POPC   C2B23756   8.079   8.067   8.333
 1569POPC   C3B23757   7.883   7.868   7.942
 1569POPC   C4B23758   7.968   7.952   7.474
 1570POPC   NC323759  35.808   4.676   9.487
 1570POPC   PO423760  35.846   5.324   9.503
 1570POPC   GL123761  36.000   5.029   9.155
 1570POPC   GL223762  35.767   4.800   9.007
 1570POPC   C1A23763  36.200   5.080   8.726
 1570POPC   D2A23764  36.458   5.105   8.336
 1570POPC   C3A23765  36.147   5.168   7.989
 1570POPC   C4A23766  35.830   5.132   7.634
 1570POPC   C1B23767  35.912   4.672   8.658
 1570POPC   C2B23768  36.142   4.689   8.302
 1570POPC   C3B23769  35.992   4.695   7.907
 1570POPC   C4B23770  36.233   4.810   7.578
 1571POPC   NC323771  10.574  42.571   9.641
 1571POPC   PO423772  10.755  42.007   9.510
 1571POPC   GL123773  10.460  42.256   9.205
 1571POPC   GL223774  10.416  42.641   9.168
 1571POPC   C1A23775  10.274  42.217   8.758
 1571POPC   D2A23776  10.120  42.102   8.306
 1571POPC   C3A23777  10.429  42.195   7.940
 1571POPC   C4A23778  10.743  42.466   7.728
 1571POPC   C1B23779  10.152  42.707   8.809
 1571POPC   C2B23780  10.185  42.703   8.398
 1571POPC   C3B23781  10.477  42.702   8.094
 1571POPC   C4B23782  10.268  42.640   7.713
 1572POPC   NC323783  11.855  29.111   9.680
 1572POPC   PO423784  12.163  29.666   9.319
 1572POPC   GL123785  11.945  29.300   9.221
 1572POPC   GL223786  12.222  29.119   9.212
 1572POPC   C1A23787  11.721  29.083   8.909
 1572POPC   D2A23788  11.636  28.934   8.467
 1572POPC   C3A23789  11.926  28.996   8.175
 1572POPC   C4A23790  12.170  29.106   7.848
 1572POPC   C1B23791  12.178  29.322   8.778
 1572POPC   C2B23792  12.322  29.300   8.359
 1572POPC   C3B23793  12.433  29.506   7.978
 1572POPC   C4B23794  12.535  29.321   7.541
 1573POPC   NC323795  37.181  42.721   9.295
 1573POPC   PO423796  36.617  42.217   9.421
 1573POPC   GL123797  36.842  42.214   9.083
 1573POPC   GL223798  37.148  42.025   9.160
 1573POPC   C1A23799  36.759  42.446   8.713
 1573POPC   D2A23800  36.672  42.518   8.300
 1573POPC   C3A23801  37.031  42.631   8.049
 1573POPC   C4A23802  36.792  42.426   7.756
 1573POPC   C1B23803  37.214  42.180   8.748
 1573POPC   C2B23804  37.042  42.176   8.345
 1573POPC   C3B23805  37.015  42.018   7.951
 1573POPC   C4B23806  37.252  41.827   7.604
 1574POPC   NC323807  22.392  31.787   9.440
 1574POPC   PO423808  21.865  31.518   9.833
 1574POPC   GL123809  22.112  31.377   9.335
 1574POPC   GL223810  22.382  31.358   9.103
 1574POPC   C1A23811  22.020  31.553   8.827
 1574POPC   D2A23812  22.143  31.757   8.405
 1574POPC   C3A23813  22.184  31.441   8.069
 1574POPC   C4A23814  21.934  31.313   7.718
 1574POPC   C1B23815  22.514  31.667   8.787
 1574POPC   C2B23816  22.630  31.592   8.363
 1574POPC   C3B23817  22.503  31.832   8.012
 1574POPC   C4B23818  22.433  31.597   7.627
 1575POPC   NC323819  15.728  30.687   9.625
 1575POPC   PO423820  16.234  30.840   9.413
 1575POPC   GL123821  16.019  30.498   9.165
 1575POPC   GL223822  15.627  30.446   9.198
 1575POPC   C1A23823  16.153  30.611   8.716
 1575POPC   D2A23824  16.344  30.694   8.292
 1575POPC   C3A23825  16.121  30.993   7.990
 1575POPC   C4A23826  16.054  31.107   7.547
 1575POPC   C1B23827  15.688  30.357   8.776
 1575POPC   C2B23828  15.821  30.455   8.363
 1575POPC   C3B23829  15.966  30.501   7.967
 1575POPC   C4B23830  15.709  30.724   7.674
 1576POPC   NC323831   0.977  10.753   9.525
 1576POPC   PO423832   1.318  10.092   9.595
 1576POPC   GL123833   1.271  10.272   9.171
 1576POPC   GL223834   1.269  10.652   9.127
 1576POPC   C1A23835   1.384  10.372   8.727
 1576POPC   D2A23836   1.476  10.421   8.299
 1576POPC   C3A23837   1.118  10.319   8.016
 1576POPC   C4A23838   1.078  10.143   7.644
 1576POPC   C1B23839   1.237  10.883   8.741
 1576POPC   C2B23840   1.424  10.944   8.351
 1576POPC   C3B23841   1.261  10.797   7.968
 1576POPC   C4B23842   1.174  10.627   7.526
 1577POPC   NC323843  25.244   3.708   9.570
 1577POPC   PO423844  25.339   3.130   9.740
 1577POPC   GL123845  25.252   3.310   9.241
 1577POPC   GL223846  25.179   3.674   9.073
 1577POPC   C1A23847  25.447   3.286   8.829
 1577POPC   D2A23848  25.240   3.287   8.458
 1577POPC   C3A23849  25.390   3.503   8.124
 1577POPC   C4A23850  25.262   3.416   7.722
 1577POPC   C1B23851  24.997   3.950   8.716
 1577POPC   C2B23852  24.986   3.873   8.248
 1577POPC   C3B23853  25.235   3.915   7.848
 1577POPC   C4B23854  25.583   3.869   7.563
 1578POPC   NC323855   3.793  28.581   9.543
 1578POPC   PO423856   3.596  27.954   9.640
 1578POPC   GL123857   3.479  28.244   9.286
 1578POPC   GL223858   3.820  28.246   9.178
 1578POPC   C1A23859   3.318  28.451   8.879
 1578POPC   D2A23860   3.052  28.612   8.539
 1578POPC   C3A23861   3.139  28.532   8.126
 1578POPC   C4A23862   3.279  28.371   7.751
 1578POPC   C1B23863   3.838  28.535   8.836
 1578POPC   C2B23864   3.671  28.539   8.421
 1578POPC   C3B23865   3.707  28.264   8.092
 1578POPC   C4B23866   3.881  28.235   7.724
 1579POPC   NC323867   9.604  13.987   9.746
 1579POPC   PO423868   9.790  13.391   9.582
 1579POPC   GL123869   9.671  13.577   9.211
 1579POPC   GL223870   9.948  13.422   9.078
 1579POPC   C1A23871   9.575  13.769   8.798
 1579POPC   D2A23872   9.755  13.802   8.380
 1579POPC   C3A23873   9.553  13.752   7.947
 1579POPC   C4A23874   9.431  13.571   7.528
 1579POPC   C1B23875  10.097  13.619   8.733
 1579POPC   C2B23876  10.078  13.415   8.348
 1579POPC   C3B23877  10.068  13.573   7.980
 1579POPC   C4B23878   9.932  13.608   7.596
 1580POPC   NC323879  38.663  39.102   9.484
 1580POPC   PO423880  38.496  39.771   9.770
 1580POPC   GL123881  38.454  39.579   9.268
 1580POPC   GL223882  38.190  39.283   9.264
 1580POPC   C1A23883  38.469  39.415   8.826
 1580POPC   D2A23884  38.634  39.082   8.530
 1580POPC   C3A23885  38.637  39.215   8.101
 1580POPC   C4A23886  38.556  39.081   7.688
 1580POPC   C1B23887  38.062  39.074   8.896
 1580POPC   C2B23888  38.109  39.153   8.463
 1580POPC   C3B23889  38.052  39.088   8.023
 1580POPC   C4B23890  38.041  39.013   7.579
 1581POPC   NC323891  18.483  23.275   9.353
 1581POPC   PO423892  18.106  22.691   9.401
 1581POPC   GL123893  18.240  22.910   9.070
 1581POPC   GL223894  18.011  23.184   9.113
 1581POPC   C1A23895  18.263  22.739   8.678
 1581POPC   D2A23896  18.251  22.465   8.362
 1581POPC   C3A23897  18.340  22.647   7.970
 1581POPC   C4A23898  17.956  22.770   7.804
 1581POPC   C1B23899  18.091  23.216   8.669
 1581POPC   C2B23900  18.102  23.011   8.257
 1581POPC   C3B23901  18.262  23.185   7.867
 1581POPC   C4B23902  18.384  23.485   7.538
 1582POPC   NC323903  10.807   8.683   9.423
 1582POPC   PO423904  10.359   9.241   9.584
 1582POPC   GL123905  10.535   9.108   9.191
 1582POPC   GL223906  10.416   8.801   9.072
 1582POPC   C1A23907  10.397   9.199   8.758
 1582POPC   D2A23908  10.296   8.964   8.387
 1582POPC   C3A23909  10.454   9.107   7.992
 1582POPC   C4A23910  10.404   9.246   7.560
 1582POPC   C1B23911  10.674   8.747   8.718
 1582POPC   C2B23912  10.817   8.855   8.280
 1582POPC   C3B23913  10.788   8.714   7.865
 1582POPC   C4B23914  10.717   8.860   7.434
 1583POPC   NC323915  10.748  16.222   9.499
 1583POPC   PO423916  10.320  15.717   9.752
 1583POPC   GL123917  10.372  15.759   9.296
 1583POPC   GL223918  10.705  15.745   9.192
 1583POPC   C1A23919  10.408  15.987   8.867
 1583POPC   D2A23920  10.696  15.887   8.514
 1583POPC   C3A23921  10.632  16.146   8.128
 1583POPC   C4A23922  10.799  16.045   7.731
 1583POPC   C1B23923  10.418  15.489   8.882
 1583POPC   C2B23924  10.224  15.631   8.504
 1583POPC   C3B23925  10.433  15.661   8.086
 1583POPC   C4B23926  10.254  15.611   7.681
 1584POPC   NC323927  25.127  10.977   9.380
 1584POPC   PO423928  25.255  11.575   9.574
 1584POPC   GL123929  25.311  11.403   9.159
 1584POPC   GL223930  25.519  11.078   9.065
 1584POPC   C1A23931  25.388  11.483   8.732
 1584POPC   D2A23932  25.618  11.346   8.395
 1584POPC   C3A23933  25.467  11.570   8.063
 1584POPC   C4A23934  25.283  11.452   7.687
 1584POPC   C1B23935  25.674  10.799   8.709
 1584POPC   C2B23936  25.665  10.811   8.249
 1584POPC   C3B23937  25.604  11.101   7.915
 1584POPC   C4B23938  25.359  10.983   7.520
 1585POPC   NC323939  10.879   7.203   9.483
 1585POPC   PO423940  11.471   7.493   9.318
 1585POPC   GL123941  11.144   7.330   9.044
 1585POPC   GL223942  10.810   7.440   9.048
 1585POPC   C1A23943  11.143   7.249   8.619
 1585POPC   D2A23944  11.506   7.270   8.348
 1585POPC   C3A23945  11.460   7.435   7.952
 1585POPC   C4A23946  11.239   7.107   7.765
 1585POPC   C1B23947  10.869   7.702   8.679
 1585POPC   C2B23948  11.091   7.636   8.280
 1585POPC   C3B23949  10.916   7.467   7.898
 1585POPC   C4B23950  10.932   7.488   7.440
 1586POPC   NC323951  38.533  32.776   9.437
 1586POPC   PO423952  38.478  33.392   9.655
 1586POPC   GL123953  38.757  33.283   9.259
 1586POPC   GL223954  38.503  33.105   9.055
 1586POPC   C1A23955  38.895  33.220   8.791
 1586POPC   D2A23956  38.580  33.127   8.458
 1586POPC   C3A23957  38.682  33.107   8.002
 1586POPC   C4A23958  38.928  33.012   7.649
 1586POPC   C1B23959  38.154  33.165   8.772
 1586POPC   C2B23960  38.071  33.107   8.335
 1586POPC   C3B23961  38.136  33.190   7.893
 1586POPC   C4B23962  38.202  32.870   7.598
 1587POPC   NC323963  25.250  41.357   9.517
 1587POPC   PO423964  24.763  41.137   9.127
 1587POPC   GL123965  25.144  41.385   9.010
 1587POPC   GL223966  25.531  41.330   9.109
 1587POPC   C1A23967  25.057  41.587   8.640
 1587POPC   D2A23968  24.793  41.582   8.261
 1587POPC   C3A23969  24.975  41.402   7.969
 1587POPC   C4A23970  25.374  41.461   7.854
 1587POPC   C1B23971  25.567  41.558   8.745
 1587POPC   C2B23972  25.443  41.383   8.360
 1587POPC   C3B23973  25.707  41.165   8.091
 1587POPC   C4B23974  25.891  41.415   7.776
 1588POPC   NC323975  17.402  19.108   9.487
 1588POPC   PO423976  17.280  18.531   9.167
 1588POPC   GL123977  17.303  18.902   9.020
 1588POPC   GL223978  17.617  18.930   9.056
 1588POPC   C1A23979  17.231  19.129   8.660
 1588POPC   D2A23980  17.106  19.001   8.238
 1588POPC   C3A23981  17.266  19.138   7.823
 1588POPC   C4A23982  17.670  18.963   7.679
 1588POPC   C1B23983  17.780  18.957   8.688
 1588POPC   C2B23984  17.792  19.330   8.460
 1588POPC   C3B23985  17.710  19.338   8.046
 1588POPC   C4B23986  17.775  19.451   7.648
 1589POPC   NC323987   9.829  19.846   9.975
 1589POPC   PO423988   9.443  20.405   9.592
 1589POPC   GL123989   9.576  20.114   9.243
 1589POPC   GL223990   9.882  19.889   9.249
 1589POPC   C1A23991   9.636  19.959   8.814
 1589POPC   D2A23992   9.434  20.019   8.436
 1589POPC   C3A23993   9.698  20.165   8.105
 1589POPC   C4A23994   9.625  20.034   7.680
 1589POPC   C1B23995  10.106  19.757   8.839
 1589POPC   C2B23996   9.948  19.841   8.413
 1589POPC   C3B23997  10.075  19.829   7.970
 1589POPC   C4B23998  10.013  19.681   7.557
 1590POPC   NC323999  26.767  30.882   9.441
 1590POPC   PO424000  27.033  30.241   9.586
 1590POPC   GL124001  27.076  30.504   9.189
 1590POPC   GL224002  27.055  30.841   9.013
 1590POPC   C1A24003  26.813  30.465   8.795
 1590POPC   D2A24004  26.953  30.263   8.428
 1590POPC   C3A24005  27.108  30.543   8.119
 1590POPC   C4A24006  26.979  30.424   7.726
 1590POPC   C1B24007  26.849  31.046   8.708
 1590POPC   C2B24008  26.628  30.802   8.405
 1590POPC   C3B24009  26.631  30.745   7.987
 1590POPC   C4B24010  26.942  30.928   7.764
 1591POPC   NC324011  24.879  19.170   9.483
 1591POPC   PO424012  25.479  19.153   9.350
 1591POPC   GL124013  25.149  18.931   9.121
 1591POPC   GL224014  24.892  19.196   8.974
 1591POPC   C1A24015  25.158  18.784   8.728
 1591POPC   D2A24016  25.086  19.010   8.356
 1591POPC   C3A24017  25.249  18.851   7.983
 1591POPC   C4A24018  25.065  18.715   7.628
 1591POPC   C1B24019  25.271  19.317   8.742
 1591POPC   C2B24020  25.535  19.428   8.411
 1591POPC   C3B24021  25.489  19.301   7.999
 1591POPC   C4B24022  25.169  19.261   7.723
 1592POPC   NC324023  22.202  24.184   9.789
 1592POPC   PO424024  21.770  24.654   9.924
 1592POPC   GL124025  21.938  24.482   9.432
 1592POPC   GL224026  22.222  24.245   9.290
 1592POPC   C1A24027  21.919  24.507   8.951
 1592POPC   D2A24028  21.944  24.455   8.484
 1592POPC   C3A24029  21.710  24.480   8.077
 1592POPC   C4A24030  21.910  24.486   7.693
 1592POPC   C1B24031  22.389  24.203   8.874
 1592POPC   C2B24032  22.501  24.348   8.456
 1592POPC   C3B24033  22.263  24.396   8.066
 1592POPC   C4B24034  22.318  24.147   7.696
 1593POPC   NC324035  35.576  37.560   9.528
 1593POPC   PO424036  35.017  37.169   9.244
 1593POPC   GL124037  35.367  37.385   9.077
 1593POPC   GL224038  35.333  37.765   9.111
 1593POPC   C1A24039  35.335  37.521   8.663
 1593POPC   D2A24040  35.285  37.643   8.268
 1593POPC   C3A24041  35.131  37.353   7.973
 1593POPC   C4A24042  35.379  37.565   7.720
 1593POPC   C1B24043  35.155  38.001   8.760
 1593POPC   C2B24044  34.977  38.066   8.366
 1593POPC   C3B24045  35.122  38.023   7.960
 1593POPC   C4B24046  35.510  38.057   7.773
 1594POPC   NC324047  32.024  23.505   9.516
 1594POPC   PO424048  31.385  23.772   9.499
 1594POPC   GL124049  31.460  23.833   9.081
 1594POPC   GL224050  31.798  23.804   9.125
 1594POPC   C1A24051  31.508  23.856   8.658
 1594POPC   D2A24052  31.208  23.749   8.354
 1594POPC   C3A24053  31.321  23.922   7.993
 1594POPC   C4A24054  31.542  23.820   7.667
 1594POPC   C1B24055  31.830  23.496   8.858
 1594POPC   C2B24056  31.901  23.594   8.449
 1594POPC   C3B24057  31.688  23.601   8.120
 1594POPC   C4B24058  31.888  23.496   7.752
 1595POPC   NC324059  10.944  31.360   9.408
 1595POPC   PO424060  10.352  31.649   9.525
 1595POPC   GL124061  10.437  31.403   9.217
 1595POPC   GL224062  10.678  31.582   9.039
 1595POPC   C1A24063  10.290  31.329   8.814
 1595POPC   D2A24064  10.476  31.475   8.443
 1595POPC   C3A24065  10.411  31.246   8.057
 1595POPC   C4A24066  10.125  31.319   7.714
 1595POPC   C1B24067  10.943  31.483   8.704
 1595POPC   C2B24068  10.948  31.449   8.271
 1595POPC   C3B24069  10.657  31.687   8.000
 1595POPC   C4B24070  10.611  31.481   7.617
 1596POPC   NC324071   2.295   0.777   9.470
 1596POPC   PO424072   1.988   1.419   9.507
 1596POPC   GL124073   2.077   1.150   9.152
 1596POPC   GL224074   1.812   0.925   9.076
 1596POPC   C1A24075   2.208   1.286   8.727
 1596POPC   D2A24076   2.122   1.191   8.272
 1596POPC   C3A24077   1.972   1.512   7.928
 1596POPC   C4A24078   2.103   1.644   7.493
 1596POPC   C1B24079   1.930   0.871   8.679
 1596POPC   C2B24080   1.782   0.741   8.305
 1596POPC   C3B24081   1.684   1.035   8.013
 1596POPC   C4B24082   2.048   0.992   7.805
 1597POPC   NC324083  28.691  28.423   9.473
 1597POPC   PO424084  29.301  28.251   9.537
 1597POPC   GL124085  29.241  28.447   9.133
 1597POPC   GL224086  28.953  28.649   9.099
 1597POPC   C1A24087  29.212  28.299   8.711
 1597POPC   D2A24088  29.162  28.000   8.386
 1597POPC   C3A24089  29.322  28.143   8.010
 1597POPC   C4A24090  29.016  28.361   7.812
 1597POPC   C1B24091  29.045  28.784   8.683
 1597POPC   C2B24092  28.965  28.617   8.275
 1597POPC   C3B24093  28.698  28.744   7.907
 1597POPC   C4B24094  28.871  28.686   7.457
 1598POPC   NC324095  29.393  24.392   9.510
 1598POPC   PO424096  28.710  24.578   9.465
 1598POPC   GL124097  29.013  24.446   9.166
 1598POPC   GL224098  29.297  24.698   9.125
 1598POPC   C1A24099  29.068  24.184   8.794
 1598POPC   D2A24100  29.121  24.331   8.384
 1598POPC   C3A24101  29.070  24.187   7.996
 1598POPC   C4A24102  29.134  24.536   7.734
 1598POPC   C1B24103  29.159  24.714   8.738
 1598POPC   C2B24104  29.436  24.719   8.410
 1598POPC   C3B24105  29.399  24.857   8.038
 1598POPC   C4B24106  29.558  24.793   7.675
 1599POPC   NC324107  30.994  28.608   9.520
 1599POPC   PO424108  30.566  29.154   9.530
 1599POPC   GL124109  30.581  29.309   9.122
 1599POPC   GL224110  30.402  29.005   9.051
 1599POPC   C1A24111  30.653  29.302   8.677
 1599POPC   D2A24112  30.857  29.139   8.309
 1599POPC   C3A24113  30.640  29.273   7.974
 1599POPC   C4A24114  30.627  29.477   7.575
 1599POPC   C1B24115  30.429  28.738   8.710
 1599POPC   C2B24116  30.495  28.786   8.291
 1599POPC   C3B24117  30.653  28.764   7.897
 1599POPC   C4B24118  30.810  28.976   7.541
 1600POPC   NC324119   7.251  35.860   9.429
 1600POPC   PO424120   7.502  35.211   9.438
 1600POPC   GL124121   7.592  35.341   9.026
 1600POPC   GL224122   7.559  35.668   9.054
 1600POPC   C1A24123   7.472  35.420   8.615
 1600POPC   D2A24124   7.342  35.168   8.305
 1600POPC   C3A24125   7.475  35.294   7.947
 1600POPC   C4A24126   7.215  35.457   7.624
 1600POPC   C1B24127   7.682  35.878   8.709
 1600POPC   C2B24128   7.753  35.739   8.306
 1600POPC   C3B24129   7.516  35.820   7.963
 1600POPC   C4B24130   7.436  35.900   7.566
 1601POPC   NC324131   4.372   2.284   9.735
 1601POPC   PO424132   4.105   1.695   9.529
 1601POPC   GL124133   4.314   1.802   9.099
 1601POPC   GL224134   4.655   1.831   9.007
 1601POPC   C1A24135   4.149   1.924   8.718
 1601POPC   D2A24136   4.111   2.216   8.450
 1601POPC   C3A24137   4.113   2.017   8.093
 1601POPC   C4A24138   3.975   1.998   7.726
 1601POPC   C1B24139   4.573   2.186   8.687
 1601POPC   C2B24140   4.567   2.018   8.326
 1601POPC   C3B24141   4.668   1.727   8.055
 1601POPC   C4B24142   4.500   1.950   7.747
 1602POPC   NC324143  25.347  17.836   9.309
 1602POPC   PO424144  25.364  18.415   9.607
 1602POPC   GL124145  25.266  18.412   9.180
 1602POPC   GL224146  24.980  18.213   9.223
 1602POPC   C1A24147  25.284  18.273   8.741
 1602POPC   D2A24148  25.303  18.494   8.335
 1602POPC   C3A24149  25.251  18.325   7.930
 1602POPC   C4A24150  25.615  18.281   7.690
 1602POPC   C1B24151  24.821  18.391   8.873
 1602POPC   C2B24152  24.828  18.414   8.458
 1602POPC   C3B24153  24.833  18.601   8.102
 1602POPC   C4B24154  24.715  18.380   7.775
 1603POPC   NC324155  16.887  18.449   9.371
 1603POPC   PO424156  16.436  18.013   9.310
 1603POPC   GL124157  16.565  18.294   9.016
 1603POPC   GL224158  16.444  18.628   9.084
 1603POPC   C1A24159  16.864  18.253   8.691
 1603POPC   D2A24160  17.040  17.869   8.535
 1603POPC   C3A24161  17.225  17.995   8.163
 1603POPC   C4A24162  16.947  18.094   7.833
 1603POPC   C1B24163  16.374  18.532   8.631
 1603POPC   C2B24164  16.556  18.318   8.256
 1603POPC   C3B24165  16.509  18.347   7.807
 1603POPC   C4B24166  16.321  18.678   7.601
 1604POPC   NC324167  25.921  21.798   9.405
 1604POPC   PO424168  26.343  21.339   9.400
 1604POPC   GL124169  25.998  21.388   9.109
 1604POPC   GL224170  25.700  21.219   9.210
 1604POPC   C1A24171  26.032  21.518   8.695
 1604POPC   D2A24172  26.328  21.390   8.367
 1604POPC   C3A24173  26.184  21.424   7.944
 1604POPC   C4A24174  26.125  21.088   7.614
 1604POPC   C1B24175  25.753  21.063   8.786
 1604POPC   C2B24176  25.722  21.274   8.377
 1604POPC   C3B24177  25.773  21.142   8.004
 1604POPC   C4B24178  25.598  21.129   7.660
 1605POPC   NC324179  42.928  43.269   9.494
 1605POPC   PO424180  43.468  42.838   9.495
 1605POPC   GL124181  43.359  43.220   9.218
 1605POPC   GL224182  43.101  43.008   9.045
 1605POPC   C1A24183  43.121  43.489   8.879
 1605POPC   D2A24184  43.125  43.592   8.427
 1605POPC   C3A24185  43.151  43.186   8.223
 1605POPC   C4A24186  43.039  43.025   7.799
 1605POPC   C1B24187  42.813  42.863   8.704
 1605POPC   C2B24188  42.817  42.806   8.246
 1605POPC   C3B24189  42.575  42.764   7.879
 1605POPC   C4B24190  42.741  42.795   7.441
 1606POPC   NC324191  13.131   5.931   9.357
 1606POPC   PO424192  12.602   5.438   9.485
 1606POPC   GL124193  12.759   5.694   9.117
 1606POPC   GL224194  12.834   6.047   8.974
 1606POPC   C1A24195  13.086   5.672   8.761
 1606POPC   D2A24196  13.070   5.939   8.403
 1606POPC   C3A24197  13.047   5.716   8.018
 1606POPC   C4A24198  12.797   5.806   7.674
 1606POPC   C1B24199  12.981   6.385   8.748
 1606POPC   C2B24200  12.946   6.513   8.342
 1606POPC   C3B24201  12.972   6.242   7.980
 1606POPC   C4B24202  12.657   6.308   7.710
 1607POPC   NC324203   5.400  18.195   9.478
 1607POPC   PO424204   4.788  18.403   9.523
 1607POPC   GL124205   4.899  18.144   9.179
 1607POPC   GL224206   4.845  18.468   9.028
 1607POPC   C1A24207   5.255  17.989   8.890
 1607POPC   D2A24208   5.290  17.967   8.422
 1607POPC   C3A24209   5.365  18.284   8.071
 1607POPC   C4A24210   5.077  18.206   7.764
 1607POPC   C1B24211   4.945  18.290   8.662
 1607POPC   C2B24212   4.911  18.280   8.269
 1607POPC   C3B24213   4.819  18.578   8.014
 1607POPC   C4B24214   4.679  18.483   7.588
 1608POPC   NC324215  25.352  12.925   9.538
 1608POPC   PO424216  24.761  12.713   9.698
 1608POPC   GL124217  24.925  12.932   9.256
 1608POPC   GL224218  25.230  12.771   9.083
 1608POPC   C1A24219  24.882  13.045   8.798
 1608POPC   D2A24220  24.995  13.211   8.369
 1608POPC   C3A24221  25.224  13.047   8.001
 1608POPC   C4A24222  25.149  13.007   7.547
 1608POPC   C1B24223  25.414  13.045   8.839
 1608POPC   C2B24224  25.489  13.018   8.451
 1608POPC   C3B24225  25.734  12.867   8.146
 1608POPC   C4B24226  25.621  12.890   7.712
 1609POPC   NC324227   9.432  16.999   9.544
 1609POPC   PO424228   9.553  17.749   9.417
 1609POPC   GL124229   9.695  17.329   9.247
 1609POPC   GL224230  10.053  17.267   9.156
 1609POPC   C1A24231   9.685  17.259   8.818
 1609POPC   D2A24232   9.626  17.550   8.492
 1609POPC   C3A24233   9.492  17.436   8.124
 1609POPC   C4A24234   9.774  17.346   7.798
 1609POPC   C1B24235  10.054  17.627   8.781
 1609POPC   C2B24236   9.923  17.958   8.427
 1609POPC   C3B24237   9.798  17.829   7.990
 1609POPC   C4B24238  10.119  17.749   7.663
 1610POPC   NC324239  27.182   4.935   9.505
 1610POPC   PO424240  26.560   5.292   9.521
 1610POPC   GL124241  26.842   5.222   9.204
 1610POPC   GL224242  26.768   4.871   9.130
 1610POPC   C1A24243  26.678   5.285   8.793
 1610POPC   D2A24244  26.663   4.976   8.469
 1610POPC   C3A24245  26.667   5.248   8.137
 1610POPC   C4A24246  26.695   5.207   7.716
 1610POPC   C1B24247  27.064   4.965   8.781
 1610POPC   C2B24248  27.133   5.152   8.349
 1610POPC   C3B24249  27.077   4.951   7.945
 1610POPC   C4B24250  27.234   4.688   7.594
 1611POPC   NC324251  30.270   6.375   9.390
 1611POPC   PO424252  29.861   6.937   9.528
 1611POPC   GL124253  29.872   6.690   9.155
 1611POPC   GL224254  30.165   6.634   8.980
 1611POPC   C1A24255  29.699   6.517   8.769
 1611POPC   D2A24256  29.781   6.192   8.483
 1611POPC   C3A24257  29.802   6.382   8.086
 1611POPC   C4A24258  29.835   6.739   7.809
 1611POPC   C1B24259  30.338   6.787   8.621
 1611POPC   C2B24260  30.148   6.787   8.249
 1611POPC   C3B24261  30.225   7.038   7.928
 1611POPC   C4B24262  30.368   6.693   7.660
 1612POPC   NC324263  35.156  27.025   9.440
 1612POPC   PO424264  35.270  26.416   9.597
 1612POPC   GL124265  35.495  26.581   9.189
 1612POPC   GL224266  35.568  26.952   9.154
 1612POPC   C1A24267  35.349  26.751   8.751
 1612POPC   D2A24268  35.479  26.608   8.352
 1612POPC   C3A24269  35.305  26.637   7.949
 1612POPC   C4A24270  35.539  26.489   7.555
 1612POPC   C1B24271  35.582  27.234   8.805
 1612POPC   C2B24272  35.689  27.065   8.434
 1612POPC   C3B24273  35.612  27.086   8.037
 1612POPC   C4B24274  35.462  27.004   7.659
 1613POPC   NC324275  14.827   4.230   9.488
 1613POPC   PO424276  15.315   4.654   9.421
 1613POPC   GL124277  15.121   4.392   9.084
 1613POPC   GL224278  14.765   4.296   9.012
 1613POPC   C1A24279  15.082   4.371   8.639
 1613POPC   D2A24280  15.367   4.284   8.367
 1613POPC   C3A24281  15.280   4.464   7.965
 1613POPC   C4A24282  15.519   4.430   7.580
 1613POPC   C1B24283  14.691   4.001   8.714
 1613POPC   C2B24284  14.872   3.940   8.339
 1613POPC   C3B24285  14.778   3.826   7.920
 1613POPC   C4B24286  14.972   4.126   7.739
 1614POPC   NC324287  22.412  25.481   9.515
 1614POPC   PO424288  21.822  25.250   9.361
 1614POPC   GL124289  22.206  25.231   9.110
 1614POPC   GL224290  22.207  24.907   9.077
 1614POPC   C1A24291  22.375  25.273   8.689
 1614POPC   D2A24292  22.122  25.318   8.309
 1614POPC   C3A24293  22.332  25.345   7.901
 1614POPC   C4A24294  22.540  25.209   7.485
 1614POPC   C1B24295  21.941  24.999   8.709
 1614POPC   C2B24296  21.746  24.923   8.337
 1614POPC   C3B24297  22.045  24.890   8.000
 1614POPC   C4B24298  22.053  25.069   7.583
 1615POPC   NC324299  29.774  30.043   9.508
 1615POPC   PO424300  30.382  29.802   9.276
 1615POPC   GL124301  30.031  29.917   9.024
 1615POPC   GL224302  29.962  30.255   9.098
 1615POPC   C1A24303  30.096  29.770   8.590
 1615POPC   D2A24304  30.428  29.641   8.302
 1615POPC   C3A24305  30.194  29.515   7.946
 1615POPC   C4A24306  29.885  29.764   7.791
 1615POPC   C1B24307  30.154  30.375   8.753
 1615POPC   C2B24308  30.070  30.246   8.353
 1615POPC   C3B24309  29.731  30.192   8.062
 1615POPC   C4B24310  29.953  30.255   7.694
 1616POPC   NC324311  31.935  11.437   9.533
 1616POPC   PO424312  31.309  11.706   9.439
 1616POPC   GL124313  31.561  11.504   9.124
 1616POPC   GL224314  31.498  11.128   9.158
 1616POPC   C1A24315  31.441  11.609   8.689
 1616POPC   D2A24316  31.200  11.264   8.492
 1616POPC   C3A24317  31.310  11.123   8.098
 1616POPC   C4A24318  31.508  11.428   7.847
 1616POPC   C1B24319  31.652  11.162   8.720
 1616POPC   C2B24320  31.831  11.440   8.379
 1616POPC   C3B24321  32.004  11.406   7.960
 1616POPC   C4B24322  31.897  10.988   7.793
 1617POPC   NC324323  13.372  29.361   9.448
 1617POPC   PO424324  12.681  29.226   9.629
 1617POPC   GL124325  12.730  29.083   9.215
 1617POPC   GL224326  12.669  29.403   9.068
 1617POPC   C1A24327  12.571  29.020   8.768
 1617POPC   D2A24328  12.653  28.868   8.372
 1617POPC   C3A24329  12.664  29.051   8.021
 1617POPC   C4A24330  12.541  28.796   7.682
 1617POPC   C1B24331  13.052  29.164   8.856
 1617POPC   C2B24332  13.164  29.016   8.468
 1617POPC   C3B24333  13.220  29.163   8.063
 1617POPC   C4B24334  12.994  29.142   7.666
 1618POPC   NC324335  21.973  39.507   9.472
 1618POPC   PO424336  22.448  39.027   9.488
 1618POPC   GL124337  22.305  39.257   9.119
 1618POPC   GL224338  21.950  39.193   9.069
 1618POPC   C1A24339  22.243  39.258   8.658
 1618POPC   D2A24340  22.475  39.474   8.347
 1618POPC   C3A24341  22.383  39.268   7.992
 1618POPC   C4A24342  22.235  39.357   7.589
 1618POPC   C1B24343  21.774  39.464   8.748
 1618POPC   C2B24344  21.933  39.607   8.349
 1618POPC   C3B24345  21.881  39.443   7.961
 1618POPC   C4B24346  21.596  39.485   7.645
 1619POPC   NC324347  43.913  29.786   9.514
 1619POPC   PO424348  44.211  30.430   9.645
 1619POPC   GL124349  43.905  30.272   9.327
 1619POPC   GL224350  44.122  30.010   9.120
 1619POPC   C1A24351  43.716  30.189   8.905
 1619POPC   D2A24352  43.899  29.994   8.531
 1619POPC   C3A24353  43.642  29.881   8.147
 1619POPC   C4A24354  43.675  30.075   7.736
 1619POPC   C1B24355  44.302  29.767   8.768
 1619POPC   C2B24356  44.220  29.662   8.311
 1619POPC   C3B24357  44.134  29.874   7.938
 1619POPC   C4B24358  44.243  29.786   7.510
 1620POPC   NC324359  34.692  22.302   9.437
 1620POPC   PO424360  34.249  21.784   9.599
 1620POPC   GL124361  34.457  21.925   9.201
 1620POPC   GL224362  34.274  22.239   9.115
 1620POPC   C1A24363  34.647  22.036   8.801
 1620POPC   D2A24364  34.875  21.818   8.505
 1620POPC   C3A24365  34.811  22.051   8.157
 1620POPC   C4A24366  35.071  22.103   7.802
 1620POPC   C1B24367  34.518  22.524   8.816
 1620POPC   C2B24368  34.681  22.617   8.393
 1620POPC   C3B24369  34.576  22.447   7.949
 1620POPC   C4B24370  34.221  22.368   7.689
 1621POPC   NC324371  43.909  19.639   9.675
 1621POPC   PO424372  44.026  18.966   9.699
 1621POPC   GL124373  43.867  19.009   9.301
 1621POPC   GL224374  43.581  18.814   9.227
 1621POPC   C1A24375  43.892  19.242   8.948
 1621POPC   D2A24376  43.910  19.155   8.538
 1621POPC   C3A24377  43.916  19.330   8.152
 1621POPC   C4A24378  43.868  19.008   7.891
 1621POPC   C1B24379  43.469  18.950   8.787
 1621POPC   C2B24380  43.560  18.851   8.344
 1621POPC   C3B24381  43.387  18.864   7.937
 1621POPC   C4B24382  43.509  18.908   7.518
 1622POPC   NC324383  30.769  25.445   9.431
 1622POPC   PO424384  30.498  24.882   9.710
 1622POPC   GL124385  30.615  25.012   9.263
 1622POPC   GL224386  30.350  25.308   9.163
 1622POPC   C1A24387  30.704  25.119   8.827
 1622POPC   D2A24388  30.865  25.010   8.413
 1622POPC   C3A24389  30.867  25.310   8.090
 1622POPC   C4A24390  30.911  25.390   7.660
 1622POPC   C1B24391  30.220  25.302   8.716
 1622POPC   C2B24392  30.396  25.283   8.279
 1622POPC   C3B24393  30.424  25.230   7.815
 1622POPC   C4B24394  30.489  25.255   7.346
 1623POPC   NC324395  41.997  34.777   9.346
 1623POPC   PO424396  42.517  34.318   9.549
 1623POPC   GL124397  42.359  34.296   9.106
 1623POPC   GL224398  42.680  34.310   9.040
 1623POPC   C1A24399  42.416  34.529   8.645
 1623POPC   D2A24400  42.408  34.766   8.246
 1623POPC   C3A24401  42.137  34.739   7.887
 1623POPC   C4A24402  41.972  34.685   7.447
 1623POPC   C1B24403  42.519  34.040   8.711
 1623POPC   C2B24404  42.240  34.108   8.362
 1623POPC   C3B24405  42.371  34.279   7.992
 1623POPC   C4B24406  42.669  34.554   7.855
 1624POPC   NC324407  17.166  16.822   9.424
 1624POPC   PO424408  16.558  16.824   9.475
 1624POPC   GL124409  16.779  16.786   9.066
 1624POPC   GL224410  17.030  17.018   8.975
 1624POPC   C1A24411  16.882  16.675   8.610
 1624POPC   D2A24412  16.898  16.593   8.131
 1624POPC   C3A24413  16.614  16.677   7.790
 1624POPC   C4A24414  16.652  16.626   7.319
 1624POPC   C1B24415  16.706  17.147   8.705
 1624POPC   C2B24416  16.722  17.078   8.304
 1624POPC   C3B24417  16.868  17.098   7.915
 1624POPC   C4B24418  16.750  17.097   7.488
 1625POPC   NC324419  20.080  41.563   9.652
 1625POPC   PO424420  20.685  41.484   9.463
 1625POPC   GL124421  20.510  41.450   9.061
 1625POPC   GL224422  20.418  41.722   9.080
 1625POPC   C1A24423  20.491  41.365   8.619
 1625POPC   D2A24424  20.636  41.609   8.317
 1625POPC   C3A24425  20.530  41.490   7.946
 1625POPC   C4A24426  20.877  41.340   7.737
 1625POPC   C1B24427  20.598  41.859   8.754
 1625POPC   C2B24428  20.407  42.108   8.460
 1625POPC   C3B24429  20.455  42.017   8.043
 1625POPC   C4B24430  20.776  41.896   7.764
 1626POPC   NC324431  19.724   8.439   9.569
 1626POPC   PO424432  19.707   7.882   9.509
 1626POPC   GL124433  19.656   8.099   9.108
 1626POPC   GL224434  19.530   8.412   9.095
 1626POPC   C1A24435  19.773   8.256   8.672
 1626POPC   D2A24436  20.014   8.522   8.368
 1626POPC   C3A24437  19.931   8.367   7.939
 1626POPC   C4A24438  19.782   8.579   7.561
 1626POPC   C1B24439  19.328   8.537   8.695
 1626POPC   C2B24440  19.520   8.581   8.264
 1626POPC   C3B24441  19.410   8.411   7.845
 1626POPC   C4B24442  19.301   8.609   7.390
 1627POPC   NC324443   7.412  10.158   9.674
 1627POPC   PO424444   7.645   9.581   9.737
 1627POPC   GL124445   7.415   9.732   9.322
 1627POPC   GL224446   7.184  10.010   9.165
 1627POPC   C1A24447   7.351   9.619   8.873
 1627POPC   D2A24448   7.505   9.445   8.443
 1627POPC   C3A24449   7.286   9.426   8.025
 1627POPC   C4A24450   7.503   9.368   7.639
 1627POPC   C1B24451   7.305  10.079   8.672
 1627POPC   C2B24452   7.401   9.914   8.198
 1627POPC   C3B24453   7.285   9.836   7.720
 1627POPC   C4B24454   7.065   9.892   7.290
 1628POPC   NC324455  40.994  38.499   9.541
 1628POPC   PO424456  40.351  38.643   9.499
 1628POPC   GL124457  40.623  38.583   9.135
 1628POPC   GL224458  40.984  38.594   9.021
 1628POPC   C1A24459  40.630  38.376   8.717
 1628POPC   D2A24460  40.840  38.148   8.390
 1628POPC   C3A24461  40.692  38.285   8.001
 1628POPC   C4A24462  40.473  38.604   7.823
 1628POPC   C1B24463  40.981  38.807   8.607
 1628POPC   C2B24464  41.017  38.651   8.171
 1628POPC   C3B24465  40.973  38.601   7.704
 1628POPC   C4B24466  40.798  38.716   7.273
 1629POPC   NC324467   6.840  10.894   9.312
 1629POPC   PO424468   6.532  11.277   9.798
 1629POPC   GL124469   6.866  11.401   9.266
 1629POPC   GL224470   6.806  11.176   8.920
 1629POPC   C1A24471   6.852  11.641   8.831
 1629POPC   D2A24472   6.895  11.352   8.432
 1629POPC   C3A24473   6.775  11.448   8.015
 1629POPC   C4A24474   6.903  11.274   7.593
 1629POPC   C1B24475   6.440  11.305   8.652
 1629POPC   C2B24476   6.381  11.046   8.296
 1629POPC   C3B24477   6.202  11.040   7.901
 1629POPC   C4B24478   6.361  11.406   7.717
 1630POPC   NC324479  38.056  13.330   9.506
 1630POPC   PO424480  38.469  13.798   9.584
 1630POPC   GL124481  38.362  13.609   9.144
 1630POPC   GL224482  37.996  13.628   9.088
 1630POPC   C1A24483  38.375  13.477   8.667
 1630POPC   D2A24484  38.262  13.221   8.271
 1630POPC   C3A24485  38.403  13.463   7.944
 1630POPC   C4A24486  38.368  13.718   7.602
 1630POPC   C1B24487  38.105  13.917   8.768
 1630POPC   C2B24488  38.222  14.013   8.348
 1630POPC   C3B24489  38.062  13.931   7.926
 1630POPC   C4B24490  37.884  14.142   7.512
 1631POPC   NC324491  18.448  34.887   9.460
 1631POPC   PO424492  18.665  34.328   9.453
 1631POPC   GL124493  18.447  34.534   9.061
 1631POPC   GL224494  18.148  34.768   9.060
 1631POPC   C1A24495  18.315  34.572   8.599
 1631POPC   D2A24496  18.089  34.709   8.209
 1631POPC   C3A24497  18.184  34.368   7.902
 1631POPC   C4A24498  18.611  34.185   7.956
 1631POPC   C1B24499  18.456  35.015   8.798
 1631POPC   C2B24500  18.584  34.947   8.346
 1631POPC   C3B24501  18.535  34.715   7.953
 1631POPC   C4B24502  18.216  34.793   7.601
 1632POPC   NC324503  38.072  25.868   9.321
 1632POPC   PO424504  38.732  26.032   9.476
 1632POPC   GL124505  38.659  26.187   9.092
 1632POPC   GL224506  38.355  26.315   9.177
 1632POPC   C1A24507  38.431  26.061   8.730
 1632POPC   D2A24508  38.333  25.936   8.314
 1632POPC   C3A24509  38.497  25.983   7.914
 1632POPC   C4A24510  38.301  26.032   7.494
 1632POPC   C1B24511  38.127  26.481   8.787
 1632POPC   C2B24512  38.050  26.348   8.358
 1632POPC   C3B24513  38.156  26.341   7.900
 1632POPC   C4B24514  37.959  26.415   7.498
 1633POPC   NC324515  31.922  26.483   9.698
 1633POPC   PO424516  32.497  26.868   9.572
 1633POPC   GL124517  32.399  26.973   9.160
 1633POPC   GL224518  32.093  26.824   9.034
 1633POPC   C1A24519  32.481  26.810   8.735
 1633POPC   D2A24520  32.502  26.503   8.444
 1633POPC   C3A24521  32.327  26.680   8.086
 1633POPC   C4A24522  32.450  26.770   7.720
 1633POPC   C1B24523  32.013  27.052   8.671
 1633POPC   C2B24524  31.978  27.083   8.236
 1633POPC   C3B24525  31.839  26.815   7.923
 1633POPC   C4B24526  31.924  26.742   7.501
 1634POPC   NC324527  33.525  27.021   9.622
 1634POPC   PO424528  33.959  26.702   9.379
 1634POPC   GL124529  33.792  26.829   9.057
 1634POPC   GL224530  33.454  26.888   9.132
 1634POPC   C1A24531  33.925  26.768   8.662
 1634POPC   D2A24532  34.065  26.896   8.297
 1634POPC   C3A24533  33.846  26.604   8.080
 1634POPC   C4A24534  33.784  26.625   7.703
 1634POPC   C1B24535  33.419  26.813   8.699
 1634POPC   C2B24536  33.547  26.953   8.327
 1634POPC   C3B24537  33.738  27.088   7.962
 1634POPC   C4B24538  33.862  27.267   7.601
 1635POPC   NC324539  10.638  41.568   9.457
 1635POPC   PO424540  10.146  41.050   9.417
 1635POPC   GL124541  10.348  41.281   9.153
 1635POPC   GL224542  10.524  41.051   9.038
 1635POPC   C1A24543  10.408  41.533   8.768
 1635POPC   D2A24544  10.526  41.450   8.321
 1635POPC   C3A24545  10.319  41.695   7.993
 1635POPC   C4A24546  10.355  41.827   7.530
 1635POPC   C1B24547  10.811  41.192   8.753
 1635POPC   C2B24548  11.037  41.169   8.380
 1635POPC   C3B24549  10.956  41.451   8.038
 1635POPC   C4B24550  10.636  41.409   7.729
 1636POPC   NC324551  44.818   6.881   9.652
 1636POPC   PO424552  44.264   6.554   9.470
 1636POPC   GL124553  44.483   6.769   9.105
 1636POPC   GL224554  44.821   6.711   9.173
 1636POPC   C1A24555  44.527   7.019   8.682
 1636POPC   D2A24556  44.520   7.017   8.229
 1636POPC   C3A24557  44.515   6.612   8.072
 1636POPC   C4A24558  44.828   6.550   7.804
 1636POPC   C1B24559  44.972   6.804   8.778
 1636POPC   C2B24560  44.964   6.684   8.345
 1636POPC   C3B24561   0.012   6.960   8.008
 1636POPC   C4B24562   0.085   7.260   7.700
 1637POPC   NC324563  34.993  23.918   9.521
 1637POPC   PO424564  34.466  23.579   9.716
 1637POPC   GL124565  34.538  23.672   9.276
 1637POPC   GL224566  34.844  23.453   9.265
 1637POPC   C1A24567  34.437  23.910   8.867
 1637POPC   D2A24568  34.723  24.045   8.530
 1637POPC   C3A24569  34.538  23.954   8.161
 1637POPC   C4A24570  34.257  23.756   7.896
 1637POPC   C1B24571  34.820  23.578   8.856
 1637POPC   C2B24572  34.543  23.554   8.516
 1637POPC   C3B24573  34.624  23.448   8.104
 1637POPC   C4B24574  34.779  23.340   7.687
 1638POPC   NC324575  20.839  34.783   9.338
 1638POPC   PO424576  20.261  34.463   9.660
 1638POPC   GL124577  20.439  34.429   9.171
 1638POPC   GL224578  20.323  34.728   8.913
 1638POPC   C1A24579  20.700  34.457   8.750
 1638POPC   D2A24580  20.533  34.683   8.385
 1638POPC   C3A24581  20.605  34.525   8.019
 1638POPC   C4A24582  20.385  34.578   7.676
 1638POPC   C1B24583  20.737  34.975   8.723
 1638POPC   C2B24584  20.957  35.012   8.312
 1638POPC   C3B24585  21.123  34.867   7.943
 1638POPC   C4B24586  20.765  34.924   7.715
 1639POPC   NC324587   3.724  25.512   9.436
 1639POPC   PO424588   3.648  24.856   9.401
 1639POPC   GL124589   3.487  25.129   9.115
 1639POPC   GL224590   3.722  25.353   8.942
 1639POPC   C1A24591   3.371  24.998   8.702
 1639POPC   D2A24592   3.167  25.082   8.308
 1639POPC   C3A24593   3.259  25.468   8.110
 1639POPC   C4A24594   3.380  25.278   7.750
 1639POPC   C1B24595   3.998  25.681   8.756
 1639POPC   C2B24596   3.992  25.864   8.328
 1639POPC   C3B24597   3.887  25.606   7.963
 1639POPC   C4B24598   3.699  25.626   7.561
 1640POPC   NC324599  12.422  33.778   9.479
 1640POPC   PO424600  11.852  34.084   9.554
 1640POPC   GL124601  11.946  33.932   9.167
 1640POPC   GL224602  12.058  33.573   9.181
 1640POPC   C1A24603  12.090  34.054   8.776
 1640POPC   D2A24604  11.890  33.941   8.382
 1640POPC   C3A24605  12.120  34.186   8.075
 1640POPC   C4A24606  12.326  34.163   7.691
 1640POPC   C1B24607  11.975  33.555   8.759
 1640POPC   C2B24608  12.171  33.500   8.347
 1640POPC   C3B24609  12.056  33.684   7.941
 1640POPC   C4B24610  11.757  33.532   7.633
 1641POPC   NC324611  26.303   7.940   9.427
 1641POPC   PO424612  25.713   7.759   9.611
 1641POPC   GL124613  25.942   7.813   9.119
 1641POPC   GL224614  26.228   7.987   8.957
 1641POPC   C1A24615  25.842   8.087   8.690
 1641POPC   D2A24616  25.991   8.094   8.259
 1641POPC   C3A24617  25.883   8.319   7.870
 1641POPC   C4A24618  26.131   8.156   7.531
 1641POPC   C1B24619  26.237   7.772   8.588
 1641POPC   C2B24620  26.481   7.945   8.275
 1641POPC   C3B24621  26.423   8.190   7.967
 1641POPC   C4B24622  26.637   8.155   7.625
 1642POPC   NC324623   5.183  33.262   9.302
 1642POPC   PO424624   5.492  33.786   9.481
 1642POPC   GL124625   5.267  33.746   9.081
 1642POPC   GL224626   5.328  33.461   8.854
 1642POPC   C1A24627   5.153  33.969   8.697
 1642POPC   D2A24628   5.202  33.849   8.273
 1642POPC   C3A24629   4.975  33.926   7.899
 1642POPC   C4A24630   5.109  34.172   7.555
 1642POPC   C1B24631   4.951  33.504   8.622
 1642POPC   C2B24632   4.893  33.459   8.186
 1642POPC   C3B24633   5.231  33.491   7.896
 1642POPC   C4B24634   5.290  33.353   7.512
 1643POPC   NC324635  35.395  31.893   9.811
 1643POPC   PO424636  35.115  31.401   9.530
 1643POPC   GL124637  35.062  31.545   9.161
 1643POPC   GL224638  35.243  31.246   9.015
 1643POPC   C1A24639  34.991  31.634   8.756
 1643POPC   D2A24640  35.280  31.592   8.430
 1643POPC   C3A24641  35.056  31.667   8.058
 1643POPC   C4A24642  35.100  31.497   7.673
 1643POPC   C1B24643  35.574  31.121   8.697
 1643POPC   C2B24644  35.733  31.355   8.338
 1643POPC   C3B24645  35.514  31.440   7.970
 1643POPC   C4B24646  35.474  31.138   7.626
 1644POPC   NC324647  44.549  11.081   9.345
 1644POPC   PO424648  44.577  10.393   9.425
 1644POPC   GL124649  44.690  10.644   9.113
 1644POPC   GL224650  44.991  10.852   9.216
 1644POPC   C1A24651  44.660  10.543   8.699
 1644POPC   D2A24652  44.934  10.271   8.466
 1644POPC   C3A24653  44.772  10.128   8.087
 1644POPC   C4A24654  44.481  10.310   7.793
 1644POPC   C1B24655  44.899  10.986   8.787
 1644POPC   C2B24656  44.980  10.785   8.375
 1644POPC   C3B24657  44.824  10.647   7.972
 1644POPC   C4B24658  44.454  10.877   7.767
 1645POPC   NC324659  29.411  19.941   9.386
 1645POPC   PO424660  28.837  19.604   9.615
 1645POPC   GL124661  28.837  19.616   9.158
 1645POPC   GL224662  29.112  19.848   8.980
 1645POPC   C1A24663  28.918  19.438   8.745
 1645POPC   D2A24664  29.184  19.678   8.494
 1645POPC   C3A24665  29.209  19.672   8.075
 1645POPC   C4A24666  28.997  19.929   7.829
 1645POPC   C1B24667  29.348  20.142   8.671
 1645POPC   C2B24668  29.271  20.198   8.215
 1645POPC   C3B24669  29.424  20.201   7.788
 1645POPC   C4B24670  29.551  20.401   7.410
 1646POPC   NC324671   8.104  36.118   9.608
 1646POPC   PO424672   8.475  36.601   9.376
 1646POPC   GL124673   8.196  36.308   9.157
 1646POPC   GL224674   8.260  35.937   9.066
 1646POPC   C1A24675   7.996  36.262   8.800
 1646POPC   D2A24676   8.160  36.015   8.458
 1646POPC   C3A24677   7.997  36.113   8.021
 1646POPC   C4A24678   7.946  35.896   7.635
 1646POPC   C1B24679   8.523  36.255   8.780
 1646POPC   C2B24680   8.673  36.379   8.361
 1646POPC   C3B24681   8.504  36.129   8.048
 1646POPC   C4B24682   8.357  36.191   7.625
 1647POPC   NC324683  13.818   4.416   9.451
 1647POPC   PO424684  14.422   4.299   9.700
 1647POPC   GL124685  14.302   4.425   9.271
 1647POPC   GL224686  14.489   4.696   9.178
 1647POPC   C1A24687  14.303   4.360   8.812
 1647POPC   D2A24688  14.140   4.243   8.428
 1647POPC   C3A24689  14.380   4.075   8.131
 1647POPC   C4A24690  14.379   4.209   7.730
 1647POPC   C1B24691  14.696   4.715   8.739
 1647POPC   C2B24692  14.645   4.466   8.360
 1647POPC   C3B24693  14.710   4.544   7.911
 1647POPC   C4B24694  14.469   4.645   7.477
 1648POPC   NC324695   0.410  21.741   9.536
 1648POPC   PO424696   0.616  22.463   9.478
 1648POPC   GL124697   0.693  22.268   9.073
 1648POPC   GL224698   0.649  21.888   9.112
 1648POPC   C1A24699   0.576  22.351   8.623
 1648POPC   D2A24700   0.274  22.388   8.267
 1648POPC   C3A24701   0.318  22.544   7.851
 1648POPC   C4A24702   0.194  22.301   7.557
 1648POPC   C1B24703   0.592  21.815   8.674
 1648POPC   C2B24704   0.623  21.980   8.225
 1648POPC   C3B24705   0.540  21.919   7.774
 1648POPC   C4B24706   0.772  21.619   7.483
 1649POPC   NC324707  19.946  34.334   9.361
 1649POPC   PO424708  19.537  34.816   9.502
 1649POPC   GL124709  19.774  34.728   9.101
 1649POPC   GL224710  19.671  34.393   8.937
 1649POPC   C1A24711  19.851  34.782   8.665
 1649POPC   D2A24712  20.033  34.591   8.315
 1649POPC   C3A24713  19.798  34.515   7.964
 1649POPC   C4A24714  19.956  34.816   7.743
 1649POPC   C1B24715  20.103  34.275   8.749
 1649POPC   C2B24716  20.354  34.200   8.406
 1649POPC   C3B24717  20.204  34.205   7.984
 1649POPC   C4B24718  20.023  34.237   7.574
 1650POPC   NC324719  41.901  41.256   9.658
 1650POPC   PO424720  42.293  41.782   9.520
 1650POPC   GL124721  42.368  41.714   9.119
 1650POPC   GL224722  42.672  41.843   9.088
 1650POPC   C1A24723  42.300  41.785   8.672
 1650POPC   D2A24724  42.333  41.842   8.214
 1650POPC   C3A24725  42.258  41.439   7.955
 1650POPC   C4A24726  41.873  41.158   7.860
 1650POPC   C1B24727  42.693  41.453   8.802
 1650POPC   C2B24728  42.744  41.517   8.373
 1650POPC   C3B24729  42.781  41.734   8.005
 1650POPC   C4B24730  42.479  41.846   7.704
 1651POPC   NC324731  30.462  24.532   9.389
 1651POPC   PO424732  31.128  24.716   9.293
 1651POPC   GL124733  30.837  24.597   9.017
 1651POPC   GL224734  30.491  24.662   8.909
 1651POPC   C1A24735  30.934  24.548   8.625
 1651POPC   D2A24736  30.726  24.542   8.269
 1651POPC   C3A24737  30.831  24.820   7.923
 1651POPC   C4A24738  30.913  24.552   7.589
 1651POPC   C1B24739  30.378  24.837   8.540
 1651POPC   C2B24740  30.335  24.802   8.113
 1651POPC   C3B24741  30.462  24.478   7.838
 1651POPC   C4B24742  30.473  24.793   7.530
 1652POPC   NC324743  15.555  38.650   9.570
 1652POPC   PO424744  15.674  37.986   9.379
 1652POPC   GL124745  15.906  38.268   9.076
 1652POPC   GL224746  15.901  38.628   9.149
 1652POPC   C1A24747  15.828  38.493   8.680
 1652POPC   D2A24748  15.916  38.664   8.343
 1652POPC   C3A24749  15.925  38.395   8.017
 1652POPC   C4A24750  15.637  38.385   7.757
 1652POPC   C1B24751  16.284  38.669   8.872
 1652POPC   C2B24752  16.412  38.754   8.444
 1652POPC   C3B24753  16.298  38.736   8.044
 1652POPC   C4B24754  16.367  38.456   7.736
 1653POPC   NC324755   7.531  40.438   9.472
 1653POPC   PO424756   7.536  41.120   9.550
 1653POPC   GL124757   7.593  40.882   9.185
 1653POPC   GL224758   7.302  40.686   9.070
 1653POPC   C1A24759   7.693  40.675   8.768
 1653POPC   D2A24760   7.428  40.564   8.422
 1653POPC   C3A24761   7.631  40.730   8.059
 1653POPC   C4A24762   7.513  40.681   7.620
 1653POPC   C1B24763   7.328  41.029   8.766
 1653POPC   C2B24764   7.384  41.072   8.345
 1653POPC   C3B24765   7.196  40.966   7.975
 1653POPC   C4B24766   7.143  41.205   7.656
 1654POPC   NC324767   3.504   2.983   9.534
 1654POPC   PO424768   4.077   2.605   9.530
 1654POPC   GL124769   3.815   2.595   9.116
 1654POPC   GL224770   3.488   2.527   9.258
 1654POPC   C1A24771   3.655   2.728   8.675
 1654POPC   D2A24772   3.394   2.922   8.303
 1654POPC   C3A24773   3.575   2.769   7.883
 1654POPC   C4A24774   3.933   2.501   7.753
 1654POPC   C1B24775   3.275   2.445   8.887
 1654POPC   C2B24776   3.202   2.462   8.447
 1654POPC   C3B24777   3.157   2.458   8.001
 1654POPC   C4B24778   3.148   2.640   7.589
 1655POPC   NC324779  14.903  18.235   9.400
 1655POPC   PO424780  15.509  18.384   9.369
 1655POPC   GL124781  15.217  18.349   8.993
 1655POPC   GL224782  14.885  18.581   9.012
 1655POPC   C1A24783  15.334  18.471   8.558
 1655POPC   D2A24784  15.593  18.380   8.180
 1655POPC   C3A24785  15.387  18.170   7.850
 1655POPC   C4A24786  14.969  18.250   7.756
 1655POPC   C1B24787  14.842  18.299   8.634
 1655POPC   C2B24788  15.100  18.080   8.294
 1655POPC   C3B24789  15.052  17.777   7.947
 1655POPC   C4B24790  15.139  17.808   7.526
 1656POPC   NC324791  31.181  18.207   9.664
 1656POPC   PO424792  31.574  18.689   9.456
 1656POPC   GL124793  31.285  18.443   9.197
 1656POPC   GL224794  31.302  18.068   9.138
 1656POPC   C1A24795  31.256  18.426   8.766
 1656POPC   D2A24796  31.504  18.411   8.408
 1656POPC   C3A24797  31.213  18.380   8.102
 1656POPC   C4A24798  31.336  18.277   7.716
 1656POPC   C1B24799  31.574  18.004   8.776
 1656POPC   C2B24800  31.477  17.890   8.387
 1656POPC   C3B24801  31.635  18.019   8.048
 1656POPC   C4B24802  31.623  17.822   7.694
 1657POPC   NC324803   8.764   3.551   9.388
 1657POPC   PO424804   9.321   3.170   9.533
 1657POPC   GL124805   9.145   3.305   9.120
 1657POPC   GL224806   8.816   3.177   9.071
 1657POPC   C1A24807   9.049   3.631   8.795
 1657POPC   D2A24808   8.864   3.686   8.395
 1657POPC   C3A24809   9.034   3.511   8.039
 1657POPC   C4A24810   8.864   3.761   7.742
 1657POPC   C1B24811   8.782   3.227   8.623
 1657POPC   C2B24812   8.521   3.249   8.280
 1657POPC   C3B24813   8.580   3.345   7.869
 1657POPC   C4B24814   8.725   3.170   7.497
 1658POPC   NC324815  35.314  15.797   9.506
 1658POPC   PO424816  35.490  15.045   9.456
 1658POPC   GL124817  35.383  15.394   9.195
 1658POPC   GL224818  35.032  15.515   9.156
 1658POPC   C1A24819  35.417  15.405   8.775
 1658POPC   D2A24820  35.658  15.137   8.497
 1658POPC   C3A24821  35.544  15.199   8.075
 1658POPC   C4A24822  35.407  14.908   7.786
 1658POPC   C1B24823  34.916  15.466   8.719
 1658POPC   C2B24824  35.152  15.446   8.324
 1658POPC   C3B24825  35.055  15.296   7.901
 1658POPC   C4B24826  34.995  15.521   7.534
 1659POPC   NC324827  26.549  24.843   9.862
 1659POPC   PO424828  26.893  24.333   9.603
 1659POPC   GL124829  26.820  24.389   9.162
 1659POPC   GL224830  26.981  24.690   9.098
 1659POPC   C1A24831  26.664  24.524   8.717
 1659POPC   D2A24832  26.651  24.787   8.347
 1659POPC   C3A24833  26.817  24.751   7.934
 1659POPC   C4A24834  26.669  24.442   7.628
 1659POPC   C1B24835  27.164  24.394   8.764
 1659POPC   C2B24836  27.097  24.389   8.307
 1659POPC   C3B24837  27.139  24.361   7.864
 1659POPC   C4B24838  27.139  24.475   7.417
 1660POPC   NC324839  43.464  12.897   9.683
 1660POPC   PO424840  44.032  12.824   9.751
 1660POPC   GL124841  44.000  12.881   9.318
 1660POPC   GL224842  43.758  12.587   9.285
 1660POPC   C1A24843  44.066  13.075   8.889
 1660POPC   D2A24844  43.813  13.150   8.507
 1660POPC   C3A24845  43.924  12.993   8.095
 1660POPC   C4A24846  43.853  12.978   7.655
 1660POPC   C1B24847  44.071  12.562   8.941
 1660POPC   C2B24848  44.043  12.642   8.485
 1660POPC   C3B24849  44.105  12.515   8.038
 1660POPC   C4B24850  44.187  12.585   7.611
 1661POPC   NC324851   5.580  38.299   9.503
 1661POPC   PO424852   6.213  38.019   9.551
 1661POPC   GL124853   6.016  38.381   9.220
 1661POPC   GL224854   5.659  38.504   9.061
 1661POPC   C1A24855   6.083  38.571   8.790
 1661POPC   D2A24856   6.022  38.413   8.384
 1661POPC   C3A24857   6.189  38.540   7.987
 1661POPC   C4A24858   6.178  38.694   7.549
 1661POPC   C1B24859   5.593  38.526   8.636
 1661POPC   C2B24860   5.561  38.635   8.248
 1661POPC   C3B24861   5.696  38.410   7.919
 1661POPC   C4B24862   5.563  38.318   7.538
 1662POPC   NC324863   7.823  37.812   9.470
 1662POPC   PO424864   7.448  37.543   9.911
 1662POPC   GL124865   7.366  37.514   9.349
 1662POPC   GL224866   7.507  37.767   9.079
 1662POPC   C1A24867   7.115  37.520   8.919
 1662POPC   D2A24868   7.258  37.800   8.583
 1662POPC   C3A24869   7.407  37.684   8.181
 1662POPC   C4A24870   7.334  37.738   7.723
 1662POPC   C1B24871   7.595  37.427   8.750
 1662POPC   C2B24872   7.756  37.326   8.344
 1662POPC   C3B24873   7.817  37.512   7.933
 1662POPC   C4B24874   7.683  37.382   7.574
 1663POPC   NC324875  26.447  26.147   9.550
 1663POPC   PO424876  27.004  26.084   9.517
 1663POPC   GL124877  26.913  25.915   9.098
 1663POPC   GL224878  26.601  25.936   9.126
 1663POPC   C1A24879  26.766  25.632   8.761
 1663POPC   D2A24880  26.719  25.777   8.345
 1663POPC   C3A24881  26.502  25.719   7.981
 1663POPC   C4A24882  26.655  25.731   7.577
 1663POPC   C1B24883  26.682  26.174   8.735
 1663POPC   C2B24884  26.569  26.262   8.326
 1663POPC   C3B24885  26.741  26.161   7.936
 1663POPC   C4B24886  26.428  26.181   7.664
 1664POPC   NC324887  30.417  23.039   9.280
 1664POPC   PO424888  31.014  22.844   9.521
 1664POPC   GL124889  30.942  23.028   9.141
 1664POPC   GL224890  30.742  22.713   9.078
 1664POPC   C1A24891  30.862  23.162   8.704
 1664POPC   D2A24892  30.503  23.070   8.404
 1664POPC   C3A24893  30.588  23.147   7.937
 1664POPC   C4A24894  30.456  23.135   7.493
 1664POPC   C1B24895  30.863  22.664   8.677
 1664POPC   C2B24896  30.922  22.824   8.247
 1664POPC   C3B24897  31.067  22.883   7.839
 1664POPC   C4B24898  30.855  22.804   7.443
 1665POPC   NC324899   3.503  37.705   9.584
 1665POPC   PO424900   4.006  37.567   9.214
 1665POPC   GL124901   3.854  37.877   8.981
 1665POPC   GL224902   3.529  37.838   9.091
 1665POPC   C1A24903   3.705  37.838   8.550
 1665POPC   D2A24904   3.520  37.536   8.257
 1665POPC   C3A24905   3.629  37.752   7.904
 1665POPC   C4A24906   3.847  38.119   7.812
 1665POPC   C1B24907   3.259  37.783   8.759
 1665POPC   C2B24908   3.197  37.927   8.323
 1665POPC   C3B24909   3.125  37.687   7.921
 1665POPC   C4B24910   3.334  37.699   7.487
 1666POPC   NC324911  44.927   8.485   9.518
 1666POPC   PO424912   0.642   8.690   9.536
 1666POPC   GL124913   0.569   8.940   9.111
 1666POPC   GL224914   0.186   9.015   9.077
 1666POPC   C1A24915   0.467   8.954   8.660
 1666POPC   D2A24916   0.210   8.812   8.314
 1666POPC   C3A24917   0.493   8.895   8.007
 1666POPC   C4A24918   0.765   8.624   7.798
 1666POPC   C1B24919  44.991   9.110   8.657
 1666POPC   C2B24920   0.208   9.318   8.283
 1666POPC   C3B24921   0.162   9.241   7.839
 1666POPC   C4B24922   0.051   9.168   7.404
 1667POPC   NC324923  38.031   1.066   9.473
 1667POPC   PO424924  37.379   1.325   9.451
 1667POPC   GL124925  37.702   1.318   9.139
 1667POPC   GL224926  37.737   0.980   9.052
 1667POPC   C1A24927  37.743   1.380   8.702
 1667POPC   D2A24928  37.903   1.270   8.304
 1667POPC   C3A24929  37.793   1.470   7.946
 1667POPC   C4A24930  37.633   1.286   7.585
 1667POPC   C1B24931  37.872   0.864   8.638
 1667POPC   C2B24932  37.759   0.800   8.203
 1667POPC   C3B24933  37.987   1.001   7.850
 1667POPC   C4B24934  38.027   0.992   7.382
 1668POPC   NC324935  28.550  27.313   9.510
 1668POPC   PO424936  28.517  28.001   9.374
 1668POPC   GL124937  28.312  27.665   9.150
 1668POPC   GL224938  28.428  27.326   9.026
 1668POPC   C1A24939  28.127  27.655   8.750
 1668POPC   D2A24940  28.111  27.369   8.417
 1668POPC   C3A24941  28.220  27.399   8.010
 1668POPC   C4A24942  28.167  27.368   7.588
 1668POPC   C1B24943  28.567  27.291   8.627
 1668POPC   C2B24944  28.719  27.501   8.290
 1668POPC   C3B24945  28.678  27.569   7.873
 1668POPC   C4B24946  28.877  27.877   7.670
 1669POPC   NC324947  11.738  37.560   9.509
 1669POPC   PO424948  12.414  37.488   9.548
 1669POPC   GL124949  12.154  37.556   9.211
 1669POPC   GL224950  12.092  37.900   9.287
 1669POPC   C1A24951  11.840  37.686   8.884
 1669POPC   D2A24952  11.911  37.690   8.464
 1669POPC   C3A24953  11.790  37.886   8.108
 1669POPC   C4A24954  12.035  37.754   7.764
 1669POPC   C1B24955  12.341  37.896   8.890
 1669POPC   C2B24956  12.255  38.072   8.517
 1669POPC   C3B24957  12.260  38.091   8.075
 1669POPC   C4B24958  12.256  38.208   7.626
 1670POPC   NC324959  31.900  32.133   9.320
 1670POPC   PO424960  31.217  32.128   9.435
 1670POPC   GL124961  31.466  32.353   9.115
 1670POPC   GL224962  31.739  32.622   9.173
 1670POPC   C1A24963  31.565  32.160   8.709
 1670POPC   D2A24964  31.294  32.184   8.357
 1670POPC   C3A24965  31.550  32.217   7.987
 1670POPC   C4A24966  31.381  32.173   7.588
 1670POPC   C1B24967  31.626  32.669   8.737
 1670POPC   C2B24968  31.790  32.508   8.366
 1670POPC   C3B24969  31.820  32.683   7.977
 1670POPC   C4B24970  31.822  32.468   7.574
 1671POPC   NC324971   7.235  44.345   9.514
 1671POPC   PO424972   7.323  43.648   9.533
 1671POPC   GL124973   7.294  43.810   9.148
 1671POPC   GL224974   7.521  43.984   8.980
 1671POPC   C1A24975   7.448  43.538   8.800
 1671POPC   D2A24976   7.729  43.675   8.485
 1671POPC   C3A24977   7.524  43.648   8.103
 1671POPC   C4A24978   7.453  43.856   7.746
 1671POPC   C1B24979   7.458  44.328   8.706
 1671POPC   C2B24980   7.348  44.445   8.327
 1671POPC   C3B24981   7.453  44.323   7.934
 1671POPC   C4B24982   7.710  44.285   7.578
 1672POPC   NC324983   0.745   3.136   9.448
 1672POPC   PO424984   1.112   2.523   9.450
 1672POPC   GL124985   1.191   2.843   9.176
 1672POPC   GL224986   1.449   2.608   9.023
 1672POPC   C1A24987   1.142   3.089   8.783
 1672POPC   D2A24988   1.275   2.981   8.378
 1672POPC   C3A24989   1.173   3.170   8.009
 1672POPC   C4A24990   1.280   2.958   7.661
 1672POPC   C1B24991   1.080   2.567   8.762
 1672POPC   C2B24992   0.932   2.538   8.372
 1672POPC   C3B24993   1.149   2.604   8.018
 1672POPC   C4B24994   0.802   2.775   7.835
 1673POPC   NC324995   7.274  28.050   9.565
 1673POPC   PO424996   6.947  28.593   9.423
 1673POPC   GL124997   7.194  28.352   9.146
 1673POPC   GL224998   7.165  27.988   9.056
 1673POPC   C1A24999   7.362  28.349   8.733
 1673POPC   D2A25000   7.708  28.307   8.432
 1673POPC   C3A25001   7.669  28.540   8.027
 1673POPC   C4A25002   7.344  28.600   7.756
 1673POPC   C1B25003   7.158  27.881   8.606
 1673POPC   C2B25004   7.246  28.158   8.258
 1673POPC   C3B25005   7.422  28.102   7.869
 1673POPC   C4B25006   7.085  27.899   7.678
 1674POPC   NC325007  31.608  24.169   9.440
 1674POPC   PO425008  31.689  24.705   9.774
 1674POPC   GL125009  31.723  24.794   9.287
 1674POPC   GL225010  31.596  24.538   9.114
 1674POPC   C1A25011  31.660  24.919   8.813
 1674POPC   D2A25012  31.395  24.759   8.462
 1674POPC   C3A25013  31.604  24.558   8.094
 1674POPC   C4A25014  31.709  24.646   7.676
 1674POPC   C1B25015  31.576  24.354   8.726
 1674POPC   C2B25016  31.286  24.254   8.401
 1674POPC   C3B25017  31.139  24.396   8.013
 1674POPC   C4B25018  31.352  24.282   7.625
 1675POPC   NC325019  36.674  11.679   9.692
 1675POPC   PO425020  37.142  11.236   9.586
 1675POPC   GL125021  36.873  11.177   9.172
 1675POPC   GL225022  36.706  11.476   8.969
 1675POPC   C1A25023  36.641  11.008   8.821
 1675POPC   D2A25024  36.840  11.193   8.453
 1675POPC   C3A25025  36.776  11.058   8.040
 1675POPC   C4A25026  36.763  11.154   7.618
 1675POPC   C1B25027  37.034  11.639   8.636
 1675POPC   C2B25028  37.216  11.604   8.212
 1675POPC   C3B25029  37.087  11.536   7.772
 1675POPC   C4B25030  36.897  11.556   7.355
 1676POPC   NC325031  44.339  16.451   9.433
 1676POPC   PO425032  44.947  16.585   9.584
 1676POPC   GL125033  44.757  16.717   9.252
 1676POPC   GL225034  44.798  16.437   9.080
 1676POPC   C1A25035  44.731  17.005   8.927
 1676POPC   D2A25036  44.694  17.110   8.479
 1676POPC   C3A25037  44.633  16.878   8.133
 1676POPC   C4A25038  44.676  16.851   7.715
 1676POPC   C1B25039  44.843  16.605   8.626
 1676POPC   C2B25040  44.944  16.489   8.204
 1676POPC   C3B25041   0.015  16.456   7.783
 1676POPC   C4B25042  44.761  16.214   7.518
 1677POPC   NC325043  14.300  21.193   9.552
 1677POPC   PO425044  14.657  21.783   9.499
 1677POPC   GL125045  14.412  21.515   9.185
 1677POPC   GL225046  14.578  21.222   9.106
 1677POPC   C1A25047  14.128  21.196   8.910
 1677POPC   D2A25048  14.017  21.335   8.520
 1677POPC   C3A25049  14.296  21.310   8.167
 1677POPC   C4A25050  14.160  21.279   7.745
 1677POPC   C1B25051  14.516  21.454   8.706
 1677POPC   C2B25052  14.589  21.700   8.387
 1677POPC   C3B25053  14.807  21.485   8.077
 1677POPC   C4B25054  14.665  21.169   7.790
 1678POPC   NC325055  16.839  39.760   9.585
 1678POPC   PO425056  16.543  40.227   9.376
 1678POPC   GL125057  16.773  39.959   9.089
 1678POPC   GL225058  16.670  39.573   9.145
 1678POPC   C1A25059  16.881  40.197   8.719
 1678POPC   D2A25060  16.963  40.477   8.391
 1678POPC   C3A25061  16.708  40.320   8.129
 1678POPC   C4A25062  16.965  40.223   7.836
 1678POPC   C1B25063  16.495  39.664   8.750
 1678POPC   C2B25064  16.635  39.883   8.408
 1678POPC   C3B25065  16.731  39.808   8.027
 1678POPC   C4B25066  16.500  39.641   7.720
 1679POPC   NC325067  16.420  39.022   9.514
 1679POPC   PO425068  17.041  39.225   9.444
 1679POPC   GL125069  16.766  39.038   9.134
 1679POPC   GL225070  16.962  39.185   8.936
 1679POPC   C1A25071  16.490  39.158   8.753
 1679POPC   D2A25072  16.571  39.371   8.319
 1679POPC   C3A25073  16.395  39.209   7.928
 1679POPC   C4A25074  16.562  39.081   7.505
 1679POPC   C1B25075  16.951  39.521   8.643
 1679POPC   C2B25076  17.075  39.506   8.235
 1679POPC   C3B25077  16.900  39.331   7.839
 1679POPC   C4B25078  16.960  39.348   7.347
 1680POPC   NC325079  30.653  10.472   9.528
 1680POPC   PO425080  30.314  10.974   9.138
 1680POPC   GL125081  30.631  10.633   9.025
 1680POPC   GL225082  30.859  10.336   9.098
 1680POPC   C1A25083  30.516  10.452   8.629
 1680POPC   D2A25084  30.263  10.716   8.321
 1680POPC   C3A25085  30.477  10.764   7.933
 1680POPC   C4A25086  30.901  10.690   7.824
 1680POPC   C1B25087  31.101  10.109   8.806
 1680POPC   C2B25088  30.885  10.044   8.428
 1680POPC   C3B25089  30.854  10.177   8.018
 1680POPC   C4B25090  30.905  10.018   7.613
 1681POPC   NC325091  18.833  44.799   9.510
 1681POPC   PO425092  19.538  44.860   9.541
 1681POPC   GL125093  19.216  44.630   9.187
 1681POPC   GL225094  18.822  44.508   9.102
 1681POPC   C1A25095  19.176  44.535   8.724
 1681POPC   D2A25096  19.058  44.808   8.335
 1681POPC   C3A25097  19.117  44.629   7.919
 1681POPC   C4A25098  19.111  44.820   7.494
 1681POPC   C1B25099  18.739  44.798   8.758
 1681POPC   C2B25100  18.549  44.898   8.351
 1681POPC   C3B25101  18.714  44.990   7.903
 1681POPC   C4B25102  18.654  44.995   7.394
 1682POPC   NC325103  28.936  23.283   9.458
 1682POPC   PO425104  29.163  23.992   9.425
 1682POPC   GL125105  29.087  23.686   9.161
 1682POPC   GL225106  29.321  23.426   9.161
 1682POPC   C1A25107  28.994  23.600   8.762
 1682POPC   D2A25108  29.065  23.820   8.406
 1682POPC   C3A25109  28.914  23.610   8.076
 1682POPC   C4A25110  28.936  23.772   7.703
 1682POPC   C1B25111  29.512  23.481   8.785
 1682POPC   C2B25112  29.579  23.714   8.402
 1682POPC   C3B25113  29.403  23.778   7.999
 1682POPC   C4B25114  29.311  23.402   7.757
 1683POPC   NC325115  34.413  15.904   9.419
 1683POPC   PO425116  34.722  16.409   9.696
 1683POPC   GL125117  34.675  16.351   9.244
 1683POPC   GL225118  34.344  16.379   9.127
 1683POPC   C1A25119  34.731  16.132   8.847
 1683POPC   D2A25120  34.576  16.050   8.428
 1683POPC   C3A25121  34.846  15.835   8.114
 1683POPC   C4A25122  34.770  15.960   7.682
 1683POPC   C1B25123  34.359  16.469   8.718
 1683POPC   C2B25124  34.202  16.433   8.325
 1683POPC   C3B25125  34.328  16.197   7.957
 1683POPC   C4B25126  34.197  16.297   7.515
 1684POPC   NC325127   0.043  26.878   9.460
 1684POPC   PO425128   0.662  26.646   9.612
 1684POPC   GL125129   0.542  26.921   9.238
 1684POPC   GL225130   0.289  26.720   9.044
 1684POPC   C1A25131   0.666  27.028   8.789
 1684POPC   D2A25132   0.552  27.021   8.320
 1684POPC   C3A25133   0.493  26.648   8.001
 1684POPC   C4A25134   0.685  26.628   7.570
 1684POPC   C1B25135   0.131  27.092   8.853
 1684POPC   C2B25136   0.051  27.183   8.436
 1684POPC   C3B25137   0.116  27.007   8.030
 1684POPC   C4B25138   0.330  27.060   7.636
 1685POPC   NC325139  44.296  39.401   9.646
 1685POPC   PO425140  43.672  39.285   9.491
 1685POPC   GL125141  43.720  39.090   9.094
 1685POPC   GL225142  44.060  39.167   9.156
 1685POPC   C1A25143  43.646  39.297   8.722
 1685POPC   D2A25144  43.836  39.427   8.394
 1685POPC   C3A25145  43.646  39.267   8.074
 1685POPC   C4A25146  43.647  39.138   7.679
 1685POPC   C1B25147  44.088  39.031   8.713
 1685POPC   C2B25148  44.176  39.031   8.282
 1685POPC   C3B25149  44.124  39.232   7.888
 1685POPC   C4B25150  44.083  38.991   7.460
 1686POPC   NC325151  42.607  24.836   9.427
 1686POPC   PO425152  42.196  25.459   9.360
 1686POPC   GL125153  42.395  25.414   9.035
 1686POPC   GL225154  42.380  25.090   9.070
 1686POPC   C1A25155  42.185  25.351   8.656
 1686POPC   D2A25156  42.061  25.411   8.282
 1686POPC   C3A25157  42.277  25.124   8.134
 1686POPC   C4A25158  42.315  25.079   7.738
 1686POPC   C1B25159  42.437  24.904   8.728
 1686POPC   C2B25160  42.697  25.032   8.418
 1686POPC   C3B25161  42.740  24.970   8.000
 1686POPC   C4B25162  42.782  25.201   7.597
 1687POPC   NC325163  10.650   0.353   9.572
 1687POPC   PO425164  10.178   0.718   9.445
 1687POPC   GL125165  10.447   0.604   9.102
 1687POPC   GL225166  10.617   0.276   9.085
 1687POPC   C1A25167  10.615   0.583   8.682
 1687POPC   D2A25168  10.754   0.316   8.379
 1687POPC   C3A25169  10.856   0.550   8.042
 1687POPC   C4A25170  10.665   0.819   7.808
 1687POPC   C1B25171  10.680  44.988   8.757
 1687POPC   C2B25172  10.773  44.798   8.343
 1687POPC   C3B25173  10.783   0.043   7.964
 1687POPC   C4B25174  10.688   0.308   7.616
 1688POPC   NC325175  14.068   2.797   9.748
 1688POPC   PO425176  14.535   2.566   9.358
 1688POPC   GL125177  14.365   2.759   9.089
 1688POPC   GL225178  14.037   2.763   9.194
 1688POPC   C1A25179  14.518   2.697   8.690
 1688POPC   D2A25180  14.368   2.579   8.319
 1688POPC   C3A25181  14.623   2.696   7.972
 1688POPC   C4A25182  14.507   2.701   7.561
 1688POPC   C1B25183  14.007   2.854   8.737
 1688POPC   C2B25184  13.853   2.911   8.335
 1688POPC   C3B25185  14.170   2.941   8.027
 1688POPC   C4B25186  14.238   3.135   7.662
 1689POPC   NC325187  35.838  16.334   9.383
 1689POPC   PO425188  35.162  16.233   9.382
 1689POPC   GL125189  35.192  15.987   9.031
 1689POPC   GL225190  35.510  15.886   9.047
 1689POPC   C1A25191  35.140  15.901   8.598
 1689POPC   D2A25192  35.335  15.998   8.227
 1689POPC   C3A25193  35.402  15.690   7.943
 1689POPC   C4A25194  35.400  15.901   7.619
 1689POPC   C1B25195  35.598  16.125   8.675
 1689POPC   C2B25196  35.787  16.222   8.312
 1689POPC   C3B25197  35.831  16.022   7.936
 1689POPC   C4B25198  35.862  16.082   7.474
 1690POPC   NC325199   0.393  30.479   9.540
 1690POPC   PO425200   0.040  29.901   9.464
 1690POPC   GL125201   0.143  30.190   9.127
 1690POPC   GL225202   0.517  30.279   9.082
 1690POPC   C1A25203   0.294  30.023   8.720
 1690POPC   D2A25204   0.525  29.943   8.379
 1690POPC   C3A25205   0.374  29.789   8.017
 1690POPC   C4A25206   0.120  29.971   7.742
 1690POPC   C1B25207   0.767  30.269   8.677
 1690POPC   C2B25208   0.823  30.313   8.188
 1690POPC   C3B25209   0.583  30.208   7.769
 1690POPC   C4B25210   0.700  30.264   7.328
 1691POPC   NC325211  36.031  34.373   9.720
 1691POPC   PO425212  36.369  34.987   9.562
 1691POPC   GL125213  36.144  34.844   9.165
 1691POPC   GL225214  35.964  34.520   9.106
 1691POPC   C1A25215  36.208  34.721   8.726
 1691POPC   D2A25216  35.948  34.634   8.402
 1691POPC   C3A25217  36.187  34.634   8.070
 1691POPC   C4A25218  35.968  34.686   7.759
 1691POPC   C1B25219  36.029  34.233   8.742
 1691POPC   C2B25220  36.215  34.187   8.356
 1691POPC   C3B25221  35.963  34.190   8.001
 1691POPC   C4B25222  36.190  34.208   7.661
 1692POPC   NC325223  26.959  10.126   9.415
 1692POPC   PO425224  26.602   9.563   9.380
 1692POPC   GL125225  26.878   9.675   9.079
 1692POPC   GL225226  27.101   9.398   9.093
 1692POPC   C1A25227  26.791   9.882   8.684
 1692POPC   D2A25228  27.055  10.044   8.310
 1692POPC   C3A25229  26.867  10.019   7.893
 1692POPC   C4A25230  26.630   9.747   7.633
 1692POPC   C1B25231  27.066   9.440   8.641
 1692POPC   C2B25232  26.817   9.594   8.272
 1692POPC   C3B25233  26.934   9.476   7.904
 1692POPC   C4B25234  27.263   9.206   7.910
 1693POPC   NC325235  27.976  16.148   9.430
 1693POPC   PO425236  27.467  15.758   9.504
 1693POPC   GL125237  27.474  15.784   9.048
 1693POPC   GL225238  27.300  16.071   8.911
 1693POPC   C1A25239  27.573  15.705   8.601
 1693POPC   D2A25240  27.876  15.874   8.311
 1693POPC   C3A25241  27.618  16.062   8.006
 1693POPC   C4A25242  27.596  15.899   7.643
 1693POPC   C1B25243  27.725  16.161   8.743
 1693POPC   C2B25244  27.797  16.389   8.360
 1693POPC   C3B25245  28.065  16.332   8.002
 1693POPC   C4B25246  28.014  16.284   7.538
 1694POPC   NC325247  20.157  21.679   9.629
 1694POPC   PO425248  19.951  21.073   9.435
 1694POPC   GL125249  20.061  21.276   9.126
 1694POPC   GL225250  19.844  21.564   9.082
 1694POPC   C1A25251  20.026  21.225   8.706
 1694POPC   D2A25252  19.614  21.279   8.544
 1694POPC   C3A25253  19.533  21.169   8.119
 1694POPC   C4A25254  19.898  21.126   7.862
 1694POPC   C1B25255  19.875  21.725   8.632
 1694POPC   C2B25256  19.994  21.997   8.275
 1694POPC   C3B25257  20.044  21.923   7.837
 1694POPC   C4B25258  19.872  21.587   7.590
 1695POPC   NC325259   2.587  16.157   9.353
 1695POPC   PO425260   2.759  16.756   9.692
 1695POPC   GL125261   2.783  16.645   9.271
 1695POPC   GL225262   3.118  16.601   9.145
 1695POPC   C1A25263   2.714  16.675   8.834
 1695POPC   D2A25264   2.487  16.840   8.452
 1695POPC   C3A25265   2.649  16.740   8.022
 1695POPC   C4A25266   2.781  16.837   7.574
 1695POPC   C1B25267   3.256  16.846   8.764
 1695POPC   C2B25268   3.073  16.850   8.338
 1695POPC   C3B25269   3.173  16.824   7.893
 1695POPC   C4B25270   3.206  17.078   7.512
 1696POPC   NC325271   2.537  16.225   9.875
 1696POPC   PO425272   3.053  16.188   9.443
 1696POPC   GL125273   3.031  15.951   9.088
 1696POPC   GL225274   3.308  16.145   8.985
 1696POPC   C1A25275   2.850  15.923   8.664
 1696POPC   D2A25276   2.444  15.949   8.441
 1696POPC   C3A25277   2.377  15.946   7.991
 1696POPC   C4A25278   2.482  16.050   7.563
 1696POPC   C1B25279   3.116  16.376   8.667
 1696POPC   C2B25280   2.765  16.387   8.423
 1696POPC   C3B25281   2.817  16.183   8.094
 1696POPC   C4B25282   2.856  16.363   7.717
 1697POPC   NC325283  22.391   5.405   9.438
 1697POPC   PO425284  22.739   4.813   9.383
 1697POPC   GL125285  22.487   5.048   9.081
 1697POPC   GL225286  22.136   4.977   9.197
 1697POPC   C1A25287  22.275   5.227   8.706
 1697POPC   D2A25288  21.943   5.123   8.381
 1697POPC   C3A25289  22.101   5.122   7.961
 1697POPC   C4A25290  22.141   5.449   7.625
 1697POPC   C1B25291  22.037   4.787   8.773
 1697POPC   C2B25292  21.882   4.596   8.370
 1697POPC   C3B25293  21.747   4.672   7.953
 1697POPC   C4B25294  21.697   4.821   7.528
 1698POPC   NC325295   2.005  25.134   9.577
 1698POPC   PO425296   2.314  25.750   9.441
 1698POPC   GL125297   2.014  25.510   9.139
 1698POPC   GL225298   2.053  25.145   9.081
 1698POPC   C1A25299   1.931  25.429   8.679
 1698POPC   D2A25300   1.728  25.450   8.245
 1698POPC   C3A25301   2.035  25.498   7.892
 1698POPC   C4A25302   2.062  25.457   7.416
 1698POPC   C1B25303   1.839  24.912   8.759
 1698POPC   C2B25304   1.706  24.952   8.356
 1698POPC   C3B25305   1.812  25.004   7.926
 1698POPC   C4B25306   1.743  24.950   7.491
 1699POPC   NC325307  23.412  10.883   9.441
 1699POPC   PO425308  24.037  11.275   9.456
 1699POPC   GL125309  23.675  11.349   9.184
 1699POPC   GL225310  23.891  11.574   9.022
 1699POPC   C1A25311  23.510  11.085   8.808
 1699POPC   D2A25312  23.497  10.990   8.361
 1699POPC   C3A25313  23.587  11.304   8.093
 1699POPC   C4A25314  23.369  11.303   7.730
 1699POPC   C1B25315  23.838  11.443   8.617
 1699POPC   C2B25316  24.062  11.373   8.244
 1699POPC   C3B25317  24.035  11.061   7.950
 1699POPC   C4B25318  23.835  11.122   7.570
 1700POPC   NC325319  32.750  14.843   9.534
 1700POPC   PO425320  33.365  14.428   9.529
 1700POPC   GL125321  33.119  14.642   9.182
 1700POPC   GL225322  32.996  14.376   8.992
 1700POPC   C1A25323  32.835  14.806   8.823
 1700POPC   D2A25324  32.704  14.768   8.383
 1700POPC   C3A25325  33.081  14.684   8.089
 1700POPC   C4A25326  33.029  14.404   7.733
 1700POPC   C1B25327  33.222  14.521   8.648
 1700POPC   C2B25328  33.173  14.241   8.335
 1700POPC   C3B25329  33.316  14.065   7.987
 1700POPC   C4B25330  33.257  13.967   7.647
 1701POPC   NC325331  31.700  38.112   9.433
 1701POPC   PO425332  31.333  37.670   9.644
 1701POPC   GL125333  31.586  37.632   9.268
 1701POPC   GL225334  31.315  37.508   9.128
 1701POPC   C1A25335  31.719  37.722   8.809
 1701POPC   D2A25336  31.870  37.600   8.370
 1701POPC   C3A25337  31.594  37.812   8.064
 1701POPC   C4A25338  31.449  37.805   7.617
 1701POPC   C1B25339  31.414  37.320   8.765
 1701POPC   C2B25340  31.401  37.380   8.338
 1701POPC   C3B25341  31.336  37.373   7.929
 1701POPC   C4B25342  31.028  37.476   7.650
 1702POPC   NC325343  35.018  14.993   9.249
 1702POPC   PO425344  34.582  15.462   9.409
 1702POPC   GL125345  34.539  15.339   9.045
 1702POPC   GL225346  34.501  15.678   8.937
 1702POPC   C1A25347  34.480  15.178   8.663
 1702POPC   D2A25348  34.652  15.314   8.284
 1702POPC   C3A25349  34.611  15.006   7.967
 1702POPC   C4A25350  34.676  15.109   7.558
 1702POPC   C1B25351  34.253  15.636   8.572
 1702POPC   C2B25352  34.337  15.689   8.132
 1702POPC   C3B25353  34.568  15.515   7.812
 1702POPC   C4B25354  34.500  15.521   7.334
 1703POPC   NC325355  21.624  43.639   9.956
 1703POPC   PO425356  21.168  43.553   9.626
 1703POPC   GL125357  21.241  43.338   9.167
 1703POPC   GL225358  21.414  43.031   9.150
 1703POPC   C1A25359  21.200  43.123   8.708
 1703POPC   D2A25360  21.447  42.869   8.410
 1703POPC   C3A25361  21.352  42.874   7.948
 1703POPC   C4A25362  21.372  43.270   7.700
 1703POPC   C1B25363  21.682  43.239   8.807
 1703POPC   C2B25364  21.865  43.219   8.377
 1703POPC   C3B25365  21.815  43.081   7.940
 1703POPC   C4B25366  21.913  43.301   7.562
 1704POPC   NC325367  13.636  37.530   9.326
 1704POPC   PO425368  13.222  38.073   9.484
 1704POPC   GL125369  13.392  37.891   9.066
 1704POPC   GL225370  13.397  37.508   8.885
 1704POPC   C1A25371  13.535  37.930   8.639
 1704POPC   D2A25372  13.650  37.758   8.275
 1704POPC   C3A25373  13.447  37.515   7.977
 1704POPC   C4A25374  13.444  37.806   7.616
 1704POPC   C1B25375  13.784  37.408   8.615
 1704POPC   C2B25376  13.994  37.408   8.172
 1704POPC   C3B25377  13.898  37.700   7.809
 1704POPC   C4B25378  13.808  37.556   7.345
 1705POPC   NC325379  20.638  44.641   9.685
 1705POPC   PO425380  21.105  44.530   9.425
 1705POPC   GL125381  20.757  44.585   9.117
 1705POPC   GL225382  20.609  44.896   9.208
 1705POPC   C1A25383  20.582  44.582   8.656
 1705POPC   D2A25384  20.575  44.549   8.170
 1705POPC   C3A25385  20.226  44.736   7.935
 1705POPC   C4A25386  19.985  44.728   7.538
 1705POPC   C1B25387  20.829   0.005   8.801
 1705POPC   C2B25388  20.743   0.003   8.341
 1705POPC   C3B25389  20.642   0.032   7.905
 1705POPC   C4B25390  20.691   0.389   7.619
 1706POPC   NC325391  18.513  28.953   9.649
 1706POPC   PO425392  18.030  29.192   9.502
 1706POPC   GL125393  18.245  29.185   9.099
 1706POPC   GL225394  18.419  28.877   9.125
 1706POPC   C1A25395  18.243  29.323   8.647
 1706POPC   D2A25396  18.002  29.291   8.257
 1706POPC   C3A25397  18.196  29.333   7.855
 1706POPC   C4A25398  18.035  29.091   7.491
 1706POPC   C1B25399  18.481  28.868   8.663
 1706POPC   C2B25400  18.222  28.833   8.284
 1706POPC   C3B25401  18.348  28.852   7.847
 1706POPC   C4B25402  18.752  29.035   7.727
 1707POPC   NC325403  27.516  38.235   9.548
 1707POPC   PO425404  28.027  38.674   9.490
 1707POPC   GL125405  27.865  38.403   9.184
 1707POPC   GL225406  27.528  38.507   9.107
 1707POPC   C1A25407  27.883  38.422   8.734
 1707POPC   D2A25408  27.597  38.468   8.381
 1707POPC   C3A25409  27.860  38.363   8.025
 1707POPC   C4A25410  27.834  38.093   7.679
 1707POPC   C1B25411  27.244  38.630   8.777
 1707POPC   C2B25412  27.246  38.814   8.372
 1707POPC   C3B25413  27.209  38.538   8.028
 1707POPC   C4B25414  27.448  38.442   7.673
 1708POPC   NC325415   0.106  36.382   9.342
 1708POPC   PO425416   0.393  35.793   9.581
 1708POPC   GL125417   0.319  35.955   9.157
 1708POPC   GL225418   0.636  35.877   9.040
 1708POPC   C1A25419   0.412  36.254   8.770
 1708POPC   D2A25420   0.250  36.416   8.354
 1708POPC   C3A25421   0.390  36.230   7.968
 1708POPC   C4A25422   0.752  36.073   7.784
 1708POPC   C1B25423   0.342  35.758   8.681
 1708POPC   C2B25424   0.108  35.905   8.307
 1708POPC   C3B25425   0.168  35.777   7.882
 1708POPC   C4B25426   0.450  35.489   7.625
 1709POPC   NC325427  15.070  28.426   9.720
 1709POPC   PO425428  14.506  28.387   9.360
 1709POPC   GL125429  14.998  28.319   9.225
 1709POPC   GL225430  15.258  28.531   9.142
 1709POPC   C1A25431  15.183  28.009   8.939
 1709POPC   D2A25432  15.303  28.139   8.505
 1709POPC   C3A25433  15.182  28.183   8.066
 1709POPC   C4A25434  15.442  28.190   7.681
 1709POPC   C1B25435  15.094  28.643   8.765
 1709POPC   C2B25436  15.013  28.594   8.333
 1709POPC   C3B25437  15.256  28.693   7.970
 1709POPC   C4B25438  15.077  28.546   7.629
 1710POPC   NC325439  33.904  33.801   9.646
 1710POPC   PO425440  33.395  34.067   9.366
 1710POPC   GL125441  33.643  33.762   9.154
 1710POPC   GL225442  33.906  33.536   9.211
 1710POPC   C1A25443  33.670  33.586   8.748
 1710POPC   D2A25444  33.949  33.601   8.379
 1710POPC   C3A25445  33.826  33.602   7.944
 1710POPC   C4A25446  33.694  33.871   7.600
 1710POPC   C1B25447  34.164  33.501   8.850
 1710POPC   C2B25448  34.372  33.306   8.532
 1710POPC   C3B25449  34.324  33.310   8.106
 1710POPC   C4B25450  34.295  33.538   7.723
 1711POPC   NC325451  37.836  32.168   9.315
 1711POPC   PO425452  37.223  31.910   9.231
 1711POPC   GL125453  37.408  32.242   9.050
 1711POPC   GL225454  37.648  31.970   8.892
 1711POPC   C1A25455  37.517  32.397   8.660
 1711POPC   D2A25456  37.665  32.083   8.381
 1711POPC   C3A25457  37.697  32.262   8.006
 1711POPC   C4A25458  37.488  32.501   7.724
 1711POPC   C1B25459  38.069  32.112   8.707
 1711POPC   C2B25460  38.227  32.293   8.312
 1711POPC   C3B25461  38.186  32.350   7.860
 1711POPC   C4B25462  37.935  32.103   7.577
 1712POPC   NC325463  26.607  41.696   9.581
 1712POPC   PO425464  27.280  41.520   9.606
 1712POPC   GL125465  27.034  41.747   9.210
 1712POPC   GL225466  26.667  41.697   9.073
 1712POPC   C1A25467  27.017  41.848   8.752
 1712POPC   D2A25468  26.944  41.563   8.399
 1712POPC   C3A25469  26.765  41.738   8.046
 1712POPC   C4A25470  27.078  41.976   7.825
 1712POPC   C1B25471  26.490  41.625   8.627
 1712POPC   C2B25472  26.485  41.322   8.278
 1712POPC   C3B25473  26.827  41.209   8.011
 1712POPC   C4B25474  26.773  41.407   7.632
 1713POPC   NC325475  33.573  16.448   9.415
 1713POPC   PO425476  33.985  17.009   9.503
 1713POPC   GL125477  33.907  16.763   9.130
 1713POPC   GL225478  33.625  16.964   9.013
 1713POPC   C1A25479  33.910  16.715   8.658
 1713POPC   D2A25480  33.917  16.930   8.261
 1713POPC   C3A25481  34.115  16.679   7.891
 1713POPC   C4A25482  34.086  16.771   7.449
 1713POPC   C1B25483  33.435  16.609   8.767
 1713POPC   C2B25484  33.554  16.499   8.338
 1713POPC   C3B25485  33.610  16.707   7.936
 1713POPC   C4B25486  33.668  16.521   7.575
 1714POPC   NC325487   3.397  13.368   9.560
 1714POPC   PO425488   3.826  13.894   9.535
 1714POPC   GL125489   3.581  13.811   9.212
 1714POPC   GL225490   3.707  13.498   9.162
 1714POPC   C1A25491   3.639  13.917   8.813
 1714POPC   D2A25492   3.586  13.668   8.485
 1714POPC   C3A25493   3.519  13.875   8.135
 1714POPC   C4A25494   3.642  14.030   7.750
 1714POPC   C1B25495   3.636  13.257   8.823
 1714POPC   C2B25496   3.761  13.169   8.456
 1714POPC   C3B25497   3.589  13.318   8.095
 1714POPC   C4B25498   3.506  13.540   7.704
 1715POPC   NC325499  24.069  16.914   9.283
 1715POPC   PO425500  23.447  16.534   9.453
 1715POPC   GL125501  23.618  16.756   9.058
 1715POPC   GL225502  23.882  16.962   8.826
 1715POPC   C1A25503  23.397  16.945   8.689
 1715POPC   D2A25504  23.628  16.941   8.289
 1715POPC   C3A25505  23.394  16.789   7.939
 1715POPC   C4A25506  23.226  16.920   7.564
 1715POPC   C1B25507  23.811  16.555   8.624
 1715POPC   C2B25508  23.800  16.455   8.222
 1715POPC   C3B25509  23.892  16.731   7.872
 1715POPC   C4B25510  23.722  16.716   7.503
 1716POPC   NC325511  28.678  24.116   9.448
 1716POPC   PO425512  28.476  23.512   9.584
 1716POPC   GL125513  28.582  23.551   9.173
 1716POPC   GL225514  28.304  23.779   9.136
 1716POPC   C1A25515  28.423  23.478   8.752
 1716POPC   D2A25516  28.277  23.772   8.434
 1716POPC   C3A25517  28.365  23.576   8.029
 1716POPC   C4A25518  28.142  23.586   7.660
 1716POPC   C1B25519  28.623  23.944   8.840
 1716POPC   C2B25520  28.655  24.142   8.455
 1716POPC   C3B25521  28.612  24.010   8.080
 1716POPC   C4B25522  28.466  23.976   7.692
 1717POPC   NC325523   5.684  42.050   9.577
 1717POPC   PO425524   6.114  42.587   9.602
 1717POPC   GL125525   5.805  42.602   9.232
 1717POPC   GL225526   5.586  42.303   9.144
 1717POPC   C1A25527   5.803  42.622   8.766
 1717POPC   D2A25528   5.865  42.420   8.362
 1717POPC   C3A25529   5.940  42.630   8.002
 1717POPC   C4A25530   5.794  42.387   7.690
 1717POPC   C1B25531   5.399  41.993   8.826
 1717POPC   C2B25532   5.559  41.814   8.436
 1717POPC   C3B25533   5.569  42.011   8.027
 1717POPC   C4B25534   5.437  42.067   7.605
 1718POPC   NC325535  30.253  16.977   9.217
 1718POPC   PO425536  29.994  17.476   9.598
 1718POPC   GL125537  29.898  17.549   9.176
 1718POPC   GL225538  29.827  17.220   9.111
 1718POPC   C1A25539  30.033  17.586   8.773
 1718POPC   D2A25540  30.056  17.935   8.490
 1718POPC   C3A25541  29.829  17.788   8.147
 1718POPC   C4A25542  30.011  17.700   7.756
 1718POPC   C1B25543  29.595  17.146   8.801
 1718POPC   C2B25544  29.609  17.442   8.485
 1718POPC   C3B25545  29.549  17.365   8.054
 1718POPC   C4B25546  29.749  17.256   7.676
 1719POPC   NC325547  24.163  40.575   9.500
 1719POPC   PO425548  24.738  40.858   9.709
 1719POPC   GL125549  24.627  40.686   9.267
 1719POPC   GL225550  24.330  40.822   9.099
 1719POPC   C1A25551  24.710  40.605   8.828
 1719POPC   D2A25552  24.532  40.683   8.432
 1719POPC   C3A25553  24.723  40.835   8.061
 1719POPC   C4A25554  24.617  40.695   7.665
 1719POPC   C1B25555  24.200  40.496   8.796
 1719POPC   C2B25556  24.043  40.579   8.365
 1719POPC   C3B25557  24.207  40.799   8.039
 1719POPC   C4B25558  24.128  40.606   7.673
 1720POPC   NC325559  20.420   4.640   9.316
 1720POPC   PO425560  21.111   4.883   9.319
 1720POPC   GL125561  20.792   5.007   9.030
 1720POPC   GL225562  20.459   5.144   9.105
 1720POPC   C1A25563  20.573   4.792   8.688
 1720POPC   D2A25564  20.339   4.857   8.317
 1720POPC   C3A25565  20.576   4.964   7.939
 1720POPC   C4A25566  20.786   4.703   7.680
 1720POPC   C1B25567  20.499   5.284   8.674
 1720POPC   C2B25568  20.726   5.549   8.399
 1720POPC   C3B25569  20.689   5.487   7.987
 1720POPC   C4B25570  20.408   5.366   7.676
 1721POPC   NC325571  14.619  25.342   9.512
 1721POPC   PO425572  14.014  24.972   9.506
 1721POPC   GL125573  14.294  25.127   9.161
 1721POPC   GL225574  14.271  25.450   9.148
 1721POPC   C1A25575  14.498  25.067   8.751
 1721POPC   D2A25576  14.403  25.248   8.349
 1721POPC   C3A25577  14.469  25.228   7.912
 1721POPC   C4A25578  14.197  25.357   7.574
 1721POPC   C1B25579  14.385  25.599   8.742
 1721POPC   C2B25580  14.543  25.774   8.351
 1721POPC   C3B25581  14.792  25.654   8.024
 1721POPC   C4B25582  14.661  25.619   7.597
 1722POPC   NC325583  29.363   9.236   9.463
 1722POPC   PO425584  28.709   8.979   9.713
 1722POPC   GL125585  28.833   8.863   9.231
 1722POPC   GL225586  29.082   9.106   9.055
 1722POPC   C1A25587  28.852   8.799   8.750
 1722POPC   D2A25588  29.120   9.097   8.498
 1722POPC   C3A25589  29.056   9.088   8.061
 1722POPC   C4A25590  28.859   8.974   7.740
 1722POPC   C1B25591  29.495   8.988   8.829
 1722POPC   C2B25592  29.713   8.751   8.511
 1722POPC   C3B25593  29.531   8.898   8.150
 1722POPC   C4B25594  29.361   8.784   7.772
 1723POPC   NC325595  19.628  31.489   9.516
 1723POPC   PO425596  20.286  31.160   9.457
 1723POPC   GL125597  20.012  31.410   9.180
 1723POPC   GL225598  19.671  31.292   9.056
 1723POPC   C1A25599  20.018  31.492   8.756
 1723POPC   D2A25600  20.095  31.654   8.375
 1723POPC   C3A25601  19.908  31.440   8.092
 1723POPC   C4A25602  19.918  31.521   7.682
 1723POPC   C1B25603  19.495  31.535   8.750
 1723POPC   C2B25604  19.481  31.690   8.326
 1723POPC   C3B25605  19.475  31.583   7.897
 1723POPC   C4B25606  19.598  31.140   7.803
 1724POPC   NC325607   4.529  28.659   9.342
 1724POPC   PO425608   4.261  29.192   9.632
 1724POPC   GL125609   4.169  29.042   9.207
 1724POPC   GL225610   4.387  29.274   9.073
 1724POPC   C1A25611   4.264  28.930   8.740
 1724POPC   D2A25612   4.248  29.188   8.355
 1724POPC   C3A25613   4.414  29.013   8.008
 1724POPC   C4A25614   4.364  28.736   7.692
 1724POPC   C1B25615   4.510  29.460   8.695
 1724POPC   C2B25616   4.547  29.599   8.284
 1724POPC   C3B25617   4.636  29.475   7.853
 1724POPC   C4B25618   4.570  29.510   7.392
 1725POPC   NC325619  23.554  39.835   9.465
 1725POPC   PO425620  23.692  40.473   9.486
 1725POPC   GL125621  23.570  40.265   9.093
 1725POPC   GL225622  23.442  39.915   8.975
 1725POPC   C1A25623  23.716  40.267   8.666
 1725POPC   D2A25624  23.703  40.024   8.303
 1725POPC   C3A25625  23.909  40.246   7.989
 1725POPC   C4A25626  24.129  40.101   7.653
 1725POPC   C1B25627  23.928  39.873   8.909
 1725POPC   C2B25628  24.085  39.722   8.500
 1725POPC   C3B25629  24.158  39.788   8.053
 1725POPC   C4B25630  24.062  39.593   7.640
 1726POPC   NC325631  21.210  24.080   9.862
 1726POPC   PO425632  21.334  23.583   9.368
 1726POPC   GL125633  21.413  23.409   9.033
 1726POPC   GL225634  21.684  23.168   9.012
 1726POPC   C1A25635  21.358  23.610   8.666
 1726POPC   D2A25636  21.190  23.713   8.289
 1726POPC   C3A25637  21.412  23.778   7.911
 1726POPC   C4A25638  21.014  23.625   7.771
 1726POPC   C1B25639  21.845  23.484   8.751
 1726POPC   C2B25640  21.750  23.640   8.356
 1726POPC   C3B25641  21.811  23.455   8.002
 1726POPC   C4B25642  21.836  23.555   7.611
 1727POPC   NC325643  37.900  30.490   9.524
 1727POPC   PO425644  37.540  31.023   9.401
 1727POPC   GL125645  37.726  30.771   9.123
 1727POPC   GL225646  37.517  30.485   9.169
 1727POPC   C1A25647  37.880  30.860   8.717
 1727POPC   D2A25648  37.680  30.993   8.328
 1727POPC   C3A25649  37.764  30.792   7.926
 1727POPC   C4A25650  37.514  30.821   7.555
 1727POPC   C1B25651  37.680  30.382   8.793
 1727POPC   C2B25652  37.849  30.444   8.387
 1727POPC   C3B25653  37.669  30.283   8.002
 1727POPC   C4B25654  37.736  30.354   7.552
 1728POPC   NC325655  26.226  15.616   9.397
 1728POPC   PO425656  25.698  15.082   9.482
 1728POPC   GL125657  25.976  15.084   9.154
 1728POPC   GL225658  26.032  14.746   9.115
 1728POPC   C1A25659  25.940  15.329   8.790
 1728POPC   D2A25660  25.927  15.218   8.372
 1728POPC   C3A25661  26.210  15.434   8.114
 1728POPC   C4A25662  25.956  15.467   7.739
 1728POPC   C1B25663  26.128  14.825   8.664
 1728POPC   C2B25664  26.103  14.753   8.245
 1728POPC   C3B25665  26.078  14.975   7.911
 1728POPC   C4B25666  26.437  14.856   7.776
 1729POPC   NC325667  10.980  12.722   9.503
 1729POPC   PO425668  11.516  13.052   9.531
 1729POPC   GL125669  11.328  13.128   9.126
 1729POPC   GL225670  11.062  12.949   9.045
 1729POPC   C1A25671  11.469  12.988   8.701
 1729POPC   D2A25672  11.300  12.855   8.311
 1729POPC   C3A25673  11.285  13.151   7.963
 1729POPC   C4A25674  11.193  13.113   7.496
 1729POPC   C1B25675  10.960  12.693   8.707
 1729POPC   C2B25676  10.773  12.631   8.323
 1729POPC   C3B25677  10.859  12.801   7.923
 1729POPC   C4B25678  10.928  12.622   7.517
 1730POPC   NC325679  16.225  22.794   9.599
 1730POPC   PO425680  15.588  23.061   9.705
 1730POPC   GL125681  15.849  23.030   9.293
 1730POPC   GL225682  15.949  22.715   9.171
 1730POPC   C1A25683  15.729  22.989   8.811
 1730POPC   D2A25684  15.581  23.102   8.354
 1730POPC   C3A25685  15.850  22.926   8.030
 1730POPC   C4A25686  16.159  23.127   7.775
 1730POPC   C1B25687  16.222  22.674   8.759
 1730POPC   C2B25688  16.295  22.686   8.296
 1730POPC   C3B25689  16.326  22.660   7.822
 1730POPC   C4B25690  16.201  22.671   7.361
 1731POPC   NC325691  44.238  27.342   9.431
 1731POPC   PO425692  44.910  27.333   9.462
 1731POPC   GL125693  44.671  27.583   9.176
 1731POPC   GL225694  44.343  27.811   9.258
 1731POPC   C1A25695  44.834  27.535   8.774
 1731POPC   D2A25696   0.086  27.726   8.441
 1731POPC   C3A25697  44.971  27.540   8.083
 1731POPC   C4A25698  44.904  27.347   7.708
 1731POPC   C1B25699  44.361  27.813   8.798
 1731POPC   C2B25700  44.570  27.673   8.371
 1731POPC   C3B25701  44.467  27.541   7.934
 1731POPC   C4B25702  44.376  27.717   7.514
 1732POPC   NC325703   4.936  44.536   9.551
 1732POPC   PO425704   5.477  44.321   9.298
 1732POPC   GL125705   5.132  44.441   9.097
 1732POPC   GL225706   5.049  44.792   9.130
 1732POPC   C1A25707   4.979  44.336   8.739
 1732POPC   D2A25708   5.037  44.569   8.379
 1732POPC   C3A25709   4.843  44.479   8.042
 1732POPC   C4A25710   4.982  44.569   7.672
 1732POPC   C1B25711   4.801  44.817   8.761
 1732POPC   C2B25712   4.829   0.054   8.385
 1732POPC   C3B25713   5.050  44.969   8.023
 1732POPC   C4B25714   4.876   0.070   7.648
 1733POPC   NC325715  28.930  20.775   9.654
 1733POPC   PO425716  28.682  21.382   9.586
 1733POPC   GL125717  28.918  21.425   9.212
 1733POPC   GL225718  29.142  21.109   9.207
 1733POPC   C1A25719  28.931  21.641   8.805
 1733POPC   D2A25720  29.156  21.583   8.427
 1733POPC   C3A25721  29.152  21.599   7.976
 1733POPC   C4A25722  29.298  21.214   7.828
 1733POPC   C1B25723  28.902  21.097   8.799
 1733POPC   C2B25724  28.831  21.134   8.352
 1733POPC   C3B25725  28.866  20.929   7.957
 1733POPC   C4B25726  28.808  21.080   7.574
 1734POPC   NC325727  28.498  21.825   9.520
 1734POPC   PO425728  28.472  22.513   9.598
 1734POPC   GL125729  28.455  22.273   9.191
 1734POPC   GL225730  28.219  22.008   9.120
 1734POPC   C1A25731  28.595  22.121   8.781
 1734POPC   D2A25732  28.690  22.406   8.462
 1734POPC   C3A25733  28.362  22.448   8.205
 1734POPC   C4A25734  28.402  22.316   7.809
 1734POPC   C1B25735  28.103  22.268   8.734
 1734POPC   C2B25736  27.894  22.242   8.307
 1734POPC   C3B25737  27.932  22.101   7.862
 1734POPC   C4B25738  27.950  22.077   7.398
 1735POPC   NC325739   9.352  37.234   9.530
 1735POPC   PO425740   9.989  37.186   9.898
 1735POPC   GL125741   9.869  37.270   9.407
 1735POPC   GL225742   9.901  36.945   9.230
 1735POPC   C1A25743   9.667  37.284   8.933
 1735POPC   D2A25744   9.681  37.165   8.492
 1735POPC   C3A25745   9.478  37.134   8.081
 1735POPC   C4A25746   9.655  37.271   7.694
 1735POPC   C1B25747   9.797  36.771   8.800
 1735POPC   C2B25748   9.692  36.684   8.334
 1735POPC   C3B25749   9.936  36.827   7.979
 1735POPC   C4B25750  10.338  36.704   7.780
 1736POPC   NC325751  15.520  19.496   9.496
 1736POPC   PO425752  15.224  18.923   9.669
 1736POPC   GL125753  15.319  19.085   9.236
 1736POPC   GL225754  15.370  18.816   9.069
 1736POPC   C1A25755  15.173  19.249   8.818
 1736POPC   D2A25756  15.260  19.271   8.366
 1736POPC   C3A25757  14.937  19.052   8.162
 1736POPC   C4A25758  14.763  18.953   7.771
 1736POPC   C1B25759  15.554  18.934   8.668
 1736POPC   C2B25760  15.517  18.867   8.227
 1736POPC   C3B25761  15.332  19.000   7.816
 1736POPC   C4B25762  15.477  18.987   7.384
 1737POPC   NC325763   2.538  22.417   9.568
 1737POPC   PO425764   3.166  22.230   9.685
 1737POPC   GL125765   2.836  22.146   9.250
 1737POPC   GL225766   2.597  22.375   9.049
 1737POPC   C1A25767   2.968  22.091   8.794
 1737POPC   D2A25768   3.129  22.133   8.343
 1737POPC   C3A25769   2.820  22.103   8.040
 1737POPC   C4A25770   2.504  22.066   7.720
 1737POPC   C1B25771   2.428  22.316   8.635
 1737POPC   C2B25772   2.350  22.317   8.175
 1737POPC   C3B25773   2.483  22.563   7.831
 1737POPC   C4B25774   2.473  22.469   7.398
 1738POPC   NC325775  12.213  34.471   9.562
 1738POPC   PO425776  11.664  34.749   9.638
 1738POPC   GL125777  11.928  34.761   9.245
 1738POPC   GL225778  12.260  34.620   9.099
 1738POPC   C1A25779  11.825  34.676   8.825
 1738POPC   D2A25780  11.926  34.445   8.481
 1738POPC   C3A25781  11.811  34.594   8.115
 1738POPC   C4A25782  11.912  34.477   7.691
 1738POPC   C1B25783  12.323  34.674   8.700
 1738POPC   C2B25784  12.149  34.909   8.360
 1738POPC   C3B25785  12.273  34.765   7.945
 1738POPC   C4B25786  12.396  34.649   7.519
 1739POPC   NC325787  27.138  35.899   9.865
 1739POPC   PO425788  27.468  36.319   9.485
 1739POPC   GL125789  27.564  36.110   9.125
 1739POPC   GL225790  27.244  36.067   9.047
 1739POPC   C1A25791  27.636  35.980   8.692
 1739POPC   D2A25792  27.838  36.115   8.301
 1739POPC   C3A25793  27.775  35.797   7.996
 1739POPC   C4A25794  27.513  35.786   7.640
 1739POPC   C1B25795  27.257  36.348   8.722
 1739POPC   C2B25796  27.335  36.231   8.303
 1739POPC   C3B25797  27.244  36.309   7.905
 1739POPC   C4B25798  27.153  36.612   7.651
 1740POPC   NC325799  38.729  25.562   9.529
 1740POPC   PO425800  38.048  25.456   9.503
 1740POPC   GL125801  38.337  25.355   9.177
 1740POPC   GL225802  38.499  25.686   9.090
 1740POPC   C1A25803  38.367  25.106   8.769
 1740POPC   D2A25804  38.159  24.962   8.378
 1740POPC   C3A25805  38.361  25.143   7.998
 1740POPC   C4A25806  38.577  24.937   7.695
 1740POPC   C1B25807  38.194  25.603   8.757
 1740POPC   C2B25808  38.224  25.455   8.391
 1740POPC   C3B25809  38.054  25.577   8.039
 1740POPC   C4B25810  38.264  25.566   7.678
 1741POPC   NC325811   4.098   3.785   9.585
 1741POPC   PO425812   4.509   3.370   9.465
 1741POPC   GL125813   4.357   3.572   9.121
 1741POPC   GL225814   4.004   3.515   9.148
 1741POPC   C1A25815   4.446   3.425   8.701
 1741POPC   D2A25816   4.403   3.081   8.388
 1741POPC   C3A25817   4.527   3.226   7.994
 1741POPC   C4A25818   4.399   3.511   7.692
 1741POPC   C1B25819   3.971   3.646   8.708
 1741POPC   C2B25820   4.148   3.533   8.295
 1741POPC   C3B25821   3.955   3.611   7.918
 1741POPC   C4B25822   3.992   3.843   7.545
 1742POPC   NC325823  13.329  30.961   9.663
 1742POPC   PO425824  13.752  31.520   9.480
 1742POPC   GL125825  13.495  31.538   9.087
 1742POPC   GL225826  13.426  31.191   9.188
 1742POPC   C1A25827  13.562  31.682   8.636
 1742POPC   D2A25828  13.621  31.519   8.202
 1742POPC   C3A25829  13.510  31.709   7.863
 1742POPC   C4A25830  13.950  31.730   7.765
 1742POPC   C1B25831  13.667  31.193   8.785
 1742POPC   C2B25832  13.341  31.240   8.503
 1742POPC   C3B25833  13.316  31.160   8.051
 1742POPC   C4B25834  13.320  31.278   7.627
 1743POPC   NC325835  15.703   1.900   9.369
 1743POPC   PO425836  16.235   2.172   9.428
 1743POPC   GL125837  16.054   2.134   9.055
 1743POPC   GL225838  15.707   2.332   9.100
 1743POPC   C1A25839  16.077   1.741   8.791
 1743POPC   D2A25840  16.288   1.531   8.417
 1743POPC   C3A25841  16.128   1.599   7.979
 1743POPC   C4A25842  16.164   1.923   7.659
 1743POPC   C1B25843  15.710   2.109   8.696
 1743POPC   C2B25844  15.922   1.945   8.326
 1743POPC   C3B25845  15.733   1.969   7.923
 1743POPC   C4B25846  15.510   2.359   7.793
 1744POPC   NC325847   0.772   0.920   9.416
 1744POPC   PO425848   0.354   0.381   9.521
 1744POPC   GL125849   0.496   0.497   9.157
 1744POPC   GL225850   0.138   0.485   9.065
 1744POPC   C1A25851   0.507   0.268   8.772
 1744POPC   D2A25852   0.369   0.038   8.438
 1744POPC   C3A25853   0.487   0.190   8.032
 1744POPC   C4A25854   0.585   0.412   7.653
 1744POPC   C1B25855   0.327   0.771   8.763
 1744POPC   C2B25856   0.468   0.598   8.362
 1744POPC   C3B25857   0.335   0.734   7.967
 1744POPC   C4B25858   0.277   0.774   7.510
 1745POPC   NC325859  41.046  41.640   9.540
 1745POPC   PO425860  40.491  41.738   9.305
 1745POPC   GL125861  40.803  41.499   9.118
 1745POPC   GL225862  41.148  41.352   9.126
 1745POPC   C1A25863  40.796  41.399   8.732
 1745POPC   D2A25864  40.523  41.638   8.520
 1745POPC   C3A25865  40.579  41.674   8.111
 1745POPC   C4A25866  40.572  41.484   7.708
 1745POPC   C1B25867  41.159  41.724   8.847
 1745POPC   C2B25868  41.027  41.753   8.421
 1745POPC   C3B25869  41.062  41.558   8.017
 1745POPC   C4B25870  40.994  41.823   7.685
 1746POPC   NC325871  17.895  19.870   9.374
 1746POPC   PO425872  17.261  19.567   9.466
 1746POPC   GL125873  17.503  19.629   9.129
 1746POPC   GL225874  17.313  19.940   9.100
 1746POPC   C1A25875  17.652  19.792   8.730
 1746POPC   D2A25876  17.452  19.973   8.390
 1746POPC   C3A25877  17.658  19.844   8.026
 1746POPC   C4A25878  17.731  19.959   7.594
 1746POPC   C1B25879  17.159  19.650   8.745
 1746POPC   C2B25880  17.310  19.503   8.328
 1746POPC   C3B25881  17.177  19.652   7.942
 1746POPC   C4B25882  17.278  19.637   7.511
 1747POPC   NC325883  27.435  19.703   9.619
 1747POPC   PO425884  27.588  20.321   9.515
 1747POPC   GL125885  27.482  20.000   9.173
 1747POPC   GL225886  27.578  19.636   9.135
 1747POPC   C1A25887  27.462  19.899   8.729
 1747POPC   D2A25888  27.664  19.985   8.349
 1747POPC   C3A25889  27.346  19.964   8.038
 1747POPC   C4A25890  27.445  20.060   7.658
 1747POPC   C1B25891  27.730  19.459   8.743
 1747POPC   C2B25892  27.670  19.432   8.320
 1747POPC   C3B25893  27.815  19.650   7.963
 1747POPC   C4B25894  27.759  19.670   7.524
 1748POPC   NC325895  15.883  36.751   9.568
 1748POPC   PO425896  16.390  36.546   9.420
 1748POPC   GL125897  16.166  36.909   9.147
 1748POPC   GL225898  15.782  36.889   9.090
 1748POPC   C1A25899  16.039  37.123   8.725
 1748POPC   D2A25900  15.847  36.998   8.330
 1748POPC   C3A25901  15.863  37.201   7.973
 1748POPC   C4A25902  16.256  37.151   7.749
 1748POPC   C1B25903  15.636  36.738   8.702
 1748POPC   C2B25904  15.662  36.531   8.282
 1748POPC   C3B25905  15.792  36.678   7.860
 1748POPC   C4B25906  15.715  36.547   7.409
 1749POPC   NC325907  15.180  25.041   9.376
 1749POPC   PO425908  14.979  25.628   9.383
 1749POPC   GL125909  14.820  25.363   9.039
 1749POPC   GL225910  15.136  25.180   8.903
 1749POPC   C1A25911  14.847  25.418   8.582
 1749POPC   D2A25912  15.168  25.192   8.390
 1749POPC   C3A25913  14.981  25.001   8.118
 1749POPC   C4A25914  14.963  25.258   7.765
 1749POPC   C1B25915  15.481  24.920   8.700
 1749POPC   C2B25916  15.655  25.047   8.273
 1749POPC   C3B25917  15.428  25.067   7.881
 1749POPC   C4B25918  15.411  25.377   7.545
 1750POPC   NC325919  27.500   6.943   9.609
 1750POPC   PO425920  27.624   6.259   9.639
 1750POPC   GL125921  27.652   6.490   9.199
 1750POPC   GL225922  27.762   6.811   9.197
 1750POPC   C1A25923  27.549   6.418   8.750
 1750POPC   D2A25924  27.458   6.589   8.377
 1750POPC   C3A25925  27.630   6.412   8.022
 1750POPC   C4A25926  27.554   6.659   7.684
 1750POPC   C1B25927  27.974   6.701   8.834
 1750POPC   C2B25928  27.927   6.871   8.449
 1750POPC   C3B25929  27.850   6.872   8.059
 1750POPC   C4B25930  28.002   6.915   7.675
 1751POPC   NC325931  36.558  17.945   9.464
 1751POPC   PO425932  36.284  17.354   9.301
 1751POPC   GL125933  36.145  17.471   8.933
 1751POPC   GL225934  35.992  17.782   9.070
 1751POPC   C1A25935  35.872  17.601   8.602
 1751POPC   D2A25936  35.855  17.538   8.192
 1751POPC   C3A25937  36.240  17.407   7.978
 1751POPC   C4A25938  36.388  17.276   7.582
 1751POPC   C1B25939  36.288  17.895   8.718
 1751POPC   C2B25940  36.263  17.869   8.267
 1751POPC   C3B25941  36.184  17.925   7.818
 1751POPC   C4B25942  36.415  18.099   7.441
 1752POPC   NC325943  24.158  19.333   9.414
 1752POPC   PO425944  23.585  18.982   9.628
 1752POPC   GL125945  23.772  18.920   9.233
 1752POPC   GL225946  23.769  19.239   9.116
 1752POPC   C1A25947  23.686  18.867   8.780
 1752POPC   D2A25948  23.556  18.977   8.359
 1752POPC   C3A25949  23.763  18.861   7.976
 1752POPC   C4A25950  23.588  18.913   7.566
 1752POPC   C1B25951  23.897  19.431   8.756
 1752POPC   C2B25952  23.724  19.606   8.407
 1752POPC   C3B25953  23.683  19.376   8.047
 1752POPC   C4B25954  23.855  19.336   7.652
 1753POPC   NC325955  36.198  32.640   9.852
 1753POPC   PO425956  35.639  32.253   9.563
 1753POPC   GL125957  35.683  32.279   9.117
 1753POPC   GL225958  35.535  32.612   9.114
 1753POPC   C1A25959  36.071  32.213   8.821
 1753POPC   D2A25960  36.276  32.371   8.432
 1753POPC   C3A25961  36.164  32.458   8.052
 1753POPC   C4A25962  36.225  32.204   7.696
 1753POPC   C1B25963  35.736  32.580   8.705
 1753POPC   C2B25964  35.796  32.242   8.370
 1753POPC   C3B25965  35.762  32.200   7.902
 1753POPC   C4B25966  35.890  32.587   7.639
 1754POPC   NC325967  31.777  21.786   9.524
 1754POPC   PO425968  31.124  22.133   9.616
 1754POPC   GL125969  31.349  22.196   9.232
 1754POPC   GL225970  31.223  22.539   9.128
 1754POPC   C1A25971  31.534  21.941   8.904
 1754POPC   D2A25972  31.578  21.731   8.492
 1754POPC   C3A25973  31.831  21.923   8.183
 1754POPC   C4A25974  31.636  22.031   7.799
 1754POPC   C1B25975  31.599  22.467   8.870
 1754POPC   C2B25976  31.581  22.257   8.477
 1754POPC   C3B25977  31.382  22.366   8.080
 1754POPC   C4B25978  31.346  22.474   7.644
 1755POPC   NC325979  23.053  26.569   9.431
 1755POPC   PO425980  22.426  26.900   9.457
 1755POPC   GL125981  22.760  26.885   9.149
 1755POPC   GL225982  22.820  26.531   8.989
 1755POPC   C1A25983  22.894  27.041   8.787
 1755POPC   D2A25984  22.675  26.718   8.552
 1755POPC   C3A25985  22.871  26.674   8.204
 1755POPC   C4A25986  22.811  26.783   7.815
 1755POPC   C1B25987  23.186  26.637   8.713
 1755POPC   C2B25988  23.321  26.450   8.302
 1755POPC   C3B25989  23.301  26.608   7.892
 1755POPC   C4B25990  23.119  26.478   7.523
 1756POPC   NC325991  41.270  34.182   9.346
 1756POPC   PO425992  40.819  34.599   9.667
 1756POPC   GL125993  40.854  34.488   9.253
 1756POPC   GL225994  41.104  34.727   9.184
 1756POPC   C1A25995  40.678  34.493   8.840
 1756POPC   D2A25996  40.702  34.682   8.428
 1756POPC   C3A25997  40.817  34.465   8.061
 1756POPC   C4A25998  40.695  34.160   7.749
 1756POPC   C1B25999  41.102  34.759   8.758
 1756POPC   C2B26000  41.158  34.411   8.468
 1756POPC   C3B26001  41.344  34.410   8.058
 1756POPC   C4B26002  41.141  34.429   7.670
 1757POPC   NC326003   1.527  28.640   9.325
 1757POPC   PO426004   1.060  28.331   9.687
 1757POPC   GL126005   1.072  28.321   9.224
 1757POPC   GL226006   1.115  28.654   9.028
 1757POPC   C1A26007   1.086  28.211   8.784
 1757POPC   D2A26008   1.063  28.508   8.428
 1757POPC   C3A26009   1.002  28.338   8.040
 1757POPC   C4A26010   1.187  28.032   7.810
 1757POPC   C1B26011   1.397  28.801   8.667
 1757POPC   C2B26012   1.509  28.744   8.219
 1757POPC   C3B26013   1.426  28.512   7.802
 1757POPC   C4B26014   1.059  28.515   7.534
 1758POPC   NC326015  43.520  30.705   9.522
 1758POPC   PO426016  43.967  31.252   9.671
 1758POPC   GL126017  44.000  30.816   9.304
 1758POPC   GL226018  43.736  30.709   9.074
 1758POPC   C1A26019  44.165  30.489   8.955
 1758POPC   D2A26020  44.019  30.510   8.539
 1758POPC   C3A26021  43.895  30.337   8.144
 1758POPC   C4A26022  43.892  30.562   7.803
 1758POPC   C1B26023  43.713  30.921   8.685
 1758POPC   C2B26024  43.605  31.167   8.342
 1758POPC   C3B26025  43.584  31.025   7.918
 1758POPC   C4B26026  43.906  31.031   7.591
 1759POPC   NC326027  11.150  43.210   9.555
 1759POPC   PO426028  11.667  42.857   9.621
 1759POPC   GL126029  11.461  43.049   9.181
 1759POPC   GL226030  11.430  43.428   9.161
 1759POPC   C1A26031  11.261  43.086   8.732
 1759POPC   D2A26032  11.023  42.919   8.341
 1759POPC   C3A26033  11.107  42.801   7.909
 1759POPC   C4A26034  11.057  42.747   7.441
 1759POPC   C1B26035  11.257  43.597   8.745
 1759POPC   C2B26036  11.269  43.447   8.347
 1759POPC   C3B26037  11.361  43.273   7.995
 1759POPC   C4B26038  11.151  43.251   7.657
 1760POPC   NC326039  22.879  11.633   9.292
 1760POPC   PO426040  22.979  11.017   9.388
 1760POPC   GL126041  22.869  11.214   9.000
 1760POPC   GL226042  23.200  11.442   8.958
 1760POPC   C1A26043  22.492  11.185   8.681
 1760POPC   D2A26044  22.611  11.229   8.240
 1760POPC   C3A26045  22.390  11.335   7.867
 1760POPC   C4A26046  22.524  11.253   7.404
 1760POPC   C1B26047  23.332  11.447   8.520
 1760POPC   C2B26048  23.093  11.432   8.168
 1760POPC   C3B26049  22.891  11.412   7.812
 1760POPC   C4B26050  23.082  11.717   7.578
 1761POPC   NC326051   2.466  24.533   9.568
 1761POPC   PO426052   2.994  24.202   9.397
 1761POPC   GL126053   2.762  24.490   9.161
 1761POPC   GL226054   2.498  24.286   9.083
 1761POPC   C1A26055   2.775  24.743   8.813
 1761POPC   D2A26056   3.039  24.619   8.493
 1761POPC   C3A26057   2.842  24.719   8.109
 1761POPC   C4A26058   3.116  24.807   7.786
 1761POPC   C1B26059   2.780  24.200   8.718
 1761POPC   C2B26060   2.915  24.186   8.254
 1761POPC   C3B26061   2.958  24.319   7.808
 1761POPC   C4B26062   2.686  24.214   7.466
 1762POPC   NC326063  33.051  13.105   9.566
 1762POPC   PO426064  32.837  12.461   9.463
 1762POPC   GL126065  33.043  12.761   9.164
 1762POPC   GL226066  33.288  13.050   9.126
 1762POPC   C1A26067  33.039  12.794   8.732
 1762POPC   D2A26068  32.890  12.528   8.416
 1762POPC   C3A26069  32.915  12.725   8.024
 1762POPC   C4A26070  33.197  12.621   7.672
 1762POPC   C1B26071  33.490  13.055   8.760
 1762POPC   C2B26072  33.286  13.175   8.376
 1762POPC   C3B26073  33.324  13.063   7.931
 1762POPC   C4B26074  33.398  13.230   7.508
 1763POPC   NC326075  42.999  11.906   9.467
 1763POPC   PO426076  42.402  11.889   9.187
 1763POPC   GL126077  42.806  12.070   8.981
 1763POPC   GL226078  43.156  11.905   8.972
 1763POPC   C1A26079  42.875  12.439   8.666
 1763POPC   D2A26080  43.087  12.536   8.331
 1763POPC   C3A26081  43.104  12.183   8.118
 1763POPC   C4A26082  43.041  12.335   7.740
 1763POPC   C1B26083  43.331  12.186   8.631
 1763POPC   C2B26084  43.618  12.243   8.274
 1763POPC   C3B26085  43.520  12.120   7.823
 1763POPC   C4B26086  43.255  11.874   7.556
 1764POPC   NC326087   6.850   8.989   9.303
 1764POPC   PO426088   6.539   8.477   9.642
 1764POPC   GL126089   6.405   8.762   9.268
 1764POPC   GL226090   6.400   9.156   9.144
 1764POPC   C1A26091   6.475   8.755   8.798
 1764POPC   D2A26092   6.829   8.722   8.523
 1764POPC   C3A26093   6.678   8.898   8.152
 1764POPC   C4A26094   6.724   8.884   7.755
 1764POPC   C1B26095   6.660   9.246   8.737
 1764POPC   C2B26096   6.605   9.388   8.321
 1764POPC   C3B26097   6.641   9.368   7.879
 1764POPC   C4B26098   6.534   9.205   7.435
 1765POPC   NC326099  28.521  11.999   9.872
 1765POPC   PO426100  28.671  12.323   9.303
 1765POPC   GL126101  28.524  12.081   8.964
 1765POPC   GL226102  28.186  11.947   8.916
 1765POPC   C1A26103  28.530  12.063   8.545
 1765POPC   D2A26104  28.484  12.330   8.222
 1765POPC   C3A26105  28.382  12.080   7.899
 1765POPC   C4A26106  28.342  12.069   7.470
 1765POPC   C1B26107  28.169  11.709   8.536
 1765POPC   C2B26108  27.999  11.809   8.147
 1765POPC   C3B26109  28.034  11.757   7.715
 1765POPC   C4B26110  28.177  11.585   7.329
 1766POPC   NC326111  31.493  20.830   9.455
 1766POPC   PO426112  31.487  20.206   9.231
 1766POPC   GL126113  31.641  20.572   9.022
 1766POPC   GL226114  31.890  20.854   9.117
 1766POPC   C1A26115  31.573  20.476   8.589
 1766POPC   D2A26116  31.200  20.487   8.370
 1766POPC   C3A26117  31.243  20.495   7.941
 1766POPC   C4A26118  30.986  20.781   7.714
 1766POPC   C1B26119  31.874  20.872   8.668
 1766POPC   C2B26120  31.920  20.670   8.244
 1766POPC   C3B26121  31.746  20.517   7.850
 1766POPC   C4B26122  31.512  20.870   7.702
 1767POPC   NC326123  37.781  36.768   9.511
 1767POPC   PO426124  38.331  37.194   9.306
 1767POPC   GL126125  37.935  37.055   9.133
 1767POPC   GL226126  37.526  37.007   9.143
 1767POPC   C1A26127  37.865  36.811   8.802
 1767POPC   D2A26128  37.806  36.939   8.428
 1767POPC   C3A26129  37.888  36.715   8.089
 1767POPC   C4A26130  37.693  36.476   7.816
 1767POPC   C1B26131  37.390  37.032   8.726
 1767POPC   C2B26132  37.318  37.031   8.284
 1767POPC   C3B26133  37.479  36.969   7.849
 1767POPC   C4B26134  37.476  37.172   7.383
 1768POPC   NC326135  27.320  41.977   9.595
 1768POPC   PO426136  27.682  42.525   9.643
 1768POPC   GL126137  27.527  42.506   9.178
 1768POPC   GL226138  27.489  42.861   9.080
 1768POPC   C1A26139  27.364  42.225   8.812
 1768POPC   D2A26140  27.317  42.078   8.353
 1768POPC   C3A26141  27.498  42.249   7.930
 1768POPC   C4A26142  27.506  42.035   7.512
 1768POPC   C1B26143  27.404  42.700   8.672
 1768POPC   C2B26144  27.259  42.581   8.247
 1768POPC   C3B26145  27.434  42.764   7.805
 1768POPC   C4B26146  27.435  42.960   7.366
 1769POPC   NC326147  33.434  43.911   9.285
 1769POPC   PO426148  33.041  44.442   9.627
 1769POPC   GL126149  32.995  44.146   9.230
 1769POPC   GL226150  32.904  43.829   9.044
 1769POPC   C1A26151  33.099  44.164   8.735
 1769POPC   D2A26152  32.939  43.897   8.375
 1769POPC   C3A26153  32.907  44.012   7.923
 1769POPC   C4A26154  32.880  44.147   7.470
 1769POPC   C1B26155  33.219  43.648   8.727
 1769POPC   C2B26156  33.320  43.407   8.321
 1769POPC   C3B26157  33.089  43.465   7.956
 1769POPC   C4B26158  32.987  43.646   7.569
 1770POPC   NC326159  43.463  35.642   9.445
 1770POPC   PO426160  42.956  35.284   9.506
 1770POPC   GL126161  43.213  35.293   9.154
 1770POPC   GL226162  43.029  35.611   9.100
 1770POPC   C1A26163  43.463  35.208   8.776
 1770POPC   D2A26164  43.292  35.092   8.381
 1770POPC   C3A26165  43.050  35.273   8.022
 1770POPC   C4A26166  43.290  35.241   7.611
 1770POPC   C1B26167  43.001  35.405   8.695
 1770POPC   C2B26168  43.251  35.617   8.376
 1770POPC   C3B26169  43.386  35.620   7.944
 1770POPC   C4B26170  43.065  35.665   7.589
 1771POPC   NC326171   8.756  39.557   9.252
 1771POPC   PO426172   9.180  39.265   9.738
 1771POPC   GL126173   9.153  39.225   9.256
 1771POPC   GL226174   8.805  39.060   9.135
 1771POPC   C1A26175   9.151  39.249   8.769
 1771POPC   D2A26176   9.059  38.951   8.412
 1771POPC   C3A26177   8.957  39.065   7.988
 1771POPC   C4A26178   8.919  39.261   7.592
 1771POPC   C1B26179   8.641  39.158   8.698
 1771POPC   C2B26180   8.534  39.154   8.259
 1771POPC   C3B26181   8.481  39.295   7.839
 1771POPC   C4B26182   8.460  39.177   7.389
 1772POPC   NC326183  43.490  44.141   9.627
 1772POPC   PO426184  42.988  43.712   9.577
 1772POPC   GL126185  43.303  43.787   9.249
 1772POPC   GL226186  43.131  44.067   9.235
 1772POPC   C1A26187  43.326  43.952   8.775
 1772POPC   D2A26188  43.500  44.078   8.352
 1772POPC   C3A26189  43.340  43.854   7.983
 1772POPC   C4A26190  43.041  43.537   7.814
 1772POPC   C1B26191  42.822  43.910   8.883
 1772POPC   C2B26192  42.888  44.066   8.442
 1772POPC   C3B26193  42.832  43.986   7.984
 1772POPC   C4B26194  42.853  43.856   7.482
 1773POPC   NC326195  14.907   6.756   9.361
 1773POPC   PO426196  15.559   6.647   9.620
 1773POPC   GL126197  15.349   6.494   9.237
 1773POPC   GL226198  15.323   6.843   9.069
 1773POPC   C1A26199  15.478   6.470   8.797
 1773POPC   D2A26200  15.488   6.729   8.428
 1773POPC   C3A26201  15.301   6.634   8.043
 1773POPC   C4A26202  15.083   6.679   7.674
 1773POPC   C1B26203  15.030   6.750   8.715
 1773POPC   C2B26204  14.841   6.683   8.318
 1773POPC   C3B26205  14.708   6.853   7.964
 1773POPC   C4B26206  14.581   6.720   7.554
 1774POPC   NC326207   5.427  19.579   9.562
 1774POPC   PO426208   4.880  20.062   9.470
 1774POPC   GL126209   5.235  19.932   9.229
 1774POPC   GL226210   5.193  20.207   9.056
 1774POPC   C1A26211   5.393  19.675   8.873
 1774POPC   D2A26212   5.444  19.594   8.406
 1774POPC   C3A26213   5.340  19.884   8.045
 1774POPC   C4A26214   5.049  19.776   7.691
 1774POPC   C1B26215   4.953  20.137   8.692
 1774POPC   C2B26216   4.816  20.231   8.266
 1774POPC   C3B26217   4.960  20.271   7.864
 1774POPC   C4B26218   4.885  20.353   7.410
 1775POPC   NC326219   8.561  43.562   9.571
 1775POPC   PO426220   9.188  43.980   9.475
 1775POPC   GL126221   9.089  43.682   9.169
 1775POPC   GL226222   8.774  43.808   9.178
 1775POPC   C1A26223   8.997  43.626   8.730
 1775POPC   D2A26224   8.806  43.630   8.328
 1775POPC   C3A26225   9.021  43.923   8.084
 1775POPC   C4A26226   9.132  43.903   7.639
 1775POPC   C1B26227   8.573  43.878   8.822
 1775POPC   C2B26228   8.679  44.102   8.473
 1775POPC   C3B26229   8.540  44.078   8.057
 1775POPC   C4B26230   8.627  43.886   7.664
 1776POPC   NC326231  31.903   8.943   9.785
 1776POPC   PO426232  32.343   9.308   9.412
 1776POPC   GL126233  32.218   8.953   9.142
 1776POPC   GL226234  31.916   8.747   9.247
 1776POPC   C1A26235  32.395   8.914   8.750
 1776POPC   D2A26236  32.407   9.157   8.376
 1776POPC   C3A26237  32.414   8.881   8.019
 1776POPC   C4A26238  32.345   9.111   7.680
 1776POPC   C1B26239  31.902   8.736   8.808
 1776POPC   C2B26240  32.070   8.726   8.389
 1776POPC   C3B26241  31.948   9.031   8.079
 1776POPC   C4B26242  31.898   8.879   7.659
 1777POPC   NC326243  44.613  44.665   9.526
 1777POPC   PO426244   0.228  44.638   9.403
 1777POPC   GL126245  44.858  44.585   9.097
 1777POPC   GL226246  44.582  44.905   9.094
 1777POPC   C1A26247  44.623  44.564   8.705
 1777POPC   D2A26248  44.798  44.383   8.323
 1777POPC   C3A26249  44.801  44.489   7.888
 1777POPC   C4A26250  44.404  44.564   7.736
 1777POPC   C1B26251  44.953   0.026   8.858
 1777POPC   C2B26252  44.854  44.945   8.436
 1777POPC   C3B26253  44.562  44.866   8.131
 1777POPC   C4B26254  44.785   0.010   7.757
 1778POPC   NC326255  10.926  11.974   9.909
 1778POPC   PO426256  11.430  12.062   9.423
 1778POPC   GL126257  11.271  12.091   9.026
 1778POPC   GL226258  11.096  12.400   9.109
 1778POPC   C1A26259  11.405  11.997   8.633
 1778POPC   D2A26260  11.236  11.990   8.259
 1778POPC   C3A26261  11.504  12.043   7.893
 1778POPC   C4A26262  11.177  11.826   7.730
 1778POPC   C1B26263  11.425  12.486   8.784
 1778POPC   C2B26264  11.558  12.391   8.350
 1778POPC   C3B26265  11.228  12.440   8.028
 1778POPC   C4B26266  11.358  12.694   7.751
 1779POPC   NC326267  29.648  31.649   9.412
 1779POPC   PO426268  29.887  30.990   9.472
 1779POPC   GL126269  29.935  31.290   9.171
 1779POPC   GL226270  29.609  31.228   9.090
 1779POPC   C1A26271  30.013  31.616   8.853
 1779POPC   D2A26272  29.832  31.842   8.490
 1779POPC   C3A26273  29.967  31.714   8.080
 1779POPC   C4A26274  29.911  31.557   7.681
 1779POPC   C1B26275  29.661  31.300   8.686
 1779POPC   C2B26276  29.605  31.435   8.302
 1779POPC   C3B26277  29.525  31.361   7.917
 1779POPC   C4B26278  29.364  31.225   7.532
 1780POPC   NC326279  31.740  17.336   9.669
 1780POPC   PO426280  31.307  17.782   9.555
 1780POPC   GL126281  31.316  17.505   9.203
 1780POPC   GL226282  31.549  17.187   9.184
 1780POPC   C1A26283  31.317  17.574   8.774
 1780POPC   D2A26284  31.425  17.366   8.406
 1780POPC   C3A26285  31.230  17.392   8.013
 1780POPC   C4A26286  31.205  17.565   7.575
 1780POPC   C1B26287  31.799  17.518   8.947
 1780POPC   C2B26288  31.896  17.583   8.494
 1780POPC   C3B26289  31.769  17.500   8.054
 1780POPC   C4B26290  31.602  17.209   7.706
 1781POPC   NC326291  20.963   6.282   9.352
 1781POPC   PO426292  20.635   5.757   9.415
 1781POPC   GL126293  20.515   5.663   9.018
 1781POPC   GL226294  20.831   5.555   8.935
 1781POPC   C1A26295  20.313   5.770   8.636
 1781POPC   D2A26296  20.479   5.997   8.314
 1781POPC   C3A26297  20.325   5.820   7.987
 1781POPC   C4A26298  20.338   5.888   7.564
 1781POPC   C1B26299  20.834   5.967   8.693
 1781POPC   C2B26300  20.964   6.115   8.250
 1781POPC   C3B26301  20.793   5.976   7.817
 1781POPC   C4B26302  20.986   5.961   7.370
 1782POPC   NC326303  12.422  24.021   9.357
 1782POPC   PO426304  12.072  23.350   9.419
 1782POPC   GL126305  11.929  23.526   9.056
 1782POPC   GL226306  11.959  23.875   9.031
 1782POPC   C1A26307  12.088  23.513   8.651
 1782POPC   D2A26308  12.425  23.511   8.363
 1782POPC   C3A26309  12.240  23.594   7.964
 1782POPC   C4A26310  11.888  23.542   7.666
 1782POPC   C1B26311  12.299  23.995   8.734
 1782POPC   C2B26312  12.502  24.057   8.363
 1782POPC   C3B26313  12.304  24.099   7.954
 1782POPC   C4B26314  12.250  23.925   7.577
 1783POPC   NC326315   3.348  27.079   9.500
 1783POPC   PO426316   3.848  26.618   9.448
 1783POPC   GL126317   3.561  26.725   9.167
 1783POPC   GL226318   3.715  27.037   9.077
 1783POPC   C1A26319   3.564  26.663   8.729
 1783POPC   D2A26320   3.365  26.617   8.353
 1783POPC   C3A26321   3.635  26.674   8.008
 1783POPC   C4A26322   3.707  26.619   7.578
 1783POPC   C1B26323   3.868  27.103   8.641
 1783POPC   C2B26324   3.742  27.137   8.195
 1783POPC   C3B26325   3.629  27.095   7.720
 1783POPC   C4B26326   3.837  27.072   7.314
 1784POPC   NC326327  19.228   6.819   9.525
 1784POPC   PO426328  18.895   7.465   9.521
 1784POPC   GL126329  19.087   7.443   9.113
 1784POPC   GL226330  19.278   7.118   9.098
 1784POPC   C1A26331  18.994   7.444   8.661
 1784POPC   D2A26332  19.127   7.385   8.232
 1784POPC   C3A26333  19.055   7.083   7.903
 1784POPC   C4A26334  18.932   7.152   7.441
 1784POPC   C1B26335  19.336   7.067   8.669
 1784POPC   C2B26336  19.604   7.182   8.327
 1784POPC   C3B26337  19.566   7.467   7.972
 1784POPC   C4B26338  19.345   7.393   7.613
 1785POPC   NC326339  14.857  22.663   9.430
 1785POPC   PO426340  15.280  22.112   9.632
 1785POPC   GL126341  15.138  22.148   9.219
 1785POPC   GL226342  14.818  22.180   9.231
 1785POPC   C1A26343  15.342  22.128   8.819
 1785POPC   D2A26344  15.365  22.331   8.425
 1785POPC   C3A26345  15.241  22.190   8.035
 1785POPC   C4A26346  15.424  22.087   7.649
 1785POPC   C1B26347  14.859  22.345   8.811
 1785POPC   C2B26348  14.854  22.183   8.394
 1785POPC   C3B26349  14.777  21.995   8.020
 1785POPC   C4B26350  14.837  22.237   7.647
 1786POPC   NC326351  25.725  42.993   9.398
 1786POPC   PO426352  25.393  42.454   9.508
 1786POPC   GL126353  25.286  42.841   9.184
 1786POPC   GL226354  25.358  43.244   9.166
 1786POPC   C1A26355  25.296  43.000   8.736
 1786POPC   D2A26356  25.344  42.849   8.333
 1786POPC   C3A26357  25.117  43.063   8.012
 1786POPC   C4A26358  25.216  42.922   7.631
 1786POPC   C1B26359  25.558  43.440   8.778
 1786POPC   C2B26360  25.393  43.372   8.327
 1786POPC   C3B26361  25.514  43.347   7.871
 1786POPC   C4B26362  25.455  43.634   7.515
 1787POPC   NC326363  34.459   5.468   9.366
 1787POPC   PO426364  34.834   4.939   9.663
 1787POPC   GL126365  34.851   5.119   9.199
 1787POPC   GL226366  34.540   5.069   9.037
 1787POPC   C1A26367  34.845   5.240   8.700
 1787POPC   D2A26368  34.808   5.295   8.256
 1787POPC   C3A26369  34.667   5.006   7.988
 1787POPC   C4A26370  34.946   4.760   7.774
 1787POPC   C1B26371  34.263   4.910   8.716
 1787POPC   C2B26372  34.185   4.758   8.291
 1787POPC   C3B26373  34.143   5.002   7.921
 1787POPC   C4B26374  34.405   5.161   7.564
 1788POPC   NC326375  36.088  30.724   9.436
 1788POPC   PO426376  36.701  30.601   9.744
 1788POPC   GL126377  36.498  30.463   9.259
 1788POPC   GL226378  36.342  30.733   9.004
 1788POPC   C1A26379  36.216  30.308   8.860
 1788POPC   D2A26380  36.046  30.394   8.457
 1788POPC   C3A26381  36.319  30.531   8.158
 1788POPC   C4A26382  36.233  30.521   7.739
 1788POPC   C1B26383  36.056  30.836   8.727
 1788POPC   C2B26384  35.991  30.912   8.340
 1788POPC   C3B26385  35.728  30.927   8.022
 1788POPC   C4B26386  35.706  30.672   7.706
 1789POPC   NC326387  17.009  43.769   9.629
 1789POPC   PO426388  16.486  43.575   9.623
 1789POPC   GL126389  16.640  43.755   9.225
 1789POPC   GL226390  17.013  43.779   9.103
 1789POPC   C1A26391  16.559  43.758   8.774
 1789POPC   D2A26392  16.726  43.720   8.356
 1789POPC   C3A26393  16.439  43.828   8.032
 1789POPC   C4A26394  16.409  43.701   7.621
 1789POPC   C1B26395  17.025  44.022   8.691
 1789POPC   C2B26396  16.949  44.175   8.245
 1789POPC   C3B26397  16.883  43.930   7.861
 1789POPC   C4B26398  16.889  43.642   7.500
 1790POPC   NC326399  37.399  21.282   9.327
 1790POPC   PO426400  38.102  21.381   9.449
 1790POPC   GL126401  37.851  21.504   9.129
 1790POPC   GL226402  37.568  21.675   9.082
 1790POPC   C1A26403  37.978  21.545   8.759
 1790POPC   D2A26404  37.971  21.207   8.509
 1790POPC   C3A26405  38.176  21.364   8.152
 1790POPC   C4A26406  37.950  21.369   7.801
 1790POPC   C1B26407  37.492  21.440   8.679
 1790POPC   C2B26408  37.680  21.557   8.297
 1790POPC   C3B26409  37.543  21.730   7.968
 1790POPC   C4B26410  37.297  21.492   7.749
 1791POPC   NC326411   8.889  13.879   9.504
 1791POPC   PO426412   8.807  13.224   9.506
 1791POPC   GL126413   8.894  13.464   9.164
 1791POPC   GL226414   8.659  13.718   9.081
 1791POPC   C1A26415   9.112  13.546   8.798
 1791POPC   D2A26416   9.241  13.722   8.393
 1791POPC   C3A26417   9.120  13.518   7.958
 1791POPC   C4A26418   8.923  13.506   7.509
 1791POPC   C1B26419   8.682  13.820   8.653
 1791POPC   C2B26420   8.752  13.692   8.245
 1791POPC   C3B26421   8.690  13.820   7.820
 1791POPC   C4B26422   8.695  13.957   7.355
 1792POPC   NC326423  39.810  35.438   9.686
 1792POPC   PO426424  40.274  35.086   9.454
 1792POPC   GL126425  40.013  35.403   9.211
 1792POPC   GL226426  40.137  35.220   8.948
 1792POPC   C1A26427  39.769  35.510   8.812
 1792POPC   D2A26428  39.960  35.307   8.446
 1792POPC   C3A26429  39.982  35.412   8.024
 1792POPC   C4A26430  39.723  35.549   7.686
 1792POPC   C1B26431  39.776  34.973   8.791
 1792POPC   C2B26432  39.622  34.906   8.381
 1792POPC   C3B26433  39.950  34.894   8.097
 1792POPC   C4B26434  40.077  35.046   7.685
 1793POPC   NC326435  19.303  18.062   9.482
 1793POPC   PO426436  18.676  18.360   9.480
 1793POPC   GL126437  18.988  18.433   9.144
 1793POPC   GL226438  18.932  18.105   9.103
 1793POPC   C1A26439  19.302  18.356   8.836
 1793POPC   D2A26440  19.424  18.414   8.413
 1793POPC   C3A26441  19.311  18.118   8.100
 1793POPC   C4A26442  19.200  18.369   7.773
 1793POPC   C1B26443  18.708  18.295   8.762
 1793POPC   C2B26444  18.941  18.188   8.452
 1793POPC   C3B26445  18.808  18.171   8.068
 1793POPC   C4B26446  18.840  17.996   7.689
 1794POPC   NC326447  12.337   3.358   9.503
 1794POPC   PO426448  11.766   3.710   9.679
 1794POPC   GL126449  11.933   3.601   9.243
 1794POPC   GL226450  12.287   3.687   9.125
 1794POPC   C1A26451  11.997   3.356   8.838
 1794POPC   D2A26452  11.850   3.438   8.409
 1794POPC   C3A26453  12.006   3.241   8.049
 1794POPC   C4A26454  12.037   3.356   7.635
 1794POPC   C1B26455  12.507   3.524   8.759
 1794POPC   C2B26456  12.388   3.481   8.324
 1794POPC   C3B26457  12.450   3.516   7.879
 1794POPC   C4B26458  12.635   3.754   7.513
 1795POPC   NC326459   7.330  22.128   9.494
 1795POPC   PO426460   7.992  22.214   9.531
 1795POPC   GL126461   7.656  22.236   9.113
 1795POPC   GL226462   7.230  22.188   9.015
 1795POPC   C1A26463   7.552  22.202   8.651
 1795POPC   D2A26464   7.382  21.814   8.451
 1795POPC   C3A26465   7.277  21.874   8.043
 1795POPC   C4A26466   7.429  21.932   7.622
 1795POPC   C1B26467   7.169  22.546   8.736
 1795POPC   C2B26468   7.378  22.614   8.362
 1795POPC   C3B26469   7.493  22.366   7.972
 1795POPC   C4B26470   7.286  22.409   7.546
 1796POPC   NC326471  33.864  26.445   9.795
 1796POPC   PO426472  33.740  25.810   9.570
 1796POPC   GL126473  33.797  26.046   9.225
 1796POPC   GL226474  33.594  26.350   9.324
 1796POPC   C1A26475  33.794  25.864   8.798
 1796POPC   D2A26476  33.630  25.764   8.379
 1796POPC   C3A26477  33.910  25.817   8.048
 1796POPC   C4A26478  33.902  25.724   7.615
 1796POPC   C1B26479  33.650  26.371   8.868
 1796POPC   C2B26480  33.744  26.265   8.448
 1796POPC   C3B26481  33.541  26.176   8.053
 1796POPC   C4B26482  33.574  26.112   7.626
 1797POPC   NC326483   2.555  42.152   9.544
 1797POPC   PO426484   2.787  42.683   9.716
 1797POPC   GL126485   2.921  42.290   9.246
 1797POPC   GL226486   3.169  42.029   9.128
 1797POPC   C1A26487   2.854  42.328   8.741
 1797POPC   D2A26488   2.948  42.499   8.287
 1797POPC   C3A26489   2.629  42.399   7.945
 1797POPC   C4A26490   2.400  41.999   7.885
 1797POPC   C1B26491   3.051  41.863   8.683
 1797POPC   C2B26492   2.988  41.948   8.224
 1797POPC   C3B26493   3.054  42.158   7.837
 1797POPC   C4B26494   3.089  41.981   7.412
 1798POPC   NC326495  25.758  14.622   9.578
 1798POPC   PO426496  26.136  14.112   9.732
 1798POPC   GL126497  26.180  14.238   9.279
 1798POPC   GL226498  25.825  14.284   9.143
 1798POPC   C1A26499  26.223  14.368   8.829
 1798POPC   D2A26500  25.912  14.359   8.582
 1798POPC   C3A26501  25.943  14.262   8.183
 1798POPC   C4A26502  25.825  14.528   7.848
 1798POPC   C1B26503  25.922  13.926   8.889
 1798POPC   C2B26504  25.817  13.838   8.451
 1798POPC   C3B26505  25.618  13.872   8.047
 1798POPC   C4B26506  25.864  14.034   7.729
 1799POPC   NC326507  24.922  35.912   9.593
 1799POPC   PO426508  25.298  36.256   9.108
 1799POPC   GL126509  25.296  35.826   9.042
 1799POPC   GL226510  24.950  35.679   9.118
 1799POPC   C1A26511  25.442  35.807   8.622
 1799POPC   D2A26512  25.333  36.221   8.462
 1799POPC   C3A26513  25.370  36.283   8.037
 1799POPC   C4A26514  25.084  36.408   7.739
 1799POPC   C1B26515  24.898  35.875   8.742
 1799POPC   C2B26516  24.987  35.746   8.374
 1799POPC   C3B26517  24.876  35.776   7.975
 1799POPC   C4B26518  25.162  35.801   7.680
 1800POPC   NC326519  26.293  34.678   9.555
 1800POPC   PO426520  25.859  34.238   9.406
 1800POPC   GL126521  26.166  34.457   9.096
 1800POPC   GL226522  26.180  34.831   9.097
 1800POPC   C1A26523  26.202  34.599   8.634
 1800POPC   D2A26524  26.050  34.316   8.363
 1800POPC   C3A26525  26.166  34.333   7.981
 1800POPC   C4A26526  25.943  34.342   7.633
 1800POPC   C1B26527  26.365  35.082   8.798
 1800POPC   C2B26528  26.150  35.119   8.431
 1800POPC   C3B26529  26.192  34.840   8.104
 1800POPC   C4B26530  26.128  34.803   7.673
 1801POPC   NC326531  42.009  14.111   9.866
 1801POPC   PO426532  41.556  14.391   9.389
 1801POPC   GL126533  41.633  14.425   9.008
 1801POPC   GL226534  41.648  14.785   8.981
 1801POPC   C1A26535  41.391  14.437   8.656
 1801POPC   D2A26536  41.146  14.473   8.310
 1801POPC   C3A26537  41.290  14.233   7.985
 1801POPC   C4A26538  41.635  14.349   7.714
 1801POPC   C1B26539  41.842  14.659   8.606
 1801POPC   C2B26540  41.690  14.539   8.210
 1801POPC   C3B26541  41.777  14.795   7.913
 1801POPC   C4B26542  41.903  14.773   7.530
 1802POPC   NC326543  22.686  39.423   9.463
 1802POPC   PO426544  22.860  38.734   9.335
 1802POPC   GL126545  22.847  39.102   9.098
 1802POPC   GL226546  23.133  39.314   8.989
 1802POPC   C1A26547  22.744  39.134   8.681
 1802POPC   D2A26548  22.889  38.988   8.285
 1802POPC   C3A26549  22.892  39.365   8.049
 1802POPC   C4A26550  22.735  39.410   7.643
 1802POPC   C1B26551  23.266  39.182   8.592
 1802POPC   C2B26552  23.357  39.198   8.162
 1802POPC   C3B26553  23.208  39.084   7.772
 1802POPC   C4B26554  23.399  39.141   7.376
 1803POPC   NC326555  21.746  35.535   9.433
 1803POPC   PO426556  21.127  35.188   9.431
 1803POPC   GL126557  21.370  35.383   9.122
 1803POPC   GL226558  21.024  35.417   8.977
 1803POPC   C1A26559  21.695  35.149   8.849
 1803POPC   D2A26560  21.639  34.869   8.467
 1803POPC   C3A26561  21.661  35.065   8.048
 1803POPC   C4A26562  21.686  35.511   7.857
 1803POPC   C1B26563  21.240  35.238   8.658
 1803POPC   C2B26564  21.527  35.412   8.398
 1803POPC   C3B26565  21.254  35.376   8.069
 1803POPC   C4B26566  21.044  35.336   7.695
 1804POPC   NC326567  11.931  21.246   9.655
 1804POPC   PO426568  12.476  21.291   9.230
 1804POPC   GL126569  12.165  21.434   9.019
 1804POPC   GL226570  11.871  21.460   9.155
 1804POPC   C1A26571  12.097  21.371   8.596
 1804POPC   D2A26572  12.346  21.219   8.261
 1804POPC   C3A26573  12.185  21.360   7.849
 1804POPC   C4A26574  12.360  21.239   7.445
 1804POPC   C1B26575  11.685  21.161   8.841
 1804POPC   C2B26576  11.668  21.175   8.379
 1804POPC   C3B26577  11.745  21.003   7.965
 1804POPC   C4B26578  11.864  21.061   7.516
 1805POPC   NC326579   3.653   5.988   9.687
 1805POPC   PO426580   3.208   5.614   9.449
 1805POPC   GL126581   3.392   5.802   9.150
 1805POPC   GL226582   3.459   6.107   9.153
 1805POPC   C1A26583   3.537   5.758   8.782
 1805POPC   D2A26584   3.334   5.977   8.469
 1805POPC   C3A26585   3.318   5.770   8.079
 1805POPC   C4A26586   3.559   5.965   7.822
 1805POPC   C1B26587   3.782   6.210   8.789
 1805POPC   C2B26588   3.997   6.288   8.357
 1805POPC   C3B26589   3.864   6.396   7.888
 1805POPC   C4B26590   3.874   6.184   7.448
 1806POPC   NC326591  37.851  19.048   9.567
 1806POPC   PO426592  37.562  18.489   9.484
 1806POPC   GL126593  37.414  18.958   9.289
 1806POPC   GL226594  37.724  19.185   9.101
 1806POPC   C1A26595  37.269  19.219   8.915
 1806POPC   D2A26596  37.539  19.202   8.546
 1806POPC   C3A26597  37.339  19.043   8.145
 1806POPC   C4A26598  37.274  19.075   7.704
 1806POPC   C1B26599  37.991  19.375   8.738
 1806POPC   C2B26600  38.015  19.222   8.290
 1806POPC   C3B26601  38.102  19.278   7.840
 1806POPC   C4B26602  38.134  19.203   7.349
 1807POPC   NC326603   8.852  42.616   9.676
 1807POPC   PO426604   9.233  42.136   9.606
 1807POPC   GL126605   8.975  42.302   9.279
 1807POPC   GL226606   8.698  42.097   9.135
 1807POPC   C1A26607   9.092  42.418   8.897
 1807POPC   D2A26608   9.238  42.368   8.506
 1807POPC   C3A26609   9.165  42.657   8.192
 1807POPC   C4A26610   9.299  42.477   7.794
 1807POPC   C1B26611   8.628  42.279   8.714
 1807POPC   C2B26612   8.685  42.496   8.306
 1807POPC   C3B26613   8.805  42.344   7.866
 1807POPC   C4B26614   8.649  42.064   7.486
 1808POPC   NC326615   1.315  28.590   9.973
 1808POPC   PO426616   1.390  29.116   9.520
 1808POPC   GL126617   1.253  29.157   9.129
 1808POPC   GL226618   1.595  29.125   9.014
 1808POPC   C1A26619   0.967  29.066   8.777
 1808POPC   D2A26620   1.049  29.085   8.351
 1808POPC   C3A26621   1.071  28.850   7.957
 1808POPC   C4A26622   1.323  28.937   7.566
 1808POPC   C1B26623   1.413  29.305   8.673
 1808POPC   C2B26624   1.550  29.260   8.327
 1808POPC   C3B26625   1.385  29.243   7.973
 1808POPC   C4B26626   1.197  29.562   7.744
 1809POPC   NC326627  38.682  14.794   9.426
 1809POPC   PO426628  38.494  15.426   9.490
 1809POPC   GL126629  38.381  15.353   9.081
 1809POPC   GL226630  38.411  14.978   8.998
 1809POPC   C1A26631  38.635  15.320   8.664
 1809POPC   D2A26632  38.567  14.977   8.367
 1809POPC   C3A26633  38.668  15.195   8.008
 1809POPC   C4A26634  38.667  15.414   7.656
 1809POPC   C1B26635  38.161  15.211   8.665
 1809POPC   C2B26636  38.236  15.375   8.242
 1809POPC   C3B26637  38.184  15.251   7.825
 1809POPC   C4B26638  38.396  14.878   7.738
 1810POPC   NC326639  39.915  13.867   9.507
 1810POPC   PO426640  40.485  13.668   9.239
 1810POPC   GL126641  40.090  13.464   9.137
 1810POPC   GL226642  39.803  13.675   9.049
 1810POPC   C1A26643  40.094  13.359   8.691
 1810POPC   D2A26644  40.350  13.444   8.338
 1810POPC   C3A26645  40.180  13.662   8.025
 1810POPC   C4A26646  40.046  13.605   7.656
 1810POPC   C1B26647  39.612  13.550   8.686
 1810POPC   C2B26648  39.770  13.471   8.263
 1810POPC   C3B26649  39.631  13.388   7.824
 1810POPC   C4B26650  39.663  13.524   7.329
 1811POPC   NC326651  24.469  25.629  10.133
 1811POPC   PO426652  24.463  25.137   9.625
 1811POPC   GL126653  24.441  25.310   9.234
 1811POPC   GL226654  24.721  25.487   9.194
 1811POPC   C1A26655  24.567  25.208   8.804
 1811POPC   D2A26656  24.354  25.291   8.427
 1811POPC   C3A26657  24.575  25.271   8.073
 1811POPC   C4A26658  24.565  25.275   7.667
 1811POPC   C1B26659  24.881  25.618   8.827
 1811POPC   C2B26660  24.882  25.441   8.443
 1811POPC   C3B26661  24.910  25.650   8.072
 1811POPC   C4B26662  24.942  25.611   7.692
 1812POPC   NC326663   1.594   1.087   9.520
 1812POPC   PO426664   1.005   1.342   9.338
 1812POPC   GL126665   1.397   1.322   9.117
 1812POPC   GL226666   1.302   0.988   9.068
 1812POPC   C1A26667   1.555   1.237   8.698
 1812POPC   D2A26668   1.198   1.143   8.421
 1812POPC   C3A26669   1.146   1.416   8.083
 1812POPC   C4A26670   0.954   1.382   7.713
 1812POPC   C1B26671   1.423   0.732   8.684
 1812POPC   C2B26672   1.292   0.673   8.254
 1812POPC   C3B26673   1.208   0.924   7.869
 1812POPC   C4B26674   1.356   0.869   7.427
 1813POPC   NC326675  21.501  34.873   9.513
 1813POPC   PO426676  21.026  34.349   9.368
 1813POPC   GL126677  21.333  34.561   9.125
 1813POPC   GL226678  21.280  34.887   9.042
 1813POPC   C1A26679  21.617  34.459   8.790
 1813POPC   D2A26680  21.484  34.308   8.424
 1813POPC   C3A26681  21.533  34.557   8.067
 1813POPC   C4A26682  21.640  34.672   7.648
 1813POPC   C1B26683  21.179  34.704   8.660
 1813POPC   C2B26684  21.017  34.500   8.329
 1813POPC   C3B26685  21.087  34.335   7.945
 1813POPC   C4B26686  20.861  34.436   7.575
 1814POPC   NC326687   0.377  12.430   9.404
 1814POPC   PO426688   0.672  12.831   9.823
 1814POPC   GL126689   0.584  12.970   9.297
 1814POPC   GL226690   0.383  12.768   9.050
 1814POPC   C1A26691   0.648  13.124   8.824
 1814POPC   D2A26692   0.529  13.227   8.403
 1814POPC   C3A26693   0.779  13.119   8.044
 1814POPC   C4A26694   0.531  12.863   7.788
 1814POPC   C1B26695   0.172  12.926   8.696
 1814POPC   C2B26696   0.015  13.055   8.321
 1814POPC   C3B26697   0.057  12.799   8.002
 1814POPC   C4B26698   0.082  12.610   7.625
 1815POPC   NC326699  34.728   7.840   9.293
 1815POPC   PO426700  34.569   8.346   9.703
 1815POPC   GL126701  34.538   8.343   9.240
 1815POPC   GL226702  34.904   8.310   9.185
 1815POPC   C1A26703  34.391   8.200   8.804
 1815POPC   D2A26704  34.255   7.989   8.419
 1815POPC   C3A26705  34.330   8.258   8.076
 1815POPC   C4A26706  34.370   8.237   7.666
 1815POPC   C1B26707  34.918   8.289   8.762
 1815POPC   C2B26708  34.773   8.011   8.470
 1815POPC   C3B26709  34.775   8.023   8.046
 1815POPC   C4B26710  34.848   8.383   7.817
 1816POPC   NC326711   0.266  37.098   9.575
 1816POPC   PO426712   0.659  36.580   9.362
 1816POPC   GL126713   0.385  36.847   9.123
 1816POPC   GL226714   0.428  37.234   9.123
 1816POPC   C1A26715   0.384  36.769   8.692
 1816POPC   D2A26716   0.578  36.931   8.313
 1816POPC   C3A26717   0.389  36.746   7.983
 1816POPC   C4A26718   0.708  36.594   7.720
 1816POPC   C1B26719   0.456  37.256   8.706
 1816POPC   C2B26720   0.141  37.158   8.373
 1816POPC   C3B26721   0.286  37.253   7.958
 1816POPC   C4B26722   0.361  37.021   7.562
 1817POPC   NC326723  25.625  36.541   9.260
 1817POPC   PO426724  24.971  36.749   9.478
 1817POPC   GL126725  25.188  36.803   9.097
 1817POPC   GL226726  25.437  37.018   9.176
 1817POPC   C1A26727  25.362  36.795   8.666
 1817POPC   D2A26728  25.177  36.709   8.272
 1817POPC   C3A26729  25.345  36.824   7.880
 1817POPC   C4A26730  25.083  36.915   7.550
 1817POPC   C1B26731  25.294  37.280   8.860
 1817POPC   C2B26732  25.470  37.400   8.476
 1817POPC   C3B26733  25.400  37.267   8.114
 1817POPC   C4B26734  25.351  37.345   7.713
 1818POPC   NC326735  39.157  37.857   9.588
 1818POPC   PO426736  39.238  37.195   9.501
 1818POPC   GL126737  39.101  37.539   9.189
 1818POPC   GL226738  39.406  37.712   9.161
 1818POPC   C1A26739  39.137  37.672   8.720
 1818POPC   D2A26740  39.293  37.570   8.270
 1818POPC   C3A26741  39.250  37.790   7.880
 1818POPC   C4A26742  38.997  37.769   7.493
 1818POPC   C1B26743  39.558  37.970   8.836
 1818POPC   C2B26744  39.467  38.047   8.428
 1818POPC   C3B26745  39.680  38.118   8.075
 1818POPC   C4B26746  39.675  37.999   7.671
 1819POPC   NC326747  27.946  39.996   9.495
 1819POPC   PO426748  28.579  39.833   9.418
 1819POPC   GL126749  28.333  40.129   9.099
 1819POPC   GL226750  27.992  40.268   9.080
 1819POPC   C1A26751  28.215  40.166   8.642
 1819POPC   D2A26752  28.237  39.956   8.250
 1819POPC   C3A26753  28.480  40.194   8.012
 1819POPC   C4A26754  28.227  40.474   7.829
 1819POPC   C1B26755  27.795  39.934   8.825
 1819POPC   C2B26756  27.736  39.952   8.377
 1819POPC   C3B26757  27.835  40.237   8.027
 1819POPC   C4B26758  27.857  40.203   7.550
 1820POPC   NC326759  28.453  17.012   9.587
 1820POPC   PO426760  28.391  16.376   9.494
 1820POPC   GL126761  28.375  16.709   9.164
 1820POPC   GL226762  28.137  17.013   9.180
 1820POPC   C1A26763  28.471  16.574   8.756
 1820POPC   D2A26764  28.228  16.641   8.408
 1820POPC   C3A26765  28.403  16.731   8.064
 1820POPC   C4A26766  28.296  16.693   7.684
 1820POPC   C1B26767  28.233  17.030   8.754
 1820POPC   C2B26768  28.264  17.144   8.342
 1820POPC   C3B26769  28.034  17.077   7.983
 1820POPC   C4B26770  28.106  17.149   7.566
 1821POPC   NC326771  12.108  42.923   9.580
 1821POPC   PO426772  12.615  43.130   9.458
 1821POPC   GL126773  12.280  43.107   9.110
 1821POPC   GL226774  11.940  43.234   9.182
 1821POPC   C1A26775  12.157  43.046   8.650
 1821POPC   D2A26776  12.085  42.819   8.245
 1821POPC   C3A26777  12.097  43.047   7.842
 1821POPC   C4A26778  12.490  43.198   7.672
 1821POPC   C1B26779  11.733  43.320   8.765
 1821POPC   C2B26780  11.665  43.107   8.376
 1821POPC   C3B26781  11.637  42.838   8.006
 1821POPC   C4B26782  11.506  42.883   7.608
 1822POPC   NC326783  31.860   9.232   9.353
 1822POPC   PO426784  31.402   8.843   9.775
 1822POPC   GL126785  31.431   8.841   9.246
 1822POPC   GL226786  31.566   9.076   8.974
 1822POPC   C1A26787  31.351   8.680   8.779
 1822POPC   D2A26788  31.576   8.833   8.408
 1822POPC   C3A26789  31.556   8.681   7.986
 1822POPC   C4A26790  31.396   8.833   7.575
 1822POPC   C1B26791  31.787   9.287   8.625
 1822POPC   C2B26792  31.675   9.461   8.208
 1822POPC   C3B26793  31.541   9.226   7.847
 1822POPC   C4B26794  31.658   9.224   7.376
 1823POPC   NC326795  11.721  29.743   9.304
 1823POPC   PO426796  12.306  30.117   9.582
 1823POPC   GL126797  12.327  30.108   9.123
 1823POPC   GL226798  11.989  30.102   9.074
 1823POPC   C1A26799  12.295  29.892   8.684
 1823POPC   D2A26800  12.028  29.979   8.289
 1823POPC   C3A26801  12.184  29.943   7.891
 1823POPC   C4A26802  12.467  29.823   7.585
 1823POPC   C1B26803  11.778  29.957   8.718
 1823POPC   C2B26804  11.795  29.529   8.515
 1823POPC   C3B26805  11.922  29.511   8.094
 1823POPC   C4B26806  11.712  29.739   7.790
 1824POPC   NC326807   3.950  30.211   9.782
 1824POPC   PO426808   3.362  30.402   9.419
 1824POPC   GL126809   3.426  30.612   8.986
 1824POPC   GL226810   3.706  30.534   8.791
 1824POPC   C1A26811   3.225  30.691   8.585
 1824POPC   D2A26812   3.199  30.563   8.128
 1824POPC   C3A26813   3.479  30.785   7.835
 1824POPC   C4A26814   3.732  31.172   7.859
 1824POPC   C1B26815   3.986  30.372   8.519
 1824POPC   C2B26816   3.941  30.387   8.118
 1824POPC   C3B26817   3.619  30.307   7.850
 1824POPC   C4B26818   3.547  30.415   7.451
 1825POPC   NC326819  28.576  15.359   9.561
 1825POPC   PO426820  28.081  14.950   9.533
 1825POPC   GL126821  28.216  15.209   9.212
 1825POPC   GL226822  28.509  15.020   9.182
 1825POPC   C1A26823  28.266  15.157   8.751
 1825POPC   D2A26824  28.117  14.916   8.415
 1825POPC   C3A26825  28.205  15.079   8.000
 1825POPC   C4A26826  28.069  15.368   7.680
 1825POPC   C1B26827  28.741  14.992   8.802
 1825POPC   C2B26828  28.615  15.038   8.367
 1825POPC   C3B26829  28.686  15.248   7.956
 1825POPC   C4B26830  28.861  15.122   7.554
 1826POPC   NC326831  17.094   8.255   9.494
 1826POPC   PO426832  17.735   7.926   9.636
 1826POPC   GL126833  17.651   8.009   9.199
 1826POPC   GL226834  17.305   8.045   9.091
 1826POPC   C1A26835  17.765   8.085   8.783
 1826POPC   D2A26836  17.902   8.312   8.434
 1826POPC   C3A26837  17.807   8.105   8.045
 1826POPC   C4A26838  17.812   8.322   7.665
 1826POPC   C1B26839  17.339   8.370   8.773
 1826POPC   C2B26840  17.395   8.208   8.391
 1826POPC   C3B26841  17.352   8.326   7.993
 1826POPC   C4B26842  17.379   8.015   7.680
 1827POPC   NC326843   6.476   7.204   9.480
 1827POPC   PO426844   5.863   7.660   9.444
 1827POPC   GL126845   5.949   7.410   9.052
 1827POPC   GL226846   6.239   7.162   8.991
 1827POPC   C1A26847   5.770   7.424   8.634
 1827POPC   D2A26848   5.648   7.703   8.277
 1827POPC   C3A26849   5.857   7.633   7.873
 1827POPC   C4A26850   5.754   7.328   7.559
 1827POPC   C1B26851   6.177   7.116   8.554
 1827POPC   C2B26852   5.882   7.117   8.213
 1827POPC   C3B26853   6.104   7.118   7.835
 1827POPC   C4B26854   6.226   7.259   7.385
 1828POPC   NC326855  21.629   3.347   9.439
 1828POPC   PO426856  21.234   3.904   9.485
 1828POPC   GL126857  21.344   3.657   9.100
 1828POPC   GL226858  21.236   3.297   9.109
 1828POPC   C1A26859  21.432   3.673   8.645
 1828POPC   D2A26860  21.623   3.914   8.323
 1828POPC   C3A26861  21.632   3.726   7.924
 1828POPC   C4A26862  21.571   3.818   7.502
 1828POPC   C1B26863  21.133   3.262   8.672
 1828POPC   C2B26864  21.337   3.273   8.255
 1828POPC   C3B26865  21.219   3.341   7.810
 1828POPC   C4B26866  21.450   3.329   7.420
 1829POPC   NC326867  26.907  31.616   9.508
 1829POPC   PO426868  27.215  30.995   9.446
 1829POPC   GL126869  27.099  31.341   9.127
 1829POPC   GL226870  26.731  31.425   9.027
 1829POPC   C1A26871  27.091  31.608   8.733
 1829POPC   D2A26872  26.753  31.546   8.427
 1829POPC   C3A26873  26.737  31.275   8.087
 1829POPC   C4A26874  26.896  31.424   7.691
 1829POPC   C1B26875  26.566  31.828   8.809
 1829POPC   C2B26876  26.489  31.977   8.349
 1829POPC   C3B26877  26.417  31.688   7.985
 1829POPC   C4B26878  26.473  31.611   7.509
 1830POPC   NC326879  34.364  30.607   9.598
 1830POPC   PO426880  34.970  30.425   9.366
 1830POPC   GL126881  34.648  30.752   9.202
 1830POPC   GL226882  34.523  30.483   9.079
 1830POPC   C1A26883  34.374  30.907   8.815
 1830POPC   D2A26884  34.559  30.938   8.374
 1830POPC   C3A26885  34.399  30.886   7.935
 1830POPC   C4A26886  34.458  30.955   7.455
 1830POPC   C1B26887  34.724  30.543   8.673
 1830POPC   C2B26888  34.530  30.416   8.258
 1830POPC   C3B26889  34.526  30.400   7.775
 1830POPC   C4B26890  34.778  30.509   7.401
 1831POPC   NC326891  26.901  29.821   9.410
 1831POPC   PO426892  27.627  29.936   9.490
 1831POPC   GL126893  27.577  29.914   9.118
 1831POPC   GL226894  27.287  29.736   9.079
 1831POPC   C1A26895  27.911  30.004   8.819
 1831POPC   D2A26896  28.071  29.909   8.381
 1831POPC   C3A26897  27.756  29.996   8.054
 1831POPC   C4A26898  27.457  30.248   7.825
 1831POPC   C1B26899  27.559  29.664   8.690
 1831POPC   C2B26900  27.750  29.504   8.339
 1831POPC   C3B26901  27.603  29.528   7.952
 1831POPC   C4B26902  27.414  29.747   7.648
 1832POPC   NC326903  32.350  16.307  10.114
 1832POPC   PO426904  32.237  15.882   9.548
 1832POPC   GL126905  32.219  15.963   9.121
 1832POPC   GL226906  31.947  15.746   9.041
 1832POPC   C1A26907  32.416  15.930   8.698
 1832POPC   D2A26908  32.409  15.887   8.234
 1832POPC   C3A26909  32.171  16.246   8.061
 1832POPC   C4A26910  32.298  16.245   7.646
 1832POPC   C1B26911  31.871  16.012   8.718
 1832POPC   C2B26912  31.711  15.887   8.331
 1832POPC   C3B26913  31.947  15.809   7.963
 1832POPC   C4B26914  32.186  15.730   7.616
 1833POPC   NC326915   6.761   4.751   9.771
 1833POPC   PO426916   6.619   5.415   9.906
 1833POPC   GL126917   6.614   5.338   9.422
 1833POPC   GL226918   6.693   5.015   9.326
 1833POPC   C1A26919   6.547   5.406   8.956
 1833POPC   D2A26920   6.602   5.367   8.473
 1833POPC   C3A26921   6.486   5.462   8.010
 1833POPC   C4A26922   6.530   5.267   7.576
 1833POPC   C1B26923   6.522   4.855   8.947
 1833POPC   C2B26924   6.504   4.836   8.518
 1833POPC   C3B26925   6.582   4.883   8.075
 1833POPC   C4B26926   6.547   4.732   7.668
 1834POPC   NC326927  17.123   9.886   9.529
 1834POPC   PO426928  17.614   9.438   9.537
 1834POPC   GL126929  17.468   9.653   9.180
 1834POPC   GL226930  17.172   9.491   9.203
 1834POPC   C1A26931  17.309   9.783   8.764
 1834POPC   D2A26932  17.457  10.035   8.411
 1834POPC   C3A26933  17.676   9.978   8.036
 1834POPC   C4A26934  17.796   9.647   7.781
 1834POPC   C1B26935  17.051   9.344   8.808
 1834POPC   C2B26936  17.192   9.395   8.378
 1834POPC   C3B26937  17.275   9.656   8.018
 1834POPC   C4B26938  17.344   9.582   7.560
 1835POPC   NC326939  35.217  23.072   9.506
 1835POPC   PO426940  35.861  23.174   9.416
 1835POPC   GL126941  35.555  23.167   9.057
 1835POPC   GL226942  35.168  23.107   9.013
 1835POPC   C1A26943  35.531  22.821   8.760
 1835POPC   D2A26944  35.666  22.612   8.381
 1835POPC   C3A26945  35.469  22.890   8.039
 1835POPC   C4A26946  35.638  23.031   7.657
 1835POPC   C1B26947  35.036  22.703   8.780
 1835POPC   C2B26948  35.164  22.599   8.338
 1835POPC   C3B26949  35.057  22.608   7.905
 1835POPC   C4B26950  35.111  22.927   7.613
 1836POPC   NC326951  27.018   1.655   9.908
 1836POPC   PO426952  26.725   2.246   9.601
 1836POPC   GL126953  26.725   2.147   9.189
 1836POPC   GL226954  27.009   2.343   9.149
 1836POPC   C1A26955  26.765   1.981   8.780
 1836POPC   D2A26956  26.664   2.133   8.384
 1836POPC   C3A26957  26.732   1.805   8.073
 1836POPC   C4A26958  26.517   1.729   7.687
 1836POPC   C1B26959  27.125   2.333   8.721
 1836POPC   C2B26960  27.168   2.099   8.350
 1836POPC   C3B26961  27.023   2.261   7.964
 1836POPC   C4B26962  26.844   2.087   7.595
 1837POPC   NC326963   4.049  21.724   9.411
 1837POPC   PO426964   4.152  21.083   9.631
 1837POPC   GL126965   4.272  21.260   9.219
 1837POPC   GL226966   3.917  21.334   9.126
 1837POPC   C1A26967   4.491  21.379   8.802
 1837POPC   D2A26968   4.697  21.592   8.429
 1837POPC   C3A26969   4.467  21.428   8.063
 1837POPC   C4A26970   4.333  21.637   7.703
 1837POPC   C1B26971   4.052  21.122   8.764
 1837POPC   C2B26972   4.288  21.090   8.410
 1837POPC   C3B26973   4.073  21.030   8.033
 1837POPC   C4B26974   3.925  21.338   7.733
 1838POPC   NC326975  33.961  31.454   9.422
 1838POPC   PO426976  33.346  31.107   9.312
 1838POPC   GL126977  33.671  31.274   9.053
 1838POPC   GL226978  33.959  31.039   9.096
 1838POPC   C1A26979  33.953  31.536   8.776
 1838POPC   D2A26980  34.120  31.886   8.524
 1838POPC   C3A26981  33.813  31.808   8.274
 1838POPC   C4A26982  33.828  31.581   7.910
 1838POPC   C1B26983  33.786  30.946   8.700
 1838POPC   C2B26984  33.813  31.160   8.322
 1838POPC   C3B26985  33.887  31.024   7.926
 1838POPC   C4B26986  33.549  31.193   7.719
 1839POPC   NC326987  28.275  29.004   9.584
 1839POPC   PO426988  28.384  29.639   9.559
 1839POPC   GL126989  28.358  29.300   9.174
 1839POPC   GL226990  28.102  29.099   9.113
 1839POPC   C1A26991  28.519  29.228   8.756
 1839POPC   D2A26992  28.715  29.063   8.383
 1839POPC   C3A26993  28.664  29.295   8.008
 1839POPC   C4A26994  28.502  29.155   7.632
 1839POPC   C1B26995  27.990  28.765   8.843
 1839POPC   C2B26996  28.097  28.942   8.468
 1839POPC   C3B26997  28.245  28.956   8.051
 1839POPC   C4B26998  27.991  29.001   7.677
 1840POPC   NC326999   1.369  12.452   9.447
 1840POPC   PO427000   1.122  13.101   9.284
 1840POPC   GL127001   1.244  12.785   9.112
 1840POPC   GL227002   0.919  12.602   9.280
 1840POPC   C1A27003   1.347  12.668   8.707
 1840POPC   D2A27004   1.671  12.756   8.425
 1840POPC   C3A27005   1.533  12.629   8.029
 1840POPC   C4A27006   1.566  12.703   7.595
 1840POPC   C1B27007   0.853  12.658   8.862
 1840POPC   C2B27008   0.874  12.776   8.450
 1840POPC   C3B27009   0.989  12.636   8.030
 1840POPC   C4B27010   1.011  12.784   7.612
 1841POPC   NC327011   0.279  14.147   9.615
 1841POPC   PO427012   0.805  14.566   9.458
 1841POPC   GL127013   0.571  14.296   9.211
 1841POPC   GL227014   0.250  14.462   9.187
 1841POPC   C1A27015   0.535  14.161   8.801
 1841POPC   D2A27016   0.661  14.378   8.413
 1841POPC   C3A27017   0.516  14.206   8.014
 1841POPC   C4A27018   0.668  14.220   7.593
 1841POPC   C1B27019   0.480  14.665   8.832
 1841POPC   C2B27020   0.304  14.785   8.440
 1841POPC   C3B27021   0.374  14.958   8.068
 1841POPC   C4B27022   0.563  14.683   7.802
 1842POPC   NC327023   9.969  16.020   9.830
 1842POPC   PO427024   9.409  15.827   9.469
 1842POPC   GL127025   9.486  15.976   9.073
 1842POPC   GL227026   9.338  16.290   9.002
 1842POPC   C1A27027   9.874  15.909   8.814
 1842POPC   D2A27028   9.781  15.909   8.405
 1842POPC   C3A27029  10.085  16.041   8.127
 1842POPC   C4A27030   9.838  15.909   7.809
 1842POPC   C1B27031   9.709  16.387   8.736
 1842POPC   C2B27032   9.882  16.495   8.337
 1842POPC   C3B27033   9.787  16.422   7.903
 1842POPC   C4B27034   9.769  16.329   7.472
 1843POPC   NC327035  41.974  26.646   9.700
 1843POPC   PO427036  41.359  26.763   9.616
 1843POPC   GL127037  41.476  26.802   9.167
 1843POPC   GL227038  41.760  26.625   8.991
 1843POPC   C1A27039  41.457  26.933   8.738
 1843POPC   D2A27040  41.612  26.711   8.357
 1843POPC   C3A27041  41.478  26.863   7.950
 1843POPC   C4A27042  41.512  27.098   7.545
 1843POPC   C1B27043  41.970  26.447   8.642
 1843POPC   C2B27044  42.110  26.385   8.232
 1843POPC   C3B27045  41.820  26.462   7.917
 1843POPC   C4B27046  41.763  26.666   7.532
 1844POPC   NC327047  24.935  21.883   9.548
 1844POPC   PO427048  24.311  22.191   9.692
 1844POPC   GL127049  24.372  22.059   9.258
 1844POPC   GL227050  24.615  21.816   9.166
 1844POPC   C1A27051  24.415  22.212   8.827
 1844POPC   D2A27052  24.699  22.293   8.443
 1844POPC   C3A27053  24.514  22.349   8.032
 1844POPC   C4A27054  24.256  22.587   7.729
 1844POPC   C1B27055  24.765  21.843   8.753
 1844POPC   C2B27056  24.424  21.856   8.450
 1844POPC   C3B27057  24.397  21.836   8.034
 1844POPC   C4B27058  24.202  22.073   7.730
 1845POPC   NC327059  24.469  11.437   9.583
 1845POPC   PO427060  24.675  10.801   9.355
 1845POPC   GL127061  24.673  11.191   9.136
 1845POPC   GL227062  24.372  11.382   9.091
 1845POPC   C1A27063  24.864  11.396   8.778
 1845POPC   D2A27064  24.882  11.635   8.381
 1845POPC   C3A27065  24.986  11.336   8.068
 1845POPC   C4A27066  24.857  11.125   7.674
 1845POPC   C1B27067  24.337  11.312   8.682
 1845POPC   C2B27068  24.551  11.215   8.327
 1845POPC   C3B27069  24.491  11.416   7.935
 1845POPC   C4B27070  24.251  11.749   7.776
 1846POPC   NC327071   2.332  42.823   9.387
 1846POPC   PO427072   2.002  43.302   9.710
 1846POPC   GL127073   2.096  43.242   9.195
 1846POPC   GL227074   1.824  43.157   8.997
 1846POPC   C1A27075   2.238  43.178   8.719
 1846POPC   D2A27076   2.359  43.156   8.259
 1846POPC   C3A27077   1.997  43.204   7.928
 1846POPC   C4A27078   2.048  43.077   7.458
 1846POPC   C1B27079   1.710  43.504   8.738
 1846POPC   C2B27080   1.596  43.380   8.331
 1846POPC   C3B27081   1.464  43.426   7.909
 1846POPC   C4B27082   1.707  43.422   7.554
 1847POPC   NC327083  27.991  42.676   9.345
 1847POPC   PO427084  28.303  43.145   9.728
 1847POPC   GL127085  28.300  43.085   9.224
 1847POPC   GL227086  27.958  43.113   9.101
 1847POPC   C1A27087  28.341  43.207   8.781
 1847POPC   D2A27088  28.601  43.279   8.406
 1847POPC   C3A27089  28.412  43.468   8.065
 1847POPC   C4A27090  28.317  43.321   7.645
 1847POPC   C1B27091  27.907  42.900   8.702
 1847POPC   C2B27092  28.166  42.987   8.335
 1847POPC   C3B27093  28.361  42.893   7.948
 1847POPC   C4B27094  28.162  42.830   7.523
 1848POPC   NC327095  13.011  35.558   9.390
 1848POPC   PO427096  13.188  34.983   9.233
 1848POPC   GL127097  12.819  35.192   9.084
 1848POPC   GL227098  12.895  35.548   8.904
 1848POPC   C1A27099  12.566  35.199   8.714
 1848POPC   D2A27100  12.674  35.403   8.376
 1848POPC   C3A27101  12.526  35.226   8.033
 1848POPC   C4A27102  12.554  35.462   7.707
 1848POPC   C1B27103  13.096  35.237   8.650
 1848POPC   C2B27104  13.061  35.080   8.270
 1848POPC   C3B27105  13.031  35.295   7.900
 1848POPC   C4B27106  13.098  35.087   7.548
 1849POPC   NC327107   0.121   5.685   9.473
 1849POPC   PO427108   0.699   6.024   9.316
 1849POPC   GL127109   0.318   6.014   9.094
 1849POPC   GL227110   0.145   6.326   9.073
 1849POPC   C1A27111   0.315   5.762   8.717
 1849POPC   D2A27112   0.537   5.655   8.338
 1849POPC   C3A27113   0.502   5.844   7.947
 1849POPC   C4A27114   0.643   6.209   7.692
 1849POPC   C1B27115   0.063   6.203   8.665
 1849POPC   C2B27116   0.279   6.240   8.273
 1849POPC   C3B27117   0.152   6.188   7.855
 1849POPC   C4B27118  44.985   5.821   7.711
 1850POPC   NC327119  13.389  21.324   9.461
 1850POPC   PO427120  13.989  21.533   9.459
 1850POPC   GL127121  13.763  21.521   9.065
 1850POPC   GL227122  13.425  21.639   9.065
 1850POPC   C1A27123  13.612  21.182   8.797
 1850POPC   D2A27124  13.570  21.020   8.384
 1850POPC   C3A27125  13.763  21.307   8.087
 1850POPC   C4A27126  13.708  21.551   7.730
 1850POPC   C1B27127  13.225  21.519   8.713
 1850POPC   C2B27128  13.345  21.492   8.314
 1850POPC   C3B27129  13.199  21.660   7.930
 1850POPC   C4B27130  13.314  21.855   7.568
 1851POPC   NC327131  25.953  23.416   9.612
 1851POPC   PO427132  25.993  22.677   9.584
 1851POPC   GL127133  25.908  22.910   9.186
 1851POPC   GL227134  25.730  23.228   9.207
 1851POPC   C1A27135  25.920  22.764   8.763
 1851POPC   D2A27136  26.196  22.737   8.427
 1851POPC   C3A27137  26.001  22.749   8.080
 1851POPC   C4A27138  26.214  22.751   7.719
 1851POPC   C1B27139  25.729  23.244   8.791
 1851POPC   C2B27140  25.748  23.154   8.397
 1851POPC   C3B27141  25.751  23.349   8.039
 1851POPC   C4B27142  25.834  23.091   7.718
 1852POPC   NC327143   9.962  31.325   9.501
 1852POPC   PO427144  10.010  30.624   9.556
 1852POPC   GL127145   9.796  30.610   9.164
 1852POPC   GL227146   9.722  30.957   9.181
 1852POPC   C1A27147   9.715  30.455   8.727
 1852POPC   D2A27148   9.551  30.313   8.335
 1852POPC   C3A27149   9.790  30.474   8.033
 1852POPC   C4A27150  10.241  30.441   7.953
 1852POPC   C1B27151   9.510  30.926   8.793
 1852POPC   C2B27152   9.614  30.871   8.372
 1852POPC   C3B27153   9.373  30.776   8.029
 1852POPC   C4B27154   9.488  30.649   7.635
 1853POPC   NC327155  30.589  16.193   9.413
 1853POPC   PO427156  30.551  15.584   9.383
 1853POPC   GL127157  30.547  15.810   9.019
 1853POPC   GL227158  30.876  15.932   9.046
 1853POPC   C1A27159  30.550  16.083   8.658
 1853POPC   D2A27160  30.371  15.973   8.276
 1853POPC   C3A27161  30.515  16.206   7.959
 1853POPC   C4A27162  30.631  16.357   7.589
 1853POPC   C1B27163  31.075  15.970   8.642
 1853POPC   C2B27164  30.932  16.061   8.228
 1853POPC   C3B27165  30.838  15.841   7.833
 1853POPC   C4B27166  31.075  15.644   7.491
 1854POPC   NC327167  19.983   6.164   9.514
 1854POPC   PO427168  19.564   6.564   9.707
 1854POPC   GL127169  19.654   6.543   9.277
 1854POPC   GL227170  19.319   6.426   9.193
 1854POPC   C1A27171  19.987   6.545   8.928
 1854POPC   D2A27172  19.883   6.622   8.497
 1854POPC   C3A27173  19.987   6.874   8.161
 1854POPC   C4A27174  20.235   6.790   7.827
 1854POPC   C1B27175  19.465   6.592   8.791
 1854POPC   C2B27176  19.420   6.690   8.331
 1854POPC   C3B27177  19.690   6.475   8.014
 1854POPC   C4B27178  19.601   6.342   7.603
 1855POPC   NC327179  41.383  11.501   9.472
 1855POPC   PO427180  41.490  12.169   9.486
 1855POPC   GL127181  41.556  11.985   9.121
 1855POPC   GL227182  41.230  11.870   9.117
 1855POPC   C1A27183  41.629  12.131   8.716
 1855POPC   D2A27184  41.430  12.102   8.318
 1855POPC   C3A27185  41.628  12.062   7.952
 1855POPC   C4A27186  41.484  12.198   7.538
 1855POPC   C1B27187  41.210  11.843   8.708
 1855POPC   C2B27188  40.987  11.812   8.335
 1855POPC   C3B27189  41.189  11.761   7.959
 1855POPC   C4B27190  41.234  11.749   7.525
 1856POPC   NC327191  10.091  10.515   9.483
 1856POPC   PO427192   9.636  10.101   9.312
 1856POPC   GL127193   9.668  10.485   9.102
 1856POPC   GL227194   9.966  10.669   9.020
 1856POPC   C1A27195   9.528  10.724   8.751
 1856POPC   D2A27196   9.752  10.607   8.406
 1856POPC   C3A27197   9.588  10.772   8.050
 1856POPC   C4A27198   9.593  10.479   7.762
 1856POPC   C1B27199  10.172  10.427   8.703
 1856POPC   C2B27200  10.126  10.221   8.301
 1856POPC   C3B27201  10.120  10.248   7.839
 1856POPC   C4B27202   9.999  10.411   7.422
 1857POPC   NC327203  11.341  44.232   9.474
 1857POPC   PO427204  11.085  43.661   9.501
 1857POPC   GL127205  11.167  43.895   9.129
 1857POPC   GL227206  10.832  43.980   9.144
 1857POPC   C1A27207  11.356  44.231   8.794
 1857POPC   D2A27208  11.522  44.470   8.388
 1857POPC   C3A27209  11.743  44.163   8.071
 1857POPC   C4A27210  11.569  43.764   7.875
 1857POPC   C1B27211  10.898  44.034   8.716
 1857POPC   C2B27212  10.902  43.810   8.367
 1857POPC   C3B27213  11.068  43.723   7.955
 1857POPC   C4B27214  10.781  43.616   7.618
 1858POPC   NC327215   5.515  10.721   9.978
 1858POPC   PO427216   5.000  10.426   9.660
 1858POPC   GL127217   4.974  10.600   9.214
 1858POPC   GL227218   5.054  10.268   9.140
 1858POPC   C1A27219   5.195  10.636   8.790
 1858POPC   D2A27220   5.237  10.512   8.336
 1858POPC   C3A27221   5.149  10.801   8.018
 1858POPC   C4A27222   4.757  10.725   7.822
 1858POPC   C1B27223   5.034  10.110   8.734
 1858POPC   C2B27224   5.186   9.995   8.327
 1858POPC   C3B27225   4.906  10.182   8.040
 1858POPC   C4B27226   5.151  10.375   7.769
 1859POPC   NC327227  24.911  25.082   9.423
 1859POPC   PO427228  25.373  25.533   9.505
 1859POPC   GL127229  25.250  25.396   9.102
 1859POPC   GL227230  25.284  25.037   9.067
 1859POPC   C1A27231  25.330  25.315   8.641
 1859POPC   D2A27232  25.356  25.494   8.227
 1859POPC   C3A27233  25.451  25.235   7.843
 1859POPC   C4A27234  25.540  25.102   7.402
 1859POPC   C1B27235  24.953  24.818   8.810
 1859POPC   C2B27236  24.763  24.932   8.412
 1859POPC   C3B27237  25.042  25.069   8.092
 1859POPC   C4B27238  25.292  24.756   7.852
 1860POPC   NC327239   7.676  34.083   9.745
 1860POPC   PO427240   7.074  33.697   9.581
 1860POPC   GL127241   7.326  33.881   9.214
 1860POPC   GL227242   7.656  33.939   9.250
 1860POPC   C1A27243   7.491  33.612   8.828
 1860POPC   D2A27244   7.537  33.757   8.387
 1860POPC   C3A27245   7.544  33.564   7.954
 1860POPC   C4A27246   7.590  33.822   7.582
 1860POPC   C1B27247   7.825  34.021   8.829
 1860POPC   C2B27248   7.803  34.201   8.420
 1860POPC   C3B27249   7.833  33.997   8.033
 1860POPC   C4B27250   8.075  34.077   7.699
 1861POPC   NC327251  19.772  12.380   9.500
 1861POPC   PO427252  20.022  11.829   9.565
 1861POPC   GL127253  19.936  12.000   9.141
 1861POPC   GL227254  20.081  12.365   9.107
 1861POPC   C1A27255  19.790  11.851   8.718
 1861POPC   D2A27256  19.966  11.688   8.333
 1861POPC   C3A27257  19.778  11.850   7.973
 1861POPC   C4A27258  19.688  12.278   7.839
 1861POPC   C1B27259  20.136  12.208   8.696
 1861POPC   C2B27260  19.988  12.203   8.280
 1861POPC   C3B27261  20.177  12.194   7.886
 1861POPC   C4B27262  20.143  12.473   7.571
 1862POPC   NC327263  41.297  30.943   9.398
 1862POPC   PO427264  41.661  30.372   9.492
 1862POPC   GL127265  41.816  30.473   9.116
 1862POPC   GL227266  41.743  30.836   9.074
 1862POPC   C1A27267  41.693  30.259   8.755
 1862POPC   D2A27268  41.791  30.358   8.358
 1862POPC   C3A27269  41.425  30.451   8.145
 1862POPC   C4A27270  41.449  30.478   7.736
 1862POPC   C1B27271  41.568  30.733   8.655
 1862POPC   C2B27272  41.716  30.863   8.258
 1862POPC   C3B27273  41.779  30.887   7.821
 1862POPC   C4B27274  41.701  31.216   7.486
 1863POPC   NC327275  41.189  14.073   9.558
 1863POPC   PO427276  40.684  14.587   9.581
 1863POPC   GL127277  40.936  14.369   9.224
 1863POPC   GL227278  41.172  14.618   9.124
 1863POPC   C1A27279  40.891  14.363   8.753
 1863POPC   D2A27280  40.634  14.459   8.359
 1863POPC   C3A27281  40.805  14.426   7.935
 1863POPC   C4A27282  40.799  14.082   7.693
 1863POPC   C1B27283  41.069  14.839   8.756
 1863POPC   C2B27284  40.861  14.922   8.370
 1863POPC   C3B27285  41.004  14.889   7.977
 1863POPC   C4B27286  41.247  14.674   7.702
 1864POPC   NC327287  30.201  13.905   9.467
 1864POPC   PO427288  29.697  13.454   9.593
 1864POPC   GL127289  29.906  13.547   9.212
 1864POPC   GL227290  29.723  13.839   9.248
 1864POPC   C1A27291  30.104  13.629   8.794
 1864POPC   D2A27292  30.301  13.512   8.400
 1864POPC   C3A27293  30.142  13.659   8.048
 1864POPC   C4A27294  30.239  13.498   7.652
 1864POPC   C1B27295  29.662  13.899   8.833
 1864POPC   C2B27296  29.759  13.899   8.415
 1864POPC   C3B27297  29.499  13.948   8.067
 1864POPC   C4B27298  29.765  13.845   7.746
 1865POPC   NC327299  24.946  25.745   9.553
 1865POPC   PO427300  25.098  26.422   9.395
 1865POPC   GL127301  25.236  25.976   9.192
 1865POPC   GL227302  25.601  25.866   9.215
 1865POPC   C1A27303  25.324  25.848   8.775
 1865POPC   D2A27304  25.074  25.948   8.449
 1865POPC   C3A27305  25.276  26.020   8.067
 1865POPC   C4A27306  25.205  26.041   7.634
 1865POPC   C1B27307  25.706  25.548   8.917
 1865POPC   C2B27308  25.821  25.568   8.513
 1865POPC   C3B27309  25.744  25.801   8.147
 1865POPC   C4B27310  25.543  25.706   7.772
 1866POPC   NC327311  13.265  23.304   9.315
 1866POPC   PO427312  12.887  22.794   9.579
 1866POPC   GL127313  12.927  22.947   9.184
 1866POPC   GL227314  13.261  22.793   9.157
 1866POPC   C1A27315  12.735  22.991   8.769
 1866POPC   D2A27316  12.729  22.648   8.428
 1866POPC   C3A27317  12.764  22.832   8.022
 1866POPC   C4A27318  12.641  23.241   7.973
 1866POPC   C1B27319  13.225  22.894   8.739
 1866POPC   C2B27320  13.074  23.032   8.370
 1866POPC   C3B27321  13.259  23.095   7.992
 1866POPC   C4B27322  13.020  23.143   7.637
 1867POPC   NC327323   0.867  20.440   9.489
 1867POPC   PO427324   1.425  20.790   9.491
 1867POPC   GL127325   1.227  20.667   9.083
 1867POPC   GL227326   0.878  20.593   9.018
 1867POPC   C1A27327   1.235  20.534   8.636
 1867POPC   D2A27328   1.459  20.606   8.245
 1867POPC   C3A27329   1.246  20.560   7.872
 1867POPC   C4A27330   0.933  20.861   7.782
 1867POPC   C1B27331   0.790  20.777   8.649
 1867POPC   C2B27332   0.857  20.599   8.237
 1867POPC   C3B27333   0.774  20.348   7.880
 1867POPC   C4B27334   0.958  20.081   7.589
 1868POPC   NC327335  19.387  39.877   9.429
 1868POPC   PO427336  18.818  40.188   9.575
 1868POPC   GL127337  18.821  40.033   9.129
 1868POPC   GL227338  19.161  39.952   8.979
 1868POPC   C1A27339  18.653  39.967   8.687
 1868POPC   D2A27340  18.554  39.672   8.360
 1868POPC   C3A27341  18.802  39.782   8.082
 1868POPC   C4A27342  18.879  39.929   7.675
 1868POPC   C1B27343  19.131  39.881   8.546
 1868POPC   C2B27344  19.216  40.111   8.202
 1868POPC   C3B27345  19.284  39.784   7.958
 1868POPC   C4B27346  19.312  39.756   7.551
 1869POPC   NC327347   0.107   7.447   9.478
 1869POPC   PO427348   0.778   7.513   9.651
 1869POPC   GL127349   0.596   7.263   9.263
 1869POPC   GL227350   0.480   7.547   9.135
 1869POPC   C1A27351   0.418   7.118   8.802
 1869POPC   D2A27352   0.160   7.212   8.437
 1869POPC   C3A27353   0.420   7.269   8.075
 1869POPC   C4A27354   0.583   7.383   7.663
 1869POPC   C1B27355   0.334   7.607   8.736
 1869POPC   C2B27356   0.380   7.795   8.333
 1869POPC   C3B27357   0.232   7.728   7.907
 1869POPC   C4B27358   0.226   7.711   7.466
 1870POPC   NC327359  25.032  33.200   9.454
 1870POPC   PO427360  25.481  32.781   9.674
 1870POPC   GL127361  25.443  32.690   9.229
 1870POPC   GL227362  25.251  32.952   9.096
 1870POPC   C1A27363  25.382  32.619   8.766
 1870POPC   D2A27364  25.254  32.861   8.415
 1870POPC   C3A27365  25.167  32.695   8.015
 1870POPC   C4A27366  25.412  32.633   7.650
 1870POPC   C1B27367  25.051  33.202   8.769
 1870POPC   C2B27368  25.015  33.327   8.338
 1870POPC   C3B27369  25.270  33.350   7.984
 1870POPC   C4B27370  25.246  33.165   7.576
 1871POPC   NC327371  25.280  15.322   9.532
 1871POPC   PO427372  25.355  14.733   9.796
 1871POPC   GL127373  25.236  14.862   9.308
 1871POPC   GL227374  25.511  14.769   9.138
 1871POPC   C1A27375  25.200  15.120   8.873
 1871POPC   D2A27376  25.403  15.209   8.436
 1871POPC   C3A27377  25.206  15.305   8.026
 1871POPC   C4A27378  25.427  15.612   7.763
 1871POPC   C1B27379  25.647  14.896   8.766
 1871POPC   C2B27380  25.631  14.757   8.362
 1871POPC   C3B27381  25.557  14.945   7.954
 1871POPC   C4B27382  25.175  14.864   7.717
 1872POPC   NC327383   1.793  41.477   9.645
 1872POPC   PO427384   2.209  41.899   9.387
 1872POPC   GL127385   2.128  41.574   9.101
 1872POPC   GL227386   1.816  41.410   9.128
 1872POPC   C1A27387   1.950  41.642   8.696
 1872POPC   D2A27388   1.829  41.887   8.372
 1872POPC   C3A27389   1.985  41.628   8.059
 1872POPC   C4A27390   2.204  41.550   7.681
 1872POPC   C1B27391   2.020  41.134   8.780
 1872POPC   C2B27392   1.964  41.036   8.313
 1872POPC   C3B27393   1.879  41.171   7.855
 1872POPC   C4B27394   2.013  41.080   7.423
 1873POPC   NC327395  21.120   4.369   9.473
 1873POPC   PO427396  20.479   4.201   9.463
 1873POPC   GL127397  20.584   4.220   9.057
 1873POPC   GL227398  20.829   4.489   9.058
 1873POPC   C1A27399  20.343   4.339   8.700
 1873POPC   D2A27400  20.446   4.216   8.298
 1873POPC   C3A27401  20.425   4.482   7.948
 1873POPC   C4A27402  20.359   4.334   7.520
 1873POPC   C1B27403  21.042   4.196   8.804
 1873POPC   C2B27404  20.954   4.122   8.389
 1873POPC   C3B27405  20.833   4.164   7.955
 1873POPC   C4B27406  21.035   4.305   7.564
 1874POPC   NC327407  23.881   4.550   9.485
 1874POPC   PO427408  23.763   3.879   9.351
 1874POPC   GL127409  23.677   4.251   9.111
 1874POPC   GL227410  23.880   4.496   9.002
 1874POPC   C1A27411  23.539   4.302   8.705
 1874POPC   D2A27412  23.446   3.955   8.485
 1874POPC   C3A27413  23.426   3.972   8.071
 1874POPC   C4A27414  23.520   4.205   7.796
 1874POPC   C1B27415  24.032   4.352   8.644
 1874POPC   C2B27416  23.822   4.315   8.256
 1874POPC   C3B27417  23.758   4.618   7.964
 1874POPC   C4B27418  23.374   4.695   7.849
 1875POPC   NC327419  36.003  11.593   9.344
 1875POPC   PO427420  35.530  11.092   9.589
 1875POPC   GL127421  35.369  11.119   9.213
 1875POPC   GL227422  35.491  11.454   9.217
 1875POPC   C1A27423  35.092  11.100   8.886
 1875POPC   D2A27424  35.097  11.262   8.482
 1875POPC   C3A27425  35.353  11.067   8.233
 1875POPC   C4A27426  35.272  11.036   7.832
 1875POPC   C1B27427  35.381  11.543   8.817
 1875POPC   C2B27428  35.576  11.529   8.426
 1875POPC   C3B27429  35.416  11.519   8.017
 1875POPC   C4B27430  35.634  11.475   7.650
 1876POPC   NC327431  28.437   9.158   9.361
 1876POPC   PO427432  28.262   9.777   9.739
 1876POPC   GL127433  28.412   9.658   9.337
 1876POPC   GL227434  28.111   9.707   9.181
 1876POPC   C1A27435  28.524   9.787   8.895
 1876POPC   D2A27436  28.334   9.967   8.523
 1876POPC   C3A27437  28.505   9.837   8.123
 1876POPC   C4A27438  28.369   9.818   7.724
 1876POPC   C1B27439  28.119   9.442   8.832
 1876POPC   C2B27440  27.914   9.470   8.421
 1876POPC   C3B27441  28.037   9.461   8.005
 1876POPC   C4B27442  28.193   9.290   7.652
 1877POPC   NC327443   0.575  44.932   9.464
 1877POPC   PO427444   0.748  44.136   9.429
 1877POPC   GL127445   0.658  44.472   9.176
 1877POPC   GL227446   0.345  44.355   8.985
 1877POPC   C1A27447   0.622  44.748   8.832
 1877POPC   D2A27448   0.623  44.542   8.477
 1877POPC   C3A27449   0.734  44.750   8.166
 1877POPC   C4A27450   0.643  44.517   7.801
 1877POPC   C1B27451   0.148  44.579   8.648
 1877POPC   C2B27452   0.214  44.637   8.172
 1877POPC   C3B27453   0.247  44.821   7.770
 1877POPC   C4B27454   0.071  44.756   7.367
 1878POPC   NC327455   0.405  26.328   9.364
 1878POPC   PO427456   0.334  25.702   9.580
 1878POPC   GL127457   0.333  25.837   9.178
 1878POPC   GL227458   0.697  25.895   9.226
 1878POPC   C1A27459   0.220  25.734   8.745
 1878POPC   D2A27460   0.106  25.751   8.290
 1878POPC   C3A27461   0.183  26.155   8.033
 1878POPC   C4A27462   0.460  26.189   7.697
 1878POPC   C1B27463   0.712  25.591   8.885
 1878POPC   C2B27464   0.799  25.782   8.497
 1878POPC   C3B27465   0.648  25.919   8.106
 1878POPC   C4B27466   0.645  25.696   7.732
 1879POPC   NC327467   8.589  34.687   9.455
 1879POPC   PO427468   7.974  34.440   9.697
 1879POPC   GL127469   8.028  34.484   9.223
 1879POPC   GL227470   8.316  34.651   9.048
 1879POPC   C1A27471   7.924  34.547   8.770
 1879POPC   D2A27472   8.135  34.619   8.367
 1879POPC   C3A27473   7.958  34.500   7.994
 1879POPC   C4A27474   8.128  34.566   7.607
 1879POPC   C1B27475   8.408  34.356   8.711
 1879POPC   C2B27476   8.596  34.405   8.324
 1879POPC   C3B27477   8.457  34.330   7.952
 1879POPC   C4B27478   8.630  34.457   7.590
 1880POPC   NC327479   6.788   1.878   9.467
 1880POPC   PO427480   6.095   1.874   9.575
 1880POPC   GL127481   6.360   1.840   9.172
 1880POPC   GL227482   6.693   2.033   9.022
 1880POPC   C1A27483   6.440   1.720   8.735
 1880POPC   D2A27484   6.293   1.741   8.348
 1880POPC   C3A27485   6.331   2.058   8.061
 1880POPC   C4A27486   6.513   2.106   7.671
 1880POPC   C1B27487   6.949   1.744   8.778
 1880POPC   C2B27488   6.806   1.839   8.369
 1880POPC   C3B27489   6.875   2.051   8.015
 1880POPC   C4B27490   7.192   1.955   7.769
 1881POPC   NC327491  24.252  13.811   9.379
 1881POPC   PO427492  24.817  13.412   9.393
 1881POPC   GL127493  24.703  13.595   9.008
 1881POPC   GL227494  24.348  13.693   8.913
 1881POPC   C1A27495  24.612  13.450   8.588
 1881POPC   D2A27496  24.640  13.748   8.293
 1881POPC   C3A27497  24.732  13.613   7.922
 1881POPC   C4A27498  24.757  13.246   7.727
 1881POPC   C1B27499  24.210  13.950   8.565
 1881POPC   C2B27500  24.162  13.868   8.162
 1881POPC   C3B27501  24.233  13.650   7.779
 1881POPC   C4B27502  24.077  13.753   7.351
 1882POPC   NC327503   3.243  41.547   9.501
 1882POPC   PO427504   3.872  41.456   9.655
 1882POPC   GL127505   3.706  41.561   9.251
 1882POPC   GL227506   3.562  41.245   9.178
 1882POPC   C1A27507   3.475  41.623   8.849
 1882POPC   D2A27508   3.637  41.524   8.448
 1882POPC   C3A27509   3.406  41.576   8.115
 1882POPC   C4A27510   3.314  41.710   7.756
 1882POPC   C1B27511   3.882  41.278   8.811
 1882POPC   C2B27512   3.893  41.061   8.435
 1882POPC   C3B27513   3.875  41.247   8.038
 1882POPC   C4B27514   3.688  41.387   7.682
 1883POPC   NC327515  43.454  14.175   9.516
 1883POPC   PO427516  43.929  14.604   9.657
 1883POPC   GL127517  43.859  14.364   9.286
 1883POPC   GL227518  44.126  14.462   9.116
 1883POPC   C1A27519  43.750  14.153   8.896
 1883POPC   D2A27520  43.910  14.284   8.495
 1883POPC   C3A27521  43.640  14.258   8.155
 1883POPC   C4A27522  43.692  14.477   7.766
 1883POPC   C1B27523  44.309  14.608   8.783
 1883POPC   C2B27524  44.371  14.525   8.362
 1883POPC   C3B27525  44.111  14.440   8.039
 1883POPC   C4B27526  44.177  14.313   7.611
 1884POPC   NC327527  25.278  12.005   9.426
 1884POPC   PO427528  24.885  12.432   9.209
 1884POPC   GL127529  25.225  12.252   8.977
 1884POPC   GL227530  25.556  12.348   9.146
 1884POPC   C1A27531  25.182  12.057   8.565
 1884POPC   D2A27532  25.063  12.183   8.128
 1884POPC   C3A27533  25.319  11.992   7.815
 1884POPC   C4A27534  25.661  11.787   7.611
 1884POPC   C1B27535  25.563  12.550   8.735
 1884POPC   C2B27536  25.551  12.385   8.325
 1884POPC   C3B27537  25.574  12.424   7.887
 1884POPC   C4B27538  25.186  12.487   7.658
 1885POPC   NC327539   5.605  17.279   9.569
 1885POPC   PO427540   6.236  17.269   9.506
 1885POPC   GL127541   6.057  17.322   9.116
 1885POPC   GL227542   5.741  17.462   9.127
 1885POPC   C1A27543   6.014  17.540   8.713
 1885POPC   D2A27544   6.168  17.840   8.446
 1885POPC   C3A27545   6.119  17.745   8.028
 1885POPC   C4A27546   6.028  17.421   7.732
 1885POPC   C1B27547   5.499  17.541   8.781
 1885POPC   C2B27548   5.626  17.581   8.360
 1885POPC   C3B27549   5.575  17.488   7.946
 1885POPC   C4B27550   5.292  17.717   7.695
 1886POPC   NC327551  24.151  29.784   9.379
 1886POPC   PO427552  24.734  30.060   9.558
 1886POPC   GL127553  24.619  29.860   9.169
 1886POPC   GL227554  24.376  30.110   9.074
 1886POPC   C1A27555  24.691  29.835   8.719
 1886POPC   D2A27556  24.662  30.034   8.322
 1886POPC   C3A27557  24.465  29.918   7.975
 1886POPC   C4A27558  24.599  29.621   7.772
 1886POPC   C1B27559  24.178  30.267   8.749
 1886POPC   C2B27560  24.138  30.160   8.320
 1886POPC   C3B27561  24.243  30.365   7.922
 1886POPC   C4B27562  24.224  30.345   7.469
 1887POPC   NC327563  27.672  35.044   9.294
 1887POPC   PO427564  27.443  35.593   9.663
 1887POPC   GL127565  27.544  35.581   9.188
 1887POPC   GL227566  27.897  35.488   9.112
 1887POPC   C1A27567  27.310  35.568   8.768
 1887POPC   D2A27568  27.160  35.748   8.372
 1887POPC   C3A27569  27.342  35.539   8.053
 1887POPC   C4A27570  27.632  35.326   7.804
 1887POPC   C1B27571  27.785  35.364   8.676
 1887POPC   C2B27572  27.936  35.348   8.248
 1887POPC   C3B27573  28.039  35.045   7.909
 1887POPC   C4B27574  27.916  35.063   7.466
 1888POPC   NC327575  42.270  40.652   9.364
 1888POPC   PO427576  41.708  40.844   9.698
 1888POPC   GL127577  41.942  41.020   9.208
 1888POPC   GL227578  42.312  40.938   8.964
 1888POPC   C1A27579  41.880  40.959   8.733
 1888POPC   D2A27580  42.129  40.697   8.414
 1888POPC   C3A27581  42.315  40.916   8.066
 1888POPC   C4A27582  42.264  40.951   7.631
 1888POPC   C1B27583  42.447  40.498   8.766
 1888POPC   C2B27584  42.543  40.288   8.362
 1888POPC   C3B27585  42.394  40.419   7.942
 1888POPC   C4B27586  42.715  40.550   7.598
 1889POPC   NC327587  44.682  20.237   9.584
 1889POPC   PO427588  44.372  19.655   9.725
 1889POPC   GL127589  44.623  19.785   9.314
 1889POPC   GL227590  44.907  19.595   9.190
 1889POPC   C1A27591  44.688  19.919   8.831
 1889POPC   D2A27592  44.451  19.836   8.413
 1889POPC   C3A27593  44.479  20.080   8.030
 1889POPC   C4A27594  44.387  20.050   7.594
 1889POPC   C1B27595   0.067  19.562   8.770
 1889POPC   C2B27596  44.852  19.534   8.365
 1889POPC   C3B27597  44.644  19.589   7.965
 1889POPC   C4B27598  44.882  19.494   7.614
 1890POPC   NC327599   1.966  16.929   9.497
 1890POPC   PO427600   2.177  16.309   9.547
 1890POPC   GL127601   2.020  16.559   9.162
 1890POPC   GL227602   2.278  16.814   9.079
 1890POPC   C1A27603   1.844  16.804   8.777
 1890POPC   D2A27604   1.735  16.654   8.348
 1890POPC   C3A27605   1.934  16.785   7.980
 1890POPC   C4A27606   1.671  16.999   7.707
 1890POPC   C1B27607   2.248  16.477   8.719
 1890POPC   C2B27608   2.258  16.401   8.272
 1890POPC   C3B27609   2.284  16.426   7.825
 1890POPC   C4B27610   2.273  16.741   7.540
 1891POPC   NC327611  17.943   8.346   9.508
 1891POPC   PO427612  18.666   8.248   9.461
 1891POPC   GL127613  18.361   8.258   9.137
 1891POPC   GL227614  18.183   8.581   9.134
 1891POPC   C1A27615  18.273   8.014   8.765
 1891POPC   D2A27616  18.139   7.861   8.362
 1891POPC   C3A27617  18.309   7.980   8.028
 1891POPC   C4A27618  18.169   7.935   7.656
 1891POPC   C1B27619  18.410   8.624   8.780
 1891POPC   C2B27620  18.403   8.369   8.396
 1891POPC   C3B27621  18.187   8.483   8.027
 1891POPC   C4B27622  18.393   8.415   7.665
 1892POPC   NC327623   0.546  28.793   9.441
 1892POPC   PO427624   0.124  28.208   9.460
 1892POPC   GL127625   0.357  28.259   9.076
 1892POPC   GL227626   0.607  28.524   9.012
 1892POPC   C1A27627   0.276  28.178   8.614
 1892POPC   D2A27628  44.991  28.194   8.219
 1892POPC   C3A27629   0.236  28.185   7.839
 1892POPC   C4A27630   0.620  28.327   7.677
 1892POPC   C1B27631   0.211  28.658   8.806
 1892POPC   C2B27632   0.283  28.621   8.363
 1892POPC   C3B27633   0.146  28.682   7.981
 1892POPC   C4B27634   0.211  28.611   7.538
 1893POPC   NC327635  26.290  34.019   9.453
 1893POPC   PO427636  25.695  33.708   9.727
 1893POPC   GL127637  25.937  33.593   9.293
 1893POPC   GL227638  26.006  33.902   9.064
 1893POPC   C1A27639  25.848  33.524   8.810
 1893POPC   D2A27640  25.817  33.803   8.433
 1893POPC   C3A27641  25.755  33.591   8.042
 1893POPC   C4A27642  25.535  33.648   7.656
 1893POPC   C1B27643  26.249  33.960   8.696
 1893POPC   C2B27644  26.304  33.861   8.239
 1893POPC   C3B27645  26.139  33.855   7.787
 1893POPC   C4B27646  26.332  34.086   7.416
 1894POPC   NC327647  34.616  37.314   9.403
 1894POPC   PO427648  34.368  37.881   9.512
 1894POPC   GL127649  34.434  37.704   9.149
 1894POPC   GL227650  34.182  37.422   9.142
 1894POPC   C1A27651  34.719  37.682   8.783
 1894POPC   D2A27652  34.837  37.429   8.429
 1894POPC   C3A27653  34.751  37.681   8.074
 1894POPC   C4A27654  34.893  37.714   7.627
 1894POPC   C1B27655  34.199  37.619   8.734
 1894POPC   C2B27656  34.318  37.522   8.379
 1894POPC   C3B27657  34.197  37.414   8.031
 1894POPC   C4B27658  34.397  37.608   7.718
 1895POPC   NC327659  13.457  27.468   9.477
 1895POPC   PO427660  13.840  27.976   9.503
 1895POPC   GL127661  13.802  27.657   9.170
 1895POPC   GL227662  13.812  27.917   8.977
 1895POPC   C1A27663  13.625  27.447   8.811
 1895POPC   D2A27664  13.309  27.498   8.502
 1895POPC   C3A27665  13.418  27.347   8.094
 1895POPC   C4A27666  13.537  27.404   7.673
 1895POPC   C1B27667  13.628  27.923   8.604
 1895POPC   C2B27668  13.754  27.721   8.253
 1895POPC   C3B27669  13.970  27.598   7.884
 1895POPC   C4B27670  13.896  27.703   7.440
 1896POPC   NC327671  29.195  11.581   9.264
 1896POPC   PO427672  29.001  11.978   9.824
 1896POPC   GL127673  29.087  12.054   9.298
 1896POPC   GL227674  29.379  12.211   9.087
 1896POPC   C1A27675  28.991  12.013   8.812
 1896POPC   D2A27676  28.987  12.239   8.417
 1896POPC   C3A27677  28.874  11.986   8.045
 1896POPC   C4A27678  28.833  12.072   7.611
 1896POPC   C1B27679  29.467  11.995   8.667
 1896POPC   C2B27680  29.364  11.951   8.224
 1896POPC   C3B27681  29.316  11.761   7.834
 1896POPC   C4B27682  29.487  11.810   7.399
 1897POPC   NC327683  12.573  37.050   9.478
 1897POPC   PO427684  13.026  36.673   9.664
 1897POPC   GL127685  13.071  36.840   9.224
 1897POPC   GL227686  12.873  37.102   9.093
 1897POPC   C1A27687  13.233  36.994   8.793
 1897POPC   D2A27688  12.980  37.111   8.423
 1897POPC   C3A27689  12.872  36.798   8.103
 1897POPC   C4A27690  12.750  36.699   7.682
 1897POPC   C1B27691  12.604  36.883   8.802
 1897POPC   C2B27692  12.410  36.867   8.399
 1897POPC   C3B27693  12.534  37.173   8.105
 1897POPC   C4B27694  12.956  37.337   7.954
 1898POPC   NC327695  29.000  44.174   9.386
 1898POPC   PO427696  28.720  43.535   9.404
 1898POPC   GL127697  28.892  43.740   9.066
 1898POPC   GL227698  29.249  43.754   9.134
 1898POPC   C1A27699  28.889  43.660   8.627
 1898POPC   D2A27700  29.245  43.719   8.357
 1898POPC   C3A27701  29.207  43.866   7.990
 1898POPC   C4A27702  28.792  43.737   7.823
 1898POPC   C1B27703  29.267  43.981   8.767
 1898POPC   C2B27704  29.501  44.317   8.607
 1898POPC   C3B27705  29.668  44.352   8.209
 1898POPC   C4B27706  29.530  44.261   7.792
 1899POPC   NC327707   1.576   9.270   9.391
 1899POPC   PO427708   1.664   8.559   9.557
 1899POPC   GL127709   2.014   8.747   9.222
 1899POPC   GL227710   2.019   9.093   9.120
 1899POPC   C1A27711   2.209   8.705   8.804
 1899POPC   D2A27712   2.101   8.940   8.416
 1899POPC   C3A27713   2.095   8.753   7.996
 1899POPC   C4A27714   1.965   8.927   7.604
 1899POPC   C1B27715   1.788   9.357   8.770
 1899POPC   C2B27716   1.776   9.351   8.336
 1899POPC   C3B27717   1.697   9.087   8.001
 1899POPC   C4B27718   1.652   9.310   7.606
 1900POPC   NC327719  32.904  28.536   9.646
 1900POPC   PO427720  33.029  27.960   9.712
 1900POPC   GL127721  32.872  28.223   9.264
 1900POPC   GL227722  32.604  28.106   9.078
 1900POPC   C1A27723  33.038  28.318   8.815
 1900POPC   D2A27724  33.096  28.079   8.414
 1900POPC   C3A27725  33.139  28.325   8.026
 1900POPC   C4A27726  33.348  28.564   7.730
 1900POPC   C1B27727  32.527  28.373   8.735
 1900POPC   C2B27728  32.789  28.503   8.371
 1900POPC   C3B27729  32.740  28.649   7.941
 1900POPC   C4B27730  32.567  28.541   7.530
 1901POPC   NC327731  21.568  38.095   9.439
 1901POPC   PO427732  21.032  38.452   9.541
 1901POPC   GL127733  21.238  38.364   9.158
 1901POPC   GL227734  21.382  38.634   9.188
 1901POPC   C1A27735  21.574  38.414   8.796
 1901POPC   D2A27736  21.513  38.309   8.407
 1901POPC   C3A27737  21.627  38.530   8.047
 1901POPC   C4A27738  21.472  38.319   7.689
 1901POPC   C1B27739  21.124  38.694   8.797
 1901POPC   C2B27740  21.281  38.789   8.385
 1901POPC   C3B27741  21.129  38.807   7.989
 1901POPC   C4B27742  21.085  38.603   7.586
 1902POPC   NC327743  25.461   6.177   9.425
 1902POPC   PO427744  25.219   5.569   9.415
 1902POPC   GL127745  25.260   5.827   9.089
 1902POPC   GL227746  25.620   5.795   9.115
 1902POPC   C1A27747  25.406   6.076   8.728
 1902POPC   D2A27748  25.537   5.909   8.345
 1902POPC   C3A27749  25.432   6.019   7.984
 1902POPC   C4A27750  25.158   5.826   7.763
 1902POPC   C1B27751  25.495   5.557   8.740
 1902POPC   C2B27752  25.361   5.372   8.401
 1902POPC   C3B27753  25.427   5.495   8.025
 1902POPC   C4B27754  25.535   5.474   7.603
 1903POPC   NC327755  22.731  41.666   9.836
 1903POPC   PO427756  23.075  41.220   9.489
 1903POPC   GL127757  22.891  41.445   9.144
 1903POPC   GL227758  23.192  41.395   8.947
 1903POPC   C1A27759  22.768  41.608   8.720
 1903POPC   D2A27760  22.906  41.420   8.333
 1903POPC   C3A27761  22.769  41.590   7.933
 1903POPC   C4A27762  22.920  41.902   7.614
 1903POPC   C1B27763  23.219  41.080   8.620
 1903POPC   C2B27764  23.328  41.111   8.193
 1903POPC   C3B27765  23.201  41.351   7.844
 1903POPC   C4B27766  22.975  41.174   7.478
 1904POPC   NC327767  21.780  21.739   9.586
 1904POPC   PO427768  21.423  22.306   9.782
 1904POPC   GL127769  21.426  22.262   9.332
 1904POPC   GL227770  21.293  21.947   9.189
 1904POPC   C1A27771  21.434  22.316   8.874
 1904POPC   D2A27772  21.563  22.128   8.479
 1904POPC   C3A27773  21.522  22.308   8.067
 1904POPC   C4A27774  21.414  22.252   7.654
 1904POPC   C1B27775  21.089  21.963   8.765
 1904POPC   C2B27776  21.057  22.122   8.346
 1904POPC   C3B27777  21.111  21.966   7.944
 1904POPC   C4B27778  20.900  22.032   7.542
 1905POPC   NC327779  10.801  10.286   9.475
 1905POPC   PO427780  10.422  10.855   9.532
 1905POPC   GL127781  10.498  10.673   9.149
 1905POPC   GL227782  10.475  10.349   9.094
 1905POPC   C1A27783  10.612  10.713   8.717
 1905POPC   D2A27784  10.566  10.508   8.326
 1905POPC   C3A27785  10.462  10.655   7.920
 1905POPC   C4A27786  10.048  10.764   7.808
 1905POPC   C1B27787  10.776  10.213   8.765
 1905POPC   C2B27788  10.930  10.157   8.344
 1905POPC   C3B27789  10.660  10.142   7.964
 1905POPC   C4B27790  10.846  10.315   7.609
 1906POPC   NC327791  15.426   5.003   9.691
 1906POPC   PO427792  15.364   5.627   9.649
 1906POPC   GL127793  15.310   5.306   9.279
 1906POPC   GL227794  14.958   5.299   9.112
 1906POPC   C1A27795  15.365   5.042   8.888
 1906POPC   D2A27796  15.243   4.847   8.489
 1906POPC   C3A27797  15.244   5.199   8.202
 1906POPC   C4A27798  15.471   5.235   7.824
 1906POPC   C1B27799  14.900   5.222   8.618
 1906POPC   C2B27800  14.799   4.965   8.237
 1906POPC   C3B27801  14.995   4.994   7.801
 1906POPC   C4B27802  14.838   4.997   7.366
 1907POPC   NC327803  32.404   4.467   9.758
 1907POPC   PO427804  32.185   3.852   9.546
 1907POPC   GL127805  32.175   4.214   9.222
 1907POPC   GL227806  32.379   4.530   9.223
 1907POPC   C1A27807  32.122   4.179   8.763
 1907POPC   D2A27808  32.381   4.381   8.463
 1907POPC   C3A27809  32.253   4.269   8.064
 1907POPC   C4A27810  32.200   4.003   7.717
 1907POPC   C1B27811  31.987   4.626   8.958
 1907POPC   C2B27812  31.897   4.578   8.499
 1907POPC   C3B27813  31.935   4.675   8.064
 1907POPC   C4B27814  31.876   4.414   7.729
 1908POPC   NC327815  20.995  36.173   9.620
 1908POPC   PO427816  21.661  36.031   9.515
 1908POPC   GL127817  21.571  35.917   9.107
 1908POPC   GL227818  21.501  36.244   9.039
 1908POPC   C1A27819  21.594  35.899   8.654
 1908POPC   D2A27820  21.865  35.802   8.294
 1908POPC   C3A27821  21.605  36.011   7.990
 1908POPC   C4A27822  21.240  35.799   7.767
 1908POPC   C1B27823  21.440  36.465   8.707
 1908POPC   C2B27824  21.221  36.525   8.373
 1908POPC   C3B27825  21.411  36.491   8.054
 1908POPC   C4B27826  21.537  36.462   7.666
 1909POPC   NC327827  19.457  28.943   9.898
 1909POPC   PO427828  19.805  29.223   9.386
 1909POPC   GL127829  20.042  29.222   9.063
 1909POPC   GL227830  20.192  29.547   9.083
 1909POPC   C1A27831  19.931  29.221   8.630
 1909POPC   D2A27832  19.558  29.365   8.373
 1909POPC   C3A27833  19.578  29.357   7.934
 1909POPC   C4A27834  19.731  28.985   7.754
 1909POPC   C1B27835  20.102  29.732   8.696
 1909POPC   C2B27836  20.017  29.606   8.317
 1909POPC   C3B27837  20.053  29.232   8.116
 1909POPC   C4B27838  20.048  29.426   7.759
 1910POPC   NC327839  16.617  22.068   9.460
 1910POPC   PO427840  17.074  22.514   9.275
 1910POPC   GL127841  16.708  22.421   9.019
 1910POPC   GL227842  16.414  22.479   9.185
 1910POPC   C1A27843  16.670  22.319   8.575
 1910POPC   D2A27844  16.989  22.020   8.436
 1910POPC   C3A27845  17.228  22.174   8.124
 1910POPC   C4A27846  16.914  22.115   7.867
 1910POPC   C1B27847  16.277  22.172   8.860
 1910POPC   C2B27848  16.190  22.176   8.413
 1910POPC   C3B27849  16.408  22.191   7.985
 1910POPC   C4B27850  16.532  21.864   7.624
 1911POPC   NC327851  10.856   1.836   9.428
 1911POPC   PO427852  10.452   2.364   9.563
 1911POPC   GL127853  10.421   2.088   9.238
 1911POPC   GL227854  10.741   2.203   9.088
 1911POPC   C1A27855  10.441   1.848   8.874
 1911POPC   D2A27856  10.633   1.961   8.494
 1911POPC   C3A27857  10.646   1.761   8.091
 1911POPC   C4A27858  10.279   1.712   7.856
 1911POPC   C1B27859  10.883   2.370   8.709
 1911POPC   C2B27860  10.967   2.275   8.272
 1911POPC   C3B27861  10.810   2.293   7.869
 1911POPC   C4B27862  10.467   2.148   7.683
 1912POPC   NC327863   1.602  27.756   9.503
 1912POPC   PO427864   2.166  27.316   9.470
 1912POPC   GL127865   1.955  27.536   9.151
 1912POPC   GL227866   1.974  27.893   9.172
 1912POPC   C1A27867   1.871  27.481   8.704
 1912POPC   D2A27868   2.174  27.234   8.487
 1912POPC   C3A27869   2.160  27.292   8.048
 1912POPC   C4A27870   1.749  27.389   7.786
 1912POPC   C1B27871   2.168  27.900   8.781
 1912POPC   C2B27872   1.949  27.928   8.396
 1912POPC   C3B27873   2.033  27.786   7.979
 1912POPC   C4B27874   2.197  27.542   7.606
 1913POPC   NC327875  26.731  19.369   9.573
 1913POPC   PO427876  27.027  19.997   9.642
 1913POPC   GL127877  26.983  19.881   9.209
 1913POPC   GL227878  26.697  19.733   9.209
 1913POPC   C1A27879  26.951  19.805   8.741
 1913POPC   D2A27880  26.806  19.966   8.337
 1913POPC   C3A27881  26.786  19.728   7.971
 1913POPC   C4A27882  27.045  19.757   7.626
 1913POPC   C1B27883  26.521  19.991   8.905
 1913POPC   C2B27884  26.378  19.748   8.601
 1913POPC   C3B27885  26.288  19.869   8.230
 1913POPC   C4B27886  26.416  20.089   7.886
 1914POPC   NC327887  27.820   9.742   9.590
 1914POPC   PO427888  27.134   9.621   9.576
 1914POPC   GL127889  27.379   9.826   9.232
 1914POPC   GL227890  27.618   9.573   9.077
 1914POPC   C1A27891  27.300   9.913   8.790
 1914POPC   D2A27892  27.456   9.710   8.424
 1914POPC   C3A27893  27.345   9.751   8.009
 1914POPC   C4A27894  27.544   9.563   7.687
 1914POPC   C1B27895  27.832   9.869   8.752
 1914POPC   C2B27896  27.852  10.064   8.326
 1914POPC   C3B27897  27.839   9.916   7.893
 1914POPC   C4B27898  27.956   9.710   7.474
 1915POPC   NC327899  41.847  40.257   9.650
 1915POPC   PO427900  42.508  40.274   9.514
 1915POPC   GL127901  42.461  40.131   9.122
 1915POPC   GL227902  42.108  40.193   9.135
 1915POPC   C1A27903  42.339  39.965   8.722
 1915POPC   D2A27904  42.230  39.669   8.399
 1915POPC   C3A27905  42.383  39.863   8.025
 1915POPC   C4A27906  42.153  39.809   7.670
 1915POPC   C1B27907  41.955  40.318   8.724
 1915POPC   C2B27908  42.046  40.175   8.329
 1915POPC   C3B27909  41.852  40.067   7.985
 1915POPC   C4B27910  41.851  40.223   7.606
 1916POPC   NC327911  24.060   3.509   9.515
 1916POPC   PO427912  24.740   3.697   9.465
 1916POPC   GL127913  24.664   3.739   9.064
 1916POPC   GL227914  24.302   3.811   9.137
 1916POPC   C1A27915  24.826   3.468   8.713
 1916POPC   D2A27916  24.767   3.414   8.268
 1916POPC   C3A27917  24.799   3.575   7.868
 1916POPC   C4A27918  24.700   3.299   7.561
 1916POPC   C1B27919  24.324   3.544   8.764
 1916POPC   C2B27920  24.367   3.685   8.378
 1916POPC   C3B27921  24.289   3.488   8.001
 1916POPC   C4B27922  24.232   3.584   7.590
 1917POPC   NC327923  37.607  33.063   9.683
 1917POPC   PO427924  37.225  32.491   9.533
 1917POPC   GL127925  37.605  32.679   9.263
 1917POPC   GL227926  37.576  33.032   9.123
 1917POPC   C1A27927  37.846  32.735   8.832
 1917POPC   D2A27928  37.644  32.828   8.407
 1917POPC   C3A27929  37.853  32.763   7.999
 1917POPC   C4A27930  37.720  32.946   7.600
 1917POPC   C1B27931  37.363  33.123   8.728
 1917POPC   C2B27932  37.362  33.273   8.300
 1917POPC   C3B27933  37.376  32.976   7.970
 1917POPC   C4B27934  37.208  32.946   7.570
 1918POPC   NC327935  21.942  20.145   9.506
 1918POPC   PO427936  21.269  19.982   9.390
 1918POPC   GL127937  21.549  19.757   9.154
 1918POPC   GL227938  21.278  19.481   9.173
 1918POPC   C1A27939  21.751  19.833   8.732
 1918POPC   D2A27940  21.456  20.033   8.444
 1918POPC   C3A27941  21.578  20.140   8.035
 1918POPC   C4A27942  21.317  19.980   7.744
 1918POPC   C1B27943  21.294  19.611   8.749
 1918POPC   C2B27944  21.489  19.499   8.408
 1918POPC   C3B27945  21.388  19.541   8.018
 1918POPC   C4B27946  21.632  19.580   7.689
 1919POPC   NC327947  41.897   0.634   9.701
 1919POPC   PO427948  41.196   0.734   9.457
 1919POPC   GL127949  41.360   0.411   9.101
 1919POPC   GL227950  41.700   0.276   9.137
 1919POPC   C1A27951  41.655   0.544   8.702
 1919POPC   D2A27952  41.617   0.352   8.295
 1919POPC   C3A27953  41.518   0.546   7.901
 1919POPC   C4A27954  41.336   0.624   7.526
 1919POPC   C1B27955  41.920   0.122   8.727
 1919POPC   C2B27956  42.081   0.119   8.297
 1919POPC   C3B27957  41.877   0.065   7.858
 1919POPC   C4B27958  41.815   0.335   7.459
 1920POPC   NC327959  12.927   5.604   9.776
 1920POPC   PO427960  12.827   4.916   9.815
 1920POPC   GL127961  12.782   4.915   9.299
 1920POPC   GL227962  12.943   5.212   9.182
 1920POPC   C1A27963  12.818   4.822   8.862
 1920POPC   D2A27964  12.647   4.945   8.461
 1920POPC   C3A27965  12.915   4.832   8.135
 1920POPC   C4A27966  12.673   4.796   7.755
 1920POPC   C1B27967  12.677   5.312   8.815
 1920POPC   C2B27968  12.787   5.440   8.408
 1920POPC   C3B27969  12.688   5.266   8.026
 1920POPC   C4B27970  12.797   5.278   7.633
 1921POPC   NC327971  23.898  20.240   9.747
 1921POPC   PO427972  23.344  20.483   9.523
 1921POPC   GL127973  23.530  20.675   9.171
 1921POPC   GL227974  23.848  20.819   9.300
 1921POPC   C1A27975  23.716  20.488   8.787
 1921POPC   D2A27976  23.884  20.590   8.381
 1921POPC   C3A27977  23.686  20.473   8.032
 1921POPC   C4A27978  23.545  20.638   7.681
 1921POPC   C1B27979  23.943  20.953   8.865
 1921POPC   C2B27980  23.738  21.072   8.486
 1921POPC   C3B27981  23.860  20.997   8.056
 1921POPC   C4B27982  23.733  21.128   7.670
 1922POPC   NC327983  29.154   2.508   9.515
 1922POPC   PO427984  29.341   3.158   9.486
 1922POPC   GL127985  29.163   2.897   9.166
 1922POPC   GL227986  29.286   2.552   9.048
 1922POPC   C1A27987  29.130   2.949   8.752
 1922POPC   D2A27988  29.069   2.711   8.421
 1922POPC   C3A27989  29.341   2.756   8.113
 1922POPC   C4A27990  29.212   2.885   7.732
 1922POPC   C1B27991  29.044   2.347   8.773
 1922POPC   C2B27992  29.104   2.125   8.387
 1922POPC   C3B27993  29.034   2.347   8.028
 1922POPC   C4B27994  29.247   2.383   7.655
 1923POPC   NC327995  13.039  20.086   9.423
 1923POPC   PO427996  12.590  19.575   9.451
 1923POPC   GL127997  12.697  19.769   9.121
 1923POPC   GL227998  12.551  20.070   9.168
 1923POPC   C1A27999  12.718  19.674   8.724
 1923POPC   D2A28000  12.645  19.859   8.364
 1923POPC   C3A28001  12.956  19.685   8.142
 1923POPC   C4A28002  13.026  19.712   7.733
 1923POPC   C1B28003  12.745  20.207   8.774
 1923POPC   C2B28004  12.923  20.308   8.374
 1923POPC   C3B28005  12.814  20.167   7.962
 1923POPC   C4B28006  12.712  20.073   7.535
 1924POPC   NC328007  14.040  32.338   9.617
 1924POPC   PO428008  14.536  31.979   9.522
 1924POPC   GL128009  14.370  32.028   9.116
 1924POPC   GL228010  14.378  32.385   9.118
 1924POPC   C1A28011  14.278  32.039   8.661
 1924POPC   D2A28012  14.237  32.322   8.292
 1924POPC   C3A28013  14.242  32.159   7.878
 1924POPC   C4A28014  14.348  32.297   7.435
 1924POPC   C1B28015  14.595  32.431   8.709
 1924POPC   C2B28016  14.740  32.492   8.299
 1924POPC   C3B28017  14.483  32.606   7.920
 1924POPC   C4B28018  14.254  32.814   7.578
 1925POPC   NC328019  18.170   0.141   9.435
 1925POPC   PO428020  18.400  44.565   9.467
 1925POPC   GL128021  18.331  44.769   9.093
 1925POPC   GL228022  18.419   0.120   8.991
 1925POPC   C1A28023  18.268  44.602   8.694
 1925POPC   D2A28024  18.121  44.465   8.316
 1925POPC   C3A28025  18.502  44.482   8.065
 1925POPC   C4A28026  18.683  44.537   7.680
 1925POPC   C1B28027  17.994   0.040   8.789
 1925POPC   C2B28028  17.851  44.971   8.356
 1925POPC   C3B28029  18.139  44.886   8.043
 1925POPC   C4B28030  18.246  44.974   7.662
 1926POPC   NC328031   0.053  23.215   9.446
 1926POPC   PO428032  44.715  23.772   9.510
 1926POPC   GL128033  44.544  23.639   9.128
 1926POPC   GL228034  44.433  23.990   9.103
 1926POPC   C1A28035  44.569  23.442   8.696
 1926POPC   D2A28036  44.674  23.586   8.260
 1926POPC   C3A28037  44.702  23.312   7.861
 1926POPC   C4A28038  44.544  23.460   7.419
 1926POPC   C1B28039  44.662  23.961   8.735
 1926POPC   C2B28040  44.642  24.134   8.350
 1926POPC   C3B28041  44.820  24.047   7.999
 1926POPC   C4B28042  44.713  23.839   7.709
 1927POPC   NC328043   9.909   3.036   9.603
 1927POPC   PO428044   9.606   2.465   9.753
 1927POPC   GL128045   9.728   2.683   9.300
 1927POPC   GL228046   9.515   2.908   9.144
 1927POPC   C1A28047   9.832   2.614   8.847
 1927POPC   D2A28048   9.914   2.890   8.514
 1927POPC   C3A28049   9.882   2.802   8.061
 1927POPC   C4A28050  10.031   2.975   7.644
 1927POPC   C1B28051   9.513   3.121   8.776
 1927POPC   C2B28052   9.271   3.222   8.430
 1927POPC   C3B28053   9.426   3.123   8.006
 1927POPC   C4B28054   9.537   2.836   7.668
 1928POPC   NC328055   3.169  29.979   9.437
 1928POPC   PO428056   3.784  29.770   9.636
 1928POPC   GL128057   3.603  29.894   9.207
 1928POPC   GL228058   3.842  30.071   9.033
 1928POPC   C1A28059   3.374  30.133   8.811
 1928POPC   D2A28060   3.489  30.185   8.360
 1928POPC   C3A28061   3.201  30.019   8.010
 1928POPC   C4A28062   3.204  30.054   7.533
 1928POPC   C1B28063   3.674  29.738   8.726
 1928POPC   C2B28064   3.536  29.642   8.292
 1928POPC   C3B28065   3.671  29.814   7.907
 1928POPC   C4B28066   3.681  29.925   7.459
 1929POPC   NC328067  27.639  11.589   9.643
 1929POPC   PO428068  27.891  10.994   9.406
 1929POPC   GL128069  27.547  11.256   9.223
 1929POPC   GL228070  27.407  11.609   9.188
 1929POPC   C1A28071  27.462  11.295   8.785
 1929POPC   D2A28072  27.648  11.536   8.456
 1929POPC   C3A28073  27.795  11.317   8.107
 1929POPC   C4A28074  28.002  11.265   7.716
 1929POPC   C1B28075  27.111  11.659   8.837
 1929POPC   C2B28076  27.126  11.534   8.376
 1929POPC   C3B28077  27.156  11.616   7.920
 1929POPC   C4B28078  27.458  11.362   7.714
 1930POPC   NC328079  35.017  20.647   9.409
 1930POPC   PO428080  35.719  20.750   9.504
 1930POPC   GL128081  35.478  20.736   9.150
 1930POPC   GL228082  35.331  21.019   9.025
 1930POPC   C1A28083  35.331  20.496   8.797
 1930POPC   D2A28084  35.096  20.479   8.415
 1930POPC   C3A28085  35.351  20.335   8.082
 1930POPC   C4A28086  35.548  20.440   7.701
 1930POPC   C1B28087  35.182  20.961   8.612
 1930POPC   C2B28088  35.203  20.997   8.178
 1930POPC   C3B28089  35.222  20.870   7.777
 1930POPC   C4B28090  35.101  21.129   7.444
 1931POPC   NC328091  42.759  39.876   9.524
 1931POPC   PO428092  43.345  40.224   9.393
 1931POPC   GL128093  42.969  40.202   9.181
 1931POPC   GL228094  43.063  39.846   9.121
 1931POPC   C1A28095  42.872  40.147   8.753
 1931POPC   D2A28096  43.241  40.229   8.482
 1931POPC   C3A28097  43.161  40.047   8.108
 1931POPC   C4A28098  42.818  40.157   7.919
 1931POPC   C1B28099  42.727  39.667   8.883
 1931POPC   C2B28100  42.734  39.723   8.442
 1931POPC   C3B28101  42.729  39.473   8.089
 1931POPC   C4B28102  42.950  39.676   7.797
 1932POPC   NC328103   4.494  15.687   9.649
 1932POPC   PO428104   3.988  16.071   9.339
 1932POPC   GL128105   4.320  16.112   9.077
 1932POPC   GL228106   4.548  15.868   9.182
 1932POPC   C1A28107   4.246  16.076   8.632
 1932POPC   D2A28108   4.211  16.292   8.253
 1932POPC   C3A28109   4.229  15.933   8.008
 1932POPC   C4A28110   4.368  15.841   7.605
 1932POPC   C1B28111   4.705  15.895   8.771
 1932POPC   C2B28112   4.603  15.796   8.347
 1932POPC   C3B28113   4.668  15.653   7.949
 1932POPC   C4B28114   4.878  15.732   7.567
 1933POPC   NC328115  24.176  31.272   9.563
 1933POPC   PO428116  23.617  31.628   9.413
 1933POPC   GL128117  23.623  31.309   9.148
 1933POPC   GL228118  23.951  31.340   9.113
 1933POPC   C1A28119  23.461  31.332   8.748
 1933POPC   D2A28120  23.666  31.310   8.390
 1933POPC   C3A28121  23.500  31.482   8.076
 1933POPC   C4A28122  23.312  31.321   7.719
 1933POPC   C1B28123  24.151  31.256   8.756
 1933POPC   C2B28124  24.162  31.428   8.389
 1933POPC   C3B28125  24.091  31.352   8.014
 1933POPC   C4B28126  23.822  31.392   7.680
 1934POPC   NC328127  19.548  15.873   9.465
 1934POPC   PO428128  20.073  16.298   9.600
 1934POPC   GL128129  20.178  16.076   9.163
 1934POPC   GL228130  19.864  15.895   9.041
 1934POPC   C1A28131  20.080  16.211   8.714
 1934POPC   D2A28132  19.868  15.915   8.437
 1934POPC   C3A28133  20.039  15.908   8.011
 1934POPC   C4A28134  19.839  16.023   7.620
 1934POPC   C1B28135  19.457  15.823   8.803
 1934POPC   C2B28136  19.400  15.703   8.386
 1934POPC   C3B28137  19.551  15.793   7.985
 1934POPC   C4B28138  19.340  15.916   7.606
 1935POPC   NC328139  21.176  13.217   9.462
 1935POPC   PO428140  21.685  12.688   9.462
 1935POPC   GL128141  21.383  12.845   9.162
 1935POPC   GL228142  21.300  12.558   9.029
 1935POPC   C1A28143  21.254  12.963   8.728
 1935POPC   D2A28144  21.520  12.930   8.377
 1935POPC   C3A28145  21.408  13.226   8.100
 1935POPC   C4A28146  21.482  13.249   7.702
 1935POPC   C1B28147  20.908  12.600   8.826
 1935POPC   C2B28148  20.763  12.589   8.395
 1935POPC   C3B28149  21.096  12.598   8.102
 1935POPC   C4B28150  21.410  12.725   7.811
 1936POPC   NC328151  40.914   9.434   9.492
 1936POPC   PO428152  40.660  10.056   9.751
 1936POPC   GL128153  40.756   9.934   9.327
 1936POPC   GL228154  40.494  10.037   9.096
 1936POPC   C1A28155  40.840   9.692   8.905
 1936POPC   D2A28156  40.729   9.579   8.457
 1936POPC   C3A28157  41.057   9.535   8.100
 1936POPC   C4A28158  40.918   9.537   7.653
 1936POPC   C1B28159  40.561  10.034   8.660
 1936POPC   C2B28160  40.407   9.971   8.279
 1936POPC   C3B28161  40.656   9.825   8.000
 1936POPC   C4B28162  40.859  10.060   7.752
 1937POPC   NC328163  18.601  14.419   9.241
 1937POPC   PO428164  19.177  14.221   9.506
 1937POPC   GL128165  19.171  14.438   9.127
 1937POPC   GL228166  19.317  14.753   9.113
 1937POPC   C1A28167  19.171  14.387   8.682
 1937POPC   D2A28168  19.029  14.159   8.280
 1937POPC   C3A28169  19.195  14.182   7.828
 1937POPC   C4A28170  18.976  14.180   7.392
 1937POPC   C1B28171  19.027  14.867   8.810
 1937POPC   C2B28172  18.908  14.706   8.414
 1937POPC   C3B28173  19.097  14.650   8.032
 1937POPC   C4B28174  18.935  14.618   7.634
 1938POPC   NC328175  12.883  28.821   9.634
 1938POPC   PO428176  12.927  28.224   9.551
 1938POPC   GL128177  12.967  28.298   9.125
 1938POPC   GL228178  13.106  28.660   9.133
 1938POPC   C1A28179  12.672  28.198   8.763
 1938POPC   D2A28180  12.450  28.382   8.376
 1938POPC   C3A28181  12.653  28.367   7.963
 1938POPC   C4A28182  13.017  28.161   7.803
 1938POPC   C1B28183  12.902  28.645   8.753
 1938POPC   C2B28184  12.998  28.498   8.338
 1938POPC   C3B28185  13.071  28.683   7.969
 1938POPC   C4B28186  13.020  28.653   7.552
 1939POPC   NC328187   4.856  39.647   9.557
 1939POPC   PO428188   4.889  40.348   9.591
 1939POPC   GL128189   4.911  40.252   9.142
 1939POPC   GL228190   5.047  39.899   9.156
 1939POPC   C1A28191   5.117  40.169   8.737
 1939POPC   D2A28192   5.334  40.194   8.344
 1939POPC   C3A28193   5.031  40.078   8.027
 1939POPC   C4A28194   4.789  40.262   7.690
 1939POPC   C1B28195   5.245  39.648   8.814
 1939POPC   C2B28196   5.292  39.548   8.377
 1939POPC   C3B28197   5.254  39.603   7.935
 1939POPC   C4B28198   5.157  39.854   7.584
 1940POPC   NC328199   6.610  15.351   9.605
 1940POPC   PO428200   7.024  14.823   9.381
 1940POPC   GL128201   6.612  15.001   9.194
 1940POPC   GL228202   6.720  15.318   9.126
 1940POPC   C1A28203   6.424  15.203   8.759
 1940POPC   D2A28204   6.305  15.015   8.370
 1940POPC   C3A28205   6.522  15.116   7.939
 1940POPC   C4A28206   6.373  15.344   7.547
 1940POPC   C1B28207   6.890  15.020   8.785
 1940POPC   C2B28208   6.804  15.107   8.386
 1940POPC   C3B28209   6.939  15.421   8.125
 1940POPC   C4B28210   7.080  15.194   7.807
 1941POPC   NC328211  42.033  30.021   9.485
 1941POPC   PO428212  42.741  29.823   9.512
 1941POPC   GL128213  42.580  29.964   9.163
 1941POPC   GL228214  42.281  29.750   9.126
 1941POPC   C1A28215  42.609  29.895   8.753
 1941POPC   D2A28216  42.362  29.717   8.471
 1941POPC   C3A28217  42.501  29.792   8.101
 1941POPC   C4A28218  42.647  29.974   7.739
 1941POPC   C1B28219  42.142  30.052   8.823
 1941POPC   C2B28220  42.293  30.211   8.444
 1941POPC   C3B28221  42.208  30.186   8.042
 1941POPC   C4B28222  42.148  29.994   7.647
 1942POPC   NC328223   4.098  36.409   9.435
 1942POPC   PO428224   3.860  35.946   9.237
 1942POPC   GL128225   4.098  36.232   8.946
 1942POPC   GL228226   4.452  36.285   9.070
 1942POPC   C1A28227   4.077  36.270   8.490
 1942POPC   D2A28228   4.354  36.272   8.130
 1942POPC   C3A28229   4.199  36.270   7.698
 1942POPC   C4A28230   3.797  36.372   7.511
 1942POPC   C1B28231   4.575  36.193   8.632
 1942POPC   C2B28232   4.791  36.035   8.261
 1942POPC   C3B28233   4.681  36.009   7.815
 1942POPC   C4B28234   4.538  36.002   7.369
 1943POPC   NC328235  11.086  29.674   9.486
 1943POPC   PO428236  10.581  30.190   9.445
 1943POPC   GL128237  10.444  30.016   9.060
 1943POPC   GL228238  10.551  29.691   9.129
 1943POPC   C1A28239  10.204  30.240   8.758
 1943POPC   D2A28240  10.066  30.186   8.393
 1943POPC   C3A28241  10.363  29.962   8.116
 1943POPC   C4A28242  10.271  30.028   7.678
 1943POPC   C1B28243  10.828  29.863   8.778
 1943POPC   C2B28244  10.981  29.852   8.360
 1943POPC   C3B28245  10.894  29.621   8.020
 1943POPC   C4B28246  10.735  29.847   7.707
 1944POPC   NC328247  11.464  21.695   9.661
 1944POPC   PO428248  11.138  22.311   9.668
 1944POPC   GL128249  11.391  22.205   9.358
 1944POPC   GL228250  11.150  22.358   9.143
 1944POPC   C1A28251  11.569  22.129   8.964
 1944POPC   D2A28252  11.375  22.079   8.571
 1944POPC   C3A28253  11.492  22.132   8.151
 1944POPC   C4A28254  11.352  21.935   7.782
 1944POPC   C1B28255  11.043  22.506   8.734
 1944POPC   C2B28256  11.097  22.442   8.290
 1944POPC   C3B28257  11.202  22.425   7.855
 1944POPC   C4B28258  11.055  22.669   7.590
 1945POPC   NC328259  27.675  14.399   9.782
 1945POPC   PO428260  27.682  14.197   9.148
 1945POPC   GL128261  27.578  14.511   8.905
 1945POPC   GL228262  27.375  14.754   9.036
 1945POPC   C1A28263  27.770  14.558   8.553
 1945POPC   D2A28264  27.583  14.187   8.401
 1945POPC   C3A28265  27.794  14.127   8.059
 1945POPC   C4A28266  27.748  14.402   7.741
 1945POPC   C1B28267  27.268  14.744   8.587
 1945POPC   C2B28268  27.425  14.672   8.195
 1945POPC   C3B28269  27.307  14.582   7.821
 1945POPC   C4B28270  27.387  14.845   7.440
 1946POPC   NC328271   8.864   0.186   9.369
 1946POPC   PO428272   9.331   0.571   9.700
 1946POPC   GL128273   9.149   0.670   9.220
 1946POPC   GL228274   9.056   0.417   8.921
 1946POPC   C1A28275   8.983   0.899   8.840
 1946POPC   D2A28276   9.170   0.713   8.460
 1946POPC   C3A28277   8.971   0.435   8.191
 1946POPC   C4A28278   8.905   0.432   7.765
 1946POPC   C1B28279   9.319   0.218   8.599
 1946POPC   C2B28280   9.313   0.045   8.189
 1946POPC   C3B28281   9.360   0.239   7.826
 1946POPC   C4B28282   9.257   0.219   7.417
 1947POPC   NC328283  40.320  36.567   9.471
 1947POPC   PO428284  40.922  36.771   9.516
 1947POPC   GL128285  40.849  36.920   9.139
 1947POPC   GL228286  40.549  36.986   9.160
 1947POPC   C1A28287  40.717  36.752   8.760
 1947POPC   D2A28288  40.915  36.748   8.403
 1947POPC   C3A28289  40.640  36.742   8.086
 1947POPC   C4A28290  40.840  36.987   7.808
 1947POPC   C1B28291  40.430  37.207   8.828
 1947POPC   C2B28292  40.535  37.120   8.441
 1947POPC   C3B28293  40.587  37.287   8.095
 1947POPC   C4B28294  40.441  37.433   7.726
 1948POPC   NC328295  44.790  36.374   9.942
 1948POPC   PO428296  44.853  35.991   9.420
 1948POPC   GL128297  44.657  35.774   9.117
 1948POPC   GL228298  44.923  35.659   8.941
 1948POPC   C1A28299  44.453  35.853   8.723
 1948POPC   D2A28300  44.567  35.871   8.304
 1948POPC   C3A28301  44.371  36.166   7.999
 1948POPC   C4A28302  44.422  36.184   7.544
 1948POPC   C1B28303  44.921  36.081   8.754
 1948POPC   C2B28304  44.762  36.317   8.398
 1948POPC   C3B28305  44.875  36.230   7.966
 1948POPC   C4B28306  44.785  36.512   7.670
 1949POPC   NC328307  30.276   8.772   9.484
 1949POPC   PO428308  29.603   8.739   9.399
 1949POPC   GL128309  29.959   8.741   9.071
 1949POPC   GL228310  30.373   8.634   9.027
 1949POPC   C1A28311  30.020   9.069   8.769
 1949POPC   D2A28312  29.745   9.284   8.446
 1949POPC   C3A28313  29.864   9.238   8.001
 1949POPC   C4A28314  29.601   9.219   7.586
 1949POPC   C1B28315  30.215   8.616   8.661
 1949POPC   C2B28316  30.233   8.863   8.314
 1949POPC   C3B28317  30.242   8.711   7.923
 1949POPC   C4B28318  29.892   8.813   7.711
 1950POPC   NC328319  33.762  14.163   9.457
 1950POPC   PO428320  33.846  14.801   9.263
 1950POPC   GL128321  33.589  14.572   9.013
 1950POPC   GL228322  33.467  14.233   9.066
 1950POPC   C1A28323  33.754  14.474   8.624
 1950POPC   D2A28324  34.124  14.380   8.334
 1950POPC   C3A28325  34.130  14.711   8.006
 1950POPC   C4A28326  33.945  14.735   7.594
 1950POPC   C1B28327  33.475  14.035   8.704
 1950POPC   C2B28328  33.683  14.101   8.308
 1950POPC   C3B28329  33.769  14.341   7.930
 1950POPC   C4B28330  33.674  14.219   7.504
 1951POPC   NC328331  42.441  15.711   9.526
 1951POPC   PO428332  41.938  16.083   9.490
 1951POPC   GL128333  42.125  15.873   9.129
 1951POPC   GL228334  42.480  16.000   9.089
 1951POPC   C1A28335  42.310  15.659   8.761
 1951POPC   D2A28336  42.255  15.453   8.400
 1951POPC   C3A28337  42.206  15.765   8.096
 1951POPC   C4A28338  42.020  15.884   7.734
 1951POPC   C1B28339  42.432  16.142   8.630
 1951POPC   C2B28340  42.432  16.234   8.162
 1951POPC   C3B28341  42.433  16.296   7.689
 1951POPC   C4B28342  42.542  16.337   7.223
 1952POPC   NC328343   4.017  30.995  10.101
 1952POPC   PO428344   4.001  31.257   9.455
 1952POPC   GL128345   4.283  31.308   9.068
 1952POPC   GL228346   4.241  31.667   9.017
 1952POPC   C1A28347   4.447  31.289   8.627
 1952POPC   D2A28348   4.399  31.597   8.288
 1952POPC   C3A28349   4.289  31.423   7.918
 1952POPC   C4A28350   4.644  31.148   7.820
 1952POPC   C1B28351   4.009  31.557   8.637
 1952POPC   C2B28352   3.922  31.733   8.204
 1952POPC   C3B28353   4.144  31.912   7.867
 1952POPC   C4B28354   4.310  31.693   7.475
 1953POPC   NC328355  21.611  17.249   9.638
 1953POPC   PO428356  21.431  17.827   9.270
 1953POPC   GL128357  21.703  17.696   9.015
 1953POPC   GL228358  21.613  17.359   9.009
 1953POPC   C1A28359  21.644  17.758   8.639
 1953POPC   D2A28360  21.306  17.788   8.394
 1953POPC   C3A28361  21.497  17.579   8.100
 1953POPC   C4A28362  21.634  17.779   7.737
 1953POPC   C1B28363  21.200  17.452   8.777
 1953POPC   C2B28364  20.887  17.457   8.447
 1953POPC   C3B28365  20.973  17.635   8.040
 1953POPC   C4B28366  21.208  17.415   7.737
 1954POPC   NC328367  30.798  12.731   9.493
 1954POPC   PO428368  30.424  13.316   9.561
 1954POPC   GL128369  30.776  13.175   9.226
 1954POPC   GL228370  30.616  12.838   9.048
 1954POPC   C1A28371  30.977  13.041   8.787
 1954POPC   D2A28372  30.635  12.903   8.483
 1954POPC   C3A28373  30.700  12.736   8.090
 1954POPC   C4A28374  30.840  12.797   7.676
 1954POPC   C1B28375  30.500  12.502   8.755
 1954POPC   C2B28376  30.221  12.517   8.416
 1954POPC   C3B28377  30.222  12.587   8.002
 1954POPC   C4B28378  30.545  12.368   7.752
 1955POPC   NC328379  24.189  23.430   9.557
 1955POPC   PO428380  24.820  23.687   9.631
 1955POPC   GL128381  24.683  23.559   9.235
 1955POPC   GL228382  24.403  23.760   9.189
 1955POPC   C1A28383  24.766  23.596   8.816
 1955POPC   D2A28384  24.492  23.651   8.498
 1955POPC   C3A28385  24.492  23.922   8.186
 1955POPC   C4A28386  24.539  23.892   7.760
 1955POPC   C1B28387  24.127  23.633   8.846
 1955POPC   C2B28388  23.988  23.715   8.411
 1955POPC   C3B28389  24.078  23.563   7.985
 1955POPC   C4B28390  24.149  23.645   7.549
 1956POPC   NC328391  35.529  13.793   9.356
 1956POPC   PO428392  35.070  13.387   9.461
 1956POPC   GL128393  35.250  13.386   9.072
 1956POPC   GL228394  35.587  13.342   9.075
 1956POPC   C1A28395  35.361  13.562   8.679
 1956POPC   D2A28396  35.300  13.529   8.258
 1956POPC   C3A28397  35.257  13.929   8.060
 1956POPC   C4A28398  35.216  13.712   7.710
 1956POPC   C1B28399  35.681  13.138   8.686
 1956POPC   C2B28400  35.777  13.276   8.250
 1956POPC   C3B28401  35.541  13.257   7.869
 1956POPC   C4B28402  35.671  13.421   7.497
 1957POPC   NC328403  41.114  24.953   9.315
 1957POPC   PO428404  40.539  25.362   9.466
 1957POPC   GL128405  40.689  25.279   9.084
 1957POPC   GL228406  40.994  25.394   9.057
 1957POPC   C1A28407  40.639  25.282   8.637
 1957POPC   D2A28408  40.499  24.952   8.339
 1957POPC   C3A28409  40.770  24.994   7.983
 1957POPC   C4A28410  40.669  25.458   7.887
 1957POPC   C1B28411  41.146  25.334   8.656
 1957POPC   C2B28412  41.024  25.371   8.234
 1957POPC   C3B28413  41.174  25.510   7.810
 1957POPC   C4B28414  41.154  25.594   7.323
 1958POPC   NC328415  33.882  25.369   9.533
 1958POPC   PO428416  33.555  24.762   9.596
 1958POPC   GL128417  33.815  24.934   9.241
 1958POPC   GL228418  34.077  25.085   9.089
 1958POPC   C1A28419  33.637  25.214   8.856
 1958POPC   D2A28420  33.444  25.278   8.419
 1958POPC   C3A28421  33.669  25.328   8.003
 1958POPC   C4A28422  33.823  25.238   7.583
 1958POPC   C1B28423  34.131  25.398   8.783
 1958POPC   C2B28424  34.007  25.401   8.362
 1958POPC   C3B28425  34.197  25.406   7.929
 1958POPC   C4B28426  34.304  25.418   7.475
 1959POPC   NC328427  36.289  24.576   9.527
 1959POPC   PO428428  35.753  24.073   9.574
 1959POPC   GL128429  35.922  24.415   9.196
 1959POPC   GL228430  36.289  24.440   9.034
 1959POPC   C1A28431  35.911  24.648   8.754
 1959POPC   D2A28432  36.262  24.647   8.416
 1959POPC   C3A28433  36.183  24.686   7.981
 1959POPC   C4A28434  35.860  24.712   7.694
 1959POPC   C1B28435  36.155  24.215   8.651
 1959POPC   C2B28436  35.870  24.261   8.327
 1959POPC   C3B28437  35.936  24.236   7.919
 1959POPC   C4B28438  36.347  24.130   7.777
 1960POPC   NC328439  14.832  18.950   9.447
 1960POPC   PO428440  14.189  19.253   9.533
 1960POPC   GL128441  14.395  19.072   9.192
 1960POPC   GL228442  14.703  19.277   9.083
 1960POPC   C1A28443  14.359  18.797   8.838
 1960POPC   D2A28444  14.586  18.824   8.471
 1960POPC   C3A28445  14.298  18.830   8.145
 1960POPC   C4A28446  14.221  18.967   7.759
 1960POPC   C1B28447  14.471  19.313   8.717
 1960POPC   C2B28448  14.583  19.452   8.304
 1960POPC   C3B28449  14.525  19.373   7.879
 1960POPC   C4B28450  14.493  19.293   7.455
 1961POPC   NC328451  38.159   8.108   9.235
 1961POPC   PO428452  38.663   8.500   9.509
 1961POPC   GL128453  38.603   8.407   9.130
 1961POPC   GL228454  38.318   8.623   9.094
 1961POPC   C1A28455  38.624   8.131   8.795
 1961POPC   D2A28456  38.321   8.106   8.468
 1961POPC   C3A28457  38.495   8.132   8.067
 1961POPC   C4A28458  38.620   8.323   7.703
 1961POPC   C1B28459  38.519   8.657   8.694
 1961POPC   C2B28460  38.380   8.594   8.286
 1961POPC   C3B28461  38.209   8.570   7.854
 1961POPC   C4B28462  38.220   8.438   7.388
 1962POPC   NC328463  41.572  37.843   9.542
 1962POPC   PO428464  41.196  37.322   9.440
 1962POPC   GL128465  41.413  37.515   9.118
 1962POPC   GL228466  41.775  37.655   9.113
 1962POPC   C1A28467  41.442  37.443   8.699
 1962POPC   D2A28468  41.729  37.578   8.403
 1962POPC   C3A28469  41.587  37.450   8.031
 1962POPC   C4A28470  41.420  37.812   7.789
 1962POPC   C1B28471  42.019  37.810   8.777
 1962POPC   C2B28472  41.983  38.009   8.342
 1962POPC   C3B28473  41.913  37.864   7.975
 1962POPC   C4B28474  41.898  37.599   7.652
 1963POPC   NC328475  26.073  26.584   9.945
 1963POPC   PO428476  25.698  26.800   9.393
 1963POPC   GL128477  25.944  26.695   9.033
 1963POPC   GL228478  25.723  26.513   8.817
 1963POPC   C1A28479  26.000  26.903   8.629
 1963POPC   D2A28480  25.749  26.966   8.267
 1963POPC   C3A28481  26.038  27.057   7.953
 1963POPC   C4A28482  26.249  27.017   7.578
 1963POPC   C1B28483  26.064  26.387   8.543
 1963POPC   C2B28484  26.206  26.636   8.213
 1963POPC   C3B28485  26.099  26.571   7.789
 1963POPC   C4B28486  25.860  26.728   7.461
 1964POPC   NC328487  24.387  39.601   9.536
 1964POPC   PO428488  24.525  40.265   9.510
 1964POPC   GL128489  24.781  40.171   9.122
 1964POPC   GL228490  24.752  39.799   9.203
 1964POPC   C1A28491  24.701  40.154   8.634
 1964POPC   D2A28492  24.326  40.163   8.392
 1964POPC   C3A28493  24.430  40.342   8.002
 1964POPC   C4A28494  24.746  40.218   7.688
 1964POPC   C1B28495  24.460  39.756   8.869
 1964POPC   C2B28496  24.604  39.688   8.454
 1964POPC   C3B28497  24.649  39.893   8.091
 1964POPC   C4B28498  24.535  39.782   7.679
 1965POPC   NC328499  14.019   6.389   9.376
 1965POPC   PO428500  14.452   6.865   9.393
 1965POPC   GL128501  14.432   6.579   9.073
 1965POPC   GL228502  14.692   6.315   9.137
 1965POPC   C1A28503  14.460   6.658   8.643
 1965POPC   D2A28504  14.282   6.761   8.227
 1965POPC   C3A28505  14.271   6.445   7.884
 1965POPC   C4A28506  14.349   6.253   7.453
 1965POPC   C1B28507  14.561   6.146   8.724
 1965POPC   C2B28508  14.514   6.257   8.298
 1965POPC   C3B28509  14.763   6.347   7.939
 1965POPC   C4B28510  14.845   6.249   7.545
 1966POPC   NC328511  19.096   4.106   9.445
 1966POPC   PO428512  19.364   4.795   9.650
 1966POPC   GL128513  19.298   4.547   9.264
 1966POPC   GL228514  19.056   4.669   9.015
 1966POPC   C1A28515  19.495   4.428   8.865
 1966POPC   D2A28516  19.465   4.500   8.435
 1966POPC   C3A28517  19.103   4.442   8.112
 1966POPC   C4A28518  18.995   4.353   7.672
 1966POPC   C1B28519  18.992   4.286   8.768
 1966POPC   C2B28520  18.806   4.102   8.407
 1966POPC   C3B28521  18.707   4.060   7.994
 1966POPC   C4B28522  18.577   4.080   7.536
 1967POPC   NC328523   3.668  18.576   9.513
 1967POPC   PO428524   3.911  17.926   9.465
 1967POPC   GL128525   3.600  18.150   9.137
 1967POPC   GL228526   3.527  18.471   9.043
 1967POPC   C1A28527   3.295  18.086   8.798
 1967POPC   D2A28528   3.541  18.284   8.469
 1967POPC   C3A28529   3.598  18.132   8.122
 1967POPC   C4A28530   3.379  17.911   7.902
 1967POPC   C1B28531   3.572  18.720   8.713
 1967POPC   C2B28532   3.531  18.776   8.279
 1967POPC   C3B28533   3.800  18.580   7.964
 1967POPC   C4B28534   3.671  18.290   7.648
 1968POPC   NC328535  24.110  35.335   9.682
 1968POPC   PO428536  23.658  35.040   9.461
 1968POPC   GL128537  23.937  35.110   9.145
 1968POPC   GL228538  24.067  35.446   9.186
 1968POPC   C1A28539  23.689  35.327   8.839
 1968POPC   D2A28540  23.454  35.587   8.565
 1968POPC   C3A28541  23.355  35.292   8.284
 1968POPC   C4A28542  23.446  35.154   7.898
 1968POPC   C1B28543  24.195  35.414   8.776
 1968POPC   C2B28544  23.967  35.429   8.420
 1968POPC   C3B28545  23.942  35.203   8.073
 1968POPC   C4B28546  23.888  35.352   7.707
 1969POPC   NC328547  14.163  21.947   9.348
 1969POPC   PO428548  13.491  22.028   9.375
 1969POPC   GL128549  13.757  22.042   9.046
 1969POPC   GL228550  13.894  22.376   9.158
 1969POPC   C1A28551  13.582  21.901   8.650
 1969POPC   D2A28552  13.271  22.008   8.320
 1969POPC   C3A28553  13.477  22.145   7.934
 1969POPC   C4A28554  13.803  22.031   7.579
 1969POPC   C1B28555  13.645  22.448   8.786
 1969POPC   C2B28556  13.710  22.313   8.373
 1969POPC   C3B28557  13.946  22.278   8.011
 1969POPC   C4B28558  14.000  22.507   7.632
 1970POPC   NC328559  44.440  42.815   9.334
 1970POPC   PO428560  44.629  42.253   9.663
 1970POPC   GL128561  44.710  42.380   9.219
 1970POPC   GL228562  44.998  42.589   9.130
 1970POPC   C1A28563  44.834  42.197   8.804
 1970POPC   D2A28564   0.092  42.375   8.474
 1970POPC   C3A28565  44.966  42.276   8.086
 1970POPC   C4A28566  44.618  42.143   7.893
 1970POPC   C1B28567  44.746  42.667   8.756
 1970POPC   C2B28568  44.568  42.461   8.392
 1970POPC   C3B28569  44.320  42.570   8.043
 1970POPC   C4B28570  44.675  42.653   7.836
 1971POPC   NC328571  17.091   6.785   9.579
 1971POPC   PO428572  16.524   6.430   9.472
 1971POPC   GL128573  16.566   6.746   9.145
 1971POPC   GL228574  16.927   6.706   9.097
 1971POPC   C1A28575  16.407   6.700   8.716
 1971POPC   D2A28576  16.389   6.389   8.358
 1971POPC   C3A28577  16.364   6.626   7.952
 1971POPC   C4A28578  16.368   6.902   7.571
 1971POPC   C1B28579  16.897   6.529   8.697
 1971POPC   C2B28580  16.774   6.705   8.314
 1971POPC   C3B28581  16.882   6.575   7.929
 1971POPC   C4B28582  16.852   6.735   7.520
 1972POPC   NC328583  33.277  25.874   9.589
 1972POPC   PO428584  32.689  26.241   9.531
 1972POPC   GL128585  32.958  26.070   9.218
 1972POPC   GL228586  33.312  25.970   9.101
 1972POPC   C1A28587  32.939  26.008   8.778
 1972POPC   D2A28588  32.746  26.021   8.417
 1972POPC   C3A28589  33.010  26.119   8.094
 1972POPC   C4A28590  33.044  26.080   7.678
 1972POPC   C1B28591  33.309  25.659   8.771
 1972POPC   C2B28592  33.121  25.677   8.360
 1972POPC   C3B28593  33.321  25.712   7.930
 1972POPC   C4B28594  33.329  25.684   7.453
 1973POPC   NC328595  29.903  17.937   9.523
 1973POPC   PO428596  29.951  18.609   9.469
 1973POPC   GL128597  29.992  18.401   9.078
 1973POPC   GL228598  30.134  18.060   9.044
 1973POPC   C1A28599  29.914  18.439   8.657
 1973POPC   D2A28600  29.713  18.277   8.303
 1973POPC   C3A28601  30.007  18.237   7.977
 1973POPC   C4A28602  29.993  18.441   7.583
 1973POPC   C1B28603  29.709  17.983   8.870
 1973POPC   C2B28604  29.386  17.937   8.569
 1973POPC   C3B28605  29.343  17.975   8.120
 1973POPC   C4B28606  29.612  18.038   7.720
 1974POPC   NC328607   2.934   6.075   9.279
 1974POPC   PO428608   2.398   5.731   9.637
 1974POPC   GL128609   2.485   5.618   9.184
 1974POPC   GL228610   2.832   5.611   9.113
 1974POPC   C1A28611   2.519   5.754   8.714
 1974POPC   D2A28612   2.585   6.129   8.419
 1974POPC   C3A28613   2.958   6.162   8.138
 1974POPC   C4A28614   3.044   6.028   7.711
 1974POPC   C1B28615   3.044   5.591   8.747
 1974POPC   C2B28616   2.904   5.676   8.365
 1974POPC   C3B28617   2.821   5.540   7.983
 1974POPC   C4B28618   2.934   5.516   7.589
 1975POPC   NC328619   1.305  21.263   9.547
 1975POPC   PO428620   1.452  21.924   9.376
 1975POPC   GL128621   1.327  21.537   9.101
 1975POPC   GL228622   1.479  21.146   9.101
 1975POPC   C1A28623   1.056  21.578   8.727
 1975POPC   D2A28624   0.805  21.474   8.348
 1975POPC   C3A28625   0.972  21.399   7.957
 1975POPC   C4A28626   1.201  21.297   7.564
 1975POPC   C1B28627   1.177  21.085   8.777
 1975POPC   C2B28628   1.096  21.033   8.341
 1975POPC   C3B28629   1.345  21.050   8.007
 1975POPC   C4B28630   1.655  21.095   7.768
 1976POPC   NC328631  30.297   7.265   9.584
 1976POPC   PO428632  30.855   7.703   9.523
 1976POPC   GL128633  30.698   7.633   9.149
 1976POPC   GL228634  30.665   7.272   9.177
 1976POPC   C1A28635  30.839   7.739   8.748
 1976POPC   D2A28636  30.856   7.505   8.387
 1976POPC   C3A28637  30.641   7.594   8.027
 1976POPC   C4A28638  30.412   7.546   7.674
 1976POPC   C1B28639  30.486   7.344   8.772
 1976POPC   C2B28640  30.394   7.263   8.378
 1976POPC   C3B28641  30.699   7.065   8.133
 1976POPC   C4B28642  30.684   7.090   7.697
 1977POPC   NC328643  20.851  32.518   9.417
 1977POPC   PO428644  20.809  31.837   9.352
 1977POPC   GL128645  20.536  32.107   9.067
 1977POPC   GL228646  20.622  32.475   8.959
 1977POPC   C1A28647  20.347  32.055   8.629
 1977POPC   D2A28648  20.325  32.048   8.148
 1977POPC   C3A28649  20.653  31.936   7.846
 1977POPC   C4A28650  20.632  31.940   7.348
 1977POPC   C1B28651  21.010  32.614   8.741
 1977POPC   C2B28652  21.172  32.441   8.357
 1977POPC   C3B28653  21.066  32.265   7.968
 1977POPC   C4B28654  20.810  32.365   7.606
 1978POPC   NC328655   3.147  23.002   9.397
 1978POPC   PO428656   3.772  22.809   9.482
 1978POPC   GL128657   3.527  22.790   9.132
 1978POPC   GL228658   3.717  22.560   8.981
 1978POPC   C1A28659   3.473  22.983   8.742
 1978POPC   D2A28660   3.769  23.135   8.440
 1978POPC   C3A28661   3.574  23.017   8.084
 1978POPC   C4A28662   3.291  23.024   7.782
 1978POPC   C1B28663   3.818  22.637   8.564
 1978POPC   C2B28664   3.860  22.591   8.126
 1978POPC   C3B28665   3.653  22.606   7.749
 1978POPC   C4B28666   3.762  22.598   7.253
 1979POPC   NC328667   4.200  41.232   9.885
 1979POPC   PO428668   4.434  41.752   9.483
 1979POPC   GL128669   4.564  41.505   9.139
 1979POPC   GL228670   4.216  41.451   9.122
 1979POPC   C1A28671   4.482  41.480   8.701
 1979POPC   D2A28672   4.161  41.513   8.430
 1979POPC   C3A28673   4.383  41.406   8.105
 1979POPC   C4A28674   4.541  41.297   7.737
 1979POPC   C1B28675   3.978  41.776   8.863
 1979POPC   C2B28676   3.895  41.969   8.443
 1979POPC   C3B28677   3.888  41.759   8.040
 1979POPC   C4B28678   4.148  41.625   7.712
 1980POPC   NC328679   7.318   7.523   9.524
 1980POPC   PO428680   7.124   6.908   9.540
 1980POPC   GL128681   7.260   7.161   9.142
 1980POPC   GL228682   7.143   7.513   9.062
 1980POPC   C1A28683   7.549   7.333   8.785
 1980POPC   D2A28684   7.554   7.539   8.366
 1980POPC   C3A28685   7.449   7.347   7.985
 1980POPC   C4A28686   7.779   7.211   7.770
 1980POPC   C1B28687   7.237   7.737   8.729
 1980POPC   C2B28688   7.078   7.668   8.322
 1980POPC   C3B28689   7.288   7.822   7.964
 1980POPC   C4B28690   7.136   7.845   7.561
 1981POPC   NC328691   9.789  26.466   9.295
 1981POPC   PO428692   9.809  27.148   9.508
 1981POPC   GL128693   9.585  26.935   9.208
 1981POPC   GL228694   9.345  27.185   9.220
 1981POPC   C1A28695   9.711  26.793   8.772
 1981POPC   D2A28696   9.949  26.880   8.422
 1981POPC   C3A28697   9.743  26.761   8.054
 1981POPC   C4A28698   9.997  26.822   7.710
 1981POPC   C1B28699   9.540  27.284   8.832
 1981POPC   C2B28700   9.493  27.105   8.437
 1981POPC   C3B28701   9.474  27.280   8.068
 1981POPC   C4B28702   9.418  27.022   7.749
 1982POPC   NC328703  28.608  35.361   9.446
 1982POPC   PO428704  27.995  34.974   9.615
 1982POPC   GL128705  28.226  35.085   9.209
 1982POPC   GL228706  28.569  35.004   9.094
 1982POPC   C1A28707  28.286  35.288   8.764
 1982POPC   D2A28708  28.397  35.570   8.393
 1982POPC   C3A28709  28.354  35.443   7.963
 1982POPC   C4A28710  28.395  35.200   7.576
 1982POPC   C1B28711  28.539  34.846   8.680
 1982POPC   C2B28712  28.565  35.085   8.300
 1982POPC   C3B28713  28.771  34.989   7.892
 1982POPC   C4B28714  28.724  34.830   7.445
 1983POPC   NC328715   8.371  10.368   9.500
 1983POPC   PO428716   7.690  10.584   9.632
 1983POPC   GL128717   7.917  10.450   9.239
 1983POPC   GL228718   7.672  10.191   9.171
 1983POPC   C1A28719   8.173  10.560   8.838
 1983POPC   D2A28720   8.460  10.622   8.461
 1983POPC   C3A28721   8.316  10.541   8.043
 1983POPC   C4A28722   8.173  10.706   7.669
 1983POPC   C1B28723   7.944  10.092   8.803
 1983POPC   C2B28724   8.239  10.164   8.446
 1983POPC   C3B28725   8.235  10.025   7.994
 1983POPC   C4B28726   7.991  10.227   7.672
 1984POPC   NC328727  22.799  32.415   9.674
 1984POPC   PO428728  23.299  31.981   9.771
 1984POPC   GL128729  23.030  32.036   9.386
 1984POPC   GL228730  23.301  32.114   9.209
 1984POPC   C1A28731  22.860  32.033   8.925
 1984POPC   D2A28732  22.656  32.091   8.484
 1984POPC   C3A28733  22.897  32.160   8.079
 1984POPC   C4A28734  22.832  31.977   7.649
 1984POPC   C1B28735  23.213  32.451   8.913
 1984POPC   C2B28736  23.118  32.464   8.465
 1984POPC   C3B28737  23.170  32.610   8.027
 1984POPC   C4B28738  23.139  32.392   7.626
 1985POPC   NC328739  11.731  17.478   9.465
 1985POPC   PO428740  12.300  17.734   9.363
 1985POPC   GL128741  11.992  17.594   9.042
 1985POPC   GL228742  11.695  17.843   9.118
 1985POPC   C1A28743  12.059  17.310   8.692
 1985POPC   D2A28744  12.237  17.020   8.346
 1985POPC   C3A28745  12.167  17.183   7.904
 1985POPC   C4A28746  12.247  17.328   7.468
 1985POPC   C1B28747  11.586  17.723   8.734
 1985POPC   C2B28748  11.805  17.791   8.355
 1985POPC   C3B28749  11.800  17.657   7.945
 1985POPC   C4B28750  11.962  17.724   7.549
 1986POPC   NC328751   7.472  14.891   9.396
 1986POPC   PO428752   7.078  15.337   9.640
 1986POPC   GL128753   7.219  15.226   9.142
 1986POPC   GL228754   7.569  15.255   9.053
 1986POPC   C1A28755   7.278  15.296   8.667
 1986POPC   D2A28756   7.295  14.958   8.387
 1986POPC   C3A28757   7.506  15.173   8.122
 1986POPC   C4A28758   7.572  15.185   7.727
 1986POPC   C1B28759   7.629  14.858   8.768
 1986POPC   C2B28760   7.863  14.826   8.361
 1986POPC   C3B28761   7.745  14.756   7.922
 1986POPC   C4B28762   7.862  14.862   7.480
 1987POPC   NC328763   8.701  16.830   9.660
 1987POPC   PO428764   9.319  16.500   9.468
 1987POPC   GL128765   9.056  16.749   9.226
 1987POPC   GL228766   8.875  16.504   9.087
 1987POPC   C1A28767   8.929  16.919   8.806
 1987POPC   D2A28768   9.028  16.936   8.398
 1987POPC   C3A28769   8.710  17.014   8.143
 1987POPC   C4A28770   8.880  16.822   7.812
 1987POPC   C1B28771   8.948  16.411   8.659
 1987POPC   C2B28772   8.819  16.466   8.224
 1987POPC   C3B28773   8.911  16.309   7.803
 1987POPC   C4B28774   8.859  16.382   7.343
 1988POPC   NC328775   4.957  42.713   9.731
 1988POPC   PO428776   5.229  42.127   9.531
 1988POPC   GL128777   5.044  42.265   9.167
 1988POPC   GL228778   5.154  42.603   9.206
 1988POPC   C1A28779   4.902  42.173   8.737
 1988POPC   D2A28780   5.059  41.931   8.372
 1988POPC   C3A28781   5.047  42.124   7.988
 1988POPC   C4A28782   4.944  42.137   7.565
 1988POPC   C1B28783   5.298  42.486   8.780
 1988POPC   C2B28784   5.375  42.316   8.390
 1988POPC   C3B28785   5.387  42.518   7.980
 1988POPC   C4B28786   5.265  42.527   7.547
 1989POPC   NC328787   1.516   0.263   9.538
 1989POPC   PO428788   1.187   0.868   9.618
 1989POPC   GL128789   1.138   0.545   9.267
 1989POPC   GL228790   1.467   0.513   9.122
 1989POPC   C1A28791   1.009   0.431   8.812
 1989POPC   D2A28792   0.876   0.248   8.389
 1989POPC   C3A28793   0.876   0.532   8.028
 1989POPC   C4A28794   1.097   0.477   7.623
 1989POPC   C1B28795   1.422   0.131   8.881
 1989POPC   C2B28796   1.430   0.204   8.456
 1989POPC   C3B28797   1.276   0.205   8.042
 1989POPC   C4B28798   1.472   0.071   7.684
 1990POPC   NC328799  27.723  44.003   9.379
 1990POPC   PO428800  27.113  43.858   9.569
 1990POPC   GL128801  27.290  43.839   9.143
 1990POPC   GL228802  27.354  44.178   9.063
 1990POPC   C1A28803  27.579  43.830   8.757
 1990POPC   D2A28804  27.734  44.030   8.378
 1990POPC   C3A28805  27.553  43.838   8.006
 1990POPC   C4A28806  27.713  43.817   7.610
 1990POPC   C1B28807  27.422  44.359   8.664
 1990POPC   C2B28808  27.262  44.201   8.235
 1990POPC   C3B28809  27.393  44.269   7.788
 1990POPC   C4B28810  27.265  44.176   7.348
 1991POPC   NC328811  32.448  28.984   9.625
 1991POPC   PO428812  32.018  29.447   9.487
 1991POPC   GL128813  32.059  29.262   9.120
 1991POPC   GL228814  32.432  29.250   9.135
 1991POPC   C1A28815  32.025  29.449   8.729
 1991POPC   D2A28816  32.209  29.352   8.357
 1991POPC   C3A28817  31.989  29.058   8.112
 1991POPC   C4A28818  32.055  29.104   7.676
 1991POPC   C1B28819  32.419  29.058   8.724
 1991POPC   C2B28820  32.666  29.008   8.349
 1991POPC   C3B28821  32.488  29.111   7.980
 1991POPC   C4B28822  32.549  29.064   7.567
 1992POPC   NC328823   5.271  22.087   9.431
 1992POPC   PO428824   4.615  21.875   9.354
 1992POPC   GL128825   4.867  22.218   9.118
 1992POPC   GL228826   5.238  22.313   8.990
 1992POPC   C1A28827   4.901  22.146   8.666
 1992POPC   D2A28828   5.067  22.006   8.286
 1992POPC   C3A28829   4.796  22.150   7.973
 1992POPC   C4A28830   4.771  22.472   7.713
 1992POPC   C1B28831   5.440  22.279   8.598
 1992POPC   C2B28832   5.467  22.426   8.162
 1992POPC   C3B28833   5.299  22.369   7.718
 1992POPC   C4B28834   5.401  22.166   7.286
 1993POPC   NC328835  20.249  24.434   9.567
 1993POPC   PO428836  20.875  24.318   9.629
 1993POPC   GL128837  20.857  24.353   9.147
 1993POPC   GL228838  20.533  24.446   9.097
 1993POPC   C1A28839  20.961  24.610   8.753
 1993POPC   D2A28840  20.819  24.872   8.388
 1993POPC   C3A28841  20.799  24.665   8.004
 1993POPC   C4A28842  20.735  24.305   7.744
 1993POPC   C1B28843  20.450  24.617   8.685
 1993POPC   C2B28844  20.333  24.733   8.257
 1993POPC   C3B28845  20.294  24.541   7.852
 1993POPC   C4B28846  20.240  24.222   7.510
 1994POPC   NC328847  32.853  12.153   9.801
 1994POPC   PO428848  32.249  11.775   9.614
 1994POPC   GL128849  32.391  11.914   9.176
 1994POPC   GL228850  32.562  12.237   9.077
 1994POPC   C1A28851  32.108  12.123   8.852
 1994POPC   D2A28852  31.853  11.970   8.509
 1994POPC   C3A28853  32.089  12.105   8.159
 1994POPC   C4A28854  32.172  12.058   7.721
 1994POPC   C1B28855  32.603  12.021   8.670
 1994POPC   C2B28856  32.625  12.127   8.228
 1994POPC   C3B28857  32.400  12.463   7.984
 1994POPC   C4B28858  32.089  12.550   7.660
 1995POPC   NC328859  27.177   8.286   9.449
 1995POPC   PO428860  26.713   7.752   9.591
 1995POPC   GL128861  26.791   7.973   9.184
 1995POPC   GL228862  26.614   8.289   9.171
 1995POPC   C1A28863  27.094   7.963   8.794
 1995POPC   D2A28864  27.181   7.729   8.384
 1995POPC   C3A28865  26.967   7.898   8.024
 1995POPC   C4A28866  27.106   8.267   7.817
 1995POPC   C1B28867  26.631   8.157   8.718
 1995POPC   C2B28868  26.857   8.304   8.351
 1995POPC   C3B28869  26.781   8.573   8.000
 1995POPC   C4B28870  26.839   8.596   7.501
 1996POPC   NC328871   1.776  42.001   9.263
 1996POPC   PO428872   1.873  42.718   9.312
 1996POPC   GL128873   2.121  42.363   9.157
 1996POPC   GL228874   2.443  42.377   9.091
 1996POPC   C1A28875   2.119  42.176   8.725
 1996POPC   D2A28876   1.907  42.425   8.396
 1996POPC   C3A28877   1.983  42.259   8.016
 1996POPC   C4A28878   1.910  41.983   7.704
 1996POPC   C1B28879   2.316  42.653   8.748
 1996POPC   C2B28880   2.431  42.653   8.338
 1996POPC   C3B28881   2.245  42.745   7.954
 1996POPC   C4B28882   1.905  42.648   7.702
 1997POPC   NC328883  16.113   6.683   9.546
 1997POPC   PO428884  15.863   6.062   9.718
 1997POPC   GL128885  15.874   6.320   9.251
 1997POPC   GL228886  15.810   6.691   9.158
 1997POPC   C1A28887  15.983   6.395   8.770
 1997POPC   D2A28888  16.000   6.702   8.393
 1997POPC   C3A28889  15.834   6.534   8.036
 1997POPC   C4A28890  15.911   6.662   7.658
 1997POPC   C1B28891  15.792   6.919   8.797
 1997POPC   C2B28892  15.797   7.181   8.414
 1997POPC   C3B28893  15.639   7.033   8.023
 1997POPC   C4B28894  15.508   6.948   7.614
 1998POPC   NC328895  23.659  12.755   9.509
 1998POPC   PO428896  24.057  13.169   9.687
 1998POPC   GL128897  23.980  12.941   9.194
 1998POPC   GL228898  23.747  12.632   9.025
 1998POPC   C1A28899  23.848  13.029   8.747
 1998POPC   D2A28900  23.845  12.755   8.416
 1998POPC   C3A28901  23.910  12.885   8.025
 1998POPC   C4A28902  23.927  13.239   7.751
 1998POPC   C1B28903  23.706  12.336   8.692
 1998POPC   C2B28904  23.576  12.323   8.278
 1998POPC   C3B28905  23.434  12.684   8.063
 1998POPC   C4B28906  23.585  12.860   7.634
 1999POPC   NC328907  28.407  13.824   9.568
 1999POPC   PO428908  28.061  13.304   9.419
 1999POPC   GL128909  28.399  13.455   9.187
 1999POPC   GL228910  28.589  13.212   8.991
 1999POPC   C1A28911  28.466  13.655   8.807
 1999POPC   D2A28912  28.370  13.467   8.404
 1999POPC   C3A28913  28.313  13.689   8.014
 1999POPC   C4A28914  27.932  13.709   7.795
 1999POPC   C1B28915  28.845  13.376   8.623
 1999POPC   C2B28916  28.809  13.280   8.209
 1999POPC   C3B28917  28.750  13.455   7.826
 1999POPC   C4B28918  28.484  13.413   7.447
 2000POPC   NC328919  28.434   9.346   9.817
 2000POPC   PO428920  28.369   8.699   9.411
 2000POPC   GL128921  28.423   8.607   9.001
 2000POPC   GL228922  28.387   8.943   8.910
 2000POPC   C1A28923  28.136   8.604   8.642
 2000POPC   D2A28924  28.099   8.987   8.403
 2000POPC   C3A28925  28.175   8.899   7.970
 2000POPC   C4A28926  28.468   8.661   7.738
 2000POPC   C1B28927  28.636   9.284   8.758
 2000POPC   C2B28928  28.433   9.436   8.423
 2000POPC   C3B28929  28.530   9.280   8.027
 2000POPC   C4B28930  28.687   9.433   7.649
 2001POPC   NC328931   5.659  23.656   9.454
 2001POPC   PO428932   6.264  23.968   9.432
 2001POPC   GL128933   5.969  23.898   9.098
 2001POPC   GL228934   5.807  23.582   8.980
 2001POPC   C1A28935   5.787  24.032   8.720
 2001POPC   D2A28936   5.924  24.152   8.295
 2001POPC   C3A28937   5.739  23.896   8.036
 2001POPC   C4A28938   5.845  23.830   7.662
 2001POPC   C1B28939   5.635  23.399   8.617
 2001POPC   C2B28940   5.598  23.433   8.169
 2001POPC   C3B28941   5.793  23.302   7.793
 2001POPC   C4B28942   6.121  23.400   7.500
 2002POPC   NC328943  27.761  17.663   9.672
 2002POPC   PO428944  27.151  17.291   9.523
 2002POPC   GL128945  27.434  17.554   9.271
 2002POPC   GL228946  27.768  17.398   9.227
 2002POPC   C1A28947  27.490  17.596   8.826
 2002POPC   D2A28948  27.378  17.336   8.475
 2002POPC   C3A28949  27.516  17.551   8.121
 2002POPC   C4A28950  27.522  17.860   7.828
 2002POPC   C1B28951  27.999  17.466   8.874
 2002POPC   C2B28952  27.878  17.437   8.462
 2002POPC   C3B28953  28.049  17.572   8.060
 2002POPC   C4B28954  27.949  17.622   7.631
 2003POPC   NC328955  16.103  19.881   9.657
 2003POPC   PO428956  15.577  20.021   9.397
 2003POPC   GL128957  15.861  19.749   9.179
 2003POPC   GL228958  16.251  19.730   9.187
 2003POPC   C1A28959  15.828  19.867   8.759
 2003POPC   D2A28960  16.009  19.811   8.394
 2003POPC   C3A28961  15.774  19.756   8.087
 2003POPC   C4A28962  15.784  20.040   7.807
 2003POPC   C1B28963  16.205  19.511   8.796
 2003POPC   C2B28964  16.285  19.326   8.401
 2003POPC   C3B28965  16.247  19.515   8.018
 2003POPC   C4B28966  16.107  19.675   7.649
 2004POPC   NC328967   4.277  24.100   9.659
 2004POPC   PO428968   3.979  23.570   9.573
 2004POPC   GL128969   4.260  23.759   9.279
 2004POPC   GL228970   4.303  23.447   9.122
 2004POPC   C1A28971   4.343  23.902   8.874
 2004POPC   D2A28972   4.261  23.836   8.455
 2004POPC   C3A28973   4.540  23.853   8.105
 2004POPC   C4A28974   4.464  23.920   7.665
 2004POPC   C1B28975   4.136  23.397   8.706
 2004POPC   C2B28976   4.370  23.362   8.302
 2004POPC   C3B28977   4.349  23.444   7.845
 2004POPC   C4B28978   4.093  23.369   7.473
 2005POPC   NC328979  28.424  19.920   9.545
 2005POPC   PO428980  27.895  19.597   9.547
 2005POPC   GL128981  28.000  19.953   9.225
 2005POPC   GL228982  28.340  20.122   9.080
 2005POPC   C1A28983  27.986  19.907   8.773
 2005POPC   D2A28984  28.142  19.630   8.429
 2005POPC   C3A28985  28.229  19.922   8.106
 2005POPC   C4A28986  27.962  20.129   7.796
 2005POPC   C1B28987  28.517  19.785   8.768
 2005POPC   C2B28988  28.696  19.691   8.326
 2005POPC   C3B28989  28.591  19.654   7.885
 2005POPC   C4B28990  28.534  20.111   7.717
 2006POPC   NC328991  37.955  16.259   9.360
 2006POPC   PO428992  37.875  15.620   9.684
 2006POPC   GL128993  37.550  15.718   9.259
 2006POPC   GL228994  37.506  16.051   9.164
 2006POPC   C1A28995  37.424  15.788   8.756
 2006POPC   D2A28996  37.706  16.048   8.444
 2006POPC   C3A28997  37.704  15.859   8.046
 2006POPC   C4A28998  37.857  15.685   7.676
 2006POPC   C1B28999  37.399  16.288   8.764
 2006POPC   C2B29000  37.281  16.301   8.300
 2006POPC   C3B29001  37.558  16.316   7.908
 2006POPC   C4B29002  37.607  16.160   7.485
 2007POPC   NC329003  17.233   1.857   9.378
 2007POPC   PO429004  17.649   2.402   9.510
 2007POPC   GL129005  17.483   2.208   9.125
 2007POPC   GL229006  17.795   2.104   9.108
 2007POPC   C1A29007  17.574   1.992   8.680
 2007POPC   D2A29008  17.698   1.993   8.250
 2007POPC   C3A29009  17.382   2.031   7.925
 2007POPC   C4A29010  17.133   1.810   7.605
 2007POPC   C1B29011  18.071   1.871   8.837
 2007POPC   C2B29012  17.990   1.582   8.493
 2007POPC   C3B29013  18.106   1.712   8.088
 2007POPC   C4B29014  17.908   1.956   7.786
 2008POPC   NC329015  27.902   3.203   9.490
 2008POPC   PO429016  27.442   3.691   9.412
 2008POPC   GL129017  27.577   3.410   9.117
 2008POPC   GL229018  27.901   3.543   9.126
 2008POPC   C1A29019  27.693   3.412   8.687
 2008POPC   D2A29020  27.589   3.202   8.335
 2008POPC   C3A29021  27.505   3.561   8.083
 2008POPC   C4A29022  27.617   3.761   7.708
 2008POPC   C1B29023  28.155   3.267   8.893
 2008POPC   C2B29024  28.150   3.218   8.470
 2008POPC   C3B29025  28.012   3.414   8.133
 2008POPC   C4B29026  27.995   3.402   7.734
 2009POPC   NC329027  32.515   9.728   9.690
 2009POPC   PO429028  31.913   9.430   9.765
 2009POPC   GL129029  32.065   9.666   9.242
 2009POPC   GL229030  32.160   9.977   9.203
 2009POPC   C1A29031  32.203   9.594   8.815
 2009POPC   D2A29032  32.355   9.728   8.414
 2009POPC   C3A29033  32.217   9.548   8.039
 2009POPC   C4A29034  31.946   9.466   7.715
 2009POPC   C1B29035  32.359  10.100   8.811
 2009POPC   C2B29036  32.469  10.213   8.373
 2009POPC   C3B29037  32.307  10.102   7.967
 2009POPC   C4B29038  32.148   9.913   7.591
 2010POPC   NC329039  44.442  20.894   9.329
 2010POPC   PO429040  44.955  20.636   9.615
 2010POPC   GL129041  44.872  20.527   9.178
 2010POPC   GL229042  44.852  20.838   9.027
 2010POPC   C1A29043  44.996  20.464   8.716
 2010POPC   D2A29044  44.759  20.268   8.432
 2010POPC   C3A29045  44.842  20.463   8.067
 2010POPC   C4A29046  44.551  20.514   7.760
 2010POPC   C1B29047  44.523  20.621   8.760
 2010POPC   C2B29048  44.433  20.711   8.351
 2010POPC   C3B29049  44.179  20.814   8.014
 2010POPC   C4B29050  44.293  20.934   7.603
 2011POPC   NC329051   5.021  26.410   9.407
 2011POPC   PO429052   5.282  25.844   9.507
 2011POPC   GL129053   4.932  25.885   9.225
 2011POPC   GL229054   5.091  26.135   8.985
 2011POPC   C1A29055   4.773  25.769   8.820
 2011POPC   D2A29056   4.847  26.069   8.458
 2011POPC   C3A29057   4.800  25.899   8.032
 2011POPC   C4A29058   5.038  25.910   7.644
 2011POPC   C1B29059   5.195  26.473   8.689
 2011POPC   C2B29060   5.257  26.351   8.278
 2011POPC   C3B29061   5.036  26.358   7.914
 2011POPC   C4B29062   5.052  26.740   7.727
 2012POPC   NC329063  31.697  43.790   9.542
 2012POPC   PO429064  32.316  43.999   9.560
 2012POPC   GL129065  32.251  43.862   9.141
 2012POPC   GL229066  32.493  44.128   9.069
 2012POPC   C1A29067  32.375  43.751   8.714
 2012POPC   D2A29068  32.165  43.859   8.325
 2012POPC   C3A29069  32.370  43.768   7.932
 2012POPC   C4A29070  32.166  43.665   7.539
 2012POPC   C1B29071  32.605  44.271   8.668
 2012POPC   C2B29072  32.546  44.188   8.254
 2012POPC   C3B29073  32.482  44.321   7.860
 2012POPC   C4B29074  32.367  44.118   7.522
 2013POPC   NC329075   8.132  41.228   9.350
 2013POPC   PO429076   7.901  40.664   9.660
 2013POPC   GL129077   7.974  40.556   9.174
 2013POPC   GL229078   8.096  40.881   9.001
 2013POPC   C1A29079   8.234  40.455   8.790
 2013POPC   D2A29080   8.135  40.792   8.489
 2013POPC   C3A29081   8.170  40.781   8.049
 2013POPC   C4A29082   7.952  40.939   7.714
 2013POPC   C1B29083   8.394  41.167   8.754
 2013POPC   C2B29084   8.456  41.171   8.323
 2013POPC   C3B29085   8.297  41.259   7.947
 2013POPC   C4B29086   8.464  41.031   7.609
 2014POPC   NC329087  21.091  29.339   9.473
 2014POPC   PO429088  21.760  29.120   9.392
 2014POPC   GL129089  21.550  29.479   9.072
 2014POPC   GL229090  21.181  29.617   9.039
 2014POPC   C1A29091  21.387  29.462   8.597
 2014POPC   D2A29092  21.491  29.160   8.281
 2014POPC   C3A29093  21.548  29.193   7.847
 2014POPC   C4A29094  21.505  29.003   7.454
 2014POPC   C1B29095  20.958  29.292   8.814
 2014POPC   C2B29096  20.964  29.197   8.391
 2014POPC   C3B29097  21.000  29.049   7.986
 2014POPC   C4B29098  21.073  29.267   7.629
 2015POPC   NC329099  14.944  44.429   9.562
 2015POPC   PO429100  15.254  44.891   9.560
 2015POPC   GL129101  15.246  44.647   9.159
 2015POPC   GL229102  15.027  44.367   9.050
 2015POPC   C1A29103  15.227  44.691   8.697
 2015POPC   D2A29104  15.161  44.477   8.297
 2015POPC   C3A29105  15.276  44.669   7.880
 2015POPC   C4A29106  15.560  44.655   7.497
 2015POPC   C1B29107  14.775  44.414   8.662
 2015POPC   C2B29108  14.714  44.220   8.264
 2015POPC   C3B29109  14.951  44.254   7.867
 2015POPC   C4B29110  14.910  44.576   7.524
 2016POPC   NC329111  22.557  36.822   9.454
 2016POPC   PO429112  23.241  37.081   9.449
 2016POPC   GL129113  22.926  37.055   9.138
 2016POPC   GL229114  23.005  36.735   9.124
 2016POPC   C1A29115  22.845  37.061   8.679
 2016POPC   D2A29116  22.717  36.933   8.242
 2016POPC   C3A29117  22.996  37.031   7.882
 2016POPC   C4A29118  23.247  36.793   7.581
 2016POPC   C1B29119  23.113  36.608   8.749
 2016POPC   C2B29120  23.246  36.756   8.347
 2016POPC   C3B29121  23.135  36.520   7.998
 2016POPC   C4B29122  22.765  36.584   7.761
 2017POPC   NC329123  14.305  28.038   9.647
 2017POPC   PO429124  14.542  27.342   9.469
 2017POPC   GL129125  14.396  27.469   9.105
 2017POPC   GL229126  14.279  27.752   9.232
 2017POPC   C1A29127  14.192  27.335   8.727
 2017POPC   D2A29128  14.332  27.160   8.327
 2017POPC   C3A29129  14.532  27.425   8.040
 2017POPC   C4A29130  14.345  27.306   7.699
 2017POPC   C1B29131  14.263  27.843   8.778
 2017POPC   C2B29132  14.297  27.720   8.382
 2017POPC   C3B29133  14.341  27.935   8.015
 2017POPC   C4B29134  14.403  27.803   7.631
 2018POPC   NC329135  11.368  32.730   9.603
 2018POPC   PO429136  11.868  33.259   9.540
 2018POPC   GL129137  11.524  33.144   9.205
 2018POPC   GL229138  11.223  32.900   9.160
 2018POPC   C1A29139  11.293  33.223   8.792
 2018POPC   D2A29140  11.184  33.057   8.382
 2018POPC   C3A29141  11.212  33.205   7.950
 2018POPC   C4A29142  11.536  33.039   7.696
 2018POPC   C1B29143  11.023  32.669   8.811
 2018POPC   C2B29144  10.908  32.607   8.359
 2018POPC   C3B29145  11.139  32.658   7.949
 2018POPC   C4B29146  11.068  32.874   7.553
 2019POPC   NC329147  35.016  11.400   9.488
 2019POPC   PO429148  34.260  11.445   9.485
 2019POPC   GL129149  34.596  11.491   9.207
 2019POPC   GL229150  34.636  11.171   9.118
 2019POPC   C1A29151  34.829  11.552   8.805
 2019POPC   D2A29152  34.649  11.534   8.377
 2019POPC   C3A29153  34.842  11.334   8.025
 2019POPC   C4A29154  34.654  11.531   7.689
 2019POPC   C1B29155  34.349  11.300   8.797
 2019POPC   C2B29156  34.300  11.119   8.407
 2019POPC   C3B29157  34.296  11.282   8.033
 2019POPC   C4B29158  34.399  11.089   7.668
 2020POPC   NC329159  33.471  14.907   9.501
 2020POPC   PO429160  32.919  15.293   9.582
 2020POPC   GL129161  33.023  15.146   9.205
 2020POPC   GL229162  32.660  15.154   9.144
 2020POPC   C1A29163  33.281  15.042   8.849
 2020POPC   D2A29164  33.112  15.063   8.441
 2020POPC   C3A29165  33.304  15.244   8.078
 2020POPC   C4A29166  33.203  15.120   7.667
 2020POPC   C1B29167  32.807  15.335   8.768
 2020POPC   C2B29168  32.620  15.315   8.374
 2020POPC   C3B29169  32.791  15.115   8.017
 2020POPC   C4B29170  32.675  14.754   7.791
 2021POPC   NC329171   9.757  21.660   9.492
 2021POPC   PO429172   9.653  21.060   9.765
 2021POPC   GL129173   9.776  21.185   9.290
 2021POPC   GL229174  10.014  21.416   9.126
 2021POPC   C1A29175   9.641  21.177   8.848
 2021POPC   D2A29176   9.817  21.342   8.514
 2021POPC   C3A29177   9.783  21.278   8.085
 2021POPC   C4A29178   9.664  21.476   7.700
 2021POPC   C1B29179  10.068  21.694   8.801
 2021POPC   C2B29180  10.202  21.624   8.370
 2021POPC   C3B29181   9.967  21.790   8.000
 2021POPC   C4B29182   9.819  21.955   7.589
 2022POPC   NC329183  13.229  23.251   9.824
 2022POPC   PO429184  13.680  23.009   9.424
 2022POPC   GL129185  13.770  22.878   9.040
 2022POPC   GL229186  13.584  23.151   8.938
 2022POPC   C1A29187  13.869  22.860   8.598
 2022POPC   D2A29188  13.544  22.809   8.356
 2022POPC   C3A29189  13.615  22.658   7.989
 2022POPC   C4A29190  13.637  22.883   7.689
 2022POPC   C1B29191  13.889  23.330   8.769
 2022POPC   C2B29192  13.991  23.374   8.387
 2022POPC   C3B29193  13.800  23.176   8.073
 2022POPC   C4B29194  13.791  23.356   7.689
 2023POPC   NC329195  11.759  10.569   9.520
 2023POPC   PO429196  12.434  10.744   9.458
 2023POPC   GL129197  12.205  10.480   9.167
 2023POPC   GL229198  11.929  10.670   9.061
 2023POPC   C1A29199  12.311  10.508   8.736
 2023POPC   D2A29200  12.511  10.422   8.349
 2023POPC   C3A29201  12.376  10.593   7.974
 2023POPC   C4A29202  12.255  10.429   7.585
 2023POPC   C1B29203  11.833  10.308   8.793
 2023POPC   C2B29204  11.979  10.294   8.336
 2023POPC   C3B29205  11.868  10.288   7.881
 2023POPC   C4B29206  11.784  10.376   7.400
 2024POPC   NC329207  32.326  31.882   9.665
 2024POPC   PO429208  32.189  32.494   9.420
 2024POPC   GL129209  32.341  32.285   9.103
 2024POPC   GL229210  32.583  32.036   9.213
 2024POPC   C1A29211  32.178  32.290   8.697
 2024POPC   D2A29212  32.370  32.380   8.338
 2024POPC   C3A29213  32.122  32.254   7.981
 2024POPC   C4A29214  32.136  32.054   7.576
 2024POPC   C1B29215  32.475  31.864   8.812
 2024POPC   C2B29216  32.498  31.902   8.390
 2024POPC   C3B29217  32.390  31.792   7.974
 2024POPC   C4B29218  32.739  31.708   7.736
 2025POPC   NC329219  34.735  18.283   9.519
 2025POPC   PO429220  34.168  18.632   9.424
 2025POPC   GL129221  34.391  18.370   9.134
 2025POPC   GL229222  34.686  18.532   9.037
 2025POPC   C1A29223  34.536  18.083   8.820
 2025POPC   D2A29224  34.392  18.022   8.426
 2025POPC   C3A29225  34.584  18.123   8.063
 2025POPC   C4A29226  34.512  18.008   7.651
 2025POPC   C1B29227  34.439  18.576   8.640
 2025POPC   C2B29228  34.487  18.616   8.189
 2025POPC   C3B29229  34.663  18.536   7.757
 2025POPC   C4B29230  34.999  18.295   7.761
 2026POPC   NC329231   7.962  31.156   9.354
 2026POPC   PO429232   8.474  30.766   9.500
 2026POPC   GL129233   8.372  30.523   9.143
 2026POPC   GL229234   8.485  30.784   8.948
 2026POPC   C1A29235   8.200  30.359   8.754
 2026POPC   D2A29236   8.168  30.582   8.355
 2026POPC   C3A29237   8.484  30.547   8.058
 2026POPC   C4A29238   8.283  30.379   7.726
 2026POPC   C1B29239   8.057  30.860   8.789
 2026POPC   C2B29240   8.036  31.131   8.464
 2026POPC   C3B29241   8.316  31.077   8.141
 2026POPC   C4B29242   8.121  30.900   7.782
 2027POPC   NC329243  27.281  13.993   9.279
 2027POPC   PO429244  26.696  14.408   9.395
 2027POPC   GL129245  26.672  14.398   9.014
 2027POPC   GL229246  26.914  14.599   8.919
 2027POPC   C1A29247  26.781  14.174   8.643
 2027POPC   D2A29248  27.006  14.384   8.333
 2027POPC   C3A29249  26.830  14.368   7.949
 2027POPC   C4A29250  26.999  14.222   7.604
 2027POPC   C1B29251  26.641  14.677   8.575
 2027POPC   C2B29252  26.444  14.401   8.302
 2027POPC   C3B29253  26.322  14.365   7.859
 2027POPC   C4B29254  26.575  14.471   7.483
 2028POPC   NC329255  28.607  33.553   9.323
 2028POPC   PO429256  28.249  34.081   9.682
 2028POPC   GL129257  28.296  34.043   9.224
 2028POPC   GL229258  28.613  34.009   9.041
 2028POPC   C1A29259  28.150  33.894   8.790
 2028POPC   D2A29260  28.008  33.863   8.341
 2028POPC   C3A29261  28.215  34.029   7.933
 2028POPC   C4A29262  28.192  34.112   7.456
 2028POPC   C1B29263  28.611  34.004   8.584
 2028POPC   C2B29264  28.748  33.710   8.261
 2028POPC   C3B29265  28.606  33.653   7.839
 2028POPC   C4B29266  28.819  33.981   7.633
 2029POPC   NC329267  37.162  22.972   9.601
 2029POPC   PO429268  36.642  22.562   9.538
 2029POPC   GL129269  36.978  22.610   9.177
 2029POPC   GL229270  37.096  22.938   9.122
 2029POPC   C1A29271  37.013  22.693   8.709
 2029POPC   D2A29272  36.853  22.952   8.414
 2029POPC   C3A29273  36.996  22.926   8.034
 2029POPC   C4A29274  36.816  22.809   7.662
 2029POPC   C1B29275  37.006  23.209   8.833
 2029POPC   C2B29276  37.178  23.330   8.443
 2029POPC   C3B29277  37.353  23.287   8.065
 2029POPC   C4B29278  37.055  23.301   7.711
 2030POPC   NC329279   9.653  27.625   9.532
 2030POPC   PO429280  10.276  27.874   9.611
 2030POPC   GL129281  10.005  27.821   9.201
 2030POPC   GL229282   9.607  27.768   9.066
 2030POPC   C1A29283  10.002  27.527   8.850
 2030POPC   D2A29284   9.830  27.497   8.410
 2030POPC   C3A29285   9.970  27.243   8.046
 2030POPC   C4A29286   9.774  27.360   7.637
 2030POPC   C1B29287   9.706  27.929   8.680
 2030POPC   C2B29288   9.806  28.022   8.259
 2030POPC   C3B29289   9.832  27.830   7.841
 2030POPC   C4B29290   9.805  27.816   7.373
 2031POPC   NC329291  14.069  23.747   9.603
 2031POPC   PO429292  14.691  24.020   9.450
 2031POPC   GL129293  14.468  23.751   9.131
 2031POPC   GL229294  14.152  23.570   9.137
 2031POPC   C1A29295  14.511  23.795   8.696
 2031POPC   D2A29296  14.493  23.547   8.301
 2031POPC   C3A29297  14.480  23.724   7.899
 2031POPC   C4A29298  14.763  23.593   7.584
 2031POPC   C1B29299  14.033  23.800   8.797
 2031POPC   C2B29300  14.078  23.876   8.378
 2031POPC   C3B29301  13.996  23.705   7.991
 2031POPC   C4B29302  14.090  23.965   7.634
 2032POPC   NC329303  26.543  28.816   9.338
 2032POPC   PO429304  26.988  29.359   9.504
 2032POPC   GL129305  26.774  29.240   9.146
 2032POPC   GL229306  26.973  28.947   9.127
 2032POPC   C1A29307  26.780  29.282   8.658
 2032POPC   D2A29308  26.737  29.558   8.285
 2032POPC   C3A29309  26.564  29.354   7.926
 2032POPC   C4A29310  26.654  29.291   7.482
 2032POPC   C1B29311  27.080  28.852   8.704
 2032POPC   C2B29312  26.971  28.948   8.275
 2032POPC   C3B29313  26.911  28.692   7.915
 2032POPC   C4B29314  27.157  28.771   7.575
 2033POPC   NC329315  29.565  36.770   9.418
 2033POPC   PO429316  30.016  37.159   9.717
 2033POPC   GL129317  30.007  37.168   9.222
 2033POPC   GL229318  29.754  37.004   9.012
 2033POPC   C1A29319  30.235  37.008   8.828
 2033POPC   D2A29320  30.057  36.676   8.573
 2033POPC   C3A29321  30.125  36.746   8.146
 2033POPC   C4A29322  30.187  36.844   7.737
 2033POPC   C1B29323  29.571  36.655   8.758
 2033POPC   C2B29324  29.624  36.718   8.312
 2033POPC   C3B29325  29.757  37.060   8.005
 2033POPC   C4B29326  29.731  37.117   7.574
 2034POPC   NC329327  31.222   1.361   9.666
 2034POPC   PO429328  30.674   0.997   9.497
 2034POPC   GL129329  30.508   1.077   9.090
 2034POPC   GL229330  30.787   1.305   9.063
 2034POPC   C1A29331  30.642   1.010   8.675
 2034POPC   D2A29332  30.705   1.189   8.282
 2034POPC   C3A29333  30.514   1.005   7.913
 2034POPC   C4A29334  30.588   1.215   7.523
 2034POPC   C1B29335  30.674   1.543   8.687
 2034POPC   C2B29336  30.818   1.717   8.313
 2034POPC   C3B29337  30.743   1.628   7.892
 2034POPC   C4B29338  30.552   1.706   7.508
 2035POPC   NC329339   9.347  44.932   9.649
 2035POPC   PO429340   9.831  44.469   9.734
 2035POPC   GL129341   9.835  44.500   9.288
 2035POPC   GL229342   9.717  44.851   9.258
 2035POPC   C1A29343   9.619  44.506   8.889
 2035POPC   D2A29344   9.451  44.701   8.546
 2035POPC   C3A29345   9.610  44.631   8.141
 2035POPC   C4A29346   9.428  44.756   7.721
 2035POPC   C1B29347   9.745   0.007   8.831
 2035POPC   C2B29348   9.800   0.066   8.421
 2035POPC   C3B29349   9.822   0.089   8.013
 2035POPC   C4B29350   9.941  44.794   7.735
 2036POPC   NC329351   6.124  20.262   9.330
 2036POPC   PO429352   5.605  19.991   9.649
 2036POPC   GL129353   5.756  19.884   9.238
 2036POPC   GL229354   5.702  20.171   9.057
 2036POPC   C1A29355   5.919  19.682   8.853
 2036POPC   D2A29356   5.946  19.699   8.389
 2036POPC   C3A29357   5.777  19.514   7.998
 2036POPC   C4A29358   5.924  19.582   7.557
 2036POPC   C1B29359   5.642  20.058   8.635
 2036POPC   C2B29360   5.792  20.163   8.232
 2036POPC   C3B29361   5.799  20.029   7.808
 2036POPC   C4B29362   5.876  20.100   7.382
 2037POPC   NC329363  10.955  17.200   9.514
 2037POPC   PO429364  11.347  17.733   9.499
 2037POPC   GL129365  11.179  17.614   9.119
 2037POPC   GL229366  11.376  17.344   9.114
 2037POPC   C1A29367  11.105  17.467   8.695
 2037POPC   D2A29368  11.370  17.482   8.343
 2037POPC   C3A29369  11.139  17.495   8.024
 2037POPC   C4A29370  11.341  17.572   7.699
 2037POPC   C1B29371  11.558  17.207   8.743
 2037POPC   C2B29372  11.750  17.159   8.313
 2037POPC   C3B29373  11.637  17.188   7.923
 2037POPC   C4B29374  11.720  17.296   7.521
 2038POPC   NC329375  37.866  27.991   9.503
 2038POPC   PO429376  37.634  28.565   9.602
 2038POPC   GL129377  37.722  28.418   9.207
 2038POPC   GL229378  37.496  28.164   9.122
 2038POPC   C1A29379  37.968  28.291   8.863
 2038POPC   D2A29380  37.988  28.503   8.453
 2038POPC   C3A29381  37.851  28.461   8.018
 2038POPC   C4A29382  37.871  28.173   7.695
 2038POPC   C1B29383  37.498  28.370   8.717
 2038POPC   C2B29384  37.581  28.173   8.331
 2038POPC   C3B29385  37.402  28.206   7.920
 2038POPC   C4B29386  37.464  28.546   7.620
 2039POPC   NC329387   4.408  18.073   9.511
 2039POPC   PO429388   4.159  18.751   9.543
 2039POPC   GL129389   4.354  18.495   9.200
 2039POPC   GL229390   4.074  18.320   9.174
 2039POPC   C1A29391   4.465  18.176   8.857
 2039POPC   D2A29392   4.648  17.900   8.523
 2039POPC   C3A29393   4.515  18.009   8.111
 2039POPC   C4A29394   4.527  18.006   7.667
 2039POPC   C1B29395   3.981  18.329   8.739
 2039POPC   C2B29396   4.055  18.086   8.344
 2039POPC   C3B29397   4.060  18.064   7.873
 2039POPC   C4B29398   4.163  18.380   7.537
 2040POPC   NC329399  34.659  35.828   9.459
 2040POPC   PO429400  34.033  36.125   9.663
 2040POPC   GL129401  34.296  36.161   9.296
 2040POPC   GL229402  34.120  35.967   9.073
 2040POPC   C1A29403  34.590  36.174   8.887
 2040POPC   D2A29404  34.797  36.301   8.469
 2040POPC   C3A29405  34.778  36.178   8.019
 2040POPC   C4A29406  34.688  36.342   7.595
 2040POPC   C1B29407  34.371  35.733   8.740
 2040POPC   C2B29408  34.570  35.786   8.326
 2040POPC   C3B29409  34.420  35.833   7.889
 2040POPC   C4B29410  34.332  35.751   7.413
 2041POPC   NC329411  14.725  20.609   9.527
 2041POPC   PO429412  14.061  20.777   9.521
 2041POPC   GL129413  14.359  20.778   9.198
 2041POPC   GL229414  14.453  20.449   9.118
 2041POPC   C1A29415  14.478  20.822   8.765
 2041POPC   D2A29416  14.496  20.582   8.378
 2041POPC   C3A29417  14.416  20.757   7.976
 2041POPC   C4A29418  14.662  20.586   7.677
 2041POPC   C1B29419  14.292  20.283   8.745
 2041POPC   C2B29420  14.129  20.228   8.330
 2041POPC   C3B29421  14.321  20.231   7.908
 2041POPC   C4B29422  14.222  20.346   7.472
 2042POPC   NC329423  17.395  31.098   9.432
 2042POPC   PO429424  17.448  31.728   9.473
 2042POPC   GL129425  17.620  31.490   9.139
 2042POPC   GL229426  17.332  31.381   8.984
 2042POPC   C1A29427  17.734  31.479   8.682
 2042POPC   D2A29428  17.718  31.635   8.254
 2042POPC   C3A29429  17.454  31.508   7.902
 2042POPC   C4A29430  17.204  31.697   7.575
 2042POPC   C1B29431  17.280  31.268   8.540
 2042POPC   C2B29432  17.259  31.093   8.128
 2042POPC   C3B29433  17.049  31.228   7.728
 2042POPC   C4B29434  16.991  31.322   7.277
 2043POPC   NC329435  21.669   3.989   9.694
 2043POPC   PO429436  21.967   4.584   9.527
 2043POPC   GL129437  22.052   4.435   9.134
 2043POPC   GL229438  22.374   4.539   9.058
 2043POPC   C1A29439  22.109   4.276   8.696
 2043POPC   D2A29440  22.127   4.040   8.300
 2043POPC   C3A29441  21.917   4.184   7.929
 2043POPC   C4A29442  22.033   4.450   7.579
 2043POPC   C1B29443  22.569   4.676   8.722
 2043POPC   C2B29444  22.367   4.813   8.364
 2043POPC   C3B29445  22.260   4.621   8.014
 2043POPC   C4B29446  22.522   4.639   7.693
 2044POPC   NC329447  39.194  33.278   9.608
 2044POPC   PO429448  38.977  32.607   9.510
 2044POPC   GL129449  39.192  32.815   9.154
 2044POPC   GL229450  39.268  33.177   9.128
 2044POPC   C1A29451  39.282  32.878   8.716
 2044POPC   D2A29452  39.063  33.005   8.354
 2044POPC   C3A29453  39.274  32.837   8.027
 2044POPC   C4A29454  39.405  32.881   7.582
 2044POPC   C1B29455  39.363  33.432   8.797
 2044POPC   C2B29456  39.400  33.365   8.385
 2044POPC   C3B29457  39.183  33.326   7.982
 2044POPC   C4B29458  39.298  33.377   7.585
 2045POPC   NC329459  27.328  25.072   9.507
 2045POPC   PO429460  27.815  25.738   9.577
 2045POPC   GL129461  27.828  25.573   9.110
 2045POPC   GL229462  27.628  25.225   9.084
 2045POPC   C1A29463  27.661  25.564   8.696
 2045POPC   D2A29464  27.521  25.253   8.366
 2045POPC   C3A29465  27.596  25.494   8.031
 2045POPC   C4A29466  27.864  25.503   7.683
 2045POPC   C1B29467  27.816  25.077   8.754
 2045POPC   C2B29468  27.903  24.927   8.379
 2045POPC   C3B29469  27.894  25.068   7.993
 2045POPC   C4B29470  27.669  25.031   7.676
 2046POPC   NC329471  13.012  14.584   9.516
 2046POPC   PO429472  12.431  14.521   9.578
 2046POPC   GL129473  12.563  14.424   9.153
 2046POPC   GL229474  12.900  14.414   9.049
 2046POPC   C1A29475  12.552  14.510   8.701
 2046POPC   D2A29476  12.933  14.579   8.464
 2046POPC   C3A29477  12.886  14.513   8.037
 2046POPC   C4A29478  12.896  14.753   7.611
 2046POPC   C1B29479  12.711  14.049   8.801
 2046POPC   C2B29480  12.511  14.021   8.378
 2046POPC   C3B29481  12.707  14.001   7.927
 2046POPC   C4B29482  12.978  14.238   7.587
 2047POPC   NC329483  15.631   2.764   9.528
 2047POPC   PO429484  16.233   2.950   9.484
 2047POPC   GL129485  16.143   2.832   9.067
 2047POPC   GL229486  15.804   2.830   9.065
 2047POPC   C1A29487  16.032   3.065   8.675
 2047POPC   D2A29488  16.166   2.962   8.275
 2047POPC   C3A29489  15.819   2.863   8.034
 2047POPC   C4A29490  15.819   2.758   7.631
 2047POPC   C1B29491  15.779   2.619   8.677
 2047POPC   C2B29492  15.685   2.421   8.277
 2047POPC   C3B29493  16.023   2.386   7.954
 2047POPC   C4B29494  16.174   2.405   7.541
 2048POPC   NC329495  19.662  16.542   9.556
 2048POPC   PO429496  20.149  16.988   9.337
 2048POPC   GL129497  20.100  16.729   8.970
 2048POPC   GL229498  19.901  16.495   9.117
 2048POPC   C1A29499  19.801  16.669   8.627
 2048POPC   D2A29500  19.614  16.960   8.334
 2048POPC   C3A29501  19.735  16.990   7.873
 2048POPC   C4A29502  20.149  16.815   7.692
 2048POPC   C1B29503  19.565  16.308   8.916
 2048POPC   C2B29504  19.487  16.249   8.488
 2048POPC   C3B29505  19.688  16.289   8.095
 2048POPC   C4B29506  19.747  16.515   7.728
 2049POPC   NC329507  22.147  28.868   9.526
 2049POPC   PO429508  22.129  28.219   9.632
 2049POPC   GL129509  22.134  28.135   9.179
 2049POPC   GL229510  22.393  27.923   9.100
 2049POPC   C1A29511  22.062  28.424   8.807
 2049POPC   D2A29512  22.300  28.471   8.403
 2049POPC   C3A29513  22.269  28.677   7.996
 2049POPC   C4A29514  22.274  28.530   7.559
 2049POPC   C1B29515  22.442  28.098   8.728
 2049POPC   C2B29516  22.454  27.975   8.314
 2049POPC   C3B29517  22.499  28.209   7.952
 2049POPC   C4B29518  22.565  28.091   7.555
 2050POPC   NC329519  12.350  25.508   9.359
 2050POPC   PO429520  11.754  25.228   9.371
 2050POPC   GL129521  11.970  25.299   9.059
 2050POPC   GL229522  12.208  25.074   9.116
 2050POPC   C1A29523  12.045  25.464   8.671
 2050POPC   D2A29524  12.296  25.576   8.343
 2050POPC   C3A29525  12.112  25.382   8.059
 2050POPC   C4A29526  11.817  25.356   7.750
 2050POPC   C1B29527  12.394  25.025   8.749
 2050POPC   C2B29528  12.623  24.970   8.359
 2050POPC   C3B29529  12.556  24.846   7.937
 2050POPC   C4B29530  12.263  25.089   7.685
 2051POPC   NC329531  27.194   7.432   9.414
 2051POPC   PO429532  27.846   7.232   9.701
 2051POPC   GL129533  27.904   7.303   9.250
 2051POPC   GL229534  27.697   7.565   9.180
 2051POPC   C1A29535  27.777   7.206   8.803
 2051POPC   D2A29536  27.485   7.283   8.436
 2051POPC   C3A29537  27.355   7.013   8.086
 2051POPC   C4A29538  27.549   7.161   7.735
 2051POPC   C1B29539  27.539   7.686   8.768
 2051POPC   C2B29540  27.700   7.761   8.328
 2051POPC   C3B29541  27.508   7.644   7.928
 2051POPC   C4B29542  27.277   7.855   7.600
 2052POPC   NC329543  13.181  25.803   9.246
 2052POPC   PO429544  13.252  26.410   9.417
 2052POPC   GL129545  13.424  26.197   9.027
 2052POPC   GL229546  13.793  26.192   8.943
 2052POPC   C1A29547  13.469  26.101   8.581
 2052POPC   D2A29548  13.798  26.131   8.292
 2052POPC   C3A29549  13.567  26.020   7.936
 2052POPC   C4A29550  13.405  25.914   7.537
 2052POPC   C1B29551  13.875  25.774   8.704
 2052POPC   C2B29552  14.020  25.602   8.291
 2052POPC   C3B29553  13.846  25.619   7.848
 2052POPC   C4B29554  13.915  26.024   7.547
 2053POPC   NC329555   0.525  42.997   9.556
 2053POPC   PO429556  44.868  42.919   9.502
 2053POPC   GL129557   0.217  43.075   9.153
 2053POPC   GL229558   0.514  42.798   9.103
 2053POPC   C1A29559   0.287  43.423   8.779
 2053POPC   D2A29560   0.330  43.629   8.315
 2053POPC   C3A29561   0.381  43.337   7.936
 2053POPC   C4A29562   0.561  42.904   7.883
 2053POPC   C1B29563   0.309  42.759   8.752
 2053POPC   C2B29564   0.357  42.923   8.375
 2053POPC   C3B29565   0.088  42.773   8.118
 2053POPC   C4B29566   0.146  42.599   7.720
 2054POPC   NC329567   5.686  26.063   9.571
 2054POPC   PO429568   6.253  26.188   9.290
 2054POPC   GL129569   5.875  26.025   9.107
 2054POPC   GL229570   5.578  26.273   9.119
 2054POPC   C1A29571   5.762  25.687   8.838
 2054POPC   D2A29572   5.971  25.640   8.456
 2054POPC   C3A29573   6.028  26.056   8.309
 2054POPC   C4A29574   6.010  26.053   7.891
 2054POPC   C1B29575   5.565  26.128   8.696
 2054POPC   C2B29576   5.530  25.911   8.323
 2054POPC   C3B29577   5.488  26.083   7.894
 2054POPC   C4B29578   5.427  26.390   7.554
 2055POPC   NC329579  12.450  18.199   9.380
 2055POPC   PO429580  11.826  18.408   9.354
 2055POPC   GL129581  12.121  18.438   9.064
 2055POPC   GL229582  12.141  18.078   8.992
 2055POPC   C1A29583  12.381  18.395   8.703
 2055POPC   D2A29584  12.204  18.152   8.379
 2055POPC   C3A29585  12.236  18.431   8.035
 2055POPC   C4A29586  12.249  18.673   7.663
 2055POPC   C1B29587  11.788  18.204   8.727
 2055POPC   C2B29588  11.692  18.312   8.314
 2055POPC   C3B29589  11.815  18.173   7.944
 2055POPC   C4B29590  11.614  18.063   7.601
 2056POPC   NC329591  37.129   2.559   9.482
 2056POPC   PO429592  36.558   2.972   9.511
 2056POPC   GL129593  36.829   2.847   9.182
 2056POPC   GL229594  37.097   3.076   9.179
 2056POPC   C1A29595  36.830   2.613   8.808
 2056POPC   D2A29596  36.955   2.464   8.411
 2056POPC   C3A29597  36.907   2.684   8.014
 2056POPC   C4A29598  36.712   2.599   7.602
 2056POPC   C1B29599  37.275   2.877   8.808
 2056POPC   C2B29600  37.422   2.976   8.389
 2056POPC   C3B29601  37.321   3.008   7.945
 2056POPC   C4B29602  36.992   3.034   7.643
 2057POPC   NC329603  44.447  12.763   9.559
 2057POPC   PO429604   0.152  12.821   9.505
 2057POPC   GL129605  44.852  12.883   9.122
 2057POPC   GL229606  44.508  12.773   9.074
 2057POPC   C1A29607  44.669  13.069   8.713
 2057POPC   D2A29608  44.315  13.072   8.418
 2057POPC   C3A29609  44.417  13.050   7.976
 2057POPC   C4A29610  44.765  13.105   7.731
 2057POPC   C1B29611  44.520  12.565   8.678
 2057POPC   C2B29612  44.575  12.662   8.262
 2057POPC   C3B29613  44.625  12.569   7.839
 2057POPC   C4B29614  44.641  12.595   7.350
 2058POPC   NC329615  41.657  33.461   9.621
 2058POPC   PO429616  41.623  34.144   9.655
 2058POPC   GL129617  41.659  33.840   9.253
 2058POPC   GL229618  41.822  33.517   9.138
 2058POPC   C1A29619  41.657  33.859   8.791
 2058POPC   D2A29620  41.606  34.141   8.447
 2058POPC   C3A29621  41.567  33.942   8.089
 2058POPC   C4A29622  41.363  33.972   7.722
 2058POPC   C1B29623  41.435  33.414   8.881
 2058POPC   C2B29624  41.338  33.502   8.448
 2058POPC   C3B29625  41.360  33.506   7.999
 2058POPC   C4B29626  41.698  33.557   7.726
 2059POPC   NC329627  12.460  32.220   9.488
 2059POPC   PO429628  11.745  32.395   9.612
 2059POPC   GL129629  12.037  32.375   9.237
 2059POPC   GL229630  12.209  32.119   9.059
 2059POPC   C1A29631  11.858  32.356   8.788
 2059POPC   D2A29632  11.951  32.518   8.417
 2059POPC   C3A29633  11.980  32.279   8.040
 2059POPC   C4A29634  12.294  32.123   7.777
 2059POPC   C1B29635  12.067  31.900   8.697
 2059POPC   C2B29636  12.012  31.799   8.286
 2059POPC   C3B29637  11.779  31.819   7.917
 2059POPC   C4B29638  11.849  32.066   7.542
 2060POPC   NC329639  37.854  26.619   9.672
 2060POPC   PO429640  37.626  27.180   9.565
 2060POPC   GL129641  37.728  26.882   9.246
 2060POPC   GL229642  37.434  26.648   9.288
 2060POPC   C1A29643  37.826  26.914   8.803
 2060POPC   D2A29644  37.747  26.755   8.400
 2060POPC   C3A29645  37.623  27.046   8.065
 2060POPC   C4A29646  37.676  26.780   7.700
 2060POPC   C1B29647  37.306  26.896   8.913
 2060POPC   C2B29648  37.276  26.926   8.453
 2060POPC   C3B29649  37.309  26.665   8.070
 2060POPC   C4B29650  37.193  26.658   7.627
 2061POPC   NC329651   1.181  15.532   9.786
 2061POPC   PO429652   1.192  16.139   9.574
 2061POPC   GL129653   1.240  16.068   9.159
 2061POPC   GL229654   1.377  15.753   9.221
 2061POPC   C1A29655   1.037  15.901   8.782
 2061POPC   D2A29656   0.946  15.657   8.419
 2061POPC   C3A29657   0.930  15.875   8.018
 2061POPC   C4A29658   1.225  16.101   7.733
 2061POPC   C1B29659   1.556  15.835   8.814
 2061POPC   C2B29660   1.473  15.707   8.374
 2061POPC   C3B29661   1.567  15.773   7.926
 2061POPC   C4B29662   1.485  15.685   7.468
 2062POPC   NC329663  28.049  28.043   9.426
 2062POPC   PO429664  28.310  28.560   9.688
 2062POPC   GL129665  28.318  28.650   9.225
 2062POPC   GL229666  28.273  28.347   9.067
 2062POPC   C1A29667  28.520  28.720   8.811
 2062POPC   D2A29668  28.466  28.599   8.387
 2062POPC   C3A29669  28.644  28.234   8.188
 2062POPC   C4A29670  28.498  28.264   7.789
 2062POPC   C1B29671  28.318  28.149   8.660
 2062POPC   C2B29672  28.314  27.849   8.306
 2062POPC   C3B29673  28.147  27.899   7.896
 2062POPC   C4B29674  28.388  27.835   7.527
 2063POPC   NC329675   6.511  26.558   9.302
 2063POPC   PO429676   6.471  27.124   9.567
 2063POPC   GL129677   6.680  27.001   9.108
 2063POPC   GL229678   6.607  26.701   8.850
 2063POPC   C1A29679   6.693  27.146   8.671
 2063POPC   D2A29680   6.457  26.971   8.338
 2063POPC   C3A29681   6.608  26.670   8.042
 2063POPC   C4A29682   6.340  26.694   7.696
 2063POPC   C1B29683   6.915  26.386   8.721
 2063POPC   C2B29684   7.034  26.419   8.311
 2063POPC   C3B29685   6.988  26.263   7.902
 2063POPC   C4B29686   6.807  26.492   7.556
 2064POPC   NC329687   6.957   8.284   9.477
 2064POPC   PO429688   6.345   8.246   9.160
 2064POPC   GL129689   6.707   8.276   9.009
 2064POPC   GL229690   6.897   7.962   9.099
 2064POPC   C1A29691   6.589   8.280   8.584
 2064POPC   D2A29692   6.389   8.505   8.323
 2064POPC   C3A29693   6.584   8.418   7.980
 2064POPC   C4A29694   6.296   8.544   7.720
 2064POPC   C1B29695   6.746   7.821   8.712
 2064POPC   C2B29696   6.591   7.828   8.303
 2064POPC   C3B29697   6.736   7.933   7.892
 2064POPC   C4B29698   6.521   8.126   7.536
 2065POPC   NC329699  22.021  27.167   9.461
 2065POPC   PO429700  21.851  26.511   9.415
 2065POPC   GL129701  22.043  26.729   9.097
 2065POPC   GL229702  22.336  26.661   8.999
 2065POPC   C1A29703  22.024  26.767   8.634
 2065POPC   D2A29704  22.161  26.976   8.284
 2065POPC   C3A29705  21.998  26.852   7.875
 2065POPC   C4A29706  22.123  26.754   7.473
 2065POPC   C1B29707  22.391  27.076   8.796
 2065POPC   C2B29708  22.611  27.197   8.387
 2065POPC   C3B29709  22.487  27.182   7.933
 2065POPC   C4B29710  22.519  27.076   7.500
 2066POPC   NC329711  33.120   2.431   9.543
 2066POPC   PO429712  33.744   2.764   9.601
 2066POPC   GL129713  33.774   2.720   9.189
 2066POPC   GL229714  33.408   2.714   9.198
 2066POPC   C1A29715  34.028   2.904   8.845
 2066POPC   D2A29716  34.136   3.122   8.441
 2066POPC   C3A29717  34.037   2.886   8.102
 2066POPC   C4A29718  33.893   2.901   7.713
 2066POPC   C1B29719  33.527   3.003   8.863
 2066POPC   C2B29720  33.671   2.925   8.470
 2066POPC   C3B29721  33.518   2.989   8.063
 2066POPC   C4B29722  33.423   2.651   7.806
 2067POPC   NC329723   3.704  10.187   9.455
 2067POPC   PO429724   3.130  10.570   9.490
 2067POPC   GL129725   3.264  10.341   9.136
 2067POPC   GL229726   3.573  10.513   9.102
 2067POPC   C1A29727   3.368  10.288   8.695
 2067POPC   D2A29728   3.519  10.577   8.415
 2067POPC   C3A29729   3.374  10.495   8.011
 2067POPC   C4A29730   3.228  10.201   7.708
 2067POPC   C1B29731   3.859  10.363   8.800
 2067POPC   C2B29732   4.042  10.481   8.438
 2067POPC   C3B29733   3.885  10.640   8.063
 2067POPC   C4B29734   3.771  10.552   7.668
 2068POPC   NC329735  35.050   4.583   9.871
 2068POPC   PO429736  34.566   4.269   9.446
 2068POPC   GL129737  34.514   4.180   9.042
 2068POPC   GL229738  34.870   4.269   8.987
 2068POPC   C1A29739  34.422   4.436   8.704
 2068POPC   D2A29740  34.671   4.714   8.422
 2068POPC   C3A29741  34.571   4.502   8.028
 2068POPC   C4A29742  34.290   4.558   7.679
 2068POPC   C1B29743  34.878   4.267   8.564
 2068POPC   C2B29744  34.566   4.061   8.344
 2068POPC   C3B29745  34.785   4.039   7.976
 2068POPC   C4B29746  34.865   4.269   7.623
 2069POPC   NC329747  15.149  26.019   9.579
 2069POPC   PO429748  14.612  25.730   9.766
 2069POPC   GL129749  14.777  26.055   9.235
 2069POPC   GL229750  15.141  26.165   9.110
 2069POPC   C1A29751  14.816  25.907   8.786
 2069POPC   D2A29752  15.110  25.839   8.416
 2069POPC   C3A29753  15.162  26.032   7.990
 2069POPC   C4A29754  15.152  25.815   7.590
 2069POPC   C1B29755  15.192  26.288   8.713
 2069POPC   C2B29756  15.418  26.280   8.346
 2069POPC   C3B29757  15.497  26.457   7.965
 2069POPC   C4B29758  15.430  26.288   7.589
 2070POPC   NC329759   2.482  29.613   9.323
 2070POPC   PO429760   2.817  30.008   9.727
 2070POPC   GL129761   2.713  30.047   9.244
 2070POPC   GL229762   2.998  29.848   8.992
 2070POPC   C1A29763   2.576  30.014   8.810
 2070POPC   D2A29764   2.887  29.996   8.489
 2070POPC   C3A29765   2.692  29.911   8.100
 2070POPC   C4A29766   2.783  29.855   7.679
 2070POPC   C1B29767   2.780  29.524   8.762
 2070POPC   C2B29768   2.513  29.555   8.461
 2070POPC   C3B29769   2.467  29.449   8.060
 2070POPC   C4B29770   2.512  29.434   7.630
 2071POPC   NC329771   0.702   1.529   9.614
 2071POPC   PO429772   0.227   1.117   9.493
 2071POPC   GL129773   0.503   1.292   9.188
 2071POPC   GL229774   0.240   1.405   9.062
 2071POPC   C1A29775   0.689   1.148   8.787
 2071POPC   D2A29776   0.502   1.099   8.384
 2071POPC   C3A29777   0.749   1.043   8.059
 2071POPC   C4A29778   0.509   1.162   7.717
 2071POPC   C1B29779   0.295   1.454   8.666
 2071POPC   C2B29780   0.084   1.455   8.297
 2071POPC   C3B29781   0.079   1.314   7.901
 2071POPC   C4B29782   0.102   1.259   7.409
 2072POPC   NC329783  37.967   5.868   9.546
 2072POPC   PO429784  37.400   5.524   9.629
 2072POPC   GL129785  37.583   5.747   9.237
 2072POPC   GL229786  37.738   6.110   9.138
 2072POPC   C1A29787  37.631   5.760   8.811
 2072POPC   D2A29788  37.522   5.576   8.498
 2072POPC   C3A29789  37.780   5.717   8.225
 2072POPC   C4A29790  37.637   5.753   7.835
 2072POPC   C1B29791  37.521   6.270   8.757
 2072POPC   C2B29792  37.515   6.140   8.320
 2072POPC   C3B29793  37.810   6.210   8.019
 2072POPC   C4B29794  37.740   6.213   7.548
 2073POPC   NC329795  30.867  17.686   9.440
 2073POPC   PO429796  30.626  17.052   9.486
 2073POPC   GL129797  30.606  17.325   9.100
 2073POPC   GL229798  30.839  17.581   8.951
 2073POPC   C1A29799  30.468  17.309   8.652
 2073POPC   D2A29800  30.129  17.328   8.308
 2073POPC   C3A29801  30.365  17.314   7.907
 2073POPC   C4A29802  30.749  17.564   7.801
 2073POPC   C1B29803  31.007  17.177   8.828
 2073POPC   C2B29804  30.964  17.021   8.433
 2073POPC   C3B29805  30.843  17.027   8.009
 2073POPC   C4B29806  31.070  17.083   7.640
 2074POPC   NC329807  17.999  10.446   9.507
 2074POPC   PO429808  17.394  10.667   9.677
 2074POPC   GL129809  17.341  10.367   9.315
 2074POPC   GL229810  17.592  10.523   9.159
 2074POPC   C1A29811  17.281  10.309   8.824
 2074POPC   D2A29812  17.151  10.427   8.367
 2074POPC   C3A29813  17.437  10.438   7.994
 2074POPC   C4A29814  17.459  10.617   7.543
 2074POPC   C1B29815  17.792  10.412   8.814
 2074POPC   C2B29816  17.736  10.463   8.425
 2074POPC   C3B29817  17.950  10.446   8.077
 2074POPC   C4B29818  17.877  10.326   7.685
 2075POPC   NC329819  25.844  31.521   9.462
 2075POPC   PO429820  26.547  31.291   9.481
 2075POPC   GL129821  26.286  31.611   9.216
 2075POPC   GL229822  26.084  31.351   9.037
 2075POPC   C1A29823  26.050  31.817   8.843
 2075POPC   D2A29824  26.104  31.644   8.435
 2075POPC   C3A29825  25.898  31.724   8.073
 2075POPC   C4A29826  26.018  31.562   7.706
 2075POPC   C1B29827  25.739  31.391   8.729
 2075POPC   C2B29828  25.660  31.309   8.302
 2075POPC   C3B29829  25.668  30.988   8.023
 2075POPC   C4B29830  25.917  31.050   7.694
 2076POPC   NC329831  30.961  21.660   9.622
 2076POPC   PO429832  31.650  21.317   9.531
 2076POPC   GL129833  31.533  21.232   9.133
 2076POPC   GL229834  31.194  21.101   9.135
 2076POPC   C1A29835  31.731  21.349   8.786
 2076POPC   D2A29836  31.907  21.304   8.378
 2076POPC   C3A29837  31.680  21.440   8.041
 2076POPC   C4A29838  31.861  21.279   7.697
 2076POPC   C1B29839  31.320  20.899   8.741
 2076POPC   C2B29840  31.439  20.962   8.286
 2076POPC   C3B29841  31.211  21.204   7.941
 2076POPC   C4B29842  31.158  21.193   7.492
 2077POPC   NC329843  33.589  38.746   9.456
 2077POPC   PO429844  33.834  38.108   9.579
 2077POPC   GL129845  33.788  38.345   9.210
 2077POPC   GL229846  33.527  38.182   9.054
 2077POPC   C1A29847  34.019  38.496   8.847
 2077POPC   D2A29848  34.146  38.376   8.420
 2077POPC   C3A29849  33.852  38.331   8.079
 2077POPC   C4A29850  33.785  38.341   7.660
 2077POPC   C1B29851  33.532  38.408   8.642
 2077POPC   C2B29852  33.538  38.681   8.248
 2077POPC   C3B29853  33.747  38.830   7.838
 2077POPC   C4B29854  33.684  39.149   7.475
 2078POPC   NC329855  22.820  29.987   9.520
 2078POPC   PO429856  23.433  29.843   9.429
 2078POPC   GL129857  23.257  29.909   9.033
 2078POPC   GL229858  23.034  30.148   9.072
 2078POPC   C1A29859  23.041  29.990   8.600
 2078POPC   D2A29860  22.757  30.154   8.285
 2078POPC   C3A29861  22.872  29.903   7.957
 2078POPC   C4A29862  23.306  29.913   7.819
 2078POPC   C1B29863  23.327  30.367   8.774
 2078POPC   C2B29864  23.311  30.317   8.290
 2078POPC   C3B29865  23.027  30.400   7.918
 2078POPC   C4B29866  22.629  30.280   7.707
 2079POPC   NC329867  15.154   9.800   9.474
 2079POPC   PO429868  15.510   9.279   9.511
 2079POPC   GL129869  15.563   9.549   9.164
 2079POPC   GL229870  15.571   9.933   9.161
 2079POPC   C1A29871  15.369   9.566   8.760
 2079POPC   D2A29872  15.054   9.645   8.424
 2079POPC   C3A29873  15.304   9.740   8.042
 2079POPC   C4A29874  15.212   9.695   7.583
 2079POPC   C1B29875  15.253  10.077   8.852
 2079POPC   C2B29876  15.051  10.154   8.463
 2079POPC   C3B29877  15.029  10.160   8.023
 2079POPC   C4B29878  15.301  10.183   7.662
 2080POPC   NC329879  38.320  20.977   9.487
 2080POPC   PO429880  38.038  20.335   9.475
 2080POPC   GL129881  38.083  20.345   9.020
 2080POPC   GL229882  38.255  20.660   9.082
 2080POPC   C1A29883  38.131  20.595   8.602
 2080POPC   D2A29884  38.240  20.860   8.271
 2080POPC   C3A29885  38.263  20.662   7.912
 2080POPC   C4A29886  38.614  20.419   7.835
 2080POPC   C1B29887  38.340  21.028   8.816
 2080POPC   C2B29888  38.649  21.069   8.502
 2080POPC   C3B29889  38.691  20.978   8.068
 2080POPC   C4B29890  38.644  21.370   7.900
 2081POPC   NC329891  35.272   0.898   9.451
 2081POPC   PO429892  35.427   0.194   9.521
 2081POPC   GL129893  35.238   0.272   9.152
 2081POPC   GL229894  34.989   0.549   9.050
 2081POPC   C1A29895  35.435   0.483   8.823
 2081POPC   D2A29896  35.273   0.438   8.445
 2081POPC   C3A29897  35.530   0.500   8.092
 2081POPC   C4A29898  35.310   0.305   7.750
 2081POPC   C1B29899  35.087   0.859   8.698
 2081POPC   C2B29900  35.199   0.885   8.224
 2081POPC   C3B29901  34.938   0.734   7.832
 2081POPC   C4B29902  34.941   0.812   7.356
 2082POPC   NC329903  20.525  15.712   9.348
 2082POPC   PO429904  20.505  15.078   9.476
 2082POPC   GL129905  20.684  15.211   9.087
 2082POPC   GL229906  20.940  14.949   9.023
 2082POPC   C1A29907  20.585  15.352   8.649
 2082POPC   D2A29908  20.244  15.161   8.376
 2082POPC   C3A29909  20.314  15.116   7.922
 2082POPC   C4A29910  20.383  15.322   7.548
 2082POPC   C1B29911  20.611  14.865   8.672
 2082POPC   C2B29912  20.619  14.862   8.223
 2082POPC   C3B29913  20.784  14.953   7.800
 2082POPC   C4B29914  21.190  14.928   7.592
 2083POPC   NC329915  40.017  37.476   9.560
 2083POPC   PO429916  39.636  38.038   9.527
 2083POPC   GL129917  39.912  37.811   9.187
 2083POPC   GL229918  39.847  37.414   9.089
 2083POPC   C1A29919  40.070  37.747   8.763
 2083POPC   D2A29920  40.296  37.630   8.373
 2083POPC   C3A29921  40.158  37.823   7.986
 2083POPC   C4A29922  40.374  38.052   7.674
 2083POPC   C1B29923  39.628  37.500   8.701
 2083POPC   C2B29924  39.789  37.657   8.325
 2083POPC   C3B29925  39.718  37.575   7.911
 2083POPC   C4B29926  39.571  37.512   7.468
 2084POPC   NC329927  32.376   2.577   9.559
 2084POPC   PO429928  32.195   3.267   9.674
 2084POPC   GL129929  32.193   3.082   9.226
 2084POPC   GL229930  32.121   2.713   9.149
 2084POPC   C1A29931  32.118   3.026   8.747
 2084POPC   D2A29932  32.100   2.725   8.426
 2084POPC   C3A29933  32.054   2.990   8.100
 2084POPC   C4A29934  32.163   2.899   7.722
 2084POPC   C1B29935  32.329   2.479   8.833
 2084POPC   C2B29936  32.549   2.424   8.443
 2084POPC   C3B29937  32.493   2.635   8.065
 2084POPC   C4B29938  32.464   2.489   7.670
 2085POPC   NC329939  19.020   7.920   9.479
 2085POPC   PO429940  19.263   8.572   9.505
 2085POPC   GL129941  19.009   8.433   9.117
 2085POPC   GL229942  19.131   8.098   9.018
 2085POPC   C1A29943  18.841   8.346   8.671
 2085POPC   D2A29944  19.031   8.485   8.265
 2085POPC   C3A29945  18.915   8.469   7.773
 2085POPC   C4A29946  19.131   8.147   7.501
 2085POPC   C1B29947  18.766   7.869   8.863
 2085POPC   C2B29948  18.656   7.895   8.437
 2085POPC   C3B29949  18.784   8.097   8.079
 2085POPC   C4B29950  18.677   7.986   7.652
 2086POPC   NC329951  44.850   9.482   9.478
 2086POPC   PO429952  44.265   9.384   9.395
 2086POPC   GL129953  44.509   9.557   9.103
 2086POPC   GL229954  44.644   9.897   9.189
 2086POPC   C1A29955  44.794   9.535   8.811
 2086POPC   D2A29956  44.926   9.751   8.449
 2086POPC   C3A29957  44.828   9.597   8.069
 2086POPC   C4A29958  44.708   9.432   7.696
 2086POPC   C1B29959  44.514   9.942   8.739
 2086POPC   C2B29960  44.402   9.773   8.310
 2086POPC   C3B29961  44.421   9.819   7.843
 2086POPC   C4B29962  44.415  10.011   7.375
 2087POPC   NC329963  31.778  16.003   9.444
 2087POPC   PO429964  31.168  16.224   9.632
 2087POPC   GL129965  31.311  15.863   9.298
 2087POPC   GL229966  31.395  16.109   9.055
 2087POPC   C1A29967  31.445  15.651   8.857
 2087POPC   D2A29968  31.270  15.525   8.425
 2087POPC   C3A29969  31.311  15.767   8.034
 2087POPC   C4A29970  31.542  15.755   7.656
 2087POPC   C1B29971  31.464  16.315   8.656
 2087POPC   C2B29972  31.442  16.316   8.200
 2087POPC   C3B29973  31.678  16.216   7.848
 2087POPC   C4B29974  31.865  16.089   7.446
 2088POPC   NC329975  31.560  12.959   9.912
 2088POPC   PO429976  31.838  12.481   9.488
 2088POPC   GL129977  31.647  12.818   9.224
 2088POPC   GL229978  31.684  13.178   9.330
 2088POPC   C1A29979  31.448  12.788   8.802
 2088POPC   D2A29980  31.461  12.651   8.363
 2088POPC   C3A29981  31.230  12.790   8.026
 2088POPC   C4A29982  31.558  12.677   7.767
 2088POPC   C1B29983  31.653  13.243   8.858
 2088POPC   C2B29984  31.719  13.081   8.441
 2088POPC   C3B29985  31.567  13.225   8.027
 2088POPC   C4B29986  31.223  13.240   7.720
 2089POPC   NC329987  23.822  24.179   9.414
 2089POPC   PO429988  23.517  24.818   9.430
 2089POPC   GL129989  23.744  24.661   9.109
 2089POPC   GL229990  24.076  24.622   9.177
 2089POPC   C1A29991  23.593  24.421   8.770
 2089POPC   D2A29992  23.637  24.637   8.398
 2089POPC   C3A29993  23.875  24.574   8.060
 2089POPC   C4A29994  23.653  24.375   7.775
 2089POPC   C1B29995  24.088  24.333   8.819
 2089POPC   C2B29996  24.135  24.253   8.399
 2089POPC   C3B29997  24.010  24.075   8.034
 2089POPC   C4B29998  24.096  24.125   7.638
 2090POPC   NC329999  27.159  20.353   9.354
 2090POPC   PO430000  27.717  20.903   9.536
 2090POPC   GL130001  27.590  20.707   9.180
 2090POPC   GL230002  27.284  20.842   9.185
 2090POPC   C1A30003  27.649  20.388   8.844
 2090POPC   D2A30004  27.632  20.538   8.426
 2090POPC   C3A30005  27.563  20.409   8.017
 2090POPC   C4A30006  27.295  20.528   7.658
 2090POPC   C1B30007  27.268  20.722   8.763
 2090POPC   C2B30008  27.236  20.861   8.345
 2090POPC   C3B30009  27.447  20.907   7.963
 2090POPC   C4B30010  27.234  21.064   7.595
 2091POPC   NC330011  28.636  33.695   9.811
 2091POPC   PO430012  28.232  33.261   9.436
 2091POPC   GL130013  28.247  32.974   9.088
 2091POPC   GL230014  28.556  32.782   9.186
 2091POPC   C1A30015  28.254  33.082   8.677
 2091POPC   D2A30016  28.346  33.381   8.355
 2091POPC   C3A30017  28.386  33.154   7.976
 2091POPC   C4A30018  28.063  33.087   7.688
 2091POPC   C1B30019  28.591  32.683   8.752
 2091POPC   C2B30020  28.679  32.884   8.348
 2091POPC   C3B30021  28.686  32.690   7.937
 2091POPC   C4B30022  28.517  32.763   7.547
 2092POPC   NC330023  41.432  39.397   9.589
 2092POPC   PO430024  41.337  38.733   9.356
 2092POPC   GL130025  41.356  38.971   9.039
 2092POPC   GL230026  41.613  39.139   9.172
 2092POPC   C1A30027  41.379  39.317   8.756
 2092POPC   D2A30028  41.251  39.496   8.405
 2092POPC   C3A30029  41.442  39.409   8.053
 2092POPC   C4A30030  41.778  39.541   7.849
 2092POPC   C1B30031  41.824  39.067   8.796
 2092POPC   C2B30032  41.871  39.266   8.419
 2092POPC   C3B30033  41.819  39.079   8.055
 2092POPC   C4B30034  41.758  38.953   7.686
 2093POPC   NC330035   7.677  29.921   9.645
 2093POPC   PO430036   7.131  30.177   9.459
 2093POPC   GL130037   7.413  30.017   9.156
 2093POPC   GL230038   7.626  29.729   9.155
 2093POPC   C1A30039   7.306  29.939   8.751
 2093POPC   D2A30040   7.244  29.811   8.344
 2093POPC   C3A30041   7.445  30.016   8.011
 2093POPC   C4A30042   7.191  29.964   7.662
 2093POPC   C1B30043   7.825  29.971   8.833
 2093POPC   C2B30044   7.814  30.186   8.447
 2093POPC   C3B30045   7.965  30.143   8.062
 2093POPC   C4B30046   7.881  29.916   7.708
 2094POPC   NC330047  28.950  34.413   9.494
 2094POPC   PO430048  29.521  34.696   9.599
 2094POPC   GL130049  29.340  34.592   9.183
 2094POPC   GL230050  28.997  34.713   9.111
 2094POPC   C1A30051  29.288  34.595   8.729
 2094POPC   D2A30052  29.491  34.368   8.467
 2094POPC   C3A30053  29.265  34.486   8.126
 2094POPC   C4A30054  29.393  34.516   7.717
 2094POPC   C1B30055  28.833  34.423   8.840
 2094POPC   C2B30056  28.785  34.473   8.432
 2094POPC   C3B30057  28.720  34.223   8.085
 2094POPC   C4B30058  28.894  34.475   7.767
 2095POPC   NC330059  34.021  23.641   9.601
 2095POPC   PO430060  33.702  24.223   9.779
 2095POPC   GL130061  33.695  23.898   9.308
 2095POPC   GL230062  34.034  23.808   9.141
 2095POPC   C1A30063  33.719  23.935   8.777
 2095POPC   D2A30064  34.011  23.890   8.374
 2095POPC   C3A30065  33.799  23.997   7.951
 2095POPC   C4A30066  33.671  23.965   7.512
 2095POPC   C1B30067  34.095  23.521   8.792
 2095POPC   C2B30068  34.109  23.347   8.365
 2095POPC   C3B30069  33.878  23.447   8.028
 2095POPC   C4B30070  33.931  23.534   7.562
 2096POPC   NC330071   7.465  12.409   9.442
 2096POPC   PO430072   6.963  12.016   9.401
 2096POPC   GL130073   7.172  12.207   9.065
 2096POPC   GL230074   6.962  12.500   9.090
 2096POPC   C1A30075   7.445  12.055   8.708
 2096POPC   D2A30076   7.673  11.839   8.405
 2096POPC   C3A30077   7.597  12.052   8.047
 2096POPC   C4A30078   7.436  11.802   7.734
 2096POPC   C1B30079   7.085  12.479   8.649
 2096POPC   C2B30080   7.101  12.138   8.329
 2096POPC   C3B30081   7.108  12.169   7.880
 2096POPC   C4B30082   6.799  12.246   7.512
 2097POPC   NC330083  18.616  10.138   9.510
 2097POPC   PO430084  18.664  10.846   9.421
 2097POPC   GL130085  18.434  10.514   9.210
 2097POPC   GL230086  18.151  10.673   9.051
 2097POPC   C1A30087  18.317  10.251   8.848
 2097POPC   D2A30088  18.241  10.531   8.516
 2097POPC   C3A30089  18.454  10.361   8.187
 2097POPC   C4A30090  18.394  10.408   7.757
 2097POPC   C1B30091  17.892  10.896   8.725
 2097POPC   C2B30092  18.011  10.974   8.315
 2097POPC   C3B30093  18.243  10.838   7.971
 2097POPC   C4B30094  18.070  10.799   7.538
 2098POPC   NC330095  35.896   6.508   9.308
 2098POPC   PO430096  36.498   6.885   9.306
 2098POPC   GL130097  36.295   6.688   8.977
 2098POPC   GL230098  36.279   6.335   8.992
 2098POPC   C1A30099  35.969   6.596   8.665
 2098POPC   D2A30100  35.778   6.710   8.268
 2098POPC   C3A30101  36.016   6.569   7.897
 2098POPC   C4A30102  35.964   6.678   7.458
 2098POPC   C1B30103  36.509   6.411   8.592
 2098POPC   C2B30104  36.478   6.519   8.141
 2098POPC   C3B30105  36.488   6.293   7.726
 2098POPC   C4B30106  36.382   6.347   7.280
 2099POPC   NC330107  37.211  28.463   9.429
 2099POPC   PO430108  36.618  28.375   9.705
 2099POPC   GL130109  36.735  28.299   9.210
 2099POPC   GL230110  36.956  28.038   9.237
 2099POPC   C1A30111  36.898  28.519   8.746
 2099POPC   D2A30112  37.127  28.414   8.364
 2099POPC   C3A30113  37.150  28.681   8.008
 2099POPC   C4A30114  36.802  28.578   7.754
 2099POPC   C1B30115  37.106  28.069   8.813
 2099POPC   C2B30116  37.172  27.890   8.443
 2099POPC   C3B30117  36.838  27.897   8.157
 2099POPC   C4B30118  36.945  28.057   7.753
 2100POPC   NC330119  42.913  34.088   9.473
 2100POPC   PO430120  43.199  33.405   9.520
 2100POPC   GL130121  43.207  33.743   9.183
 2100POPC   GL230122  43.495  33.574   9.128
 2100POPC   C1A30123  43.012  33.869   8.747
 2100POPC   D2A30124  42.847  34.021   8.316
 2100POPC   C3A30125  43.008  33.817   7.951
 2100POPC   C4A30126  43.290  33.914   7.598
 2100POPC   C1B30127  43.497  33.737   8.724
 2100POPC   C2B30128  43.350  33.832   8.334
 2100POPC   C3B30129  43.433  33.572   7.974
 2100POPC   C4B30130  43.747  33.725   7.772
 2101POPC   NC330131   9.348  20.994   9.429
 2101POPC   PO430132   8.695  21.162   9.499
 2101POPC   GL130133   8.816  20.704   9.251
 2101POPC   GL230134   9.145  20.591   9.199
 2101POPC   C1A30135   8.857  20.469   8.819
 2101POPC   D2A30136   8.929  20.222   8.461
 2101POPC   C3A30137   8.871  20.518   8.129
 2101POPC   C4A30138   8.850  20.555   7.693
 2101POPC   C1B30139   9.240  20.864   8.785
 2101POPC   C2B30140   9.374  21.061   8.390
 2101POPC   C3B30141   9.442  20.920   7.973
 2101POPC   C4B30142   9.311  20.854   7.535
 2102POPC   NC330143   9.923  22.536   9.527
 2102POPC   PO430144   9.482  22.046   9.697
 2102POPC   GL130145   9.740  22.131   9.292
 2102POPC   GL230146  10.077  22.227   9.163
 2102POPC   C1A30147   9.706  22.087   8.844
 2102POPC   D2A30148   9.429  22.170   8.498
 2102POPC   C3A30149   9.651  22.224   8.107
 2102POPC   C4A30150   9.545  22.371   7.734
 2102POPC   C1B30151  10.133  22.356   8.767
 2102POPC   C2B30152  10.031  22.113   8.417
 2102POPC   C3B30153  10.164  22.294   8.030
 2102POPC   C4B30154  10.054  22.398   7.643
 2103POPC   NC330155  17.666  24.845   9.850
 2103POPC   PO430156  18.063  24.533   9.614
 2103POPC   GL130157  17.839  24.443   9.162
 2103POPC   GL230158  17.923  24.180   8.889
 2103POPC   C1A30159  17.507  24.527   8.807
 2103POPC   D2A30160  17.451  24.749   8.378
 2103POPC   C3A30161  17.279  24.579   7.971
 2103POPC   C4A30162  17.377  24.238   7.672
 2103POPC   C1B30163  17.925  24.474   8.524
 2103POPC   C2B30164  18.185  24.597   8.185
 2103POPC   C3B30165  18.188  24.566   7.739
 2103POPC   C4B30166  17.861  24.385   7.529
 2104POPC   NC330167  21.107   2.484   9.356
 2104POPC   PO430168  21.541   2.907   9.444
 2104POPC   GL130169  21.385   2.807   9.061
 2104POPC   GL230170  21.743   2.903   8.992
 2104POPC   C1A30171  21.112   2.761   8.674
 2104POPC   D2A30172  21.340   2.746   8.258
 2104POPC   C3A30173  21.172   2.810   7.877
 2104POPC   C4A30174  21.084   2.482   7.541
 2104POPC   C1B30175  21.615   2.936   8.628
 2104POPC   C2B30176  21.816   2.641   8.404
 2104POPC   C3B30177  21.873   2.859   8.094
 2104POPC   C4B30178  21.626   3.065   7.830
 2105POPC   NC330179   8.547   1.744   9.362
 2105POPC   PO430180   8.053   1.654   9.805
 2105POPC   GL130181   8.040   2.030   9.389
 2105POPC   GL230182   8.360   2.191   9.197
 2105POPC   C1A30183   7.998   2.165   8.884
 2105POPC   D2A30184   8.157   2.340   8.473
 2105POPC   C3A30185   7.979   2.179   8.075
 2105POPC   C4A30186   8.088   1.781   7.902
 2105POPC   C1B30187   8.504   1.999   8.758
 2105POPC   C2B30188   8.718   1.817   8.372
 2105POPC   C3B30189   8.601   1.937   7.952
 2105POPC   C4B30190   8.367   2.269   7.729
 2106POPC   NC330191  34.124   8.454   9.589
 2106POPC   PO430192  33.654   7.942   9.679
 2106POPC   GL130193  33.912   8.090   9.259
 2106POPC   GL230194  34.017   8.416   9.104
 2106POPC   C1A30195  33.896   8.015   8.797
 2106POPC   D2A30196  33.764   7.782   8.409
 2106POPC   C3A30197  33.889   8.011   8.034
 2106POPC   C4A30198  33.835   8.030   7.603
 2106POPC   C1B30199  33.805   8.538   8.761
 2106POPC   C2B30200  34.087   8.521   8.456
 2106POPC   C3B30201  34.065   8.695   8.081
 2106POPC   C4B30202  33.946   8.506   7.743
 2107POPC   NC330203  33.414  44.142   9.750
 2107POPC   PO430204  33.878  43.763   9.341
 2107POPC   GL130205  33.908  44.099   9.086
 2107POPC   GL230206  33.602  44.187   8.903
 2107POPC   C1A30207  34.150  44.133   8.708
 2107POPC   D2A30208  34.238  43.902   8.336
 2107POPC   C3A30209  33.913  43.864   8.052
 2107POPC   C4A30210  34.032  44.103   7.707
 2107POPC   C1B30211  33.705  43.854   8.636
 2107POPC   C2B30212  33.448  43.884   8.295
 2107POPC   C3B30213  33.409  43.872   7.883
 2107POPC   C4B30214  33.533  44.236   7.735
 2108POPC   NC330215   4.765   4.494   9.815
 2108POPC   PO430216   5.311   4.502   9.462
 2108POPC   GL130217   5.010   4.211   9.288
 2108POPC   GL230218   5.211   3.935   9.193
 2108POPC   C1A30219   4.841   4.213   8.870
 2108POPC   D2A30220   4.691   4.260   8.450
 2108POPC   C3A30221   4.922   4.452   8.152
 2108POPC   C4A30222   5.019   4.406   7.716
 2108POPC   C1B30223   5.356   4.188   8.854
 2108POPC   C2B30224   5.209   4.097   8.439
 2108POPC   C3B30225   5.384   4.164   8.018
 2108POPC   C4B30226   5.348   4.004   7.590
 2109POPC   NC330227  41.242  23.374   9.509
 2109POPC   PO430228  40.784  22.755   9.460
 2109POPC   GL130229  40.971  23.010   9.163
 2109POPC   GL230230  41.308  22.879   9.144
 2109POPC   C1A30231  40.776  23.076   8.768
 2109POPC   D2A30232  40.529  23.137   8.388
 2109POPC   C3A30233  40.650  23.055   7.948
 2109POPC   C4A30234  40.388  23.102   7.563
 2109POPC   C1B30235  41.170  22.753   8.710
 2109POPC   C2B30236  40.979  22.836   8.294
 2109POPC   C3B30237  41.022  22.664   7.858
 2109POPC   C4B30238  40.988  22.554   7.381
 2110POPC   NC330239  33.468  37.033   9.730
 2110POPC   PO430240  32.983  36.822   9.277
 2110POPC   GL130241  33.139  36.914   8.894
 2110POPC   GL230242  33.281  37.232   9.082
 2110POPC   C1A30243  32.942  36.674   8.552
 2110POPC   D2A30244  32.586  36.738   8.286
 2110POPC   C3A30245  32.769  36.784   7.901
 2110POPC   C4A30246  33.221  36.725   7.871
 2110POPC   C1B30247  33.191  37.353   8.668
 2110POPC   C2B30248  33.193  37.073   8.309
 2110POPC   C3B30249  33.039  37.208   7.920
 2110POPC   C4B30250  33.260  37.518   7.823
 2111POPC   NC330251  11.341   1.048   9.372
 2111POPC   PO430252  11.045   0.554   9.712
 2111POPC   GL130253  11.063   0.506   9.247
 2111POPC   GL230254  11.072   0.819   9.005
 2111POPC   C1A30255  11.074   0.366   8.804
 2111POPC   D2A30256  11.138   0.641   8.464
 2111POPC   C3A30257  11.320   0.386   8.121
 2111POPC   C4A30258  11.177   0.233   7.719
 2111POPC   C1B30259  11.471   0.939   8.754
 2111POPC   C2B30260  11.607   0.924   8.347
 2111POPC   C3B30261  11.284   0.903   8.049
 2111POPC   C4B30262  11.174   0.749   7.687
 2112POPC   NC330263   7.384   9.244   9.567
 2112POPC   PO430264   7.190   8.667   9.290
 2112POPC   GL130265   7.367   9.037   9.111
 2112POPC   GL230266   7.658   9.313   9.142
 2112POPC   C1A30267   7.198   9.163   8.752
 2112POPC   D2A30268   7.061   9.145   8.368
 2112POPC   C3A30269   7.175   8.797   8.105
 2112POPC   C4A30270   7.243   8.946   7.712
 2112POPC   C1B30271   7.756   9.063   8.795
 2112POPC   C2B30272   7.562   8.938   8.440
 2112POPC   C3B30273   7.630   9.037   8.044
 2112POPC   C4B30274   7.680   8.700   7.730
 2113POPC   NC330275   0.943  22.965   9.832
 2113POPC   PO430276   1.358  23.119   9.337
 2113POPC   GL130277   1.310  22.975   8.987
 2113POPC   GL230278   1.511  22.721   8.999
 2113POPC   C1A30279   1.257  23.007   8.588
 2113POPC   D2A30280   1.253  23.243   8.267
 2113POPC   C3A30281   1.201  22.904   7.992
 2113POPC   C4A30282   1.526  22.725   7.769
 2113POPC   C1B30283   1.091  22.561   8.767
 2113POPC   C2B30284   0.973  22.589   8.402
 2113POPC   C3B30285   0.737  22.592   8.120
 2113POPC   C4B30286   0.842  22.526   7.730
 2114POPC   NC330287   5.406  10.560   9.467
 2114POPC   PO430288   5.947  10.704   9.821
 2114POPC   GL130289   5.899  10.458   9.321
 2114POPC   GL230290   5.599  10.394   9.053
 2114POPC   C1A30291   6.004  10.500   8.813
 2114POPC   D2A30292   6.130  10.615   8.385
 2114POPC   C3A30293   6.127  10.439   7.965
 2114POPC   C4A30294   6.039  10.663   7.552
 2114POPC   C1B30295   5.536  10.233   8.660
 2114POPC   C2B30296   5.705  10.321   8.246
 2114POPC   C3B30297   5.631  10.487   7.833
 2114POPC   C4B30298   5.567  10.426   7.385
 2115POPC   NC330299  37.502  43.052   9.592
 2115POPC   PO430300  36.822  43.188   9.547
 2115POPC   GL130301  36.800  43.071   9.177
 2115POPC   GL230302  36.665  42.726   9.157
 2115POPC   C1A30303  36.916  43.282   8.829
 2115POPC   D2A30304  36.968  43.474   8.451
 2115POPC   C3A30305  37.173  43.194   8.151
 2115POPC   C4A30306  37.087  43.142   7.741
 2115POPC   C1B30307  36.561  42.924   8.765
 2115POPC   C2B30308  36.812  42.973   8.419
 2115POPC   C3B30309  36.659  42.984   7.990
 2115POPC   C4B30310  36.563  42.882   7.557
 2116POPC   NC330311  36.582   6.421   9.381
 2116POPC   PO430312  37.017   6.758   9.645
 2116POPC   GL130313  37.046   6.606   9.195
 2116POPC   GL230314  36.829   6.787   8.946
 2116POPC   C1A30315  36.995   6.345   8.800
 2116POPC   D2A30316  37.024   6.306   8.332
 2116POPC   C3A30317  36.946   6.449   7.905
 2116POPC   C4A30318  36.824   6.550   7.462
 2116POPC   C1B30319  36.781   7.140   8.668
 2116POPC   C2B30320  36.703   7.106   8.206
 2116POPC   C3B30321  36.892   6.937   7.861
 2116POPC   C4B30322  37.206   6.856   7.581
 2117POPC   NC330323  44.388  40.299   9.357
 2117POPC   PO430324  44.612  39.746   9.824
 2117POPC   GL130325  44.732  39.971   9.276
 2117POPC   GL230326   0.066  40.048   9.203
 2117POPC   C1A30327  44.560  39.965   8.790
 2117POPC   D2A30328  44.362  40.029   8.332
 2117POPC   C3A30329  44.470  40.013   7.924
 2117POPC   C4A30330  44.866  39.922   7.811
 2117POPC   C1B30331   0.031  40.166   8.761
 2117POPC   C2B30332  44.847  40.180   8.325
 2117POPC   C3B30333  44.805  40.425   7.943
 2117POPC   C4B30334  44.985  40.344   7.524
 2118POPC   NC330335  21.799  27.930   9.491
 2118POPC   PO430336  22.356  27.555   9.475
 2118POPC   GL130337  22.197  27.457   9.074
 2118POPC   GL230338  21.903  27.635   9.080
 2118POPC   C1A30339  22.383  27.577   8.668
 2118POPC   D2A30340  22.209  27.496   8.261
 2118POPC   C3A30341  22.301  27.708   7.880
 2118POPC   C4A30342  22.373  27.599   7.460
 2118POPC   C1B30343  21.915  27.767   8.639
 2118POPC   C2B30344  21.924  27.917   8.202
 2118POPC   C3B30345  21.772  27.695   7.848
 2118POPC   C4B30346  21.503  27.385   7.625
 2119POPC   NC330347  31.137   4.239   9.486
 2119POPC   PO430348  30.497   4.334   9.486
 2119POPC   GL130349  30.751   4.348   9.158
 2119POPC   GL230350  30.896   4.670   9.261
 2119POPC   C1A30351  30.637   4.212   8.747
 2119POPC   D2A30352  30.346   4.239   8.389
 2119POPC   C3A30353  30.617   4.164   8.047
 2119POPC   C4A30354  30.864   4.110   7.685
 2119POPC   C1B30355  30.946   4.640   8.798
 2119POPC   C2B30356  30.889   4.484   8.373
 2119POPC   C3B30357  30.955   4.544   7.944
 2119POPC   C4B30358  30.903   4.553   7.459
 2120POPC   NC330359  40.209   0.495   9.458
 2120POPC   PO430360  40.648  44.968   9.576
 2120POPC   GL130361  40.405   0.067   9.133
 2120POPC   GL230362  40.055   0.112   9.165
 2120POPC   C1A30363  40.258   0.407   8.801
 2120POPC   D2A30364  39.942   0.543   8.505
 2120POPC   C3A30365  40.062   0.497   8.106
 2120POPC   C4A30366  39.967   0.405   7.707
 2120POPC   C1B30367  39.753   0.199   8.839
 2120POPC   C2B30368  39.528   0.215   8.460
 2120POPC   C3B30369  39.611   0.275   8.060
 2120POPC   C4B30370  39.723  44.954   7.776
 2121POPC   NC330371  13.757  20.394   9.483
 2121POPC   PO430372  13.245  20.866   9.422
 2121POPC   GL130373  13.572  20.769   9.104
 2121POPC   GL230374  13.909  20.578   9.046
 2121POPC   C1A30375  13.518  20.576   8.698
 2121POPC   D2A30376  13.645  20.422   8.294
 2121POPC   C3A30377  13.472  20.685   7.979
 2121POPC   C4A30378  13.654  21.010   7.699
 2121POPC   C1B30379  13.996  20.741   8.655
 2121POPC   C2B30380  13.999  20.805   8.234
 2121POPC   C3B30381  13.952  20.591   7.844
 2121POPC   C4B30382  13.652  20.340   7.633
 2122POPC   NC330383   9.179  38.062   9.451
 2122POPC   PO430384   8.901  37.425   9.585
 2122POPC   GL130385   8.975  37.630   9.205
 2122POPC   GL230386   8.737  37.904   9.221
 2122POPC   C1A30387   9.028  37.460   8.780
 2122POPC   D2A30388   8.811  37.358   8.402
 2122POPC   C3A30389   8.995  37.492   8.015
 2122POPC   C4A30390   9.210  37.521   7.628
 2122POPC   C1B30391   8.884  37.958   8.799
 2122POPC   C2B30392   9.000  37.891   8.360
 2122POPC   C3B30393   9.186  37.974   7.934
 2122POPC   C4B30394   9.089  38.006   7.485
 2123POPC   NC330395  14.135   2.312   9.437
 2123POPC   PO430396  13.641   2.868   9.553
 2123POPC   GL130397  13.523   2.718   9.168
 2123POPC   GL230398  13.625   2.391   9.260
 2123POPC   C1A30399  13.488   2.804   8.739
 2123POPC   D2A30400  13.251   2.898   8.382
 2123POPC   C3A30401  13.467   2.775   8.003
 2123POPC   C4A30402  13.439   2.836   7.571
 2123POPC   C1B30403  13.829   2.406   8.859
 2123POPC   C2B30404  13.719   2.436   8.428
 2123POPC   C3B30405  13.923   2.478   8.002
 2123POPC   C4B30406  13.941   2.725   7.610
 2124POPC   NC330407  43.452  28.899   9.562
 2124POPC   PO430408  42.870  29.180   9.490
 2124POPC   GL130409  43.196  29.170   9.182
 2124POPC   GL230410  43.239  28.815   9.104
 2124POPC   C1A30411  43.245  29.172   8.732
 2124POPC   D2A30412  43.088  29.120   8.310
 2124POPC   C3A30413  43.321  29.391   7.958
 2124POPC   C4A30414  43.495  29.225   7.533
 2124POPC   C1B30415  43.185  28.648   8.696
 2124POPC   C2B30416  43.173  28.584   8.260
 2124POPC   C3B30417  43.322  28.852   7.950
 2124POPC   C4B30418  43.047  29.035   7.735
 2125POPC   NC330419  44.658  19.285   9.716
 2125POPC   PO430420   0.092  18.971   9.257
 2125POPC   GL130421  44.705  19.119   9.145
 2125POPC   GL230422  44.401  18.935   9.283
 2125POPC   C1A30423  44.763  19.154   8.701
 2125POPC   D2A30424  44.920  18.839   8.426
 2125POPC   C3A30425  44.748  18.773   8.018
 2125POPC   C4A30426  44.817  18.991   7.675
 2125POPC   C1B30427  44.315  18.955   8.812
 2125POPC   C2B30428  44.407  19.031   8.353
 2125POPC   C3B30429  44.374  19.145   7.928
 2125POPC   C4B30430  44.332  18.951   7.535
 2126POPC   NC330431  41.378  24.246   9.447
 2126POPC   PO430432  41.555  24.900   9.410
 2126POPC   GL130433  41.597  24.639   9.079
 2126POPC   GL230434  41.256  24.521   9.029
 2126POPC   C1A30435  41.553  24.632   8.630
 2126POPC   D2A30436  41.776  24.408   8.299
 2126POPC   C3A30437  41.598  24.591   7.938
 2126POPC   C4A30438  41.703  24.706   7.546
 2126POPC   C1B30439  41.104  24.226   8.748
 2126POPC   C2B30440  41.266  24.316   8.352
 2126POPC   C3B30441  41.427  24.123   8.018
 2126POPC   C4B30442  41.323  24.224   7.594
 2127POPC   NC330443  18.192  30.530   9.426
 2127POPC   PO430444  18.570  31.123   9.431
 2127POPC   GL130445  18.389  30.896   9.120
 2127POPC   GL230446  18.046  30.857   9.033
 2127POPC   C1A30447  18.473  30.810   8.718
 2127POPC   D2A30448  18.201  30.890   8.417
 2127POPC   C3A30449  18.383  30.778   8.031
 2127POPC   C4A30450  18.307  30.953   7.618
 2127POPC   C1B30451  18.080  30.495   8.760
 2127POPC   C2B30452  18.231  30.382   8.350
 2127POPC   C3B30453  18.090  30.355   7.931
 2127POPC   C4B30454  18.204  30.110   7.543
 2128POPC   NC330455   7.317  18.057   9.342
 2128POPC   PO430456   7.699  18.694   9.535
 2128POPC   GL130457   7.631  18.434   9.167
 2128POPC   GL230458   7.320  18.505   8.951
 2128POPC   C1A30459   7.656  18.163   8.801
 2128POPC   D2A30460   7.503  18.137   8.396
 2128POPC   C3A30461   7.710  18.119   8.041
 2128POPC   C4A30462   7.666  18.419   7.762
 2128POPC   C1B30463   7.110  18.142   8.722
 2128POPC   C2B30464   7.014  18.149   8.297
 2128POPC   C3B30465   7.125  18.431   7.991
 2128POPC   C4B30466   7.257  18.114   7.788
 2129POPC   NC330467  34.828  25.459   9.469
 2129POPC   PO430468  34.253  25.035   9.554
 2129POPC   GL130469  34.579  25.077   9.203
 2129POPC   GL230470  34.718  24.791   9.013
 2129POPC   C1A30471  34.680  25.314   8.824
 2129POPC   D2A30472  34.514  25.403   8.410
 2129POPC   C3A30473  34.637  25.181   8.056
 2129POPC   C4A30474  34.756  25.404   7.753
 2129POPC   C1B30475  34.381  24.925   8.711
 2129POPC   C2B30476  34.255  24.948   8.288
 2129POPC   C3B30477  34.110  24.902   7.843
 2129POPC   C4B30478  34.204  24.919   7.381
 2130POPC   NC330479   7.955  19.161   9.443
 2130POPC   PO430480   8.507  18.782   9.548
 2130POPC   GL130481   8.382  19.067   9.160
 2130POPC   GL230482   8.053  18.965   9.002
 2130POPC   C1A30483   8.362  19.206   8.694
 2130POPC   D2A30484   8.084  19.028   8.352
 2130POPC   C3A30485   8.206  19.132   7.950
 2130POPC   C4A30486   8.610  19.354   7.953
 2130POPC   C1B30487   7.803  19.251   8.702
 2130POPC   C2B30488   7.744  19.368   8.212
 2130POPC   C3B30489   7.789  19.338   7.726
 2130POPC   C4B30490   7.905  19.295   7.266
 2131POPC   NC330491  40.648  42.547   9.592
 2131POPC   PO430492  41.174  42.091   9.643
 2131POPC   GL130493  40.917  42.120   9.234
 2131POPC   GL230494  40.571  42.304   9.162
 2131POPC   C1A30495  40.873  42.154   8.774
 2131POPC   D2A30496  40.607  42.132   8.415
 2131POPC   C3A30497  40.856  42.112   8.087
 2131POPC   C4A30498  41.060  42.317   7.776
 2131POPC   C1B30499  40.411  42.458   8.778
 2131POPC   C2B30500  40.289  42.532   8.361
 2131POPC   C3B30501  40.451  42.386   7.953
 2131POPC   C4B30502  40.492  41.988   7.732
 2132POPC   NC330503  12.770  25.710   9.675
 2132POPC   PO430504  12.468  25.088   9.546
 2132POPC   GL130505  12.703  25.238   9.130
 2132POPC   GL230506  13.005  25.402   8.992
 2132POPC   C1A30507  12.654  25.425   8.666
 2132POPC   D2A30508  12.854  25.460   8.291
 2132POPC   C3A30509  12.653  25.706   7.997
 2132POPC   C4A30510  12.689  25.326   7.804
 2132POPC   C1B30511  13.091  25.726   8.643
 2132POPC   C2B30512  13.074  25.937   8.261
 2132POPC   C3B30513  13.153  25.674   7.920
 2132POPC   C4B30514  12.963  25.624   7.485
 2133POPC   NC330515   5.895   2.300   9.627
 2133POPC   PO430516   6.005   2.984   9.568
 2133POPC   GL130517   5.801   2.819   9.192
 2133POPC   GL230518   5.557   3.097   9.115
 2133POPC   C1A30519   5.665   2.761   8.742
 2133POPC   D2A30520   5.472   2.603   8.327
 2133POPC   C3A30521   5.717   2.704   7.935
 2133POPC   C4A30522   6.068   2.867   7.677
 2133POPC   C1B30523   5.760   3.286   8.787
 2133POPC   C2B30524   5.860   3.134   8.411
 2133POPC   C3B30525   5.838   3.212   8.013
 2133POPC   C4B30526   5.709   3.209   7.612
 2134POPC   NC330527  12.439   2.500   9.732
 2134POPC   PO430528  12.074   2.957   9.388
 2134POPC   GL130529  12.180   2.657   9.106
 2134POPC   GL230530  12.437   2.478   9.227
 2134POPC   C1A30531  12.077   2.763   8.713
 2134POPC   D2A30532  12.298   2.965   8.430
 2134POPC   C3A30533  12.166   2.749   8.083
 2134POPC   C4A30534  12.236   2.907   7.692
 2134POPC   C1B30535  12.519   2.382   8.822
 2134POPC   C2B30536  12.340   2.404   8.438
 2134POPC   C3B30537  12.534   2.397   8.046
 2134POPC   C4B30538  12.335   2.410   7.713
 2135POPC   NC330539  26.297  16.362   9.539
 2135POPC   PO430540  25.786  15.917   9.413
 2135POPC   GL130541  26.026  16.114   9.171
 2135POPC   GL230542  25.755  16.204   8.942
 2135POPC   C1A30543  26.259  16.040   8.834
 2135POPC   D2A30544  26.270  16.307   8.502
 2135POPC   C3A30545  26.163  16.123   8.128
 2135POPC   C4A30546  26.326  15.839   7.796
 2135POPC   C1B30547  25.805  15.872   8.613
 2135POPC   C2B30548  25.815  15.759   8.156
 2135POPC   C3B30549  25.842  15.950   7.742
 2135POPC   C4B30550  25.776  15.744   7.317
 2136POPC   NC330551  36.157  12.328   9.595
 2136POPC   PO430552  36.434  11.795   9.311
 2136POPC   GL130553  36.150  12.072   9.112
 2136POPC   GL230554  35.845  12.216   9.206
 2136POPC   C1A30555  36.033  12.313   8.722
 2136POPC   D2A30556  36.018  12.317   8.259
 2136POPC   C3A30557  36.275  12.019   8.036
 2136POPC   C4A30558  36.092  11.651   7.818
 2136POPC   C1B30559  35.718  11.944   8.836
 2136POPC   C2B30560  35.561  12.073   8.454
 2136POPC   C3B30561  35.727  11.919   8.076
 2136POPC   C4B30562  35.863  12.133   7.717
 2137POPC   NC330563  18.204  42.538   9.968
 2137POPC   PO430564  17.980  41.964   9.620
 2137POPC   GL130565  18.161  42.100   9.234
 2137POPC   GL230566  18.517  42.188   9.280
 2137POPC   C1A30567  18.107  42.336   8.852
 2137POPC   D2A30568  18.216  42.230   8.425
 2137POPC   C3A30569  18.062  42.475   8.082
 2137POPC   C4A30570  18.105  42.281   7.707
 2137POPC   C1B30571  18.597  42.179   8.820
 2137POPC   C2B30572  18.712  42.362   8.414
 2137POPC   C3B30573  18.556  42.349   8.011
 2137POPC   C4B30574  18.622  42.445   7.605
 2138POPC   NC330575  43.809   2.462   9.509
 2138POPC   PO430576  44.428   2.679   9.588
 2138POPC   GL130577  44.207   2.523   9.191
 2138POPC   GL230578  43.972   2.760   9.093
 2138POPC   C1A30579  44.121   2.389   8.774
 2138POPC   D2A30580  43.988   2.575   8.398
 2138POPC   C3A30581  44.103   2.506   7.978
 2138POPC   C4A30582  43.843   2.536   7.612
 2138POPC   C1B30583  44.069   3.002   8.704
 2138POPC   C2B30584  43.932   3.080   8.277
 2138POPC   C3B30585  43.807   2.985   7.856
 2138POPC   C4B30586  43.506   3.024   7.510
 2139POPC   NC330587  18.284  43.307   9.893
 2139POPC   PO430588  18.283  42.723   9.544
 2139POPC   GL130589  18.410  42.996   9.220
 2139POPC   GL230590  18.670  42.718   9.169
 2139POPC   C1A30591  18.293  43.222   8.812
 2139POPC   D2A30592  18.456  43.353   8.406
 2139POPC   C3A30593  18.232  43.441   7.999
 2139POPC   C4A30594  18.125  43.304   7.567
 2139POPC   C1B30595  18.458  42.678   8.827
 2139POPC   C2B30596  18.188  42.751   8.509
 2139POPC   C3B30597  18.247  42.945   8.097
 2139POPC   C4B30598  18.409  42.909   7.669
 2140POPC   NC330599   6.288  41.300   9.550
 2140POPC   PO430600   6.922  41.397   9.442
 2140POPC   GL130601   6.615  41.468   9.111
 2140POPC   GL230602   6.368  41.709   9.180
 2140POPC   C1A30603   6.523  41.419   8.678
 2140POPC   D2A30604   6.265  41.446   8.296
 2140POPC   C3A30605   6.448  41.589   7.926
 2140POPC   C4A30606   6.507  41.587   7.459
 2140POPC   C1B30607   6.412  41.909   8.805
 2140POPC   C2B30608   6.586  41.871   8.407
 2140POPC   C3B30609   6.542  42.181   8.125
 2140POPC   C4B30610   6.605  42.022   7.745
 2141POPC   NC330611  36.920   1.479   9.535
 2141POPC   PO430612  37.017   2.116   9.516
 2141POPC   GL130613  36.737   2.244   9.193
 2141POPC   GL230614  36.526   1.954   9.166
 2141POPC   C1A30615  36.822   2.096   8.772
 2141POPC   D2A30616  36.979   1.914   8.401
 2141POPC   C3A30617  36.941   2.144   8.017
 2141POPC   C4A30618  36.659   2.065   7.715
 2141POPC   C1B30619  36.351   1.828   8.772
 2141POPC   C2B30620  36.546   1.640   8.436
 2141POPC   C3B30621  36.572   1.687   8.039
 2141POPC   C4B30622  36.375   1.642   7.633
 2142POPC   NC330623  40.244  44.760   9.506
 2142POPC   PO430624  39.608  44.530   9.604
 2142POPC   GL130625  39.788  44.689   9.215
 2142POPC   GL230626  40.150  44.597   9.038
 2142POPC   C1A30627  39.732  44.694   8.780
 2142POPC   D2A30628  40.008  44.498   8.490
 2142POPC   C3A30629  39.980  44.560   8.070
 2142POPC   C4A30630  40.157  44.350   7.744
 2142POPC   C1B30631  40.192  44.918   8.707
 2142POPC   C2B30632  39.996   0.030   8.320
 2142POPC   C3B30633  40.204   0.005   7.905
 2142POPC   C4B30634  40.428  44.749   7.584
 2143POPC   NC330635  26.876  14.850   9.384
 2143POPC   PO430636  26.593  15.385   9.216
 2143POPC   GL130637  26.794  15.110   8.959
 2143POPC   GL230638  26.502  14.912   8.999
 2143POPC   C1A30639  26.929  15.119   8.560
 2143POPC   D2A30640  26.857  15.431   8.241
 2143POPC   C3A30641  26.802  15.283   7.856
 2143POPC   C4A30642  26.460  15.345   7.668
 2143POPC   C1B30643  26.426  15.215   8.612
 2143POPC   C2B30644  26.519  15.045   8.240
 2143POPC   C3B30645  26.893  14.849   8.109
 2143POPC   C4B30646  26.922  14.822   7.664
 2144POPC   NC330647  17.793   3.663   9.515
 2144POPC   PO430648  17.219   3.967   9.221
 2144POPC   GL130649  17.470   3.589   9.110
 2144POPC   GL230650  17.245   3.383   8.898
 2144POPC   C1A30651  17.772   3.466   8.784
 2144POPC   D2A30652  17.897   3.731   8.365
 2144POPC   C3A30653  17.799   3.654   7.879
 2144POPC   C4A30654  17.578   3.445   7.488
 2144POPC   C1B30655  17.359   3.703   8.603
 2144POPC   C2B30656  17.371   3.709   8.172
 2144POPC   C3B30657  17.120   3.573   7.838
 2144POPC   C4B30658  17.103   3.271   7.502
 2145POPC   NC330659  21.665  31.129   9.313
 2145POPC   PO430660  21.189  30.731   9.486
 2145POPC   GL130661  21.396  30.520   9.131
 2145POPC   GL230662  21.720  30.622   9.203
 2145POPC   C1A30663  21.316  30.414   8.703
 2145POPC   D2A30664  21.111  30.725   8.462
 2145POPC   C3A30665  21.165  30.901   8.066
 2145POPC   C4A30666  20.983  30.553   7.794
 2145POPC   C1B30667  21.661  30.789   8.765
 2145POPC   C2B30668  21.692  30.618   8.348
 2145POPC   C3B30669  21.461  30.505   7.992
 2145POPC   C4B30670  21.380  30.820   7.605
 2146POPC   NC330671   6.496  18.418   9.712
 2146POPC   PO430672   7.011  18.406   9.320
 2146POPC   GL130673   6.640  18.462   9.159
 2146POPC   GL230674   6.537  18.139   9.067
 2146POPC   C1A30675   6.538  18.555   8.733
 2146POPC   D2A30676   6.708  18.541   8.328
 2146POPC   C3A30677   6.616  18.283   7.988
 2146POPC   C4A30678   6.728  18.536   7.652
 2146POPC   C1B30679   6.608  18.083   8.602
 2146POPC   C2B30680   6.636  17.800   8.258
 2146POPC   C3B30681   6.864  17.832   7.915
 2146POPC   C4B30682   6.836  18.052   7.518
 2147POPC   NC330683  20.652  34.238   9.623
 2147POPC   PO430684  20.341  33.598   9.535
 2147POPC   GL130685  20.596  33.871   9.261
 2147POPC   GL230686  20.942  33.816   9.206
 2147POPC   C1A30687  20.611  33.974   8.828
 2147POPC   D2A30688  20.625  33.767   8.418
 2147POPC   C3A30689  20.667  33.995   8.042
 2147POPC   C4A30690  20.544  34.057   7.644
 2147POPC   C1B30691  20.897  33.548   8.801
 2147POPC   C2B30692  20.921  33.375   8.338
 2147POPC   C3B30693  20.720  33.473   7.895
 2147POPC   C4B30694  20.736  33.610   7.430
 2148POPC   NC330695  18.511  20.096   9.688
 2148POPC   PO430696  18.179  19.536   9.499
 2148POPC   GL130697  18.437  19.628   9.215
 2148POPC   GL230698  18.429  19.987   9.188
 2148POPC   C1A30699  18.354  19.710   8.770
 2148POPC   D2A30700  18.084  19.753   8.432
 2148POPC   C3A30701  18.205  19.516   8.133
 2148POPC   C4A30702  18.133  19.758   7.832
 2148POPC   C1B30703  18.557  20.181   8.784
 2148POPC   C2B30704  18.409  20.176   8.351
 2148POPC   C3B30705  18.565  20.017   7.947
 2148POPC   C4B30706  18.727  20.272   7.590
 2149POPC   NC330707  29.911   2.243   9.432
 2149POPC   PO430708  30.240   2.837   9.533
 2149POPC   GL130709  30.055   2.861   9.137
 2149POPC   GL230710  29.695   2.832   9.218
 2149POPC   C1A30711  30.082   2.921   8.685
 2149POPC   D2A30712  29.844   2.773   8.320
 2149POPC   C3A30713  30.095   2.863   7.988
 2149POPC   C4A30714  30.032   3.239   7.789
 2149POPC   C1B30715  29.613   2.794   8.784
 2149POPC   C2B30716  29.504   2.428   8.519
 2149POPC   C3B30717  29.571   2.314   8.076
 2149POPC   C4B30718  29.692   2.644   7.754
 2150POPC   NC330719   5.951  20.994   9.451
 2150POPC   PO430720   5.554  21.531   9.342
 2150POPC   GL130721   5.928  21.577   9.093
 2150POPC   GL230722   5.987  21.298   9.076
 2150POPC   C1A30723   6.039  21.506   8.643
 2150POPC   D2A30724   6.030  21.690   8.304
 2150POPC   C3A30725   5.768  21.533   8.011
 2150POPC   C4A30726   5.650  21.365   7.670
 2150POPC   C1B30727   6.200  21.046   8.820
 2150POPC   C2B30728   6.123  20.957   8.416
 2150POPC   C3B30729   5.970  21.089   8.054
 2150POPC   C4B30730   6.046  21.025   7.651
 2151POPC   NC330731  33.720  32.300   9.676
 2151POPC   PO430732  34.259  31.896   9.463
 2151POPC   GL130733  33.891  32.129   9.203
 2151POPC   GL230734  33.685  32.494   9.221
 2151POPC   C1A30735  33.698  32.061   8.788
 2151POPC   D2A30736  33.396  32.136   8.429
 2151POPC   C3A30737  33.525  32.110   7.996
 2151POPC   C4A30738  33.960  32.125   7.895
 2151POPC   C1B30739  33.850  32.576   8.828
 2151POPC   C2B30740  33.889  32.375   8.415
 2151POPC   C3B30741  33.791  32.587   8.045
 2151POPC   C4B30742  33.907  32.571   7.650
 2152POPC   NC330743   2.516  10.877   9.473
 2152POPC   PO430744   2.529  11.559   9.401
 2152POPC   GL130745   2.611  11.234   9.121
 2152POPC   GL230746   2.298  11.127   9.066
 2152POPC   C1A30747   2.872  11.175   8.769
 2152POPC   D2A30748   3.018  11.474   8.503
 2152POPC   C3A30749   2.837  11.336   8.161
 2152POPC   C4A30750   2.848  11.376   7.751
 2152POPC   C1B30751   2.392  10.961   8.660
 2152POPC   C2B30752   2.693  10.881   8.346
 2152POPC   C3B30753   2.557  10.973   7.928
 2152POPC   C4B30754   2.384  11.154   7.576
 2153POPC   NC330755   6.710   6.734   9.596
 2153POPC   PO430756   6.822   7.510   9.487
 2153POPC   GL130757   6.581   7.538   9.103
 2153POPC   GL230758   6.741   7.215   9.049
 2153POPC   C1A30759   6.274   7.626   8.731
 2153POPC   D2A30760   6.149   7.556   8.282
 2153POPC   C3A30761   6.443   7.504   7.925
 2153POPC   C4A30762   6.919   7.428   7.886
 2153POPC   C1B30763   6.676   7.310   8.633
 2153POPC   C2B30764   6.732   7.094   8.269
 2153POPC   C3B30765   6.599   7.009   7.870
 2153POPC   C4B30766   6.697   7.113   7.462
 2154POPC   NC330767  30.967   8.981   9.727
 2154POPC   PO430768  30.522   9.259   9.463
 2154POPC   GL130769  30.645   9.035   9.158
 2154POPC   GL230770  30.949   8.939   9.199
 2154POPC   C1A30771  30.543   9.038   8.728
 2154POPC   D2A30772  30.752   8.870   8.377
 2154POPC   C3A30773  30.629   9.071   7.974
 2154POPC   C4A30774  30.281   9.193   7.721
 2154POPC   C1B30775  31.055   9.104   8.806
 2154POPC   C2B30776  31.267   9.229   8.453
 2154POPC   C3B30777  31.144   9.021   8.068
 2154POPC   C4B30778  31.049   9.271   7.715
 2155POPC   NC330779   4.490  43.723   9.701
 2155POPC   PO430780   3.874  44.028   9.494
 2155POPC   GL130781   4.214  43.887   9.285
 2155POPC   GL230782   4.475  44.131   9.223
 2155POPC   C1A30783   4.309  43.633   8.949
 2155POPC   D2A30784   4.389  43.708   8.524
 2155POPC   C3A30785   4.104  43.658   8.211
 2155POPC   C4A30786   4.208  43.680   7.800
 2155POPC   C1B30787   4.474  44.298   8.805
 2155POPC   C2B30788   4.636  44.147   8.412
 2155POPC   C3B30789   4.390  44.092   8.066
 2155POPC   C4B30790   4.345  44.411   7.759
 2156POPC   NC330791  43.860  38.844   9.505
 2156POPC   PO430792  43.903  38.138   9.468
 2156POPC   GL130793  43.811  38.420   9.154
 2156POPC   GL230794  44.073  38.666   9.076
 2156POPC   C1A30795  43.644  38.642   8.788
 2156POPC   D2A30796  43.679  38.892   8.420
 2156POPC   C3A30797  43.608  38.692   8.030
 2156POPC   C4A30798  43.706  38.634   7.611
 2156POPC   C1B30799  44.093  38.372   8.740
 2156POPC   C2B30800  44.042  38.520   8.335
 2156POPC   C3B30801  44.129  38.558   7.915
 2156POPC   C4B30802  44.235  38.167   7.743
 2157POPC   NC330803  38.182  31.302   9.466
 2157POPC   PO430804  38.715  31.671   9.668
 2157POPC   GL130805  38.646  31.528   9.267
 2157POPC   GL230806  38.797  31.191   9.306
 2157POPC   C1A30807  38.467  31.638   8.853
 2157POPC   D2A30808  38.370  31.731   8.424
 2157POPC   C3A30809  38.286  31.356   8.154
 2157POPC   C4A30810  38.272  31.371   7.713
 2157POPC   C1B30811  38.871  31.306   8.869
 2157POPC   C2B30812  38.683  31.278   8.460
 2157POPC   C3B30813  38.806  31.224   8.033
 2157POPC   C4B30814  38.713  31.136   7.591
 2158POPC   NC330815  33.537   4.968   9.535
 2158POPC   PO430816  34.167   5.006   9.354
 2158POPC   GL130817  33.839   5.182   9.136
 2158POPC   GL230818  33.637   4.905   9.022
 2158POPC   C1A30819  33.915   5.281   8.720
 2158POPC   D2A30820  33.820   5.122   8.322
 2158POPC   C3A30821  33.577   5.353   8.048
 2158POPC   C4A30822  33.769   5.389   7.674
 2158POPC   C1B30823  33.783   4.714   8.641
 2158POPC   C2B30824  33.702   4.626   8.194
 2158POPC   C3B30825  33.648   4.886   7.815
 2158POPC   C4B30826  33.955   4.938   7.454
 2159POPC   NC330827   2.824  44.016   9.443
 2159POPC   PO430828   2.403  43.558   9.422
 2159POPC   GL130829   2.543  43.784   9.096
 2159POPC   GL230830   2.908  43.807   9.005
 2159POPC   C1A30831   2.491  44.092   8.789
 2159POPC   D2A30832   2.359  44.034   8.364
 2159POPC   C3A30833   2.662  43.976   8.015
 2159POPC   C4A30834   2.669  43.752   7.582
 2159POPC   C1B30835   2.943  43.916   8.577
 2159POPC   C2B30836   3.138  43.684   8.246
 2159POPC   C3B30837   3.134  43.777   7.830
 2159POPC   C4B30838   3.095  43.528   7.486
 2160POPC   NC330839   4.050   2.176   9.306
 2160POPC   PO430840   3.365   1.912   9.411
 2160POPC   GL130841   3.581   2.036   9.110
 2160POPC   GL230842   3.802   1.766   9.047
 2160POPC   C1A30843   3.687   2.179   8.744
 2160POPC   D2A30844   3.700   1.927   8.416
 2160POPC   C3A30845   3.660   2.257   8.129
 2160POPC   C4A30846   3.496   2.201   7.746
 2160POPC   C1B30847   3.517   1.582   8.760
 2160POPC   C2B30848   3.367   1.526   8.322
 2160POPC   C3B30849   3.572   1.738   7.961
 2160POPC   C4B30850   3.418   1.753   7.540
 2161POPC   NC330851  14.176  17.972   9.481
 2161POPC   PO430852  14.531  18.583   9.429
 2161POPC   GL130853  14.247  18.377   9.163
 2161POPC   GL230854  14.502  18.187   9.061
 2161POPC   C1A30855  14.121  18.324   8.754
 2161POPC   D2A30856  14.375  18.353   8.410
 2161POPC   C3A30857  14.240  18.327   7.996
 2161POPC   C4A30858  14.523  18.507   7.768
 2161POPC   C1B30859  14.472  17.939   8.715
 2161POPC   C2B30860  14.399  17.842   8.338
 2161POPC   C3B30861  14.629  18.024   8.073
 2161POPC   C4B30862  14.542  17.974   7.682
 2162POPC   NC330863  38.832  34.053   9.424
 2162POPC   PO430864  39.363  33.707   9.538
 2162POPC   GL130865  39.140  33.709   9.170
 2162POPC   GL230866  39.445  33.869   9.056
 2162POPC   C1A30867  39.011  33.801   8.736
 2162POPC   D2A30868  38.907  33.538   8.367
 2162POPC   C3A30869  38.941  33.761   7.947
 2162POPC   C4A30870  38.909  33.674   7.444
 2162POPC   C1B30871  39.453  34.116   8.708
 2162POPC   C2B30872  39.235  34.064   8.324
 2162POPC   C3B30873  39.439  34.119   7.951
 2162POPC   C4B30874  39.316  33.882   7.639
 2163POPC   NC330875  31.118  36.447   9.464
 2163POPC   PO430876  30.580  36.057   9.572
 2163POPC   GL130877  30.609  36.096   9.126
 2163POPC   GL230878  30.711  36.451   9.134
 2163POPC   C1A30879  30.709  36.000   8.672
 2163POPC   D2A30880  31.012  35.991   8.323
 2163POPC   C3A30881  30.976  36.005   7.855
 2163POPC   C4A30882  31.096  36.024   7.399
 2163POPC   C1B30883  30.428  36.415   8.777
 2163POPC   C2B30884  30.418  36.325   8.318
 2163POPC   C3B30885  30.501  36.353   7.860
 2163POPC   C4B30886  30.804  36.425   7.501
 2164POPC   NC330887   7.871  35.518   9.432
 2164POPC   PO430888   8.439  35.215   9.430
 2164POPC   GL130889   8.128  35.234   9.115
 2164POPC   GL230890   7.908  34.964   9.105
 2164POPC   C1A30891   8.027  35.521   8.779
 2164POPC   D2A30892   8.347  35.505   8.485
 2164POPC   C3A30893   8.261  35.655   8.098
 2164POPC   C4A30894   8.184  35.458   7.740
 2164POPC   C1B30895   8.052  35.031   8.665
 2164POPC   C2B30896   7.902  35.233   8.305
 2164POPC   C3B30897   7.957  35.033   7.910
 2164POPC   C4B30898   8.017  35.054   7.462
 2165POPC   NC330899   3.931   8.708   9.417
 2165POPC   PO430900   3.268   8.841   9.440
 2165POPC   GL130901   3.566   8.979   9.125
 2165POPC   GL230902   3.618   9.318   9.203
 2165POPC   C1A30903   3.706   9.026   8.687
 2165POPC   D2A30904   3.830   8.902   8.297
 2165POPC   C3A30905   3.470   8.850   8.034
 2165POPC   C4A30906   3.355   9.019   7.686
 2165POPC   C1B30907   3.430   9.425   8.784
 2165POPC   C2B30908   3.528   9.328   8.298
 2165POPC   C3B30909   3.783   9.215   7.891
 2165POPC   C4B30910   3.693   9.257   7.399
 2166POPC   NC330911  16.279   4.040   9.647
 2166POPC   PO430912  16.274   4.558   9.341
 2166POPC   GL130913  16.570   4.266   9.264
 2166POPC   GL230914  16.757   4.527   9.142
 2166POPC   C1A30915  16.600   4.077   8.874
 2166POPC   D2A30916  16.848   4.010   8.497
 2166POPC   C3A30917  16.681   4.204   8.136
 2166POPC   C4A30918  16.950   4.149   7.812
 2166POPC   C1B30919  16.850   4.707   8.769
 2166POPC   C2B30920  17.037   4.625   8.406
 2166POPC   C3B30921  16.938   4.803   8.067
 2166POPC   C4B30922  16.751   4.614   7.765
 2167POPC   NC330923  43.294   8.846   9.473
 2167POPC   PO430924  42.626   8.693   9.379
 2167POPC   GL130925  42.833   8.995   9.034
 2167POPC   GL230926  43.198   9.077   9.025
 2167POPC   C1A30927  42.975   9.099   8.573
 2167POPC   D2A30928  43.210   8.796   8.288
 2167POPC   C3A30929  43.189   8.769   7.834
 2167POPC   C4A30930  43.304   8.954   7.412
 2167POPC   C1B30931  43.560   9.199   8.787
 2167POPC   C2B30932  43.571   9.337   8.378
 2167POPC   C3B30933  43.313   9.271   8.040
 2167POPC   C4B30934  43.001   9.217   7.737
 2168POPC   NC330935  24.437  17.686   9.649
 2168POPC   PO430936  24.232  17.104   9.695
 2168POPC   GL130937  24.253  17.385   9.287
 2168POPC   GL230938  24.625  17.461   9.192
 2168POPC   C1A30939  24.241  17.350   8.835
 2168POPC   D2A30940  24.517  17.418   8.495
 2168POPC   C3A30941  24.444  17.237   8.089
 2168POPC   C4A30942  24.383  17.484   7.717
 2168POPC   C1B30943  24.813  17.755   8.875
 2168POPC   C2B30944  24.635  17.934   8.515
 2168POPC   C3B30945  24.603  17.756   8.111
 2168POPC   C4B30946  24.907  17.912   7.852
 2169POPC   NC330947  27.213   6.387   9.409
 2169POPC   PO430948  27.037   7.035   9.638
 2169POPC   GL130949  26.869   6.740   9.267
 2169POPC   GL230950  26.538   6.820   9.116
 2169POPC   C1A30951  27.011   6.597   8.807
 2169POPC   D2A30952  26.900   6.703   8.370
 2169POPC   C3A30953  27.119   6.546   7.979
 2169POPC   C4A30954  27.062   6.792   7.617
 2169POPC   C1B30955  26.520   6.486   8.759
 2169POPC   C2B30956  26.529   6.344   8.303
 2169POPC   C3B30957  26.616   6.625   7.925
 2169POPC   C4B30958  26.559   6.795   7.474
 2170POPC   NC330959   4.258   1.291   9.722
 2170POPC   PO430960   4.859   1.511   9.652
 2170POPC   GL130961   4.569   1.384   9.285
 2170POPC   GL230962   4.205   1.328   9.182
 2170POPC   C1A30963   4.555   1.337   8.796
 2170POPC   D2A30964   4.335   1.093   8.427
 2170POPC   C3A30965   4.445   1.046   7.962
 2170POPC   C4A30966   4.544   0.869   7.508
 2170POPC   C1B30967   4.059   1.429   8.756
 2170POPC   C2B30968   4.273   1.590   8.357
 2170POPC   C3B30969   4.206   1.539   7.893
 2170POPC   C4B30970   3.856   1.532   7.577
 2171POPC   NC330971   5.161   8.837   9.735
 2171POPC   PO430972   5.299   9.141   9.160
 2171POPC   GL130973   5.129   8.770   9.021
 2171POPC   GL230974   4.826   8.634   9.168
 2171POPC   C1A30975   4.859   8.876   8.679
 2171POPC   D2A30976   5.116   8.934   8.333
 2171POPC   C3A30977   4.892   9.134   8.030
 2171POPC   C4A30978   5.075   9.337   7.686
 2171POPC   C1B30979   4.853   8.381   8.816
 2171POPC   C2B30980   4.837   8.473   8.351
 2171POPC   C3B30981   5.056   8.584   7.956
 2171POPC   C4B30982   4.960   8.861   7.590
 2172POPC   NC330983  44.857  11.845   9.246
 2172POPC   PO430984  44.352  12.221   9.501
 2172POPC   GL130985  44.560  12.258   9.113
 2172POPC   GL230986  44.873  12.378   9.271
 2172POPC   C1A30987  44.568  12.047   8.685
 2172POPC   D2A30988  44.668  12.145   8.247
 2172POPC   C3A30989  44.410  12.088   7.904
 2172POPC   C4A30990  44.450  12.130   7.445
 2172POPC   C1B30991  44.990  12.447   8.852
 2172POPC   C2B30992   0.018  12.480   8.413
 2172POPC   C3B30993   0.127  12.255   8.031
 2172POPC   C4B30994  44.876  12.150   7.692
 2173POPC   NC330995  43.290  39.031   9.461
 2173POPC   PO430996  42.783  39.408   9.524
 2173POPC   GL130997  43.000  39.268   9.117
 2173POPC   GL230998  43.336  39.423   9.103
 2173POPC   C1A30999  43.240  38.997   8.787
 2173POPC   D2A31000  43.070  39.099   8.356
 2173POPC   C3A31001  43.213  39.031   7.925
 2173POPC   C4A31002  43.029  38.766   7.588
 2173POPC   C1B31003  43.158  39.493   8.668
 2173POPC   C2B31004  43.229  39.548   8.214
 2173POPC   C3B31005  43.454  39.668   7.821
 2173POPC   C4B31006  43.396  39.508   7.397
 2174POPC   NC331007   2.157  11.839   9.498
 2174POPC   PO431008   1.515  12.024   9.329
 2174POPC   GL131009   1.853  12.130   9.129
 2174POPC   GL231010   1.670  12.435   9.035
 2174POPC   C1A31011   2.135  12.126   8.788
 2174POPC   D2A31012   2.186  11.856   8.471
 2174POPC   C3A31013   2.236  12.000   8.048
 2174POPC   C4A31014   1.961  11.745   7.826
 2174POPC   C1B31015   1.649  12.261   8.643
 2174POPC   C2B31016   1.891  12.304   8.285
 2174POPC   C3B31017   1.783  12.227   7.834
 2174POPC   C4B31018   1.695  12.255   7.366
 2175POPC   NC331019  10.028  17.745   9.432
 2175POPC   PO431020  10.511  17.309   9.570
 2175POPC   GL131021  10.561  17.285   9.144
 2175POPC   GL231022  10.843  17.178   9.038
 2175POPC   C1A31023  10.601  17.597   8.805
 2175POPC   D2A31024  10.428  17.850   8.459
 2175POPC   C3A31025  10.199  17.573   8.153
 2175POPC   C4A31026  10.298  17.244   7.829
 2175POPC   C1B31027  10.638  17.104   8.638
 2175POPC   C2B31028  10.662  17.412   8.301
 2175POPC   C3B31029  10.657  17.609   7.891
 2175POPC   C4B31030  10.857  17.311   7.625
 2176POPC   NC331031  28.280  12.054   9.397
 2176POPC   PO431032  27.480  12.006   9.514
 2176POPC   GL131033  27.790  11.944   9.267
 2176POPC   GL231034  27.846  12.245   9.197
 2176POPC   C1A31035  27.693  11.862   8.841
 2176POPC   D2A31036  27.363  12.004   8.552
 2176POPC   C3A31037  27.481  11.915   8.144
 2176POPC   C4A31038  27.574  11.937   7.717
 2176POPC   C1B31039  27.703  12.383   8.806
 2176POPC   C2B31040  27.800  12.244   8.403
 2176POPC   C3B31041  27.651  12.380   8.015
 2176POPC   C4B31042  27.853  12.350   7.632
 2177POPC   NC331043  13.717   8.939   9.488
 2177POPC   PO431044  13.150   9.399   9.290
 2177POPC   GL131045  13.343   9.071   9.043
 2177POPC   GL231046  13.457   8.735   9.086
 2177POPC   C1A31047  13.759   9.083   8.818
 2177POPC   D2A31048  13.880   9.039   8.391
 2177POPC   C3A31049  13.557   8.995   8.081
 2177POPC   C4A31050  13.681   9.093   7.671
 2177POPC   C1B31051  13.403   8.789   8.611
 2177POPC   C2B31052  13.597   8.538   8.305
 2177POPC   C3B31053  13.496   8.507   7.883
 2177POPC   C4B31054  13.297   8.777   7.585
 2178POPC   NC331055   8.363  20.826   9.438
 2178POPC   PO431056   7.795  20.883   9.086
 2178POPC   GL131057   8.064  20.590   8.902
 2178POPC   GL231058   8.395  20.630   8.964
 2178POPC   C1A31059   7.914  20.444   8.532
 2178POPC   D2A31060   7.841  20.752   8.226
 2178POPC   C3A31061   8.161  20.598   7.965
 2178POPC   C4A31062   8.025  20.167   7.814
 2178POPC   C1B31063   8.416  20.650   8.515
 2178POPC   C2B31064   8.308  20.986   8.320
 2178POPC   C3B31065   8.464  21.032   7.937
 2178POPC   C4B31066   8.298  20.968   7.571
 2179POPC   NC331067   9.305   5.082   9.457
 2179POPC   PO431068   8.723   4.752   9.484
 2179POPC   GL131069   8.789   4.954   9.071
 2179POPC   GL231070   8.712   5.333   8.934
 2179POPC   C1A31071   8.955   4.963   8.656
 2179POPC   D2A31072   8.780   5.290   8.411
 2179POPC   C3A31073   8.713   5.252   7.976
 2179POPC   C4A31074   8.911   4.990   7.667
 2179POPC   C1B31075   9.150   5.443   8.744
 2179POPC   C2B31076   9.367   5.249   8.424
 2179POPC   C3B31077   9.239   5.238   8.005
 2179POPC   C4B31078   9.087   5.547   7.734
 2180POPC   NC331079  23.547  41.363   9.481
 2180POPC   PO431080  23.644  42.014   9.703
 2180POPC   GL131081  23.946  41.611   9.304
 2180POPC   GL231082  23.781  41.368   9.062
 2180POPC   C1A31083  24.036  41.627   8.755
 2180POPC   D2A31084  23.885  41.576   8.317
 2180POPC   C3A31085  23.790  41.803   7.973
 2180POPC   C4A31086  24.044  42.037   7.706
 2180POPC   C1B31087  23.691  41.252   8.664
 2180POPC   C2B31088  23.857  41.086   8.285
 2180POPC   C3B31089  23.721  41.276   7.869
 2180POPC   C4B31090  23.487  41.284   7.438
 2181POPC   NC331091   6.726  31.855   9.343
 2181POPC   PO431092   6.209  32.320   9.535
 2181POPC   GL131093   6.580  32.337   9.273
 2181POPC   GL231094   6.368  32.215   9.035
 2181POPC   C1A31095   6.835  32.327   8.872
 2181POPC   D2A31096   6.745  32.450   8.446
 2181POPC   C3A31097   6.864  32.147   8.123
 2181POPC   C4A31098   6.884  32.317   7.702
 2181POPC   C1B31099   6.396  32.075   8.614
 2181POPC   C2B31100   6.251  31.929   8.219
 2181POPC   C3B31101   6.427  32.065   7.846
 2181POPC   C4B31102   6.366  32.348   7.528
 2182POPC   NC331103  15.563  26.846   9.559
 2182POPC   PO431104  16.170  26.752   9.507
 2182POPC   GL131105  15.854  26.814   9.119
 2182POPC   GL231106  15.499  26.608   9.112
 2182POPC   C1A31107  15.894  26.982   8.657
 2182POPC   D2A31108  16.196  26.946   8.293
 2182POPC   C3A31109  16.110  27.204   7.888
 2182POPC   C4A31110  16.103  26.999   7.499
 2182POPC   C1B31111  15.669  26.528   8.717
 2182POPC   C2B31112  15.870  26.558   8.313
 2182POPC   C3B31113  15.906  26.744   7.899
 2182POPC   C4B31114  15.634  26.795   7.540
 2183POPC   NC331115  11.574  15.730   9.776
 2183POPC   PO431116  11.830  16.245   9.378
 2183POPC   GL131117  11.633  16.159   9.020
 2183POPC   GL231118  11.896  16.366   8.863
 2183POPC   C1A31119  11.770  15.915   8.670
 2183POPC   D2A31120  11.959  16.049   8.337
 2183POPC   C3A31121  11.699  15.931   8.022
 2183POPC   C4A31122  11.881  15.782   7.667
 2183POPC   C1B31123  12.263  16.126   8.750
 2183POPC   C2B31124  12.525  15.956   8.420
 2183POPC   C3B31125  12.486  16.056   7.997
 2183POPC   C4B31126  12.108  16.245   7.899
 2184POPC   NC331127   7.049  29.723   9.357
 2184POPC   PO431128   6.471  29.748   9.660
 2184POPC   GL131129   6.537  29.966   9.205
 2184POPC   GL231130   6.868  30.088   9.032
 2184POPC   C1A31131   6.433  30.072   8.767
 2184POPC   D2A31132   6.809  30.131   8.464
 2184POPC   C3A31133   6.784  30.017   8.044
 2184POPC   C4A31134   6.747  30.291   7.713
 2184POPC   C1B31135   6.810  29.730   8.767
 2184POPC   C2B31136   6.795  29.574   8.364
 2184POPC   C3B31137   6.971  29.568   7.939
 2184POPC   C4B31138   6.734  29.752   7.592
 2185POPC   NC331139  12.184  22.398   9.505
 2185POPC   PO431140  11.951  21.737   9.572
 2185POPC   GL131141  12.056  21.963   9.172
 2185POPC   GL231142  12.311  22.173   8.965
 2185POPC   C1A31143  11.980  21.840   8.770
 2185POPC   D2A31144  11.902  22.008   8.414
 2185POPC   C3A31145  12.069  21.869   8.025
 2185POPC   C4A31146  11.863  21.898   7.694
 2185POPC   C1B31147  11.970  22.369   8.788
 2185POPC   C2B31148  11.991  22.552   8.404
 2185POPC   C3B31149  11.942  22.359   8.045
 2185POPC   C4B31150  12.140  22.321   7.729
 2186POPC   NC331151  10.253  36.806   9.600
 2186POPC   PO431152  10.858  36.963   9.386
 2186POPC   GL131153  10.700  37.023   9.021
 2186POPC   GL231154  10.402  36.814   9.087
 2186POPC   C1A31155  10.620  37.015   8.596
 2186POPC   D2A31156  10.435  36.804   8.269
 2186POPC   C3A31157  10.535  37.117   7.976
 2186POPC   C4A31158  10.648  37.093   7.545
 2186POPC   C1B31159  10.191  37.153   8.849
 2186POPC   C2B31160  10.172  37.210   8.406
 2186POPC   C3B31161  10.051  37.349   8.023
 2186POPC   C4B31162  10.141  37.147   7.627
 2187POPC   NC331163   3.398  29.499   9.571
 2187POPC   PO431164   3.376  28.825   9.454
 2187POPC   GL131165   3.646  28.953   9.099
 2187POPC   GL231166   3.723  29.340   9.149
 2187POPC   C1A31167   3.454  28.936   8.662
 2187POPC   D2A31168   3.259  29.047   8.226
 2187POPC   C3A31169   3.492  28.835   7.893
 2187POPC   C4A31170   3.928  28.725   7.985
 2187POPC   C1B31171   3.867  29.265   8.711
 2187POPC   C2B31172   3.756  29.159   8.267
 2187POPC   C3B31173   3.674  29.308   7.847
 2187POPC   C4B31174   3.340  29.541   7.622
 2188POPC   NC331175  13.141  38.645   9.442
 2188POPC   PO431176  12.527  38.304   9.418
 2188POPC   GL131177  12.881  38.252   9.164
 2188POPC   GL231178  12.759  38.520   9.004
 2188POPC   C1A31179  13.210  38.325   8.832
 2188POPC   D2A31180  13.183  38.181   8.413
 2188POPC   C3A31181  13.033  38.428   8.078
 2188POPC   C4A31182  13.161  38.312   7.693
 2188POPC   C1B31183  12.711  38.230   8.690
 2188POPC   C2B31184  12.720  38.058   8.303
 2188POPC   C3B31185  12.701  38.136   7.836
 2188POPC   C4B31186  12.700  38.523   7.616
 2189POPC   NC331187   0.134  16.141   9.603
 2189POPC   PO431188   0.021  15.520   9.270
 2189POPC   GL131189  44.881  15.920   9.100
 2189POPC   GL231190  44.579  15.918   8.914
 2189POPC   C1A31191   0.014  16.133   8.721
 2189POPC   D2A31192  44.716  16.081   8.427
 2189POPC   C3A31193  44.808  16.013   8.034
 2189POPC   C4A31194  44.539  15.846   7.758
 2189POPC   C1B31195  44.439  16.331   8.767
 2189POPC   C2B31196  44.413  16.475   8.345
 2189POPC   C3B31197  44.495  16.413   7.930
 2189POPC   C4B31198  44.208  16.232   7.695
 2190POPC   NC331199  14.650   0.900   9.681
 2190POPC   PO431200  14.329   1.472   9.444
 2190POPC   GL131201  14.384   1.260   9.068
 2190POPC   GL231202  14.428   0.928   9.161
 2190POPC   C1A31203  14.224   1.254   8.649
 2190POPC   D2A31204  14.127   1.275   8.212
 2190POPC   C3A31205  14.470   1.235   7.916
 2190POPC   C4A31206  14.408   1.152   7.479
 2190POPC   C1B31207  14.370   0.766   8.723
 2190POPC   C2B31208  14.362   0.825   8.258
 2190POPC   C3B31209  14.270   0.767   7.808
 2190POPC   C4B31210  14.444   0.662   7.348
 2191POPC   NC331211  25.549  33.907   9.323
 2191POPC   PO431212  25.200  34.494   9.557
 2191POPC   GL131213  25.379  34.477   9.158
 2191POPC   GL231214  25.680  34.672   9.218
 2191POPC   C1A31215  25.229  34.559   8.708
 2191POPC   D2A31216  25.239  34.692   8.289
 2191POPC   C3A31217  25.252  34.388   7.993
 2191POPC   C4A31218  25.088  34.482   7.625
 2191POPC   C1B31219  25.729  34.593   8.802
 2191POPC   C2B31220  25.757  34.771   8.411
 2191POPC   C3B31221  25.714  34.641   8.003
 2191POPC   C4B31222  25.389  34.860   7.817
 2192POPC   NC331223  19.736   2.271   9.557
 2192POPC   PO431224  19.185   2.007   9.490
 2192POPC   GL131225  19.548   1.891   9.225
 2192POPC   GL231226  19.790   2.132   9.074
 2192POPC   C1A31227  19.540   1.853   8.746
 2192POPC   D2A31228  19.463   2.018   8.326
 2192POPC   C3A31229  19.690   1.980   7.930
 2192POPC   C4A31230  19.730   1.744   7.526
 2192POPC   C1B31231  20.014   2.238   8.687
 2192POPC   C2B31232  20.063   2.129   8.256
 2192POPC   C3B31233  20.173   2.173   7.842
 2192POPC   C4B31234  20.217   2.571   7.639
 2193POPC   NC331235  28.729  43.059   9.529
 2193POPC   PO431236  29.356  42.779   9.558
 2193POPC   GL131237  29.101  42.923   9.203
 2193POPC   GL231238  29.096  43.260   9.178
 2193POPC   C1A31239  28.811  43.026   8.827
 2193POPC   D2A31240  28.739  42.784   8.442
 2193POPC   C3A31241  28.918  42.906   8.064
 2193POPC   C4A31242  28.779  43.203   7.815
 2193POPC   C1B31243  29.311  43.107   8.784
 2193POPC   C2B31244  29.113  43.224   8.420
 2193POPC   C3B31245  29.202  43.356   8.015
 2193POPC   C4B31246  29.416  43.145   7.740
 2194POPC   NC331247  11.909  39.369   9.530
 2194POPC   PO431248  12.517  39.189   9.248
 2194POPC   GL131249  12.098  39.107   9.114
 2194POPC   GL231250  11.996  39.392   8.986
 2194POPC   C1A31251  11.952  38.943   8.715
 2194POPC   D2A31252  12.157  38.902   8.329
 2194POPC   C3A31253  11.906  39.022   7.993
 2194POPC   C4A31254  11.984  39.374   7.702
 2194POPC   C1B31255  12.292  39.305   8.610
 2194POPC   C2B31256  12.308  39.344   8.133
 2194POPC   C3B31257  12.482  39.313   7.720
 2194POPC   C4B31258  12.343  39.476   7.293
 2195POPC   NC331259  14.046  30.804   9.665
 2195POPC   PO431260  14.183  30.246   9.392
 2195POPC   GL131261  14.356  30.475   9.033
 2195POPC   GL231262  14.516  30.785   9.067
 2195POPC   C1A31263  14.157  30.730   8.719
 2195POPC   D2A31264  14.339  30.973   8.422
 2195POPC   C3A31265  14.253  30.761   8.087
 2195POPC   C4A31266  14.270  30.875   7.721
 2195POPC   C1B31267  14.700  30.643   8.672
 2195POPC   C2B31268  14.745  30.634   8.238
 2195POPC   C3B31269  14.714  30.612   7.804
 2195POPC   C4B31270  14.796  30.545   7.346
 2196POPC   NC331271   7.782  13.203   9.960
 2196POPC   PO431272   8.115  12.993   9.425
 2196POPC   GL131273   8.285  12.949   9.065
 2196POPC   GL231274   8.593  13.043   9.089
 2196POPC   C1A31275   8.136  13.111   8.676
 2196POPC   D2A31276   8.051  13.219   8.228
 2196POPC   C3A31277   8.156  12.914   7.904
 2196POPC   C4A31278   7.854  12.739   7.573
 2196POPC   C1B31279   8.620  13.307   8.757
 2196POPC   C2B31280   8.531  13.246   8.367
 2196POPC   C3B31281   8.716  13.210   7.996
 2196POPC   C4B31282   8.583  13.150   7.624
 2197POPC   NC331283  29.220   0.839   9.427
 2197POPC   PO431284  28.997   1.478   9.504
 2197POPC   GL131285  28.945   1.345   9.135
 2197POPC   GL231286  28.633   1.452   9.072
 2197POPC   C1A31287  29.212   1.298   8.776
 2197POPC   D2A31288  29.371   0.934   8.524
 2197POPC   C3A31289  29.301   0.987   8.101
 2197POPC   C4A31290  29.216   1.170   7.737
 2197POPC   C1B31291  28.718   1.072   8.782
 2197POPC   C2B31292  28.909   1.129   8.385
 2197POPC   C3B31293  28.819   1.319   8.017
 2197POPC   C4B31294  28.594   1.096   7.727
 2198POPC   NC331295   6.473  38.411   9.526
 2198POPC   PO431296   7.192  38.147   9.472
 2198POPC   GL131297   6.832  38.321   9.163
 2198POPC   GL231298   6.476  38.159   9.107
 2198POPC   C1A31299   6.610  38.562   8.821
 2198POPC   D2A31300   6.451  38.728   8.432
 2198POPC   C3A31301   6.673  38.604   8.075
 2198POPC   C4A31302   6.670  38.523   7.626
 2198POPC   C1B31303   6.307  38.111   8.713
 2198POPC   C2B31304   6.481  38.176   8.316
 2198POPC   C3B31305   6.537  38.120   7.891
 2198POPC   C4B31306   6.532  38.042   7.424
 2199POPC   NC331307  17.347   5.242   9.517
 2199POPC   PO431308  17.795   4.815   9.327
 2199POPC   GL131309  17.498   5.042   9.070
 2199POPC   GL231310  17.212   5.328   9.049
 2199POPC   C1A31311  17.679   5.189   8.718
 2199POPC   D2A31312  17.851   5.005   8.390
 2199POPC   C3A31313  17.749   5.140   8.010
 2199POPC   C4A31314  17.673   4.898   7.689
 2199POPC   C1B31315  17.178   5.092   8.675
 2199POPC   C2B31316  17.275   5.180   8.282
 2199POPC   C3B31317  17.258   5.122   7.854
 2199POPC   C4B31318  17.288   5.219   7.451
 2200POPC   NC331319  18.106  39.094   9.504
 2200POPC   PO431320  18.665  39.426   9.507
 2200POPC   GL131321  18.459  39.220   9.132
 2200POPC   GL231322  18.099  39.357   9.098
 2200POPC   C1A31323  18.349  39.327   8.686
 2200POPC   D2A31324  18.104  39.409   8.327
 2200POPC   C3A31325  18.346  39.230   8.058
 2200POPC   C4A31326  18.415  39.088   7.661
 2200POPC   C1B31327  17.864  39.440   8.769
 2200POPC   C2B31328  17.666  39.682   8.457
 2200POPC   C3B31329  17.713  39.573   8.033
 2200POPC   C4B31330  17.959  39.350   7.731
 2201POPC   NC331331  30.897  34.288   9.456
 2201POPC   PO431332  30.515  34.752   9.509
 2201POPC   GL131333  30.643  34.564   9.128
 2201POPC   GL231334  30.427  34.266   9.159
 2201POPC   C1A31335  30.805  34.527   8.697
 2201POPC   D2A31336  30.729  34.698   8.276
 2201POPC   C3A31337  30.925  34.495   7.927
 2201POPC   C4A31338  30.954  34.538   7.493
 2201POPC   C1B31339  30.630  34.065   8.808
 2201POPC   C2B31340  30.815  34.049   8.384
 2201POPC   C3B31341  30.613  34.113   7.980
 2201POPC   C4B31342  30.599  34.168   7.511
 2202POPC   NC331343  42.948  32.231   9.508
 2202POPC   PO431344  43.608  32.113   9.525
 2202POPC   GL131345  43.316  32.163   9.184
 2202POPC   GL231346  43.279  32.540   9.247
 2202POPC   C1A31347  43.083  32.185   8.797
 2202POPC   D2A31348  43.199  31.988   8.398
 2202POPC   C3A31349  43.093  32.094   8.056
 2202POPC   C4A31350  43.208  31.867   7.714
 2202POPC   C1B31351  43.284  32.683   8.815
 2202POPC   C2B31352  43.202  32.516   8.400
 2202POPC   C3B31353  43.283  32.571   7.972
 2202POPC   C4B31354  43.061  32.393   7.644
 2203POPC   NC331355  41.139  43.209   9.413
 2203POPC   PO431356  41.772  43.410   9.452
 2203POPC   GL131357  41.625  43.141   9.114
 2203POPC   GL231358  41.300  42.930   9.042
 2203POPC   C1A31359  41.718  42.888   8.774
 2203POPC   D2A31360  41.873  42.997   8.378
 2203POPC   C3A31361  41.715  42.888   7.993
 2203POPC   C4A31362  41.648  43.098   7.618
 2203POPC   C1B31363  41.313  43.213   8.728
 2203POPC   C2B31364  41.333  42.983   8.376
 2203POPC   C3B31365  41.229  43.031   7.982
 2203POPC   C4B31366  41.282  42.759   7.662
 2204POPC   NC331367  24.152  22.521   9.396
 2204POPC   PO431368  23.869  23.083   9.592
 2204POPC   GL131369  23.724  22.977   9.187
 2204POPC   GL231370  23.996  23.122   9.060
 2204POPC   C1A31371  23.565  22.821   8.789
 2204POPC   D2A31372  23.353  22.963   8.410
 2204POPC   C3A31373  23.508  22.827   8.009
 2204POPC   C4A31374  23.424  22.874   7.524
 2204POPC   C1B31375  24.083  22.773   8.762
 2204POPC   C2B31376  23.912  22.782   8.356
 2204POPC   C3B31377  24.045  22.983   7.988
 2204POPC   C4B31378  23.967  23.008   7.553
 2205POPC   NC331379   4.869  28.477   9.776
 2205POPC   PO431380   4.235  28.316   9.484
 2205POPC   GL131381   4.473  28.065   9.219
 2205POPC   GL231382   4.794  28.221   9.223
 2205POPC   C1A31383   4.561  28.005   8.785
 2205POPC   D2A31384   4.583  28.100   8.345
 2205POPC   C3A31385   4.291  28.382   8.100
 2205POPC   C4A31386   4.401  28.230   7.700
 2205POPC   C1B31387   4.799  28.456   8.806
 2205POPC   C2B31388   4.584  28.626   8.437
 2205POPC   C3B31389   4.743  28.590   7.999
 2205POPC   C4B31390   4.839  28.535   7.553
 2206POPC   NC331391  15.630  23.472   9.494
 2206POPC   PO431392  16.176  23.923   9.464
 2206POPC   GL131393  15.864  23.800   9.138
 2206POPC   GL231394  15.836  23.467   9.033
 2206POPC   C1A31395  15.833  23.921   8.698
 2206POPC   D2A31396  16.061  23.894   8.285
 2206POPC   C3A31397  15.929  23.874   7.870
 2206POPC   C4A31398  15.994  23.641   7.459
 2206POPC   C1B31399  15.933  23.417   8.615
 2206POPC   C2B31400  16.003  23.388   8.186
 2206POPC   C3B31401  15.727  23.407   7.827
 2206POPC   C4B31402  15.605  23.320   7.380
 2207POPC   NC331403   1.130  18.418   9.498
 2207POPC   PO431404   1.613  17.949   9.350
 2207POPC   GL131405   1.279  18.146   9.085
 2207POPC   GL231406   0.922  18.070   9.142
 2207POPC   C1A31407   1.148  18.436   8.763
 2207POPC   D2A31408   1.276  18.670   8.355
 2207POPC   C3A31409   1.348  18.544   7.942
 2207POPC   C4A31410   1.689  18.456   7.662
 2207POPC   C1B31411   0.935  17.952   8.703
 2207POPC   C2B31412   1.176  18.140   8.342
 2207POPC   C3B31413   1.281  18.038   7.918
 2207POPC   C4B31414   0.876  17.985   7.709
 2208POPC   NC331415  12.596  11.868   9.629
 2208POPC   PO431416  13.136  12.056   9.559
 2208POPC   GL131417  12.879  11.874   9.199
 2208POPC   GL231418  12.546  11.670   9.161
 2208POPC   C1A31419  12.926  11.969   8.779
 2208POPC   D2A31420  13.108  12.130   8.426
 2208POPC   C3A31421  12.951  12.011   8.021
 2208POPC   C4A31422  13.146  12.069   7.620
 2208POPC   C1B31423  12.434  12.028   8.905
 2208POPC   C2B31424  12.533  12.026   8.443
 2208POPC   C3B31425  12.428  11.977   7.985
 2208POPC   C4B31426  12.643  12.213   7.637
 2209POPC   NC331427  23.529  27.800   9.497
 2209POPC   PO431428  23.904  27.263   9.623
 2209POPC   GL131429  23.977  27.482   9.222
 2209POPC   GL231430  23.917  27.859   9.164
 2209POPC   C1A31431  23.746  27.505   8.833
 2209POPC   D2A31432  23.633  27.421   8.415
 2209POPC   C3A31433  23.943  27.383   8.119
 2209POPC   C4A31434  23.684  27.474   7.789
 2209POPC   C1B31435  24.034  27.915   8.723
 2209POPC   C2B31436  23.863  27.899   8.290
 2209POPC   C3B31437  24.073  27.819   7.892
 2209POPC   C4B31438  23.963  27.741   7.476
 2210POPC   NC331439  37.266   5.056   9.611
 2210POPC   PO431440  37.868   4.644   9.625
 2210POPC   GL131441  37.737   5.005   9.294
 2210POPC   GL231442  37.404   5.011   9.104
 2210POPC   C1A31443  37.807   5.277   8.883
 2210POPC   D2A31444  37.845   5.216   8.390
 2210POPC   C3A31445  37.537   5.290   8.072
 2210POPC   C4A31446  37.623   5.252   7.649
 2210POPC   C1B31447  37.368   5.112   8.654
 2210POPC   C2B31448  37.146   5.007   8.256
 2210POPC   C3B31449  37.147   5.054   7.799
 2210POPC   C4B31450  37.352   4.824   7.477
 2211POPC   NC331451   5.234  38.903   9.523
 2211POPC   PO431452   5.376  39.597   9.465
 2211POPC   GL131453   5.123  39.322   9.231
 2211POPC   GL231454   5.407  39.147   9.113
 2211POPC   C1A31455   4.908  39.238   8.855
 2211POPC   D2A31456   4.763  39.414   8.459
 2211POPC   C3A31457   4.913  39.238   8.084
 2211POPC   C4A31458   5.095  39.210   7.677
 2211POPC   C1B31459   5.251  38.837   8.852
 2211POPC   C2B31460   5.176  38.985   8.463
 2211POPC   C3B31461   5.402  39.098   8.112
 2211POPC   C4B31462   5.364  38.792   7.775
 2212POPC   NC331463  37.371  34.342   9.510
 2212POPC   PO431464  37.892  34.774   9.661
 2212POPC   GL131465  37.696  34.654   9.260
 2212POPC   GL231466  37.809  34.301   9.222
 2212POPC   C1A31467  37.548  34.676   8.820
 2212POPC   D2A31468  37.759  34.946   8.482
 2212POPC   C3A31469  37.685  34.852   8.050
 2212POPC   C4A31470  37.482  34.631   7.713
 2212POPC   C1B31471  37.928  34.345   8.791
 2212POPC   C2B31472  37.697  34.394   8.392
 2212POPC   C3B31473  37.870  34.376   7.991
 2212POPC   C4B31474  38.002  34.654   7.676
 2213POPC   NC331475   0.663  38.177   9.377
 2213POPC   PO431476   0.512  37.526   9.571
 2213POPC   GL131477   0.374  37.758   9.212
 2213POPC   GL231478  44.988  37.789   9.181
 2213POPC   C1A31479   0.555  37.830   8.794
 2213POPC   D2A31480   0.850  37.974   8.463
 2213POPC   C3A31481   0.833  37.881   8.023
 2213POPC   C4A31482   0.680  37.546   7.798
 2213POPC   C1B31483   0.083  37.534   8.854
 2213POPC   C2B31484   0.244  37.644   8.450
 2213POPC   C3B31485   0.306  37.791   8.068
 2213POPC   C4B31486   0.235  37.671   7.649
 2214POPC   NC331487   7.267  41.713   9.480
 2214POPC   PO431488   7.942  41.567   9.608
 2214POPC   GL131489   7.709  41.689   9.236
 2214POPC   GL231490   7.497  41.395   9.126
 2214POPC   C1A31491   7.603  41.750   8.796
 2214POPC   D2A31492   7.518  41.549   8.423
 2214POPC   C3A31493   7.565  41.781   8.064
 2214POPC   C4A31494   7.471  41.730   7.648
 2214POPC   C1B31495   7.139  41.499   8.832
 2214POPC   C2B31496   6.981  41.363   8.449
 2214POPC   C3B31497   7.122  41.506   8.055
 2214POPC   C4B31498   6.966  41.683   7.651
 2215POPC   NC331499  26.735  43.784   9.833
 2215POPC   PO431500  26.793  43.111   9.546
 2215POPC   GL131501  26.640  43.120   9.153
 2215POPC   GL231502  26.934  42.895   9.079
 2215POPC   C1A31503  26.528  42.927   8.778
 2215POPC   D2A31504  26.266  42.943   8.450
 2215POPC   C3A31505  26.435  42.969   8.061
 2215POPC   C4A31506  26.551  42.707   7.732
 2215POPC   C1B31507  27.026  43.038   8.688
 2215POPC   C2B31508  26.886  43.241   8.347
 2215POPC   C3B31509  26.776  43.327   7.951
 2215POPC   C4B31510  27.015  43.242   7.646
 2216POPC   NC331511   9.546   1.762   9.348
 2216POPC   PO431512   9.592   1.135   9.481
 2216POPC   GL131513   9.756   1.257   9.090
 2216POPC   GL231514   9.902   0.908   9.035
 2216POPC   C1A31515   9.863   1.246   8.654
 2216POPC   D2A31516   9.871   1.047   8.231
 2216POPC   C3A31517   9.914   1.339   7.849
 2216POPC   C4A31518  10.050   1.537   7.438
 2216POPC   C1B31519   9.490   0.937   8.806
 2216POPC   C2B31520   9.389   1.161   8.396
 2216POPC   C3B31521   9.429   0.983   7.969
 2216POPC   C4B31522   9.291   0.723   7.628
 2217POPC   NC331523  18.852   4.920   9.555
 2217POPC   PO431524  19.201   5.379   9.269
 2217POPC   GL131525  18.942   5.159   9.070
 2217POPC   GL231526  18.642   5.272   9.115
 2217POPC   C1A31527  19.017   5.080   8.652
 2217POPC   D2A31528  19.211   4.909   8.311
 2217POPC   C3A31529  19.114   5.040   7.942
 2217POPC   C4A31530  18.949   4.891   7.580
 2217POPC   C1B31531  18.599   5.360   8.666
 2217POPC   C2B31532  18.771   5.289   8.236
 2217POPC   C3B31533  18.665   5.286   7.768
 2217POPC   C4B31534  18.738   5.280   7.293
 2218POPC   NC331535  24.892  10.372   9.326
 2218POPC   PO431536  25.507  10.734   9.479
 2218POPC   GL131537  25.388  10.547   9.151
 2218POPC   GL231538  25.540  10.218   9.253
 2218POPC   C1A31539  25.185  10.684   8.761
 2218POPC   D2A31540  25.217  11.020   8.430
 2218POPC   C3A31541  25.167  10.846   7.993
 2218POPC   C4A31542  24.878  10.600   7.706
 2218POPC   C1B31543  25.393  10.185   8.817
 2218POPC   C2B31544  25.532  10.353   8.448
 2218POPC   C3B31545  25.401  10.383   8.042
 2218POPC   C4B31546  25.362  10.488   7.638
 2219POPC   NC331547  26.498  32.463   9.498
 2219POPC   PO431548  25.887  32.043   9.478
 2219POPC   GL131549  26.163  32.226   9.164
 2219POPC   GL231550  26.073  32.570   9.248
 2219POPC   C1A31551  26.244  32.301   8.713
 2219POPC   D2A31552  26.000  32.166   8.333
 2219POPC   C3A31553  26.105  32.178   7.881
 2219POPC   C4A31554  26.104  32.006   7.434
 2219POPC   C1B31555  25.861  32.653   8.911
 2219POPC   C2B31556  25.822  32.718   8.484
 2219POPC   C3B31557  26.047  32.656   8.119
 2219POPC   C4B31558  25.924  32.681   7.710
 2220POPC   NC331559  25.077  13.827   9.376
 2220POPC   PO431560  25.585  13.335   9.513
 2220POPC   GL131561  25.322  13.405   9.190
 2220POPC   GL231562  25.504  13.725   9.137
 2220POPC   C1A31563  25.165  13.484   8.775
 2220POPC   D2A31564  25.406  13.527   8.401
 2220POPC   C3A31565  25.211  13.558   8.078
 2220POPC   C4A31566  25.239  13.492   7.706
 2220POPC   C1B31567  25.422  13.918   8.771
 2220POPC   C2B31568  25.094  13.919   8.474
 2220POPC   C3B31569  25.090  14.035   8.047
 2220POPC   C4B31570  24.993  13.954   7.648
 2221POPC   NC331571  11.146  40.031   9.648
 2221POPC   PO431572  11.647  40.502   9.397
 2221POPC   GL131573  11.416  40.334   9.077
 2221POPC   GL231574  11.076  40.325   9.179
 2221POPC   C1A31575  11.348  40.021   8.755
 2221POPC   D2A31576  11.365  39.702   8.406
 2221POPC   C3A31577  11.270  39.869   7.981
 2221POPC   C4A31578  11.391  40.272   7.797
 2221POPC   C1B31579  10.826  40.155   8.853
 2221POPC   C2B31580  10.934  40.021   8.472
 2221POPC   C3B31581  11.141  40.282   8.244
 2221POPC   C4B31582  10.922  40.413   7.897
 2222POPC   NC331583  36.899  20.522   9.612
 2222POPC   PO431584  36.610  21.101   9.700
 2222POPC   GL131585  36.812  20.854   9.247
 2222POPC   GL231586  36.752  20.499   9.134
 2222POPC   C1A31587  36.761  20.885   8.783
 2222POPC   D2A31588  36.710  20.750   8.346
 2222POPC   C3A31589  37.005  20.704   8.033
 2222POPC   C4A31590  36.686  20.728   7.690
 2222POPC   C1B31591  36.769  20.383   8.719
 2222POPC   C2B31592  36.906  20.256   8.315
 2222POPC   C3B31593  36.825  20.267   7.858
 2222POPC   C4B31594  37.115  20.449   7.568
 2223POPC   NC331595  19.265  12.960   9.716
 2223POPC   PO431596  19.984  12.829   9.578
 2223POPC   GL131597  19.933  12.863   9.144
 2223POPC   GL231598  20.252  13.008   9.134
 2223POPC   C1A31599  19.861  12.669   8.747
 2223POPC   D2A31600  19.674  12.621   8.344
 2223POPC   C3A31601  19.872  12.742   7.953
 2223POPC   C4A31602  19.670  12.688   7.557
 2223POPC   C1B31603  20.155  13.085   8.723
 2223POPC   C2B31604  19.983  13.068   8.343
 2223POPC   C3B31605  20.176  13.164   7.980
 2223POPC   C4B31606  20.301  12.961   7.620
 2224POPC   NC331607  10.994  13.444   9.490
 2224POPC   PO431608  11.607  13.625   9.502
 2224POPC   GL131609  11.431  13.620   9.122
 2224POPC   GL231610  11.171  13.738   9.138
 2224POPC   C1A31611  11.465  13.494   8.712
 2224POPC   D2A31612  11.732  13.406   8.385
 2224POPC   C3A31613  11.591  13.658   8.040
 2224POPC   C4A31614  11.406  13.559   7.654
 2224POPC   C1B31615  10.969  13.550   8.816
 2224POPC   C2B31616  11.077  13.622   8.395
 2224POPC   C3B31617  11.008  13.590   7.986
 2224POPC   C4B31618  10.954  13.870   7.682
 2225POPC   NC331619  32.163   1.270   9.350
 2225POPC   PO431620  32.849   1.101   9.454
 2225POPC   GL131621  32.556   1.005   9.138
 2225POPC   GL231622  32.467   1.295   8.965
 2225POPC   C1A31623  32.500   0.833   8.714
 2225POPC   D2A31624  32.303   0.865   8.268
 2225POPC   C3A31625  32.268   1.251   7.979
 2225POPC   C4A31626  32.471   1.644   7.833
 2225POPC   C1B31627  32.131   1.182   8.693
 2225POPC   C2B31628  32.084   1.483   8.403
 2225POPC   C3B31629  32.022   1.760   8.087
 2225POPC   C4B31630  31.902   1.663   7.671
 2226POPC   NC331631  27.831  34.206   9.510
 2226POPC   PO431632  27.370  33.647   9.484
 2226POPC   GL131633  27.524  33.801   9.141
 2226POPC   GL231634  27.859  33.759   9.197
 2226POPC   C1A31635  27.497  33.682   8.719
 2226POPC   D2A31636  27.502  33.971   8.386
 2226POPC   C3A31637  27.468  33.817   8.014
 2226POPC   C4A31638  27.715  33.983   7.688
 2226POPC   C1B31639  27.904  33.420   8.877
 2226POPC   C2B31640  27.825  33.296   8.445
 2226POPC   C3B31641  27.922  33.452   8.039
 2226POPC   C4B31642  27.664  33.448   7.706
 2227POPC   NC331643  32.277  30.508   9.534
 2227POPC   PO431644  32.511  31.066   9.370
 2227POPC   GL131645  32.160  30.852   9.155
 2227POPC   GL231646  31.872  31.073   9.074
 2227POPC   C1A31647  32.112  30.487   8.874
 2227POPC   D2A31648  32.402  30.296   8.548
 2227POPC   C3A31649  32.445  30.557   8.157
 2227POPC   C4A31650  32.389  30.479   7.723
 2227POPC   C1B31651  32.041  30.970   8.661
 2227POPC   C2B31652  31.988  30.619   8.361
 2227POPC   C3B31653  31.933  30.511   7.908
 2227POPC   C4B31654  32.069  30.856   7.600
 2228POPC   NC331655  16.197   7.852   9.312
 2228POPC   PO431656  16.075   7.148   9.447
 2228POPC   GL131657  16.187   7.366   9.090
 2228POPC   GL231658  15.855   7.373   8.977
 2228POPC   C1A31659  16.243   7.195   8.687
 2228POPC   D2A31660  16.406   7.059   8.321
 2228POPC   C3A31661  16.144   7.115   7.981
 2228POPC   C4A31662  16.117   7.370   7.611
 2228POPC   C1B31663  15.585   7.619   8.648
 2228POPC   C2B31664  15.453   7.546   8.256
 2228POPC   C3B31665  15.684   7.528   7.868
 2228POPC   C4B31666  15.602   7.406   7.431
 2229POPC   NC331667  14.868   2.252   9.500
 2229POPC   PO431668  15.301   1.682   9.409
 2229POPC   GL131669  15.293   1.986   9.081
 2229POPC   GL231670  14.976   1.960   9.100
 2229POPC   C1A31671  15.213   2.041   8.642
 2229POPC   D2A31672  15.405   1.872   8.312
 2229POPC   C3A31673  15.230   1.955   7.946
 2229POPC   C4A31674  15.216   1.754   7.597
 2229POPC   C1B31675  14.789   2.242   8.830
 2229POPC   C2B31676  14.650   2.166   8.437
 2229POPC   C3B31677  14.894   2.282   8.131
 2229POPC   C4B31678  14.974   2.415   7.722
 2230POPC   NC331679  43.690  16.013   9.458
 2230POPC   PO431680  44.389  15.992   9.393
 2230POPC   GL131681  44.102  16.090   9.053
 2230POPC   GL231682  43.760  16.128   8.975
 2230POPC   C1A31683  44.136  15.950   8.605
 2230POPC   D2A31684  44.272  15.999   8.178
 2230POPC   C3A31685  44.000  15.810   7.904
 2230POPC   C4A31686  43.623  16.006   7.874
 2230POPC   C1B31687  43.698  15.720   8.786
 2230POPC   C2B31688  43.709  15.716   8.342
 2230POPC   C3B31689  43.527  15.516   7.991
 2230POPC   C4B31690  43.599  15.617   7.551
 2231POPC   NC331691   2.424  27.743   9.382
 2231POPC   PO431692   2.957  27.348   9.457
 2231POPC   GL131693   2.972  27.464   9.055
 2231POPC   GL231694   2.855  27.825   9.099
 2231POPC   C1A31695   2.763  27.494   8.635
 2231POPC   D2A31696   2.412  27.675   8.377
 2231POPC   C3A31697   2.534  27.660   7.967
 2231POPC   C4A31698   2.691  27.423   7.603
 2231POPC   C1B31699   3.146  27.832   8.768
 2231POPC   C2B31700   3.225  27.604   8.379
 2231POPC   C3B31701   3.019  27.573   7.956
 2231POPC   C4B31702   2.925  27.850   7.551
 2232POPC   NC331703  11.856  13.299   9.761
 2232POPC   PO431704  12.124  12.706   9.478
 2232POPC   GL131705  12.038  12.886   9.103
 2232POPC   GL231706  11.701  12.768   9.118
 2232POPC   C1A31707  12.073  13.130   8.684
 2232POPC   D2A31708  12.379  13.056   8.362
 2232POPC   C3A31709  12.292  12.713   8.090
 2232POPC   C4A31710  12.254  12.608   7.674
 2232POPC   C1B31711  11.885  12.650   8.702
 2232POPC   C2B31712  11.841  12.833   8.315
 2232POPC   C3B31713  11.824  12.802   7.880
 2232POPC   C4B31714  11.691  13.128   7.603
 2233POPC   NC331715  18.117   4.607   9.581
 2233POPC   PO431716  18.767   4.486   9.401
 2233POPC   GL131717  18.497   4.342   9.092
 2233POPC   GL231718  18.132   4.418   9.114
 2233POPC   C1A31719  18.433   4.336   8.673
 2233POPC   D2A31720  18.262   4.118   8.349
 2233POPC   C3A31721  18.238   4.241   7.924
 2233POPC   C4A31722  18.056   4.125   7.530
 2233POPC   C1B31723  18.051   4.663   8.750
 2233POPC   C2B31724  18.274   4.734   8.375
 2233POPC   C3B31725  18.065   4.715   7.997
 2233POPC   C4B31726  17.762   4.413   7.855
 2234POPC   NC331727  12.315   9.525   9.435
 2234POPC   PO431728  11.990  10.153   9.524
 2234POPC   GL131729  11.990   9.909   9.180
 2234POPC   GL231730  12.337   9.954   9.157
 2234POPC   C1A31731  11.923   9.686   8.792
 2234POPC   D2A31732  12.114   9.563   8.425
 2234POPC   C3A31733  11.973   9.768   8.096
 2234POPC   C4A31734  12.044   9.715   7.683
 2234POPC   C1B31735  12.321   9.988   8.738
 2234POPC   C2B31736  12.498   9.914   8.361
 2234POPC   C3B31737  12.342  10.067   7.960
 2234POPC   C4B31738  12.456   9.959   7.529
 2235POPC   NC331739  11.578  32.001   9.841
 2235POPC   PO431740  11.401  31.417   9.531
 2235POPC   GL131741  11.326  31.457   9.067
 2235POPC   GL231742  11.182  31.798   9.068
 2235POPC   C1A31743  11.424  31.276   8.615
 2235POPC   D2A31744  11.687  31.406   8.288
 2235POPC   C3A31745  11.541  31.329   7.885
 2235POPC   C4A31746  11.449  31.409   7.443
 2235POPC   C1B31747  11.359  31.771   8.622
 2235POPC   C2B31748  11.322  31.753   8.143
 2235POPC   C3B31749  11.088  31.560   7.771
 2235POPC   C4B31750  11.004  31.620   7.292
 2236POPC   NC331751  37.834  38.708   9.518
 2236POPC   PO431752  37.968  38.007   9.474
 2236POPC   GL131753  37.753  38.287   9.156
 2236POPC   GL231754  37.930  38.585   9.038
 2236POPC   C1A31755  37.555  38.419   8.746
 2236POPC   D2A31756  37.679  38.769   8.454
 2236POPC   C3A31757  37.707  38.705   8.000
 2236POPC   C4A31758  37.449  38.640   7.638
 2236POPC   C1B31759  38.041  38.258   8.719
 2236POPC   C2B31760  37.827  38.260   8.318
 2236POPC   C3B31761  37.981  38.279   7.903
 2236POPC   C4B31762  37.710  38.198   7.558
 2237POPC   NC331763   0.011  31.174   9.510
 2237POPC   PO431764   0.664  30.878   9.526
 2237POPC   GL131765   0.615  30.781   9.132
 2237POPC   GL231766   0.269  30.821   9.185
 2237POPC   C1A31767   0.743  30.764   8.695
 2237POPC   D2A31768   0.500  30.689   8.313
 2237POPC   C3A31769   0.650  30.965   7.951
 2237POPC   C4A31770   0.653  30.885   7.494
 2237POPC   C1B31771   0.236  30.602   8.798
 2237POPC   C2B31772   0.018  30.373   8.481
 2237POPC   C3B31773   0.215  30.329   8.095
 2237POPC   C4B31774   0.262  30.681   7.822
 2238POPC   NC331775   7.257  13.961   9.695
 2238POPC   PO431776   7.793  13.515   9.597
 2238POPC   GL131777   7.521  13.651   9.225
 2238POPC   GL231778   7.486  14.001   9.238
 2238POPC   C1A31779   7.295  13.514   8.787
 2238POPC   D2A31780   7.319  13.451   8.317
 2238POPC   C3A31781   7.321  13.560   7.875
 2238POPC   C4A31782   7.375  13.475   7.456
 2238POPC   C1B31783   7.190  14.022   8.883
 2238POPC   C2B31784   7.342  13.960   8.454
 2238POPC   C3B31785   7.274  14.043   8.019
 2238POPC   C4B31786   7.548  13.993   7.629
 2239POPC   NC331787  41.058  35.948   9.509
 2239POPC   PO431788  40.375  36.080   9.482
 2239POPC   GL131789  40.702  36.064   9.180
 2239POPC   GL231790  40.794  36.405   9.147
 2239POPC   C1A31791  40.742  36.043   8.750
 2239POPC   D2A31792  40.597  36.344   8.448
 2239POPC   C3A31793  40.706  36.212   8.041
 2239POPC   C4A31794  40.504  36.094   7.695
 2239POPC   C1B31795  41.107  36.423   8.786
 2239POPC   C2B31796  41.131  36.281   8.342
 2239POPC   C3B31797  41.097  36.525   7.937
 2239POPC   C4B31798  40.768  36.535   7.613
 2240POPC   NC331799  23.815  28.758   9.470
 2240POPC   PO431800  24.142  29.364   9.560
 2240POPC   GL131801  23.961  29.192   9.189
 2240POPC   GL231802  23.637  29.149   9.146
 2240POPC   C1A31803  23.935  29.278   8.748
 2240POPC   D2A31804  24.165  29.133   8.424
 2240POPC   C3A31805  23.935  29.124   8.065
 2240POPC   C4A31806  23.833  29.028   7.674
 2240POPC   C1B31807  23.415  29.213   8.780
 2240POPC   C2B31808  23.540  29.259   8.367
 2240POPC   C3B31809  23.443  28.986   8.042
 2240POPC   C4B31810  23.191  29.038   7.718
 2241POPC   NC331811  42.148   8.691   9.406
 2241POPC   PO431812  42.151   9.329   9.286
 2241POPC   GL131813  42.321   9.043   9.039
 2241POPC   GL231814  42.276   8.707   8.909
 2241POPC   C1A31815  42.449   9.144   8.657
 2241POPC   D2A31816  42.270   8.952   8.319
 2241POPC   C3A31817  42.320   9.210   7.983
 2241POPC   C4A31818  41.997   9.410   7.787
 2241POPC   C1B31819  42.653   8.680   8.615
 2241POPC   C2B31820  42.692   8.710   8.142
 2241POPC   C3B31821  42.349   8.732   7.793
 2241POPC   C4B31822  42.357   8.584   7.340
 2242POPC   NC331823  32.660   7.235   9.506
 2242POPC   PO431824  33.301   7.572   9.340
 2242POPC   GL131825  33.032   7.375   9.098
 2242POPC   GL231826  32.750   7.618   9.141
 2242POPC   C1A31827  33.152   7.329   8.669
 2242POPC   D2A31828  33.242   7.639   8.340
 2242POPC   C3A31829  33.146   7.479   7.929
 2242POPC   C4A31830  33.049   7.178   7.600
 2242POPC   C1B31831  32.618   7.390   8.767
 2242POPC   C2B31832  32.764   7.324   8.335
 2242POPC   C3B31833  32.625   7.351   7.906
 2242POPC   C4B31834  32.778   7.662   7.617
 2243POPC   NC331835  28.349  11.095   9.482
 2243POPC   PO431836  28.097  11.740   9.704
 2243POPC   GL131837  28.042  11.510   9.309
 2243POPC   GL231838  28.378  11.555   9.191
 2243POPC   C1A31839  28.005  11.370   8.872
 2243POPC   D2A31840  28.360  11.217   8.578
 2243POPC   C3A31841  28.256  11.060   8.152
 2243POPC   C4A31842  28.491  11.154   7.781
 2243POPC   C1B31843  28.655  11.595   8.827
 2243POPC   C2B31844  28.803  11.635   8.428
 2243POPC   C3B31845  28.494  11.603   8.106
 2243POPC   C4B31846  28.558  11.649   7.676
 2244POPC   NC331847  20.359  40.177   9.264
 2244POPC   PO431848  19.761  40.159   9.499
 2244POPC   GL131849  19.906  40.014   9.104
 2244POPC   GL231850  19.780  39.701   9.066
 2244POPC   C1A31851  20.116  40.068   8.678
 2244POPC   D2A31852  20.098  40.413   8.401
 2244POPC   C3A31853  20.135  40.346   7.996
 2244POPC   C4A31854  20.077  40.081   7.754
 2244POPC   C1B31855  19.613  40.002   8.690
 2244POPC   C2B31856  19.722  40.125   8.240
 2244POPC   C3B31857  19.588  40.132   7.805
 2244POPC   C4B31858  19.335  40.265   7.465
 2245POPC   NC331859  18.899  38.069   9.442
 2245POPC   PO431860  19.231  38.535   9.821
 2245POPC   GL131861  18.930  38.545   9.313
 2245POPC   GL231862  19.060  38.281   9.023
 2245POPC   C1A31863  18.936  38.717   8.831
 2245POPC   D2A31864  19.196  38.408   8.538
 2245POPC   C3A31865  19.179  38.440   8.080
 2245POPC   C4A31866  18.799  38.569   7.865
 2245POPC   C1B31867  18.667  38.309   8.746
 2245POPC   C2B31868  18.479  38.234   8.337
 2245POPC   C3B31869  18.622  37.969   8.059
 2245POPC   C4B31870  18.790  37.948   7.682
 2246POPC   NC331871  29.262  19.400   9.713
 2246POPC   PO431872  28.987  18.865   9.541
 2246POPC   GL131873  29.079  19.139   9.188
 2246POPC   GL231874  29.329  19.431   9.192
 2246POPC   C1A31875  28.982  18.925   8.798
 2246POPC   D2A31876  29.066  18.913   8.374
 2246POPC   C3A31877  28.927  19.238   8.123
 2246POPC   C4A31878  28.847  18.972   7.764
 2246POPC   C1B31879  29.402  19.238   8.769
 2246POPC   C2B31880  29.480  19.292   8.317
 2246POPC   C3B31881  29.373  19.087   7.921
 2246POPC   C4B31882  29.269  19.057   7.495
 2247POPC   NC331883  19.115  10.879   9.373
 2247POPC   PO431884  19.177  10.135   9.522
 2247POPC   GL131885  18.957  10.369   9.199
 2247POPC   GL231886  19.261  10.468   9.103
 2247POPC   C1A31887  18.882  10.304   8.736
 2247POPC   D2A31888  19.186  10.442   8.345
 2247POPC   C3A31889  19.204  10.207   8.006
 2247POPC   C4A31890  18.847  10.195   7.879
 2247POPC   C1B31891  19.163  10.726   8.749
 2247POPC   C2B31892  18.749  10.703   8.452
 2247POPC   C3B31893  18.774  10.716   7.995
 2247POPC   C4B31894  19.192  10.658   7.816
 2248POPC   NC331895  43.978   1.630   9.474
 2248POPC   PO431896  43.466   2.157   9.498
 2248POPC   GL131897  43.835   2.087   9.145
 2248POPC   GL231898  44.119   1.845   9.046
 2248POPC   C1A31899  43.782   1.933   8.693
 2248POPC   D2A31900  43.673   1.836   8.268
 2248POPC   C3A31901  43.733   2.121   7.940
 2248POPC   C4A31902  43.557   2.087   7.541
 2248POPC   C1B31903  44.309   1.940   8.688
 2248POPC   C2B31904  44.130   2.068   8.316
 2248POPC   C3B31905  44.178   1.872   7.940
 2248POPC   C4B31906  44.051   1.950   7.545
 2249POPC   NC331907   9.979   5.764   9.736
 2249POPC   PO431908   9.482   6.149   9.722
 2249POPC   GL131909   9.775   6.137   9.349
 2249POPC   GL231910   9.849   5.787   9.227
 2249POPC   C1A31911   9.726   6.135   8.889
 2249POPC   D2A31912   9.896   6.124   8.484
 2249POPC   C3A31913   9.655   6.161   8.125
 2249POPC   C4A31914   9.696   6.065   7.719
 2249POPC   C1B31915   9.629   5.639   8.837
 2249POPC   C2B31916   9.700   5.638   8.427
 2249POPC   C3B31917   9.499   5.683   8.050
 2249POPC   C4B31918   9.582   5.579   7.639
 2250POPC   NC331919  34.553  34.129   9.890
 2250POPC   PO431920  34.687  34.688   9.571
 2250POPC   GL131921  34.728  34.821   9.161
 2250POPC   GL231922  34.585  34.510   9.100
 2250POPC   C1A31923  34.717  34.841   8.698
 2250POPC   D2A31924  34.439  34.948   8.344
 2250POPC   C3A31925  34.414  34.747   7.975
 2250POPC   C4A31926  34.239  34.487   7.700
 2250POPC   C1B31927  34.547  34.291   8.746
 2250POPC   C2B31928  34.571  34.451   8.377
 2250POPC   C3B31929  34.491  34.232   8.052
 2250POPC   C4B31930  34.668  34.094   7.713
 2251POPC   NC331931  33.769   7.618   9.372
 2251POPC   PO431932  33.871   6.928   9.486
 2251POPC   GL131933  33.682   7.152   9.146
 2251POPC   GL231934  33.419   6.969   8.999
 2251POPC   C1A31935  33.670   7.385   8.731
 2251POPC   D2A31936  33.568   7.250   8.289
 2251POPC   C3A31937  33.656   7.556   7.950
 2251POPC   C4A31938  34.055   7.617   7.774
 2251POPC   C1B31939  33.801   6.894   8.695
 2251POPC   C2B31940  34.037   6.888   8.301
 2251POPC   C3B31941  33.940   6.963   7.853
 2251POPC   C4B31942  33.588   7.180   7.602
 2252POPC   NC331943  24.549  35.460   9.348
 2252POPC   PO431944  24.980  35.060   9.418
 2252POPC   GL131945  24.799  35.160   9.038
 2252POPC   GL231946  24.460  35.051   9.055
 2252POPC   C1A31947  24.681  35.415   8.674
 2252POPC   D2A31948  24.484  35.617   8.310
 2252POPC   C3A31949  24.180  35.669   8.005
 2252POPC   C4A31950  24.376  35.502   7.654
 2252POPC   C1B31951  24.193  34.907   8.731
 2252POPC   C2B31952  24.351  35.100   8.372
 2252POPC   C3B31953  24.455  35.111   7.962
 2252POPC   C4B31954  24.807  34.827   7.885
 2253POPC   NC331955   7.332  11.754   9.263
 2253POPC   PO431956   7.270  11.131   9.400
 2253POPC   GL131957   7.365  11.275   9.012
 2253POPC   GL231958   7.699  11.340   9.163
 2253POPC   C1A31959   7.314  11.554   8.638
 2253POPC   D2A31960   7.244  11.650   8.193
 2253POPC   C3A31961   7.259  11.255   7.989
 2253POPC   C4A31962   7.394  11.048   7.618
 2253POPC   C1B31963   7.805  11.465   8.767
 2253POPC   C2B31964   7.681  11.314   8.373
 2253POPC   C3B31965   7.741  11.462   7.986
 2253POPC   C4B31966   7.700  11.428   7.545
 2254POPC   NC331967   3.569  14.781   9.414
 2254POPC   PO431968   3.294  15.360   9.446
 2254POPC   GL131969   3.550  15.184   9.086
 2254POPC   GL231970   3.472  14.848   8.931
 2254POPC   C1A31971   3.617  15.279   8.645
 2254POPC   D2A31972   3.362  15.343   8.253
 2254POPC   C3A31973   3.649  15.443   7.894
 2254POPC   C4A31974   3.842  15.454   7.470
 2254POPC   C1B31975   3.445  14.822   8.507
 2254POPC   C2B31976   3.718  14.938   8.174
 2254POPC   C3B31977   3.434  14.958   7.867
 2254POPC   C4B31978   3.007  14.876   7.890
 2255POPC   NC331979   6.255  21.869   9.373
 2255POPC   PO431980   6.877  22.101   9.365
 2255POPC   GL131981   6.643  22.061   9.014
 2255POPC   GL231982   6.349  22.265   9.036
 2255POPC   C1A31983   6.710  22.275   8.633
 2255POPC   D2A31984   7.058  22.230   8.357
 2255POPC   C3A31985   6.972  22.402   7.989
 2255POPC   C4A31986   6.940  22.078   7.711
 2255POPC   C1B31987   6.264  22.005   8.662
 2255POPC   C2B31988   6.427  22.001   8.232
 2255POPC   C3B31989   6.470  22.203   7.827
 2255POPC   C4B31990   6.308  22.479   7.521
 2256POPC   NC331991  22.243  34.659   9.490
 2256POPC   PO431992  21.655  34.442   9.512
 2256POPC   GL131993  21.841  34.683   9.176
 2256POPC   GL231994  22.025  34.373   9.122
 2256POPC   C1A31995  22.048  34.776   8.788
 2256POPC   D2A31996  22.271  34.639   8.438
 2256POPC   C3A31997  22.081  34.755   8.058
 2256POPC   C4A31998  22.164  34.636   7.645
 2256POPC   C1B31999  22.112  34.238   8.714
 2256POPC   C2B32000  21.974  34.181   8.289
 2256POPC   C3B32001  21.898  34.264   7.850
 2256POPC   C4B32002  21.834  34.250   7.387
 2257POPC   NC332003  34.025  12.665   9.593
 2257POPC   PO432004  33.389  12.792   9.570
 2257POPC   GL132005  33.664  12.715   9.223
 2257POPC   GL232006  33.851  13.009   9.254
 2257POPC   C1A32007  33.645  12.565   8.788
 2257POPC   D2A32008  33.425  12.666   8.379
 2257POPC   C3A32009  33.608  12.592   7.961
 2257POPC   C4A32010  33.665  12.830   7.573
 2257POPC   C1B32011  34.015  13.066   8.856
 2257POPC   C2B32012  33.918  12.875   8.486
 2257POPC   C3B32013  34.040  12.816   8.093
 2257POPC   C4B32014  34.385  12.986   7.968
 2258POPC   NC332015  42.879  36.448   9.546
 2258POPC   PO432016  43.509  36.115   9.436
 2258POPC   GL132017  43.250  36.394   9.153
 2258POPC   GL232018  42.967  36.185   9.102
 2258POPC   C1A32019  43.138  36.523   8.727
 2258POPC   D2A32020  42.968  36.299   8.335
 2258POPC   C3A32021  43.115  36.469   7.939
 2258POPC   C4A32022  43.147  36.469   7.468
 2258POPC   C1B32023  42.967  35.959   8.718
 2258POPC   C2B32024  42.734  35.713   8.411
 2258POPC   C3B32025  42.705  35.732   7.981
 2258POPC   C4B32026  42.852  36.097   7.732
 2259POPC   NC332027  44.338  37.021   9.490
 2259POPC   PO432028  44.983  36.702   9.664
 2259POPC   GL132029  44.847  36.922   9.266
 2259POPC   GL232030  44.500  36.860   9.044
 2259POPC   C1A32031  44.938  37.037   8.841
 2259POPC   D2A32032  44.648  36.985   8.486
 2259POPC   C3A32033  44.840  36.777   8.128
 2259POPC   C4A32034  44.902  36.987   7.754
 2259POPC   C1B32035  44.385  37.282   8.838
 2259POPC   C2B32036  44.374  37.436   8.390
 2259POPC   C3B32037  44.495  37.185   8.014
 2259POPC   C4B32038  44.484  37.164   7.513
 2260POPC   NC332039  27.501  10.738   9.372
 2260POPC   PO432040  27.831  10.135   9.353
 2260POPC   GL132041  27.620  10.258   9.008
 2260POPC   GL232042  27.324  10.363   9.063
 2260POPC   C1A32043  27.526  10.400   8.586
 2260POPC   D2A32044  27.759  10.663   8.287
 2260POPC   C3A32045  27.747  10.418   7.919
 2260POPC   C4A32046  27.376  10.200   7.748
 2260POPC   C1B32047  27.245  10.790   8.793
 2260POPC   C2B32048  27.298  11.005   8.378
 2260POPC   C3B32049  27.338  10.765   7.996
 2260POPC   C4B32050  27.676  10.900   7.803
 2261POPC   NC332051   8.394  22.464   9.516
 2261POPC   PO432052   8.627  23.194   9.426
 2261POPC   GL132053   8.275  23.134   9.150
 2261POPC   GL232054   7.976  23.362   9.081
 2261POPC   C1A32055   8.215  22.848   8.831
 2261POPC   D2A32056   8.510  22.816   8.519
 2261POPC   C3A32057   8.304  22.705   8.177
 2261POPC   C4A32058   8.130  22.823   7.770
 2261POPC   C1B32059   8.172  23.359   8.681
 2261POPC   C2B32060   8.107  23.166   8.289
 2261POPC   C3B32061   8.237  23.293   7.890
 2261POPC   C4B32062   8.141  23.209   7.464
 2262POPC   NC332063  27.316  22.959   9.465
 2262POPC   PO432064  27.840  23.224   9.539
 2262POPC   GL132065  27.694  23.042   9.126
 2262POPC   GL232066  27.422  22.748   9.016
 2262POPC   C1A32067  27.504  23.191   8.754
 2262POPC   D2A32068  27.656  23.195   8.342
 2262POPC   C3A32069  27.506  22.920   8.050
 2262POPC   C4A32070  27.342  23.118   7.700
 2262POPC   C1B32071  27.776  22.678   8.743
 2262POPC   C2B32072  27.948  22.762   8.331
 2262POPC   C3B32073  27.953  22.629   7.919
 2262POPC   C4B32074  27.714  22.791   7.591
 2263POPC   NC332075  16.419  19.246   9.593
 2263POPC   PO432076  17.015  18.843   9.595
 2263POPC   GL132077  16.824  18.959   9.183
 2263POPC   GL232078  16.580  19.251   9.125
 2263POPC   C1A32079  16.833  18.780   8.746
 2263POPC   D2A32080  16.603  18.912   8.386
 2263POPC   C3A32081  16.717  18.754   8.004
 2263POPC   C4A32082  16.761  18.935   7.617
 2263POPC   C1B32083  16.709  19.269   8.740
 2263POPC   C2B32084  16.825  19.403   8.383
 2263POPC   C3B32085  16.742  19.270   7.993
 2263POPC   C4B32086  16.571  19.411   7.621
 2264POPC   NC332087  28.397  21.105   9.810
 2264POPC   PO432088  28.022  21.632   9.625
 2264POPC   GL132089  28.222  21.449   9.262
 2264POPC   GL232090  28.188  21.074   9.330
 2264POPC   C1A32091  28.413  21.610   8.855
 2264POPC   D2A32092  28.268  21.851   8.473
 2264POPC   C3A32093  28.273  21.607   8.087
 2264POPC   C4A32094  28.670  21.450   7.925
 2264POPC   C1B32095  28.366  21.085   8.900
 2264POPC   C2B32096  28.339  21.244   8.473
 2264POPC   C3B32097  28.389  21.066   8.058
 2264POPC   C4B32098  28.310  20.928   7.654
 2265POPC   NC332099  35.036   6.280   9.451
 2265POPC   PO432100  35.529   6.731   9.487
 2265POPC   GL132101  35.308   6.649   9.164
 2265POPC   GL232102  35.077   6.928   9.263
 2265POPC   C1A32103  35.441   6.539   8.725
 2265POPC   D2A32104  35.388   6.333   8.311
 2265POPC   C3A32105  35.528   6.409   7.892
 2265POPC   C4A32106  35.272   6.470   7.535
 2265POPC   C1B32107  35.062   6.892   8.810
 2265POPC   C2B32108  35.050   6.725   8.401
 2265POPC   C3B32109  35.194   6.797   7.982
 2265POPC   C4B32110  35.261   6.985   7.575
 2266POPC   NC332111  10.328  12.706   9.593
 2266POPC   PO432112  10.726  13.093   9.405
 2266POPC   GL132113  10.540  12.842   9.130
 2266POPC   GL232114  10.193  12.957   9.161
 2266POPC   C1A32115  10.434  12.651   8.744
 2266POPC   D2A32116  10.189  12.512   8.385
 2266POPC   C3A32117  10.379  12.572   7.988
 2266POPC   C4A32118  10.400  12.670   7.572
 2266POPC   C1B32119  10.181  13.099   8.742
 2266POPC   C2B32120  10.367  12.994   8.333
 2266POPC   C3B32121  10.145  13.030   7.925
 2266POPC   C4B32122  10.199  13.178   7.516
 2267POPC   NC332123  42.498   1.214   9.628
 2267POPC   PO432124  42.076   0.779   9.294
 2267POPC   GL132125  42.307   1.049   9.029
 2267POPC   GL232126  42.383   1.370   9.094
 2267POPC   C1A32127  42.494   0.999   8.654
 2267POPC   D2A32128  42.546   0.667   8.349
 2267POPC   C3A32129  42.412   0.863   7.969
 2267POPC   C4A32130  42.636   1.121   7.726
 2267POPC   C1B32131  42.135   1.528   8.787
 2267POPC   C2B32132  41.987   1.404   8.385
 2267POPC   C3B32133  41.892   1.564   8.001
 2267POPC   C4B32134  42.213   1.368   7.821
 2268POPC   NC332135   8.305  15.336   9.343
 2268POPC   PO432136   7.723  15.216   9.616
 2268POPC   GL132137   7.953  14.975   9.211
 2268POPC   GL232138   8.308  14.892   9.103
 2268POPC   C1A32139   8.036  15.150   8.753
 2268POPC   D2A32140   7.886  15.402   8.387
 2268POPC   C3A32141   8.017  15.202   7.989
 2268POPC   C4A32142   8.306  15.299   7.665
 2268POPC   C1B32143   8.552  15.064   8.743
 2268POPC   C2B32144   8.407  15.101   8.320
 2268POPC   C3B32145   8.693  14.961   8.001
 2268POPC   C4B32146   8.867  14.888   7.616
 2269POPC   NC332147  42.524  35.443   9.449
 2269POPC   PO432148  42.441  34.766   9.234
 2269POPC   GL132149  42.337  35.134   9.064
 2269POPC   GL232150  42.705  35.186   9.054
 2269POPC   C1A32151  42.299  35.455   8.729
 2269POPC   D2A32152  42.222  35.598   8.301
 2269POPC   C3A32153  42.145  35.278   7.972
 2269POPC   C4A32154  41.844  35.152   7.668
 2269POPC   C1B32155  42.599  35.050   8.652
 2269POPC   C2B32156  42.602  35.239   8.276
 2269POPC   C3B32157  42.595  35.090   7.870
 2269POPC   C4B32158  42.417  34.919   7.514
 2270POPC   NC332159   2.653  23.871   9.376
 2270POPC   PO432160   2.149  23.470   9.476
 2270POPC   GL132161   2.458  23.526   9.064
 2270POPC   GL232162   2.862  23.624   9.005
 2270POPC   C1A32163   2.529  23.716   8.642
 2270POPC   D2A32164   2.309  23.748   8.276
 2270POPC   C3A32165   2.498  23.662   7.903
 2270POPC   C4A32166   2.873  23.830   7.736
 2270POPC   C1B32167   3.053  23.766   8.641
 2270POPC   C2B32168   2.892  23.677   8.250
 2270POPC   C3B32169   2.970  23.376   7.942
 2270POPC   C4B32170   3.222  23.505   7.564
 2271POPC   NC332171  27.872  26.842   9.341
 2271POPC   PO432172  28.446  26.907   9.725
 2271POPC   GL132173  28.385  26.863   9.282
 2271POPC   GL232174  28.308  26.549   9.208
 2271POPC   C1A32175  28.445  26.829   8.815
 2271POPC   D2A32176  28.262  26.858   8.415
 2271POPC   C3A32177  28.416  26.730   8.019
 2271POPC   C4A32178  28.594  27.056   7.739
 2271POPC   C1B32179  28.066  26.455   8.804
 2271POPC   C2B32180  27.910  26.494   8.377
 2271POPC   C3B32181  27.864  26.626   7.950
 2271POPC   C4B32182  28.132  26.806   7.604
 2272POPC   NC332183  21.274  12.384   9.499
 2272POPC   PO432184  21.800  11.961   9.634
 2272POPC   GL132185  21.687  12.193   9.233
 2272POPC   GL232186  21.373  12.063   9.120
 2272POPC   C1A32187  21.695  12.222   8.771
 2272POPC   D2A32188  21.524  12.016   8.392
 2272POPC   C3A32189  21.671  12.184   7.999
 2272POPC   C4A32190  21.541  12.097   7.589
 2272POPC   C1B32191  21.172  12.163   8.742
 2272POPC   C2B32192  21.012  12.113   8.331
 2272POPC   C3B32193  21.162  12.127   7.926
 2272POPC   C4B32194  21.023  12.395   7.588
 2273POPC   NC332195  18.255  14.520   9.780
 2273POPC   PO432196  18.443  14.009   9.434
 2273POPC   GL132197  18.223  14.172   9.042
 2273POPC   GL232198  18.027  14.463   9.057
 2273POPC   C1A32199  18.371  14.325   8.638
 2273POPC   D2A32200  18.513  14.109   8.314
 2273POPC   C3A32201  18.643  14.353   7.991
 2273POPC   C4A32202  18.525  14.151   7.638
 2273POPC   C1B32203  17.930  14.550   8.598
 2273POPC   C2B32204  18.008  14.245   8.246
 2273POPC   C3B32205  18.068  14.349   7.814
 2273POPC   C4B32206  17.948  14.688   7.498
 2274POPC   NC332207  21.982  30.269   9.525
 2274POPC   PO432208  22.443  29.714   9.498
 2274POPC   GL132209  22.213  29.935   9.190
 2274POPC   GL232210  22.279  30.308   9.079
 2274POPC   C1A32211  22.038  29.841   8.798
 2274POPC   D2A32212  21.875  29.561   8.517
 2274POPC   C3A32213  21.969  29.638   8.127
 2274POPC   C4A32214  22.026  29.660   7.724
 2274POPC   C1B32215  22.529  30.029   8.783
 2274POPC   C2B32216  22.380  29.837   8.395
 2274POPC   C3B32217  22.309  30.012   8.006
 2274POPC   C4B32218  22.137  30.141   7.602
 2275POPC   NC332219   5.750   4.356   9.534
 2275POPC   PO432220   6.331   4.739   9.581
 2275POPC   GL132221   6.096   4.582   9.202
 2275POPC   GL232222   5.769   4.664   9.114
 2275POPC   C1A32223   5.953   4.229   8.885
 2275POPC   D2A32224   5.733   4.208   8.468
 2275POPC   C3A32225   5.947   4.094   8.088
 2275POPC   C4A32226   5.850   4.149   7.673
 2275POPC   C1B32227   6.047   4.699   8.728
 2275POPC   C2B32228   5.851   4.733   8.355
 2275POPC   C3B32229   5.718   4.561   7.987
 2275POPC   C4B32230   6.075   4.610   7.810
 2276POPC   NC332231  20.823  43.281   9.477
 2276POPC   PO432232  21.026  42.676   9.259
 2276POPC   GL132233  20.812  43.019   9.015
 2276POPC   GL232234  20.454  42.999   8.985
 2276POPC   C1A32235  20.680  43.171   8.575
 2276POPC   D2A32236  20.500  42.975   8.203
 2276POPC   C3A32237  20.798  42.873   7.865
 2276POPC   C4A32238  21.093  42.891   7.494
 2276POPC   C1B32239  20.177  43.133   8.638
 2276POPC   C2B32240  20.312  43.489   8.379
 2276POPC   C3B32241  20.593  43.433   8.031
 2276POPC   C4B32242  20.363  43.163   7.740
 2277POPC   NC332243  33.422   6.895   9.646
 2277POPC   PO432244  33.761   6.323   9.821
 2277POPC   GL132245  33.558   6.501   9.348
 2277POPC   GL232246  33.809   6.595   9.092
 2277POPC   C1A32247  33.397   6.473   8.861
 2277POPC   D2A32248  33.691   6.387   8.514
 2277POPC   C3A32249  33.540   6.337   8.089
 2277POPC   C4A32250  33.611   6.566   7.715
 2277POPC   C1B32251  34.097   6.304   8.863
 2277POPC   C2B32252  34.172   6.204   8.428
 2277POPC   C3B32253  34.059   6.449   8.040
 2277POPC   C4B32254  34.097   6.474   7.590
 2278POPC   NC332255  36.610  37.988  10.035
 2278POPC   PO432256  36.024  37.726   9.654
 2278POPC   GL132257  36.000  37.767   9.217
 2278POPC   GL232258  36.349  37.744   9.152
 2278POPC   C1A32259  35.766  37.777   8.831
 2278POPC   D2A32260  35.807  37.532   8.460
 2278POPC   C3A32261  35.803  37.744   8.068
 2278POPC   C4A32262  35.861  37.713   7.630
 2278POPC   C1B32263  36.263  37.620   8.717
 2278POPC   C2B32264  36.372  37.664   8.255
 2278POPC   C3B32265  36.353  37.625   7.775
 2278POPC   C4B32266  36.527  37.521   7.336
 2279POPC   NC332267  35.018  40.900   9.510
 2279POPC   PO432268  35.703  40.735   9.435
 2279POPC   GL132269  35.336  40.738   9.150
 2279POPC   GL232270  35.170  41.106   9.083
 2279POPC   C1A32271  35.212  40.673   8.741
 2279POPC   D2A32272  35.365  40.502   8.369
 2279POPC   C3A32273  35.284  40.684   7.996
 2279POPC   C4A32274  35.285  40.500   7.584
 2279POPC   C1B32275  35.514  41.114   8.830
 2279POPC   C2B32276  35.517  40.975   8.417
 2279POPC   C3B32277  35.601  41.084   8.019
 2279POPC   C4B32278  35.370  41.061   7.657
 2280POPC   NC332279  21.731  32.057   9.540
 2280POPC   PO432280  22.396  32.279   9.461
 2280POPC   GL132281  22.094  32.097   9.160
 2280POPC   GL232282  22.347  32.267   8.934
 2280POPC   C1A32283  21.920  32.063   8.750
 2280POPC   D2A32284  22.147  32.290   8.446
 2280POPC   C3A32285  22.045  32.203   8.053
 2280POPC   C4A32286  22.098  31.962   7.694
 2280POPC   C1B32287  22.560  32.565   8.651
 2280POPC   C2B32288  22.525  32.538   8.187
 2280POPC   C3B32289  22.477  32.333   7.781
 2280POPC   C4B32290  22.359  32.434   7.351
 2281POPC   NC332291  27.876  31.861   9.536
 2281POPC   PO432292  27.799  32.425   9.234
 2281POPC   GL132293  27.653  32.036   9.092
 2281POPC   GL232294  27.991  31.835   9.044
 2281POPC   C1A32295  27.392  32.054   8.719
 2281POPC   D2A32296  27.496  32.256   8.333
 2281POPC   C3A32297  27.266  32.252   7.944
 2281POPC   C4A32298  27.385  32.415   7.555
 2281POPC   C1B32299  27.928  32.057   8.656
 2281POPC   C2B32300  28.006  32.224   8.261
 2281POPC   C3B32301  27.805  32.205   7.868
 2281POPC   C4B32302  27.791  32.159   7.424
 2282POPC   NC332303  18.471  15.421   9.402
 2282POPC   PO432304  18.518  14.791   9.509
 2282POPC   GL132305  18.616  14.950   9.089
 2282POPC   GL232306  18.813  15.269   9.050
 2282POPC   C1A32307  18.505  14.924   8.641
 2282POPC   D2A32308  18.154  15.139   8.467
 2282POPC   C3A32309  18.142  15.320   8.081
 2282POPC   C4A32310  18.125  15.023   7.821
 2282POPC   C1B32311  18.464  15.430   8.775
 2282POPC   C2B32312  18.434  15.609   8.396
 2282POPC   C3B32313  18.634  15.429   8.078
 2282POPC   C4B32314  18.563  15.248   7.706
 2283POPC   NC332315  20.753  31.058   9.555
 2283POPC   PO432316  20.441  30.539   9.740
 2283POPC   GL132317  20.573  30.493   9.304
 2283POPC   GL232318  20.537  30.821   9.152
 2283POPC   C1A32319  20.774  30.461   8.896
 2283POPC   D2A32320  20.597  30.641   8.534
 2283POPC   C3A32321  20.536  30.378   8.190
 2283POPC   C4A32322  20.451  30.405   7.778
 2283POPC   C1B32323  20.878  30.969   8.861
 2283POPC   C2B32324  20.778  31.110   8.443
 2283POPC   C3B32325  20.672  30.871   8.077
 2283POPC   C4B32326  20.791  31.014   7.697
 2284POPC   NC332327  44.601  42.700   9.824
 2284POPC   PO432328  44.376  43.256   9.474
 2284POPC   GL132329  44.421  43.274   9.060
 2284POPC   GL232330  44.733  43.125   9.049
 2284POPC   C1A32331  44.423  43.033   8.679
 2284POPC   D2A32332  44.600  42.949   8.272
 2284POPC   C3A32333  44.401  43.071   7.897
 2284POPC   C4A32334  44.505  43.260   7.489
 2284POPC   C1B32335  44.933  43.107   8.648
 2284POPC   C2B32336  44.990  43.265   8.265
 2284POPC   C3B32337  44.912  43.151   7.845
 2284POPC   C4B32338  44.967  43.461   7.558
 2285POPC   NC332339  31.624  30.048   9.760
 2285POPC   PO432340  31.028  30.230   9.559
 2285POPC   GL132341  31.290  29.988   9.145
 2285POPC   GL232342  31.585  30.154   9.002
 2285POPC   C1A32343  31.469  29.770   8.708
 2285POPC   D2A32344  31.439  29.777   8.239
 2285POPC   C3A32345  31.660  30.054   7.955
 2285POPC   C4A32346  31.653  30.113   7.509
 2285POPC   C1B32347  31.207  30.229   8.681
 2285POPC   C2B32348  31.152  30.200   8.204
 2285POPC   C3B32349  31.210  30.274   7.741
 2285POPC   C4B32350  31.183  30.251   7.264
 2286POPC   NC332351  37.654  35.133   9.500
 2286POPC   PO432352  37.778  35.763   9.569
 2286POPC   GL132353  37.638  35.503   9.148
 2286POPC   GL232354  37.576  35.137   9.023
 2286POPC   C1A32355  37.813  35.436   8.714
 2286POPC   D2A32356  37.719  35.626   8.390
 2286POPC   C3A32357  37.677  35.384   8.054
 2286POPC   C4A32358  37.677  35.592   7.680
 2286POPC   C1B32359  37.328  35.125   8.690
 2286POPC   C2B32360  37.251  35.274   8.329
 2286POPC   C3B32361  37.245  35.081   7.983
 2286POPC   C4B32362  37.444  35.130   7.649
 2287POPC   NC332363  37.570  11.242   9.768
 2287POPC   PO432364  38.034  11.688   9.614
 2287POPC   GL132365  37.831  11.512   9.226
 2287POPC   GL232366  37.618  11.206   9.220
 2287POPC   C1A32367  37.763  11.434   8.765
 2287POPC   D2A32368  37.935  11.124   8.460
 2287POPC   C3A32369  37.825  11.181   8.022
 2287POPC   C4A32370  37.588  11.524   7.842
 2287POPC   C1B32371  37.305  11.231   8.824
 2287POPC   C2B32372  37.361  11.108   8.393
 2287POPC   C3B32373  37.302  11.107   7.950
 2287POPC   C4B32374  37.564  10.894   7.673
 2288POPC   NC332375  33.673  21.549   9.440
 2288POPC   PO432376  34.041  21.017   9.601
 2288POPC   GL132377  33.938  21.192   9.191
 2288POPC   GL232378  33.619  21.268   9.005
 2288POPC   C1A32379  34.064  21.365   8.785
 2288POPC   D2A32380  33.834  21.342   8.421
 2288POPC   C3A32381  34.032  21.507   8.068
 2288POPC   C4A32382  33.893  21.413   7.672
 2288POPC   C1B32383  33.619  21.665   8.780
 2288POPC   C2B32384  33.736  21.828   8.371
 2288POPC   C3B32385  33.538  21.641   8.002
 2288POPC   C4B32386  33.417  21.573   7.568
 2289POPC   NC332387  32.649   8.841   9.379
 2289POPC   PO432388  33.113   9.325   9.492
 2289POPC   GL132389  33.122   9.021   9.167
 2289POPC   GL232390  33.201   8.683   9.286
 2289POPC   C1A32391  32.934   9.000   8.755
 2289POPC   D2A32392  33.115   9.116   8.364
 2289POPC   C3A32393  32.820   9.168   8.040
 2289POPC   C4A32394  32.825   8.896   7.658
 2289POPC   C1B32395  33.294   8.645   8.837
 2289POPC   C2B32396  33.368   8.690   8.411
 2289POPC   C3B32397  33.110   8.687   8.040
 2289POPC   C4B32398  33.080   8.449   7.654
 2290POPC   NC332399  44.317  22.996   9.914
 2290POPC   PO432400  43.957  23.078   9.349
 2290POPC   GL132401  43.972  22.812   9.017
 2290POPC   GL232402  43.964  22.438   9.083
 2290POPC   C1A32403  43.883  22.977   8.600
 2290POPC   D2A32404  44.139  23.086   8.264
 2290POPC   C3A32405  43.831  23.007   7.975
 2290POPC   C4A32406  43.749  23.185   7.563
 2290POPC   C1B32407  43.989  22.442   8.656
 2290POPC   C2B32408  43.957  22.569   8.248
 2290POPC   C3B32409  44.086  22.439   7.856
 2290POPC   C4B32410  44.045  22.768   7.571
 2291POPC   NC332411  20.083  30.660   9.467
 2291POPC   PO432412  19.500  30.999   9.426
 2291POPC   GL132413  19.737  30.781   9.083
 2291POPC   GL232414  20.051  30.936   9.029
 2291POPC   C1A32415  19.680  30.738   8.625
 2291POPC   D2A32416  19.562  30.424   8.286
 2291POPC   C3A32417  19.774  30.400   7.910
 2291POPC   C4A32418  19.834  30.713   7.634
 2291POPC   C1B32419  20.166  30.611   8.795
 2291POPC   C2B32420  20.095  30.601   8.342
 2291POPC   C3B32421  20.186  30.808   7.968
 2291POPC   C4B32422  20.328  30.823   7.521
 2292POPC   NC332423   9.988  23.250   9.504
 2292POPC   PO432424   9.483  22.676   9.431
 2292POPC   GL132425   9.736  22.926   9.202
 2292POPC   GL232426   9.509  23.212   9.203
 2292POPC   C1A32427   9.917  22.805   8.818
 2292POPC   D2A32428   9.776  22.581   8.447
 2292POPC   C3A32429   9.850  22.697   8.015
 2292POPC   C4A32430   9.897  22.884   7.578
 2292POPC   C1B32431   9.612  23.196   8.771
 2292POPC   C2B32432   9.864  23.130   8.401
 2292POPC   C3B32433   9.702  23.170   8.007
 2292POPC   C4B32434   9.509  23.216   7.610
 2293POPC   NC332435  29.739  10.806   9.402
 2293POPC   PO432436  30.356  10.826   9.634
 2293POPC   GL132437  30.180  10.503   9.245
 2293POPC   GL232438  29.872  10.304   9.174
 2293POPC   C1A32439  30.014  10.561   8.761
 2293POPC   D2A32440  29.830  10.410   8.341
 2293POPC   C3A32441  29.961  10.560   7.926
 2293POPC   C4A32442  30.093  10.376   7.517
 2293POPC   C1B32443  29.565  10.307   8.806
 2293POPC   C2B32444  29.369  10.178   8.463
 2293POPC   C3B32445  29.357  10.073   8.069
 2293POPC   C4B32446  29.438  10.353   7.777
 2294POPC   NC332447  20.502  42.640   9.336
 2294POPC   PO432448  20.434  41.956   9.521
 2294POPC   GL132449  20.643  42.182   9.143
 2294POPC   GL232450  20.328  42.281   8.958
 2294POPC   C1A32451  20.805  42.314   8.687
 2294POPC   D2A32452  20.641  42.465   8.183
 2294POPC   C3A32453  20.737  42.402   7.688
 2294POPC   C4A32454  20.915  42.478   7.255
 2294POPC   C1B32455  20.038  42.443   8.611
 2294POPC   C2B32456  20.105  42.661   8.249
 2294POPC   C3B32457  20.299  42.616   7.829
 2294POPC   C4B32458  20.249  42.210   7.648
 2295POPC   NC332459  39.136  31.489   9.701
 2295POPC   PO432460  39.260  30.863   9.443
 2295POPC   GL132461  39.317  31.283   9.234
 2295POPC   GL232462  39.165  31.627   9.224
 2295POPC   C1A32463  39.381  31.397   8.811
 2295POPC   D2A32464  39.184  31.304   8.442
 2295POPC   C3A32465  39.335  31.381   8.052
 2295POPC   C4A32466  39.171  31.318   7.682
 2295POPC   C1B32467  38.951  31.856   8.931
 2295POPC   C2B32468  38.901  31.728   8.522
 2295POPC   C3B32469  38.991  31.745   8.073
 2295POPC   C4B32470  38.784  31.644   7.682
 2296POPC   NC332471   4.836   0.183   9.505
 2296POPC   PO432472   4.795   0.866   9.444
 2296POPC   GL132473   4.851   0.560   9.100
 2296POPC   GL232474   5.117   0.304   9.105
 2296POPC   C1A32475   5.002   0.499   8.654
 2296POPC   D2A32476   4.945   0.703   8.283
 2296POPC   C3A32477   5.082   0.481   7.909
 2296POPC   C4A32478   4.978   0.550   7.439
 2296POPC   C1B32479   5.255   0.054   8.739
 2296POPC   C2B32480   5.367   0.234   8.346
 2296POPC   C3B32481   5.594   0.082   7.979
 2296POPC   C4B32482   5.368   0.165   7.643
 2297POPC   NC332483  26.199  13.087   9.391
 2297POPC   PO432484  25.750  12.657   9.559
 2297POPC   GL132485  25.760  12.910   9.178
 2297POPC   GL232486  25.950  12.657   9.062
 2297POPC   C1A32487  25.975  13.028   8.738
 2297POPC   D2A32488  26.254  12.932   8.343
 2297POPC   C3A32489  26.193  13.156   7.946
 2297POPC   C4A32490  26.011  13.145   7.532
 2297POPC   C1B32491  26.066  12.546   8.625
 2297POPC   C2B32492  26.053  12.426   8.206
 2297POPC   C3B32493  26.070  12.646   7.837
 2297POPC   C4B32494  25.904  12.577   7.416
 2298POPC   NC332495   4.445  20.747   9.729
 2298POPC   PO432496   3.968  20.465   9.546
 2298POPC   GL132497   4.255  20.702   9.261
 2298POPC   GL232498   3.989  20.831   9.162
 2298POPC   C1A32499   4.477  20.852   8.866
 2298POPC   D2A32500   4.584  20.649   8.458
 2298POPC   C3A32501   4.557  20.820   8.032
 2298POPC   C4A32502   4.496  20.541   7.671
 2298POPC   C1B32503   4.038  20.571   8.812
 2298POPC   C2B32504   4.059  20.651   8.417
 2298POPC   C3B32505   4.172  20.468   8.047
 2298POPC   C4B32506   4.077  20.207   7.680
 2299POPC   NC332507  17.464  39.417   9.544
 2299POPC   PO432508  17.707  38.826   9.488
 2299POPC   GL132509  17.448  39.082   9.170
 2299POPC   GL232510  17.705  39.052   9.018
 2299POPC   C1A32511  17.391  39.337   8.770
 2299POPC   D2A32512  17.598  39.179   8.408
 2299POPC   C3A32513  17.382  39.175   8.027
 2299POPC   C4A32514  17.369  39.441   7.675
 2299POPC   C1B32515  17.832  38.798   8.690
 2299POPC   C2B32516  18.066  38.902   8.391
 2299POPC   C3B32517  17.857  38.955   8.026
 2299POPC   C4B32518  17.625  38.963   7.632
 2300POPC   NC332519   7.081   1.067   9.503
 2300POPC   PO432520   6.572   1.466   9.472
 2300POPC   GL132521   6.604   1.366   9.061
 2300POPC   GL232522   6.249   1.309   9.015
 2300POPC   C1A32523   6.791   1.142   8.705
 2300POPC   D2A32524   6.774   0.865   8.300
 2300POPC   C3A32525   6.485   0.968   8.018
 2300POPC   C4A32526   6.731   1.184   7.738
 2300POPC   C1B32527   6.302   1.233   8.560
 2300POPC   C2B32528   6.630   1.373   8.270
 2300POPC   C3B32529   6.570   1.637   7.910
 2300POPC   C4B32530   6.579   1.603   7.471
 2301POPC   NC332531  34.245  15.029   9.329
 2301POPC   PO432532  33.699  15.299   9.647
 2301POPC   GL132533  33.735  15.341   9.189
 2301POPC   GL232534  34.039  15.542   9.134
 2301POPC   C1A32535  33.763  15.167   8.731
 2301POPC   D2A32536  33.603  14.914   8.352
 2301POPC   C3A32537  33.758  15.075   7.930
 2301POPC   C4A32538  34.168  15.198   7.752
 2301POPC   C1B32539  33.766  15.678   8.767
 2301POPC   C2B32540  33.737  15.526   8.348
 2301POPC   C3B32541  33.862  15.602   7.944
 2301POPC   C4B32542  33.560  15.498   7.671
 2302POPC   NC332543   5.050  24.723   9.533
 2302POPC   PO432544   5.467  24.131   9.415
 2302POPC   GL132545   5.110  24.380   9.183
 2302POPC   GL232546   4.978  24.124   8.992
 2302POPC   C1A32547   4.954  24.668   8.877
 2302POPC   D2A32548   5.065  24.585   8.477
 2302POPC   C3A32549   4.837  24.640   8.159
 2302POPC   C4A32550   4.911  24.697   7.742
 2302POPC   C1B32551   5.325  24.248   8.759
 2302POPC   C2B32552   5.515  24.376   8.427
 2302POPC   C3B32553   5.376  24.268   8.064
 2302POPC   C4B32554   5.398  24.073   7.680
 2303POPC   NC332555   6.638  36.889   9.515
 2303POPC   PO432556   7.304  36.887   9.604
 2303POPC   GL132557   7.025  36.839   9.186
 2303POPC   GL232558   6.659  36.691   9.057
 2303POPC   C1A32559   6.766  37.150   8.894
 2303POPC   D2A32560   6.611  37.236   8.481
 2303POPC   C3A32561   6.785  37.012   8.123
 2303POPC   C4A32562   6.654  37.105   7.713
 2303POPC   C1B32563   6.609  36.727   8.631
 2303POPC   C2B32564   6.391  36.770   8.301
 2303POPC   C3B32565   6.399  36.623   7.911
 2303POPC   C4B32566   6.180  36.789   7.594
 2304POPC   NC332567   0.256  44.178   9.446
 2304POPC   PO432568   0.359  43.479   9.498
 2304POPC   GL132569   0.482  43.760   9.139
 2304POPC   GL232570   0.138  43.829   9.086
 2304POPC   C1A32571   0.733  43.650   8.699
 2304POPC   D2A32572   0.748  43.938   8.326
 2304POPC   C3A32573   0.626  43.832   7.904
 2304POPC   C4A32574   0.503  43.612   7.510
 2304POPC   C1B32575   0.328  43.948   8.704
 2304POPC   C2B32576   0.282  44.163   8.367
 2304POPC   C3B32577   0.150  44.068   7.981
 2304POPC   C4B32578   0.201  44.301   7.633
 2305POPC   NC332579  38.397  44.424   9.582
 2305POPC   PO432580  38.196  44.971   9.258
 2305POPC   GL132581  38.478  44.747   9.052
 2305POPC   GL232582  38.341  44.397   9.080
 2305POPC   C1A32583  38.726  44.886   8.685
 2305POPC   D2A32584  38.861  44.690   8.309
 2305POPC   C3A32585  38.682  44.693   7.913
 2305POPC   C4A32586  38.782  44.445   7.538
 2305POPC   C1B32587  38.458  44.461   8.639
 2305POPC   C2B32588  38.338  44.745   8.312
 2305POPC   C3B32589  38.144  44.609   7.929
 2305POPC   C4B32590  37.755  44.333   7.933
 2306POPC   NC332591  34.635  41.812   9.360
 2306POPC   PO432592  34.098  41.449   9.617
 2306POPC   GL132593  34.394  41.336   9.242
 2306POPC   GL232594  34.683  41.386   9.032
 2306POPC   C1A32595  34.319  41.173   8.785
 2306POPC   D2A32596  34.580  41.286   8.408
 2306POPC   C3A32597  34.423  41.411   8.010
 2306POPC   C4A32598  34.166  41.593   7.715
 2306POPC   C1B32599  34.470  41.668   8.745
 2306POPC   C2B32600  34.501  41.822   8.323
 2306POPC   C3B32601  34.467  41.958   7.883
 2306POPC   C4B32602  34.675  41.674   7.578
 2307POPC   NC332603  27.701  35.247   9.851
 2307POPC   PO432604  27.568  34.627   9.508
 2307POPC   GL132605  27.460  34.353   9.178
 2307POPC   GL232606  27.578  34.639   8.982
 2307POPC   C1A32607  27.671  34.184   8.810
 2307POPC   D2A32608  27.622  34.481   8.451
 2307POPC   C3A32609  27.488  34.352   8.014
 2307POPC   C4A32610  27.411  34.448   7.550
 2307POPC   C1B32611  27.482  34.940   8.660
 2307POPC   C2B32612  27.577  34.984   8.225
 2307POPC   C3B32613  27.551  34.837   7.821
 2307POPC   C4B32614  27.398  34.973   7.415
 2308POPC   NC332615  15.123  21.701   9.485
 2308POPC   PO432616  14.801  21.074   9.582
 2308POPC   GL132617  15.065  21.299   9.169
 2308POPC   GL232618  14.896  21.622   9.061
 2308POPC   C1A32619  15.029  21.345   8.648
 2308POPC   D2A32620  15.207  21.176   8.230
 2308POPC   C3A32621  15.172  21.271   7.760
 2308POPC   C4A32622  15.347  21.211   7.362
 2308POPC   C1B32623  14.940  21.837   8.746
 2308POPC   C2B32624  15.193  21.812   8.391
 2308POPC   C3B32625  15.276  21.686   8.009
 2308POPC   C4B32626  15.032  21.758   7.663
 2309POPC   NC332627  19.206  14.772   9.600
 2309POPC   PO432628  19.251  15.465   9.597
 2309POPC   GL132629  19.316  15.278   9.192
 2309POPC   GL232630  19.612  15.439   9.093
 2309POPC   C1A32631  19.234  15.349   8.754
 2309POPC   D2A32632  18.880  15.280   8.518
 2309POPC   C3A32633  19.052  15.152   8.183
 2309POPC   C4A32634  19.038  15.099   7.761
 2309POPC   C1B32635  19.629  15.032   8.852
 2309POPC   C2B32636  19.415  14.869   8.475
 2309POPC   C3B32637  19.502  14.985   8.048
 2309POPC   C4B32638  19.477  15.344   7.736
 2310POPC   NC332639  15.554  15.652   9.802
 2310POPC   PO432640  15.381  16.143   9.604
 2310POPC   GL132641  15.201  16.143   9.137
 2310POPC   GL232642  15.075  15.827   8.992
 2310POPC   C1A32643  15.131  16.271   8.673
 2310POPC   D2A32644  15.022  16.034   8.282
 2310POPC   C3A32645  15.140  16.159   7.855
 2310POPC   C4A32646  15.351  15.889   7.506
 2310POPC   C1B32647  14.738  15.953   8.712
 2310POPC   C2B32648  14.524  16.088   8.319
 2310POPC   C3B32649  14.654  15.951   7.901
 2310POPC   C4B32650  14.826  15.984   7.474
 2311POPC   NC332651  44.823   4.874   9.408
 2311POPC   PO432652  44.468   5.575   9.473
 2311POPC   GL132653  44.566   5.280   9.149
 2311POPC   GL232654  44.846   5.405   9.122
 2311POPC   C1A32655  44.618   5.014   8.777
 2311POPC   D2A32656  44.549   4.844   8.358
 2311POPC   C3A32657  44.660   5.105   8.002
 2311POPC   C4A32658  44.523   5.073   7.581
 2311POPC   C1B32659   0.076   5.312   8.785
 2311POPC   C2B32660   0.034   5.453   8.393
 2311POPC   C3B32661   0.130   5.428   7.982
 2311POPC   C4B32662  44.954   5.327   7.589
 2312POPC   NC332663  23.274  18.818   9.320
 2312POPC   PO432664  22.783  19.174   9.662
 2312POPC   GL132665  22.945  19.229   9.241
 2312POPC   GL232666  23.286  19.329   9.242
 2312POPC   C1A32667  22.874  19.216   8.769
 2312POPC   D2A32668  23.044  18.903   8.451
 2312POPC   C3A32669  22.848  18.835   8.043
 2312POPC   C4A32670  23.079  18.820   7.650
 2312POPC   C1B32671  23.383  19.277   8.776
 2312POPC   C2B32672  23.252  19.386   8.355
 2312POPC   C3B32673  23.205  19.201   7.967
 2312POPC   C4B32674  22.815  19.288   7.750
 2313POPC   NC332675  43.496  41.690   9.415
 2313POPC   PO432676  44.109  41.403   9.578
 2313POPC   GL132677  43.901  41.414   9.204
 2313POPC   GL232678  44.045  41.717   9.139
 2313POPC   C1A32679  43.799  41.442   8.741
 2313POPC   D2A32680  43.656  41.194   8.375
 2313POPC   C3A32681  43.882  41.282   7.979
 2313POPC   C4A32682  43.822  41.337   7.545
 2313POPC   C1B32683  43.977  41.937   8.773
 2313POPC   C2B32684  43.715  41.866   8.426
 2313POPC   C3B32685  43.638  41.737   8.015
 2313POPC   C4B32686  43.979  41.785   7.735
 2314POPC   NC332687  37.114  33.613   9.380
 2314POPC   PO432688  36.584  33.975   9.517
 2314POPC   GL132689  36.713  33.803   9.126
 2314POPC   GL232690  36.595  33.426   9.138
 2314POPC   C1A32691  37.032  33.901   8.760
 2314POPC   D2A32692  37.095  34.219   8.410
 2314POPC   C3A32693  37.114  34.072   7.966
 2314POPC   C4A32694  37.306  34.186   7.577
 2314POPC   C1B32695  36.655  33.565   8.700
 2314POPC   C2B32696  36.893  33.589   8.311
 2314POPC   C3B32697  36.712  33.771   7.939
 2314POPC   C4B32698  36.826  33.816   7.523
 2315POPC   NC332699  35.714  13.076   9.479
 2315POPC   PO432700  35.144  12.690   9.392
 2315POPC   GL132701  35.353  12.874   9.055
 2315POPC   GL232702  35.704  12.753   9.082
 2315POPC   C1A32703  35.171  13.045   8.657
 2315POPC   D2A32704  35.345  13.003   8.270
 2315POPC   C3A32705  35.257  12.823   7.861
 2315POPC   C4A32706  35.520  12.920   7.476
 2315POPC   C1B32707  35.619  12.611   8.675
 2315POPC   C2B32708  35.779  12.754   8.316
 2315POPC   C3B32709  35.780  12.795   7.913
 2315POPC   C4B32710  35.981  13.030   7.650
 2316POPC   NC332711  35.861   0.152   9.363
 2316POPC   PO432712  36.416   0.321   9.606
 2316POPC   GL132713  36.185   0.558   9.230
 2316POPC   GL232714  35.813   0.616   9.151
 2316POPC   C1A32715  36.107   0.385   8.791
 2316POPC   D2A32716  36.264   0.316   8.386
 2316POPC   C3A32717  36.059   0.317   8.020
 2316POPC   C4A32718  36.314   0.396   7.663
 2316POPC   C1B32719  35.828   0.801   8.727
 2316POPC   C2B32720  35.980   0.755   8.333
 2316POPC   C3B32721  35.900   0.801   7.902
 2316POPC   C4B32722  35.798   0.501   7.582
 2317POPC   NC332723  31.406   2.337   9.548
 2317POPC   PO432724  31.883   1.809   9.448
 2317POPC   GL132725  31.769   2.152   9.108
 2317POPC   GL232726  31.380   2.212   9.071
 2317POPC   C1A32727  31.620   2.037   8.669
 2317POPC   D2A32728  31.587   1.659   8.425
 2317POPC   C3A32729  31.503   1.806   8.022
 2317POPC   C4A32730  31.706   2.121   7.797
 2317POPC   C1B32731  31.207   2.357   8.701
 2317POPC   C2B32732  31.190   2.096   8.336
 2317POPC   C3B32733  31.220   2.243   7.929
 2317POPC   C4B32734  30.926   2.486   7.699
 2318POPC   NC332735  28.824  26.729   9.546
 2318POPC   PO432736  29.415  26.612   9.369
 2318POPC   GL132737  29.173  26.830   9.088
 2318POPC   GL232738  28.835  26.991   9.095
 2318POPC   C1A32739  28.942  26.668   8.712
 2318POPC   D2A32740  28.788  26.569   8.322
 2318POPC   C3A32741  28.939  26.659   7.888
 2318POPC   C4A32742  29.216  26.827   7.532
 2318POPC   C1B32743  29.036  27.159   8.749
 2318POPC   C2B32744  28.976  27.049   8.339
 2318POPC   C3B32745  29.138  27.117   7.962
 2318POPC   C4B32746  29.037  27.325   7.598
 2319POPC   NC332747   0.896  41.882   9.466
 2319POPC   PO432748   1.348  41.388   9.641
 2319POPC   GL132749   1.331  41.524   9.252
 2319POPC   GL232750   1.321  41.200   9.104
 2319POPC   C1A32751   1.152  41.674   8.879
 2319POPC   D2A32752   1.322  41.777   8.497
 2319POPC   C3A32753   1.054  41.573   8.255
 2319POPC   C4A32754   1.082  41.657   7.861
 2319POPC   C1B32755   1.513  41.350   8.738
 2319POPC   C2B32756   1.597  41.376   8.337
 2319POPC   C3B32757   1.411  41.286   7.984
 2319POPC   C4B32758   1.572  41.583   7.738
 2320POPC   NC332759  30.248  22.135   9.302
 2320POPC   PO432760  29.822  21.716   9.543
 2320POPC   GL132761  29.822  21.928   9.133
 2320POPC   GL232762  29.773  22.294   9.218
 2320POPC   C1A32763  30.035  22.038   8.715
 2320POPC   D2A32764  29.963  21.845   8.322
 2320POPC   C3A32765  29.907  22.063   7.949
 2320POPC   C4A32766  30.085  22.134   7.538
 2320POPC   C1B32767  29.722  22.443   8.804
 2320POPC   C2B32768  29.743  22.334   8.386
 2320POPC   C3B32769  29.826  22.555   8.030
 2320POPC   C4B32770  29.724  22.461   7.640
 2321POPC   NC332771  13.086  34.191   9.499
 2321POPC   PO432772  12.825  33.563   9.491
 2321POPC   GL132773  12.813  33.878   9.151
 2321POPC   GL232774  13.115  34.000   9.023
 2321POPC   C1A32775  12.617  34.062   8.788
 2321POPC   D2A32776  12.552  34.299   8.395
 2321POPC   C3A32777  12.589  33.985   8.083
 2321POPC   C4A32778  12.764  33.867   7.705
 2321POPC   C1B32779  13.208  33.883   8.592
 2321POPC   C2B32780  13.221  33.547   8.332
 2321POPC   C3B32781  13.050  33.494   7.945
 2321POPC   C4B32782  13.223  33.694   7.579
 2322POPC   NC332783  43.309  38.089   9.867
 2322POPC   PO432784  43.459  38.605   9.485
 2322POPC   GL132785  43.158  38.444   9.185
 2322POPC   GL232786  42.772  38.466   9.180
 2322POPC   C1A32787  43.172  38.422   8.756
 2322POPC   D2A32788  43.240  38.635   8.410
 2322POPC   C3A32789  43.090  38.539   8.032
 2322POPC   C4A32790  43.270  38.274   7.738
 2322POPC   C1B32791  42.663  38.363   8.737
 2322POPC   C2B32792  42.858  38.193   8.316
 2322POPC   C3B32793  42.768  38.156   7.868
 2322POPC   C4B32794  42.617  38.540   7.757
 2323POPC   NC332795  27.424  29.526   9.528
 2323POPC   PO432796  27.780  28.936   9.512
 2323POPC   GL132797  27.621  29.199   9.192
 2323POPC   GL232798  27.468  28.909   9.069
 2323POPC   C1A32799  27.721  29.184   8.752
 2323POPC   D2A32800  27.547  28.936   8.482
 2323POPC   C3A32801  27.720  29.034   8.116
 2323POPC   C4A32802  27.486  29.079   7.783
 2323POPC   C1B32803  27.248  29.292   8.852
 2323POPC   C2B32804  27.251  29.359   8.382
 2323POPC   C3B32805  27.099  29.397   7.933
 2323POPC   C4B32806  27.179  29.332   7.463
 2324POPC   NC332807   5.924  32.818   9.806
 2324POPC   PO432808   5.407  32.884   9.399
 2324POPC   GL132809   5.757  33.032   9.100
 2324POPC   GL232810   6.112  32.959   8.949
 2324POPC   C1A32811   5.785  33.275   8.696
 2324POPC   D2A32812   5.545  33.469   8.329
 2324POPC   C3A32813   5.744  33.475   7.897
 2324POPC   C4A32814   5.780  33.208   7.502
 2324POPC   C1B32815   6.287  32.620   8.656
 2324POPC   C2B32816   6.252  32.426   8.245
 2324POPC   C3B32817   6.044  32.537   7.880
 2324POPC   C4B32818   6.090  32.785   7.507
 2325POPC   NC332819  28.002  44.651   9.432
 2325POPC   PO432820  28.403   0.179   9.550
 2325POPC   GL132821  28.396  44.900   9.179
 2325POPC   GL232822  28.471  44.521   9.124
 2325POPC   C1A32823  28.282  44.833   8.753
 2325POPC   D2A32824  28.257  44.958   8.318
 2325POPC   C3A32825  28.146  44.768   7.908
 2325POPC   C4A32826  28.003  44.695   7.471
 2325POPC   C1B32827  28.547  44.423   8.647
 2325POPC   C2B32828  28.690  44.659   8.273
 2325POPC   C3B32829  28.632  44.885   7.872
 2325POPC   C4B32830  28.508  44.745   7.489
 2326POPC   NC332831  22.426  38.653   9.217
 2326POPC   PO432832  22.011  38.194   9.387
 2326POPC   GL132833  22.012  38.370   9.049
 2326POPC   GL232834  21.889  38.689   9.125
 2326POPC   C1A32835  22.235  38.282   8.702
 2326POPC   D2A32836  22.017  38.288   8.355
 2326POPC   C3A32837  22.137  38.350   7.961
 2326POPC   C4A32838  21.949  38.485   7.557
 2326POPC   C1B32839  22.052  38.754   8.695
 2326POPC   C2B32840  22.272  38.774   8.294
 2326POPC   C3B32841  22.106  38.859   7.884
 2326POPC   C4B32842  21.875  39.008   7.549
 2327POPC   NC332843  20.208  23.517   9.439
 2327POPC   PO432844  19.899  24.129   9.521
 2327POPC   GL132845  19.853  23.800   9.181
 2327POPC   GL232846  19.735  23.441   9.262
 2327POPC   C1A32847  20.039  23.591   8.801
 2327POPC   D2A32848  20.177  23.414   8.396
 2327POPC   C3A32849  19.969  23.579   8.032
 2327POPC   C4A32850  20.052  23.763   7.619
 2327POPC   C1B32851  19.680  23.232   8.867
 2327POPC   C2B32852  19.664  23.258   8.424
 2327POPC   C3B32853  19.518  23.310   7.991
 2327POPC   C4B32854  19.595  23.573   7.595
 2328POPC   NC332855  33.815   1.519   9.448
 2328POPC   PO432856  33.977   0.869   9.362
 2328POPC   GL132857  33.748   1.149   9.101
 2328POPC   GL232858  33.649   0.907   8.843
 2328POPC   C1A32859  33.777   1.403   8.753
 2328POPC   D2A32860  33.768   1.181   8.348
 2328POPC   C3A32861  33.817   1.352   7.945
 2328POPC   C4A32862  33.721   1.138   7.540
 2328POPC   C1B32863  34.096   1.016   8.733
 2328POPC   C2B32864  34.326   0.876   8.407
 2328POPC   C3B32865  34.096   0.929   8.023
 2328POPC   C4B32866  34.210   1.057   7.636
 2329POPC   NC332867  34.870  44.113   9.462
 2329POPC   PO432868  35.564  43.762   9.445
 2329POPC   GL132869  35.506  44.033   9.096
 2329POPC   GL232870  35.192  44.197   9.086
 2329POPC   C1A32871  35.481  44.090   8.658
 2329POPC   D2A32872  35.572  44.073   8.238
 2329POPC   C3A32873  35.601  43.736   7.993
 2329POPC   C4A32874  35.391  43.648   7.627
 2329POPC   C1B32875  35.041  43.885   8.786
 2329POPC   C2B32876  35.072  44.082   8.358
 2329POPC   C3B32877  35.089  43.862   7.968
 2329POPC   C4B32878  35.006  43.961   7.523
 2330POPC   NC332879  14.594  19.493   9.553
 2330POPC   PO432880  14.635  20.148   9.497
 2330POPC   GL132881  14.618  19.831   9.151
 2330POPC   GL232882  14.306  19.603   9.157
 2330POPC   C1A32883  14.733  19.778   8.716
 2330POPC   D2A32884  14.610  20.027   8.343
 2330POPC   C3A32885  14.676  19.860   7.924
 2330POPC   C4A32886  14.390  19.812   7.573
 2330POPC   C1B32887  14.199  19.765   8.786
 2330POPC   C2B32888  14.087  19.560   8.443
 2330POPC   C3B32889  14.178  19.685   8.052
 2330POPC   C4B32890  14.058  19.467   7.685
 2331POPC   NC332891  11.251  39.061   9.589
 2331POPC   PO432892  11.565  39.695   9.474
 2331POPC   GL132893  11.520  39.302   9.189
 2331POPC   GL232894  11.189  39.178   9.094
 2331POPC   C1A32895  11.567  39.321   8.734
 2331POPC   D2A32896  11.841  39.448   8.387
 2331POPC   C3A32897  11.590  39.448   8.016
 2331POPC   C4A32898  11.400  39.094   7.857
 2331POPC   C1B32899  11.106  39.556   8.849
 2331POPC   C2B32900  10.916  39.490   8.444
 2331POPC   C3B32901  11.060  39.411   8.035
 2331POPC   C4B32902  11.039  39.522   7.581
 2332POPC   NC332903  36.412  21.130   9.285
 2332POPC   PO432904  35.827  21.456   9.546
 2332POPC   GL132905  35.998  21.428   9.164
 2332POPC   GL232906  35.909  21.079   9.134
 2332POPC   C1A32907  36.066  21.621   8.766
 2332POPC   D2A32908  36.295  21.647   8.394
 2332POPC   C3A32909  36.337  21.520   7.988
 2332POPC   C4A32910  36.000  21.722   7.799
 2332POPC   C1B32911  36.140  21.122   8.704
 2332POPC   C2B32912  36.207  20.973   8.287
 2332POPC   C3B32913  36.306  21.011   7.897
 2332POPC   C4B32914  35.981  21.229   7.771
 2333POPC   NC332915  11.012  37.395   9.323
 2333POPC   PO432916  11.510  37.949   9.435
 2333POPC   GL132917  11.331  37.753   9.071
 2333POPC   GL232918  11.001  37.890   9.104
 2333POPC   C1A32919  11.374  37.723   8.602
 2333POPC   D2A32920  11.485  37.444   8.228
 2333POPC   C3A32921  11.466  37.622   7.791
 2333POPC   C4A32922  11.699  37.578   7.390
 2333POPC   C1B32923  10.863  37.977   8.677
 2333POPC   C2B32924  11.005  37.899   8.256
 2333POPC   C3B32925  10.970  37.885   7.790
 2333POPC   C4B32926  10.808  38.091   7.399
 2334POPC   NC332927   8.506  31.204   9.637
 2334POPC   PO432928   8.005  31.608   9.481
 2334POPC   GL132929   8.315  31.592   9.188
 2334POPC   GL232930   8.308  31.297   8.978
 2334POPC   C1A32931   8.381  31.802   8.810
 2334POPC   D2A32932   8.369  31.543   8.450
 2334POPC   C3A32933   8.374  31.753   8.078
 2334POPC   C4A32934   8.441  31.567   7.696
 2334POPC   C1B32935   7.941  31.554   8.801
 2334POPC   C2B32936   7.764  31.571   8.397
 2334POPC   C3B32937   7.957  31.417   8.004
 2334POPC   C4B32938   7.929  31.592   7.594
 2335POPC   NC332939  23.814  17.756   9.557
 2335POPC   PO432940  23.705  17.197   9.326
 2335POPC   GL132941  23.798  17.571   9.082
 2335POPC   GL232942  23.470  17.736   9.166
 2335POPC   C1A32943  23.846  17.625   8.637
 2335POPC   D2A32944  24.007  17.307   8.373
 2335POPC   C3A32945  23.938  17.368   7.949
 2335POPC   C4A32946  23.646  17.182   7.692
 2335POPC   C1B32947  23.390  17.478   8.805
 2335POPC   C2B32948  23.426  17.406   8.379
 2335POPC   C3B32949  23.458  17.577   7.976
 2335POPC   C4B32950  23.646  17.695   7.619
 2336POPC   NC332951   4.150  29.582   9.404
 2336POPC   PO432952   4.205  30.279   9.407
 2336POPC   GL132953   4.580  30.083   9.154
 2336POPC   GL232954   4.475  29.788   9.082
 2336POPC   C1A32955   4.689  29.983   8.674
 2336POPC   D2A32956   4.401  30.101   8.328
 2336POPC   C3A32957   4.485  29.974   7.932
 2336POPC   C4A32958   4.092  30.072   7.744
 2336POPC   C1B32959   4.187  29.871   8.735
 2336POPC   C2B32960   4.039  29.690   8.360
 2336POPC   C3B32961   4.129  29.592   7.961
 2336POPC   C4B32962   4.186  29.333   7.661
 2337POPC   NC332963   5.118  29.429   9.598
 2337POPC   PO432964   4.972  28.765   9.433
 2337POPC   GL132965   5.175  29.065   9.205
 2337POPC   GL232966   4.886  29.264   9.189
 2337POPC   C1A32967   5.337  29.183   8.816
 2337POPC   D2A32968   5.428  29.051   8.405
 2337POPC   C3A32969   5.373  29.338   8.075
 2337POPC   C4A32970   5.138  29.399   7.724
 2337POPC   C1B32971   4.819  29.021   8.810
 2337POPC   C2B32972   4.759  29.106   8.397
 2337POPC   C3B32973   4.933  29.057   8.020
 2337POPC   C4B32974   4.769  29.048   7.596
 2338POPC   NC332975  39.725   0.872   9.545
 2338POPC   PO432976  39.131   1.145   9.701
 2338POPC   GL132977  39.132   1.105   9.247
 2338POPC   GL232978  39.083   1.394   9.107
 2338POPC   C1A32979  39.317   1.073   8.792
 2338POPC   D2A32980  39.582   1.230   8.444
 2338POPC   C3A32981  39.376   1.158   8.065
 2338POPC   C4A32982  39.174   1.024   7.722
 2338POPC   C1B32983  38.880   1.540   8.800
 2338POPC   C2B32984  38.684   1.387   8.458
 2338POPC   C3B32985  38.841   1.215   8.071
 2338POPC   C4B32986  38.817   1.384   7.633
 2339POPC   NC332987  30.584  20.769   9.739
 2339POPC   PO432988  31.089  20.605   9.367
 2339POPC   GL132989  30.907  20.670   9.032
 2339POPC   GL232990  30.569  20.648   9.139
 2339POPC   C1A32991  30.773  20.444   8.705
 2339POPC   D2A32992  30.490  20.378   8.402
 2339POPC   C3A32993  30.752  20.471   8.072
 2339POPC   C4A32994  30.852  20.272   7.699
 2339POPC   C1B32995  30.392  20.799   8.723
 2339POPC   C2B32996  30.183  20.779   8.289
 2339POPC   C3B32997  30.293  20.597   7.913
 2339POPC   C4B32998  30.492  20.756   7.573
 2340POPC   NC332999  43.826  28.183   9.781
 2340POPC   PO433000  43.652  28.587   9.298
 2340POPC   GL133001  43.940  28.570   8.967
 2340POPC   GL233002  43.624  28.427   8.832
 2340POPC   C1A33003  44.067  28.267   8.631
 2340POPC   D2A33004  44.010  28.269   8.171
 2340POPC   C3A33005  44.158  28.660   7.982
 2340POPC   C4A33006  44.277  28.565   7.592
 2340POPC   C1B33007  43.583  28.383   8.475
 2340POPC   C2B33008  43.702  28.669   8.222
 2340POPC   C3B33009  43.696  28.518   7.812
 2340POPC   C4B33010  43.494  28.227   7.544
 2341POPC   NC333011  22.832  17.943   9.516
 2341POPC   PO433012  22.852  17.267   9.431
 2341POPC   GL133013  22.983  17.324   9.066
 2341POPC   GL233014  22.962  17.667   9.090
 2341POPC   C1A33015  22.946  17.309   8.652
 2341POPC   D2A33016  22.935  17.576   8.339
 2341POPC   C3A33017  23.021  17.341   8.028
 2341POPC   C4A33018  22.846  17.251   7.670
 2341POPC   C1B33019  23.074  17.874   8.721
 2341POPC   C2B33020  23.051  18.103   8.324
 2341POPC   C3B33021  22.790  17.951   8.030
 2341POPC   C4B33022  23.020  17.751   7.723
 2342POPC   NC333023  27.860   1.534   9.535
 2342POPC   PO433024  27.219   1.319   9.467
 2342POPC   GL133025  27.580   1.287   9.176
 2342POPC   GL233026  27.559   1.564   9.114
 2342POPC   C1A33027  27.757   1.162   8.797
 2342POPC   D2A33028  27.597   1.191   8.376
 2342POPC   C3A33029  27.638   1.082   7.930
 2342POPC   C4A33030  27.270   0.843   7.745
 2342POPC   C1B33031  27.903   1.650   8.883
 2342POPC   C2B33032  28.026   1.639   8.466
 2342POPC   C3B33033  27.806   1.580   8.102
 2342POPC   C4B33034  27.694   1.607   7.704
 2343POPC   NC333035   9.289  31.908   9.290
 2343POPC   PO433036   8.703  31.636   9.636
 2343POPC   GL133037   8.779  31.419   9.247
 2343POPC   GL233038   9.093  31.392   9.187
 2343POPC   C1A33039   8.765  31.457   8.801
 2343POPC   D2A33040   8.943  31.622   8.438
 2343POPC   C3A33041   8.781  31.459   8.082
 2343POPC   C4A33042   8.967  31.542   7.688
 2343POPC   C1B33043   9.282  31.397   8.793
 2343POPC   C2B33044   9.204  31.168   8.428
 2343POPC   C3B33045   9.240  31.258   8.010
 2343POPC   C4B33046   9.135  31.063   7.603
 2344POPC   NC333047   9.007   2.128   9.660
 2344POPC   PO433048   9.554   2.226   9.300
 2344POPC   GL133049   9.202   2.009   9.098
 2344POPC   GL233050   8.867   2.104   9.159
 2344POPC   C1A33051   9.077   1.951   8.710
 2344POPC   D2A33052   9.126   2.199   8.342
 2344POPC   C3A33053   9.134   2.003   7.962
 2344POPC   C4A33054   9.391   1.942   7.628
 2344POPC   C1B33055   8.815   2.388   8.782
 2344POPC   C2B33056   8.647   2.330   8.357
 2344POPC   C3B33057   8.811   2.419   7.946
 2344POPC   C4B33058   8.851   2.145   7.547
 2345POPC   NC333059  29.666   8.311   9.233
 2345POPC   PO433060  29.152   8.116   9.627
 2345POPC   GL133061  29.190   8.101   9.189
 2345POPC   GL233062  29.167   8.469   9.133
 2345POPC   C1A33063  29.278   7.996   8.755
 2345POPC   D2A33064  29.083   8.120   8.374
 2345POPC   C3A33065  29.295   8.152   7.983
 2345POPC   C4A33066  29.014   7.952   7.736
 2345POPC   C1B33067  29.275   8.522   8.678
 2345POPC   C2B33068  29.110   8.613   8.252
 2345POPC   C3B33069  28.941   8.486   7.842
 2345POPC   C4B33070  28.866   8.606   7.374
 2346POPC   NC333071  43.511   0.004   9.398
 2346POPC   PO433072  44.149  44.579   9.537
 2346POPC   GL133073  43.819  44.575   9.242
 2346POPC   GL233074  43.916  44.892   9.086
 2346POPC   C1A33075  43.875  44.480   8.789
 2346POPC   D2A33076  44.167  44.627   8.446
 2346POPC   C3A33077  43.965  44.523   8.050
 2346POPC   C4A33078  43.642  44.261   7.828
 2346POPC   C1B33079  44.021   0.090   8.645
 2346POPC   C2B33080  44.030   0.062   8.146
 2346POPC   C3B33081  43.931  44.893   7.713
 2346POPC   C4B33082  44.072  44.966   7.254
 2347POPC   NC333083  26.655  10.974   9.850
 2347POPC   PO433084  27.032  10.598   9.389
 2347POPC   GL133085  26.802  10.483   9.071
 2347POPC   GL233086  26.700  10.745   8.845
 2347POPC   C1A33087  26.995  10.346   8.704
 2347POPC   D2A33088  27.072  10.553   8.370
 2347POPC   C3A33089  26.835  10.537   8.046
 2347POPC   C4A33090  26.580  10.834   7.889
 2347POPC   C1B33091  26.503  10.320   8.703
 2347POPC   C2B33092  26.552  10.182   8.304
 2347POPC   C3B33093  26.404  10.283   7.894
 2347POPC   C4B33094  26.469  10.179   7.471
 2348POPC   NC333095  33.368  27.656   9.751
 2348POPC   PO433096  32.816  27.709   9.292
 2348POPC   GL133097  32.962  27.475   9.047
 2348POPC   GL233098  33.286  27.383   9.174
 2348POPC   C1A33099  32.910  27.610   8.620
 2348POPC   D2A33100  32.614  27.814   8.355
 2348POPC   C3A33101  32.654  27.689   7.926
 2348POPC   C4A33102  32.968  27.609   7.644
 2348POPC   C1B33103  33.316  27.314   8.722
 2348POPC   C2B33104  33.123  27.238   8.296
 2348POPC   C3B33105  33.317  27.346   7.883
 2348POPC   C4B33106  33.426  27.490   7.443
 2349POPC   NC333107   6.886  14.397   9.492
 2349POPC   PO433108   6.184  14.526   9.480
 2349POPC   GL133109   6.480  14.334   9.163
 2349POPC   GL233110   6.771  14.523   9.031
 2349POPC   C1A33111   6.604  14.082   8.796
 2349POPC   D2A33112   6.472  14.119   8.370
 2349POPC   C3A33113   6.773  14.154   8.038
 2349POPC   C4A33114   6.817  14.242   7.605
 2349POPC   C1B33115   6.546  14.656   8.710
 2349POPC   C2B33116   6.591  14.613   8.280
 2349POPC   C3B33117   6.520  14.579   7.871
 2349POPC   C4B33118   6.877  14.745   7.674
 2350POPC   NC333119  15.585   7.121   9.428
 2350POPC   PO433120  15.535   7.781   9.440
 2350POPC   GL133121  15.390   7.496   9.082
 2350POPC   GL233122  15.082   7.540   8.932
 2350POPC   C1A33123  15.343   7.182   8.686
 2350POPC   D2A33124  15.143   7.086   8.263
 2350POPC   C3A33125  15.217   7.311   7.866
 2350POPC   C4A33126  15.215   7.772   7.852
 2350POPC   C1B33127  14.965   7.533   8.519
 2350POPC   C2B33128  14.673   7.759   8.267
 2350POPC   C3B33129  14.714   7.681   7.844
 2350POPC   C4B33130  14.762   7.253   7.666
 2351POPC   NC333131  26.972   1.703   9.365
 2351POPC   PO433132  26.467   1.315   9.509
 2351POPC   GL133133  26.751   1.110   9.123
 2351POPC   GL233134  27.133   1.017   9.060
 2351POPC   C1A33135  26.791   0.979   8.670
 2351POPC   D2A33136  26.799   1.258   8.283
 2351POPC   C3A33137  26.729   1.055   7.859
 2351POPC   C4A33138  26.629   1.026   7.391
 2351POPC   C1B33139  27.246   1.374   8.750
 2351POPC   C2B33140  27.266   1.575   8.312
 2351POPC   C3B33141  27.176   1.314   7.933
 2351POPC   C4B33142  26.892   1.422   7.562
 2352POPC   NC333143  12.736   7.622   9.546
 2352POPC   PO433144  13.102   7.119   9.570
 2352POPC   GL133145  12.972   7.317   9.163
 2352POPC   GL233146  12.656   7.489   9.071
 2352POPC   C1A33147  13.063   7.463   8.729
 2352POPC   D2A33148  12.776   7.411   8.378
 2352POPC   C3A33149  12.935   7.250   7.996
 2352POPC   C4A33150  12.718   7.158   7.633
 2352POPC   C1B33151  12.663   7.797   8.749
 2352POPC   C2B33152  12.955   7.895   8.408
 2352POPC   C3B33153  12.959   7.769   8.013
 2352POPC   C4B33154  12.668   7.653   7.725
 2353POPC   NC333155   9.425  43.091   9.389
 2353POPC   PO433156   8.792  43.063   9.531
 2353POPC   GL133157   8.960  42.862   9.163
 2353POPC   GL233158   9.099  43.174   9.001
 2353POPC   C1A33159   8.864  42.833   8.707
 2353POPC   D2A33160   9.013  43.178   8.464
 2353POPC   C3A33161   8.918  43.178   8.037
 2353POPC   C4A33162   8.973  42.867   7.733
 2353POPC   C1B33163   9.437  43.380   8.761
 2353POPC   C2B33164   9.435  43.632   8.400
 2353POPC   C3B33165   9.298  43.522   7.991
 2353POPC   C4B33166   9.222  43.334   7.600
 2354POPC   NC333167  42.701   8.214   9.480
 2354POPC   PO433168  43.410   8.302   9.597
 2354POPC   GL133169  43.499   8.429   9.178
 2354POPC   GL233170  43.483   8.106   9.016
 2354POPC   C1A33171  43.379   8.525   8.713
 2354POPC   D2A33172  43.199   8.259   8.388
 2354POPC   C3A33173  43.086   8.278   7.943
 2354POPC   C4A33174  42.730   8.423   7.702
 2354POPC   C1B33175  43.599   7.952   8.608
 2354POPC   C2B33176  43.516   7.952   8.132
 2354POPC   C3B33177  43.483   8.066   7.657
 2354POPC   C4B33178  43.240   7.959   7.270
 2355POPC   NC333179  10.424  14.536   9.585
 2355POPC   PO433180  11.027  14.505   9.479
 2355POPC   GL133181  10.710  14.600   9.135
 2355POPC   GL233182  10.480  14.283   9.135
 2355POPC   C1A33183  10.697  14.429   8.678
 2355POPC   D2A33184  10.805  14.093   8.344
 2355POPC   C3A33185  10.759  14.276   7.889
 2355POPC   C4A33186  10.564  14.701   7.815
 2355POPC   C1B33187  10.214  14.240   8.760
 2355POPC   C2B33188  10.224  14.031   8.378
 2355POPC   C3B33189  10.300  14.328   8.069
 2355POPC   C4B33190  10.104  14.445   7.680
 2356POPC   NC333191  35.849  44.161   9.498
 2356POPC   PO433192  36.558  43.869   9.477
 2356POPC   GL133193  36.308  43.886   9.132
 2356POPC   GL233194  35.977  43.794   9.154
 2356POPC   C1A33195  36.381  44.056   8.749
 2356POPC   D2A33196  36.382  43.847   8.363
 2356POPC   C3A33197  36.494  44.144   8.062
 2356POPC   C4A33198  36.446  43.907   7.720
 2356POPC   C1B33199  35.924  43.851   8.715
 2356POPC   C2B33200  36.023  44.198   8.408
 2356POPC   C3B33201  36.005  44.069   7.970
 2356POPC   C4B33202  35.741  44.038   7.577
 2357POPC   NC333203  29.391  15.427   9.407
 2357POPC   PO433204  28.965  15.288   9.903
 2357POPC   GL133205  28.982  15.175   9.307
 2357POPC   GL233206  29.295  15.036   9.103
 2357POPC   C1A33207  29.070  15.401   8.827
 2357POPC   D2A33208  28.932  15.469   8.380
 2357POPC   C3A33209  29.177  15.405   7.978
 2357POPC   C4A33210  29.076  15.579   7.566
 2357POPC   C1B33211  29.232  14.933   8.673
 2357POPC   C2B33212  29.111  14.972   8.270
 2357POPC   C3B33213  28.864  14.759   8.003
 2357POPC   C4B33214  29.115  14.719   7.699
 2358POPC   NC333215  23.233  19.259   9.787
 2358POPC   PO433216  23.099  19.922   9.530
 2358POPC   GL133217  23.006  19.743   9.118
 2358POPC   GL233218  22.647  19.594   9.045
 2358POPC   C1A33219  23.095  19.697   8.716
 2358POPC   D2A33220  23.024  19.929   8.341
 2358POPC   C3A33221  23.089  19.709   7.964
 2358POPC   C4A33222  23.133  19.727   7.531
 2358POPC   C1B33223  22.657  19.934   8.764
 2358POPC   C2B33224  22.639  19.626   8.468
 2358POPC   C3B33225  22.524  19.585   8.085
 2358POPC   C4B33226  22.623  19.782   7.728
 2359POPC   NC333227   2.890  20.993   9.521
 2359POPC   PO433228   2.648  21.670   9.387
 2359POPC   GL133229   2.976  21.429   9.212
 2359POPC   GL233230   2.905  21.126   9.033
 2359POPC   C1A33231   3.090  21.561   8.811
 2359POPC   D2A33232   2.867  21.700   8.458
 2359POPC   C3A33233   3.056  21.631   8.086
 2359POPC   C4A33234   2.873  21.702   7.702
 2359POPC   C1B33235   2.684  21.243   8.673
 2359POPC   C2B33236   2.760  21.219   8.230
 2359POPC   C3B33237   2.516  21.330   7.858
 2359POPC   C4B33238   2.472  21.066   7.452
 2360POPC   NC333239   2.039   7.132   9.587
 2360POPC   PO433240   1.676   7.690   9.594
 2360POPC   GL133241   1.890   7.608   9.186
 2360POPC   GL233242   1.855   7.263   9.148
 2360POPC   C1A33243   2.128   7.541   8.766
 2360POPC   D2A33244   2.199   7.700   8.317
 2360POPC   C3A33245   1.983   7.543   7.948
 2360POPC   C4A33246   2.134   7.199   7.768
 2360POPC   C1B33247   1.676   7.315   8.774
 2360POPC   C2B33248   1.837   7.302   8.378
 2360POPC   C3B33249   1.714   7.062   8.027
 2360POPC   C4B33250   1.606   7.152   7.637
 2361POPC   NC333251  25.645   3.007   9.415
 2361POPC   PO433252  26.216   2.751   9.623
 2361POPC   GL133253  26.095   2.795   9.204
 2361POPC   GL233254  25.824   2.614   9.137
 2361POPC   C1A33255  26.223   2.714   8.797
 2361POPC   D2A33256  26.183   2.831   8.402
 2361POPC   C3A33257  25.875   2.645   8.132
 2361POPC   C4A33258  25.995   2.780   7.724
 2361POPC   C1B33259  25.729   2.827   8.731
 2361POPC   C2B33260  25.728   3.108   8.387
 2361POPC   C3B33261  25.572   3.038   7.982
 2361POPC   C4B33262  25.535   3.040   7.551
 2362POPC   NC333263  38.903  27.589   9.645
 2362POPC   PO433264  38.295  27.816   9.555
 2362POPC   GL133265  38.235  27.653   9.156
 2362POPC   GL233266  38.528  27.448   9.243
 2362POPC   C1A33267  38.221  27.868   8.731
 2362POPC   D2A33268  38.074  28.009   8.336
 2362POPC   C3A33269  38.256  27.821   7.972
 2362POPC   C4A33270  38.053  27.680   7.614
 2362POPC   C1B33271  38.591  27.531   8.799
 2362POPC   C2B33272  38.402  27.503   8.380
 2362POPC   C3B33273  38.482  27.175   8.051
 2362POPC   C4B33274  38.633  27.189   7.620
 2363POPC   NC333275  33.236  24.197   9.850
 2363POPC   PO433276  33.183  23.727   9.416
 2363POPC   GL133277  32.822  23.712   9.105
 2363POPC   GL233278  32.706  23.386   9.013
 2363POPC   C1A33279  32.786  23.918   8.688
 2363POPC   D2A33280  32.768  24.111   8.251
 2363POPC   C3A33281  32.663  23.905   7.873
 2363POPC   C4A33282  32.694  24.044   7.454
 2363POPC   C1B33283  32.769  23.369   8.591
 2363POPC   C2B33284  32.825  23.609   8.251
 2363POPC   C3B33285  33.153  23.821   8.005
 2363POPC   C4B33286  33.468  23.593   7.789
 2364POPC   NC333287  38.057  27.338   9.535
 2364POPC   PO433288  37.463  27.775   9.447
 2364POPC   GL133289  37.719  27.695   9.129
 2364POPC   GL233290  37.687  27.373   9.097
 2364POPC   C1A33291  37.662  27.849   8.727
 2364POPC   D2A33292  37.622  27.606   8.363
 2364POPC   C3A33293  37.717  27.793   7.997
 2364POPC   C4A33294  37.537  27.749   7.596
 2364POPC   C1B33295  37.958  27.427   8.759
 2364POPC   C2B33296  37.972  27.225   8.403
 2364POPC   C3B33297  38.010  27.373   8.032
 2364POPC   C4B33298  37.973  27.189   7.665
 2365POPC   NC333299   1.643  31.391   9.483
 2365POPC   PO433300   1.120  31.693   9.537
 2365POPC   GL133301   1.222  31.368   9.191
 2365POPC   GL233302   1.057  31.047   9.184
 2365POPC   C1A33303   1.375  31.288   8.748
 2365POPC   D2A33304   1.191  31.287   8.360
 2365POPC   C3A33305   1.358  31.605   8.128
 2365POPC   C4A33306   1.545  31.418   7.799
 2365POPC   C1B33307   0.882  31.246   8.795
 2365POPC   C2B33308   0.777  31.580   8.482
 2365POPC   C3B33309   0.802  31.463   8.039
 2365POPC   C4B33310   1.069  31.578   7.716
 2366POPC   NC333311  27.342   9.207   9.508
 2366POPC   PO433312  28.028   9.313   9.549
 2366POPC   GL133313  27.947   9.059   9.180
 2366POPC   GL233314  27.612   8.907   9.209
 2366POPC   C1A33315  27.735   9.109   8.769
 2366POPC   D2A33316  27.459   9.175   8.421
 2366POPC   C3A33317  27.701   9.053   8.092
 2366POPC   C4A33318  27.725   9.102   7.689
 2366POPC   C1B33319  27.244   8.955   8.864
 2366POPC   C2B33320  27.146   8.738   8.464
 2366POPC   C3B33321  27.321   8.678   8.058
 2366POPC   C4B33322  27.276   8.783   7.635
 2367POPC   NC333323  26.279   2.311   9.752
 2367POPC   PO433324  25.781   1.872   9.631
 2367POPC   GL133325  26.101   1.857   9.273
 2367POPC   GL233326  26.203   2.236   9.234
 2367POPC   C1A33327  25.995   1.820   8.804
 2367POPC   D2A33328  25.777   1.838   8.393
 2367POPC   C3A33329  26.036   1.827   7.997
 2367POPC   C4A33330  26.064   1.807   7.511
 2367POPC   C1B33331  26.305   2.220   8.786
 2367POPC   C2B33332  26.149   2.236   8.341
 2367POPC   C3B33333  26.401   2.183   7.948
 2367POPC   C4B33334  26.377   2.308   7.543
 2368POPC   NC333335   7.717  34.794   9.549
 2368POPC   PO433336   7.288  34.288   9.603
 2368POPC   GL133337   7.513  34.440   9.236
 2368POPC   GL233338   7.401  34.799   9.133
 2368POPC   C1A33339   7.451  34.384   8.810
 2368POPC   D2A33340   7.282  34.206   8.479
 2368POPC   C3A33341   7.427  34.352   8.111
 2368POPC   C4A33342   7.570  34.299   7.708
 2368POPC   C1B33343   7.553  34.907   8.722
 2368POPC   C2B33344   7.657  34.769   8.305
 2368POPC   C3B33345   7.524  34.786   7.853
 2368POPC   C4B33346   7.452  35.047   7.488
 2369POPC   NC333347  18.727  42.909   9.626
 2369POPC   PO433348  19.341  43.241   9.553
 2369POPC   GL133349  19.386  43.222   9.148
 2369POPC   GL233350  19.113  43.002   9.123
 2369POPC   C1A33351  19.228  43.384   8.761
 2369POPC   D2A33352  19.019  43.245   8.410
 2369POPC   C3A33353  19.175  43.348   8.056
 2369POPC   C4A33354  19.317  43.360   7.657
 2369POPC   C1B33355  18.788  43.087   8.832
 2369POPC   C2B33356  18.661  42.893   8.430
 2369POPC   C3B33357  18.767  42.868   8.024
 2369POPC   C4B33358  18.872  43.130   7.703
 2370POPC   NC333359  37.651   1.706   9.477
 2370POPC   PO433360  38.005   2.244   9.422
 2370POPC   GL133361  37.751   2.050   9.122
 2370POPC   GL233362  37.390   2.099   9.165
 2370POPC   C1A33363  37.637   1.930   8.723
 2370POPC   D2A33364  37.746   1.766   8.347
 2370POPC   C3A33365  37.762   2.002   7.952
 2370POPC   C4A33366  37.686   1.796   7.554
 2370POPC   C1B33367  37.321   2.334   8.762
 2370POPC   C2B33368  37.411   2.179   8.319
 2370POPC   C3B33369  37.321   1.784   8.038
 2370POPC   C4B33370  37.151   1.857   7.632
 2371POPC   NC333371   3.965  42.765   9.614
 2371POPC   PO433372   4.195  43.390   9.546
 2371POPC   GL133373   4.113  43.064   9.208
 2371POPC   GL233374   4.414  43.006   9.009
 2371POPC   C1A33375   3.996  42.993   8.743
 2371POPC   D2A33376   4.254  43.211   8.429
 2371POPC   C3A33377   4.228  43.137   7.984
 2371POPC   C4A33378   4.028  42.915   7.654
 2371POPC   C1B33379   4.651  43.297   8.782
 2371POPC   C2B33380   4.789  43.151   8.436
 2371POPC   C3B33381   4.713  43.314   8.040
 2371POPC   C4B33382   4.669  43.049   7.701
 2372POPC   NC333383  39.235  41.703   9.479
 2372POPC   PO433384  39.106  41.097   9.238
 2372POPC   GL133385  39.161  41.443   9.015
 2372POPC   GL233386  39.518  41.462   9.062
 2372POPC   C1A33387  39.295  41.491   8.588
 2372POPC   D2A33388  39.428  41.394   8.171
 2372POPC   C3A33389  39.162  41.616   7.850
 2372POPC   C4A33390  38.885  41.488   7.531
 2372POPC   C1B33391  39.571  41.854   8.837
 2372POPC   C2B33392  39.617  41.898   8.389
 2372POPC   C3B33393  39.613  41.841   7.939
 2372POPC   C4B33394  39.639  41.438   7.700
 2373POPC   NC333395  40.032  15.485   9.351
 2373POPC   PO433396  39.568  15.874   9.364
 2373POPC   GL133397  39.821  15.801   8.999
 2373POPC   GL233398  40.087  15.993   9.147
 2373POPC   C1A33399  40.212  15.732   8.738
 2373POPC   D2A33400  40.331  15.846   8.321
 2373POPC   C3A33401  40.002  15.730   8.026
 2373POPC   C4A33402  39.862  15.862   7.657
 2373POPC   C1B33403  40.054  16.247   8.753
 2373POPC   C2B33404  40.225  16.344   8.339
 2373POPC   C3B33405  40.185  16.204   7.912
 2373POPC   C4B33406  40.148  16.216   7.434
 2374POPC   NC333407  35.037  16.682   9.488
 2374POPC   PO433408  35.706  16.888   9.390
 2374POPC   GL133409  35.413  16.786   9.079
 2374POPC   GL233410  35.483  16.444   9.042
 2374POPC   C1A33411  35.347  16.901   8.647
 2374POPC   D2A33412  35.489  17.178   8.319
 2374POPC   C3A33413  35.289  17.061   8.002
 2374POPC   C4A33414  35.069  16.732   7.869
 2374POPC   C1B33415  35.165  16.414   8.731
 2374POPC   C2B33416  35.244  16.503   8.319
 2374POPC   C3B33417  35.571  16.649   8.081
 2374POPC   C4B33418  35.586  16.404   7.729
 2375POPC   NC333419  29.517  27.076   9.425
 2375POPC   PO433420  30.113  26.670   9.465
 2375POPC   GL133421  29.867  26.797   9.128
 2375POPC   GL233422  29.779  26.469   9.034
 2375POPC   C1A33423  29.877  26.838   8.680
 2375POPC   D2A33424  29.814  26.572   8.322
 2375POPC   C3A33425  29.824  26.823   7.951
 2375POPC   C4A33426  29.749  26.807   7.490
 2375POPC   C1B33427  29.444  26.566   8.704
 2375POPC   C2B33428  29.305  26.649   8.268
 2375POPC   C3B33429  29.446  26.509   7.849
 2375POPC   C4B33430  29.458  26.387   7.401
 2376POPC   NC333431  13.181  22.362   9.431
 2376POPC   PO433432  12.552  22.167   9.389
 2376POPC   GL133433  12.840  22.287   9.039
 2376POPC   GL233434  13.188  22.111   8.960
 2376POPC   C1A33435  12.730  22.160   8.633
 2376POPC   D2A33436  12.377  22.241   8.382
 2376POPC   C3A33437  12.577  22.347   8.020
 2376POPC   C4A33438  12.976  22.166   7.857
 2376POPC   C1B33439  13.171  22.413   8.619
 2376POPC   C2B33440  13.162  22.518   8.184
 2376POPC   C3B33441  13.143  22.647   7.750
 2376POPC   C4B33442  12.879  22.703   7.382
 2377POPC   NC333443  31.132  30.747   9.532
 2377POPC   PO433444  31.808  30.438   9.578
 2377POPC   GL133445  31.578  30.636   9.210
 2377POPC   GL233446  31.239  30.494   9.128
 2377POPC   C1A33447  31.625  30.591   8.755
 2377POPC   D2A33448  31.629  30.275   8.415
 2377POPC   C3A33449  31.469  30.578   8.089
 2377POPC   C4A33450  31.652  30.945   7.858
 2377POPC   C1B33451  31.132  30.726   8.799
 2377POPC   C2B33452  31.001  30.714   8.395
 2377POPC   C3B33453  31.044  30.974   8.057
 2377POPC   C4B33454  31.198  30.810   7.707
 2378POPC   NC333455  40.244  25.828   9.559
 2378POPC   PO433456  39.997  25.133   9.405
 2378POPC   GL133457  39.926  25.079   9.027
 2378POPC   GL233458  40.259  25.019   8.955
 2378POPC   C1A33459  39.676  25.229   8.738
 2378POPC   D2A33460  39.711  25.456   8.369
 2378POPC   C3A33461  39.822  25.249   8.018
 2378POPC   C4A33462  40.010  25.480   7.718
 2378POPC   C1B33463  40.144  25.268   8.578
 2378POPC   C2B33464  40.269  25.398   8.192
 2378POPC   C3B33465  40.298  25.085   7.849
 2378POPC   C4B33466  40.125  25.033   7.466
 2379POPC   NC333467   7.691  13.160   9.282
 2379POPC   PO433468   7.196  12.782   9.519
 2379POPC   GL133469   7.404  12.760   9.083
 2379POPC   GL233470   7.630  12.476   8.974
 2379POPC   C1A33471   7.412  12.948   8.677
 2379POPC   D2A33472   7.589  13.010   8.277
 2379POPC   C3A33473   7.252  13.053   7.987
 2379POPC   C4A33474   7.253  12.976   7.565
 2379POPC   C1B33475   7.596  12.494   8.523
 2379POPC   C2B33476   7.329  12.576   8.189
 2379POPC   C3B33477   7.431  12.540   7.776
 2379POPC   C4B33478   7.699  12.254   7.565
 2380POPC   NC333479   7.109  40.983   9.431
 2380POPC   PO433480   7.044  40.362   9.379
 2380POPC   GL133481   6.786  40.681   9.139
 2380POPC   GL233482   6.597  40.973   9.238
 2380POPC   C1A33483   6.831  40.936   8.780
 2380POPC   D2A33484   6.959  40.805   8.392
 2380POPC   C3A33485   6.695  40.663   8.034
 2380POPC   C4A33486   6.862  40.761   7.641
 2380POPC   C1B33487   6.323  40.960   8.837
 2380POPC   C2B33488   6.487  40.988   8.402
 2380POPC   C3B33489   6.712  41.166   8.055
 2380POPC   C4B33490   6.458  41.092   7.714
 2381POPC   NC333491  12.710  39.584   9.449
 2381POPC   PO433492  13.143  39.055   9.653
 2381POPC   GL133493  13.050  39.239   9.234
 2381POPC   GL233494  12.962  38.970   9.080
 2381POPC   C1A33495  13.048  39.337   8.739
 2381POPC   D2A33496  12.773  39.330   8.371
 2381POPC   C3A33497  12.900  39.468   7.967
 2381POPC   C4A33498  12.990  39.296   7.542
 2381POPC   C1B33499  12.763  38.901   8.677
 2381POPC   C2B33500  13.002  38.885   8.309
 2381POPC   C3B33501  12.848  38.934   7.899
 2381POPC   C4B33502  13.126  38.816   7.571
 2382POPC   NC333503   4.092  16.461   9.560
 2382POPC   PO433504   4.692  16.592   9.607
 2382POPC   GL133505   4.428  16.624   9.203
 2382POPC   GL233506   4.085  16.797   9.177
 2382POPC   C1A33507   4.450  16.517   8.768
 2382POPC   D2A33508   4.492  16.759   8.396
 2382POPC   C3A33509   4.391  16.707   7.972
 2382POPC   C4A33510   4.306  16.354   7.731
 2382POPC   C1B33511   4.277  17.004   8.818
 2382POPC   C2B33512   4.097  17.069   8.409
 2382POPC   C3B33513   4.082  17.175   8.006
 2382POPC   C4B33514   4.051  16.954   7.664
 2383POPC   NC333515   6.457  28.655   9.508
 2383POPC   PO433516   6.149  28.065   9.465
 2383POPC   GL133517   6.576  28.229   9.206
 2383POPC   GL233518   6.579  28.588   9.047
 2383POPC   C1A33519   6.835  28.257   8.790
 2383POPC   D2A33520   6.732  28.135   8.411
 2383POPC   C3A33521   6.570  28.261   7.997
 2383POPC   C4A33522   6.649  28.321   7.535
 2383POPC   C1B33523   6.840  28.747   8.732
 2383POPC   C2B33524   6.941  28.598   8.339
 2383POPC   C3B33525   6.884  28.652   7.929
 2383POPC   C4B33526   6.533  28.765   7.755
 2384POPC   NC333527   5.023  24.015   9.498
 2384POPC   PO433528   5.258  23.435   9.595
 2384POPC   GL133529   5.167  23.627   9.206
 2384POPC   GL233530   4.795  23.661   9.102
 2384POPC   C1A33531   5.301  23.744   8.816
 2384POPC   D2A33532   5.398  23.869   8.412
 2384POPC   C3A33533   5.178  23.754   8.051
 2384POPC   C4A33534   5.360  23.574   7.709
 2384POPC   C1B33535   4.801  23.789   8.634
 2384POPC   C2B33536   4.922  24.123   8.320
 2384POPC   C3B33537   4.920  24.171   7.852
 2384POPC   C4B33538   4.949  23.873   7.514
 2385POPC   NC333539  39.111   8.456   9.436
 2385POPC   PO433540  39.595   8.113   9.485
 2385POPC   GL133541  39.427   8.184   9.098
 2385POPC   GL233542  39.483   8.520   9.015
 2385POPC   C1A33543  39.270   8.133   8.677
 2385POPC   D2A33544  39.354   8.452   8.382
 2385POPC   C3A33545  39.501   8.321   7.981
 2385POPC   C4A33546  39.395   7.896   7.814
 2385POPC   C1B33547  39.036   8.559   8.806
 2385POPC   C2B33548  38.846   8.361   8.412
 2385POPC   C3B33549  39.008   8.220   8.020
 2385POPC   C4B33550  39.098   8.458   7.626
 2386POPC   NC333551  13.310   1.784   9.566
 2386POPC   PO433552  12.825   2.291   9.503
 2386POPC   GL133553  13.056   2.071   9.194
 2386POPC   GL233554  12.986   1.697   9.180
 2386POPC   C1A33555  12.933   2.035   8.771
 2386POPC   D2A33556  12.768   2.134   8.396
 2386POPC   C3A33557  12.844   2.000   7.945
 2386POPC   C4A33558  12.769   2.242   7.529
 2386POPC   C1B33559  13.253   1.645   8.821
 2386POPC   C2B33560  13.063   1.701   8.391
 2386POPC   C3B33561  13.278   1.714   7.976
 2386POPC   C4B33562  13.087   1.726   7.570
 2387POPC   NC333563  19.054   1.553   9.417
 2387POPC   PO433564  18.641   1.058   9.332
 2387POPC   GL133565  18.911   1.025   9.026
 2387POPC   GL233566  19.071   1.349   8.970
 2387POPC   C1A33567  18.845   1.114   8.605
 2387POPC   D2A33568  18.928   1.391   8.310
 2387POPC   C3A33569  18.965   1.174   7.952
 2387POPC   C4A33570  18.942   1.392   7.604
 2387POPC   C1B33571  19.330   1.392   8.622
 2387POPC   C2B33572  19.400   1.210   8.215
 2387POPC   C3B33573  19.446   1.290   7.771
 2387POPC   C4B33574  19.274   1.051   7.447
 2388POPC   NC333575  12.827  21.012   9.291
 2388POPC   PO433576  12.704  20.392   9.565
 2388POPC   GL133577  12.709  20.550   9.148
 2388POPC   GL233578  13.060  20.576   9.043
 2388POPC   C1A33579  12.684  20.742   8.721
 2388POPC   D2A33580  12.555  20.694   8.315
 2388POPC   C3A33581  12.781  20.800   7.939
 2388POPC   C4A33582  12.726  20.615   7.502
 2388POPC   C1B33583  13.161  20.946   8.757
 2388POPC   C2B33584  13.056  21.033   8.348
 2388POPC   C3B33585  13.223  21.133   7.959
 2388POPC   C4B33586  13.164  20.856   7.601
 2389POPC   NC333587  32.450  37.451   9.401
 2389POPC   PO433588  32.152  38.100   9.354
 2389POPC   GL133589  32.095  37.698   9.143
 2389POPC   GL233590  32.431  37.711   8.972
 2389POPC   C1A33591  32.108  37.391   8.782
 2389POPC   D2A33592  32.380  37.605   8.476
 2389POPC   C3A33593  32.305  37.866   8.160
 2389POPC   C4A33594  32.060  37.912   7.796
 2389POPC   C1B33595  32.633  37.292   8.784
 2389POPC   C2B33596  32.729  37.275   8.332
 2389POPC   C3B33597  32.460  37.371   7.957
 2389POPC   C4B33598  32.531  37.132   7.577
 2390POPC   NC333599   6.846  43.500   9.548
 2390POPC   PO433600   6.693  44.252   9.549
 2390POPC   GL133601   6.774  43.893   9.213
 2390POPC   GL233602   6.508  43.672   9.112
 2390POPC   C1A33603   6.941  43.738   8.789
 2390POPC   D2A33604   7.255  43.905   8.475
 2390POPC   C3A33605   7.061  43.991   8.075
 2390POPC   C4A33606   6.954  43.810   7.663
 2390POPC   C1B33607   6.482  44.004   8.760
 2390POPC   C2B33608   6.552  44.134   8.302
 2390POPC   C3B33609   6.533  43.891   7.916
 2390POPC   C4B33610   6.476  43.832   7.472
 2391POPC   NC333611   0.240  25.478   9.968
 2391POPC   PO433612   0.665  25.034   9.648
 2391POPC   GL133613   0.691  25.074   9.203
 2391POPC   GL233614   0.449  25.322   9.215
 2391POPC   C1A33615   0.834  25.048   8.757
 2391POPC   D2A33616   0.727  25.288   8.382
 2391POPC   C3A33617   0.804  25.090   7.978
 2391POPC   C4A33618   0.622  25.182   7.563
 2391POPC   C1B33619   0.334  25.205   8.777
 2391POPC   C2B33620   0.322  24.991   8.346
 2391POPC   C3B33621   0.305  25.257   7.983
 2391POPC   C4B33622   0.071  25.201   7.597
 2392POPC   NC333623  10.346  21.322   9.497
 2392POPC   PO433624  11.019  21.447   9.565
 2392POPC   GL133625  10.789  21.500   9.180
 2392POPC   GL233626  10.601  21.224   9.072
 2392POPC   C1A33627  10.718  21.555   8.717
 2392POPC   D2A33628  10.713  21.267   8.386
 2392POPC   C3A33629  10.582  21.392   8.009
 2392POPC   C4A33630  10.620  21.527   7.594
 2392POPC   C1B33631  10.313  21.234   8.707
 2392POPC   C2B33632  10.228  21.090   8.313
 2392POPC   C3B33633  10.261  20.987   7.906
 2392POPC   C4B33634  10.152  21.384   7.740
 2393POPC   NC333635  37.993  10.393   9.528
 2393POPC   PO433636  37.520   9.853   9.574
 2393POPC   GL133637  37.426   9.761   9.146
 2393POPC   GL233638  37.152   9.532   9.151
 2393POPC   C1A33639  37.679   9.786   8.758
 2393POPC   D2A33640  37.976   9.922   8.400
 2393POPC   C3A33641  37.802   9.967   7.959
 2393POPC   C4A33642  37.613   9.861   7.528
 2393POPC   C1B33643  37.342   9.405   8.737
 2393POPC   C2B33644  37.610   9.459   8.350
 2393POPC   C3B33645  37.561   9.486   7.886
 2393POPC   C4B33646  37.274   9.435   7.528
 2394POPC   NC333647  30.204  29.429   9.451
 2394POPC   PO433648  29.810  28.896   9.415
 2394POPC   GL133649  29.766  29.320   9.158
 2394POPC   GL233650  30.088  29.407   8.961
 2394POPC   C1A33651  29.651  29.494   8.734
 2394POPC   D2A33652  29.888  29.316   8.372
 2394POPC   C3A33653  29.664  29.300   7.972
 2394POPC   C4A33654  29.596  29.433   7.542
 2394POPC   C1B33655  29.967  29.001   8.787
 2394POPC   C2B33656  29.978  28.779   8.403
 2394POPC   C3B33657  30.123  29.005   8.032
 2394POPC   C4B33658  30.311  29.061   7.645
 2395POPC   NC333659  31.039  44.031   9.739
 2395POPC   PO433660  30.520  44.090   9.291
 2395POPC   GL133661  30.467  44.079   8.918
 2395POPC   GL233662  30.433  43.731   8.905
 2395POPC   C1A33663  30.650  44.289   8.585
 2395POPC   D2A33664  30.959  44.138   8.304
 2395POPC   C3A33665  30.665  44.029   7.991
 2395POPC   C4A33666  30.656  44.027   7.542
 2395POPC   C1B33667  30.830  43.776   8.658
 2395POPC   C2B33668  30.950  43.637   8.230
 2395POPC   C3B33669  30.658  43.507   7.946
 2395POPC   C4B33670  30.322  43.689   7.754
 2396POPC   NC333671  18.487  39.873   9.538
 2396POPC   PO433672  17.897  39.613   9.490
 2396POPC   GL133673  18.124  39.886   9.177
 2396POPC   GL233674  18.435  39.722   9.056
 2396POPC   C1A33675  18.269  40.242   8.885
 2396POPC   D2A33676  18.281  40.401   8.499
 2396POPC   C3A33677  18.292  40.362   8.072
 2396POPC   C4A33678  18.481  40.128   7.860
 2396POPC   C1B33679  18.175  39.802   8.686
 2396POPC   C2B33680  18.114  39.941   8.321
 2396POPC   C3B33681  18.170  39.758   7.943
 2396POPC   C4B33682  18.476  39.601   7.719
 2397POPC   NC333683   1.449  17.474   9.412
 2397POPC   PO433684   0.764  17.342   9.472
 2397POPC   GL133685   0.839  17.556   9.073
 2397POPC   GL233686   1.212  17.641   9.008
 2397POPC   C1A33687   0.966  17.424   8.643
 2397POPC   D2A33688   1.275  17.625   8.432
 2397POPC   C3A33689   0.974  17.704   8.146
 2397POPC   C4A33690   0.843  17.498   7.812
 2397POPC   C1B33691   1.411  17.250   8.805
 2397POPC   C2B33692   1.509  17.152   8.388
 2397POPC   C3B33693   1.344  17.325   8.000
 2397POPC   C4B33694   1.139  17.128   7.660
 2398POPC   NC333695   0.750  24.436   9.544
 2398POPC   PO433696   0.204  24.596   9.223
 2398POPC   GL133697   0.573  24.496   9.036
 2398POPC   GL233698   0.782  24.204   9.083
 2398POPC   C1A33699   0.514  24.280   8.623
 2398POPC   D2A33700   0.158  24.199   8.346
 2398POPC   C3A33701   0.118  24.460   7.979
 2398POPC   C4A33702   0.405  24.776   7.805
 2398POPC   C1B33703   0.955  24.483   8.727
 2398POPC   C2B33704   0.748  24.688   8.366
 2398POPC   C3B33705   0.594  24.360   8.071
 2398POPC   C4B33706   0.423  23.996   7.877
 2399POPC   NC333707  40.922   0.080   9.216
 2399POPC   PO433708  40.560  44.439   9.338
 2399POPC   GL133709  40.681  44.652   9.015
 2399POPC   GL233710  41.030  44.651   8.942
 2399POPC   C1A33711  40.547  44.541   8.626
 2399POPC   D2A33712  40.426  44.754   8.279
 2399POPC   C3A33713  40.720  44.869   7.991
 2399POPC   C4A33714  40.863  44.509   7.752
 2399POPC   C1B33715  40.850  44.954   8.588
 2399POPC   C2B33716  40.971   0.237   8.255
 2399POPC   C3B33717  41.022   0.297   7.831
 2399POPC   C4B33718  40.950  44.974   7.532
 2400POPC   NC333719   6.999  26.323   9.656
 2400POPC   PO433720   7.466  25.982   9.522
 2400POPC   GL133721   7.506  26.254   9.155
 2400POPC   GL233722   7.215  26.129   9.054
 2400POPC   C1A33723   7.446  26.356   8.676
 2400POPC   D2A33724   7.408  26.063   8.294
 2400POPC   C3A33725   7.612  26.192   7.882
 2400POPC   C4A33726   7.653  26.226   7.417
 2400POPC   C1B33727   7.512  25.812   8.835
 2400POPC   C2B33728   7.795  25.675   8.483
 2400POPC   C3B33729   7.678  25.696   8.034
 2400POPC   C4B33730   7.301  25.792   7.761
 2401POPC   NC333731  42.952  23.513   9.550
 2401POPC   PO433732  42.830  24.176   9.482
 2401POPC   GL133733  42.985  23.866   9.107
 2401POPC   GL233734  43.045  23.468   9.067
 2401POPC   C1A33735  43.116  23.768   8.642
 2401POPC   D2A33736  43.371  23.718   8.227
 2401POPC   C3A33737  43.385  23.794   7.787
 2401POPC   C4A33738  43.457  23.555   7.439
 2401POPC   C1B33739  42.735  23.353   8.804
 2401POPC   C2B33740  42.769  23.445   8.382
 2401POPC   C3B33741  42.959  23.522   7.998
 2401POPC   C4B33742  42.893  23.773   7.646
 2402POPC   NC333743  42.596  33.271   9.447
 2402POPC   PO433744  42.492  32.707   9.703
 2402POPC   GL133745  42.248  32.895   9.292
 2402POPC   GL233746  42.264  33.218   9.067
 2402POPC   C1A33747  42.201  32.744   8.839
 2402POPC   D2A33748  42.484  32.734   8.484
 2402POPC   C3A33749  42.330  32.796   8.073
 2402POPC   C4A33750  42.544  32.868   7.679
 2402POPC   C1B33751  42.289  33.213   8.623
 2402POPC   C2B33752  42.556  33.187   8.291
 2402POPC   C3B33753  42.392  33.308   7.926
 2402POPC   C4B33754  42.564  33.399   7.546
 2403POPC   NC333755  21.986  16.357   9.384
 2403POPC   PO433756  21.908  17.043   9.329
 2403POPC   GL133757  22.162  16.788   9.050
 2403POPC   GL233758  22.012  16.532   8.882
 2403POPC   C1A33759  22.260  16.915   8.625
 2403POPC   D2A33760  22.074  16.630   8.309
 2403POPC   C3A33761  22.019  16.833   7.918
 2403POPC   C4A33762  22.413  17.024   7.832
 2403POPC   C1B33763  22.389  16.434   8.660
 2403POPC   C2B33764  22.625  16.520   8.336
 2403POPC   C3B33765  22.483  16.541   7.980
 2403POPC   C4B33766  22.200  16.387   7.743
 2404POPC   NC333767  35.165  12.240   9.508
 2404POPC   PO433768  35.667  11.849   9.524
 2404POPC   GL133769  35.350  11.955   9.156
 2404POPC   GL233770  35.375  12.332   9.056
 2404POPC   C1A33771  35.132  12.002   8.750
 2404POPC   D2A33772  35.110  11.763   8.380
 2404POPC   C3A33773  35.020  11.822   7.949
 2404POPC   C4A33774  35.374  11.927   7.678
 2404POPC   C1B33775  35.120  12.531   8.744
 2404POPC   C2B33776  35.213  12.502   8.334
 2404POPC   C3B33777  35.504  12.382   8.024
 2404POPC   C4B33778  35.411  12.425   7.588
 2405POPC   NC333779   7.234  38.615   9.383
 2405POPC   PO433780   7.904  38.846   9.394
 2405POPC   GL133781   7.794  38.562   9.069
 2405POPC   GL233782   7.597  38.267   9.184
 2405POPC   C1A33783   7.741  38.280   8.711
 2405POPC   D2A33784   7.456  38.215   8.367
 2405POPC   C3A33785   7.558  38.127   7.963
 2405POPC   C4A33786   7.624  38.468   7.724
 2405POPC   C1B33787   7.233  38.252   8.834
 2405POPC   C2B33788   6.965  38.340   8.449
 2405POPC   C3B33789   7.137  38.435   8.008
 2405POPC   C4B33790   7.026  38.163   7.687
 2406POPC   NC333791  14.217  31.632   9.463
 2406POPC   PO433792  14.522  30.943   9.552
 2406POPC   GL133793  14.450  31.265   9.220
 2406POPC   GL233794  14.683  31.588   9.233
 2406POPC   C1A33795  14.188  31.223   8.851
 2406POPC   D2A33796  14.022  31.426   8.478
 2406POPC   C3A33797  14.110  31.272   8.035
 2406POPC   C4A33798  14.339  31.346   7.610
 2406POPC   C1B33799  14.510  31.606   8.825
 2406POPC   C2B33800  14.510  31.489   8.397
 2406POPC   C3B33801  14.384  31.680   8.009
 2406POPC   C4B33802  14.487  31.836   7.586
 2407POPC   NC333803   6.413  35.916   9.462
 2407POPC   PO433804   6.816  36.435   9.459
 2407POPC   GL133805   6.689  36.188   9.086
 2407POPC   GL233806   6.853  35.914   9.076
 2407POPC   C1A33807   6.770  36.122   8.621
 2407POPC   D2A33808   6.580  36.286   8.273
 2407POPC   C3A33809   6.457  36.026   7.959
 2407POPC   C4A33810   6.661  36.158   7.607
 2407POPC   C1B33811   7.174  35.848   8.781
 2407POPC   C2B33812   7.250  36.015   8.394
 2407POPC   C3B33813   7.015  36.030   8.007
 2407POPC   C4B33814   6.813  35.699   7.800
 2408POPC   NC333815  32.167   8.022   9.499
 2408POPC   PO433816  32.263   8.700   9.607
 2408POPC   GL133817  32.283   8.415   9.186
 2408POPC   GL233818  32.465   8.057   9.089
 2408POPC   C1A33819  32.293   8.393   8.743
 2408POPC   D2A33820  32.353   8.247   8.335
 2408POPC   C3A33821  32.005   8.227   8.092
 2408POPC   C4A33822  32.051   8.398   7.722
 2408POPC   C1B33823  32.570   7.895   8.651
 2408POPC   C2B33824  32.499   7.776   8.190
 2408POPC   C3B33825  32.359   7.958   7.784
 2408POPC   C4B33826  32.543   8.179   7.425
 2409POPC   NC333827  42.904  21.609   9.495
 2409POPC   PO433828  43.446  21.307   9.473
 2409POPC   GL133829  43.193  21.376   9.131
 2409POPC   GL233830  43.257  21.758   9.143
 2409POPC   C1A33831  43.074  21.175   8.726
 2409POPC   D2A33832  42.928  21.396   8.375
 2409POPC   C3A33833  42.862  21.256   8.003
 2409POPC   C4A33834  43.224  21.032   7.854
 2409POPC   C1B33835  43.258  21.647   8.716
 2409POPC   C2B33836  43.405  21.631   8.311
 2409POPC   C3B33837  43.389  21.518   7.895
 2409POPC   C4B33838  43.361  21.821   7.565
 2410POPC   NC333839  28.780   0.222   9.824
 2410POPC   PO433840  29.324   0.379   9.427
 2410POPC   GL133841  29.265   0.272   9.054
 2410POPC   GL233842  29.559   0.106   9.029
 2410POPC   C1A33843  29.003   0.285   8.690
 2410POPC   D2A33844  28.903   0.637   8.469
 2410POPC   C3A33845  29.009   0.582   8.050
 2410POPC   C4A33846  28.927   0.725   7.640
 2410POPC   C1B33847  29.496   0.377   8.639
 2410POPC   C2B33848  29.337   0.211   8.274
 2410POPC   C3B33849  29.592   0.252   7.926
 2410POPC   C4B33850  29.454   0.623   7.781
 2411POPC   NC333851   8.022  36.718   9.398
 2411POPC   PO433852   8.270  37.261   9.698
 2411POPC   GL133853   8.253  37.152   9.195
 2411POPC   GL233854   8.515  37.041   9.006
 2411POPC   C1A33855   8.111  37.205   8.737
 2411POPC   D2A33856   8.268  37.360   8.336
 2411POPC   C3A33857   8.134  37.114   7.987
 2411POPC   C4A33858   8.381  36.984   7.669
 2411POPC   C1B33859   8.247  36.712   8.790
 2411POPC   C2B33860   8.164  36.527   8.400
 2411POPC   C3B33861   8.264  36.592   8.004
 2411POPC   C4B33862   8.045  36.615   7.632
 2412POPC   NC333863  18.766   8.715   9.494
 2412POPC   PO433864  18.032   8.879   9.575
 2412POPC   GL133865  18.156   9.080   9.195
 2412POPC   GL233866  18.512   9.124   9.174
 2412POPC   C1A33867  18.079   9.089   8.781
 2412POPC   D2A33868  18.111   8.840   8.404
 2412POPC   C3A33869  18.084   9.067   8.029
 2412POPC   C4A33870  18.131   8.852   7.641
 2412POPC   C1B33871  18.569   9.230   8.715
 2412POPC   C2B33872  18.548   9.295   8.248
 2412POPC   C3B33873  18.538   9.104   7.798
 2412POPC   C4B33874  18.535   9.124   7.320
 2413POPC   NC333875  18.488   1.477   9.493
 2413POPC   PO433876  17.880   1.452   9.719
 2413POPC   GL133877  18.029   1.342   9.229
 2413POPC   GL233878  18.170   1.057   9.182
 2413POPC   C1A33879  17.947   1.091   8.742
 2413POPC   D2A33880  18.069   0.899   8.314
 2413POPC   C3A33881  18.061   1.214   7.971
 2413POPC   C4A33882  18.018   1.504   7.603
 2413POPC   C1B33883  18.367   1.354   8.824
 2413POPC   C2B33884  18.413   1.291   8.380
 2413POPC   C3B33885  18.531   1.442   7.990
 2413POPC   C4B33886  18.467   1.258   7.618
 2414POPC   NC333887  35.440  30.328   9.460
 2414POPC   PO433888  35.209  29.720   9.315
 2414POPC   GL133889  35.286  30.002   9.056
 2414POPC   GL233890  35.620  30.021   9.126
 2414POPC   C1A33891  35.259  29.868   8.657
 2414POPC   D2A33892  35.147  30.018   8.273
 2414POPC   C3A33893  35.165  29.817   7.908
 2414POPC   C4A33894  35.018  30.176   7.693
 2414POPC   C1B33895  35.730  30.138   8.762
 2414POPC   C2B33896  35.631  30.107   8.357
 2414POPC   C3B33897  35.627  29.976   7.979
 2414POPC   C4B33898  35.834  30.183   7.696
 2415POPC   NC333899   8.391   7.024   9.542
 2415POPC   PO433900   7.814   7.411   9.563
 2415POPC   GL133901   8.164   7.405   9.249
 2415POPC   GL233902   8.500   7.605   9.247
 2415POPC   C1A33903   8.069   7.410   8.818
 2415POPC   D2A33904   8.043   7.552   8.419
 2415POPC   C3A33905   8.160   7.280   8.113
 2415POPC   C4A33906   8.280   7.111   7.740
 2415POPC   C1B33907   8.564   7.334   8.886
 2415POPC   C2B33908   8.572   7.490   8.456
 2415POPC   C3B33909   8.401   7.735   8.115
 2415POPC   C4B33910   8.287   7.612   7.732
 2416POPC   NC333911  42.347  10.167   9.592
 2416POPC   PO433912  42.457  10.912   9.393
 2416POPC   GL133913  42.581  10.599   9.082
 2416POPC   GL233914  42.508  10.228   9.104
 2416POPC   C1A33915  42.425  10.500   8.674
 2416POPC   D2A33916  42.446  10.315   8.275
 2416POPC   C3A33917  42.591  10.566   7.906
 2416POPC   C4A33918  42.681  10.740   7.468
 2416POPC   C1B33919  42.093  10.180   8.859
 2416POPC   C2B33920  42.007  10.079   8.390
 2416POPC   C3B33921  42.107  10.237   7.908
 2416POPC   C4B33922  41.991  10.220   7.441
 2417POPC   NC333923   4.836  27.712   9.429
 2417POPC   PO433924   5.221  27.185   9.347
 2417POPC   GL133925   5.212  27.288   8.934
 2417POPC   GL233926   4.902  27.448   8.995
 2417POPC   C1A33927   5.328  27.604   8.612
 2417POPC   D2A33928   5.426  27.864   8.243
 2417POPC   C3A33929   5.347  27.565   7.937
 2417POPC   C4A33930   5.542  27.303   7.643
 2417POPC   C1B33931   4.805  27.583   8.607
 2417POPC   C2B33932   4.928  27.697   8.204
 2417POPC   C3B33933   4.912  27.811   7.750
 2417POPC   C4B33934   4.802  27.657   7.286
 2418POPC   NC333935  35.912  23.706   9.843
 2418POPC   PO433936  36.267  24.087   9.403
 2418POPC   GL133937  36.222  23.935   9.048
 2418POPC   GL233938  35.840  23.971   8.951
 2418POPC   C1A33939  36.221  23.688   8.721
 2418POPC   D2A33940  36.148  23.474   8.353
 2418POPC   C3A33941  36.213  23.705   8.012
 2418POPC   C4A33942  36.277  23.525   7.599
 2418POPC   C1B33943  35.716  23.665   8.620
 2418POPC   C2B33944  35.542  23.488   8.216
 2418POPC   C3B33945  35.788  23.492   7.838
 2418POPC   C4B33946  35.934  23.871   7.570
 2419POPC   NC333947  13.708  26.335   9.433
 2419POPC   PO433948  13.620  27.033   9.409
 2419POPC   GL133949  13.576  26.710   9.132
 2419POPC   GL233950  13.934  26.661   9.091
 2419POPC   C1A33951  13.407  26.626   8.748
 2419POPC   D2A33952  13.427  26.935   8.435
 2419POPC   C3A33953  13.413  26.837   8.034
 2419POPC   C4A33954  13.723  26.533   7.887
 2419POPC   C1B33955  13.816  26.978   8.762
 2419POPC   C2B33956  13.832  27.232   8.365
 2419POPC   C3B33957  13.850  27.096   7.914
 2419POPC   C4B33958  13.932  27.188   7.453
 2420POPC   NC333959  19.565  41.128   9.075
 2420POPC   PO433960  19.635  41.759   9.440
 2420POPC   GL133961  19.688  41.648   9.040
 2420POPC   GL233962  19.986  41.434   9.068
 2420POPC   C1A33963  19.610  41.547   8.602
 2420POPC   D2A33964  19.671  41.176   8.357
 2420POPC   C3A33965  20.042  41.281   8.135
 2420POPC   C4A33966  20.104  41.270   7.712
 2420POPC   C1B33967  20.100  41.669   8.709
 2420POPC   C2B33968  20.130  41.728   8.311
 2420POPC   C3B33969  20.067  41.737   7.886
 2420POPC   C4B33970  20.331  41.716   7.527
 2421POPC   NC333971  43.395  26.254   9.637
 2421POPC   PO433972  43.284  25.676   9.381
 2421POPC   GL133973  42.984  25.830   9.121
 2421POPC   GL233974  43.001  26.143   9.277
 2421POPC   C1A33975  42.837  25.956   8.722
 2421POPC   D2A33976  42.947  26.267   8.405
 2421POPC   C3A33977  43.061  26.039   8.021
 2421POPC   C4A33978  43.021  26.182   7.613
 2421POPC   C1B33979  43.152  26.294   8.901
 2421POPC   C2B33980  43.355  26.496   8.605
 2421POPC   C3B33981  43.378  26.459   8.160
 2421POPC   C4B33982  43.448  26.435   7.739
 2422POPC   NC333983  21.075   5.361   9.358
 2422POPC   PO433984  21.726   5.186   9.533
 2422POPC   GL133985  21.703   5.182   9.014
 2422POPC   GL233986  21.357   5.200   8.979
 2422POPC   C1A33987  21.553   4.892   8.651
 2422POPC   D2A33988  21.392   4.896   8.254
 2422POPC   C3A33989  21.581   5.169   7.938
 2422POPC   C4A33990  21.604   5.590   7.755
 2422POPC   C1B33991  21.062   5.202   8.658
 2422POPC   C2B33992  20.878   5.067   8.324
 2422POPC   C3B33993  21.056   5.160   7.930
 2422POPC   C4B33994  21.063   5.545   7.652
 2423POPC   NC333995  42.187  26.526   9.256
 2423POPC   PO433996  42.305  27.064   9.711
 2423POPC   GL133997  42.446  27.027   9.208
 2423POPC   GL233998  42.239  27.235   8.995
 2423POPC   C1A33999  42.434  26.837   8.740
 2423POPC   D2A34000  42.568  26.650   8.332
 2423POPC   C3A34001  42.422  26.722   7.928
 2423POPC   C4A34002  42.634  26.676   7.547
 2423POPC   C1B34003  41.967  26.999   8.678
 2423POPC   C2B34004  42.087  26.891   8.290
 2423POPC   C3B34005  41.978  27.009   7.878
 2423POPC   C4B34006  42.195  26.933   7.520
 2424POPC   NC334007  44.276   5.156   9.546
 2424POPC   PO434008  43.666   4.978   9.506
 2424POPC   GL134009  43.961   5.020   9.163
 2424POPC   GL234010  44.059   5.374   9.133
 2424POPC   C1A34011  43.905   5.087   8.731
 2424POPC   D2A34012  44.052   5.015   8.327
 2424POPC   C3A34013  43.744   4.852   8.104
 2424POPC   C4A34014  43.697   5.087   7.772
 2424POPC   C1B34015  44.292   5.422   8.724
 2424POPC   C2B34016  44.179   5.500   8.280
 2424POPC   C3B34017  44.134   5.335   7.871
 2424POPC   C4B34018  44.054   5.623   7.483
 2425POPC   NC334019   4.135  40.364   9.391
 2425POPC   PO434020   4.433  39.852   9.680
 2425POPC   GL134021   4.515  39.910   9.198
 2425POPC   GL234022   4.406  40.216   8.993
 2425POPC   C1A34023   4.509  39.821   8.707
 2425POPC   D2A34024   4.185  39.898   8.352
 2425POPC   C3A34025   4.309  39.793   7.903
 2425POPC   C4A34026   4.647  39.787   7.601
 2425POPC   C1B34027   4.033  40.322   8.733
 2425POPC   C2B34028   3.779  40.228   8.383
 2425POPC   C3B34029   3.768  40.229   7.956
 2425POPC   C4B34030   4.150  40.277   7.769
 2426POPC   NC334031   6.733  24.197   9.499
 2426POPC   PO434032   6.306  24.673   9.468
 2426POPC   GL134033   6.541  24.518   9.158
 2426POPC   GL234034   6.330  24.293   9.037
 2426POPC   C1A34035   6.810  24.379   8.829
 2426POPC   D2A34036   6.653  24.409   8.416
 2426POPC   C3A34037   6.855  24.221   8.064
 2426POPC   C4A34038   6.763  24.264   7.628
 2426POPC   C1B34039   6.289  24.090   8.661
 2426POPC   C2B34040   6.402  24.009   8.225
 2426POPC   C3B34041   6.335  24.333   7.919
 2426POPC   C4B34042   6.234  24.332   7.449
 2427POPC   NC334043   2.701  26.320   9.571
 2427POPC   PO434044   3.178  25.906   9.658
 2427POPC   GL134045   2.983  26.085   9.202
 2427POPC   GL234046   2.605  26.060   9.160
 2427POPC   C1A34047   2.832  25.858   8.768
 2427POPC   D2A34048   2.519  25.747   8.460
 2427POPC   C3A34049   2.668  25.744   8.029
 2427POPC   C4A34050   2.930  26.009   7.776
 2427POPC   C1B34051   2.638  26.336   8.823
 2427POPC   C2B34052   2.584  26.321   8.396
 2427POPC   C3B34053   2.742  26.443   8.000
 2427POPC   C4B34054   2.481  26.226   7.722
 2428POPC   NC334055   7.157   2.813   9.446
 2428POPC   PO434056   7.758   2.556   9.492
 2428POPC   GL134057   7.608   2.835   9.149
 2428POPC   GL234058   7.347   2.631   9.000
 2428POPC   C1A34059   7.603   2.952   8.686
 2428POPC   D2A34060   7.323   2.712   8.372
 2428POPC   C3A34061   7.357   2.838   7.954
 2428POPC   C4A34062   7.608   2.662   7.642
 2428POPC   C1B34063   7.108   2.968   8.762
 2428POPC   C2B34064   6.885   2.958   8.332
 2428POPC   C3B34065   6.877   2.567   8.101
 2428POPC   C4B34066   7.092   2.459   7.715
 2429POPC   NC334067   4.420  31.049   9.505
 2429POPC   PO434068   5.028  30.762   9.475
 2429POPC   GL134069   4.783  30.870   9.124
 2429POPC   GL234070   4.752  30.548   9.064
 2429POPC   C1A34071   4.867  30.872   8.658
 2429POPC   D2A34072   5.206  30.690   8.357
 2429POPC   C3A34073   5.075  30.740   7.904
 2429POPC   C4A34074   4.934  30.843   7.468
 2429POPC   C1B34075   4.998  30.381   8.735
 2429POPC   C2B34076   4.853  30.329   8.284
 2429POPC   C3B34077   5.149  30.245   7.968
 2429POPC   C4B34078   5.158  30.354   7.507
 2430POPC   NC334079  17.185   0.248   9.302
 2430POPC   PO434080  17.278   0.779   9.764
 2430POPC   GL134081  17.339   0.781   9.287
 2430POPC   GL234082  17.147   0.629   8.989
 2430POPC   C1A34083  17.632   0.717   8.945
 2430POPC   D2A34084  17.605   0.740   8.501
 2430POPC   C3A34085  17.647   0.454   8.156
 2430POPC   C4A34086  17.691   0.590   7.710
 2430POPC   C1B34087  17.177   0.456   8.599
 2430POPC   C2B34088  16.960   0.487   8.215
 2430POPC   C3B34089  17.194   0.577   7.884
 2430POPC   C4B34090  17.224   0.405   7.456
 2431POPC   NC334091  25.851  30.496   9.555
 2431POPC   PO434092  25.721  31.082   9.308
 2431POPC   GL134093  25.911  30.743   9.125
 2431POPC   GL234094  26.251  30.738   9.268
 2431POPC   C1A34095  26.079  30.632   8.766
 2431POPC   D2A34096  25.961  30.890   8.445
 2431POPC   C3A34097  26.130  30.705   8.106
 2431POPC   C4A34098  26.205  30.624   7.694
 2431POPC   C1B34099  26.397  30.985   8.904
 2431POPC   C2B34100  26.360  31.220   8.523
 2431POPC   C3B34101  26.213  31.220   8.083
 2431POPC   C4B34102  26.436  31.120   7.669
 2432POPC   NC334103  44.091  23.757   9.419
 2432POPC   PO434104  43.389  23.658   9.391
 2432POPC   GL134105  43.551  23.933   9.024
 2432POPC   GL234106  43.921  24.000   8.999
 2432POPC   C1A34107  43.664  23.895   8.588
 2432POPC   D2A34108  43.801  23.476   8.385
 2432POPC   C3A34109  43.809  23.543   7.960
 2432POPC   C4A34110  43.885  23.975   7.855
 2432POPC   C1B34111  44.161  23.765   8.710
 2432POPC   C2B34112  44.203  23.837   8.272
 2432POPC   C3B34113  44.295  23.649   7.888
 2432POPC   C4B34114  44.208  23.255   7.749
 2433POPC   NC334115  24.256  15.181   9.636
 2433POPC   PO434116  24.724  14.860   9.460
 2433POPC   GL134117  24.751  15.036   9.070
 2433POPC   GL234118  24.831  15.325   9.214
 2433POPC   C1A34119  24.669  14.989   8.614
 2433POPC   D2A34120  24.316  14.876   8.313
 2433POPC   C3A34121  24.290  15.094   7.935
 2433POPC   C4A34122  24.684  15.014   7.740
 2433POPC   C1B34123  24.877  15.572   8.864
 2433POPC   C2B34124  24.945  15.436   8.481
 2433POPC   C3B34125  24.707  15.298   8.161
 2433POPC   C4B34126  24.641  15.514   7.771
 2434POPC   NC334127  22.741  27.257   9.494
 2434POPC   PO434128  23.061  27.878   9.545
 2434POPC   GL134129  23.069  27.530   9.211
 2434POPC   GL234130  22.714  27.458   9.053
 2434POPC   C1A34131  23.236  27.505   8.776
 2434POPC   D2A34132  23.342  27.851   8.440
 2434POPC   C3A34133  23.263  27.638   8.041
 2434POPC   C4A34134  23.106  27.186   7.973
 2434POPC   C1B34135  22.826  27.796   8.854
 2434POPC   C2B34136  22.863  27.662   8.456
 2434POPC   C3B34137  22.743  27.593   8.098
 2434POPC   C4B34138  22.815  27.680   7.723
 2435POPC   NC334139   1.637  44.469   9.574
 2435POPC   PO434140   2.004   0.069   9.601
 2435POPC   GL134141   1.962  44.895   9.180
 2435POPC   GL234142   2.170  44.615   9.062
 2435POPC   C1A34143   1.858  44.885   8.742
 2435POPC   D2A34144   1.745  44.821   8.314
 2435POPC   C3A34145   1.930  44.781   7.910
 2435POPC   C4A34146   1.864  44.822   7.469
 2435POPC   C1B34147   2.078  44.417   8.689
 2435POPC   C2B34148   2.041  44.406   8.266
 2435POPC   C3B34149   2.266  44.325   7.928
 2435POPC   C4B34150   1.988  44.341   7.622
 2436POPC   NC334151  38.365   6.402   9.505
 2436POPC   PO434152  38.773   6.863   9.374
 2436POPC   GL134153  38.610   6.643   9.050
 2436POPC   GL234154  38.628   6.313   9.055
 2436POPC   C1A34155  38.632   6.604   8.611
 2436POPC   D2A34156  38.569   6.955   8.341
 2436POPC   C3A34157  38.433   6.841   7.952
 2436POPC   C4A34158  38.419   6.718   7.513
 2436POPC   C1B34159  38.209   6.417   8.838
 2436POPC   C2B34160  38.178   6.539   8.355
 2436POPC   C3B34161  38.314   6.355   7.941
 2436POPC   C4B34162  38.499   6.201   7.550
 2437POPC   NC334163   2.097   3.599   9.515
 2437POPC   PO434164   1.643   4.036   9.289
 2437POPC   GL134165   1.955   3.803   9.054
 2437POPC   GL234166   1.936   3.464   9.056
 2437POPC   C1A34167   2.142   3.754   8.639
 2437POPC   D2A34168   1.927   3.588   8.276
 2437POPC   C3A34169   1.968   3.715   7.854
 2437POPC   C4A34170   1.745   3.881   7.525
 2437POPC   C1B34171   2.145   3.250   8.742
 2437POPC   C2B34172   2.308   3.249   8.337
 2437POPC   C3B34173   2.159   3.260   7.928
 2437POPC   C4B34174   2.321   3.193   7.539
 2438POPC   NC334175  34.317  16.603   9.589
 2438POPC   PO434176  34.749  17.127   9.555
 2438POPC   GL134177  34.609  16.870   9.236
 2438POPC   GL234178  34.527  17.160   9.092
 2438POPC   C1A34179  34.774  16.737   8.829
 2438POPC   D2A34180  34.882  16.857   8.379
 2438POPC   C3A34181  34.620  16.623   8.086
 2438POPC   C4A34182  34.639  16.473   7.656
 2438POPC   C1B34183  34.278  17.006   8.833
 2438POPC   C2B34184  34.382  16.912   8.457
 2438POPC   C3B34185  34.380  17.091   8.078
 2438POPC   C4B34186  34.513  16.961   7.693
 2439POPC   NC334187  13.787   5.946   9.800
 2439POPC   PO434188  13.580   6.593   9.572
 2439POPC   GL134189  13.612   6.687   9.165
 2439POPC   GL234190  13.913   6.847   9.183
 2439POPC   C1A34191  13.448   6.591   8.772
 2439POPC   D2A34192  13.427   6.324   8.423
 2439POPC   C3A34193  13.388   6.535   8.066
 2439POPC   C4A34194  13.420   6.537   7.647
 2439POPC   C1B34195  13.966   6.662   8.768
 2439POPC   C2B34196  13.773   6.719   8.369
 2439POPC   C3B34197  13.848   6.754   7.947
 2439POPC   C4B34198  13.921   6.566   7.546
 2440POPC   NC334199  15.217  38.036   9.463
 2440POPC   PO434200  14.992  38.683   9.600
 2440POPC   GL134201  15.090  38.493   9.223
 2440POPC   GL234202  15.418  38.404   9.145
 2440POPC   C1A34203  15.059  38.545   8.792
 2440POPC   D2A34204  15.296  38.573   8.430
 2440POPC   C3A34205  15.008  38.648   8.075
 2440POPC   C4A34206  14.776  38.733   7.695
 2440POPC   C1B34207  15.451  38.175   8.759
 2440POPC   C2B34208  15.579  38.154   8.318
 2440POPC   C3B34209  15.306  38.084   7.963
 2440POPC   C4B34210  15.009  38.278   7.711
 2441POPC   NC334211   3.241  16.870   9.602
 2441POPC   PO434212   3.696  16.418   9.778
 2441POPC   GL134213   3.609  16.503   9.316
 2441POPC   GL234214   3.563  16.839   9.178
 2441POPC   C1A34215   3.672  16.468   8.858
 2441POPC   D2A34216   3.776  16.571   8.432
 2441POPC   C3A34217   3.409  16.468   8.205
 2441POPC   C4A34218   3.362  16.349   7.792
 2441POPC   C1B34219   3.752  16.984   8.797
 2441POPC   C2B34220   3.577  17.057   8.374
 2441POPC   C3B34221   3.664  16.882   8.000
 2441POPC   C4B34222   3.849  16.498   7.855
 2442POPC   NC334223   1.909  20.799   9.554
 2442POPC   PO434224   1.969  20.092   9.445
 2442POPC   GL134225   2.058  20.476   9.182
 2442POPC   GL234226   1.758  20.691   9.085
 2442POPC   C1A34227   2.146  20.605   8.746
 2442POPC   D2A34228   1.954  20.538   8.347
 2442POPC   C3A34229   2.236  20.397   8.023
 2442POPC   C4A34230   2.312  20.526   7.603
 2442POPC   C1B34231   1.640  20.849   8.686
 2442POPC   C2B34232   1.775  21.041   8.309
 2442POPC   C3B34233   2.074  20.896   7.976
 2442POPC   C4B34234   1.788  20.594   7.808
 2443POPC   NC334235  29.444  15.795   9.799
 2443POPC   PO434236  28.921  15.648   9.419
 2443POPC   GL134237  29.078  15.889   9.137
 2443POPC   GL234238  29.416  15.893   9.199
 2443POPC   C1A34239  28.992  15.959   8.722
 2443POPC   D2A34240  29.044  16.162   8.326
 2443POPC   C3A34241  28.937  15.903   7.984
 2443POPC   C4A34242  29.183  16.101   7.696
 2443POPC   C1B34243  29.531  15.674   8.818
 2443POPC   C2B34244  29.360  15.769   8.420
 2443POPC   C3B34245  29.463  15.826   8.018
 2443POPC   C4B34246  29.577  15.641   7.629
 2444POPC   NC334247  21.499  42.561   9.319
 2444POPC   PO434248  21.424  41.963   9.272
 2444POPC   GL134249  21.255  42.159   8.942
 2444POPC   GL234250  21.345  42.539   8.844
 2444POPC   C1A34251  21.097  41.873   8.612
 2444POPC   D2A34252  20.912  42.031   8.244
 2444POPC   C3A34253  21.124  42.365   7.996
 2444POPC   C4A34254  21.328  42.460   7.625
 2444POPC   C1B34255  21.249  42.350   8.474
 2444POPC   C2B34256  21.422  41.994   8.222
 2444POPC   C3B34257  21.646  42.066   7.856
 2444POPC   C4B34258  22.032  42.110   7.646
 2445POPC   NC334259  33.986  28.435   9.641
 2445POPC   PO434260  33.332  28.430   9.447
 2445POPC   GL134261  33.637  28.239   9.186
 2445POPC   GL234262  33.901  28.478   9.141
 2445POPC   C1A34263  33.582  28.316   8.750
 2445POPC   D2A34264  33.417  28.515   8.418
 2445POPC   C3A34265  33.675  28.461   8.104
 2445POPC   C4A34266  33.693  28.172   7.776
 2445POPC   C1B34267  34.064  28.165   8.857
 2445POPC   C2B34268  34.023  28.214   8.435
 2445POPC   C3B34269  34.150  28.296   8.026
 2445POPC   C4B34270  34.022  28.576   7.694
 2446POPC   NC334271  22.833  12.850   9.309
 2446POPC   PO434272  22.326  12.790   9.725
 2446POPC   GL134273  22.318  12.780   9.222
 2446POPC   GL234274  22.021  12.611   9.070
 2446POPC   C1A34275  22.214  13.049   8.821
 2446POPC   D2A34276  22.150  12.875   8.375
 2446POPC   C3A34277  21.882  12.893   7.986
 2446POPC   C4A34278  22.074  12.933   7.570
 2446POPC   C1B34279  22.402  12.573   8.761
 2446POPC   C2B34280  22.431  12.401   8.345
 2446POPC   C3B34281  22.224  12.493   7.949
 2446POPC   C4B34282  22.310  12.485   7.510
 2447POPC   NC334283   0.755   4.919   9.534
 2447POPC   PO434284   0.140   5.208   9.464
 2447POPC   GL134285   0.532   5.213   9.166
 2447POPC   GL234286   0.681   4.873   9.043
 2447POPC   C1A34287   0.700   5.289   8.738
 2447POPC   D2A34288   0.477   5.162   8.366
 2447POPC   C3A34289   0.610   5.277   7.948
 2447POPC   C4A34290   0.394   5.080   7.568
 2447POPC   C1B34291   0.285   4.853   8.828
 2447POPC   C2B34292   0.046   4.905   8.441
 2447POPC   C3B34293   0.167   4.922   8.008
 2447POPC   C4B34294   0.308   4.582   7.754
 2448POPC   NC334295   6.381  25.776   9.472
 2448POPC   PO434296   6.555  26.358   9.727
 2448POPC   GL134297   6.745  26.125   9.259
 2448POPC   GL234298   6.838  25.806   9.184
 2448POPC   C1A34299   6.579  26.031   8.790
 2448POPC   D2A34300   6.435  26.349   8.502
 2448POPC   C3A34301   6.521  26.163   8.147
 2448POPC   C4A34302   6.471  26.199   7.769
 2448POPC   C1B34303   7.013  25.764   8.756
 2448POPC   C2B34304   6.912  25.917   8.373
 2448POPC   C3B34305   6.836  25.765   7.976
 2448POPC   C4B34306   6.788  25.873   7.553
 2449POPC   NC334307   7.174  42.574   9.360
 2449POPC   PO434308   7.543  42.117   9.473
 2449POPC   GL134309   7.515  42.199   9.051
 2449POPC   GL234310   7.510  42.545   8.984
 2449POPC   C1A34311   7.384  42.185   8.617
 2449POPC   D2A34312   7.115  41.878   8.438
 2449POPC   C3A34313   7.029  42.021   8.046
 2449POPC   C4A34314   7.313  42.215   7.786
 2449POPC   C1B34315   7.159  42.681   8.716
 2449POPC   C2B34316   7.247  42.884   8.338
 2449POPC   C3B34317   7.292  42.710   7.930
 2449POPC   C4B34318   7.666  42.679   7.709
 2450POPC   NC334319  43.353  24.170   9.419
 2450POPC   PO434320  43.026  24.734   9.595
 2450POPC   GL134321  42.994  24.553   9.184
 2450POPC   GL234322  43.334  24.586   9.108
 2450POPC   C1A34323  42.928  24.696   8.745
 2450POPC   D2A34324  43.141  24.780   8.320
 2450POPC   C3A34325  43.073  24.608   7.901
 2450POPC   C4A34326  43.046  24.776   7.470
 2450POPC   C1B34327  43.211  24.270   8.789
 2450POPC   C2B34328  43.256  24.211   8.361
 2450POPC   C3B34329  43.440  24.265   7.966
 2450POPC   C4B34330  43.372  24.393   7.529
 2451POPC   NC334331   6.722  33.361   9.547
 2451POPC   PO434332   6.392  33.904   9.481
 2451POPC   GL134333   6.575  33.645   9.148
 2451POPC   GL234334   6.828  33.842   9.129
 2451POPC   C1A34335   6.605  33.656   8.692
 2451POPC   D2A34336   6.466  33.880   8.342
 2451POPC   C3A34337   6.654  33.753   7.968
 2451POPC   C4A34338   6.635  34.039   7.676
 2451POPC   C1B34339   7.062  33.853   8.780
 2451POPC   C2B34340   6.970  33.831   8.370
 2451POPC   C3B34341   7.175  33.917   8.020
 2451POPC   C4B34342   7.073  33.778   7.634
 2452POPC   NC334343  11.372  20.103   9.501
 2452POPC   PO434344  10.843  19.705   9.520
 2452POPC   GL134345  11.107  19.897   9.139
 2452POPC   GL234346  11.515  19.760   9.154
 2452POPC   C1A34347  11.231  19.797   8.714
 2452POPC   D2A34348  10.973  19.774   8.369
 2452POPC   C3A34349  11.107  19.865   7.954
 2452POPC   C4A34350  11.230  19.877   7.550
 2452POPC   C1B34351  11.752  19.812   8.765
 2452POPC   C2B34352  11.621  19.721   8.343
 2452POPC   C3B34353  11.770  19.938   7.993
 2452POPC   C4B34354  11.701  20.014   7.565
 2453POPC   NC334355   3.961   0.096   9.592
 2453POPC   PO434356   3.391   0.301   9.542
 2453POPC   GL134357   3.602   0.215   9.204
 2453POPC   GL234358   3.599   0.586   9.147
 2453POPC   C1A34359   3.586   0.074   8.795
 2453POPC   D2A34360   3.704   0.310   8.419
 2453POPC   C3A34361   3.613   0.197   8.019
 2453POPC   C4A34362   3.349   0.131   7.678
 2453POPC   C1B34363   3.865   0.667   8.796
 2453POPC   C2B34364   3.949   0.754   8.361
 2453POPC   C3B34365   3.605   0.740   8.088
 2453POPC   C4B34366   3.605   0.596   7.677
 2454POPC   NC334367  38.880  37.066   9.778
 2454POPC   PO434368  39.093  36.710   9.226
 2454POPC   GL134369  39.263  36.813   8.927
 2454POPC   GL234370  39.356  37.148   9.005
 2454POPC   C1A34371  39.413  36.614   8.580
 2454POPC   D2A34372  39.427  36.680   8.147
 2454POPC   C3A34373  39.139  36.803   7.822
 2454POPC   C4A34374  39.198  36.577   7.468
 2454POPC   C1B34375  39.287  37.141   8.558
 2454POPC   C2B34376  39.602  37.151   8.260
 2454POPC   C3B34377  39.520  37.126   7.878
 2454POPC   C4B34378  39.157  37.313   7.701
 2455POPC   NC334379  11.033  21.076   9.868
 2455POPC   PO434380  11.033  20.449   9.508
 2455POPC   GL134381  11.322  20.534   9.184
 2455POPC   GL234382  11.571  20.277   9.078
 2455POPC   C1A34383  11.289  20.756   8.810
 2455POPC   D2A34384  11.093  20.598   8.435
 2455POPC   C3A34385  11.346  20.705   8.113
 2455POPC   C4A34386  11.311  20.848   7.700
 2455POPC   C1B34387  11.381  20.268   8.703
 2455POPC   C2B34388  11.329  20.175   8.272
 2455POPC   C3B34389  11.387  20.291   7.831
 2455POPC   C4B34390  11.373  20.310   7.336
 2456POPC   NC334391  12.411  38.749   9.325
 2456POPC   PO434392  11.736  38.910   9.492
 2456POPC   GL134393  11.878  38.645   9.111
 2456POPC   GL234394  12.146  38.378   9.085
 2456POPC   C1A34395  11.800  38.416   8.724
 2456POPC   D2A34396  11.987  38.440   8.329
 2456POPC   C3A34397  11.854  38.388   7.947
 2456POPC   C4A34398  11.551  38.615   7.799
 2456POPC   C1B34399  12.324  38.571   8.708
 2456POPC   C2B34400  12.543  38.543   8.317
 2456POPC   C3B34401  12.337  38.594   7.956
 2456POPC   C4B34402  12.240  38.857   7.642
 2457POPC   NC334403   6.117  29.415   9.549
 2457POPC   PO434404   5.459  29.118   9.641
 2457POPC   GL134405   5.731  29.182   9.224
 2457POPC   GL234406   6.118  29.069   9.179
 2457POPC   C1A34407   5.858  29.159   8.749
 2457POPC   D2A34408   5.911  28.837   8.392
 2457POPC   C3A34409   5.714  28.955   7.983
 2457POPC   C4A34410   5.660  29.305   7.653
 2457POPC   C1B34411   6.347  28.959   8.791
 2457POPC   C2B34412   6.442  28.822   8.368
 2457POPC   C3B34413   6.241  29.057   8.046
 2457POPC   C4B34414   6.080  29.017   7.645
 2458POPC   NC334415   3.209   4.573   9.606
 2458POPC   PO434416   3.784   4.118   9.476
 2458POPC   GL134417   3.710   4.353   9.121
 2458POPC   GL234418   3.769   4.111   8.895
 2458POPC   C1A34419   3.693   4.634   8.763
 2458POPC   D2A34420   3.595   4.485   8.355
 2458POPC   C3A34421   3.454   4.776   8.084
 2458POPC   C4A34422   3.636   4.559   7.791
 2458POPC   C1B34423   3.339   4.275   8.745
 2458POPC   C2B34424   3.143   4.176   8.340
 2458POPC   C3B34425   3.226   4.164   7.871
 2458POPC   C4B34426   3.158   4.036   7.401
 2459POPC   NC334427  34.886  13.035   9.243
 2459POPC   PO434428  34.281  13.129   9.564
 2459POPC   GL134429  34.347  12.825   9.194
 2459POPC   GL234430  34.647  12.711   8.962
 2459POPC   C1A34431  34.187  12.587   8.838
 2459POPC   D2A34432  34.343  12.547   8.415
 2459POPC   C3A34433  34.723  12.686   8.208
 2459POPC   C4A34434  34.577  12.552   7.800
 2459POPC   C1B34435  34.523  13.017   8.675
 2459POPC   C2B34436  34.752  13.317   8.409
 2459POPC   C3B34437  34.953  13.214   8.023
 2459POPC   C4B34438  34.804  12.986   7.692
 2460POPC   NC334439  42.752  44.792   9.605
 2460POPC   PO434440  43.441  44.602   9.623
 2460POPC   GL134441  43.152  44.574   9.291
 2460POPC   GL234442  43.206  44.819   9.027
 2460POPC   C1A34443  43.042  44.380   8.864
 2460POPC   D2A34444  43.239  44.512   8.489
 2460POPC   C3A34445  43.167  44.361   8.067
 2460POPC   C4A34446  43.011  44.293   7.620
 2460POPC   C1B34447  43.525  44.909   8.749
 2460POPC   C2B34448  43.675  44.776   8.400
 2460POPC   C3B34449  43.529  44.812   8.023
 2460POPC   C4B34450  43.307  44.675   7.694
 2461POPC   NC334451  34.180   4.543   9.380
 2461POPC   PO434452  33.489   4.507   9.477
 2461POPC   GL134453  33.722   4.374   9.095
 2461POPC   GL234454  33.990   4.101   9.165
 2461POPC   C1A34455  33.636   4.220   8.662
 2461POPC   D2A34456  33.620   4.004   8.260
 2461POPC   C3A34457  33.532   4.232   7.858
 2461POPC   C4A34458  33.265   4.201   7.479
 2461POPC   C1B34459  34.104   4.008   8.744
 2461POPC   C2B34460  34.076   4.241   8.361
 2461POPC   C3B34461  34.050   4.103   7.950
 2461POPC   C4B34462  33.928   4.218   7.528
 2462POPC   NC334463  24.996  20.379   9.538
 2462POPC   PO434464  25.446  20.842   9.438
 2462POPC   GL134465  25.226  20.663   9.122
 2462POPC   GL234466  25.277  20.993   8.971
 2462POPC   C1A34467  25.222  20.313   8.814
 2462POPC   D2A34468  25.037  20.324   8.381
 2462POPC   C3A34469  25.256  20.290   7.957
 2462POPC   C4A34470  25.123  20.411   7.521
 2462POPC   C1B34471  25.217  20.796   8.609
 2462POPC   C2B34472  25.373  20.896   8.225
 2462POPC   C3B34473  25.232  20.817   7.805
 2462POPC   C4B34474  25.330  20.841   7.316
 2463POPC   NC334475  19.291  28.774   9.353
 2463POPC   PO434476  19.825  28.728   9.722
 2463POPC   GL134477  19.800  28.728   9.218
 2463POPC   GL234478  19.913  28.414   9.057
 2463POPC   C1A34479  19.700  28.767   8.740
 2463POPC   D2A34480  19.660  28.861   8.259
 2463POPC   C3A34481  19.755  28.522   7.915
 2463POPC   C4A34482  20.126  28.535   7.626
 2463POPC   C1B34483  19.806  28.244   8.629
 2463POPC   C2B34484  19.973  28.170   8.205
 2463POPC   C3B34485  20.085  28.037   7.775
 2463POPC   C4B34486  20.289  27.983   7.363
 2464POPC   NC334487  23.924   5.406   9.397
 2464POPC   PO434488  23.485   5.899   9.652
 2464POPC   GL134489  23.620   5.756   9.189
 2464POPC   GL234490  23.505   5.401   9.095
 2464POPC   C1A34491  23.948   5.684   8.809
 2464POPC   D2A34492  24.123   5.917   8.432
 2464POPC   C3A34493  23.825   6.028   8.089
 2464POPC   C4A34494  23.600   6.066   7.698
 2464POPC   C1B34495  23.438   5.678   8.717
 2464POPC   C2B34496  23.376   5.938   8.347
 2464POPC   C3B34497  23.225   5.824   7.931
 2464POPC   C4B34498  23.350   5.657   7.530
 2465POPC   NC334499  20.927  15.233   9.556
 2465POPC   PO434500  21.511  14.983   9.484
 2465POPC   GL134501  21.485  15.116   9.090
 2465POPC   GL234502  21.233  15.357   9.169
 2465POPC   C1A34503  21.659  15.134   8.674
 2465POPC   D2A34504  21.453  15.326   8.290
 2465POPC   C3A34505  21.678  15.306   7.896
 2465POPC   C4A34506  21.718  15.066   7.536
 2465POPC   C1B34507  21.313  15.511   8.772
 2465POPC   C2B34508  21.015  15.643   8.444
 2465POPC   C3B34509  20.947  15.396   8.076
 2465POPC   C4B34510  21.222  15.430   7.719
 2466POPC   NC334511  25.280  30.944   9.360
 2466POPC   PO434512  25.379  31.562   9.607
 2466POPC   GL134513  25.345  31.464   9.186
 2466POPC   GL234514  24.998  31.334   9.143
 2466POPC   C1A34515  25.299  31.687   8.789
 2466POPC   D2A34516  25.098  31.839   8.398
 2466POPC   C3A34517  25.384  31.720   8.078
 2466POPC   C4A34518  25.543  31.429   7.767
 2466POPC   C1B34519  25.211  31.188   8.758
 2466POPC   C2B34520  25.156  31.323   8.349
 2466POPC   C3B34521  25.156  31.142   7.947
 2466POPC   C4B34522  25.133  31.249   7.517
 2467POPC   NC334523   6.265  20.340   9.826
 2467POPC   PO434524   5.748  20.551   9.404
 2467POPC   GL134525   5.976  20.634   9.039
 2467POPC   GL234526   5.761  20.851   8.979
 2467POPC   C1A34527   5.914  20.516   8.615
 2467POPC   D2A34528   5.677  20.708   8.304
 2467POPC   C3A34529   5.925  20.598   7.983
 2467POPC   C4A34530   6.149  20.421   7.716
 2467POPC   C1B34531   5.545  21.152   8.803
 2467POPC   C2B34532   5.657  21.254   8.426
 2467POPC   C3B34533   5.436  21.132   8.092
 2467POPC   C4B34534   5.537  20.877   7.811
 2468POPC   NC334535   4.977  12.988   9.441
 2468POPC   PO434536   4.884  12.351   9.304
 2468POPC   GL134537   5.176  12.639   9.071
 2468POPC   GL234538   5.245  13.015   9.030
 2468POPC   C1A34539   5.165  12.729   8.631
 2468POPC   D2A34540   5.255  13.007   8.337
 2468POPC   C3A34541   5.039  12.747   8.074
 2468POPC   C4A34542   4.984  12.734   7.655
 2468POPC   C1B34543   4.861  13.113   8.776
 2468POPC   C2B34544   4.747  13.080   8.357
 2468POPC   C3B34545   4.932  13.228   7.957
 2468POPC   C4B34546   4.746  13.186   7.557
 2469POPC   NC334547  39.442  28.492   9.220
 2469POPC   PO434548  39.003  28.045   9.596
 2469POPC   GL134549  38.983  28.255   9.174
 2469POPC   GL234550  39.242  28.113   8.945
 2469POPC   C1A34551  38.904  28.540   8.795
 2469POPC   D2A34552  39.026  28.724   8.407
 2469POPC   C3A34553  38.940  28.394   8.102
 2469POPC   C4A34554  39.170  28.228   7.755
 2469POPC   C1B34555  39.365  28.372   8.583
 2469POPC   C2B34556  39.467  28.410   8.158
 2469POPC   C3B34557  39.668  28.148   7.853
 2469POPC   C4B34558  39.543  28.073   7.432
 2470POPC   NC334559  31.916  34.592   9.490
 2470POPC   PO434560  32.554  34.908   9.607
 2470POPC   GL134561  32.368  34.740   9.240
 2470POPC   GL234562  32.108  34.974   9.170
 2470POPC   C1A34563  32.365  34.506   8.833
 2470POPC   D2A34564  32.189  34.490   8.400
 2470POPC   C3A34565  32.394  34.600   8.006
 2470POPC   C4A34566  32.515  34.306   7.676
 2470POPC   C1B34567  32.242  34.993   8.736
 2470POPC   C2B34568  32.107  35.006   8.304
 2470POPC   C3B34569  31.902  34.800   7.926
 2470POPC   C4B34570  32.169  34.706   7.522
 2471POPC   NC334571  28.872   7.757   9.481
 2471POPC   PO434572  29.560   7.744   9.306
 2471POPC   GL134573  29.347   7.517   8.997
 2471POPC   GL234574  28.976   7.481   9.049
 2471POPC   C1A34575  29.477   7.472   8.571
 2471POPC   D2A34576  29.459   7.712   8.185
 2471POPC   C3A34577  29.347   7.502   7.772
 2471POPC   C4A34578  29.372   7.273   7.363
 2471POPC   C1B34579  28.963   7.088   8.773
 2471POPC   C2B34580  28.924   6.855   8.351
 2471POPC   C3B34581  28.838   7.018   7.957
 2471POPC   C4B34582  28.869   7.380   7.777
 2472POPC   NC334583   7.944  41.117   9.802
 2472POPC   PO434584   8.529  41.439   9.474
 2472POPC   GL134585   8.272  41.706   9.173
 2472POPC   GL234586   8.062  41.510   8.941
 2472POPC   C1A34587   8.415  41.803   8.730
 2472POPC   D2A34588   8.441  41.700   8.304
 2472POPC   C3A34589   8.098  41.729   8.041
 2472POPC   C4A34590   8.380  41.692   7.699
 2472POPC   C1B34591   8.033  41.467   8.515
 2472POPC   C2B34592   7.871  41.173   8.243
 2472POPC   C3B34593   7.621  41.281   7.917
 2472POPC   C4B34594   7.927  41.465   7.637
 2473POPC   NC334595  10.247  28.426   9.455
 2473POPC   PO434596   9.644  28.096   9.477
 2473POPC   GL134597   9.729  28.292   9.099
 2473POPC   GL234598   9.737  28.628   9.234
 2473POPC   C1A34599   9.491  28.398   8.713
 2473POPC   D2A34600   9.477  28.527   8.273
 2473POPC   C3A34601   9.533  28.268   7.906
 2473POPC   C4A34602   9.891  28.279   7.600
 2473POPC   C1B34603   9.766  28.808   8.852
 2473POPC   C2B34604   9.890  28.734   8.463
 2473POPC   C3B34605   9.938  28.586   8.040
 2473POPC   C4B34606   9.652  28.715   7.717
 2474POPC   NC334607  31.838   9.859   9.622
 2474POPC   PO434608  31.408   9.361   9.362
 2474POPC   GL134609  31.596   9.592   9.039
 2474POPC   GL234610  31.606   9.926   9.164
 2474POPC   C1A34611  31.466   9.726   8.626
 2474POPC   D2A34612  31.369   9.989   8.267
 2474POPC   C3A34613  31.197   9.748   7.943
 2474POPC   C4A34614  31.401   9.619   7.574
 2474POPC   C1B34615  31.849  10.029   8.808
 2474POPC   C2B34616  31.957  10.095   8.384
 2474POPC   C3B34617  31.814   9.924   7.998
 2474POPC   C4B34618  31.670  10.043   7.617
 2475POPC   NC334619  15.559   8.048   9.808
 2475POPC   PO434620  15.985   8.306   9.365
 2475POPC   GL134621  15.897   8.221   9.009
 2475POPC   GL234622  15.812   7.880   9.001
 2475POPC   C1A34623  16.097   8.191   8.652
 2475POPC   D2A34624  16.450   8.044   8.491
 2475POPC   C3A34625  16.431   8.175   8.108
 2475POPC   C4A34626  16.155   8.294   7.784
 2475POPC   C1B34627  16.094   7.691   8.676
 2475POPC   C2B34628  16.176   7.559   8.273
 2475POPC   C3B34629  16.114   7.805   7.920
 2475POPC   C4B34630  15.936   7.852   7.527
 2476POPC   NC334631  35.050  36.748   9.446
 2476POPC   PO434632  35.680  37.082   9.534
 2476POPC   GL134633  35.609  36.916   9.126
 2476POPC   GL234634  35.271  36.811   8.977
 2476POPC   C1A34635  35.618  37.079   8.719
 2476POPC   D2A34636  35.357  37.084   8.374
 2476POPC   C3A34637  35.617  37.253   8.071
 2476POPC   C4A34638  35.623  37.109   7.677
 2476POPC   C1B34639  35.250  36.517   8.615
 2476POPC   C2B34640  35.176  36.480   8.151
 2476POPC   C3B34641  35.170  36.787   7.800
 2476POPC   C4B34642  35.201  36.695   7.322
 2477POPC   NC334643   0.174  33.853   9.606
 2477POPC   PO434644   0.813  33.855   9.702
 2477POPC   GL134645   0.566  33.791   9.271
 2477POPC   GL234646   0.388  34.087   9.159
 2477POPC   C1A34647   0.324  33.658   8.855
 2477POPC   D2A34648   0.218  33.438   8.419
 2477POPC   C3A34649   0.425  33.668   8.057
 2477POPC   C4A34650   0.511  33.766   7.607
 2477POPC   C1B34651   0.173  34.148   8.769
 2477POPC   C2B34652   0.146  33.927   8.398
 2477POPC   C3B34653   0.122  34.066   7.963
 2477POPC   C4B34654  44.911  34.319   7.705
 2478POPC   NC334655   7.414   0.478   9.594
 2478POPC   PO434656   7.874   0.003   9.758
 2478POPC   GL134657   7.727   0.215   9.327
 2478POPC   GL234658   7.351   0.123   9.221
 2478POPC   C1A34659   7.606   0.456   8.931
 2478POPC   D2A34660   7.620   0.278   8.527
 2478POPC   C3A34661   7.642   0.498   8.143
 2478POPC   C4A34662   7.593   0.197   7.838
 2478POPC   C1B34663   7.135   0.284   8.826
 2478POPC   C2B34664   7.172   0.517   8.422
 2478POPC   C3B34665   7.144   0.398   8.020
 2478POPC   C4B34666   7.359   0.621   7.706
 2479POPC   NC334667  21.961  41.243   9.817
 2479POPC   PO434668  21.913  40.661   9.528
 2479POPC   GL134669  22.097  40.776   9.174
 2479POPC   GL234670  22.066  41.107   9.244
 2479POPC   C1A34671  22.308  40.786   8.786
 2479POPC   D2A34672  22.341  40.526   8.406
 2479POPC   C3A34673  22.378  40.733   8.028
 2479POPC   C4A34674  22.327  40.684   7.616
 2479POPC   C1B34675  21.887  41.087   8.799
 2479POPC   C2B34676  22.090  41.022   8.386
 2479POPC   C3B34677  21.992  41.121   7.975
 2479POPC   C4B34678  22.018  41.081   7.513
 2480POPC   NC334679   3.700  20.957   9.553
 2480POPC   PO434680   3.115  20.568   9.535
 2480POPC   GL134681   3.306  20.373   9.208
 2480POPC   GL234682   3.648  20.443   9.148
 2480POPC   C1A34683   3.248  20.485   8.790
 2480POPC   D2A34684   3.330  20.665   8.442
 2480POPC   C3A34685   3.035  20.760   8.172
 2480POPC   C4A34686   3.192  20.686   7.779
 2480POPC   C1B34687   3.678  20.201   8.788
 2480POPC   C2B34688   3.753  20.253   8.335
 2480POPC   C3B34689   3.679  20.632   8.069
 2480POPC   C4B34690   3.890  20.689   7.692
 2481POPC   NC334691  42.613  13.392   9.509
 2481POPC   PO434692  42.334  13.992   9.552
 2481POPC   GL134693  42.247  13.714   9.223
 2481POPC   GL234694  42.565  13.680   9.105
 2481POPC   C1A34695  42.189  13.750   8.769
 2481POPC   D2A34696  42.008  13.708   8.370
 2481POPC   C3A34697  42.295  13.882   8.050
 2481POPC   C4A34698  42.517  13.692   7.737
 2481POPC   C1B34699  42.641  13.512   8.688
 2481POPC   C2B34700  42.582  13.479   8.250
 2481POPC   C3B34701  42.877  13.399   7.939
 2481POPC   C4B34702  42.794  13.354   7.466
 2482POPC   NC334703   5.362   8.001   9.617
 2482POPC   PO434704   4.823   8.516   9.666
 2482POPC   GL134705   4.900   8.152   9.351
 2482POPC   GL234706   5.201   8.289   9.232
 2482POPC   C1A34707   4.882   7.867   8.964
 2482POPC   D2A34708   4.940   7.987   8.523
 2482POPC   C3A34709   5.159   7.877   8.186
 2482POPC   C4A34710   4.986   8.011   7.796
 2482POPC   C1B34711   5.297   8.122   8.851
 2482POPC   C2B34712   5.365   8.359   8.492
 2482POPC   C3B34713   5.615   8.213   8.159
 2482POPC   C4B34714   5.468   8.156   7.751
 2483POPC   NC334715   2.030  17.987   9.570
 2483POPC   PO434716   2.199  17.323   9.506
 2483POPC   GL134717   2.191  17.325   9.073
 2483POPC   GL234718   1.846  17.214   9.085
 2483POPC   C1A34719   2.198  17.291   8.602
 2483POPC   D2A34720   2.363  17.589   8.268
 2483POPC   C3A34721   2.226  17.618   7.847
 2483POPC   C4A34722   2.343  17.579   7.351
 2483POPC   C1B34723   1.811  17.584   8.826
 2483POPC   C2B34724   1.820  17.602   8.397
 2483POPC   C3B34725   1.880  17.324   8.074
 2483POPC   C4B34726   1.744  17.500   7.703
 2484POPC   NC334727  23.412  38.279   9.512
 2484POPC   PO434728  23.778  38.811   9.316
 2484POPC   GL134729  23.902  38.434   9.146
 2484POPC   GL234730  23.619  38.257   9.044
 2484POPC   C1A34731  23.984  38.361   8.718
 2484POPC   D2A34732  23.744  38.303   8.363
 2484POPC   C3A34733  23.850  38.406   7.948
 2484POPC   C4A34734  23.548  38.291   7.661
 2484POPC   C1B34735  23.555  38.604   8.743
 2484POPC   C2B34736  23.467  38.751   8.358
 2484POPC   C3B34737  23.301  38.593   7.991
 2484POPC   C4B34738  23.118  38.624   7.594
 2485POPC   NC334739  25.888  43.895   9.445
 2485POPC   PO434740  26.420  43.545   9.581
 2485POPC   GL134741  26.276  43.742   9.166
 2485POPC   GL234742  26.314  44.097   9.166
 2485POPC   C1A34743  25.987  43.881   8.788
 2485POPC   D2A34744  25.983  44.212   8.432
 2485POPC   C3A34745  25.960  44.113   7.961
 2485POPC   C4A34746  25.920  43.683   7.733
 2485POPC   C1B34747  26.434  44.091   8.696
 2485POPC   C2B34748  26.417  44.048   8.249
 2485POPC   C3B34749  26.444  44.134   7.813
 2485POPC   C4B34750  26.271  43.943   7.466
 2486POPC   NC334751   4.141  13.533   9.486
 2486POPC   PO434752   4.605  14.068   9.509
 2486POPC   GL134753   4.465  13.792   9.197
 2486POPC   GL234754   4.108  13.890   9.110
 2486POPC   C1A34755   4.572  13.659   8.808
 2486POPC   D2A34756   4.544  13.810   8.411
 2486POPC   C3A34757   4.530  13.494   8.151
 2486POPC   C4A34758   4.411  13.547   7.787
 2486POPC   C1B34759   4.039  13.620   8.766
 2486POPC   C2B34760   4.064  13.565   8.336
 2486POPC   C3B34761   3.941  13.670   7.945
 2486POPC   C4B34762   3.987  13.551   7.510
 2487POPC   NC334763  44.929  13.613   9.345
 2487POPC   PO434764  44.506  13.206   9.420
 2487POPC   GL134765  44.440  13.495   9.054
 2487POPC   GL234766  44.653  13.787   8.966
 2487POPC   C1A34767  44.430  13.514   8.621
 2487POPC   D2A34768  44.670  13.436   8.257
 2487POPC   C3A34769  44.429  13.609   7.947
 2487POPC   C4A34770  44.145  13.411   7.740
 2487POPC   C1B34771   0.057  13.974   8.811
 2487POPC   C2B34772   0.176  14.124   8.408
 2487POPC   C3B34773  45.000  14.006   8.008
 2487POPC   C4B34774  44.907  13.600   7.805
 2488POPC   NC334775  31.041  20.160   9.215
 2488POPC   PO434776  30.599  19.902   9.629
 2488POPC   GL134777  30.566  19.870   9.195
 2488POPC   GL234778  30.752  19.606   9.135
 2488POPC   C1A34779  30.549  19.988   8.773
 2488POPC   D2A34780  30.517  19.772   8.372
 2488POPC   C3A34781  30.540  20.014   8.034
 2488POPC   C4A34782  30.559  19.862   7.646
 2488POPC   C1B34783  30.912  19.630   8.727
 2488POPC   C2B34784  30.966  19.480   8.335
 2488POPC   C3B34785  30.787  19.535   7.976
 2488POPC   C4B34786  31.020  19.672   7.626
 2489POPC   NC334787  38.549  28.218   9.576
 2489POPC   PO434788  38.309  28.813   9.473
 2489POPC   GL134789  38.474  28.491   9.129
 2489POPC   GL234790  38.495  28.092   9.103
 2489POPC   C1A34791  38.428  28.398   8.685
 2489POPC   D2A34792  38.495  28.569   8.302
 2489POPC   C3A34793  38.338  28.322   7.964
 2489POPC   C4A34794  38.285  28.414   7.502
 2489POPC   C1B34795  38.750  28.025   8.755
 2489POPC   C2B34796  38.603  28.025   8.342
 2489POPC   C3B34797  38.772  27.928   7.952
 2489POPC   C4B34798  38.685  28.142   7.615
 2490POPC   NC334799   7.448  15.563   9.457
 2490POPC   PO434800   7.493  16.245   9.511
 2490POPC   GL134801   7.466  15.994   9.143
 2490POPC   GL234802   7.154  16.160   9.125
 2490POPC   C1A34803   7.554  15.750   8.718
 2490POPC   D2A34804   7.375  15.660   8.289
 2490POPC   C3A34805   7.595  15.663   7.867
 2490POPC   C4A34806   7.534  15.880   7.449
 2490POPC   C1B34807   7.108  15.973   8.669
 2490POPC   C2B34808   6.919  15.944   8.252
 2490POPC   C3B34809   7.139  15.887   7.841
 2490POPC   C4B34810   7.026  15.963   7.379
 2491POPC   NC334811  21.104  11.422   9.429
 2491POPC   PO434812  20.435  11.353   9.409
 2491POPC   GL134813  20.696  11.369   9.063
 2491POPC   GL234814  20.821  11.670   9.092
 2491POPC   C1A34815  20.704  11.297   8.629
 2491POPC   D2A34816  20.583  11.050   8.283
 2491POPC   C3A34817  20.594  11.266   7.887
 2491POPC   C4A34818  20.314  11.286   7.524
 2491POPC   C1B34819  20.906  11.742   8.681
 2491POPC   C2B34820  20.980  11.599   8.271
 2491POPC   C3B34821  20.828  11.738   7.894
 2491POPC   C4B34822  20.680  11.610   7.494
 2492POPC   NC334823  41.603  42.267   9.687
 2492POPC   PO434824  41.452  42.899   9.533
 2492POPC   GL134825  41.316  42.493   9.291
 2492POPC   GL234826  41.629  42.402   9.182
 2492POPC   C1A34827  41.331  42.446   8.796
 2492POPC   D2A34828  41.597  42.545   8.431
 2492POPC   C3A34829  41.367  42.521   8.127
 2492POPC   C4A34830  41.600  42.399   7.853
 2492POPC   C1B34831  41.885  42.406   8.820
 2492POPC   C2B34832  42.015  42.196   8.456
 2492POPC   C3B34833  41.870  42.021   8.062
 2492POPC   C4B34834  41.971  41.780   7.695
 2493POPC   NC334835  24.002  25.870   9.541
 2493POPC   PO434836  23.483  26.353   9.516
 2493POPC   GL134837  23.708  26.081   9.167
 2493POPC   GL234838  23.941  25.796   9.058
 2493POPC   C1A34839  23.566  25.913   8.757
 2493POPC   D2A34840  23.662  26.062   8.364
 2493POPC   C3A34841  23.569  25.807   8.042
 2493POPC   C4A34842  23.801  25.714   7.673
 2493POPC   C1B34843  24.050  26.112   8.747
 2493POPC   C2B34844  24.185  26.164   8.343
 2493POPC   C3B34845  24.025  26.050   7.982
 2493POPC   C4B34846  24.069  26.194   7.626
 2494POPC   NC334847  44.387   7.950   9.382
 2494POPC   PO434848  44.696   7.351   9.685
 2494POPC   GL134849  44.695   7.220   9.256
 2494POPC   GL234850  44.543   7.510   9.209
 2494POPC   C1A34851  44.893   7.349   8.852
 2494POPC   D2A34852  44.884   7.676   8.496
 2494POPC   C3A34853  44.830   7.458   8.110
 2494POPC   C4A34854  44.740   7.603   7.704
 2494POPC   C1B34855  44.462   7.627   8.785
 2494POPC   C2B34856  44.375   7.483   8.366
 2494POPC   C3B34857  44.275   7.483   7.902
 2494POPC   C4B34858  44.063   7.649   7.493
 2495POPC   NC334859   2.300   8.612   9.596
 2495POPC   PO434860   2.909   8.181   9.670
 2495POPC   GL134861   2.932   8.129   9.134
 2495POPC   GL234862   3.064   8.450   8.954
 2495POPC   C1A34863   2.688   8.161   8.751
 2495POPC   D2A34864   2.534   8.084   8.352
 2495POPC   C3A34865   2.743   7.959   7.986
 2495POPC   C4A34866   2.701   7.950   7.526
 2495POPC   C1B34867   3.132   8.344   8.561
 2495POPC   C2B34868   3.028   8.398   8.143
 2495POPC   C3B34869   2.795   8.407   7.751
 2495POPC   C4B34870   2.893   8.365   7.312
 2496POPC   NC334871  37.121   0.860   9.422
 2496POPC   PO434872  36.624   1.234   9.778
 2496POPC   GL134873  36.515   1.413   9.265
 2496POPC   GL234874  36.899   1.325   9.054
 2496POPC   C1A34875  36.461   1.326   8.822
 2496POPC   D2A34876  36.783   1.197   8.522
 2496POPC   C3A34877  36.714   1.186   8.072
 2496POPC   C4A34878  36.821   1.418   7.691
 2496POPC   C1B34879  37.269   1.155   8.776
 2496POPC   C2B34880  37.399   1.214   8.323
 2496POPC   C3B34881  37.230   1.184   7.893
 2496POPC   C4B34882  37.020   0.982   7.524
 2497POPC   NC334883   8.442   8.682   9.443
 2497POPC   PO434884   7.781   8.966   9.465
 2497POPC   GL134885   8.120   9.022   9.198
 2497POPC   GL234886   8.096   8.745   9.056
 2497POPC   C1A34887   8.263   9.177   8.770
 2497POPC   D2A34888   8.028   9.243   8.401
 2497POPC   C3A34889   8.200   9.113   8.044
 2497POPC   C4A34890   7.958   9.144   7.683
 2497POPC   C1B34891   8.447   8.715   8.785
 2497POPC   C2B34892   8.378   8.522   8.396
 2497POPC   C3B34893   8.433   8.666   7.982
 2497POPC   C4B34894   8.631   8.527   7.622
 2498POPC   NC334895  25.015   6.967   9.488
 2498POPC   PO434896  24.907   7.585   9.486
 2498POPC   GL134897  24.664   7.580   9.143
 2498POPC   GL234898  24.578   7.248   9.100
 2498POPC   C1A34899  24.750   7.614   8.718
 2498POPC   D2A34900  24.678   7.460   8.309
 2498POPC   C3A34901  24.740   7.736   7.944
 2498POPC   C4A34902  24.714   7.547   7.519
 2498POPC   C1B34903  24.275   7.469   8.808
 2498POPC   C2B34904  24.169   7.545   8.364
 2498POPC   C3B34905  24.213   7.757   7.965
 2498POPC   C4B34906  24.166   7.601   7.541
 2499POPC   NC334907   3.430  26.284   9.498
 2499POPC   PO434908   3.282  25.685   9.199
 2499POPC   GL134909   3.578  25.875   9.031
 2499POPC   GL234910   3.479  26.218   9.004
 2499POPC   C1A34911   3.550  25.869   8.602
 2499POPC   D2A34912   3.543  26.134   8.291
 2499POPC   C3A34913   3.474  25.928   7.908
 2499POPC   C4A34914   3.660  26.124   7.550
 2499POPC   C1B34915   3.175  26.222   8.672
 2499POPC   C2B34916   3.045  26.128   8.268
 2499POPC   C3B34917   3.241  26.371   7.928
 2499POPC   C4B34918   3.187  26.388   7.519
 2500POPC   NC334919  23.428   3.904   9.690
 2500POPC   PO434920  22.867   3.823   9.328
 2500POPC   GL134921  22.880   3.577   8.983
 2500POPC   GL234922  22.897   3.226   9.073
 2500POPC   C1A34923  22.998   3.723   8.586
 2500POPC   D2A34924  22.945   3.947   8.221
 2500POPC   C3A34925  23.045   3.658   7.894
 2500POPC   C4A34926  22.869   3.567   7.514
 2500POPC   C1B34927  23.077   3.222   8.647
 2500POPC   C2B34928  22.887   3.295   8.238
 2500POPC   C3B34929  22.913   3.137   7.783
 2500POPC   C4B34930  22.996   3.132   7.282
 2501POPC   NC334931  35.884   4.054   9.812
 2501POPC   PO434932  36.273   3.626   9.422
 2501POPC   GL134933  36.187   3.574   9.041
 2501POPC   GL234934  35.895   3.422   9.038
 2501POPC   C1A34935  36.310   3.375   8.679
 2501POPC   D2A34936  36.441   3.399   8.263
 2501POPC   C3A34937  36.113   3.339   7.958
 2501POPC   C4A34938  35.738   3.130   7.909
 2501POPC   C1B34939  35.864   3.671   8.657
 2501POPC   C2B34940  35.743   3.818   8.235
 2501POPC   C3B34941  35.925   3.816   7.850
 2501POPC   C4B34942  36.374   3.778   7.869
 2502POPC   NC334943  41.663  15.693   9.441
 2502POPC   PO434944  41.315  16.263   9.342
 2502POPC   GL134945  41.583  16.040   9.058
 2502POPC   GL234946  41.410  15.714   9.003
 2502POPC   C1A34947  41.461  16.020   8.588
 2502POPC   D2A34948  41.268  16.110   8.184
 2502POPC   C3A34949  41.558  16.090   7.862
 2502POPC   C4A34950  41.549  16.352   7.501
 2502POPC   C1B34951  41.804  15.687   8.773
 2502POPC   C2B34952  41.783  15.665   8.370
 2502POPC   C3B34953  41.424  15.626   8.171
 2502POPC   C4B34954  41.512  15.599   7.776
 2503POPC   NC334955  37.008   5.674   9.788
 2503POPC   PO434956  36.452   5.995   9.511
 2503POPC   GL134957  36.831   5.851   9.338
 2503POPC   GL234958  36.628   5.608   9.186
 2503POPC   C1A34959  37.103   5.697   8.989
 2503POPC   D2A34960  37.180   5.912   8.617
 2503POPC   C3A34961  37.182   5.796   8.158
 2503POPC   C4A34962  37.275   6.085   7.838
 2503POPC   C1B34963  36.644   5.958   8.885
 2503POPC   C2B34964  36.699   5.925   8.501
 2503POPC   C3B34965  36.636   6.021   8.132
 2503POPC   C4B34966  36.799   5.858   7.810
 2504POPC   NC334967   0.311  21.154   9.545
 2504POPC   PO434968   0.841  21.600   9.554
 2504POPC   GL134969   0.660  21.356   9.215
 2504POPC   GL234970   0.295  21.451   9.119
 2504POPC   C1A34971   0.620  21.266   8.771
 2504POPC   D2A34972   0.304  21.420   8.467
 2504POPC   C3A34973   0.378  21.499   8.034
 2504POPC   C4A34974   0.564  21.225   7.731
 2504POPC   C1B34975  44.985  21.267   8.815
 2504POPC   C2B34976  44.873  21.030   8.412
 2504POPC   C3B34977   0.046  21.081   7.984
 2504POPC   C4B34978   0.179  20.984   7.535
 2505POPC   NC334979  39.940  31.914   9.277
 2505POPC   PO434980  39.850  31.319   9.497
 2505POPC   GL134981  39.823  31.426   9.074
 2505POPC   GL234982  40.171  31.506   9.011
 2505POPC   C1A34983  39.885  31.488   8.605
 2505POPC   D2A34984  40.204  31.298   8.320
 2505POPC   C3A34985  39.957  31.167   7.972
 2505POPC   C4A34986  39.714  31.447   7.717
 2505POPC   C1B34987  40.322  31.800   8.728
 2505POPC   C2B34988  40.260  31.832   8.312
 2505POPC   C3B34989  40.066  31.689   7.975
 2505POPC   C4B34990  40.250  31.613   7.591
 2506POPC   NC334991  18.526  13.573   9.607
 2506POPC   PO434992  17.896  13.454   9.748
 2506POPC   GL134993  18.105  13.598   9.306
 2506POPC   GL234994  18.406  13.396   9.143
 2506POPC   C1A34995  18.159  13.728   8.843
 2506POPC   D2A34996  18.081  13.700   8.388
 2506POPC   C3A34997  18.222  13.852   7.974
 2506POPC   C4A34998  18.011  13.886   7.581
 2506POPC   C1B34999  18.425  13.336   8.678
 2506POPC   C2B35000  18.582  13.581   8.322
 2506POPC   C3B35001  18.530  13.426   7.923
 2506POPC   C4B35002  18.334  13.110   7.623
 2507POPC   NC335003  24.984  17.086   9.378
 2507POPC   PO435004  25.466  16.636   9.536
 2507POPC   GL135005  25.399  16.558   9.091
 2507POPC   GL235006  25.034  16.509   9.053
 2507POPC   C1A35007  25.566  16.628   8.673
 2507POPC   D2A35008  25.285  16.668   8.347
 2507POPC   C3A35009  25.392  16.586   7.916
 2507POPC   C4A35010  25.041  16.383   7.716
 2507POPC   C1B35011  24.850  16.673   8.662
 2507POPC   C2B35012  24.828  16.957   8.312
 2507POPC   C3B35013  25.136  17.036   8.013
 2507POPC   C4B35014  25.128  16.901   7.614
 2508POPC   NC335015  10.448  29.021   9.702
 2508POPC   PO435016  10.976  29.219   9.431
 2508POPC   GL135017  10.575  29.169   9.209
 2508POPC   GL235018  10.433  28.845   9.205
 2508POPC   C1A35019  10.494  29.317   8.795
 2508POPC   D2A35020  10.609  29.477   8.420
 2508POPC   C3A35021  10.649  29.187   8.069
 2508POPC   C4A35022  10.638  29.333   7.657
 2508POPC   C1B35023  10.318  28.825   8.774
 2508POPC   C2B35024  10.278  29.026   8.359
 2508POPC   C3B35025  10.195  29.041   7.895
 2508POPC   C4B35026  10.177  29.181   7.482
 2509POPC   NC335027  37.641  41.174   9.549
 2509POPC   PO435028  37.946  41.676   9.902
 2509POPC   GL135029  38.018  41.646   9.386
 2509POPC   GL235030  37.719  41.559   9.178
 2509POPC   C1A35031  38.129  41.470   8.926
 2509POPC   D2A35032  37.794  41.420   8.582
 2509POPC   C3A35033  37.793  41.519   8.116
 2509POPC   C4A35034  37.797  41.588   7.643
 2509POPC   C1B35035  37.432  41.715   8.838
 2509POPC   C2B35036  37.441  41.844   8.407
 2509POPC   C3B35037  37.277  41.599   8.066
 2509POPC   C4B35038  37.412  41.282   7.776
 2510POPC   NC335039  39.351  44.189   9.397
 2510POPC   PO435040  38.942  44.781   9.525
 2510POPC   GL135041  39.000  44.816   9.128
 2510POPC   GL235042  39.286  44.604   9.095
 2510POPC   C1A35043  39.216   0.010   8.806
 2510POPC   D2A35044  39.330  44.719   8.495
 2510POPC   C3A35045  39.327  44.849   8.108
 2510POPC   C4A35046  39.168  44.649   7.782
 2510POPC   C1B35047  38.994  44.415   8.770
 2510POPC   C2B35048  39.078  44.220   8.352
 2510POPC   C3B35049  39.479  44.327   8.134
 2510POPC   C4B35050  39.622  44.460   7.719
 2511POPC   NC335051  27.503  17.007   9.438
 2511POPC   PO435052  27.539  16.384   9.360
 2511POPC   GL135053  27.753  16.699   9.123
 2511POPC   GL235054  27.947  16.607   8.845
 2511POPC   C1A35055  27.704  17.054   8.811
 2511POPC   D2A35056  27.772  16.916   8.398
 2511POPC   C3A35057  27.480  17.017   8.075
 2511POPC   C4A35058  27.605  17.254   7.722
 2511POPC   C1B35059  27.471  16.604   8.708
 2511POPC   C2B35060  27.247  16.492   8.328
 2511POPC   C3B35061  27.373  16.531   7.906
 2511POPC   C4B35062  27.775  16.692   7.780
 2512POPC   NC335063  36.976  32.074   9.578
 2512POPC   PO435064  36.391  32.397   9.499
 2512POPC   GL135065  36.539  32.324   9.094
 2512POPC   GL235066  36.895  32.255   9.081
 2512POPC   C1A35067  36.593  32.113   8.703
 2512POPC   D2A35068  36.754  32.302   8.301
 2512POPC   C3A35069  36.673  32.121   7.924
 2512POPC   C4A35070  36.685  32.296   7.508
 2512POPC   C1B35071  37.097  32.129   8.633
 2512POPC   C2B35072  37.200  32.119   8.158
 2512POPC   C3B35073  37.139  32.097   7.704
 2512POPC   C4B35074  37.119  31.740   7.423
 2513POPC   NC335075  35.458   7.181   9.555
 2513POPC   PO435076  34.907   7.447   9.425
 2513POPC   GL135077  35.247   7.419   9.110
 2513POPC   GL235078  35.539   7.165   9.061
 2513POPC   C1A35079  35.245   7.330   8.675
 2513POPC   D2A35080  35.010   7.233   8.322
 2513POPC   C3A35081  35.294   7.317   7.985
 2513POPC   C4A35082  35.491   7.457   7.628
 2513POPC   C1B35083  35.768   7.343   8.680
 2513POPC   C2B35084  35.775   7.253   8.207
 2513POPC   C3B35085  35.691   6.988   7.826
 2513POPC   C4B35086  35.726   7.125   7.345
 2514POPC   NC335087  25.846  10.434   9.621
 2514POPC   PO435088  26.495  10.605   9.619
 2514POPC   GL135089  26.273  10.582   9.193
 2514POPC   GL235090  25.903  10.668   9.165
 2514POPC   C1A35091  26.209  10.708   8.756
 2514POPC   D2A35092  26.418  10.695   8.363
 2514POPC   C3A35093  26.119  10.705   8.047
 2514POPC   C4A35094  25.806  10.704   7.689
 2514POPC   C1B35095  25.885  10.333   8.856
 2514POPC   C2B35096  26.054  10.324   8.420
 2514POPC   C3B35097  25.900  10.276   7.998
 2514POPC   C4B35098  25.981  10.253   7.547
 2515POPC   NC335099  18.871  39.020   9.426
 2515POPC   PO435100  19.478  39.413   9.411
 2515POPC   GL135101  19.204  39.252   9.108
 2515POPC   GL235102  18.981  39.512   9.141
 2515POPC   C1A35103  19.199  39.116   8.670
 2515POPC   D2A35104  19.172  39.415   8.301
 2515POPC   C3A35105  19.404  39.293   7.934
 2515POPC   C4A35106  19.431  38.988   7.620
 2515POPC   C1B35107  18.843  39.483   8.748
 2515POPC   C2B35108  18.744  39.178   8.427
 2515POPC   C3B35109  18.842  39.081   8.008
 2515POPC   C4B35110  18.951  39.415   7.736
 2516POPC   NC335111   0.669  36.146   9.522
 2516POPC   PO435112   1.304  36.208   9.470
 2516POPC   GL135113   1.017  36.225   9.103
 2516POPC   GL235114   1.309  36.237   8.894
 2516POPC   C1A35115   0.883  36.465   8.712
 2516POPC   D2A35116   0.761  36.453   8.262
 2516POPC   C3A35117   1.121  36.348   8.008
 2516POPC   C4A35118   1.254  35.946   7.800
 2516POPC   C1B35119   1.444  36.523   8.551
 2516POPC   C2B35120   1.518  36.666   8.115
 2516POPC   C3B35121   1.635  36.312   7.832
 2516POPC   C4B35122   2.013  36.206   7.581
 2517POPC   NC335123  35.649   8.705   9.614
 2517POPC   PO435124  36.260   8.965   9.918
 2517POPC   GL135125  36.158   8.831   9.397
 2517POPC   GL235126  35.835   8.689   9.151
 2517POPC   C1A35127  36.210   8.897   8.905
 2517POPC   D2A35128  35.866   8.925   8.572
 2517POPC   C3A35129  35.990   9.086   8.179
 2517POPC   C4A35130  36.330   9.188   7.883
 2517POPC   C1B35131  35.894   8.450   8.747
 2517POPC   C2B35132  36.158   8.481   8.345
 2517POPC   C3B35133  36.230   8.685   7.939
 2517POPC   C4B35134  36.061   8.681   7.488
 2518POPC   NC335135   1.288  11.541   9.850
 2518POPC   PO435136   1.454  11.031   9.430
 2518POPC   GL135137   1.515  11.162   9.061
 2518POPC   GL235138   1.166  11.230   9.075
 2518POPC   C1A35139   1.428  11.368   8.674
 2518POPC   D2A35140   1.245  11.425   8.296
 2518POPC   C3A35141   1.465  11.286   7.929
 2518POPC   C4A35142   1.486  11.026   7.594
 2518POPC   C1B35143   0.900  11.301   8.766
 2518POPC   C2B35144   0.797  11.119   8.408
 2518POPC   C3B35145   0.846  11.273   8.016
 2518POPC   C4B35146   0.931  11.047   7.670
 2519POPC   NC335147  15.730  21.941   9.661
 2519POPC   PO435148  16.258  22.322   9.633
 2519POPC   GL135149  15.977  22.221   9.264
 2519POPC   GL235150  15.641  22.250   9.252
 2519POPC   C1A35151  15.792  22.412   8.808
 2519POPC   D2A35152  15.781  22.625   8.437
 2519POPC   C3A35153  15.899  22.403   8.070
 2519POPC   C4A35154  15.907  22.370   7.647
 2519POPC   C1B35155  15.834  21.933   8.889
 2519POPC   C2B35156  15.703  21.969   8.481
 2519POPC   C3B35157  15.713  21.922   8.057
 2519POPC   C4B35158  16.038  21.909   7.791
 2520POPC   NC335159  21.465  24.477  10.215
 2520POPC   PO435160  21.443  24.344   9.548
 2520POPC   GL135161  21.490  24.314   9.145
 2520POPC   GL235162  21.312  24.593   9.118
 2520POPC   C1A35163  21.372  24.125   8.762
 2520POPC   D2A35164  21.520  24.097   8.351
 2520POPC   C3A35165  21.179  24.214   8.060
 2520POPC   C4A35166  21.232  24.542   7.764
 2520POPC   C1B35167  21.486  24.621   8.703
 2520POPC   C2B35168  21.279  24.639   8.326
 2520POPC   C3B35169  21.293  24.970   8.053
 2520POPC   C4B35170  21.605  24.893   7.746
 2521POPC   NC335171  17.097  19.981   9.615
 2521POPC   PO435172  16.513  19.705   9.660
 2521POPC   GL135173  16.774  19.720   9.274
 2521POPC   GL235174  16.790  20.067   9.215
 2521POPC   C1A35175  16.666  19.756   8.830
 2521POPC   D2A35176  16.497  19.776   8.434
 2521POPC   C3A35177  16.680  19.763   8.035
 2521POPC   C4A35178  16.568  19.914   7.648
 2521POPC   C1B35179  16.971  20.157   8.815
 2521POPC   C2B35180  16.944  20.008   8.417
 2521POPC   C3B35181  16.895  20.205   8.039
 2521POPC   C4B35182  17.061  20.091   7.644
 2522POPC   NC335183  40.137  42.009   9.341
 2522POPC   PO435184  39.875  41.409   9.422
 2522POPC   GL135185  40.038  41.591   9.055
 2522POPC   GL235186  40.326  41.427   8.940
 2522POPC   C1A35187  40.009  41.663   8.624
 2522POPC   D2A35188  40.145  41.898   8.281
 2522POPC   C3A35189  40.103  41.650   7.921
 2522POPC   C4A35190  40.000  41.774   7.536
 2522POPC   C1B35191  40.277  41.194   8.648
 2522POPC   C2B35192  40.207  41.295   8.282
 2522POPC   C3B35193  40.256  41.128   7.924
 2522POPC   C4B35194  40.101  41.256   7.576
 2523POPC   NC335195  40.202   1.709   9.419
 2523POPC   PO435196  40.205   0.954   9.514
 2523POPC   GL135197  39.951   1.176   9.190
 2523POPC   GL235198  39.605   1.311   9.132
 2523POPC   C1A35199  39.842   0.974   8.804
 2523POPC   D2A35200  40.056   1.051   8.413
 2523POPC   C3A35201  39.824   0.934   8.073
 2523POPC   C4A35202  40.089   0.878   7.759
 2523POPC   C1B35203  39.875   1.514   8.785
 2523POPC   C2B35204  40.120   1.628   8.420
 2523POPC   C3B35205  40.356   1.650   8.043
 2523POPC   C4B35206  40.283   1.371   7.756
 2524POPC   NC335207  18.280   5.404   9.838
 2524POPC   PO435208  18.144   5.996   9.525
 2524POPC   GL135209  18.014   6.046   9.129
 2524POPC   GL235210  18.357   6.048   9.032
 2524POPC   C1A35211  17.906   5.881   8.719
 2524POPC   D2A35212  17.813   6.057   8.305
 2524POPC   C3A35213  18.091   5.999   7.962
 2524POPC   C4A35214  17.978   5.561   7.871
 2524POPC   C1B35215  18.667   6.121   8.701
 2524POPC   C2B35216  18.720   5.888   8.353
 2524POPC   C3B35217  18.460   5.670   8.078
 2524POPC   C4B35218  18.390   5.728   7.642
 2525POPC   NC335219  33.540   9.145   9.505
 2525POPC   PO435220  33.668   8.494   9.464
 2525POPC   GL135221  33.676   8.816   9.154
 2525POPC   GL235222  33.934   9.065   9.182
 2525POPC   C1A35223  33.561   9.080   8.810
 2525POPC   D2A35224  33.801   9.011   8.464
 2525POPC   C3A35225  33.589   9.063   8.102
 2525POPC   C4A35226  33.525   8.810   7.750
 2525POPC   C1B35227  34.171   9.140   8.823
 2525POPC   C2B35228  34.328   8.982   8.446
 2525POPC   C3B35229  34.142   9.193   8.124
 2525POPC   C4B35230  33.974   9.074   7.742
 2526POPC   NC335231  10.799  24.097   9.404
 2526POPC   PO435232  10.288  23.637   9.453
 2526POPC   GL135233  10.380  23.503   9.067
 2526POPC   GL235234  10.673  23.690   9.095
 2526POPC   C1A35235  10.509  23.559   8.623
 2526POPC   D2A35236  10.355  23.841   8.306
 2526POPC   C3A35237  10.304  23.765   7.908
 2526POPC   C4A35238  10.478  23.429   7.779
 2526POPC   C1B35239  10.873  23.937   8.791
 2526POPC   C2B35240  10.859  23.885   8.399
 2526POPC   C3B35241  10.798  23.708   8.033
 2526POPC   C4B35242  10.713  23.848   7.596
 2527POPC   NC335243  10.173  12.162   9.687
 2527POPC   PO435244   9.608  11.761   9.777
 2527POPC   GL135245   9.779  11.962   9.370
 2527POPC   GL235246   9.866  11.700   9.141
 2527POPC   C1A35247   9.889  12.183   8.944
 2527POPC   D2A35248  10.060  12.034   8.525
 2527POPC   C3A35249   9.919  12.141   8.088
 2527POPC   C4A35250   9.591  12.183   7.755
 2527POPC   C1B35251   9.616  11.792   8.747
 2527POPC   C2B35252   9.435  11.942   8.360
 2527POPC   C3B35253   9.453  11.756   7.973
 2527POPC   C4B35254   9.523  11.612   7.584
 2528POPC   NC335255  36.471  28.789   9.563
 2528POPC   PO435256  35.907  29.073   9.616
 2528POPC   GL135257  36.037  28.913   9.206
 2528POPC   GL235258  36.194  28.594   9.184
 2528POPC   C1A35259  35.905  28.921   8.792
 2528POPC   D2A35260  35.899  29.203   8.470
 2528POPC   C3A35261  35.900  29.016   8.076
 2528POPC   C4A35262  36.224  29.192   7.832
 2528POPC   C1B35263  36.402  28.591   8.838
 2528POPC   C2B35264  36.251  28.736   8.458
 2528POPC   C3B35265  36.225  28.616   8.057
 2528POPC   C4B35266  36.324  28.718   7.662
 2529POPC   NC335267  38.370  41.759   9.775
 2529POPC   PO435268  38.911  41.419   9.688
 2529POPC   GL135269  38.669  41.399   9.285
 2529POPC   GL235270  38.505  41.735   9.219
 2529POPC   C1A35271  38.645  41.382   8.820
 2529POPC   D2A35272  38.737  41.596   8.441
 2529POPC   C3A35273  38.679  41.454   8.014
 2529POPC   C4A35274  38.375  41.478   7.676
 2529POPC   C1B35275  38.424  41.865   8.768
 2529POPC   C2B35276  38.233  41.710   8.368
 2529POPC   C3B35277  38.132  41.853   7.929
 2529POPC   C4B35278  38.158  41.938   7.485
 2530POPC   NC335279  37.174  24.825   9.379
 2530POPC   PO435280  36.894  24.290   9.767
 2530POPC   GL135281  36.755  24.424   9.327
 2530POPC   GL235282  36.744  24.111   9.150
 2530POPC   C1A35283  36.769  24.508   8.847
 2530POPC   D2A35284  37.109  24.567   8.503
 2530POPC   C3A35285  37.040  24.678   8.079
 2530POPC   C4A35286  36.677  24.644   7.825
 2530POPC   C1B35287  36.626  24.020   8.727
 2530POPC   C2B35288  36.519  24.125   8.287
 2530POPC   C3B35289  36.819  24.162   7.939
 2530POPC   C4B35290  36.731  24.233   7.461
 2531POPC   NC335291  15.228  21.193   9.698
 2531POPC   PO435292  15.233  20.578   9.424
 2531POPC   GL135293  14.974  20.482   9.101
 2531POPC   GL235294  14.877  20.808   9.090
 2531POPC   C1A35295  14.808  20.321   8.741
 2531POPC   D2A35296  14.994  20.406   8.361
 2531POPC   C3A35297  14.996  20.280   7.941
 2531POPC   C4A35298  15.412  20.370   7.810
 2531POPC   C1B35299  14.972  20.840   8.671
 2531POPC   C2B35300  14.716  21.049   8.362
 2531POPC   C3B35301  14.891  20.812   8.081
 2531POPC   C4B35302  15.129  20.782   7.793
 2532POPC   NC335303  41.247  10.229   9.384
 2532POPC   PO435304  41.853  10.534   9.539
 2532POPC   GL135305  41.592  10.615   9.148
 2532POPC   GL235306  41.258  10.655   9.099
 2532POPC   C1A35307  41.748  10.566   8.715
 2532POPC   D2A35308  41.965  10.596   8.339
 2532POPC   C3A35309  41.664  10.378   8.096
 2532POPC   C4A35310  41.566  10.267   7.700
 2532POPC   C1B35311  41.128  10.885   8.728
 2532POPC   C2B35312  41.329  11.049   8.336
 2532POPC   C3B35313  41.451  10.868   7.981
 2532POPC   C4B35314  41.300  10.829   7.564
 2533POPC   NC335315  41.027  12.117   9.526
 2533POPC   PO435316  40.669  12.736   9.551
 2533POPC   GL135317  40.780  12.399   9.178
 2533POPC   GL235318  41.155  12.396   9.123
 2533POPC   C1A35319  40.727  12.091   8.808
 2533POPC   D2A35320  40.463  11.867   8.479
 2533POPC   C3A35321  40.455  12.047   8.052
 2533POPC   C4A35322  40.765  11.960   7.721
 2533POPC   C1B35323  41.166  12.329   8.704
 2533POPC   C2B35324  40.945  12.331   8.325
 2533POPC   C3B35325  41.125  12.274   7.912
 2533POPC   C4B35326  40.986  12.368   7.473
 2534POPC   NC335327  19.589  14.141   9.312
 2534POPC   PO435328  19.692  14.787   9.502
 2534POPC   GL135329  19.807  14.612   9.113
 2534POPC   GL235330  20.033  14.359   9.125
 2534POPC   C1A35331  19.670  14.436   8.713
 2534POPC   D2A35332  19.482  14.394   8.267
 2534POPC   C3A35333  19.618  14.516   7.844
 2534POPC   C4A35334  20.041  14.402   7.696
 2534POPC   C1B35335  20.039  14.073   8.759
 2534POPC   C2B35336  19.979  14.225   8.327
 2534POPC   C3B35337  19.779  14.057   7.968
 2534POPC   C4B35338  19.792  14.015   7.518
 2535POPC   NC335339  27.556  30.408   9.519
 2535POPC   PO435340  27.991  30.816   9.186
 2535POPC   GL135341  27.555  30.735   9.083
 2535POPC   GL235342  27.579  30.402   9.008
 2535POPC   C1A35343  27.358  30.676   8.647
 2535POPC   D2A35344  27.640  30.910   8.359
 2535POPC   C3A35345  27.614  30.720   7.981
 2535POPC   C4A35346  27.393  30.780   7.619
 2535POPC   C1B35347  27.845  30.491   8.635
 2535POPC   C2B35348  28.023  30.416   8.226
 2535POPC   C3B35349  27.978  30.381   7.772
 2535POPC   C4B35350  28.157  30.432   7.346
 2536POPC   NC335351  27.862   5.659   9.628
 2536POPC   PO435352  27.436   6.008   9.224
 2536POPC   GL135353  27.582   5.681   8.996
 2536POPC   GL235354  27.898   5.665   9.105
 2536POPC   C1A35355  27.618   5.637   8.554
 2536POPC   D2A35356  27.551   6.028   8.349
 2536POPC   C3A35357  27.357   5.972   7.954
 2536POPC   C4A35358  27.470   5.681   7.610
 2536POPC   C1B35359  28.035   5.859   8.727
 2536POPC   C2B35360  28.027   5.849   8.281
 2536POPC   C3B35361  27.858   5.913   7.879
 2536POPC   C4B35362  27.928   5.809   7.416
 2537POPC   NC335363   1.032  16.571   9.508
 2537POPC   PO435364   1.519  17.022   9.449
 2537POPC   GL135365   1.394  16.801   9.107
 2537POPC   GL235366   1.036  16.891   9.071
 2537POPC   C1A35367   1.327  16.754   8.671
 2537POPC   D2A35368   1.036  16.831   8.366
 2537POPC   C3A35369   1.321  16.804   8.033
 2537POPC   C4A35370   1.543  16.499   7.764
 2537POPC   C1B35371   1.004  16.439   8.888
 2537POPC   C2B35372   0.918  16.307   8.465
 2537POPC   C3B35373   0.939  16.401   8.049
 2537POPC   C4B35374   0.970  16.653   7.711
 2538POPC   NC335375   9.828  20.629   9.746
 2538POPC   PO435376  10.207  20.954   9.254
 2538POPC   GL135377   9.904  20.759   8.996
 2538POPC   GL235378   9.657  20.627   9.178
 2538POPC   C1A35379   9.863  20.493   8.629
 2538POPC   D2A35380  10.018  20.636   8.255
 2538POPC   C3A35381   9.841  20.619   7.883
 2538POPC   C4A35382   9.817  20.991   7.630
 2538POPC   C1B35383   9.404  20.402   8.812
 2538POPC   C2B35384   9.369  20.526   8.342
 2538POPC   C3B35385   9.329  20.434   7.866
 2538POPC   C4B35386   9.261  20.315   7.412
 2539POPC   NC335387  29.960  37.605   9.832
 2539POPC   PO435388  29.530  37.751   9.374
 2539POPC   GL135389  29.788  37.601   9.046
 2539POPC   GL235390  29.530  37.453   8.939
 2539POPC   C1A35391  30.118  37.521   8.715
 2539POPC   D2A35392  30.419  37.696   8.377
 2539POPC   C3A35393  30.309  37.700   7.961
 2539POPC   C4A35394  30.029  37.451   7.771
 2539POPC   C1B35395  29.527  37.656   8.562
 2539POPC   C2B35396  29.432  37.672   8.123
 2539POPC   C3B35397  29.528  37.650   7.686
 2539POPC   C4B35398  29.449  37.848   7.275
 2540POPC   NC335399  44.131   7.004   9.460
 2540POPC   PO435400  44.021   7.647   9.415
 2540POPC   GL135401  44.040   7.498   9.046
 2540POPC   GL235402  44.199   7.208   9.003
 2540POPC   C1A35403  43.965   7.589   8.652
 2540POPC   D2A35404  43.671   7.496   8.352
 2540POPC   C3A35405  43.764   7.546   7.907
 2540POPC   C4A35406  43.546   7.536   7.496
 2540POPC   C1B35407  44.005   7.093   8.622
 2540POPC   C2B35408  44.002   7.136   8.177
 2540POPC   C3B35409  43.727   6.974   7.847
 2540POPC   C4B35410  43.468   6.942   7.452
 2541POPC   NC335411   1.648  24.613   9.354
 2541POPC   PO435412   1.156  24.185   9.451
 2541POPC   GL135413   1.260  24.405   9.115
 2541POPC   GL235414   1.067  24.710   9.188
 2541POPC   C1A35415   1.481  24.360   8.722
 2541POPC   D2A35416   1.392  24.110   8.364
 2541POPC   C3A35417   1.053  24.289   8.259
 2541POPC   C4A35418   1.016  24.606   7.923
 2541POPC   C1B35419   1.305  24.822   8.811
 2541POPC   C2B35420   1.264  24.723   8.397
 2541POPC   C3B35421   1.506  24.561   8.099
 2541POPC   C4B35422   1.523  24.524   7.685
 2542POPC   NC335423  34.014  18.133   9.396
 2542POPC   PO435424  33.423  18.453   9.397
 2542POPC   GL135425  33.589  18.200   9.108
 2542POPC   GL235426  33.827  18.456   9.051
 2542POPC   C1A35427  33.586  17.946   8.760
 2542POPC   D2A35428  33.435  18.002   8.352
 2542POPC   C3A35429  33.699  18.167   8.004
 2542POPC   C4A35430  33.615  18.410   7.646
 2542POPC   C1B35431  34.016  18.265   8.711
 2542POPC   C2B35432  34.044  18.391   8.289
 2542POPC   C3B35433  34.175  18.369   7.840
 2542POPC   C4B35434  34.064  18.201   7.416
 2543POPC   NC335435   0.226  41.142   9.415
 2543POPC   PO435436   0.444  41.776   9.461
 2543POPC   GL135437   0.406  41.560   9.079
 2543POPC   GL235438   0.035  41.502   9.083
 2543POPC   C1A35439   0.628  41.605   8.666
 2543POPC   D2A35440   0.543  41.376   8.276
 2543POPC   C3A35441   0.605  41.492   7.851
 2543POPC   C4A35442   0.718  41.829   7.558
 2543POPC   C1B35443   0.150  41.331   8.659
 2543POPC   C2B35444   0.033  41.314   8.213
 2543POPC   C3B35445   0.128  41.308   7.768
 2543POPC   C4B35446   0.179  41.207   7.311
 2544POPC   NC335447  43.655   7.913   9.462
 2544POPC   PO435448  44.200   8.109   9.798
 2544POPC   GL135449  43.985   8.278   9.318
 2544POPC   GL235450  43.987   8.017   9.065
 2544POPC   C1A35451  43.861   8.434   8.824
 2544POPC   D2A35452  43.829   8.319   8.363
 2544POPC   C3A35453  43.568   8.468   8.037
 2544POPC   C4A35454  43.659   8.636   7.621
 2544POPC   C1B35455  44.158   8.047   8.660
 2544POPC   C2B35456  44.060   7.875   8.247
 2544POPC   C3B35457  43.943   8.063   7.892
 2544POPC   C4B35458  43.976   8.216   7.500
 2545POPC   NC335459  28.921  36.007   9.474
 2545POPC   PO435460  29.587  36.010   9.464
 2545POPC   GL135461  29.328  35.895   9.105
 2545POPC   GL235462  28.950  35.827   9.002
 2545POPC   C1A35463  29.280  36.117   8.732
 2545POPC   D2A35464  29.238  36.409   8.423
 2545POPC   C3A35465  29.357  36.293   8.000
 2545POPC   C4A35466  29.261  36.329   7.545
 2545POPC   C1B35467  28.795  36.254   8.876
 2545POPC   C2B35468  28.676  36.461   8.493
 2545POPC   C3B35469  28.854  36.336   8.100
 2545POPC   C4B35470  28.663  36.213   7.738
 2546POPC   NC335471   0.337  19.366   9.326
 2546POPC   PO435472   0.026  18.963   9.738
 2546POPC   GL135473   0.550  18.973   9.158
 2546POPC   GL235474   0.788  19.355   9.095
 2546POPC   C1A35475   0.531  19.114   8.735
 2546POPC   D2A35476   0.273  19.251   8.422
 2546POPC   C3A35477   0.206  19.065   8.043
 2546POPC   C4A35478   0.304  19.195   7.620
 2546POPC   C1B35479   0.959  19.422   8.673
 2546POPC   C2B35480   0.802  19.156   8.300
 2546POPC   C3B35481   0.717  19.002   7.879
 2546POPC   C4B35482   0.799  19.250   7.514
 2547POPC   NC335483   8.679  27.712   9.631
 2547POPC   PO435484   9.298  27.435   9.732
 2547POPC   GL135485   9.130  27.626   9.300
 2547POPC   GL235486   8.829  27.815   9.170
 2547POPC   C1A35487   9.056  27.464   8.879
 2547POPC   D2A35488   9.247  27.546   8.484
 2547POPC   C3A35489   8.997  27.438   8.152
 2547POPC   C4A35490   9.139  27.465   7.728
 2547POPC   C1B35491   8.670  28.045   8.810
 2547POPC   C2B35492   8.797  27.884   8.386
 2547POPC   C3B35493   8.852  27.898   7.942
 2547POPC   C4B35494   8.855  27.827   7.493
 2548POPC   NC335495  26.432  39.760   9.462
 2548POPC   PO435496  25.844  40.072   9.673
 2548POPC   GL135497  25.990  39.923   9.234
 2548POPC   GL235498  26.214  39.710   9.004
 2548POPC   C1A35499  25.967  40.151   8.844
 2548POPC   D2A35500  25.944  40.217   8.385
 2548POPC   C3A35501  25.729  39.880   8.138
 2548POPC   C4A35502  25.702  39.902   7.701
 2548POPC   C1B35503  26.336  39.898   8.565
 2548POPC   C2B35504  26.239  39.886   8.125
 2548POPC   C3B35505  26.197  39.934   7.684
 2548POPC   C4B35506  26.169  40.266   7.375
 2549POPC   NC335507  30.260  33.564   9.516
 2549POPC   PO435508  29.787  34.067   9.520
 2549POPC   GL135509  30.000  33.967   9.174
 2549POPC   GL235510  29.878  33.647   9.163
 2549POPC   C1A35511  30.009  34.157   8.763
 2549POPC   D2A35512  29.844  34.012   8.375
 2549POPC   C3A35513  30.100  33.969   8.042
 2549POPC   C4A35514  30.122  34.134   7.674
 2549POPC   C1B35515  29.833  33.373   8.819
 2549POPC   C2B35516  29.918  33.491   8.393
 2549POPC   C3B35517  30.094  33.414   8.013
 2549POPC   C4B35518  30.034  33.414   7.600
 2550POPC   NC335519   5.392   2.835   9.514
 2550POPC   PO435520   4.767   2.503   9.734
 2550POPC   GL135521   4.981   2.520   9.307
 2550POPC   GL235522   5.058   2.873   9.129
 2550POPC   C1A35523   4.962   2.456   8.851
 2550POPC   D2A35524   4.709   2.701   8.539
 2550POPC   C3A35525   4.957   2.802   8.164
 2550POPC   C4A35526   5.228   2.506   7.881
 2550POPC   C1B35527   5.184   2.879   8.662
 2550POPC   C2B35528   5.364   3.103   8.263
 2550POPC   C3B35529   5.282   3.013   7.798
 2550POPC   C4B35530   5.304   3.172   7.326
 2551POPC   NC335531  39.457  32.561   9.522
 2551POPC   PO435532  39.399  31.868   9.630
 2551POPC   GL135533  39.249  32.154   9.284
 2551POPC   GL235534  39.581  32.244   9.144
 2551POPC   C1A35535  39.179  32.348   8.863
 2551POPC   D2A35536  39.192  32.134   8.473
 2551POPC   C3A35537  39.157  32.268   8.059
 2551POPC   C4A35538  39.090  32.512   7.703
 2551POPC   C1B35539  39.465  31.904   8.841
 2551POPC   C2B35540  39.459  31.722   8.411
 2551POPC   C3B35541  39.503  31.870   7.990
 2551POPC   C4B35542  39.694  32.017   7.625
 2552POPC   NC335543  40.352  24.834   9.543
 2552POPC   PO435544  40.961  24.501   9.432
 2552POPC   GL135545  40.650  24.634   9.186
 2552POPC   GL235546  40.638  24.339   9.020
 2552POPC   C1A35547  40.684  24.794   8.796
 2552POPC   D2A35548  40.816  24.567   8.451
 2552POPC   C3A35549  40.525  24.472   8.105
 2552POPC   C4A35550  40.742  24.408   7.708
 2552POPC   C1B35551  40.543  24.162   8.637
 2552POPC   C2B35552  40.811  24.082   8.283
 2552POPC   C3B35553  40.964  23.973   7.885
 2552POPC   C4B35554  40.733  23.948   7.495
 2553POPC   NC335555  22.398  17.072   9.390
 2553POPC   PO435556  21.977  17.520   9.694
 2553POPC   GL135557  22.129  17.510   9.225
 2553POPC   GL235558  22.432  17.726   9.233
 2553POPC   C1A35559  22.043  17.389   8.749
 2553POPC   D2A35560  21.965  17.561   8.301
 2553POPC   C3A35561  21.962  17.352   7.869
 2553POPC   C4A35562  21.927  17.511   7.412
 2553POPC   C1B35563  22.535  17.544   8.846
 2553POPC   C2B35564  22.445  17.467   8.425
 2553POPC   C3B35565  22.519  17.513   7.988
 2553POPC   C4B35566  22.391  17.440   7.560
 2554POPC   NC335567  11.181  28.791   9.422
 2554POPC   PO435568  11.524  29.398   9.520
 2554POPC   GL135569  11.350  29.403   9.101
 2554POPC   GL235570  10.974  29.432   8.985
 2554POPC   C1A35571  11.279  29.186   8.705
 2554POPC   D2A35572  11.083  29.258   8.347
 2554POPC   C3A35573  11.411  29.422   8.106
 2554POPC   C4A35574  11.641  29.228   7.768
 2554POPC   C1B35575  10.842  28.957   8.814
 2554POPC   C2B35576  10.769  28.755   8.396
 2554POPC   C3B35577  10.936  28.767   7.956
 2554POPC   C4B35578  11.102  29.143   7.832
 2555POPC   NC335579  11.859   7.232   9.327
 2555POPC   PO435580  12.304   7.727   9.429
 2555POPC   GL135581  12.150   7.580   9.064
 2555POPC   GL235582  11.831   7.734   9.032
 2555POPC   C1A35583  12.339   7.387   8.684
 2555POPC   D2A35584  12.307   7.133   8.330
 2555POPC   C3A35585  12.406   7.318   8.000
 2555POPC   C4A35586  12.249   7.400   7.615
 2555POPC   C1B35587  11.835   7.479   8.670
 2555POPC   C2B35588  11.959   7.496   8.240
 2555POPC   C3B35589  11.908   7.185   7.929
 2555POPC   C4B35590  11.854   7.143   7.453
 2556POPC   NC335591  19.706  42.929   9.450
 2556POPC   PO435592  20.401  43.077   9.472
 2556POPC   GL135593  20.011  43.173   9.141
 2556POPC   GL235594  19.823  42.881   8.948
 2556POPC   C1A35595  19.734  43.342   8.797
 2556POPC   D2A35596  19.790  43.486   8.380
 2556POPC   C3A35597  19.997  43.167   8.125
 2556POPC   C4A35598  19.857  42.834   7.849
 2556POPC   C1B35599  19.449  42.915   8.725
 2556POPC   C2B35600  19.510  43.046   8.309
 2556POPC   C3B35601  19.358  42.911   7.916
 2556POPC   C4B35602  19.528  42.901   7.475
 2557POPC   NC335603  12.567  39.930  10.031
 2557POPC   PO435604  12.892  40.013   9.554
 2557POPC   GL135605  12.772  39.989   9.109
 2557POPC   GL235606  13.001  39.727   9.045
 2557POPC   C1A35607  12.884  40.037   8.626
 2557POPC   D2A35608  12.743  40.172   8.192
 2557POPC   C3A35609  12.985  40.038   7.828
 2557POPC   C4A35610  13.338  40.124   7.531
 2557POPC   C1B35611  12.626  39.637   8.779
 2557POPC   C2B35612  12.505  39.755   8.356
 2557POPC   C3B35613  12.505  39.792   7.902
 2557POPC   C4B35614  12.736  39.716   7.511
 2558POPC   NC335615  21.673  22.663   9.933
 2558POPC   PO435616  22.112  22.964   9.479
 2558POPC   GL135617  22.178  22.847   9.085
 2558POPC   GL235618  22.329  22.500   9.149
 2558POPC   C1A35619  22.099  23.035   8.691
 2558POPC   D2A35620  21.890  23.021   8.295
 2558POPC   C3A35621  22.148  23.087   7.915
 2558POPC   C4A35622  22.185  23.202   7.469
 2558POPC   C1B35623  22.365  22.584   8.694
 2558POPC   C2B35624  22.362  22.782   8.316
 2558POPC   C3B35625  22.486  22.688   7.934
 2558POPC   C4B35626  22.262  22.699   7.584
 2559POPC   NC335627  33.122  22.361   9.558
 2559POPC   PO435628  32.857  21.807   9.395
 2559POPC   GL135629  32.892  22.136   9.144
 2559POPC   GL235630  33.282  22.210   9.107
 2559POPC   C1A35631  32.945  22.045   8.741
 2559POPC   D2A35632  33.267  21.961   8.508
 2559POPC   C3A35633  33.043  21.863   8.180
 2559POPC   C4A35634  33.125  21.925   7.787
 2559POPC   C1B35635  33.242  22.461   8.731
 2559POPC   C2B35636  33.004  22.385   8.357
 2559POPC   C3B35637  33.137  22.410   7.944
 2559POPC   C4B35638  33.434  22.481   7.634
 2560POPC   NC335639  39.024  39.938   9.321
 2560POPC   PO435640  38.629  40.361   9.720
 2560POPC   GL135641  38.493  40.105   9.365
 2560POPC   GL235642  38.684  40.219   9.082
 2560POPC   C1A35643  38.259  39.969   8.970
 2560POPC   D2A35644  38.284  39.812   8.528
 2560POPC   C3A35645  38.477  40.076   8.202
 2560POPC   C4A35646  38.300  40.062   7.792
 2560POPC   C1B35647  38.730  40.007   8.679
 2560POPC   C2B35648  38.781  39.676   8.350
 2560POPC   C3B35649  38.685  39.705   7.886
 2560POPC   C4B35650  38.771  39.525   7.477
 2561POPC   NC335651  44.700  34.621   9.500
 2561POPC   PO435652  44.869  34.112   9.907
 2561POPC   GL135653  44.519  34.216   9.308
 2561POPC   GL235654  44.455  34.574   9.093
 2561POPC   C1A35655  44.690  34.282   8.795
 2561POPC   D2A35656  44.792  34.268   8.363
 2561POPC   C3A35657  44.809  34.572   8.146
 2561POPC   C4A35658  44.502  34.550   7.890
 2561POPC   C1B35659  44.627  34.846   8.797
 2561POPC   C2B35660  44.551  35.058   8.408
 2561POPC   C3B35661  44.615  35.031   7.996
 2561POPC   C4B35662  44.886  34.837   7.699
 2562POPC   NC335663  34.202  43.373   9.377
 2562POPC   PO435664  33.772  42.932   9.629
 2562POPC   GL135665  33.710  43.122   9.220
 2562POPC   GL235666  33.630  42.768   9.159
 2562POPC   C1A35667  33.845  43.343   8.790
 2562POPC   D2A35668  33.923  43.131   8.367
 2562POPC   C3A35669  33.784  43.337   7.993
 2562POPC   C4A35670  33.946  43.261   7.584
 2562POPC   C1B35671  33.638  42.893   8.757
 2562POPC   C2B35672  33.457  42.918   8.381
 2562POPC   C3B35673  33.587  42.837   8.026
 2562POPC   C4B35674  33.513  42.988   7.643
 2563POPC   NC335675  15.092  24.293   9.450
 2563POPC   PO435676  14.734  24.888   9.342
 2563POPC   GL135677  15.018  24.694   9.020
 2563POPC   GL235678  15.073  24.358   8.957
 2563POPC   C1A35679  15.054  24.667   8.550
 2563POPC   D2A35680  15.364  24.643   8.232
 2563POPC   C3A35681  15.216  24.592   7.839
 2563POPC   C4A35682  14.999  24.416   7.486
 2563POPC   C1B35683  15.161  24.024   8.616
 2563POPC   C2B35684  15.107  24.194   8.216
 2563POPC   C3B35685  14.783  24.502   8.100
 2563POPC   C4B35686  14.728  24.784   7.755
 2564POPC   NC335687  18.436   6.362   9.596
 2564POPC   PO435688  18.042   6.976   9.694
 2564POPC   GL135689  18.165   6.746   9.317
 2564POPC   GL235690  18.325   7.005   9.193
 2564POPC   C1A35691  18.403   6.552   8.941
 2564POPC   D2A35692  18.197   6.303   8.592
 2564POPC   C3A35693  18.434   6.312   8.226
 2564POPC   C4A35694  18.370   6.452   7.815
 2564POPC   C1B35695  18.235   7.032   8.784
 2564POPC   C2B35696  18.364   6.780   8.473
 2564POPC   C3B35697  18.176   6.817   8.102
 2564POPC   C4B35698  18.105   7.015   7.728
 2565POPC   NC335699  37.989  16.972   9.580
 2565POPC   PO435700  37.557  16.507   9.347
 2565POPC   GL135701  37.806  16.729   9.112
 2565POPC   GL235702  37.659  17.036   9.173
 2565POPC   C1A35703  37.703  16.728   8.687
 2565POPC   D2A35704  37.687  16.646   8.275
 2565POPC   C3A35705  37.319  16.745   8.015
 2565POPC   C4A35706  37.490  16.703   7.576
 2565POPC   C1B35707  37.415  17.134   8.817
 2565POPC   C2B35708  37.478  17.126   8.365
 2565POPC   C3B35709  37.671  17.084   7.951
 2565POPC   C4B35710  37.845  17.090   7.522
 2566POPC   NC335711  43.243  40.694   9.371
 2566POPC   PO435712  42.602  41.023   9.384
 2566POPC   GL135713  42.792  40.733   9.127
 2566POPC   GL235714  43.018  41.035   9.032
 2566POPC   C1A35715  42.934  40.646   8.717
 2566POPC   D2A35716  42.696  40.782   8.396
 2566POPC   C3A35717  42.901  40.696   8.045
 2566POPC   C4A35718  42.969  41.008   7.731
 2566POPC   C1B35719  43.374  40.899   8.737
 2566POPC   C2B35720  43.372  40.735   8.305
 2566POPC   C3B35721  43.443  40.997   7.931
 2566POPC   C4B35722  43.411  41.027   7.480
 2567POPC   NC335723   8.006   3.665   9.437
 2567POPC   PO435724   8.701   4.007   9.497
 2567POPC   GL135725   8.399   3.867   9.181
 2567POPC   GL235726   8.533   3.601   8.943
 2567POPC   C1A35727   8.143   3.908   8.795
 2567POPC   D2A35728   8.364   3.692   8.473
 2567POPC   C3A35729   8.377   3.771   8.041
 2567POPC   C4A35730   8.086   3.704   7.716
 2567POPC   C1B35731   8.295   3.261   8.744
 2567POPC   C2B35732   8.047   3.078   8.445
 2567POPC   C3B35733   8.093   3.136   8.008
 2567POPC   C4B35734   8.195   3.190   7.582
 2568POPC   NC335735  31.013  33.307   9.409
 2568POPC   PO435736  30.617  33.892   9.483
 2568POPC   GL135737  30.768  33.694   9.152
 2568POPC   GL235738  30.441  33.665   9.059
 2568POPC   C1A35739  30.973  33.669   8.761
 2568POPC   D2A35740  31.127  33.417   8.434
 2568POPC   C3A35741  31.035  33.632   8.062
 2568POPC   C4A35742  30.956  33.869   7.691
 2568POPC   C1B35743  30.208  33.698   8.774
 2568POPC   C2B35744  30.340  33.814   8.454
 2568POPC   C3B35745  30.528  33.646   8.156
 2568POPC   C4B35746  30.435  33.721   7.713
 2569POPC   NC335747  33.949  24.617   9.807
 2569POPC   PO435748  33.986  24.310   9.230
 2569POPC   GL135749  33.742  24.530   8.925
 2569POPC   GL235750  33.420  24.727   9.026
 2569POPC   C1A35751  33.879  24.823   8.654
 2569POPC   D2A35752  33.758  24.884   8.257
 2569POPC   C3A35753  33.825  24.512   8.033
 2569POPC   C4A35754  33.980  24.412   7.646
 2569POPC   C1B35755  33.363  24.798   8.612
 2569POPC   C2B35756  33.252  24.850   8.211
 2569POPC   C3B35757  33.448  24.790   7.849
 2569POPC   C4B35758  33.477  24.407   7.636
 2570POPC   NC335759  40.191  25.513   9.175
 2570POPC   PO435760  39.944  26.166   9.464
 2570POPC   GL135761  40.142  26.004   9.068
 2570POPC   GL235762  39.894  25.741   8.826
 2570POPC   C1A35763  40.294  25.975   8.640
 2570POPC   D2A35764  39.995  25.871   8.299
 2570POPC   C3A35765  40.204  25.919   7.919
 2570POPC   C4A35766  40.262  26.339   7.814
 2570POPC   C1B35767  39.823  26.200   8.726
 2570POPC   C2B35768  39.751  26.424   8.355
 2570POPC   C3B35769  39.777  26.279   7.947
 2570POPC   C4B35770  39.749  25.923   7.669
 2571POPC   NC335771  10.556  40.823   9.492
 2571POPC   PO435772   9.908  40.644   9.675
 2571POPC   GL135773  10.215  40.559   9.223
 2571POPC   GL235774  10.578  40.533   9.099
 2571POPC   C1A35775  10.154  40.754   8.828
 2571POPC   D2A35776  10.301  41.061   8.555
 2571POPC   C3A35777  10.353  40.941   8.122
 2571POPC   C4A35778  10.485  40.643   7.809
 2571POPC   C1B35779  10.674  40.700   8.719
 2571POPC   C2B35780  10.808  40.707   8.299
 2571POPC   C3B35781  10.837  40.970   7.929
 2571POPC   C4B35782  10.754  40.960   7.473
 2572POPC   NC335783  30.155  30.542   9.467
 2572POPC   PO435784  29.507  30.422   9.448
 2572POPC   GL135785  29.640  30.674   9.107
 2572POPC   GL235786  29.998  30.778   9.028
 2572POPC   C1A35787  29.694  30.564   8.679
 2572POPC   D2A35788  30.018  30.767   8.434
 2572POPC   C3A35789  29.896  30.661   8.028
 2572POPC   C4A35790  29.542  30.534   7.700
 2572POPC   C1B35791  30.194  31.112   8.783
 2572POPC   C2B35792  30.119  31.333   8.410
 2572POPC   C3B35793  30.025  31.183   8.012
 2572POPC   C4B35794  29.795  30.995   7.680
 2573POPC   NC335795   9.388   8.554   9.315
 2573POPC   PO435796   9.256   7.975   9.554
 2573POPC   GL135797   9.578   8.093   9.208
 2573POPC   GL235798   9.875   8.395   9.177
 2573POPC   C1A35799   9.752   8.068   8.802
 2573POPC   D2A35800   9.577   8.246   8.463
 2573POPC   C3A35801   9.661   7.980   8.155
 2573POPC   C4A35802   9.568   8.095   7.759
 2573POPC   C1B35803  10.179   8.377   8.791
 2573POPC   C2B35804  10.089   8.190   8.378
 2573POPC   C3B35805  10.001   8.295   7.937
 2573POPC   C4B35806  10.167   8.249   7.496
 2574POPC   NC335807   5.804  11.448   9.499
 2574POPC   PO435808   6.431  11.176   9.297
 2574POPC   GL135809   6.047  11.176   9.106
 2574POPC   GL235810   5.884  10.962   9.327
 2574POPC   C1A35811   5.868  11.344   8.711
 2574POPC   D2A35812   6.004  11.371   8.270
 2574POPC   C3A35813   5.980  11.685   7.937
 2574POPC   C4A35814   6.002  11.693   7.481
 2574POPC   C1B35815   5.631  10.914   8.944
 2574POPC   C2B35816   5.645  10.755   8.537
 2574POPC   C3B35817   5.698  10.897   8.126
 2574POPC   C4B35818   5.712  11.245   7.866
 2575POPC   NC335819  18.812   2.237   9.299
 2575POPC   PO435820  19.095   2.827   9.640
 2575POPC   GL135821  18.933   2.941   9.199
 2575POPC   GL235822  19.052   2.653   9.136
 2575POPC   C1A35823  18.830   2.903   8.762
 2575POPC   D2A35824  18.856   3.078   8.370
 2575POPC   C3A35825  18.865   2.743   8.075
 2575POPC   C4A35826  18.961   2.781   7.672
 2575POPC   C1B35827  19.319   2.850   8.812
 2575POPC   C2B35828  19.266   2.752   8.386
 2575POPC   C3B35829  19.397   2.828   7.960
 2575POPC   C4B35830  19.426   2.640   7.540
 2576POPC   NC335831  41.926  42.971   9.495
 2576POPC   PO435832  42.474  43.383   9.494
 2576POPC   GL135833  42.201  43.301   9.185
 2576POPC   GL235834  42.414  42.991   9.125
 2576POPC   C1A35835  42.115  43.200   8.783
 2576POPC   D2A35836  42.389  43.071   8.446
 2576POPC   C3A35837  42.213  43.132   8.030
 2576POPC   C4A35838  42.127  42.885   7.675
 2576POPC   C1B35839  42.617  43.342   8.855
 2576POPC   C2B35840  42.611  43.576   8.465
 2576POPC   C3B35841  42.674  43.346   8.105
 2576POPC   C4B35842  42.598  43.236   7.693
 2577POPC   NC335843  43.188   1.470   9.397
 2577POPC   PO435844  42.853   0.922   9.520
 2577POPC   GL135845  42.837   1.091   9.138
 2577POPC   GL235846  43.198   1.048   9.081
 2577POPC   C1A35847  42.876   1.348   8.770
 2577POPC   D2A35848  43.095   1.176   8.415
 2577POPC   C3A35849  42.995   1.321   8.000
 2577POPC   C4A35850  43.127   0.973   7.722
 2577POPC   C1B35851  43.402   1.359   8.799
 2577POPC   C2B35852  43.599   1.354   8.422
 2577POPC   C3B35853  43.473   1.438   8.020
 2577POPC   C4B35854  43.614   1.600   7.645
 2578POPC   NC335855  36.864  15.303   9.586
 2578POPC   PO435856  36.935  15.934   9.547
 2578POPC   GL135857  37.030  15.850   9.140
 2578POPC   GL235858  36.797  15.603   9.066
 2578POPC   C1A35859  36.918  16.078   8.764
 2578POPC   D2A35860  36.809  15.997   8.344
 2578POPC   C3A35861  37.151  15.770   8.173
 2578POPC   C4A35862  37.264  15.915   7.785
 2578POPC   C1B35863  36.798  15.529   8.624
 2578POPC   C2B35864  36.555  15.549   8.238
 2578POPC   C3B35865  36.734  15.720   7.868
 2578POPC   C4B35866  36.788  16.155   7.814
 2579POPC   NC335867  13.703  38.099   9.447
 2579POPC   PO435868  13.593  38.742   9.381
 2579POPC   GL135869  13.704  38.590   8.999
 2579POPC   GL235870  13.713  38.283   8.980
 2579POPC   C1A35871  13.772  38.682   8.584
 2579POPC   D2A35872  13.453  38.586   8.315
 2579POPC   C3A35873  13.499  38.672   7.886
 2579POPC   C4A35874  13.791  38.728   7.540
 2579POPC   C1B35875  14.005  38.229   8.668
 2579POPC   C2B35876  13.834  38.242   8.289
 2579POPC   C3B35877  13.546  38.166   7.996
 2579POPC   C4B35878  13.648  38.255   7.593
 2580POPC   NC335879  16.263  16.967   9.826
 2580POPC   PO435880  16.149  17.672   9.650
 2580POPC   GL135881  16.118  17.626   9.180
 2580POPC   GL235882  16.141  17.287   9.039
 2580POPC   C1A35883  16.023  17.701   8.721
 2580POPC   D2A35884  16.132  17.764   8.294
 2580POPC   C3A35885  15.984  17.511   7.966
 2580POPC   C4A35886  15.871  17.193   7.679
 2580POPC   C1B35887  15.783  17.245   8.771
 2580POPC   C2B35888  15.693  17.387   8.350
 2580POPC   C3B35889  15.479  17.492   7.923
 2580POPC   C4B35890  15.534  17.499   7.451
 2581POPC   NC335891   8.461  37.675   9.604
 2581POPC   PO435892   7.848  37.380   9.358
 2581POPC   GL135893   7.997  37.596   9.044
 2581POPC   GL235894   8.275  37.682   9.143
 2581POPC   C1A35895   8.024  37.717   8.649
 2581POPC   D2A35896   8.022  37.848   8.248
 2581POPC   C3A35897   8.306  37.693   7.918
 2581POPC   C4A35898   8.217  37.462   7.515
 2581POPC   C1B35899   8.511  37.548   8.819
 2581POPC   C2B35900   8.510  37.792   8.451
 2581POPC   C3B35901   8.483  38.142   8.178
 2581POPC   C4B35902   8.695  38.080   7.829
 2582POPC   NC335903  33.248   8.043   9.480
 2582POPC   PO435904  32.768   8.415   9.263
 2582POPC   GL135905  33.051   8.223   9.014
 2582POPC   GL235906  33.448   8.240   9.072
 2582POPC   C1A35907  32.978   8.305   8.575
 2582POPC   D2A35908  33.140   8.122   8.211
 2582POPC   C3A35909  32.844   8.081   7.907
 2582POPC   C4A35910  32.570   8.431   7.862
 2582POPC   C1B35911  33.409   8.059   8.680
 2582POPC   C2B35912  33.625   8.270   8.369
 2582POPC   C3B35913  33.512   8.345   7.961
 2582POPC   C4B35914  33.344   7.980   7.741
 2583POPC   NC335915   5.815  22.700   9.433
 2583POPC   PO435916   6.005  23.306   9.392
 2583POPC   GL135917   5.749  23.068   9.065
 2583POPC   GL235918   5.563  22.728   8.998
 2583POPC   C1A35919   5.915  22.956   8.674
 2583POPC   D2A35920   6.018  23.179   8.323
 2583POPC   C3A35921   6.023  22.902   8.028
 2583POPC   C4A35922   5.938  22.823   7.614
 2583POPC   C1B35923   5.396  22.939   8.671
 2583POPC   C2B35924   5.533  22.936   8.270
 2583POPC   C3B35925   5.495  22.864   7.843
 2583POPC   C4B35926   5.417  23.124   7.481
 2584POPC   NC335927  42.028  36.302   9.579
 2584POPC   PO435928  41.463  35.956   9.727
 2584POPC   GL135929  41.554  35.902   9.274
 2584POPC   GL235930  41.441  36.246   9.156
 2584POPC   C1A35931  41.753  35.983   8.846
 2584POPC   D2A35932  41.601  36.306   8.553
 2584POPC   C3A35933  41.593  36.267   8.083
 2584POPC   C4A35934  41.777  36.067   7.711
 2584POPC   C1B35935  41.248  35.931   8.852
 2584POPC   C2B35936  41.191  35.733   8.456
 2584POPC   C3B35937  41.274  35.845   8.037
 2584POPC   C4B35938  41.144  36.085   7.682
 2585POPC   NC335939  18.992   0.817   9.522
 2585POPC   PO435940  18.622   0.256   9.490
 2585POPC   GL135941  18.916   0.468   9.160
 2585POPC   GL235942  19.260   0.661   9.113
 2585POPC   C1A35943  18.881   0.574   8.736
 2585POPC   D2A35944  18.855   0.309   8.365
 2585POPC   C3A35945  18.934   0.472   7.953
 2585POPC   C4A35946  18.980   0.347   7.513
 2585POPC   C1B35947  19.290   0.873   8.691
 2585POPC   C2B35948  19.114   0.800   8.299
 2585POPC   C3B35949  19.325   0.792   7.896
 2585POPC   C4B35950  19.411   0.572   7.523
 2586POPC   NC335951  18.733   3.187   9.601
 2586POPC   PO435952  18.081   3.303   9.552
 2586POPC   GL135953  18.159   3.385   9.144
 2586POPC   GL235954  18.530   3.292   9.146
 2586POPC   C1A35955  18.240   3.686   8.798
 2586POPC   D2A35956  18.499   3.665   8.432
 2586POPC   C3A35957  18.316   3.730   8.024
 2586POPC   C4A35958  18.520   3.599   7.677
 2586POPC   C1B35959  18.430   3.207   8.731
 2586POPC   C2B35960  18.136   3.291   8.456
 2586POPC   C3B35961  18.122   3.270   8.049
 2586POPC   C4B35962  18.001   3.225   7.652
 2587POPC   NC335963   1.052  42.673   9.388
 2587POPC   PO435964   1.335  42.034   9.391
 2587POPC   GL135965   1.246  42.165   9.019
 2587POPC   GL235966   0.905  42.255   9.070
 2587POPC   C1A35967   1.414  42.269   8.613
 2587POPC   D2A35968   1.328  42.580   8.298
 2587POPC   C3A35969   1.475  42.411   7.933
 2587POPC   C4A35970   1.478  41.979   8.016
 2587POPC   C1B35971   0.914  42.056   8.633
 2587POPC   C2B35972   0.989  42.134   8.192
 2587POPC   C3B35973   0.945  42.529   7.949
 2587POPC   C4B35974   1.080  42.897   7.748
 2588POPC   NC335975   2.249  19.713   9.397
 2588POPC   PO435976   1.701  19.445   9.498
 2588POPC   GL135977   1.824  19.754   9.088
 2588POPC   GL235978   2.158  20.003   8.987
 2588POPC   C1A35979   1.887  19.780   8.641
 2588POPC   D2A35980   2.056  20.028   8.343
 2588POPC   C3A35981   2.056  19.759   7.982
 2588POPC   C4A35982   2.384  19.553   7.729
 2588POPC   C1B35983   1.770  20.239   8.823
 2588POPC   C2B35984   1.535  20.152   8.467
 2588POPC   C3B35985   1.672  20.164   8.039
 2588POPC   C4B35986   1.954  20.138   7.683
 2589POPC   NC335987  28.992  10.911   9.505
 2589POPC   PO435988  29.456  10.446   9.406
 2589POPC   GL135989  29.103  10.402   9.151
 2589POPC   GL235990  28.907  10.660   9.034
 2589POPC   C1A35991  28.972  10.173   8.794
 2589POPC   D2A35992  28.869  10.138   8.350
 2589POPC   C3A35993  29.053  10.490   8.081
 2589POPC   C4A35994  29.008  10.569   7.615
 2589POPC   C1B35995  29.195  10.674   8.670
 2589POPC   C2B35996  29.242  10.926   8.280
 2589POPC   C3B35997  29.378  10.867   7.834
 2589POPC   C4B35998  29.322  10.913   7.347
 2590POPC   NC335999  37.894   7.704   9.592
 2590POPC   PO436000  37.339   7.295   9.530
 2590POPC   GL136001  37.613   7.472   9.243
 2590POPC   GL236002  37.866   7.265   9.298
 2590POPC   C1A36003  37.723   7.667   8.848
 2590POPC   D2A36004  37.592   7.656   8.409
 2590POPC   C3A36005  37.783   7.444   8.064
 2590POPC   C4A36006  37.670   7.556   7.657
 2590POPC   C1B36007  37.804   7.169   8.863
 2590POPC   C2B36008  37.648   7.117   8.448
 2590POPC   C3B36009  37.921   6.942   8.100
 2590POPC   C4B36010  38.136   7.154   7.702
 2591POPC   NC336011   4.550  38.748   9.780
 2591POPC   PO436012   5.136  38.409   9.598
 2591POPC   GL136013   5.135  38.484   9.210
 2591POPC   GL236014   4.863  38.739   9.173
 2591POPC   C1A36015   5.227  38.265   8.861
 2591POPC   D2A36016   5.103  38.453   8.482
 2591POPC   C3A36017   5.228  38.259   8.111
 2591POPC   C4A36018   5.103  38.362   7.721
 2591POPC   C1B36019   4.743  38.768   8.708
 2591POPC   C2B36020   4.752  38.764   8.238
 2591POPC   C3B36021   4.816  38.801   7.785
 2591POPC   C4B36022   4.781  38.952   7.320
 2592POPC   NC336023  37.413  12.995   9.434
 2592POPC   PO436024  38.017  12.883   9.405
 2592POPC   GL136025  37.773  12.801   9.082
 2592POPC   GL236026  37.564  12.518   9.126
 2592POPC   C1A36027  37.555  13.018   8.790
 2592POPC   D2A36028  37.501  13.176   8.373
 2592POPC   C3A36029  37.783  13.030   8.090
 2592POPC   C4A36030  37.738  12.911   7.664
 2592POPC   C1B36031  37.705  12.482   8.679
 2592POPC   C2B36032  37.536  12.609   8.246
 2592POPC   C3B36033  37.734  12.452   7.832
 2592POPC   C4B36034  37.737  12.544   7.319
 2593POPC   NC336035  28.338  25.831   9.594
 2593POPC   PO436036  27.947  26.414   9.552
 2593POPC   GL136037  28.089  26.078   9.215
 2593POPC   GL236038  28.494  26.074   9.176
 2593POPC   C1A36039  28.217  25.919   8.794
 2593POPC   D2A36040  28.405  25.763   8.393
 2593POPC   C3A36041  28.184  25.907   8.012
 2593POPC   C4A36042  28.176  26.290   7.791
 2593POPC   C1B36043  28.555  26.314   8.782
 2593POPC   C2B36044  28.376  26.283   8.361
 2593POPC   C3B36045  28.628  26.219   7.982
 2593POPC   C4B36046  28.574  26.009   7.589
 2594POPC   NC336047  24.994  14.508   9.585
 2594POPC   PO436048  25.483  14.105   9.470
 2594POPC   GL136049  25.295  14.319   9.183
 2594POPC   GL236050  25.051  14.178   9.010
 2594POPC   C1A36051  25.446  14.426   8.771
 2594POPC   D2A36052  25.459  14.256   8.376
 2594POPC   C3A36053  25.327  14.490   8.059
 2594POPC   C4A36054  25.398  14.297   7.698
 2594POPC   C1B36055  24.998  14.622   8.882
 2594POPC   C2B36056  25.124  14.773   8.486
 2594POPC   C3B36057  24.859  14.746   8.135
 2594POPC   C4B36058  24.884  14.444   7.796
 2595POPC   NC336059  19.913   0.114   9.590
 2595POPC   PO436060  20.102   0.669   9.372
 2595POPC   GL136061  19.800   0.639   9.006
 2595POPC   GL236062  19.642   0.312   9.073
 2595POPC   C1A36063  19.906   0.405   8.592
 2595POPC   D2A36064  20.226   0.144   8.302
 2595POPC   C3A36065  20.128   0.228   7.865
 2595POPC   C4A36066  19.744   0.464   7.881
 2595POPC   C1B36067  19.384   0.377   8.679
 2595POPC   C2B36068  19.358   0.346   8.225
 2595POPC   C3B36069  19.338   0.141   7.824
 2595POPC   C4B36070  19.575   0.038   7.430
 2596POPC   NC336071  28.361   3.975   9.569
 2596POPC   PO436072  28.338   3.310   9.624
 2596POPC   GL136073  28.419   3.592   9.228
 2596POPC   GL236074  28.240   3.912   9.091
 2596POPC   C1A36075  28.607   3.552   8.823
 2596POPC   D2A36076  28.761   3.245   8.529
 2596POPC   C3A36077  28.579   3.330   8.146
 2596POPC   C4A36078  28.556   3.601   7.780
 2596POPC   C1B36079  28.151   3.754   8.684
 2596POPC   C2B36080  28.343   3.784   8.276
 2596POPC   C3B36081  28.114   3.872   7.889
 2596POPC   C4B36082  28.033   3.788   7.418
 2597POPC   NC336083  40.181  17.688  10.117
 2597POPC   PO436084  39.973  17.815   9.598
 2597POPC   GL136085  39.988  17.617   9.135
 2597POPC   GL236086  39.647  17.487   9.066
 2597POPC   C1A36087  40.059  17.530   8.659
 2597POPC   D2A36088  39.949  17.177   8.332
 2597POPC   C3A36089  39.780  17.244   7.928
 2597POPC   C4A36090  39.961  17.462   7.538
 2597POPC   C1B36091  39.591  17.360   8.634
 2597POPC   C2B36092  39.709  17.629   8.276
 2597POPC   C3B36093  39.690  17.742   7.861
 2597POPC   C4B36094  39.435  17.475   7.593
 2598POPC   NC336095   9.375  24.785   9.442
 2598POPC   PO436096   9.519  24.139   9.540
 2598POPC   GL136097   9.185  24.198   9.195
 2598POPC   GL236098   8.831  24.323   9.216
 2598POPC   C1A36099   9.084  24.393   8.778
 2598POPC   D2A36100   9.095  24.290   8.337
 2598POPC   C3A36101   8.874  24.529   8.048
 2598POPC   C4A36102   8.978  24.598   7.642
 2598POPC   C1B36103   8.536  24.207   8.853
 2598POPC   C2B36104   8.602  24.273   8.415
 2598POPC   C3B36105   8.474  24.228   7.971
 2598POPC   C4B36106   8.540  24.264   7.524
 2599POPC   NC336107  24.788   4.149   9.356
 2599POPC   PO436108  24.336   4.611   9.495
 2599POPC   GL136109  24.345   4.327   9.137
 2599POPC   GL236110  24.605   4.522   9.034
 2599POPC   C1A36111  24.463   4.094   8.723
 2599POPC   D2A36112  24.318   4.181   8.267
 2599POPC   C3A36113  24.460   3.964   7.922
 2599POPC   C4A36114  24.310   4.070   7.474
 2599POPC   C1B36115  24.259   4.765   8.852
 2599POPC   C2B36116  24.090   4.829   8.433
 2599POPC   C3B36117  24.255   4.668   8.051
 2599POPC   C4B36118  24.509   4.451   7.770
 2600POPC   NC336119  35.275  29.348   9.571
 2600POPC   PO436120  35.308  28.725   9.310
 2600POPC   GL136121  35.489  29.046   9.100
 2600POPC   GL236122  35.195  29.257   9.092
 2600POPC   C1A36123  35.430  29.205   8.672
 2600POPC   D2A36124  35.422  29.088   8.277
 2600POPC   C3A36125  35.421  29.337   7.942
 2600POPC   C4A36126  35.722  29.248   7.636
 2600POPC   C1B36127  34.961  29.427   8.766
 2600POPC   C2B36128  35.076  29.479   8.355
 2600POPC   C3B36129  34.896  29.393   7.997
 2600POPC   C4B36130  35.087  29.404   7.571
 2601POPC   NC336131  36.144  33.403   9.507
 2601POPC   PO436132  36.018  34.071   9.370
 2601POPC   GL136133  36.197  33.775   9.074
 2601POPC   GL236134  36.069  33.437   9.018
 2601POPC   C1A36135  36.160  33.726   8.620
 2601POPC   D2A36136  35.814  33.872   8.386
 2601POPC   C3A36137  35.810  33.674   8.019
 2601POPC   C4A36138  35.831  33.824   7.632
 2601POPC   C1B36139  36.299  33.200   8.723
 2601POPC   C2B36140  36.468  33.279   8.329
 2601POPC   C3B36141  36.279  33.525   8.026
 2601POPC   C4B36142  36.323  33.704   7.577
 2602POPC   NC336143  33.987  13.470   9.447
 2602POPC   PO436144  33.476  13.801   9.389
 2602POPC   GL136145  33.786  13.794   9.077
 2602POPC   GL236146  33.723  13.457   9.014
 2602POPC   C1A36147  33.983  13.898   8.667
 2602POPC   D2A36148  33.978  13.713   8.218
 2602POPC   C3A36149  33.773  13.833   7.857
 2602POPC   C4A36150  33.473  13.562   7.862
 2602POPC   C1B36151  33.741  13.451   8.579
 2602POPC   C2B36152  33.748  13.249   8.182
 2602POPC   C3B36153  33.919  13.227   7.791
 2602POPC   C4B36154  33.898  13.371   7.370
 2603POPC   NC336155  13.597  39.144   9.590
 2603POPC   PO436156  13.795  39.703   9.260
 2603POPC   GL136157  13.541  39.282   9.117
 2603POPC   GL236158  13.814  39.083   9.019
 2603POPC   C1A36159  13.394  38.976   8.744
 2603POPC   D2A36160  13.572  39.064   8.288
 2603POPC   C3A36161  13.327  39.157   7.920
 2603POPC   C4A36162  13.488  39.216   7.485
 2603POPC   C1B36163  13.698  39.383   8.666
 2603POPC   C2B36164  13.835  39.507   8.295
 2603POPC   C3B36165  13.736  39.479   7.887
 2603POPC   C4B36166  13.760  39.680   7.485
 2604POPC   NC336167  41.358   8.603   9.423
 2604POPC   PO436168  41.907   8.888   9.773
 2604POPC   GL136169  41.771   8.983   9.264
 2604POPC   GL236170  41.453   8.971   9.078
 2604POPC   C1A36171  41.861   8.990   8.755
 2604POPC   D2A36172  41.715   8.858   8.309
 2604POPC   C3A36173  41.369   9.071   8.078
 2604POPC   C4A36174  41.456   9.363   7.731
 2604POPC   C1B36175  41.355   8.732   8.702
 2604POPC   C2B36176  41.096   8.661   8.327
 2604POPC   C3B36177  41.089   8.602   7.926
 2604POPC   C4B36178  41.446   8.710   7.707
 2605POPC   NC336179  28.239  34.564   9.723
 2605POPC   PO436180  28.808  34.875   9.544
 2605POPC   GL136181  28.489  34.542   9.268
 2605POPC   GL236182  28.078  34.584   9.237
 2605POPC   C1A36183  28.329  34.389   8.843
 2605POPC   D2A36184  28.254  34.348   8.410
 2605POPC   C3A36185  28.429  34.641   8.118
 2605POPC   C4A36186  28.396  34.496   7.747
 2605POPC   C1B36187  28.038  34.810   8.825
 2605POPC   C2B36188  28.058  34.862   8.404
 2605POPC   C3B36189  27.937  34.577   8.064
 2605POPC   C4B36190  27.898  34.483   7.643
 2606POPC   NC336191  22.691   9.889   9.999
 2606POPC   PO436192  22.867   9.692   9.604
 2606POPC   GL136193  22.805   9.558   9.159
 2606POPC   GL236194  22.590   9.818   9.017
 2606POPC   C1A36195  22.871   9.557   8.676
 2606POPC   D2A36196  23.112   9.853   8.410
 2606POPC   C3A36197  23.279   9.808   7.982
 2606POPC   C4A36198  23.272   9.649   7.541
 2606POPC   C1B36199  22.726  10.081   8.648
 2606POPC   C2B36200  22.520  10.228   8.265
 2606POPC   C3B36201  22.529  10.190   7.789
 2606POPC   C4B36202  22.714  10.324   7.367
 2607POPC   NC336203  32.690  16.899   9.546
 2607POPC   PO436204  33.305  16.839   9.398
 2607POPC   GL136205  33.006  16.786   9.120
 2607POPC   GL236206  33.084  16.432   9.102
 2607POPC   C1A36207  32.997  16.859   8.691
 2607POPC   D2A36208  32.822  16.790   8.304
 2607POPC   C3A36209  33.123  16.608   8.010
 2607POPC   C4A36210  33.234  16.768   7.554
 2607POPC   C1B36211  32.718  16.463   8.837
 2607POPC   C2B36212  32.576  16.335   8.418
 2607POPC   C3B36213  32.637  16.423   7.995
 2607POPC   C4B36214  32.808  16.531   7.626
 2608POPC   NC336215  10.402  28.113   9.981
 2608POPC   PO436216  10.649  28.602   9.659
 2608POPC   GL136217  10.723  28.410   9.219
 2608POPC   GL236218  10.505  28.097   9.161
 2608POPC   C1A36219  10.642  28.378   8.749
 2608POPC   D2A36220  10.318  28.455   8.414
 2608POPC   C3A36221  10.453  28.604   8.019
 2608POPC   C4A36222  10.680  28.341   7.742
 2608POPC   C1B36223  10.229  28.029   8.787
 2608POPC   C2B36224  10.313  27.942   8.353
 2608POPC   C3B36225  10.230  28.141   7.975
 2608POPC   C4B36226  10.306  28.002   7.575
 2609POPC   NC336227  19.329  21.997   9.479
 2609POPC   PO436228  19.659  22.551   9.415
 2609POPC   GL136229  19.305  22.513   9.147
 2609POPC   GL236230  19.159  22.173   9.037
 2609POPC   C1A36231  19.128  22.583   8.750
 2609POPC   D2A36232  19.194  22.329   8.447
 2609POPC   C3A36233  19.151  22.440   8.037
 2609POPC   C4A36234  19.147  22.328   7.621
 2609POPC   C1B36235  18.898  21.976   8.712
 2609POPC   C2B36236  18.976  21.889   8.282
 2609POPC   C3B36237  19.061  21.879   7.840
 2609POPC   C4B36238  19.066  21.905   7.352
 2610POPC   NC336239  31.011  19.194   9.337
 2610POPC   PO436240  31.437  19.380   9.792
 2610POPC   GL136241  31.501  19.158   9.273
 2610POPC   GL236242  31.478  19.319   9.035
 2610POPC   C1A36243  31.523  18.872   8.830
 2610POPC   D2A36244  31.242  18.844   8.444
 2610POPC   C3A36245  31.408  18.834   7.991
 2610POPC   C4A36246  31.104  18.714   7.672
 2610POPC   C1B36247  31.321  19.318   8.661
 2610POPC   C2B36248  31.488  19.248   8.270
 2610POPC   C3B36249  31.344  19.364   7.867
 2610POPC   C4B36250  31.609  19.532   7.507
 2611POPC   NC336251   6.788  22.536   9.273
 2611POPC   PO436252   6.810  23.152   9.418
 2611POPC   GL136253   6.637  22.998   9.079
 2611POPC   GL236254   6.280  23.032   9.064
 2611POPC   C1A36255   6.595  23.143   8.681
 2611POPC   D2A36256   6.496  23.021   8.310
 2611POPC   C3A36257   6.866  23.055   8.082
 2611POPC   C4A36258   7.149  23.323   7.858
 2611POPC   C1B36259   6.361  22.687   8.747
 2611POPC   C2B36260   6.342  22.510   8.319
 2611POPC   C3B36261   6.497  22.700   7.929
 2611POPC   C4B36262   6.424  23.131   7.801
 2612POPC   NC336263  11.703  32.002   9.303
 2612POPC   PO436264  11.171  32.095   9.626
 2612POPC   GL136265  11.262  32.318   9.214
 2612POPC   GL236266  11.554  32.518   9.165
 2612POPC   C1A36267  11.336  32.263   8.750
 2612POPC   D2A36268  11.612  32.134   8.375
 2612POPC   C3A36269  11.460  32.214   7.948
 2612POPC   C4A36270  11.375  31.914   7.582
 2612POPC   C1B36271  11.543  32.756   8.796
 2612POPC   C2B36272  11.450  32.627   8.391
 2612POPC   C3B36273  11.672  32.696   8.032
 2612POPC   C4B36274  11.668  32.537   7.622
 2613POPC   NC336275   6.375   2.734   9.361
 2613POPC   PO436276   6.997   2.370   9.494
 2613POPC   GL136277   6.819   2.593   9.082
 2613POPC   GL236278   6.495   2.471   8.914
 2613POPC   C1A36279   6.612   2.918   8.760
 2613POPC   D2A36280   6.343   2.994   8.407
 2613POPC   C3A36281   6.483   3.033   7.990
 2613POPC   C4A36282   6.873   2.955   7.777
 2613POPC   C1B36283   6.406   2.297   8.509
 2613POPC   C2B36284   6.278   2.556   8.125
 2613POPC   C3B36285   6.510   2.603   7.722
 2613POPC   C4B36286   6.402   2.452   7.299
 2614POPC   NC336287  23.324  39.059   9.386
 2614POPC   PO436288  23.889  39.494   9.545
 2614POPC   GL136289  23.625  39.417   9.157
 2614POPC   GL236290  23.625  39.083   8.944
 2614POPC   C1A36291  23.641  39.512   8.722
 2614POPC   D2A36292  23.814  39.289   8.406
 2614POPC   C3A36293  23.728  39.544   8.098
 2614POPC   C4A36294  23.627  39.377   7.756
 2614POPC   C1B36295  23.981  38.889   8.678
 2614POPC   C2B36296  23.966  38.795   8.239
 2614POPC   C3B36297  23.687  38.866   7.824
 2614POPC   C4B36298  23.584  38.693   7.376
 2615POPC   NC336299  39.218   1.585   9.549
 2615POPC   PO436300  39.049   2.283   9.533
 2615POPC   GL136301  39.043   1.965   9.176
 2615POPC   GL236302  39.364   1.825   9.120
 2615POPC   C1A36303  39.105   2.036   8.713
 2615POPC   D2A36304  39.306   2.174   8.301
 2615POPC   C3A36305  39.089   2.144   7.923
 2615POPC   C4A36306  39.136   2.310   7.537
 2615POPC   C1B36307  39.377   1.589   8.749
 2615POPC   C2B36308  39.163   1.503   8.379
 2615POPC   C3B36309  39.174   1.618   7.959
 2615POPC   C4B36310  39.502   1.837   7.774
 2616POPC   NC336311   1.798  10.182   9.516
 2616POPC   PO436312   2.156  10.677   9.689
 2616POPC   GL136313   1.761  10.563   9.217
 2616POPC   GL236314   1.788  10.245   9.007
 2616POPC   C1A36315   1.726  10.758   8.784
 2616POPC   D2A36316   1.942  10.864   8.394
 2616POPC   C3A36317   1.763  10.716   8.007
 2616POPC   C4A36318   1.564  10.397   7.758
 2616POPC   C1B36319   1.980  10.343   8.595
 2616POPC   C2B36320   2.309  10.520   8.336
 2616POPC   C3B36321   2.253  10.557   7.913
 2616POPC   C4B36322   2.351  10.198   7.710
 2617POPC   NC336323   4.953   1.952   9.439
 2617POPC   PO436324   5.503   2.381   9.409
 2617POPC   GL136325   5.358   2.230   9.062
 2617POPC   GL236326   5.152   1.940   8.964
 2617POPC   C1A36327   5.462   2.198   8.661
 2617POPC   D2A36328   5.482   1.775   8.534
 2617POPC   C3A36329   5.460   1.788   8.094
 2617POPC   C4A36330   5.598   1.841   7.665
 2617POPC   C1B36331   5.012   1.963   8.572
 2617POPC   C2B36332   4.994   2.325   8.343
 2617POPC   C3B36333   4.771   2.327   7.975
 2617POPC   C4B36334   5.052   1.973   7.815
 2618POPC   NC336335  25.842  28.137   9.552
 2618POPC   PO436336  26.088  28.742   9.352
 2618POPC   GL136337  25.755  28.517   9.182
 2618POPC   GL236338  25.910  28.227   9.045
 2618POPC   C1A36339  25.709  28.634   8.769
 2618POPC   D2A36340  26.005  28.836   8.499
 2618POPC   C3A36341  26.147  28.496   8.235
 2618POPC   C4A36342  26.047  28.480   7.806
 2618POPC   C1B36343  26.147  28.124   8.666
 2618POPC   C2B36344  26.030  27.940   8.283
 2618POPC   C3B36345  25.976  27.970   7.858
 2618POPC   C4B36346  26.267  28.001   7.507
 2619POPC   NC336347  34.886  43.286   9.538
 2619POPC   PO436348  34.426  42.927   9.352
 2619POPC   GL136349  34.751  43.066   9.086
 2619POPC   GL236350  34.873  42.773   8.977
 2619POPC   C1A36351  34.711  43.244   8.662
 2619POPC   D2A36352  34.363  43.395   8.354
 2619POPC   C3A36353  34.296  43.170   7.957
 2619POPC   C4A36354  34.453  43.209   7.511
 2619POPC   C1B36355  34.526  42.645   8.739
 2619POPC   C2B36356  34.405  42.878   8.401
 2619POPC   C3B36357  34.746  43.061   8.165
 2619POPC   C4B36358  34.748  42.910   7.763
 2620POPC   NC336359  39.819  23.996   9.547
 2620POPC   PO436360  40.413  23.679   9.551
 2620POPC   GL136361  40.063  23.677   9.212
 2620POPC   GL236362  39.788  23.458   9.138
 2620POPC   C1A36363  40.068  23.794   8.749
 2620POPC   D2A36364  40.015  23.490   8.374
 2620POPC   C3A36365  40.010  23.654   7.927
 2620POPC   C4A36366  39.999  23.544   7.460
 2620POPC   C1B36367  39.616  23.590   8.762
 2620POPC   C2B36368  39.651  23.851   8.403
 2620POPC   C3B36369  39.550  23.572   8.111
 2620POPC   C4B36370  39.553  23.496   7.707
 2621POPC   NC336371  14.114  27.105   9.365
 2621POPC   PO436372  14.504  26.580   9.522
 2621POPC   GL136373  14.448  26.751   9.126
 2621POPC   GL236374  14.602  26.987   9.115
 2621POPC   C1A36375  14.258  26.736   8.697
 2621POPC   D2A36376  13.957  26.743   8.318
 2621POPC   C3A36377  14.238  26.791   7.957
 2621POPC   C4A36378  14.557  26.597   7.777
 2621POPC   C1B36379  14.639  27.084   8.722
 2621POPC   C2B36380  14.678  26.787   8.389
 2621POPC   C3B36381  14.758  26.971   8.028
 2621POPC   C4B36382  14.774  27.073   7.612
 2622POPC   NC336383  22.023  12.384   9.583
 2622POPC   PO436384  22.645  12.418   9.357
 2622POPC   GL136385  22.299  12.193   9.150
 2622POPC   GL236386  22.092  11.869   9.178
 2622POPC   C1A36387  22.197  12.123   8.728
 2622POPC   D2A36388  22.040  12.064   8.337
 2622POPC   C3A36389  22.317  11.990   8.016
 2622POPC   C4A36390  22.070  12.051   7.675
 2622POPC   C1B36391  22.374  11.670   8.832
 2622POPC   C2B36392  22.308  11.623   8.372
 2622POPC   C3B36393  21.975  11.616   8.001
 2622POPC   C4B36394  22.089  11.562   7.519
 2623POPC   NC336395  40.963  25.547   9.572
 2623POPC   PO436396  40.629  26.137   9.522
 2623POPC   GL136397  40.699  25.809   9.206
 2623POPC   GL236398  41.094  25.882   9.192
 2623POPC   C1A36399  40.814  25.783   8.758
 2623POPC   D2A36400  41.002  26.162   8.549
 2623POPC   C3A36401  40.751  26.344   8.235
 2623POPC   C4A36402  40.800  26.314   7.800
 2623POPC   C1B36403  41.331  25.794   8.812
 2623POPC   C2B36404  41.285  25.776   8.387
 2623POPC   C3B36405  40.986  25.895   8.087
 2623POPC   C4B36406  41.201  25.997   7.726
 2624POPC   NC336407  12.046  28.293   9.487
 2624POPC   PO436408  11.715  28.698   9.859
 2624POPC   GL136409  11.862  28.751   9.309
 2624POPC   GL236410  11.815  28.447   9.035
 2624POPC   C1A36411  12.114  28.782   8.843
 2624POPC   D2A36412  11.955  28.524   8.490
 2624POPC   C3A36413  12.021  28.511   8.042
 2624POPC   C4A36414  12.195  28.419   7.622
 2624POPC   C1B36415  11.760  28.107   8.717
 2624POPC   C2B36416  11.906  28.022   8.281
 2624POPC   C3B36417  12.251  28.055   7.987
 2624POPC   C4B36418  12.346  27.920   7.570
 2625POPC   NC336419  41.377  32.572   9.443
 2625POPC   PO436420  41.910  32.221   9.469
 2625POPC   GL136421  41.604  32.221   9.121
 2625POPC   GL236422  41.375  32.457   8.953
 2625POPC   C1A36423  41.580  32.020   8.733
 2625POPC   D2A36424  41.782  32.050   8.382
 2625POPC   C3A36425  41.563  32.054   8.029
 2625POPC   C4A36426  41.660  32.358   7.729
 2625POPC   C1B36427  41.720  32.507   8.671
 2625POPC   C2B36428  41.586  32.536   8.242
 2625POPC   C3B36429  41.247  32.552   7.924
 2625POPC   C4B36430  41.340  32.677   7.476
 2626POPC   NC336431  30.646  30.246   9.821
 2626POPC   PO436432  30.545  30.787   9.517
 2626POPC   GL136433  30.750  30.703   9.157
 2626POPC   GL236434  30.916  31.009   9.144
 2626POPC   C1A36435  30.643  30.553   8.734
 2626POPC   D2A36436  30.488  30.631   8.295
 2626POPC   C3A36437  30.777  30.551   7.948
 2626POPC   C4A36438  30.765  30.429   7.523
 2626POPC   C1B36439  30.707  31.082   8.791
 2626POPC   C2B36440  30.631  31.152   8.383
 2626POPC   C3B36441  30.533  31.068   7.975
 2626POPC   C4B36442  30.737  30.964   7.588
 2627POPC   NC336443  24.320  21.001   9.932
 2627POPC   PO436444  24.703  21.397   9.481
 2627POPC   GL136445  24.655  21.297   9.088
 2627POPC   GL236446  24.776  20.953   9.106
 2627POPC   C1A36447  24.450  21.440   8.739
 2627POPC   D2A36448  24.512  21.369   8.309
 2627POPC   C3A36449  24.252  21.339   7.944
 2627POPC   C4A36450  24.451  21.524   7.625
 2627POPC   C1B36451  24.476  20.943   8.763
 2627POPC   C2B36452  24.249  20.945   8.402
 2627POPC   C3B36453  24.395  20.856   7.991
 2627POPC   C4B36454  24.491  21.001   7.571
 2628POPC   NC336455  44.562  17.796   9.431
 2628POPC   PO436456   0.122  17.424   9.597
 2628POPC   GL136457  44.847  17.454   9.181
 2628POPC   GL236458  44.726  17.790   8.950
 2628POPC   C1A36459  44.987  17.438   8.742
 2628POPC   D2A36460  44.736  17.606   8.378
 2628POPC   C3A36461  44.845  17.350   8.014
 2628POPC   C4A36462  44.980  17.409   7.557
 2628POPC   C1B36463  44.482  17.438   8.806
 2628POPC   C2B36464  44.210  17.299   8.511
 2628POPC   C3B36465  44.310  17.263   8.087
 2628POPC   C4B36466  44.483  17.322   7.672
 2629POPC   NC336467  10.545   7.961   9.595
 2629POPC   PO436468  10.322   8.491   9.441
 2629POPC   GL136469  10.594   8.274   9.138
 2629POPC   GL236470  10.579   7.901   9.097
 2629POPC   C1A36471  10.714   8.229   8.698
 2629POPC   D2A36472  10.523   8.446   8.332
 2629POPC   C3A36473  10.497   8.290   7.921
 2629POPC   C4A36474  10.653   8.372   7.513
 2629POPC   C1B36475  10.327   7.868   8.733
 2629POPC   C2B36476  10.533   7.900   8.335
 2629POPC   C3B36477  10.899   8.087   8.142
 2629POPC   C4B36478  10.801   7.928   7.732
 2630POPC   NC336479  25.552  26.362   9.277
 2630POPC   PO436480  26.029  25.971   9.579
 2630POPC   GL136481  26.107  25.822   9.171
 2630POPC   GL236482  26.092  26.182   9.078
 2630POPC   C1A36483  26.290  25.850   8.748
 2630POPC   D2A36484  26.204  25.882   8.364
 2630POPC   C3A36485  26.108  26.147   8.068
 2630POPC   C4A36486  26.002  25.909   7.713
 2630POPC   C1B36487  25.813  26.013   8.769
 2630POPC   C2B36488  25.580  26.176   8.453
 2630POPC   C3B36489  25.662  26.448   8.127
 2630POPC   C4B36490  25.638  26.329   7.705
 2631POPC   NC336491  26.514  20.908   9.456
 2631POPC   PO436492  26.117  20.481   9.861
 2631POPC   GL136493  26.182  20.511   9.333
 2631POPC   GL236494  25.926  20.752   9.183
 2631POPC   C1A36495  26.286  20.632   8.840
 2631POPC   D2A36496  26.116  20.900   8.473
 2631POPC   C3A36497  26.142  20.798   8.054
 2631POPC   C4A36498  26.142  20.493   7.761
 2631POPC   C1B36499  25.689  20.550   8.826
 2631POPC   C2B36500  25.553  20.418   8.397
 2631POPC   C3B36501  25.676  20.596   7.980
 2631POPC   C4B36502  25.716  20.646   7.555
 2632POPC   NC336503   7.362  28.778   9.449
 2632POPC   PO436504   7.432  29.489   9.554
 2632POPC   GL136505   7.512  29.226   9.208
 2632POPC   GL236506   7.153  29.191   9.162
 2632POPC   C1A36507   7.505  28.976   8.803
 2632POPC   D2A36508   7.413  28.756   8.416
 2632POPC   C3A36509   7.309  29.005   8.044
 2632POPC   C4A36510   7.234  29.173   7.616
 2632POPC   C1B36511   7.294  29.440   8.795
 2632POPC   C2B36512   7.518  29.366   8.408
 2632POPC   C3B36513   7.462  29.488   7.984
 2632POPC   C4B36514   7.529  29.585   7.570
 2633POPC   NC336515  33.593  34.541   9.378
 2633POPC   PO436516  34.226  34.202   9.565
 2633POPC   GL136517  34.080  34.475   9.148
 2633POPC   GL236518  33.828  34.772   8.985
 2633POPC   C1A36519  34.225  34.672   8.736
 2633POPC   D2A36520  33.914  34.817   8.438
 2633POPC   C3A36521  33.905  34.643   8.043
 2633POPC   C4A36522  33.854  34.808   7.590
 2633POPC   C1B36523  33.712  34.427   8.737
 2633POPC   C2B36524  33.640  34.072   8.460
 2633POPC   C3B36525  33.465  34.068   8.039
 2633POPC   C4B36526  33.640  34.347   7.723
 2634POPC   NC336527  38.693  29.089   9.474
 2634POPC   PO436528  38.140  29.342   9.817
 2634POPC   GL136529  38.197  29.298   9.333
 2634POPC   GL236530  38.040  29.050   9.128
 2634POPC   C1A36531  38.378  29.363   8.892
 2634POPC   D2A36532  38.194  29.469   8.503
 2634POPC   C3A36533  38.402  29.338   8.107
 2634POPC   C4A36534  38.489  29.172   7.691
 2634POPC   C1B36535  38.226  28.869   8.774
 2634POPC   C2B36536  38.134  28.969   8.359
 2634POPC   C3B36537  38.198  28.843   7.970
 2634POPC   C4B36538  38.058  28.889   7.571
 2635POPC   NC336539   3.118  44.939   9.427
 2635POPC   PO436540   3.721  44.667   9.529
 2635POPC   GL136541   3.507  44.624   9.150
 2635POPC   GL236542   3.723  44.324   9.101
 2635POPC   C1A36543   3.295  44.661   8.737
 2635POPC   D2A36544   3.325  44.908   8.342
 2635POPC   C3A36545   3.473  44.711   7.943
 2635POPC   C4A36546   3.214  44.642   7.572
 2635POPC   C1B36547   3.535  44.212   8.744
 2635POPC   C2B36548   3.480  44.359   8.312
 2635POPC   C3B36549   3.428  44.213   7.848
 2635POPC   C4B36550   3.543  44.301   7.410
 2636POPC   NC336551   9.294  33.631   9.494
 2636POPC   PO436552   8.896  34.057   9.746
 2636POPC   GL136553   9.051  33.996   9.258
 2636POPC   GL236554   9.307  34.148   9.085
 2636POPC   C1A36555   8.971  33.915   8.773
 2636POPC   D2A36556   8.771  33.924   8.350
 2636POPC   C3A36557   8.903  33.708   7.950
 2636POPC   C4A36558   9.063  33.710   7.524
 2636POPC   C1B36559   9.440  34.114   8.644
 2636POPC   C2B36560   9.200  34.218   8.257
 2636POPC   C3B36561   9.229  34.105   7.800
 2636POPC   C4B36562   9.442  34.148   7.336
 2637POPC   NC336563   8.529  25.179   9.475
 2637POPC   PO436564   7.846  25.463   9.408
 2637POPC   GL136565   8.072  25.186   9.162
 2637POPC   GL236566   7.930  25.378   8.900
 2637POPC   C1A36567   8.339  25.105   8.816
 2637POPC   D2A36568   8.210  25.273   8.410
 2637POPC   C3A36569   8.478  25.286   8.055
 2637POPC   C4A36570   8.431  25.340   7.636
 2637POPC   C1B36571   7.866  24.961   8.689
 2637POPC   C2B36572   7.922  24.890   8.233
 2637POPC   C3B36573   8.039  24.999   7.802
 2637POPC   C4B36574   7.846  24.987   7.400
 2638POPC   NC336575  22.298  26.364   9.408
 2638POPC   PO436576  22.055  25.783   9.598
 2638POPC   GL136577  22.056  25.706   9.169
 2638POPC   GL236578  22.268  25.975   9.057
 2638POPC   C1A36579  22.031  25.646   8.720
 2638POPC   D2A36580  22.339  25.782   8.421
 2638POPC   C3A36581  22.253  26.032   8.061
 2638POPC   C4A36582  22.296  25.797   7.688
 2638POPC   C1B36583  22.286  26.269   8.688
 2638POPC   C2B36584  22.299  26.490   8.301
 2638POPC   C3B36585  22.379  26.528   7.894
 2638POPC   C4B36586  22.214  26.278   7.576
 2639POPC   NC336587   6.140  43.766   9.473
 2639POPC   PO436588   5.779  44.215   9.727
 2639POPC   GL136589   5.898  44.113   9.194
 2639POPC   GL236590   6.031  43.832   8.999
 2639POPC   C1A36591   5.717  44.073   8.718
 2639POPC   D2A36592   5.666  43.695   8.426
 2639POPC   C3A36593   5.588  43.805   7.985
 2639POPC   C4A36594   5.724  44.204   7.781
 2639POPC   C1B36595   6.123  43.543   8.711
 2639POPC   C2B36596   6.350  43.654   8.371
 2639POPC   C3B36597   6.080  43.900   8.133
 2639POPC   C4B36598   6.039  43.742   7.740
 2640POPC   NC336599  41.944  41.989   9.308
 2640POPC   PO436600  41.505  41.483   9.529
 2640POPC   GL136601  41.587  41.624   9.173
 2640POPC   GL236602  41.423  41.934   9.229
 2640POPC   C1A36603  41.554  41.389   8.793
 2640POPC   D2A36604  41.369  41.359   8.382
 2640POPC   C3A36605  41.600  41.559   8.041
 2640POPC   C4A36606  41.557  41.485   7.602
 2640POPC   C1B36607  41.585  41.985   8.796
 2640POPC   C2B36608  41.459  42.059   8.414
 2640POPC   C3B36609  41.343  41.990   8.037
 2640POPC   C4B36610  41.493  41.973   7.640
 2641POPC   NC336611  28.731  16.054   9.526
 2641POPC   PO436612  28.177  15.646   9.577
 2641POPC   GL136613  28.434  15.755   9.229
 2641POPC   GL236614  28.609  15.511   9.041
 2641POPC   C1A36615  28.506  16.070   8.903
 2641POPC   D2A36616  28.261  16.145   8.525
 2641POPC   C3A36617  28.538  16.232   8.187
 2641POPC   C4A36618  28.524  16.212   7.746
 2641POPC   C1B36619  28.302  15.648   8.722
 2641POPC   C2B36620  28.382  15.499   8.321
 2641POPC   C3B36621  28.431  15.729   7.972
 2641POPC   C4B36622  28.072  15.860   7.800
 2642POPC   NC336623  11.460  34.326   9.670
 2642POPC   PO436624  10.998  34.732   9.414
 2642POPC   GL136625  11.254  34.489   9.127
 2642POPC   GL236626  11.604  34.375   9.191
 2642POPC   C1A36627  11.329  34.632   8.697
 2642POPC   D2A36628  11.235  34.806   8.292
 2642POPC   C3A36629  11.344  34.557   7.951
 2642POPC   C4A36630  11.504  34.762   7.583
 2642POPC   C1B36631  11.593  34.197   8.793
 2642POPC   C2B36632  11.467  34.253   8.363
 2642POPC   C3B36633  11.626  34.132   7.959
 2642POPC   C4B36634  11.424  34.142   7.579
 2643POPC   NC336635   5.618   7.243   9.412
 2643POPC   PO436636   5.039   7.648   9.550
 2643POPC   GL136637   5.149   7.461   9.162
 2643POPC   GL236638   5.445   7.669   9.109
 2643POPC   C1A36639   4.887   7.349   8.779
 2643POPC   D2A36640   4.695   7.563   8.421
 2643POPC   C3A36641   4.899   7.444   8.015
 2643POPC   C4A36642   4.895   7.570   7.567
 2643POPC   C1B36643   5.300   7.640   8.678
 2643POPC   C2B36644   5.290   7.296   8.380
 2643POPC   C3B36645   5.427   7.286   7.968
 2643POPC   C4B36646   5.361   7.657   7.764
 2644POPC   NC336647   5.847  13.203   9.447
 2644POPC   PO436648   5.568  12.674   9.712
 2644POPC   GL136649   5.636  12.777   9.284
 2644POPC   GL236650   5.991  12.764   9.173
 2644POPC   C1A36651   5.634  12.765   8.821
 2644POPC   D2A36652   5.725  12.449   8.521
 2644POPC   C3A36653   5.512  12.589   8.178
 2644POPC   C4A36654   5.444  12.878   7.813
 2644POPC   C1B36655   5.997  13.136   8.842
 2644POPC   C2B36656   5.887  13.329   8.454
 2644POPC   C3B36657   5.854  13.039   8.093
 2644POPC   C4B36658   6.008  12.600   8.037
 2645POPC   NC336659   1.091   8.801   9.620
 2645POPC   PO436660   1.539   8.886   9.140
 2645POPC   GL136661   1.103   8.876   9.079
 2645POPC   GL236662   1.054   9.168   9.212
 2645POPC   C1A36663   0.977   8.913   8.659
 2645POPC   D2A36664   1.290   8.997   8.331
 2645POPC   C3A36665   1.236   8.847   7.900
 2645POPC   C4A36666   1.397   8.616   7.543
 2645POPC   C1B36667   1.257   9.339   8.802
 2645POPC   C2B36668   1.304   9.516   8.417
 2645POPC   C3B36669   1.293   9.401   7.989
 2645POPC   C4B36670   1.130   9.265   7.597
 2646POPC   NC336671   1.677  43.108   9.472
 2646POPC   PO436672   0.982  43.135   9.491
 2646POPC   GL136673   1.007  43.334   9.103
 2646POPC   GL236674   0.672  43.300   9.107
 2646POPC   C1A36675   1.185  43.328   8.676
 2646POPC   D2A36676   1.180  43.088   8.246
 2646POPC   C3A36677   1.544  42.935   7.994
 2646POPC   C4A36678   1.546  42.950   7.546
 2646POPC   C1B36679   0.704  43.119   8.708
 2646POPC   C2B36680   0.736  43.318   8.302
 2646POPC   C3B36681   0.895  43.369   7.870
 2646POPC   C4B36682   0.746  43.168   7.454
 2647POPC   NC336683  39.629  25.368   9.552
 2647POPC   PO436684  39.003  25.175   9.514
 2647POPC   GL136685  39.273  25.136   9.135
 2647POPC   GL236686  39.413  25.468   9.101
 2647POPC   C1A36687  39.228  25.029   8.672
 2647POPC   D2A36688  39.527  24.947   8.310
 2647POPC   C3A36689  39.339  25.075   7.937
 2647POPC   C4A36690  38.927  25.281   7.860
 2647POPC   C1B36691  39.362  25.639   8.699
 2647POPC   C2B36692  39.217  25.495   8.295
 2647POPC   C3B36693  39.436  25.586   7.908
 2647POPC   C4B36694  39.426  25.591   7.461
 2648POPC   NC336695   1.127  30.536   9.454
 2648POPC   PO436696   1.599  30.990   9.269
 2648POPC   GL136697   1.354  30.665   8.978
 2648POPC   GL236698   1.199  30.308   9.014
 2648POPC   C1A36699   1.283  30.547   8.534
 2648POPC   D2A36700   1.023  30.801   8.247
 2648POPC   C3A36701   1.178  31.028   7.857
 2648POPC   C4A36702   1.319  30.817   7.460
 2648POPC   C1B36703   1.215  30.031   8.639
 2648POPC   C2B36704   1.315  30.108   8.216
 2648POPC   C3B36705   1.303  30.470   7.943
 2648POPC   C4B36706   0.943  30.571   7.736
 2649POPC   NC336707  26.324  43.110   9.642
 2649POPC   PO436708  25.747  43.453   9.442
 2649POPC   GL136709  26.110  43.267   9.192
 2649POPC   GL236710  26.067  42.951   9.004
 2649POPC   C1A36711  26.112  43.378   8.753
 2649POPC   D2A36712  25.864  43.249   8.420
 2649POPC   C3A36713  26.001  43.240   8.009
 2649POPC   C4A36714  26.272  43.240   7.668
 2649POPC   C1B36715  25.803  42.793   8.689
 2649POPC   C2B36716  25.832  42.780   8.252
 2649POPC   C3B36717  25.660  42.846   7.884
 2649POPC   C4B36718  26.012  42.800   7.663
 2650POPC   NC336719  26.999  26.980   9.585
 2650POPC   PO436720  26.387  26.874   9.768
 2650POPC   GL136721  26.549  26.835   9.288
 2650POPC   GL236722  26.518  26.481   9.142
 2650POPC   C1A36723  26.874  26.895   8.916
 2650POPC   D2A36724  26.945  27.158   8.518
 2650POPC   C3A36725  27.122  27.039   8.125
 2650POPC   C4A36726  26.967  26.978   7.711
 2650POPC   C1B36727  26.468  26.650   8.708
 2650POPC   C2B36728  26.701  26.750   8.319
 2650POPC   C3B36729  26.612  26.645   7.876
 2650POPC   C4B36730  26.879  26.490   7.543
 2651POPC   NC336731  41.912  43.840   9.347
 2651POPC   PO436732  41.246  43.877   9.507
 2651POPC   GL136733  41.400  43.987   9.050
 2651POPC   GL236734  41.766  44.045   8.916
 2651POPC   C1A36735  41.414  43.903   8.576
 2651POPC   D2A36736  41.771  43.913   8.280
 2651POPC   C3A36737  41.617  43.963   7.855
 2651POPC   C4A36738  41.161  44.087   7.801
 2651POPC   C1B36739  41.724  43.566   8.775
 2651POPC   C2B36740  41.573  43.435   8.353
 2651POPC   C3B36741  41.767  43.436   7.963
 2651POPC   C4B36742  41.693  43.582   7.509
 2652POPC   NC336743  35.644  40.281   9.380
 2652POPC   PO436744  34.966  40.375   9.420
 2652POPC   GL136745  35.189  40.209   9.109
 2652POPC   GL236746  35.319  39.871   9.223
 2652POPC   C1A36747  35.435  40.204   8.760
 2652POPC   D2A36748  35.515  40.014   8.361
 2652POPC   C3A36749  35.525  40.214   7.971
 2652POPC   C4A36750  35.434  40.003   7.597
 2652POPC   C1B36751  35.175  39.765   8.807
 2652POPC   C2B36752  35.031  39.895   8.417
 2652POPC   C3B36753  35.190  39.767   8.012
 2652POPC   C4B36754  34.938  39.601   7.698
 2653POPC   NC336755  27.854  25.294   9.522
 2653POPC   PO436756  28.484  25.383   9.628
 2653POPC   GL136757  28.289  25.387   9.220
 2653POPC   GL236758  28.147  25.056   9.132
 2653POPC   C1A36759  28.201  25.410   8.755
 2653POPC   D2A36760  28.010  25.442   8.340
 2653POPC   C3A36761  28.288  25.402   7.983
 2653POPC   C4A36762  28.482  25.113   7.709
 2653POPC   C1B36763  28.304  24.899   8.673
 2653POPC   C2B36764  28.356  24.906   8.174
 2653POPC   C3B36765  28.171  24.674   7.818
 2653POPC   C4B36766  27.986  24.673   7.415
 2654POPC   NC336767   9.795  41.106   9.735
 2654POPC   PO436768   9.211  40.708   9.511
 2654POPC   GL136769   9.442  40.716   9.154
 2654POPC   GL236770   9.730  40.642   9.208
 2654POPC   C1A36771   9.533  40.781   8.720
 2654POPC   D2A36772   9.321  40.643   8.351
 2654POPC   C3A36773   9.589  40.718   8.039
 2654POPC   C4A36774   9.530  40.699   7.627
 2654POPC   C1B36775   9.818  40.379   8.875
 2654POPC   C2B36776   9.809  40.453   8.429
 2654POPC   C3B36777  10.038  40.472   8.021
 2654POPC   C4B36778  10.014  40.803   7.718
 2655POPC   NC336779   6.352  27.664   9.593
 2655POPC   PO436780   7.005  27.666   9.795
 2655POPC   GL136781   6.835  27.772   9.383
 2655POPC   GL236782   6.730  27.465   9.290
 2655POPC   C1A36783   6.700  27.802   8.925
 2655POPC   D2A36784   6.712  27.615   8.519
 2655POPC   C3A36785   6.825  27.749   8.120
 2655POPC   C4A36786   6.596  27.777   7.759
 2655POPC   C1B36787   6.363  27.402   8.972
 2655POPC   C2B36788   6.237  27.404   8.536
 2655POPC   C3B36789   6.383  27.447   8.118
 2655POPC   C4B36790   6.513  27.158   7.821
 2656POPC   NC336791  24.612  26.456   9.505
 2656POPC   PO436792  24.476  25.792   9.700
 2656POPC   GL136793  24.421  25.890   9.256
 2656POPC   GL236794  24.234  26.217   9.214
 2656POPC   C1A36795  24.380  25.700   8.835
 2656POPC   D2A36796  24.558  25.824   8.446
 2656POPC   C3A36797  24.426  25.757   8.026
 2656POPC   C4A36798  24.431  25.772   7.588
 2656POPC   C1B36799  24.562  26.203   8.875
 2656POPC   C2B36800  24.695  26.323   8.482
 2656POPC   C3B36801  24.767  26.164   8.081
 2656POPC   C4B36802  24.735  26.266   7.667
 2657POPC   NC336803  18.764   2.402   9.753
 2657POPC   PO436804  18.677   1.805   9.226
 2657POPC   GL136805  19.066   1.868   9.006
 2657POPC   GL236806  19.216   2.188   9.005
 2657POPC   C1A36807  19.037   1.847   8.595
 2657POPC   D2A36808  18.672   1.840   8.339
 2657POPC   C3A36809  18.868   1.841   7.939
 2657POPC   C4A36810  19.260   1.766   7.761
 2657POPC   C1B36811  18.991   2.392   8.681
 2657POPC   C2B36812  19.030   2.275   8.280
 2657POPC   C3B36813  19.183   2.330   7.904
 2657POPC   C4B36814  18.810   2.300   7.641
 2658POPC   NC336815   7.301  10.823   9.733
 2658POPC   PO436816   6.979  10.325   9.764
 2658POPC   GL136817   7.254  10.510   9.316
 2658POPC   GL236818   7.512  10.756   9.189
 2658POPC   C1A36819   7.226  10.627   8.812
 2658POPC   D2A36820   7.328  10.934   8.440
 2658POPC   C3A36821   7.269  10.731   8.026
 2658POPC   C4A36822   7.281  10.341   7.785
 2658POPC   C1B36823   7.706  10.931   8.807
 2658POPC   C2B36824   8.012  10.930   8.464
 2658POPC   C3B36825   7.845  10.932   8.029
 2658POPC   C4B36826   7.682  10.639   7.719
 2659POPC   NC336827  10.369  16.878   9.507
 2659POPC   PO436828  10.247  16.197   9.499
 2659POPC   GL136829  10.429  16.428   9.140
 2659POPC   GL236830  10.519  16.770   9.036
 2659POPC   C1A36831  10.264  16.457   8.711
 2659POPC   D2A36832  10.334  16.751   8.358
 2659POPC   C3A36833  10.300  16.544   7.948
 2659POPC   C4A36834  10.594  16.484   7.606
 2659POPC   C1B36835  10.764  16.580   8.699
 2659POPC   C2B36836  10.829  16.629   8.252
 2659POPC   C3B36837  10.700  16.888   7.882
 2659POPC   C4B36838  10.954  16.844   7.452
 2660POPC   NC336839   8.039   9.384   9.582
 2660POPC   PO436840   8.305   9.942   9.360
 2660POPC   GL136841   7.958   9.735   9.196
 2660POPC   GL236842   8.212   9.505   9.124
 2660POPC   C1A36843   7.860   9.583   8.776
 2660POPC   D2A36844   7.956   9.746   8.377
 2660POPC   C3A36845   7.793   9.554   8.024
 2660POPC   C4A36846   7.794   9.776   7.637
 2660POPC   C1B36847   8.359   9.699   8.734
 2660POPC   C2B36848   8.551   9.780   8.358
 2660POPC   C3B36849   8.577   9.633   7.991
 2660POPC   C4B36850   8.237   9.539   7.781
 2661POPC   NC336851   7.991  42.023   9.535
 2661POPC   PO436852   8.489  42.438   9.458
 2661POPC   GL136853   8.301  42.427   9.082
 2661POPC   GL236854   7.972  42.407   9.183
 2661POPC   C1A36855   8.292  42.656   8.691
 2661POPC   D2A36856   8.118  42.498   8.337
 2661POPC   C3A36857   8.319  42.198   8.075
 2661POPC   C4A36858   8.328  42.401   7.680
 2661POPC   C1B36859   7.998  42.065   8.874
 2661POPC   C2B36860   7.896  41.994   8.446
 2661POPC   C3B36861   7.711  42.260   8.129
 2661POPC   C4B36862   7.815  42.141   7.728
 2662POPC   NC336863  13.434  36.899   9.597
 2662POPC   PO436864  13.986  37.353   9.570
 2662POPC   GL136865  13.735  37.054   9.199
 2662POPC   GL236866  13.563  36.692   9.154
 2662POPC   C1A36867  13.733  36.915   8.746
 2662POPC   D2A36868  13.512  36.995   8.361
 2662POPC   C3A36869  13.777  36.923   8.021
 2662POPC   C4A36870  13.768  37.218   7.715
 2662POPC   C1B36871  13.237  36.489   8.896
 2662POPC   C2B36872  13.148  36.581   8.477
 2662POPC   C3B36873  13.362  36.602   8.075
 2662POPC   C4B36874  13.305  36.949   7.813
 2663POPC   NC336875  25.233  26.878   9.473
 2663POPC   PO436876  25.522  27.442   9.274
 2663POPC   GL136877  25.506  27.030   8.957
 2663POPC   GL236878  25.303  26.726   9.015
 2663POPC   C1A36879  25.280  26.919   8.560
 2663POPC   D2A36880  25.189  26.950   8.123
 2663POPC   C3A36881  25.507  26.849   7.817
 2663POPC   C4A36882  25.413  26.954   7.393
 2663POPC   C1B36883  25.200  26.389   8.725
 2663POPC   C2B36884  25.152  26.463   8.306
 2663POPC   C3B36885  25.157  26.486   7.885
 2663POPC   C4B36886  25.188  26.503   7.448
 2664POPC   NC336887  27.076  36.629   9.515
 2664POPC   PO436888  26.525  37.009   9.662
 2664POPC   GL136889  26.601  36.802   9.260
 2664POPC   GL236890  26.788  37.075   9.192
 2664POPC   C1A36891  26.921  36.721   8.876
 2664POPC   D2A36892  26.921  36.936   8.471
 2664POPC   C3A36893  27.167  36.797   8.135
 2664POPC   C4A36894  27.040  37.095   7.832
 2664POPC   C1B36895  26.542  37.072   8.791
 2664POPC   C2B36896  26.399  37.252   8.417
 2664POPC   C3B36897  26.568  37.125   8.038
 2664POPC   C4B36898  26.428  37.246   7.642
 2665POPC   NC336899  26.669  18.863   9.383
 2665POPC   PO436900  27.156  19.427   9.380
 2665POPC   GL136901  26.873  19.252   9.095
 2665POPC   GL236902  26.496  19.258   9.100
 2665POPC   C1A36903  26.851  19.080   8.717
 2665POPC   D2A36904  26.725  19.397   8.407
 2665POPC   C3A36905  26.882  19.231   8.015
 2665POPC   C4A36906  26.787  18.853   7.802
 2665POPC   C1B36907  26.350  19.089   8.681
 2665POPC   C2B36908  26.445  19.006   8.216
 2665POPC   C3B36909  26.367  19.097   7.764
 2665POPC   C4B36910  26.438  18.928   7.342
 2666POPC   NC336911  29.356   9.990   9.369
 2666POPC   PO436912  28.961   9.505   9.374
 2666POPC   GL136913  29.154   9.636   9.034
 2666POPC   GL236914  29.473   9.470   9.017
 2666POPC   C1A36915  28.969   9.685   8.645
 2666POPC   D2A36916  28.908   9.519   8.265
 2666POPC   C3A36917  28.996   9.734   7.919
 2666POPC   C4A36918  28.856  10.104   7.832
 2666POPC   C1B36919  29.548   9.774   8.731
 2666POPC   C2B36920  29.388   9.657   8.369
 2666POPC   C3B36921  29.408   9.445   8.032
 2666POPC   C4B36922  29.493   9.714   7.742
 2667POPC   NC336923   3.029  38.255   9.635
 2667POPC   PO436924   3.670  38.132   9.716
 2667POPC   GL136925   3.643  38.300   9.268
 2667POPC   GL236926   3.280  38.278   9.172
 2667POPC   C1A36927   3.623  38.305   8.765
 2667POPC   D2A36928   3.605  38.255   8.274
 2667POPC   C3A36929   3.761  38.591   8.009
 2667POPC   C4A36930   3.580  38.811   7.668
 2667POPC   C1B36931   3.098  38.274   8.756
 2667POPC   C2B36932   3.184  38.511   8.375
 2667POPC   C3B36933   3.245  38.529   7.947
 2667POPC   C4B36934   3.297  38.140   7.773
 2668POPC   NC336935  33.541  24.357   9.360
 2668POPC   PO436936  32.893  24.466   9.640
 2668POPC   GL136937  33.014  24.519   9.248
 2668POPC   GL236938  32.964  24.214   9.088
 2668POPC   C1A36939  32.904  24.693   8.848
 2668POPC   D2A36940  32.947  24.521   8.462
 2668POPC   C3A36941  32.691  24.607   8.112
 2668POPC   C4A36942  32.919  24.835   7.833
 2668POPC   C1B36943  33.286  24.286   8.781
 2668POPC   C2B36944  33.581  24.357   8.460
 2668POPC   C3B36945  33.323  24.339   8.108
 2668POPC   C4B36946  32.992  24.299   7.801
 2669POPC   NC336947  28.109  22.819   9.513
 2669POPC   PO436948  28.741  22.944   9.206
 2669POPC   GL136949  28.345  22.895   9.067
 2669POPC   GL236950  28.189  23.224   9.172
 2669POPC   C1A36951  28.337  22.747   8.649
 2669POPC   D2A36952  28.557  22.927   8.276
 2669POPC   C3A36953  28.406  22.840   7.847
 2669POPC   C4A36954  28.190  22.611   7.454
 2669POPC   C1B36955  28.022  23.148   8.753
 2669POPC   C2B36956  28.155  23.248   8.359
 2669POPC   C3B36957  28.005  23.155   7.954
 2669POPC   C4B36958  28.104  23.100   7.527
 2670POPC   NC336959  43.937  15.041   9.751
 2670POPC   PO436960  43.523  15.507   9.512
 2670POPC   GL136961  43.844  15.253   9.266
 2670POPC   GL236962  43.819  14.875   9.237
 2670POPC   C1A36963  43.771  15.190   8.827
 2670POPC   D2A36964  43.644  15.218   8.424
 2670POPC   C3A36965  44.008  15.330   8.179
 2670POPC   C4A36966  43.961  15.324   7.745
 2670POPC   C1B36967  43.784  14.680   8.817
 2670POPC   C2B36968  43.956  14.814   8.405
 2670POPC   C3B36969  43.780  14.917   7.988
 2670POPC   C4B36970  43.870  14.880   7.509
 2671POPC   NC336971   5.712  21.745   9.710
 2671POPC   PO436972   6.058  22.300   9.456
 2671POPC   GL136973   5.821  22.299   9.111
 2671POPC   GL236974   5.687  22.014   9.176
 2671POPC   C1A36975   5.922  22.417   8.702
 2671POPC   D2A36976   5.920  22.191   8.321
 2671POPC   C3A36977   5.976  22.405   7.946
 2671POPC   C4A36978   5.805  22.321   7.559
 2671POPC   C1B36979   5.747  21.908   8.751
 2671POPC   C2B36980   5.538  21.829   8.367
 2671POPC   C3B36981   5.611  21.995   7.950
 2671POPC   C4B36982   6.060  21.914   7.853
 2672POPC   NC336983  14.625  30.434   9.450
 2672POPC   PO436984  15.267  30.654   9.590
 2672POPC   GL136985  15.269  30.806   9.184
 2672POPC   GL236986  14.993  30.619   9.102
 2672POPC   C1A36987  15.210  30.943   8.724
 2672POPC   D2A36988  15.366  30.700   8.336
 2672POPC   C3A36989  15.187  30.751   7.966
 2672POPC   C4A36990  15.128  31.151   7.900
 2672POPC   C1B36991  15.186  30.438   8.722
 2672POPC   C2B36992  15.360  30.178   8.405
 2672POPC   C3B36993  15.492  30.295   7.970
 2672POPC   C4B36994  15.278  30.430   7.581
 2673POPC   NC336995  29.590  35.547   9.414
 2673POPC   PO436996  30.196  35.591   9.142
 2673POPC   GL136997  30.062  35.251   8.972
 2673POPC   GL236998  29.725  35.346   8.975
 2673POPC   C1A36999  29.975  35.090   8.583
 2673POPC   D2A37000  29.634  35.367   8.385
 2673POPC   C3A37001  29.666  35.396   7.966
 2673POPC   C4A37002  30.098  35.360   7.828
 2673POPC   C1B37003  29.501  35.053   8.755
 2673POPC   C2B37004  29.569  34.860   8.362
 2673POPC   C3B37005  29.839  34.919   7.995
 2673POPC   C4B37006  29.726  35.065   7.562
 2674POPC   NC337007  23.743  26.820   9.590
 2674POPC   PO437008  23.164  27.030   9.413
 2674POPC   GL137009  23.606  27.040   9.153
 2674POPC   GL237010  23.890  26.739   9.122
 2674POPC   C1A37011  23.728  26.997   8.714
 2674POPC   D2A37012  23.439  26.943   8.374
 2674POPC   C3A37013  23.651  26.977   8.013
 2674POPC   C4A37014  23.480  27.019   7.636
 2674POPC   C1B37015  23.666  26.474   8.833
 2674POPC   C2B37016  23.799  26.551   8.432
 2674POPC   C3B37017  23.778  26.478   8.029
 2674POPC   C4B37018  23.784  26.626   7.614
 2675POPC   NC337019  34.316  17.375   9.503
 2675POPC   PO437020  33.706  17.745   9.438
 2675POPC   GL137021  33.705  17.502   9.051
 2675POPC   GL237022  34.042  17.382   9.081
 2675POPC   C1A37023  33.805  17.319   8.641
 2675POPC   D2A37024  33.585  17.465   8.285
 2675POPC   C3A37025  33.930  17.421   8.053
 2675POPC   C4A37026  33.986  17.157   7.757
 2675POPC   C1B37027  34.075  17.762   8.805
 2675POPC   C2B37028  33.936  17.850   8.371
 2675POPC   C3B37029  34.103  17.882   7.946
 2675POPC   C4B37030  33.796  17.757   7.676
 2676POPC   NC337031   1.425   4.878   9.631
 2676POPC   PO437032   0.965   5.342   9.567
 2676POPC   GL137033   1.083   5.221   9.153
 2676POPC   GL237034   1.227   4.900   9.159
 2676POPC   C1A37035   1.253   5.251   8.732
 2676POPC   D2A37036   1.021   5.103   8.344
 2676POPC   C3A37037   1.214   5.056   7.988
 2676POPC   C4A37038   1.240   5.475   7.928
 2676POPC   C1B37039   1.085   4.776   8.766
 2676POPC   C2B37040   0.736   4.756   8.524
 2676POPC   C3B37041   0.682   4.776   8.076
 2676POPC   C4B37042   0.856   4.924   7.667
 2677POPC   NC337043   5.817  14.858   9.506
 2677POPC   PO437044   6.090  15.496   9.627
 2677POPC   GL137045   6.137  15.268   9.233
 2677POPC   GL237046   5.796  15.374   9.185
 2677POPC   C1A37047   5.956  15.059   8.828
 2677POPC   D2A37048   5.823  15.218   8.425
 2677POPC   C3A37049   6.084  15.347   8.088
 2677POPC   C4A37050   5.978  15.112   7.770
 2677POPC   C1B37051   5.648  15.587   8.817
 2677POPC   C2B37052   5.529  15.644   8.367
 2677POPC   C3B37053   5.602  15.422   7.982
 2677POPC   C4B37054   5.559  15.307   7.529
 2678POPC   NC337055  33.895  20.587   9.602
 2678POPC   PO437056  33.329  20.312   9.686
 2678POPC   GL137057  33.556  20.437   9.256
 2678POPC   GL237058  33.647  20.781   9.203
 2678POPC   C1A37059  33.466  20.531   8.808
 2678POPC   D2A37060  33.774  20.481   8.474
 2678POPC   C3A37061  33.696  20.615   8.068
 2678POPC   C4A37062  33.377  20.638   7.782
 2678POPC   C1B37063  33.881  20.869   8.807
 2678POPC   C2B37064  34.065  20.899   8.392
 2678POPC   C3B37065  34.077  20.997   7.962
 2678POPC   C4B37066  33.799  20.904   7.627
 2679POPC   NC337067  14.938  39.145   9.646
 2679POPC   PO437068  15.341  39.652   9.607
 2679POPC   GL137069  15.382  39.370   9.214
 2679POPC   GL237070  15.313  38.994   9.265
 2679POPC   C1A37071  15.227  39.249   8.769
 2679POPC   D2A37072  15.098  39.057   8.370
 2679POPC   C3A37073  15.230  39.210   7.958
 2679POPC   C4A37074  15.046  39.140   7.542
 2679POPC   C1B37075  15.501  38.842   8.872
 2679POPC   C2B37076  15.587  39.016   8.436
 2679POPC   C3B37077  15.512  38.795   8.022
 2679POPC   C4B37078  15.280  38.707   7.626
 2680POPC   NC337079  23.393  42.350   9.529
 2680POPC   PO437080  23.703  42.001   9.155
 2680POPC   GL137081  23.680  42.404   9.071
 2680POPC   GL237082  23.304  42.462   9.010
 2680POPC   C1A37083  23.652  42.453   8.655
 2680POPC   D2A37084  23.574  42.131   8.360
 2680POPC   C3A37085  23.738  42.304   8.031
 2680POPC   C4A37086  23.610  42.292   7.648
 2680POPC   C1B37087  23.170  42.444   8.523
 2680POPC   C2B37088  23.326  42.615   8.100
 2680POPC   C3B37089  23.198  42.584   7.640
 2680POPC   C4B37090  23.223  42.210   7.323
 2681POPC   NC337091  16.538  11.649   9.416
 2681POPC   PO437092  17.054  11.251   9.463
 2681POPC   GL137093  16.770  11.137   9.093
 2681POPC   GL237094  16.566  11.416   8.980
 2681POPC   C1A37095  16.760  11.126   8.619
 2681POPC   D2A37096  17.004  10.904   8.322
 2681POPC   C3A37097  17.144  11.037   7.937
 2681POPC   C4A37098  16.763  11.004   7.725
 2681POPC   C1B37099  16.452  11.579   8.588
 2681POPC   C2B37100  16.496  11.362   8.210
 2681POPC   C3B37101  16.606  11.478   7.794
 2681POPC   C4B37102  16.375  11.610   7.415
 2682POPC   NC337103  21.784  23.335   9.466
 2682POPC   PO437104  22.264  23.775   9.596
 2682POPC   GL137105  22.106  23.745   9.157
 2682POPC   GL237106  21.733  23.836   9.145
 2682POPC   C1A37107  22.312  23.688   8.728
 2682POPC   D2A37108  22.221  23.430   8.339
 2682POPC   C3A37109  22.321  23.593   7.895
 2682POPC   C4A37110  22.276  23.705   7.436
 2682POPC   C1B37111  21.891  24.009   8.752
 2682POPC   C2B37112  22.113  23.984   8.343
 2682POPC   C3B37113  21.896  23.982   7.939
 2682POPC   C4B37114  21.867  24.033   7.471
 2683POPC   NC337115  44.253  13.574   9.519
 2683POPC   PO437116  43.626  13.680   9.434
 2683POPC   GL137117  43.938  13.713   9.137
 2683POPC   GL237118  44.178  13.958   9.188
 2683POPC   C1A37119  43.915  13.578   8.754
 2683POPC   D2A37120  43.651  13.683   8.428
 2683POPC   C3A37121  43.790  13.492   8.083
 2683POPC   C4A37122  43.656  13.469   7.644
 2683POPC   C1B37123  44.220  13.978   8.760
 2683POPC   C2B37124  44.146  13.834   8.339
 2683POPC   C3B37125  44.018  13.933   7.931
 2683POPC   C4B37126  43.648  13.967   7.712
 2684POPC   NC337127   1.029  14.156   9.435
 2684POPC   PO437128   1.469  14.672   9.416
 2684POPC   GL137129   1.238  14.471   9.096
 2684POPC   GL237130   1.372  14.158   9.058
 2684POPC   C1A37131   1.277  14.444   8.647
 2684POPC   D2A37132   1.244  14.655   8.280
 2684POPC   C3A37133   0.996  14.442   7.990
 2684POPC   C4A37134   1.300  14.374   7.704
 2684POPC   C1B37135   1.033  14.007   8.789
 2684POPC   C2B37136   1.085  14.057   8.368
 2684POPC   C3B37137   1.271  13.980   8.019
 2684POPC   C4B37138   1.021  13.879   7.699
 2685POPC   NC337139  33.437  36.731   9.258
 2685POPC   PO437140  33.902  37.111   9.555
 2685POPC   GL137141  33.765  37.123   9.140
 2685POPC   GL237142  33.884  36.892   9.062
 2685POPC   C1A37143  33.609  37.059   8.678
 2685POPC   D2A37144  33.863  37.141   8.306
 2685POPC   C3A37145  33.595  37.075   7.969
 2685POPC   C4A37146  33.440  37.087   7.561
 2685POPC   C1B37147  34.092  36.898   8.691
 2685POPC   C2B37148  34.093  36.673   8.310
 2685POPC   C3B37149  34.038  36.785   7.885
 2685POPC   C4B37150  34.284  36.657   7.517
 2686POPC   NC337151   7.769  43.883   9.499
 2686POPC   PO437152   8.454  44.004   9.548
 2686POPC   GL137153   8.247  43.788   9.220
 2686POPC   GL237154   8.038  44.006   9.096
 2686POPC   C1A37155   8.139  43.635   8.786
 2686POPC   D2A37156   8.240  43.824   8.390
 2686POPC   C3A37157   8.383  43.579   8.027
 2686POPC   C4A37158   8.164  43.576   7.649
 2686POPC   C1B37159   7.918  44.108   8.698
 2686POPC   C2B37160   7.778  44.136   8.279
 2686POPC   C3B37161   7.948  43.961   7.905
 2686POPC   C4B37162   8.191  44.105   7.525
 2687POPC   NC337163  10.103   8.859   9.591
 2687POPC   PO437164   9.475   8.951   9.540
 2687POPC   GL137165   9.628   9.181   9.179
 2687POPC   GL237166  10.012   9.170   9.194
 2687POPC   C1A37167   9.493   9.028   8.770
 2687POPC   D2A37168   9.339   8.827   8.384
 2687POPC   C3A37169   9.369   9.106   8.033
 2687POPC   C4A37170   9.604   9.101   7.666
 2687POPC   C1B37171   9.973   8.856   8.842
 2687POPC   C2B37172   9.860   8.682   8.428
 2687POPC   C3B37173   9.934   8.803   7.992
 2687POPC   C4B37174  10.282   8.717   7.696
 2688POPC   NC337175  43.566  17.705   9.428
 2688POPC   PO437176  44.172  17.425   9.337
 2688POPC   GL137177  43.974  17.692   9.078
 2688POPC   GL237178  44.235  17.899   9.052
 2688POPC   C1A37179  43.765  17.585   8.703
 2688POPC   D2A37180  43.704  17.192   8.481
 2688POPC   C3A37181  43.675  17.309   8.070
 2688POPC   C4A37182  43.927  17.272   7.743
 2688POPC   C1B37183  44.214  17.808   8.603
 2688POPC   C2B37184  44.002  17.667   8.239
 2688POPC   C3B37185  44.186  17.714   7.867
 2688POPC   C4B37186  44.412  17.934   7.580
 2689POPC   NC337187   3.179  42.651   9.460
 2689POPC   PO437188   3.742  42.364   9.631
 2689POPC   GL137189   3.583  42.408   9.226
 2689POPC   GL237190   3.783  42.671   9.099
 2689POPC   C1A37191   3.591  42.168   8.831
 2689POPC   D2A37192   3.385  42.220   8.421
 2689POPC   C3A37193   3.532  42.123   7.986
 2689POPC   C4A37194   3.432  42.329   7.537
 2689POPC   C1B37195   3.579  42.689   8.684
 2689POPC   C2B37196   3.787  42.708   8.263
 2689POPC   C3B37197   3.797  42.526   7.837
 2689POPC   C4B37198   4.011  42.420   7.405
 2690POPC   NC337199  32.578  27.947   9.595
 2690POPC   PO437200  32.352  28.532   9.620
 2690POPC   GL137201  32.169  28.461   9.192
 2690POPC   GL237202  32.113  28.113   9.165
 2690POPC   C1A37203  32.081  28.663   8.774
 2690POPC   D2A37204  32.299  28.667   8.355
 2690POPC   C3A37205  32.218  28.642   7.917
 2690POPC   C4A37206  31.911  28.598   7.641
 2690POPC   C1B37207  31.957  28.170   8.768
 2690POPC   C2B37208  32.210  28.147   8.403
 2690POPC   C3B37209  32.453  28.202   8.046
 2690POPC   C4B37210  32.312  28.015   7.680
 2691POPC   NC337211  27.482  26.091   9.551
 2691POPC   PO437212  27.353  25.504   9.389
 2691POPC   GL137213  27.419  25.859   9.108
 2691POPC   GL237214  27.308  26.240   9.101
 2691POPC   C1A37215  27.714  26.064   8.836
 2691POPC   D2A37216  27.877  25.973   8.435
 2691POPC   C3A37217  27.637  26.137   8.146
 2691POPC   C4A37218  27.691  25.949   7.815
 2691POPC   C1B37219  27.193  26.053   8.707
 2691POPC   C2B37220  27.096  26.133   8.318
 2691POPC   C3B37221  27.196  25.935   7.961
 2691POPC   C4B37222  27.295  26.270   7.748
 2692POPC   NC337223  35.879  19.312   9.457
 2692POPC   PO437224  36.484  19.049   9.531
 2692POPC   GL137225  36.200  19.013   9.166
 2692POPC   GL237226  36.301  19.283   9.038
 2692POPC   C1A37227  36.061  18.813   8.785
 2692POPC   D2A37228  36.135  19.008   8.451
 2692POPC   C3A37229  36.228  18.865   8.073
 2692POPC   C4A37230  36.476  19.042   7.813
 2692POPC   C1B37231  35.911  19.332   8.807
 2692POPC   C2B37232  35.817  19.402   8.367
 2692POPC   C3B37233  36.225  19.409   8.138
 2692POPC   C4B37234  36.474  19.549   7.801
 2693POPC   NC337235  39.944   2.944   9.461
 2693POPC   PO437236  40.034   2.331   9.426
 2693POPC   GL137237  40.024   2.495   9.022
 2693POPC   GL237238  39.783   2.741   9.021
 2693POPC   C1A37239  39.858   2.481   8.598
 2693POPC   D2A37240  39.675   2.543   8.243
 2693POPC   C3A37241  40.004   2.557   7.977
 2693POPC   C4A37242  40.396   2.701   7.805
 2693POPC   C1B37243  39.715   2.984   8.642
 2693POPC   C2B37244  39.790   3.039   8.209
 2693POPC   C3B37245  39.708   2.934   7.799
 2693POPC   C4B37246  39.700   3.130   7.379
 2694POPC   NC337247   2.071  19.078   9.586
 2694POPC   PO437248   1.531  18.679   9.394
 2694POPC   GL137249   1.800  18.990   9.165
 2694POPC   GL237250   2.049  19.303   9.139
 2694POPC   C1A37251   2.130  18.914   8.844
 2694POPC   D2A37252   2.309  19.056   8.451
 2694POPC   C3A37253   2.259  18.757   8.134
 2694POPC   C4A37254   2.087  18.812   7.724
 2694POPC   C1B37255   1.763  19.308   8.773
 2694POPC   C2B37256   1.885  19.350   8.356
 2694POPC   C3B37257   2.086  19.245   8.005
 2694POPC   C4B37258   1.726  19.389   7.805
 2695POPC   NC337259  44.932  18.530   9.365
 2695POPC   PO437260  44.357  18.211   9.576
 2695POPC   GL137261  44.518  18.312   9.141
 2695POPC   GL237262  44.674  18.625   8.945
 2695POPC   C1A37263  44.493  18.215   8.713
 2695POPC   D2A37264  44.529  18.480   8.370
 2695POPC   C3A37265  44.551  18.282   7.949
 2695POPC   C4A37266  44.369  18.431   7.542
 2695POPC   C1B37267   0.000  18.396   8.680
 2695POPC   C2B37268   0.081  18.027   8.391
 2695POPC   C3B37269  44.980  17.853   7.956
 2695POPC   C4B37270  44.949  17.949   7.488
 2696POPC   NC337271  28.330  37.909   9.542
 2696POPC   PO437272  28.205  37.233   9.330
 2696POPC   GL137273  28.160  37.647   9.137
 2696POPC   GL237274  28.509  37.830   9.081
 2696POPC   C1A37275  28.085  37.887   8.774
 2696POPC   D2A37276  28.407  37.907   8.503
 2696POPC   C3A37277  28.347  37.845   8.078
 2696POPC   C4A37278  28.643  37.921   7.752
 2696POPC   C1B37279  28.563  37.496   8.820
 2696POPC   C2B37280  28.302  37.374   8.503
 2696POPC   C3B37281  28.268  37.346   8.047
 2696POPC   C4B37282  28.555  37.416   7.703
 2697POPC   NC337283  33.545   3.204   9.535
 2697POPC   PO437284  33.870   3.790   9.558
 2697POPC   GL137285  33.740   3.602   9.190
 2697POPC   GL237286  33.957   3.297   9.203
 2697POPC   C1A37287  33.616   3.694   8.750
 2697POPC   D2A37288  33.558   3.418   8.397
 2697POPC   C3A37289  33.585   3.577   7.982
 2697POPC   C4A37290  33.596   3.301   7.646
 2697POPC   C1B37291  34.071   3.472   8.798
 2697POPC   C2B37292  34.027   3.624   8.354
 2697POPC   C3B37293  34.040   3.380   7.945
 2697POPC   C4B37294  34.039   3.703   7.609
 2698POPC   NC337295  37.519   9.394   9.617
 2698POPC   PO437296  38.033   9.095   9.439
 2698POPC   GL137297  37.797   9.352   9.178
 2698POPC   GL237298  37.510   9.133   9.160
 2698POPC   C1A37299  37.832   9.247   8.762
 2698POPC   D2A37300  38.009   9.005   8.448
 2698POPC   C3A37301  37.764   9.026   8.085
 2698POPC   C4A37302  37.544   8.969   7.709
 2698POPC   C1B37303  37.369   8.897   8.794
 2698POPC   C2B37304  37.437   8.725   8.391
 2698POPC   C3B37305  37.212   8.643   7.984
 2698POPC   C4B37306  37.304   8.535   7.554
 2699POPC   NC337307  38.211  11.131   9.438
 2699POPC   PO437308  38.747  11.430   9.644
 2699POPC   GL137309  38.723  11.578   9.227
 2699POPC   GL237310  38.349  11.610   9.216
 2699POPC   C1A37311  38.780  11.366   8.800
 2699POPC   D2A37312  38.544  11.030   8.547
 2699POPC   C3A37313  38.550  11.075   8.083
 2699POPC   C4A37314  38.703  11.349   7.762
 2699POPC   C1B37315  38.264  11.393   8.823
 2699POPC   C2B37316  38.356  11.486   8.381
 2699POPC   C3B37317  38.240  11.498   7.926
 2699POPC   C4B37318  38.349  11.571   7.478
 2700POPC   NC337319  36.534   4.720   9.523
 2700POPC   PO437320  36.822   5.267   9.712
 2700POPC   GL137321  36.926   5.201   9.269
 2700POPC   GL237322  36.886   4.862   9.170
 2700POPC   C1A37323  36.831   5.270   8.832
 2700POPC   D2A37324  36.996   5.457   8.476
 2700POPC   C3A37325  36.824   5.395   8.056
 2700POPC   C4A37326  36.625   5.050   7.818
 2700POPC   C1B37327  36.989   4.778   8.749
 2700POPC   C2B37328  36.773   4.661   8.377
 2700POPC   C3B37329  36.902   4.592   7.951
 2700POPC   C4B37330  36.674   4.572   7.569
 2701POPC   NC337331  23.474  20.099   9.301
 2701POPC   PO437332  24.081  19.846   9.563
 2701POPC   GL137333  23.873  19.760   9.155
 2701POPC   GL237334  23.540  19.714   8.983
 2701POPC   C1A37335  23.974  19.962   8.761
 2701POPC   D2A37336  23.979  20.092   8.325
 2701POPC   C3A37337  23.970  19.823   7.968
 2701POPC   C4A37338  23.584  19.760   7.738
 2701POPC   C1B37339  23.485  20.016   8.616
 2701POPC   C2B37340  23.484  20.028   8.157
 2701POPC   C3B37341  23.282  20.184   7.752
 2701POPC   C4B37342  23.382  20.100   7.289
 2702POPC   NC337343  36.986  43.647   9.609
 2702POPC   PO437344  37.249  44.300   9.464
 2702POPC   GL137345  37.061  43.922   9.205
 2702POPC   GL237346  37.175  43.597   9.138
 2702POPC   C1A37347  36.781  43.772   8.856
 2702POPC   D2A37348  36.861  43.986   8.457
 2702POPC   C3A37349  36.842  43.783   8.065
 2702POPC   C4A37350  36.904  44.111   7.725
 2702POPC   C1B37351  37.267  43.855   8.767
 2702POPC   C2B37352  37.360  43.774   8.364
 2702POPC   C3B37353  37.282  44.028   8.053
 2702POPC   C4B37354  37.394  43.961   7.650
 2703POPC   NC337355  17.691   7.465   9.636
 2703POPC   PO437356  17.073   7.208   9.779
 2703POPC   GL137357  17.174   7.589   9.335
 2703POPC   GL237358  17.497   7.528   9.160
 2703POPC   C1A37359  17.192   7.645   8.795
 2703POPC   D2A37360  17.585   7.722   8.453
 2703POPC   C3A37361  17.557   7.575   7.996
 2703POPC   C4A37362  17.123   7.433   7.861
 2703POPC   C1B37363  17.569   7.283   8.756
 2703POPC   C2B37364  17.487   7.204   8.358
 2703POPC   C3B37365  17.699   7.020   8.052
 2703POPC   C4B37366  17.615   7.124   7.674
 2704POPC   NC337367   9.756  16.252   9.376
 2704POPC   PO437368   9.896  16.877   9.538
 2704POPC   GL137369   9.974  16.714   9.154
 2704POPC   GL237370   9.620  16.723   9.122
 2704POPC   C1A37371   9.962  16.858   8.731
 2704POPC   D2A37372  10.014  17.168   8.408
 2704POPC   C3A37373   9.942  16.924   8.034
 2704POPC   C4A37374   9.852  16.839   7.603
 2704POPC   C1B37375   9.420  16.818   8.762
 2704POPC   C2B37376   9.537  16.988   8.364
 2704POPC   C3B37377   9.412  16.968   7.908
 2704POPC   C4B37378   9.332  16.586   7.676
 2705POPC   NC337379  25.343   2.058   9.508
 2705POPC   PO437380  25.484   1.428   9.365
 2705POPC   GL137381  25.596   1.776   9.110
 2705POPC   GL237382  25.698   2.122   9.148
 2705POPC   C1A37383  25.384   1.986   8.764
 2705POPC   D2A37384  25.027   2.055   8.493
 2705POPC   C3A37385  25.083   2.014   8.049
 2705POPC   C4A37386  25.361   1.684   7.857
 2705POPC   C1B37387  25.777   2.308   8.734
 2705POPC   C2B37388  25.530   2.294   8.362
 2705POPC   C3B37389  25.593   2.143   7.981
 2705POPC   C4B37390  25.932   2.260   7.743
 2706POPC   NC337391   9.078  20.046   9.433
 2706POPC   PO437392   8.472  20.323   9.368
 2706POPC   GL137393   8.702  20.047   9.044
 2706POPC   GL237394   9.083  20.012   8.931
 2706POPC   C1A37395   8.723  19.711   8.731
 2706POPC   D2A37396   9.027  19.702   8.421
 2706POPC   C3A37397   8.854  19.797   8.054
 2706POPC   C4A37398   9.012  20.034   7.749
 2706POPC   C1B37399   9.286  19.589   8.844
 2706POPC   C2B37400   9.551  19.505   8.464
 2706POPC   C3B37401   9.460  19.650   8.035
 2706POPC   C4B37402   9.131  19.459   7.777
 2707POPC   NC337403   1.125  36.621   9.391
 2707POPC   PO437404   1.397  37.201   9.551
 2707POPC   GL137405   1.219  37.121   9.147
 2707POPC   GL237406   0.888  37.033   9.191
 2707POPC   C1A37407   1.376  36.987   8.741
 2707POPC   D2A37408   1.437  37.228   8.355
 2707POPC   C3A37409   1.493  37.155   7.898
 2707POPC   C4A37410   1.368  37.253   7.435
 2707POPC   C1B37411   0.874  36.971   8.738
 2707POPC   C2B37412   1.085  36.840   8.330
 2707POPC   C3B37413   1.106  36.843   7.860
 2707POPC   C4B37414   0.870  37.131   7.587
 2708POPC   NC337415   7.602  21.157   9.398
 2708POPC   PO437416   7.585  21.747   9.610
 2708POPC   GL137417   7.413  21.619   9.199
 2708POPC   GL237418   7.156  21.318   9.228
 2708POPC   C1A37419   7.564  21.464   8.781
 2708POPC   D2A37420   7.525  21.136   8.439
 2708POPC   C3A37421   7.417  21.335   8.040
 2708POPC   C4A37422   7.690  21.523   7.740
 2708POPC   C1B37423   7.179  21.127   8.833
 2708POPC   C2B37424   7.037  21.329   8.444
 2708POPC   C3B37425   6.919  21.185   8.045
 2708POPC   C4B37426   7.077  21.078   7.637
 2709POPC   NC337427  21.094   6.919  10.112
 2709POPC   PO437428  21.092   6.626   9.608
 2709POPC   GL137429  21.061   6.706   9.114
 2709POPC   GL237430  21.343   6.525   9.000
 2709POPC   C1A37431  20.943   6.496   8.670
 2709POPC   D2A37432  21.078   6.643   8.242
 2709POPC   C3A37433  20.937   6.482   7.855
 2709POPC   C4A37434  20.916   6.765   7.466
 2709POPC   C1B37435  21.456   6.474   8.551
 2709POPC   C2B37436  21.509   6.115   8.279
 2709POPC   C3B37437  21.796   6.080   7.898
 2709POPC   C4B37438  21.779   6.358   7.506
 2710POPC   NC337439  28.341   2.940   9.907
 2710POPC   PO437440  28.715   2.387   9.605
 2710POPC   GL137441  28.652   2.664   9.236
 2710POPC   GL237442  28.297   2.830   9.263
 2710POPC   C1A37443  28.678   2.765   8.783
 2710POPC   D2A37444  28.457   2.829   8.371
 2710POPC   C3A37445  28.743   2.830   8.052
 2710POPC   C4A37446  28.739   3.090   7.700
 2710POPC   C1B37447  28.188   2.765   8.801
 2710POPC   C2B37448  27.900   2.762   8.474
 2710POPC   C3B37449  27.943   2.800   8.061
 2710POPC   C4B37450  28.280   3.019   7.905
 2711POPC   NC337451  36.472  27.958   9.580
 2711POPC   PO437452  35.959  28.248   9.439
 2711POPC   GL137453  35.978  28.090   9.069
 2711POPC   GL237454  36.305  28.082   9.086
 2711POPC   C1A37455  36.039  28.284   8.691
 2711POPC   D2A37456  35.826  28.434   8.370
 2711POPC   C3A37457  35.962  28.161   8.072
 2711POPC   C4A37458  35.995  28.332   7.666
 2711POPC   C1B37459  36.593  28.108   8.756
 2711POPC   C2B37460  36.562  28.307   8.343
 2711POPC   C3B37461  36.462  28.188   7.898
 2711POPC   C4B37462  36.549  28.235   7.454
 2712POPC   NC337463   6.463  44.603   9.765
 2712POPC   PO437464   7.089  44.817   9.582
 2712POPC   GL137465   6.920  44.613   9.173
 2712POPC   GL237466   7.068  44.282   9.048
 2712POPC   C1A37467   6.591  44.616   8.795
 2712POPC   D2A37468   6.319  44.612   8.383
 2712POPC   C3A37469   6.472  44.598   7.956
 2712POPC   C4A37470   6.786  44.948   7.857
 2712POPC   C1B37471   6.935  44.277   8.632
 2712POPC   C2B37472   6.858  44.572   8.299
 2712POPC   C3B37473   6.952  44.454   7.884
 2712POPC   C4B37474   6.739  44.258   7.584
 2713POPC   NC337475   6.691  17.327   9.617
 2713POPC   PO437476   6.465  17.961   9.592
 2713POPC   GL137477   6.481  17.648   9.216
 2713POPC   GL237478   6.588  17.310   9.118
 2713POPC   C1A37479   6.516  17.624   8.752
 2713POPC   D2A37480   6.395  17.358   8.396
 2713POPC   C3A37481   6.504  17.396   7.954
 2713POPC   C4A37482   6.452  17.702   7.627
 2713POPC   C1B37483   6.792  17.200   8.726
 2713POPC   C2B37484   6.816  17.071   8.322
 2713POPC   C3B37485   7.009  17.349   8.032
 2713POPC   C4B37486   6.908  17.444   7.610
 2714POPC   NC337487  43.498  23.184   9.372
 2714POPC   PO437488  43.844  22.760   9.793
 2714POPC   GL137489  43.574  22.684   9.309
 2714POPC   GL237490  43.199  22.779   9.185
 2714POPC   C1A37491  43.533  22.690   8.828
 2714POPC   D2A37492  43.479  22.533   8.413
 2714POPC   C3A37493  43.295  22.773   8.078
 2714POPC   C4A37494  43.463  22.804   7.675
 2714POPC   C1B37495  43.123  23.015   8.783
 2714POPC   C2B37496  43.323  23.228   8.400
 2714POPC   C3B37497  43.385  23.266   7.936
 2714POPC   C4B37498  43.058  23.157   7.645
 2715POPC   NC337499  23.032   5.817   9.589
 2715POPC   PO437500  22.447   5.859   9.370
 2715POPC   GL137501  22.740   5.639   9.113
 2715POPC   GL237502  23.100   5.720   9.105
 2715POPC   C1A37503  22.862   5.566   8.691
 2715POPC   D2A37504  22.896   5.754   8.308
 2715POPC   C3A37505  22.696   5.769   7.913
 2715POPC   C4A37506  22.868   5.790   7.524
 2715POPC   C1B37507  23.115   6.060   8.799
 2715POPC   C2B37508  22.942   6.247   8.431
 2715POPC   C3B37509  22.886   6.239   8.002
 2715POPC   C4B37510  23.123   6.249   7.634
 2716POPC   NC337511   0.265  40.458   9.436
 2716POPC   PO437512  44.896  40.946   9.164
 2716POPC   GL137513   0.216  40.639   8.970
 2716POPC   GL237514   0.567  40.474   9.039
 2716POPC   C1A37515   0.341  40.542   8.576
 2716POPC   D2A37516   0.605  40.852   8.395
 2716POPC   C3A37517   0.377  40.943   8.044
 2716POPC   C4A37518   0.522  41.020   7.665
 2716POPC   C1B37519   0.843  40.492   8.702
 2716POPC   C2B37520   0.744  40.365   8.304
 2716POPC   C3B37521   0.778  40.623   7.944
 2716POPC   C4B37522   0.447  40.507   7.691
 2717POPC   NC337523  18.900  17.147   9.437
 2717POPC   PO437524  18.814  17.806   9.548
 2717POPC   GL137525  19.151  17.668   9.219
 2717POPC   GL237526  19.282  17.375   9.133
 2717POPC   C1A37527  19.274  17.840   8.818
 2717POPC   D2A37528  19.227  17.665   8.418
 2717POPC   C3A37529  19.009  17.689   8.053
 2717POPC   C4A37530  19.220  17.679   7.644
 2717POPC   C1B37531  19.052  17.318   8.766
 2717POPC   C2B37532  18.820  17.305   8.369
 2717POPC   C3B37533  18.896  17.168   7.945
 2717POPC   C4B37534  18.728  17.469   7.674
 2718POPC   NC337535   7.031  30.661   9.459
 2718POPC   PO437536   7.530  31.094   9.464
 2718POPC   GL137537   7.353  30.841   9.109
 2718POPC   GL237538   7.486  30.524   9.250
 2718POPC   C1A37539   7.276  30.796   8.654
 2718POPC   D2A37540   7.682  30.709   8.434
 2718POPC   C3A37541   7.705  30.581   7.998
 2718POPC   C4A37542   7.751  30.624   7.537
 2718POPC   C1B37543   7.546  30.402   8.832
 2718POPC   C2B37544   7.318  30.329   8.438
 2718POPC   C3B37545   7.106  30.409   8.091
 2718POPC   C4B37546   7.280  30.450   7.697
 2719POPC   NC337547  18.332  11.884   9.606
 2719POPC   PO437548  18.732  12.337   9.413
 2719POPC   GL137549  18.439  12.007   9.117
 2719POPC   GL237550  18.358  11.636   9.147
 2719POPC   C1A37551  18.287  11.978   8.663
 2719POPC   D2A37552  18.499  12.218   8.286
 2719POPC   C3A37553  18.295  12.164   7.891
 2719POPC   C4A37554  17.942  11.870   7.914
 2719POPC   C1B37555  18.578  11.551   8.743
 2719POPC   C2B37556  18.551  11.700   8.318
 2719POPC   C3B37557  18.417  11.659   7.932
 2719POPC   C4B37558  18.393  11.790   7.537
 2720POPC   NC337559  41.869   8.572  10.104
 2720POPC   PO437560  41.794   8.409   9.469
 2720POPC   GL137561  41.578   8.284   9.095
 2720POPC   GL237562  41.756   8.550   8.972
 2720POPC   C1A37563  41.411   8.058   8.727
 2720POPC   D2A37564  41.514   8.015   8.260
 2720POPC   C3A37565  41.389   8.196   7.860
 2720POPC   C4A37566  41.457   8.317   7.409
 2720POPC   C1B37567  41.740   8.412   8.548
 2720POPC   C2B37568  41.809   8.388   8.090
 2720POPC   C3B37569  41.906   7.980   7.844
 2720POPC   C4B37570  42.243   7.969   7.481
 2721POPC   NC337571  20.118  18.151   9.505
 2721POPC   PO437572  19.519  18.515   9.506
 2721POPC   GL137573  19.744  18.303   9.149
 2721POPC   GL237574  20.046  18.054   9.038
 2721POPC   C1A37575  19.815  18.383   8.735
 2721POPC   D2A37576  19.956  18.372   8.328
 2721POPC   C3A37577  19.690  18.449   7.959
 2721POPC   C4A37578  20.021  18.317   7.705
 2721POPC   C1B37579  19.983  17.891   8.678
 2721POPC   C2B37580  19.657  17.951   8.457
 2721POPC   C3B37581  19.779  17.948   8.054
 2721POPC   C4B37582  19.598  18.018   7.653
 2722POPC   NC337583  25.620  17.024   9.728
 2722POPC   PO437584  26.236  16.911   9.659
 2722POPC   GL137585  26.156  16.878   9.235
 2722POPC   GL237586  25.910  16.638   9.186
 2722POPC   C1A37587  26.153  16.947   8.784
 2722POPC   D2A37588  26.023  16.770   8.399
 2722POPC   C3A37589  26.356  16.658   8.106
 2722POPC   C4A37590  26.342  16.411   7.765
 2722POPC   C1B37591  25.690  17.008   8.977
 2722POPC   C2B37592  25.521  17.148   8.553
 2722POPC   C3B37593  25.632  16.994   8.136
 2722POPC   C4B37594  25.964  16.846   7.857
 2723POPC   NC337595   6.465   3.661   9.606
 2723POPC   PO437596   6.806   3.107   9.345
 2723POPC   GL137597   6.451   3.367   9.169
 2723POPC   GL237598   6.499   3.751   9.109
 2723POPC   C1A37599   6.440   3.399   8.733
 2723POPC   D2A37600   6.849   3.414   8.579
 2723POPC   C3A37601   6.823   3.447   8.165
 2723POPC   C4A37602   6.707   3.443   7.780
 2723POPC   C1B37603   6.640   3.879   8.707
 2723POPC   C2B37604   6.914   3.950   8.344
 2723POPC   C3B37605   6.792   3.931   7.922
 2723POPC   C4B37606   6.362   3.867   7.752
 2724POPC   NC337607   4.170  14.253   9.534
 2724POPC   PO437608   3.948  14.800   9.163
 2724POPC   GL137609   4.203  14.510   8.911
 2724POPC   GL237610   4.422  14.299   9.081
 2724POPC   C1A37611   4.193  14.119   8.650
 2724POPC   D2A37612   4.101  14.072   8.208
 2724POPC   C3A37613   4.268  14.401   7.951
 2724POPC   C4A37614   4.619  14.520   7.716
 2724POPC   C1B37615   4.704  14.206   8.732
 2724POPC   C2B37616   4.668  14.295   8.277
 2724POPC   C3B37617   4.606  14.028   7.900
 2724POPC   C4B37618   4.631  14.019   7.407
 2725POPC   NC337619  27.874  37.000   9.531
 2725POPC   PO437620  27.221  37.142   9.484
 2725POPC   GL137621  27.448  36.837   9.203
 2725POPC   GL237622  27.750  36.617   9.201
 2725POPC   C1A37623  27.617  36.983   8.816
 2725POPC   D2A37624  27.397  37.168   8.472
 2725POPC   C3A37625  27.547  37.177   8.066
 2725POPC   C4A37626  27.539  36.949   7.713
 2725POPC   C1B37627  27.756  36.480   8.788
 2725POPC   C2B37628  27.600  36.650   8.415
 2725POPC   C3B37629  27.685  36.556   8.010
 2725POPC   C4B37630  27.752  36.235   7.717
 2726POPC   NC337631   3.658   1.568   9.480
 2726POPC   PO437632   3.953   1.028   9.496
 2726POPC   GL137633   3.711   1.183   9.101
 2726POPC   GL237634   3.347   1.309   9.164
 2726POPC   C1A37635   3.675   1.124   8.617
 2726POPC   D2A37636   3.836   1.356   8.268
 2726POPC   C3A37637   3.941   1.100   7.934
 2726POPC   C4A37638   3.792   1.037   7.532
 2726POPC   C1B37639   3.306   0.946   8.907
 2726POPC   C2B37640   3.188   0.915   8.487
 2726POPC   C3B37641   3.166   1.058   8.078
 2726POPC   C4B37642   3.457   1.264   7.854
 2727POPC   NC337643  31.948  28.242   9.622
 2727POPC   PO437644  31.450  28.687   9.508
 2727POPC   GL137645  31.387  28.546   9.122
 2727POPC   GL237646  31.631  28.281   9.173
 2727POPC   C1A37647  31.550  28.601   8.719
 2727POPC   D2A37648  31.803  28.471   8.377
 2727POPC   C3A37649  31.572  28.548   8.045
 2727POPC   C4A37650  31.415  28.480   7.678
 2727POPC   C1B37651  31.435  28.106   8.814
 2727POPC   C2B37652  31.335  28.212   8.379
 2727POPC   C3B37653  31.391  28.039   7.961
 2727POPC   C4B37654  31.075  27.849   7.692
 2728POPC   NC337655  38.796  29.857   9.582
 2728POPC   PO437656  38.222  29.803   9.363
 2728POPC   GL137657  38.371  30.068   9.098
 2728POPC   GL237658  38.289  30.362   9.230
 2728POPC   C1A37659  38.518  29.932   8.722
 2728POPC   D2A37660  38.653  29.672   8.435
 2728POPC   C3A37661  38.461  29.842   8.077
 2728POPC   C4A37662  38.621  29.669   7.710
 2728POPC   C1B37663  38.192  30.462   8.808
 2728POPC   C2B37664  38.349  30.316   8.415
 2728POPC   C3B37665  38.183  30.292   8.026
 2728POPC   C4B37666  38.054  29.999   7.744
 2729POPC   NC337667  16.615  26.742   9.463
 2729POPC   PO437668  17.140  26.890   9.309
 2729POPC   GL137669  16.773  26.966   9.005
 2729POPC   GL237670  16.394  27.001   9.079
 2729POPC   C1A37671  16.651  26.891   8.561
 2729POPC   D2A37672  16.800  26.683   8.166
 2729POPC   C3A37673  16.905  26.958   7.800
 2729POPC   C4A37674  16.583  27.265   7.617
 2729POPC   C1B37675  16.257  26.658   8.820
 2729POPC   C2B37676  16.366  26.449   8.455
 2729POPC   C3B37677  16.325  26.476   8.039
 2729POPC   C4B37678  16.431  26.829   7.841
 2730POPC   NC337679  29.398  21.613   9.374
 2730POPC   PO437680  28.895  22.046   9.368
 2730POPC   GL137681  29.047  22.188   9.010
 2730POPC   GL237682  29.344  22.057   9.032
 2730POPC   C1A37683  29.065  22.084   8.578
 2730POPC   D2A37684  28.773  21.905   8.289
 2730POPC   C3A37685  28.992  22.127   7.999
 2730POPC   C4A37686  29.328  22.449   7.983
 2730POPC   C1B37687  29.536  21.928   8.647
 2730POPC   C2B37688  29.453  21.956   8.201
 2730POPC   C3B37689  29.440  21.976   7.745
 2730POPC   C4B37690  29.301  21.734   7.391
 2731POPC   NC337691  38.060  37.536   9.453
 2731POPC   PO437692  38.755  37.572   9.605
 2731POPC   GL137693  38.572  37.682   9.209
 2731POPC   GL237694  38.792  37.953   9.135
 2731POPC   C1A37695  38.288  37.646   8.821
 2731POPC   D2A37696  38.194  37.327   8.468
 2731POPC   C3A37697  38.293  37.515   8.070
 2731POPC   C4A37698  38.225  37.351   7.665
 2731POPC   C1B37699  38.550  38.146   8.803
 2731POPC   C2B37700  38.474  37.951   8.393
 2731POPC   C3B37701  38.741  37.788   8.046
 2731POPC   C4B37702  38.517  37.764   7.669
 2732POPC   NC337703  40.845  10.937   9.430
 2732POPC   PO437704  40.951  11.661   9.504
 2732POPC   GL137705  40.978  11.414   9.131
 2732POPC   GL237706  40.689  11.176   9.030
 2732POPC   C1A37707  40.798  11.562   8.751
 2732POPC   D2A37708  40.892  11.290   8.460
 2732POPC   C3A37709  40.817  11.383   8.071
 2732POPC   C4A37710  40.685  11.452   7.660
 2732POPC   C1B37711  40.586  10.929   8.683
 2732POPC   C2B37712  40.719  10.854   8.256
 2732POPC   C3B37713  40.470  10.987   7.925
 2732POPC   C4B37714  40.487  11.033   7.446
 2733POPC   NC337715  13.611  17.155   9.603
 2733POPC   PO437716  14.128  17.504   9.514
 2733POPC   GL137717  13.854  17.419   9.141
 2733POPC   GL237718  13.480  17.429   9.146
 2733POPC   C1A37719  13.721  17.426   8.703
 2733POPC   D2A37720  13.473  17.399   8.332
 2733POPC   C3A37721  13.698  17.362   7.933
 2733POPC   C4A37722  14.119  17.236   7.888
 2733POPC   C1B37723  13.361  17.770   8.828
 2733POPC   C2B37724  13.139  17.790   8.426
 2733POPC   C3B37725  13.229  17.675   7.974
 2733POPC   C4B37726  13.297  17.400   7.610
 2734POPC   NC337727  38.597   0.084   9.426
 2734POPC   PO437728  38.273   0.665   9.521
 2734POPC   GL137729  38.360   0.486   9.118
 2734POPC   GL237730  38.249   0.840   9.033
 2734POPC   C1A37731  38.317   0.232   8.700
 2734POPC   D2A37732  38.536   0.209   8.315
 2734POPC   C3A37733  38.365   0.092   7.928
 2734POPC   C4A37734  38.529   0.260   7.578
 2734POPC   C1B37735  38.440   0.727   8.659
 2734POPC   C2B37736  38.208   0.592   8.338
 2734POPC   C3B37737  38.266   0.584   7.923
 2734POPC   C4B37738  38.095   0.510   7.531
 2735POPC   NC337739  21.084  39.568   9.453
 2735POPC   PO437740  21.344  40.178   9.651
 2735POPC   GL137741  21.111  40.056   9.234
 2735POPC   GL237742  20.887  40.295   9.057
 2735POPC   C1A37743  21.168  39.822   8.839
 2735POPC   D2A37744  21.498  39.862   8.506
 2735POPC   C3A37745  21.433  39.805   8.058
 2735POPC   C4A37746  21.211  39.824   7.679
 2735POPC   C1B37747  21.231  40.322   8.728
 2735POPC   C2B37748  21.359  40.375   8.294
 2735POPC   C3B37749  21.445  40.330   7.867
 2735POPC   C4B37750  21.641  40.089   7.545
 2736POPC   NC337751  34.047   6.462   9.503
 2736POPC   PO437752  34.693   6.572   9.557
 2736POPC   GL137753  34.628   6.677   9.155
 2736POPC   GL237754  34.282   6.813   9.172
 2736POPC   C1A37755  34.770   6.488   8.791
 2736POPC   D2A37756  34.613   6.438   8.380
 2736POPC   C3A37757  34.890   6.351   8.080
 2736POPC   C4A37758  34.822   6.539   7.732
 2736POPC   C1B37759  34.328   6.762   8.738
 2736POPC   C2B37760  34.548   6.951   8.408
 2736POPC   C3B37761  34.491   6.790   8.003
 2736POPC   C4B37762  34.769   7.036   7.732
 2737POPC   NC337763  30.901  32.569   9.839
 2737POPC   PO437764  30.534  33.163   9.601
 2737POPC   GL137765  30.574  33.190   9.148
 2737POPC   GL237766  30.704  32.889   9.139
 2737POPC   C1A37767  30.581  33.332   8.679
 2737POPC   D2A37768  30.718  33.138   8.278
 2737POPC   C3A37769  30.699  33.287   7.857
 2737POPC   C4A37770  30.501  33.302   7.455
 2737POPC   C1B37771  30.659  32.806   8.705
 2737POPC   C2B37772  30.733  32.624   8.293
 2737POPC   C3B37773  30.838  32.788   7.898
 2737POPC   C4B37774  30.534  32.507   7.706
 2738POPC   NC337775  44.952  34.559  10.014
 2738POPC   PO437776  44.986  34.258   9.416
 2738POPC   GL137777  44.998  34.573   9.076
 2738POPC   GL237778   0.355  34.589   9.007
 2738POPC   C1A37779   0.054  34.643   8.609
 2738POPC   D2A37780   0.287  34.406   8.313
 2738POPC   C3A37781   0.301  34.577   7.921
 2738POPC   C4A37782   0.395  34.980   7.770
 2738POPC   C1B37783   0.632  34.346   8.712
 2738POPC   C2B37784   0.666  34.058   8.359
 2738POPC   C3B37785   0.636  34.135   7.938
 2738POPC   C4B37786   0.512  34.277   7.560
 2739POPC   NC337787  12.208  26.524   9.873
 2739POPC   PO437788  12.062  26.577   9.215
 2739POPC   GL137789  12.238  26.866   8.929
 2739POPC   GL237790  11.979  27.109   8.892
 2739POPC   C1A37791  12.115  26.830   8.491
 2739POPC   D2A37792  12.069  26.492   8.239
 2739POPC   C3A37793  12.303  26.520   7.901
 2739POPC   C4A37794  12.207  26.691   7.510
 2739POPC   C1B37795  12.360  27.270   8.603
 2739POPC   C2B37796  12.438  27.122   8.161
 2739POPC   C3B37797  12.071  26.978   7.942
 2739POPC   C4B37798  11.823  27.130   7.609
 2740POPC   NC337799   4.017  27.821   9.527
 2740POPC   PO437800   4.520  27.358   9.471
 2740POPC   GL137801   4.389  27.560   9.072
 2740POPC   GL237802   4.032  27.469   9.058
 2740POPC   C1A37803   4.297  27.613   8.595
 2740POPC   D2A37804   4.173  27.411   8.249
 2740POPC   C3A37805   4.489  27.550   7.979
 2740POPC   C4A37806   4.434  27.719   7.627
 2740POPC   C1B37807   4.066  27.922   8.900
 2740POPC   C2B37808   4.055  28.094   8.482
 2740POPC   C3B37809   4.150  27.912   8.074
 2740POPC   C4B37810   3.929  27.729   7.760
 2741POPC   NC337811  16.654  28.940   9.638
 2741POPC   PO437812  16.616  28.361   9.599
 2741POPC   GL137813  16.722  28.641   9.196
 2741POPC   GL237814  16.584  29.011   9.145
 2741POPC   C1A37815  16.778  28.523   8.737
 2741POPC   D2A37816  16.820  28.745   8.321
 2741POPC   C3A37817  16.720  28.518   7.898
 2741POPC   C4A37818  16.930  28.377   7.509
 2741POPC   C1B37819  16.453  28.916   8.712
 2741POPC   C2B37820  16.401  29.047   8.261
 2741POPC   C3B37821  16.506  28.969   7.797
 2741POPC   C4B37822  16.516  28.680   7.428
 2742POPC   NC337823  36.055  21.053   9.692
 2742POPC   PO437824  36.315  20.606   9.349
 2742POPC   GL137825  36.285  20.719   9.000
 2742POPC   GL237826  35.951  20.586   8.971
 2742POPC   C1A37827  36.308  20.620   8.622
 2742POPC   D2A37828  36.021  20.474   8.339
 2742POPC   C3A37829  36.292  20.514   8.005
 2742POPC   C4A37830  36.295  20.399   7.598
 2742POPC   C1B37831  35.728  20.826   8.711
 2742POPC   C2B37832  35.572  20.717   8.359
 2742POPC   C3B37833  35.704  20.851   7.979
 2742POPC   C4B37834  35.960  20.747   7.636
 2743POPC   NC337835  29.405  29.122   9.494
 2743POPC   PO437836  28.748  29.030   9.389
 2743POPC   GL137837  29.089  29.145   9.079
 2743POPC   GL237838  29.416  28.929   9.030
 2743POPC   C1A37839  29.079  29.326   8.672
 2743POPC   D2A37840  29.195  29.538   8.292
 2743POPC   C3A37841  29.155  29.371   7.859
 2743POPC   C4A37842  29.009  29.175   7.486
 2743POPC   C1B37843  29.497  29.028   8.600
 2743POPC   C2B37844  29.250  29.037   8.249
 2743POPC   C3B37845  29.185  28.853   7.865
 2743POPC   C4B37846  29.449  28.938   7.559
 2744POPC   NC337847  39.166  11.605   9.667
 2744POPC   PO437848  39.735  11.355   9.510
 2744POPC   GL137849  39.439  11.461   9.178
 2744POPC   GL237850  39.494  11.812   9.172
 2744POPC   C1A37851  39.322  11.269   8.761
 2744POPC   D2A37852  39.423  11.115   8.335
 2744POPC   C3A37853  39.109  11.190   8.029
 2744POPC   C4A37854  39.152  11.182   7.587
 2744POPC   C1B37855  39.488  11.757   8.722
 2744POPC   C2B37856  39.246  11.700   8.365
 2744POPC   C3B37857  39.459  11.571   8.018
 2744POPC   C4B37858  39.464  11.630   7.573
 2745POPC   NC337859   6.214  18.727   9.266
 2745POPC   PO437860   6.721  18.830   9.694
 2745POPC   GL137861   6.691  18.972   9.247
 2745POPC   GL237862   6.998  18.931   9.053
 2745POPC   C1A37863   6.574  19.042   8.792
 2745POPC   D2A37864   6.820  19.020   8.388
 2745POPC   C3A37865   6.526  18.970   8.021
 2745POPC   C4A37866   6.554  19.010   7.545
 2745POPC   C1B37867   6.933  19.385   8.812
 2745POPC   C2B37868   6.697  19.493   8.415
 2745POPC   C3B37869   6.806  19.399   7.990
 2745POPC   C4B37870   6.946  19.373   7.554
 2746POPC   NC337871  19.898  18.803   9.426
 2746POPC   PO437872  19.764  19.480   9.416
 2746POPC   GL137873  19.647  19.153   9.086
 2746POPC   GL237874  19.540  18.781   9.054
 2746POPC   C1A37875  19.499  19.078   8.645
 2746POPC   D2A37876  19.494  18.892   8.215
 2746POPC   C3A37877  19.724  19.156   7.943
 2746POPC   C4A37878  20.140  19.251   7.877
 2746POPC   C1B37879  19.947  18.865   8.790
 2746POPC   C2B37880  19.972  18.999   8.386
 2746POPC   C3B37881  20.048  18.788   8.034
 2746POPC   C4B37882  19.896  18.812   7.606
 2747POPC   NC337883  13.142  10.842   9.472
 2747POPC   PO437884  12.798  11.451   9.553
 2747POPC   GL137885  12.784  11.147   9.212
 2747POPC   GL237886  12.972  11.382   9.090
 2747POPC   C1A37887  12.675  10.958   8.787
 2747POPC   D2A37888  12.762  11.151   8.360
 2747POPC   C3A37889  12.760  10.977   7.955
 2747POPC   C4A37890  12.724  11.182   7.584
 2747POPC   C1B37891  12.767  11.489   8.738
 2747POPC   C2B37892  12.948  11.636   8.368
 2747POPC   C3B37893  13.080  11.494   7.978
 2747POPC   C4B37894  13.315  11.590   7.595
 2748POPC   NC337895  19.926  40.547   9.689
 2748POPC   PO437896  19.790  41.202   9.478
 2748POPC   GL137897  19.942  40.821   9.250
 2748POPC   GL237898  19.635  40.605   9.239
 2748POPC   C1A37899  19.999  40.655   8.827
 2748POPC   D2A37900  20.232  40.886   8.442
 2748POPC   C3A37901  19.971  40.808   8.051
 2748POPC   C4A37902  19.655  41.064   7.843
 2748POPC   C1B37903  19.491  40.495   8.819
 2748POPC   C2B37904  19.621  40.627   8.421
 2748POPC   C3B37905  19.514  40.578   8.009
 2748POPC   C4B37906  19.734  40.584   7.633
 2749POPC   NC337907   4.951  21.319   9.557
 2749POPC   PO437908   5.244  21.824   9.796
 2749POPC   GL137909   5.092  21.692   9.248
 2749POPC   GL237910   4.867  21.510   9.097
 2749POPC   C1A37911   5.217  21.743   8.788
 2749POPC   D2A37912   5.195  21.441   8.438
 2749POPC   C3A37913   5.239  21.597   8.009
 2749POPC   C4A37914   4.847  21.681   7.806
 2749POPC   C1B37915   4.970  21.168   8.841
 2749POPC   C2B37916   4.798  21.098   8.436
 2749POPC   C3B37917   4.919  21.198   8.030
 2749POPC   C4B37918   4.701  21.233   7.636
 2750POPC   NC337919   1.181  44.257   9.293
 2750POPC   PO437920   1.218  44.879   9.474
 2750POPC   GL137921   1.162  44.718   9.060
 2750POPC   GL237922   1.528  44.616   9.089
 2750POPC   C1A37923   1.073  44.830   8.617
 2750POPC   D2A37924   1.265  44.734   8.239
 2750POPC   C3A37925   1.131  44.740   7.842
 2750POPC   C4A37926   0.873   0.019   7.757
 2750POPC   C1B37927   1.497  44.538   8.674
 2750POPC   C2B37928   1.533  44.317   8.307
 2750POPC   C3B37929   1.540  44.410   7.882
 2750POPC   C4B37930   1.525  44.193   7.488
 2751POPC   NC337931  25.688  35.658   9.334
 2751POPC   PO437932  26.015  35.074   9.560
 2751POPC   GL137933  25.797  35.164   9.213
 2751POPC   GL237934  26.052  35.355   9.094
 2751POPC   C1A37935  25.700  35.194   8.768
 2751POPC   D2A37936  25.766  35.457   8.393
 2751POPC   C3A37937  25.772  35.169   8.049
 2751POPC   C4A37938  25.845  35.203   7.615
 2751POPC   C1B37939  26.159  35.572   8.717
 2751POPC   C2B37940  26.244  35.619   8.264
 2751POPC   C3B37941  26.279  35.327   7.923
 2751POPC   C4B37942  26.610  35.038   7.786
 2752POPC   NC337943  20.594  38.770   9.535
 2752POPC   PO437944  20.159  38.309   9.522
 2752POPC   GL137945  20.356  38.303   9.104
 2752POPC   GL237946  20.680  38.451   9.159
 2752POPC   C1A37947  20.465  38.507   8.686
 2752POPC   D2A37948  20.756  38.705   8.379
 2752POPC   C3A37949  20.698  38.537   7.957
 2752POPC   C4A37950  20.359  38.259   7.789
 2752POPC   C1B37951  20.841  38.179   8.890
 2752POPC   C2B37952  21.004  38.283   8.498
 2752POPC   C3B37953  21.137  38.285   8.070
 2752POPC   C4B37954  20.959  38.135   7.694
 2753POPC   NC337955  31.829  18.404   9.212
 2753POPC   PO437956  32.428  18.199   9.285
 2753POPC   GL137957  32.361  18.582   9.016
 2753POPC   GL237958  32.080  18.845   9.092
 2753POPC   C1A37959  32.453  18.464   8.570
 2753POPC   D2A37960  32.591  18.561   8.149
 2753POPC   C3A37961  32.295  18.420   7.841
 2753POPC   C4A37962  32.092  18.016   7.784
 2753POPC   C1B37963  32.031  18.753   8.632
 2753POPC   C2B37964  32.006  18.414   8.304
 2753POPC   C3B37965  31.787  18.486   7.930
 2753POPC   C4B37966  31.874  18.722   7.579
 2754POPC   NC337967  38.353  15.795   9.737
 2754POPC   PO437968  38.634  16.109   9.254
 2754POPC   GL137969  38.335  15.865   9.042
 2754POPC   GL237970  37.975  15.925   8.956
 2754POPC   C1A37971  38.318  15.722   8.623
 2754POPC   D2A37972  38.185  15.904   8.246
 2754POPC   C3A37973  38.334  15.732   7.856
 2754POPC   C4A37974  38.379  15.969   7.449
 2754POPC   C1B37975  38.251  16.244   8.702
 2754POPC   C2B37976  38.625  16.241   8.413
 2754POPC   C3B37977  38.552  16.158   7.966
 2754POPC   C4B37978  38.067  16.171   7.798
 2755POPC   NC337979  31.025  23.475   9.507
 2755POPC   PO437980  30.507  23.937   9.374
 2755POPC   GL137981  30.619  23.575   9.082
 2755POPC   GL237982  30.983  23.560   9.011
 2755POPC   C1A37983  30.527  23.550   8.614
 2755POPC   D2A37984  30.243  23.480   8.226
 2755POPC   C3A37985  30.433  23.669   7.861
 2755POPC   C4A37986  30.582  23.621   7.434
 2755POPC   C1B37987  31.017  23.963   8.812
 2755POPC   C2B37988  30.795  24.076   8.446
 2755POPC   C3B37989  30.815  23.986   8.017
 2755POPC   C4B37990  30.931  23.544   7.971
 2756POPC   NC337991  24.983  38.778   9.559
 2756POPC   PO437992  25.474  39.231   9.444
 2756POPC   GL137993  25.256  39.229   9.066
 2756POPC   GL237994  24.991  39.022   9.108
 2756POPC   C1A37995  25.306  39.418   8.645
 2756POPC   D2A37996  25.284  39.335   8.206
 2756POPC   C3A37997  25.475  39.488   7.867
 2756POPC   C4A37998  25.397  39.264   7.508
 2756POPC   C1B37999  25.149  38.889   8.690
 2756POPC   C2B38000  25.060  38.719   8.261
 2756POPC   C3B38001  25.137  38.931   7.848
 2756POPC   C4B38002  24.919  39.111   7.473
 2757POPC   NC338003  41.904  44.840   9.328
 2757POPC   PO438004  42.378  44.492   9.718
 2757POPC   GL138005  42.381  44.683   9.262
 2757POPC   GL238006  42.704  44.714   9.109
 2757POPC   C1A38007  42.314  44.831   8.819
 2757POPC   D2A38008  42.244  44.618   8.430
 2757POPC   C3A38009  42.306  44.758   7.995
 2757POPC   C4A38010  42.082  44.546   7.683
 2757POPC   C1B38011  42.798  44.783   8.687
 2757POPC   C2B38012  42.742  44.572   8.296
 2757POPC   C3B38013  42.797  44.681   7.863
 2757POPC   C4B38014  42.609  44.684   7.442
 2758POPC   NC338015  12.725  17.592   9.450
 2758POPC   PO438016  13.183  17.179   9.478
 2758POPC   GL138017  12.986  17.193   9.106
 2758POPC   GL238018  12.615  17.235   9.083
 2758POPC   C1A38019  13.104  17.327   8.704
 2758POPC   D2A38020  12.982  17.272   8.287
 2758POPC   C3A38021  12.714  17.483   7.974
 2758POPC   C4A38022  12.804  17.451   7.524
 2758POPC   C1B38023  12.571  17.349   8.613
 2758POPC   C2B38024  12.279  17.555   8.294
 2758POPC   C3B38025  12.268  17.864   7.962
 2758POPC   C4B38026  12.454  17.797   7.596
 2759POPC   NC338027  37.100  26.102   9.345
 2759POPC   PO438028  37.740  26.037   9.601
 2759POPC   GL138029  37.611  26.115   9.216
 2759POPC   GL238030  37.852  26.373   9.194
 2759POPC   C1A38031  37.559  25.922   8.814
 2759POPC   D2A38032  37.827  25.845   8.469
 2759POPC   C3A38033  37.616  25.849   8.093
 2759POPC   C4A38034  37.861  25.930   7.712
 2759POPC   C1B38035  37.592  26.453   8.823
 2759POPC   C2B38036  37.502  26.289   8.415
 2759POPC   C3B38037  37.671  26.343   8.005
 2759POPC   C4B38038  37.478  26.244   7.638
 2760POPC   NC338039   9.703  41.155   9.229
 2760POPC   PO438040   9.832  41.640   9.622
 2760POPC   GL138041   9.938  41.633   9.140
 2760POPC   GL238042   9.950  41.347   8.851
 2760POPC   C1A38043   9.943  41.830   8.731
 2760POPC   D2A38044   9.990  41.566   8.384
 2760POPC   C3A38045   9.671  41.616   8.096
 2760POPC   C4A38046   9.876  41.744   7.764
 2760POPC   C1B38047   9.554  41.458   8.657
 2760POPC   C2B38048   9.491  41.169   8.344
 2760POPC   C3B38049   9.863  41.135   8.105
 2760POPC   C4B38050   9.620  41.177   7.766
 2761POPC   NC338051  24.489  12.428   9.455
 2761POPC   PO438052  24.279  11.837   9.651
 2761POPC   GL138053  24.387  11.891   9.195
 2761POPC   GL238054  24.448  12.225   9.005
 2761POPC   C1A38055  24.520  11.783   8.763
 2761POPC   D2A38056  24.356  11.774   8.336
 2761POPC   C3A38057  24.552  12.052   8.049
 2761POPC   C4A38058  24.829  11.903   7.715
 2761POPC   C1B38059  24.180  12.478   8.764
 2761POPC   C2B38060  24.124  12.330   8.362
 2761POPC   C3B38061  24.263  12.495   7.986
 2761POPC   C4B38062  24.161  12.452   7.556
 2762POPC   NC338063  27.764  15.389   9.670
 2762POPC   PO438064  27.454  14.768   9.536
 2762POPC   GL138065  27.689  15.109   9.231
 2762POPC   GL238066  27.847  14.946   8.927
 2762POPC   C1A38067  27.866  15.447   8.922
 2762POPC   D2A38068  27.893  15.365   8.421
 2762POPC   C3A38069  27.678  15.507   7.995
 2762POPC   C4A38070  27.560  15.359   7.545
 2762POPC   C1B38071  27.472  15.187   8.741
 2762POPC   C2B38072  27.341  15.294   8.320
 2762POPC   C3B38073  27.324  15.104   7.913
 2762POPC   C4B38074  27.754  14.925   7.781
 2763POPC   NC338075  34.167  33.166   9.459
 2763POPC   PO438076  33.620  33.409   9.621
 2763POPC   GL138077  33.688  33.096   9.244
 2763POPC   GL238078  33.433  33.292   9.139
 2763POPC   C1A38079  33.856  33.096   8.824
 2763POPC   D2A38080  33.931  32.900   8.435
 2763POPC   C3A38081  33.874  33.097   8.075
 2763POPC   C4A38082  34.052  33.102   7.715
 2763POPC   C1B38083  33.341  33.140   8.767
 2763POPC   C2B38084  33.512  33.230   8.405
 2763POPC   C3B38085  33.371  33.045   8.047
 2763POPC   C4B38086  33.565  32.956   7.671
 2764POPC   NC338087  37.702   4.204   9.619
 2764POPC   PO438088  37.089   4.579   9.530
 2764POPC   GL138089  37.487   4.533   9.250
 2764POPC   GL238090  37.847   4.514   9.139
 2764POPC   C1A38091  37.490   4.397   8.789
 2764POPC   D2A38092  37.794   4.291   8.468
 2764POPC   C3A38093  37.669   4.294   8.031
 2764POPC   C4A38094  37.734   4.158   7.582
 2764POPC   C1B38095  37.810   4.786   8.755
 2764POPC   C2B38096  37.602   4.757   8.357
 2764POPC   C3B38097  37.590   4.792   7.924
 2764POPC   C4B38098  37.858   4.701   7.558
 2765POPC   NC338099  10.852  33.532   9.665
 2765POPC   PO438100  10.362  33.965   9.503
 2765POPC   GL138101  10.286  33.970   9.080
 2765POPC   GL238102  10.168  33.611   9.138
 2765POPC   C1A38103  10.471  34.167   8.682
 2765POPC   D2A38104  10.539  34.154   8.201
 2765POPC   C3A38105  10.683  33.767   8.103
 2765POPC   C4A38106  10.798  33.574   7.771
 2765POPC   C1B38107  10.379  33.550   8.767
 2765POPC   C2B38108  10.280  33.764   8.411
 2765POPC   C3B38109  10.145  33.856   8.010
 2765POPC   C4B38110  10.236  33.630   7.654
 2766POPC   NC338111   3.400  14.206   9.479
 2766POPC   PO438112   3.871  14.579   9.684
 2766POPC   GL138113   3.788  14.330   9.178
 2766POPC   GL238114   3.431  14.333   9.002
 2766POPC   C1A38115   3.763  14.409   8.660
 2766POPC   D2A38116   3.387  14.323   8.386
 2766POPC   C3A38117   3.429  14.442   7.966
 2766POPC   C4A38118   3.823  14.528   7.760
 2766POPC   C1B38119   3.149  14.057   8.745
 2766POPC   C2B38120   3.035  13.935   8.319
 2766POPC   C3B38121   3.116  13.975   7.849
 2766POPC   C4B38122   3.254  14.060   7.419
 2767POPC   NC338123  32.586  17.777   9.370
 2767POPC   PO438124  32.155  17.257   9.480
 2767POPC   GL138125  32.344  17.390   9.119
 2767POPC   GL238126  32.687  17.290   9.175
 2767POPC   C1A38127  32.380  17.607   8.709
 2767POPC   D2A38128  32.610  17.705   8.306
 2767POPC   C3A38129  32.371  17.585   7.919
 2767POPC   C4A38130  32.033  17.530   7.602
 2767POPC   C1B38131  32.599  17.151   8.751
 2767POPC   C2B38132  32.437  17.213   8.339
 2767POPC   C3B38133  32.623  17.130   7.930
 2767POPC   C4B38134  32.495  17.280   7.505
 2768POPC   NC338135   3.703  31.621   9.426
 2768POPC   PO438136   3.540  32.138   9.561
 2768POPC   GL138137   3.559  32.159   9.093
 2768POPC   GL238138   3.766  31.876   9.006
 2768POPC   C1A38139   3.343  32.280   8.674
 2768POPC   D2A38140   3.492  32.381   8.243
 2768POPC   C3A38141   3.667  32.137   7.882
 2768POPC   C4A38142   3.578  32.402   7.490
 2768POPC   C1B38143   3.736  31.987   8.602
 2768POPC   C2B38144   3.434  31.884   8.286
 2768POPC   C3B38145   3.489  31.628   7.936
 2768POPC   C4B38146   3.797  31.629   7.597
 2769POPC   NC338147  14.822  22.128   9.771
 2769POPC   PO438148  14.384  22.446   9.362
 2769POPC   GL138149  14.368  22.302   8.977
 2769POPC   GL238150  14.477  21.958   8.920
 2769POPC   C1A38151  14.174  22.413   8.618
 2769POPC   D2A38152  14.331  22.147   8.315
 2769POPC   C3A38153  14.424  22.329   7.934
 2769POPC   C4A38154  14.333  22.143   7.509
 2769POPC   C1B38155  14.104  21.839   8.687
 2769POPC   C2B38156  13.920  21.804   8.263
 2769POPC   C3B38157  14.159  21.801   7.888
 2769POPC   C4B38158  14.527  21.663   7.676
 2770POPC   NC338159  18.390  40.750   9.951
 2770POPC   PO438160  18.237  40.330   9.495
 2770POPC   GL138161  18.203  40.703   9.168
 2770POPC   GL238162  17.949  40.897   8.997
 2770POPC   C1A38163  18.386  40.844   8.754
 2770POPC   D2A38164  18.312  40.855   8.293
 2770POPC   C3A38165  18.561  40.784   7.924
 2770POPC   C4A38166  18.445  40.534   7.566
 2770POPC   C1B38167  17.853  40.620   8.660
 2770POPC   C2B38168  17.879  40.593   8.194
 2770POPC   C3B38169  18.052  40.785   7.826
 2770POPC   C4B38170  17.835  41.061   7.537
 2771POPC   NC338171   5.083  16.336   9.614
 2771POPC   PO438172   5.290  16.968   9.632
 2771POPC   GL138173   5.128  16.739   9.274
 2771POPC   GL238174   5.360  16.452   9.181
 2771POPC   C1A38175   4.845  16.814   8.923
 2771POPC   D2A38176   4.988  16.789   8.496
 2771POPC   C3A38177   4.904  16.662   8.099
 2771POPC   C4A38178   4.934  16.825   7.731
 2771POPC   C1B38179   5.419  16.609   8.756
 2771POPC   C2B38180   5.363  16.525   8.317
 2771POPC   C3B38181   5.422  16.703   7.954
 2771POPC   C4B38182   5.435  16.691   7.539
 2772POPC   NC338183  43.211  18.550   9.519
 2772POPC   PO438184  42.904  19.029   9.539
 2772POPC   GL138185  43.152  19.130   9.163
 2772POPC   GL238186  43.451  19.344   9.193
 2772POPC   C1A38187  43.030  19.200   8.716
 2772POPC   D2A38188  43.051  18.947   8.343
 2772POPC   C3A38189  42.975  19.160   7.952
 2772POPC   C4A38190  43.102  19.219   7.517
 2772POPC   C1B38191  43.471  19.457   8.713
 2772POPC   C2B38192  43.397  19.322   8.254
 2772POPC   C3B38193  43.514  19.359   7.786
 2772POPC   C4B38194  43.588  19.589   7.392
 2773POPC   NC338195  38.164  35.603   9.390
 2773POPC   PO438196  38.687  35.627   9.812
 2773POPC   GL138197  38.610  35.406   9.300
 2773POPC   GL238198  38.546  35.071   9.078
 2773POPC   C1A38199  38.500  35.521   8.834
 2773POPC   D2A38200  38.709  35.296   8.540
 2773POPC   C3A38201  38.628  35.404   8.151
 2773POPC   C4A38202  38.352  35.456   7.812
 2773POPC   C1B38203  38.256  35.092   8.682
 2773POPC   C2B38204  38.147  35.272   8.321
 2773POPC   C3B38205  38.142  35.050   7.986
 2773POPC   C4B38206  37.936  35.171   7.658
 2774POPC   NC338207  11.002  21.021   9.361
 2774POPC   PO438208  11.485  21.247   9.813
 2774POPC   GL138209  11.398  21.343   9.272
 2774POPC   GL238210  11.268  21.711   9.187
 2774POPC   C1A38211  11.155  21.298   8.824
 2774POPC   D2A38212  11.174  21.084   8.436
 2774POPC   C3A38213  11.265  21.227   8.047
 2774POPC   C4A38214  11.075  21.518   7.828
 2774POPC   C1B38215  11.505  21.647   8.827
 2774POPC   C2B38216  11.343  21.593   8.425
 2774POPC   C3B38217  11.622  21.634   8.125
 2774POPC   C4B38218  11.652  21.458   7.774
 2775POPC   NC338219  31.929  27.369   9.496
 2775POPC   PO438220  31.230  27.379   9.391
 2775POPC   GL138221  31.411  27.636   9.091
 2775POPC   GL238222  31.750  27.756   9.191
 2775POPC   C1A38223  31.242  27.651   8.667
 2775POPC   D2A38224  31.068  27.733   8.259
 2775POPC   C3A38225  31.346  27.515   7.983
 2775POPC   C4A38226  31.737  27.655   7.839
 2775POPC   C1B38227  31.780  27.689   8.741
 2775POPC   C2B38228  31.757  27.910   8.341
 2775POPC   C3B38229  31.906  28.151   7.976
 2775POPC   C4B38230  31.736  28.106   7.571
 2776POPC   NC338231  42.390  27.474   9.500
 2776POPC   PO438232  41.802  27.898   9.457
 2776POPC   GL138233  42.085  27.696   9.170
 2776POPC   GL238234  41.934  27.754   8.915
 2776POPC   C1A38235  42.411  27.662   8.796
 2776POPC   D2A38236  42.253  27.379   8.466
 2776POPC   C3A38237  42.440  27.219   8.082
 2776POPC   C4A38238  42.396  27.371   7.678
 2776POPC   C1B38239  41.928  27.877   8.533
 2776POPC   C2B38240  42.262  27.895   8.319
 2776POPC   C3B38241  42.428  27.730   8.030
 2776POPC   C4B38242  42.560  27.904   7.699
 2777POPC   NC338243  41.336  40.411   9.337
 2777POPC   PO438244  41.609  39.853   9.636
 2777POPC   GL138245  41.612  40.007   9.202
 2777POPC   GL238246  41.256  39.997   9.041
 2777POPC   C1A38247  41.716  39.854   8.790
 2777POPC   D2A38248  41.704  39.752   8.360
 2777POPC   C3A38249  41.369  39.898   8.090
 2777POPC   C4A38250  41.439  39.865   7.663
 2777POPC   C1B38251  41.267  40.066   8.584
 2777POPC   C2B38252  41.342  40.378   8.255
 2777POPC   C3B38253  41.434  40.353   7.846
 2777POPC   C4B38254  41.169  40.247   7.496
 2778POPC   NC338255  34.483  23.182   9.511
 2778POPC   PO438256  34.910  22.721   9.450
 2778POPC   GL138257  34.683  22.952   9.072
 2778POPC   GL238258  34.433  23.214   9.006
 2778POPC   C1A38259  34.810  23.128   8.637
 2778POPC   D2A38260  35.029  23.137   8.241
 2778POPC   C3A38261  34.708  22.950   7.985
 2778POPC   C4A38262  34.617  22.799   7.551
 2778POPC   C1B38263  34.322  22.954   8.624
 2778POPC   C2B38264  34.211  22.618   8.271
 2778POPC   C3B38265  34.224  22.840   7.880
 2778POPC   C4B38266  34.284  23.240   7.801
 2779POPC   NC338267   4.870   6.536   9.396
 2779POPC   PO438268   5.386   6.832   9.387
 2779POPC   GL138269   5.299   6.623   9.029
 2779POPC   GL238270   4.931   6.527   8.915
 2779POPC   C1A38271   5.186   6.876   8.682
 2779POPC   D2A38272   4.964   6.709   8.362
 2779POPC   C3A38273   5.239   6.800   8.039
 2779POPC   C4A38274   5.353   6.562   7.691
 2779POPC   C1B38275   5.093   6.280   8.653
 2779POPC   C2B38276   5.006   6.186   8.271
 2779POPC   C3B38277   4.902   6.430   7.929
 2779POPC   C4B38278   4.771   6.332   7.565
 2780POPC   NC338279   8.954  19.059   9.532
 2780POPC   PO438280   8.797  19.669   9.389
 2780POPC   GL138281   8.853  19.263   9.069
 2780POPC   GL238282   8.853  18.834   9.106
 2780POPC   C1A38283   9.081  19.113   8.698
 2780POPC   D2A38284   9.117  19.237   8.273
 2780POPC   C3A38285   9.029  18.976   7.966
 2780POPC   C4A38286   9.213  18.858   7.613
 2780POPC   C1B38287   8.741  18.715   8.708
 2780POPC   C2B38288   8.634  18.922   8.313
 2780POPC   C3B38289   8.583  18.802   7.876
 2780POPC   C4B38290   8.746  18.649   7.503
 2781POPC   NC338291  20.197  14.728   9.474
 2781POPC   PO438292  20.770  14.324   9.466
 2781POPC   GL138293  20.529  14.277   9.085
 2781POPC   GL238294  20.517  14.623   9.091
 2781POPC   C1A38295  20.413  14.392   8.637
 2781POPC   D2A38296  20.678  14.338   8.263
 2781POPC   C3A38297  20.483  14.516   7.885
 2781POPC   C4A38298  20.473  14.376   7.439
 2781POPC   C1B38299  20.903  14.472   8.809
 2781POPC   C2B38300  21.031  14.712   8.453
 2781POPC   C3B38301  21.113  14.614   8.036
 2781POPC   C4B38302  20.936  14.449   7.688
 2782POPC   NC338303  19.432  24.142   9.528
 2782POPC   PO438304  18.881  24.209   9.660
 2782POPC   GL138305  18.959  24.294   9.199
 2782POPC   GL238306  19.283  24.437   9.074
 2782POPC   C1A38307  18.896  24.184   8.731
 2782POPC   D2A38308  18.875  24.398   8.309
 2782POPC   C3A38309  18.981  24.302   7.846
 2782POPC   C4A38310  18.851  24.186   7.370
 2782POPC   C1B38311  19.134  24.652   8.664
 2782POPC   C2B38312  19.028  24.881   8.243
 2782POPC   C3B38313  19.215  24.817   7.821
 2782POPC   C4B38314  19.254  24.922   7.348
 2783POPC   NC338315   3.721   7.830   9.427
 2783POPC   PO438316   3.430   7.307   9.654
 2783POPC   GL138317   3.549   7.362   9.182
 2783POPC   GL238318   3.446   7.604   8.924
 2783POPC   C1A38319   3.796   7.289   8.753
 2783POPC   D2A38320   3.684   7.539   8.390
 2783POPC   C3A38321   3.714   7.398   7.949
 2783POPC   C4A38322   3.524   7.630   7.618
 2783POPC   C1B38323   3.108   7.840   8.716
 2783POPC   C2B38324   3.146   7.888   8.314
 2783POPC   C3B38325   3.219   7.554   8.040
 2783POPC   C4B38326   2.958   7.561   7.706
 2784POPC   NC338327   5.687  41.097   9.395
 2784POPC   PO438328   6.038  41.716   9.564
 2784POPC   GL138329   5.887  41.541   9.204
 2784POPC   GL238330   5.840  41.861   9.104
 2784POPC   C1A38331   6.009  41.509   8.756
 2784POPC   D2A38332   5.770  41.342   8.392
 2784POPC   C3A38333   5.832  41.555   7.991
 2784POPC   C4A38334   6.062  41.399   7.635
 2784POPC   C1B38335   5.908  42.074   8.756
 2784POPC   C2B38336   6.072  41.930   8.391
 2784POPC   C3B38337   6.073  42.064   7.995
 2784POPC   C4B38338   6.126  41.893   7.623
 2785POPC   NC338339  41.171   1.784   9.457
 2785POPC   PO438340  41.800   1.888   9.504
 2785POPC   GL138341  41.608   2.043   9.129
 2785POPC   GL238342  41.304   1.871   8.985
 2785POPC   C1A38343  41.632   2.137   8.692
 2785POPC   D2A38344  41.478   1.979   8.268
 2785POPC   C3A38345  41.746   2.036   7.889
 2785POPC   C4A38346  41.638   1.821   7.554
 2785POPC   C1B38347  41.103   2.049   8.623
 2785POPC   C2B38348  41.005   2.168   8.190
 2785POPC   C3B38349  41.236   2.088   7.805
 2785POPC   C4B38350  41.466   2.367   7.550
 2786POPC   NC338351  36.355  38.821   9.604
 2786POPC   PO438352  35.676  38.861   9.486
 2786POPC   GL138353  35.945  39.037   9.141
 2786POPC   GL238354  36.272  39.224   9.221
 2786POPC   C1A38355  36.080  39.065   8.687
 2786POPC   D2A38356  36.347  38.970   8.311
 2786POPC   C3A38357  36.145  39.151   7.972
 2786POPC   C4A38358  35.798  39.064   7.755
 2786POPC   C1B38359  36.407  39.460   8.829
 2786POPC   C2B38360  36.316  39.477   8.398
 2786POPC   C3B38361  36.299  39.624   7.989
 2786POPC   C4B38362  36.475  39.377   7.619
 2787POPC   NC338363  35.955  20.300   9.386
 2787POPC   PO438364  36.186  19.680   9.427
 2787POPC   GL138365  36.342  19.786   9.080
 2787POPC   GL238366  36.395  20.132   9.144
 2787POPC   C1A38367  36.244  19.657   8.643
 2787POPC   D2A38368  36.015  19.871   8.321
 2787POPC   C3A38369  35.972  19.761   7.881
 2787POPC   C4A38370  35.885  20.066   7.578
 2787POPC   C1B38371  36.190  20.154   8.753
 2787POPC   C2B38372  36.423  20.159   8.381
 2787POPC   C3B38373  36.406  20.012   7.974
 2787POPC   C4B38374  36.543  19.988   7.537
 2788POPC   NC338375  34.512  32.279   9.545
 2788POPC   PO438376  33.951  32.724   9.618
 2788POPC   GL138377  34.204  32.545   9.218
 2788POPC   GL238378  34.591  32.496   9.095
 2788POPC   C1A38379  34.246  32.274   8.829
 2788POPC   D2A38380  34.562  32.387   8.516
 2788POPC   C3A38381  34.390  32.273   8.140
 2788POPC   C4A38382  34.413  32.295   7.699
 2788POPC   C1B38383  34.721  32.061   8.872
 2788POPC   C2B38384  34.688  31.896   8.395
 2788POPC   C3B38385  34.896  32.189   8.067
 2788POPC   C4B38386  34.908  32.273   7.602
 2789POPC   NC338387  16.376   8.540   9.507
 2789POPC   PO438388  16.664   7.904   9.437
 2789POPC   GL138389  16.773   8.071   9.065
 2789POPC   GL238390  16.910   8.417   9.055
 2789POPC   C1A38391  16.931   8.078   8.661
 2789POPC   D2A38392  16.901   8.340   8.306
 2789POPC   C3A38393  16.907   8.055   7.942
 2789POPC   C4A38394  16.594   8.089   7.635
 2789POPC   C1B38395  16.506   8.459   8.837
 2789POPC   C2B38396  16.385   8.622   8.434
 2789POPC   C3B38397  16.563   8.676   8.041
 2789POPC   C4B38398  16.924   8.558   7.831
 2790POPC   NC338399   5.125  14.750   9.551
 2790POPC   PO438400   5.294  14.128   9.387
 2790POPC   GL138401   5.086  14.319   9.068
 2790POPC   GL238402   4.844  14.576   9.149
 2790POPC   C1A38403   5.110  14.543   8.684
 2790POPC   D2A38404   5.349  14.618   8.326
 2790POPC   C3A38405   5.080  14.493   8.007
 2790POPC   C4A38406   5.034  14.213   7.663
 2790POPC   C1B38407   4.647  14.751   8.767
 2790POPC   C2B38408   4.830  14.808   8.341
 2790POPC   C3B38409   4.842  14.944   7.910
 2790POPC   C4B38410   5.052  14.741   7.565
 2791POPC   NC338411  14.795  26.954   9.586
 2791POPC   PO438412  15.258  26.470   9.580
 2791POPC   GL138413  14.970  26.618   9.244
 2791POPC   GL238414  15.121  26.933   9.209
 2791POPC   C1A38415  14.988  26.737   8.795
 2791POPC   D2A38416  15.204  26.738   8.420
 2791POPC   C3A38417  15.017  26.539   8.068
 2791POPC   C4A38418  15.129  26.727   7.709
 2791POPC   C1B38419  15.393  27.048   8.843
 2791POPC   C2B38420  15.469  27.173   8.394
 2791POPC   C3B38421  15.499  27.082   7.945
 2791POPC   C4B38422  15.703  27.314   7.594
 2792POPC   NC338423   9.074  23.054   9.425
 2792POPC   PO438424   8.857  22.536   9.694
 2792POPC   GL138425   8.767  22.665   9.233
 2792POPC   GL238426   8.767  22.974   8.987
 2792POPC   C1A38427   8.760  22.481   8.816
 2792POPC   D2A38428   9.013  22.590   8.449
 2792POPC   C3A38429   8.894  22.920   8.164
 2792POPC   C4A38430   8.608  22.924   7.854
 2792POPC   C1B38431   9.054  23.107   8.632
 2792POPC   C2B38432   9.388  22.934   8.359
 2792POPC   C3B38433   9.345  22.814   7.941
 2792POPC   C4B38434   9.044  23.023   7.654
 2793POPC   NC338435  22.379  42.645   9.786
 2793POPC   PO438436  21.929  42.368   9.458
 2793POPC   GL138437  21.910  42.326   9.004
 2793POPC   GL238438  21.768  42.014   8.892
 2793POPC   C1A38439  22.227  42.335   8.619
 2793POPC   D2A38440  22.519  42.354   8.229
 2793POPC   C3A38441  22.411  42.460   7.766
 2793POPC   C4A38442  22.744  42.407   7.444
 2793POPC   C1B38443  21.730  42.258   8.533
 2793POPC   C2B38444  21.610  42.472   8.140
 2793POPC   C3B38445  21.828  42.578   7.765
 2793POPC   C4B38446  22.114  42.826   7.514
 2794POPC   NC338447   4.276  26.375   9.390
 2794POPC   PO438448   4.136  25.742   9.423
 2794POPC   GL138449   4.350  25.932   9.099
 2794POPC   GL238450   4.035  26.102   9.054
 2794POPC   C1A38451   4.359  26.044   8.649
 2794POPC   D2A38452   4.371  26.211   8.225
 2794POPC   C3A38453   4.306  25.916   7.880
 2794POPC   C4A38454   4.562  26.094   7.586
 2794POPC   C1B38455   3.885  26.252   8.711
 2794POPC   C2B38456   3.925  26.453   8.368
 2794POPC   C3B38457   3.918  26.246   7.968
 2794POPC   C4B38458   4.121  26.342   7.596
 2795POPC   NC338459  30.001  13.105   9.591
 2795POPC   PO438460  29.620  12.625   9.379
 2795POPC   GL138461  29.798  12.994   9.127
 2795POPC   GL238462  30.185  13.124   9.132
 2795POPC   C1A38463  29.689  12.933   8.698
 2795POPC   D2A38464  29.744  12.703   8.334
 2795POPC   C3A38465  29.620  12.910   7.951
 2795POPC   C4A38466  29.919  12.829   7.636
 2795POPC   C1B38467  30.185  12.893   8.789
 2795POPC   C2B38468  30.123  13.034   8.410
 2795POPC   C3B38469  30.084  13.142   8.019
 2795POPC   C4B38470  30.381  13.010   7.752
 2796POPC   NC338471  31.775  20.055   9.544
 2796POPC   PO438472  31.209  19.613   9.335
 2796POPC   GL138473  31.338  19.794   8.988
 2796POPC   GL238474  31.705  19.780   9.074
 2796POPC   C1A38475  31.259  20.034   8.628
 2796POPC   D2A38476  30.919  20.063   8.397
 2796POPC   C3A38477  31.052  19.971   8.040
 2796POPC   C4A38478  31.402  19.984   7.782
 2796POPC   C1B38479  31.668  19.700   8.628
 2796POPC   C2B38480  31.453  19.739   8.260
 2796POPC   C3B38481  31.747  19.663   7.973
 2796POPC   C4B38482  31.914  19.983   7.723
 2797POPC   NC338483   1.041  25.392   9.512
 2797POPC   PO438484   1.618  25.066   9.348
 2797POPC   GL138485   1.472  25.440   9.157
 2797POPC   GL238486   1.193  25.236   9.067
 2797POPC   C1A38487   1.206  25.668   8.825
 2797POPC   D2A38488   1.308  25.727   8.384
 2797POPC   C3A38489   1.046  25.582   8.063
 2797POPC   C4A38490   1.066  25.425   7.665
 2797POPC   C1B38491   1.456  25.272   8.688
 2797POPC   C2B38492   1.231  25.224   8.387
 2797POPC   C3B38493   1.324  25.116   8.029
 2797POPC   C4B38494   1.268  24.964   7.667
 2798POPC   NC338495  21.250  31.756   9.404
 2798POPC   PO438496  21.405  32.386   9.537
 2798POPC   GL138497  21.289  32.445   9.131
 2798POPC   GL238498  21.061  32.185   9.067
 2798POPC   C1A38499  21.516  32.413   8.740
 2798POPC   D2A38500  21.627  32.211   8.351
 2798POPC   C3A38501  21.557  32.463   7.991
 2798POPC   C4A38502  21.552  32.128   7.746
 2798POPC   C1B38503  20.874  32.104   8.672
 2798POPC   C2B38504  20.992  31.884   8.314
 2798POPC   C3B38505  21.232  31.770   8.001
 2798POPC   C4B38506  21.111  31.906   7.612
 2799POPC   NC338507  19.930   1.079   9.329
 2799POPC   PO438508  19.287   1.141   9.400
 2799POPC   GL138509  19.516   1.109   9.052
 2799POPC   GL238510  19.628   1.430   9.043
 2799POPC   C1A38511  19.763   1.121   8.668
 2799POPC   D2A38512  19.822   1.421   8.340
 2799POPC   C3A38513  19.891   1.145   7.987
 2799POPC   C4A38514  19.776   0.912   7.625
 2799POPC   C1B38515  19.993   1.615   8.793
 2799POPC   C2B38516  20.249   1.676   8.386
 2799POPC   C3B38517  20.085   1.644   7.937
 2799POPC   C4B38518  20.111   1.363   7.559
 2800POPC   NC338519  22.945  37.413   9.524
 2800POPC   PO438520  22.988  38.065   9.552
 2800POPC   GL138521  23.077  37.794   9.154
 2800POPC   GL238522  23.253  37.462   9.097
 2800POPC   C1A38523  22.813  37.590   8.814
 2800POPC   D2A38524  22.723  37.657   8.363
 2800POPC   C3A38525  23.014  37.954   8.153
 2800POPC   C4A38526  23.070  38.137   7.746
 2800POPC   C1B38527  23.311  37.549   8.648
 2800POPC   C2B38528  23.191  37.429   8.218
 2800POPC   C3B38529  23.000  37.557   7.837
 2800POPC   C4B38530  22.727  37.388   7.555
 2801POPC   NC338531  30.448  14.521   9.460
 2801POPC   PO438532  30.990  14.055   9.672
 2801POPC   GL138533  31.080  14.203   9.212
 2801POPC   GL238534  30.816  14.466   9.070
 2801POPC   C1A38535  31.006  14.110   8.765
 2801POPC   D2A38536  30.856  14.425   8.443
 2801POPC   C3A38537  30.801  14.368   8.001
 2801POPC   C4A38538  30.433  14.507   7.773
 2801POPC   C1B38539  30.471  14.294   8.756
 2801POPC   C2B38540  30.272  14.023   8.453
 2801POPC   C3B38541  30.368  14.105   8.067
 2801POPC   C4B38542  30.287  13.993   7.671
 2802POPC   NC338543  29.278  27.792   9.499
 2802POPC   PO438544  29.036  27.158   9.514
 2802POPC   GL138545  28.942  27.480   9.202
 2802POPC   GL238546  29.291  27.437   9.100
 2802POPC   C1A38547  28.949  27.656   8.764
 2802POPC   D2A38548  29.228  27.493   8.425
 2802POPC   C3A38549  29.187  27.629   8.017
 2802POPC   C4A38550  29.376  27.733   7.638
 2802POPC   C1B38551  29.546  27.226   8.779
 2802POPC   C2B38552  29.556  27.084   8.349
 2802POPC   C3B38553  29.603  27.304   7.966
 2802POPC   C4B38554  29.529  27.244   7.565
 2803POPC   NC338555  24.214  19.266   9.979
 2803POPC   PO438556  24.498  18.900   9.485
 2803POPC   GL138557  24.578  18.775   9.097
 2803POPC   GL238558  24.225  18.750   9.056
 2803POPC   C1A38559  24.667  18.867   8.672
 2803POPC   D2A38560  24.585  19.202   8.405
 2803POPC   C3A38561  24.742  19.154   7.997
 2803POPC   C4A38562  24.602  18.867   7.715
 2803POPC   C1B38563  24.179  19.000   8.712
 2803POPC   C2B38564  24.059  19.162   8.331
 2803POPC   C3B38565  24.218  19.121   7.926
 2803POPC   C4B38566  24.116  18.919   7.514
 2804POPC   NC338567  14.316  24.647   9.303
 2804POPC   PO438568  13.839  24.256   9.554
 2804POPC   GL138569  14.132  24.164   9.151
 2804POPC   GL238570  14.529  24.263   9.047
 2804POPC   C1A38571  14.191  24.274   8.680
 2804POPC   D2A38572  14.391  24.636   8.466
 2804POPC   C3A38573  14.296  24.749   8.051
 2804POPC   C4A38574  14.240  24.840   7.610
 2804POPC   C1B38575  14.713  24.267   8.632
 2804POPC   C2B38576  14.614  24.054   8.285
 2804POPC   C3B38577  14.323  24.194   8.056
 2804POPC   C4B38578  14.441  24.368   7.698
 2805POPC   NC338579   3.594  23.854   9.588
 2805POPC   PO438580   2.996  23.439   9.451
 2805POPC   GL138581   3.415  23.483   9.206
 2805POPC   GL238582   3.752  23.707   9.136
 2805POPC   C1A38583   3.487  23.492   8.757
 2805POPC   D2A38584   3.283  23.356   8.383
 2805POPC   C3A38585   3.413  23.597   8.041
 2805POPC   C4A38586   3.691  23.393   7.765
 2805POPC   C1B38587   3.818  23.901   8.747
 2805POPC   C2B38588   3.803  23.653   8.369
 2805POPC   C3B38589   3.957  23.769   7.972
 2805POPC   C4B38590   3.624  23.914   7.673
 2806POPC   NC338591   4.239  38.038  10.175
 2806POPC   PO438592   4.418  37.713   9.636
 2806POPC   GL138593   4.415  37.877   9.163
 2806POPC   GL238594   4.451  37.630   8.915
 2806POPC   C1A38595   4.252  38.112   8.775
 2806POPC   D2A38596   4.102  38.145   8.313
 2806POPC   C3A38597   4.333  37.928   7.962
 2806POPC   C4A38598   4.637  37.584   7.956
 2806POPC   C1B38599   4.162  37.647   8.589
 2806POPC   C2B38600   4.032  37.593   8.183
 2806POPC   C3B38601   3.971  37.363   7.806
 2806POPC   C4B38602   3.944  37.256   7.363
 2807POPC   NC338603  38.334   3.534   9.751
 2807POPC   PO438604  38.452   2.920   9.548
 2807POPC   GL138605  38.509   2.663   9.188
 2807POPC   GL238606  38.600   2.331   9.292
 2807POPC   C1A38607  38.313   2.726   8.779
 2807POPC   D2A38608  38.239   3.066   8.481
 2807POPC   C3A38609  38.252   2.903   8.059
 2807POPC   C4A38610  38.243   3.050   7.635
 2807POPC   C1B38611  38.648   2.321   8.847
 2807POPC   C2B38612  38.437   2.339   8.451
 2807POPC   C3B38613  38.600   2.355   8.054
 2807POPC   C4B38614  38.471   2.592   7.708
 2808POPC   NC338615   9.489  32.774   9.271
 2808POPC   PO438616  10.006  33.050   9.623
 2808POPC   GL138617   9.908  33.071   9.201
 2808POPC   GL238618  10.014  32.726   9.190
 2808POPC   C1A38619   9.686  33.170   8.780
 2808POPC   D2A38620   9.459  33.238   8.379
 2808POPC   C3A38621   9.664  33.100   7.998
 2808POPC   C4A38622   9.523  32.783   7.722
 2808POPC   C1B38623   9.992  32.598   8.758
 2808POPC   C2B38624   9.884  32.765   8.356
 2808POPC   C3B38625  10.033  32.664   7.932
 2808POPC   C4B38626  10.278  32.727   7.548
 2809POPC   NC338627  23.526  33.882   9.579
 2809POPC   PO438628  24.171  34.211   9.510
 2809POPC   GL138629  23.940  33.788   9.275
 2809POPC   GL238630  23.564  33.682   9.127
 2809POPC   C1A38631  23.930  33.770   8.808
 2809POPC   D2A38632  23.918  33.988   8.447
 2809POPC   C3A38633  23.905  33.791   8.076
 2809POPC   C4A38634  23.771  33.845   7.693
 2809POPC   C1B38635  23.553  33.441   8.744
 2809POPC   C2B38636  23.513  33.634   8.369
 2809POPC   C3B38637  23.405  33.590   7.961
 2809POPC   C4B38638  23.454  33.397   7.558
 2810POPC   NC338639  43.892  32.473   9.414
 2810POPC   PO438640  44.166  31.913   9.447
 2810POPC   GL138641  43.889  32.063   9.080
 2810POPC   GL238642  43.701  32.393   8.978
 2810POPC   C1A38643  44.061  32.216   8.682
 2810POPC   D2A38644  44.230  32.060   8.339
 2810POPC   C3A38645  44.126  32.336   8.022
 2810POPC   C4A38646  43.993  32.313   7.601
 2810POPC   C1B38647  43.563  32.224   8.646
 2810POPC   C2B38648  43.662  32.344   8.237
 2810POPC   C3B38649  43.569  32.190   7.834
 2810POPC   C4B38650  43.464  32.145   7.397
 2811POPC   NC338651   2.938  28.726   9.361
 2811POPC   PO438652   2.634  28.155   9.459
 2811POPC   GL138653   2.630  28.359   9.085
 2811POPC   GL238654   2.487  28.685   9.125
 2811POPC   C1A38655   2.767  28.198   8.686
 2811POPC   D2A38656   2.845  27.945   8.321
 2811POPC   C3A38657   2.826  28.155   7.939
 2811POPC   C4A38658   2.758  28.538   7.752
 2811POPC   C1B38659   2.438  28.653   8.685
 2811POPC   C2B38660   2.591  28.505   8.301
 2811POPC   C3B38661   2.359  28.157   8.128
 2811POPC   C4B38662   2.379  28.046   7.690
 2812POPC   NC338663  13.568   7.067   9.546
 2812POPC   PO438664  14.006   7.512   9.473
 2812POPC   GL138665  13.819   7.340   9.124
 2812POPC   GL238666  13.457   7.185   9.080
 2812POPC   C1A38667  13.845   7.533   8.740
 2812POPC   D2A38668  13.491   7.687   8.489
 2812POPC   C3A38669  13.428   7.564   8.050
 2812POPC   C4A38670  13.652   7.645   7.666
 2812POPC   C1B38671  13.640   7.060   8.731
 2812POPC   C2B38672  13.731   7.234   8.347
 2812POPC   C3B38673  13.869   7.290   7.974
 2812POPC   C4B38674  13.753   7.094   7.595
 2813POPC   NC338675  10.160  13.684   9.471
 2813POPC   PO438676  10.850  13.879   9.510
 2813POPC   GL138677  10.615  13.764   9.163
 2813POPC   GL238678  10.490  13.414   9.067
 2813POPC   C1A38679  10.568  13.859   8.749
 2813POPC   D2A38680  10.559  13.579   8.408
 2813POPC   C3A38681  10.535  13.805   8.029
 2813POPC   C4A38682  10.291  13.966   7.711
 2813POPC   C1B38683  10.689  13.139   8.731
 2813POPC   C2B38684  10.863  13.154   8.319
 2813POPC   C3B38685  10.601  13.277   7.970
 2813POPC   C4B38686  10.553  13.530   7.609
 2814POPC   NC338687   8.873  39.635   9.749
 2814POPC   PO438688   8.384  39.301   9.379
 2814POPC   GL138689   8.254  39.275   9.011
 2814POPC   GL238690   8.263  38.940   9.017
 2814POPC   C1A38691   8.121  39.225   8.598
 2814POPC   D2A38692   8.099  39.434   8.206
 2814POPC   C3A38693   7.821  39.287   7.923
 2814POPC   C4A38694   8.046  39.378   7.592
 2814POPC   C1B38695   8.164  38.685   8.719
 2814POPC   C2B38696   8.149  38.806   8.314
 2814POPC   C3B38697   8.166  38.912   7.926
 2814POPC   C4B38698   7.959  38.840   7.583
 2815POPC   NC338699   7.944  16.269   9.365
 2815POPC   PO438700   7.899  15.582   9.257
 2815POPC   GL138701   7.952  15.905   9.009
 2815POPC   GL238702   8.261  16.005   9.065
 2815POPC   C1A38703   8.037  15.909   8.609
 2815POPC   D2A38704   7.844  15.917   8.241
 2815POPC   C3A38705   8.099  15.711   7.944
 2815POPC   C4A38706   8.047  15.869   7.532
 2815POPC   C1B38707   8.478  16.184   8.691
 2815POPC   C2B38708   8.298  16.219   8.302
 2815POPC   C3B38709   8.147  16.217   7.906
 2815POPC   C4B38710   8.505  15.982   7.753
 2816POPC   NC338711   5.991   8.478   9.307
 2816POPC   PO438712   6.012   9.108   9.540
 2816POPC   GL138713   5.748   8.910   9.184
 2816POPC   GL238714   5.998   8.870   8.988
 2816POPC   C1A38715   5.609   8.862   8.685
 2816POPC   D2A38716   5.657   9.171   8.349
 2816POPC   C3A38717   5.469   9.083   7.918
 2816POPC   C4A38718   5.531   9.154   7.433
 2816POPC   C1B38719   6.132   9.124   8.666
 2816POPC   C2B38720   6.213   9.060   8.243
 2816POPC   C3B38721   6.225   9.040   7.808
 2816POPC   C4B38722   5.967   8.859   7.490
 2817POPC   NC338723  38.084  15.204   9.590
 2817POPC   PO438724  37.421  15.067   9.613
 2817POPC   GL138725  37.680  15.236   9.277
 2817POPC   GL238726  37.941  15.066   9.132
 2817POPC   C1A38727  37.704  15.390   8.851
 2817POPC   D2A38728  37.828  15.560   8.474
 2817POPC   C3A38729  37.735  15.362   8.089
 2817POPC   C4A38730  37.425  15.426   7.811
 2817POPC   C1B38731  37.795  14.879   8.783
 2817POPC   C2B38732  37.822  14.974   8.399
 2817POPC   C3B38733  37.929  14.889   8.042
 2817POPC   C4B38734  37.717  15.028   7.678
 2818POPC   NC338735  10.890  25.945   9.390
 2818POPC   PO438736  10.178  26.239   9.426
 2818POPC   GL138737  10.504  26.212   9.138
 2818POPC   GL238738  10.444  25.847   9.162
 2818POPC   C1A38739  10.636  26.271   8.702
 2818POPC   D2A38740  10.670  26.477   8.281
 2818POPC   C3A38741  10.822  26.256   7.925
 2818POPC   C4A38742  10.436  26.057   7.836
 2818POPC   C1B38743  10.619  25.765   8.755
 2818POPC   C2B38744  10.774  25.922   8.345
 2818POPC   C3B38745  10.844  25.719   7.925
 2818POPC   C4B38746  10.825  25.862   7.497
 2819POPC   NC338747  41.774  25.625   9.386
 2819POPC   PO438748  41.941  26.224   9.506
 2819POPC   GL138749  41.532  26.291   9.303
 2819POPC   GL238750  41.653  26.033   9.109
 2819POPC   C1A38751  41.383  26.347   8.841
 2819POPC   D2A38752  41.542  26.210   8.441
 2819POPC   C3A38753  41.282  26.351   8.107
 2819POPC   C4A38754  41.292  26.484   7.683
 2819POPC   C1B38755  41.851  25.878   8.742
 2819POPC   C2B38756  41.949  25.904   8.312
 2819POPC   C3B38757  41.646  25.913   7.971
 2819POPC   C4B38758  41.591  25.676   7.568
 2820POPC   NC338759  28.742  17.668   9.479
 2820POPC   PO438760  28.100  17.326   9.608
 2820POPC   GL138761  28.324  17.486   9.264
 2820POPC   GL238762  28.582  17.282   9.144
 2820POPC   C1A38763  28.418  17.767   8.910
 2820POPC   D2A38764  28.287  17.726   8.503
 2820POPC   C3A38765  28.396  17.965   8.168
 2820POPC   C4A38766  28.397  17.816   7.757
 2820POPC   C1B38767  28.619  17.356   8.701
 2820POPC   C2B38768  28.637  17.464   8.273
 2820POPC   C3B38769  28.517  17.320   7.867
 2820POPC   C4B38770  28.814  17.319   7.524
 2821POPC   NC338771  17.604  44.362   9.499
 2821POPC   PO438772  17.478  44.952   9.499
 2821POPC   GL138773  17.729  44.749   9.150
 2821POPC   GL238774  17.397  44.711   9.025
 2821POPC   C1A38775  17.757  44.582   8.691
 2821POPC   D2A38776  17.507  44.521   8.299
 2821POPC   C3A38777  17.630  44.625   7.878
 2821POPC   C4A38778  17.543  44.388   7.483
 2821POPC   C1B38779  17.399  44.971   8.649
 2821POPC   C2B38780  17.189   0.011   8.251
 2821POPC   C3B38781  17.348   0.102   7.875
 2821POPC   C4B38782  17.770   0.108   7.780
 2822POPC   NC338783  33.233  20.725   9.502
 2822POPC   PO438784  32.564  20.912   9.494
 2822POPC   GL138785  32.798  20.595   9.230
 2822POPC   GL238786  33.061  20.344   9.191
 2822POPC   C1A38787  32.878  20.665   8.824
 2822POPC   D2A38788  32.764  20.701   8.429
 2822POPC   C3A38789  33.061  20.849   8.140
 2822POPC   C4A38790  32.836  20.990   7.800
 2822POPC   C1B38791  33.061  20.208   8.756
 2822POPC   C2B38792  33.169  20.389   8.393
 2822POPC   C3B38793  33.081  20.299   7.988
 2822POPC   C4B38794  32.729  20.449   7.762
 2823POPC   NC338795   7.556   4.907   9.493
 2823POPC   PO438796   7.395   5.571   9.328
 2823POPC   GL138797   7.453   5.197   9.098
 2823POPC   GL238798   7.183   4.940   9.162
 2823POPC   C1A38799   7.433   5.064   8.697
 2823POPC   D2A38800   7.428   5.263   8.314
 2823POPC   C3A38801   7.654   5.006   8.058
 2823POPC   C4A38802   7.675   5.065   7.661
 2823POPC   C1B38803   6.952   5.128   8.854
 2823POPC   C2B38804   6.969   5.030   8.433
 2823POPC   C3B38805   6.982   5.215   8.043
 2823POPC   C4B38806   7.192   4.920   7.776
 2824POPC   NC338807  35.941  23.657   9.341
 2824POPC   PO438808  35.276  23.542   9.529
 2824POPC   GL138809  35.313  23.624   9.101
 2824POPC   GL238810  35.382  23.962   9.177
 2824POPC   C1A38811  35.263  23.446   8.658
 2824POPC   D2A38812  35.016  23.672   8.364
 2824POPC   C3A38813  35.077  23.667   7.950
 2824POPC   C4A38814  35.283  23.360   7.788
 2824POPC   C1B38815  35.282  23.970   8.718
 2824POPC   C2B38816  35.426  23.979   8.290
 2824POPC   C3B38817  35.510  23.925   7.870
 2824POPC   C4B38818  35.478  23.696   7.464
 2825POPC   NC338819  39.037  36.267   9.422
 2825POPC   PO438820  39.541  35.765   9.496
 2825POPC   GL138821  39.555  35.978   9.067
 2825POPC   GL238822  39.432  36.325   9.086
 2825POPC   C1A38823  39.482  35.868   8.611
 2825POPC   D2A38824  39.597  35.697   8.218
 2825POPC   C3A38825  39.479  35.956   7.892
 2825POPC   C4A38826  39.598  36.369   7.791
 2825POPC   C1B38827  39.120  36.168   8.777
 2825POPC   C2B38828  39.193  36.216   8.337
 2825POPC   C3B38829  39.094  36.311   7.934
 2825POPC   C4B38830  38.865  36.099   7.667
 2826POPC   NC338831  27.106  16.090   9.394
 2826POPC   PO438832  26.462  15.937   9.643
 2826POPC   GL138833  26.642  15.895   9.183
 2826POPC   GL238834  26.964  15.701   9.101
 2826POPC   C1A38835  26.757  16.015   8.731
 2826POPC   D2A38836  26.569  15.861   8.331
 2826POPC   C3A38837  26.772  15.983   7.945
 2826POPC   C4A38838  26.669  16.170   7.488
 2826POPC   C1B38839  27.083  15.615   8.672
 2826POPC   C2B38840  27.212  15.801   8.244
 2826POPC   C3B38841  27.177  15.623   7.822
 2826POPC   C4B38842  26.815  15.684   7.506
 2827POPC   NC338843  10.165  19.519   9.450
 2827POPC   PO438844  10.528  19.049   9.462
 2827POPC   GL138845  10.679  19.052   9.076
 2827POPC   GL238846  10.627  19.427   9.119
 2827POPC   C1A38847  10.468  18.839   8.748
 2827POPC   D2A38848  10.308  18.899   8.347
 2827POPC   C3A38849  10.341  18.944   7.902
 2827POPC   C4A38850  10.734  19.044   7.679
 2827POPC   C1B38851  10.467  19.348   8.709
 2827POPC   C2B38852  10.639  19.316   8.271
 2827POPC   C3B38853  10.425  19.443   7.893
 2827POPC   C4B38854  10.403  19.374   7.459
 2828POPC   NC338855   4.108  44.443   9.418
 2828POPC   PO438856   4.601  44.798   9.371
 2828POPC   GL138857   4.307  44.770   9.043
 2828POPC   GL238858   3.981  44.862   9.134
 2828POPC   C1A38859   4.316  44.763   8.610
 2828POPC   D2A38860   4.407  44.598   8.252
 2828POPC   C3A38861   4.501  44.899   7.941
 2828POPC   C4A38862   4.386  44.866   7.498
 2828POPC   C1B38863   3.852  44.650   8.763
 2828POPC   C2B38864   3.824  44.793   8.374
 2828POPC   C3B38865   3.998  44.797   8.000
 2828POPC   C4B38866   3.903  44.610   7.625
 2829POPC   NC338867  40.603  24.107   9.471
 2829POPC   PO438868  40.874  23.515   9.288
 2829POPC   GL138869  40.855  23.867   9.084
 2829POPC   GL238870  40.506  23.836   9.050
 2829POPC   C1A38871  40.863  23.771   8.687
 2829POPC   D2A38872  40.954  23.410   8.437
 2829POPC   C3A38873  40.800  23.522   8.070
 2829POPC   C4A38874  40.967  23.506   7.687
 2829POPC   C1B38875  40.462  23.498   8.751
 2829POPC   C2B38876  40.445  23.734   8.367
 2829POPC   C3B38877  40.448  23.921   7.966
 2829POPC   C4B38878  40.452  23.584   7.674
 2830POPC   NC338879  24.141  16.655   9.700
 2830POPC   PO438880  24.559  16.949   9.256
 2830POPC   GL138881  24.420  16.722   8.958
 2830POPC   GL238882  24.118  16.510   9.008
 2830POPC   C1A38883  24.373  16.910   8.589
 2830POPC   D2A38884  24.155  16.809   8.288
 2830POPC   C3A38885  24.410  16.671   7.954
 2830POPC   C4A38886  24.623  16.952   7.686
 2830POPC   C1B38887  24.330  16.351   8.631
 2830POPC   C2B38888  24.234  16.199   8.235
 2830POPC   C3B38889  24.103  16.275   7.797
 2830POPC   C4B38890  24.230  16.570   7.453
 2831POPC   NC338891   9.152   0.987   9.607
 2831POPC   PO438892   9.004   1.693   9.497
 2831POPC   GL138893   8.989   1.545   9.067
 2831POPC   GL238894   9.237   1.280   9.109
 2831POPC   C1A38895   8.934   1.374   8.622
 2831POPC   D2A38896   8.748   1.013   8.349
 2831POPC   C3A38897   8.896   0.922   7.923
 2831POPC   C4A38898   8.825   0.870   7.459
 2831POPC   C1B38899   9.420   1.534   8.754
 2831POPC   C2B38900   9.278   1.675   8.335
 2831POPC   C3B38901   9.343   1.498   7.918
 2831POPC   C4B38902   9.164   1.222   7.586
 2832POPC   NC338903  38.309  12.665   9.135
 2832POPC   PO438904  38.821  13.027   9.332
 2832POPC   GL138905  38.537  13.123   9.011
 2832POPC   GL238906  38.164  13.143   8.986
 2832POPC   C1A38907  38.544  12.948   8.598
 2832POPC   D2A38908  38.554  12.705   8.208
 2832POPC   C3A38909  38.647  13.008   7.854
 2832POPC   C4A38910  38.414  13.184   7.463
 2832POPC   C1B38911  38.013  12.908   8.604
 2832POPC   C2B38912  38.052  12.602   8.274
 2832POPC   C3B38913  38.177  12.794   7.888
 2832POPC   C4B38914  38.188  12.715   7.487
 2833POPC   NC338915   6.044  17.765   9.477
 2833POPC   PO438916   5.828  18.459   9.437
 2833POPC   GL138917   5.798  18.335   9.055
 2833POPC   GL238918   5.741  17.984   9.114
 2833POPC   C1A38919   6.127  18.250   8.772
 2833POPC   D2A38920   6.238  18.348   8.363
 2833POPC   C3A38921   6.109  18.288   7.963
 2833POPC   C4A38922   6.229  18.643   7.753
 2833POPC   C1B38923   5.724  17.980   8.680
 2833POPC   C2B38924   5.769  18.069   8.259
 2833POPC   C3B38925   5.715  17.981   7.814
 2833POPC   C4B38926   5.977  17.843   7.446
 2834POPC   NC338927  36.642  19.565   9.478
 2834POPC   PO438928  37.144  20.109   9.547
 2834POPC   GL138929  36.908  19.989   9.164
 2834POPC   GL238930  37.023  19.659   9.139
 2834POPC   C1A38931  36.687  19.898   8.755
 2834POPC   D2A38932  36.654  19.678   8.362
 2834POPC   C3A38933  36.888  19.807   8.087
 2834POPC   C4A38934  36.940  19.765   7.719
 2834POPC   C1B38935  37.115  19.663   8.714
 2834POPC   C2B38936  37.193  19.496   8.336
 2834POPC   C3B38937  37.348  19.546   7.899
 2834POPC   C4B38938  37.261  19.532   7.403
 2835POPC   NC338939  20.045  41.978   9.290
 2835POPC   PO438940  20.029  42.607   9.298
 2835POPC   GL138941  19.797  42.341   9.031
 2835POPC   GL238942  19.511  42.159   9.101
 2835POPC   C1A38943  19.753  42.028   8.683
 2835POPC   D2A38944  19.681  41.942   8.276
 2835POPC   C3A38945  19.915  42.198   8.026
 2835POPC   C4A38946  19.769  42.049   7.625
 2835POPC   C1B38947  19.418  42.398   8.698
 2835POPC   C2B38948  19.564  42.484   8.258
 2835POPC   C3B38949  19.524  42.456   7.784
 2835POPC   C4B38950  19.425  42.297   7.353
 2836POPC   NC338951  40.349  41.302   9.409
 2836POPC   PO438952  39.962  40.696   9.383
 2836POPC   GL138953  40.165  40.889   9.082
 2836POPC   GL238954  39.924  41.100   9.010
 2836POPC   C1A38955  40.225  40.694   8.680
 2836POPC   D2A38956  40.377  40.761   8.267
 2836POPC   C3A38957  40.129  40.613   7.998
 2836POPC   C4A38958  40.063  40.751   7.591
 2836POPC   C1B38959  39.751  41.198   8.630
 2836POPC   C2B38960  39.814  40.939   8.272
 2836POPC   C3B38961  39.695  40.954   7.852
 2836POPC   C4B38962  39.694  41.005   7.378
 2837POPC   NC338963   2.057  15.202   9.528
 2837POPC   PO438964   2.459  15.459   9.101
 2837POPC   GL138965   2.235  15.023   9.085
 2837POPC   GL238966   1.898  14.852   9.178
 2837POPC   C1A38967   2.203  14.742   8.758
 2837POPC   D2A38968   2.222  15.030   8.434
 2837POPC   C3A38969   2.037  14.957   8.056
 2837POPC   C4A38970   2.180  15.118   7.721
 2837POPC   C1B38971   1.805  15.057   8.790
 2837POPC   C2B38972   1.680  15.212   8.399
 2837POPC   C3B38973   1.518  15.031   8.044
 2837POPC   C4B38974   1.636  15.298   7.754
 2838POPC   NC338975  10.573   9.644   9.573
 2838POPC   PO438976  11.058   9.928   9.353
 2838POPC   GL138977  10.657   9.854   9.105
 2838POPC   GL238978  10.374   9.594   9.121
 2838POPC   C1A38979  10.719   9.606   8.720
 2838POPC   D2A38980  10.732   9.343   8.369
 2838POPC   C3A38981  10.654   9.595   7.998
 2838POPC   C4A38982  10.747   9.677   7.554
 2838POPC   C1B38983  10.242   9.752   8.728
 2838POPC   C2B38984  10.236   9.526   8.365
 2838POPC   C3B38985  10.091   9.769   8.060
 2838POPC   C4B38986  10.252   9.720   7.719
 2839POPC   NC338987   2.536  23.218   9.478
 2839POPC   PO438988   2.891  22.639   9.359
 2839POPC   GL138989   2.875  22.819   9.008
 2839POPC   GL238990   2.789  23.124   9.049
 2839POPC   C1A38991   2.694  22.757   8.659
 2839POPC   D2A38992   2.801  22.545   8.321
 2839POPC   C3A38993   2.875  22.865   8.064
 2839POPC   C4A38994   2.851  22.839   7.628
 2839POPC   C1B38995   2.824  23.271   8.630
 2839POPC   C2B38996   2.583  23.270   8.262
 2839POPC   C3B38997   2.511  23.145   7.843
 2839POPC   C4B38998   2.713  23.387   7.508
 2840POPC   NC338999   8.232  23.532   9.483
 2840POPC   PO439000   7.949  24.187   9.418
 2840POPC   GL139001   8.180  23.948   9.137
 2840POPC   GL239002   8.405  23.666   9.038
 2840POPC   C1A39003   8.099  23.902   8.723
 2840POPC   D2A39004   8.448  23.795   8.508
 2840POPC   C3A39005   8.372  23.740   8.114
 2840POPC   C4A39006   8.392  23.773   7.675
 2840POPC   C1B39007   8.681  23.437   8.782
 2840POPC   C2B39008   8.598  23.297   8.360
 2840POPC   C3B39009   8.727  23.412   7.955
 2840POPC   C4B39010   8.635  23.334   7.528
 2841POPC   NC339011  11.382  34.998   9.383
 2841POPC   PO439012  10.935  35.502   9.475
 2841POPC   GL139013  11.120  35.348   9.122
 2841POPC   GL239014  11.468  35.426   9.130
 2841POPC   C1A39015  11.277  35.174   8.726
 2841POPC   D2A39016  11.121  35.329   8.370
 2841POPC   C3A39017  11.347  35.293   8.028
 2841POPC   C4A39018  11.208  35.242   7.656
 2841POPC   C1B39019  11.626  35.659   8.830
 2841POPC   C2B39020  11.549  35.586   8.450
 2841POPC   C3B39021  11.397  35.806   8.131
 2841POPC   C4B39022  11.641  35.667   7.767
 2842POPC   NC339023  44.384   6.064   9.492
 2842POPC   PO439024   0.051   6.152   9.560
 2842POPC   GL139025  44.801   5.970   9.212
 2842POPC   GL239026  44.625   6.247   9.056
 2842POPC   C1A39027  44.799   5.786   8.811
 2842POPC   D2A39028  44.538   5.818   8.481
 2842POPC   C3A39029  44.656   5.651   8.101
 2842POPC   C4A39030  44.532   5.583   7.711
 2842POPC   C1B39031  44.608   6.408   8.615
 2842POPC   C2B39032  44.771   6.197   8.226
 2842POPC   C3B39033  44.588   6.099   7.832
 2842POPC   C4B39034  44.807   6.212   7.439
 2843POPC   NC339035  24.805  24.087   9.412
 2843POPC   PO439036  25.485  23.868   9.483
 2843POPC   GL139037  25.169  23.727   9.199
 2843POPC   GL239038  25.243  23.389   9.069
 2843POPC   C1A39039  25.229  23.792   8.758
 2843POPC   D2A39040  25.572  23.666   8.460
 2843POPC   C3A39041  25.371  23.706   8.080
 2843POPC   C4A39042  25.390  23.788   7.638
 2843POPC   C1B39043  25.240  23.319   8.592
 2843POPC   C2B39044  24.944  23.516   8.297
 2843POPC   C3B39045  24.954  23.544   7.830
 2843POPC   C4B39046  25.362  23.294   7.703
 2844POPC   NC339047  42.052  10.800   9.222
 2844POPC   PO439048  41.930  11.434   9.508
 2844POPC   GL139049  42.022  11.529   9.092
 2844POPC   GL239050  42.144  11.249   8.989
 2844POPC   C1A39051  41.867  11.675   8.704
 2844POPC   D2A39052  41.951  11.846   8.286
 2844POPC   C3A39053  42.084  11.538   7.959
 2844POPC   C4A39054  42.447  11.517   7.707
 2844POPC   C1B39055  42.429  11.020   8.717
 2844POPC   C2B39056  42.419  10.860   8.311
 2844POPC   C3B39057  42.449  11.060   7.941
 2844POPC   C4B39058  42.281  11.067   7.540
 2845POPC   NC339059  22.581  35.295   9.494
 2845POPC   PO439060  21.929  35.086   9.494
 2845POPC   GL139061  22.161  35.322   9.201
 2845POPC   GL239062  22.331  35.035   9.120
 2845POPC   C1A39063  22.126  35.436   8.780
 2845POPC   D2A39064  22.042  35.188   8.416
 2845POPC   C3A39065  22.148  35.329   8.014
 2845POPC   C4A39066  21.999  35.114   7.670
 2845POPC   C1B39067  22.474  35.081   8.687
 2845POPC   C2B39068  22.526  35.021   8.225
 2845POPC   C3B39069  22.508  34.998   7.785
 2845POPC   C4B39070  22.388  34.992   7.337
 2846POPC   NC339071  33.574  36.087   9.759
 2846POPC   PO439072  33.782  36.440   9.245
 2846POPC   GL139073  33.854  36.408   8.926
 2846POPC   GL239074  34.191  36.489   8.935
 2846POPC   C1A39075  33.676  36.563   8.602
 2846POPC   D2A39076  33.620  36.226   8.418
 2846POPC   C3A39077  33.808  36.295   8.086
 2846POPC   C4A39078  33.646  36.456   7.753
 2846POPC   C1B39079  34.156  36.207   8.598
 2846POPC   C2B39080  34.333  36.227   8.255
 2846POPC   C3B39081  34.277  36.325   7.888
 2846POPC   C4B39082  34.014  36.074   7.679
 2847POPC   NC339083  42.937  19.479   9.504
 2847POPC   PO439084  43.488  19.798   9.569
 2847POPC   GL139085  43.165  19.883   9.233
 2847POPC   GL239086  43.055  19.616   9.021
 2847POPC   C1A39087  43.034  20.069   8.815
 2847POPC   D2A39088  42.989  19.932   8.378
 2847POPC   C3A39089  43.245  20.147   8.061
 2847POPC   C4A39090  43.422  19.997   7.673
 2847POPC   C1B39091  42.725  19.629   8.716
 2847POPC   C2B39092  42.649  19.558   8.266
 2847POPC   C3B39093  42.605  19.918   8.014
 2847POPC   C4B39094  42.883  20.052   7.713
 2848POPC   NC339095  41.317  36.898   9.336
 2848POPC   PO439096  41.877  36.610   9.268
 2848POPC   GL139097  41.696  36.866   8.999
 2848POPC   GL239098  41.764  37.149   9.221
 2848POPC   C1A39099  41.365  36.885   8.688
 2848POPC   D2A39100  41.412  36.730   8.289
 2848POPC   C3A39101  41.356  36.979   7.930
 2848POPC   C4A39102  41.542  36.673   7.704
 2848POPC   C1B39103  41.906  37.270   8.803
 2848POPC   C2B39104  41.762  37.084   8.434
 2848POPC   C3B39105  41.845  36.949   8.060
 2848POPC   C4B39106  41.836  37.104   7.710
 2849POPC   NC339107  28.049  18.389   9.465
 2849POPC   PO439108  28.675  18.122   9.417
 2849POPC   GL139109  28.361  18.241   9.092
 2849POPC   GL239110  28.301  18.622   9.057
 2849POPC   C1A39111  28.381  18.233   8.653
 2849POPC   D2A39112  28.640  18.486   8.405
 2849POPC   C3A39113  28.469  18.455   8.002
 2849POPC   C4A39114  28.620  18.254   7.684
 2849POPC   C1B39115  27.934  18.496   8.805
 2849POPC   C2B39116  27.848  18.462   8.374
 2849POPC   C3B39117  27.989  18.626   7.978
 2849POPC   C4B39118  28.158  18.483   7.578
 2850POPC   NC339119  13.458  30.217   9.221
 2850POPC   PO439120  13.639  30.599   9.796
 2850POPC   GL139121  13.654  30.724   9.320
 2850POPC   GL239122  13.855  30.523   9.104
 2850POPC   C1A39123  13.450  30.761   8.891
 2850POPC   D2A39124  13.409  30.753   8.464
 2850POPC   C3A39125  13.756  30.998   8.304
 2850POPC   C4A39126  13.787  30.912   7.891
 2850POPC   C1B39127  13.774  30.388   8.667
 2850POPC   C2B39128  13.789  30.499   8.251
 2850POPC   C3B39129  13.440  30.537   7.993
 2850POPC   C4B39130  13.353  30.306   7.636
 2851POPC   NC339131   4.202   6.363   9.427
 2851POPC   PO439132   4.571   6.900   9.410
 2851POPC   GL139133   4.452   6.636   9.064
 2851POPC   GL239134   4.106   6.559   8.965
 2851POPC   C1A39135   4.482   6.786   8.645
 2851POPC   D2A39136   4.622   7.074   8.341
 2851POPC   C3A39137   4.614   6.859   7.951
 2851POPC   C4A39138   4.363   6.506   7.809
 2851POPC   C1B39139   3.948   6.771   8.594
 2851POPC   C2B39140   4.093   6.770   8.158
 2851POPC   C3B39141   4.102   6.942   7.730
 2851POPC   C4B39142   4.132   6.975   7.272
 2852POPC   NC339143  32.097   5.488   9.679
 2852POPC   PO439144  32.400   4.896   9.592
 2852POPC   GL139145  32.368   5.066   9.168
 2852POPC   GL239146  32.702   5.161   9.117
 2852POPC   C1A39147  32.198   5.036   8.729
 2852POPC   D2A39148  32.328   4.887   8.326
 2852POPC   C3A39149  32.216   5.090   7.928
 2852POPC   C4A39150  31.808   5.280   7.883
 2852POPC   C1B39151  32.614   5.329   8.694
 2852POPC   C2B39152  32.751   5.208   8.285
 2852POPC   C3B39153  32.717   5.257   7.859
 2852POPC   C4B39154  32.469   5.521   7.738
 2853POPC   NC339155  32.111  24.794   9.614
 2853POPC   PO439156  32.096  24.087   9.421
 2853POPC   GL139157  32.143  24.442   9.194
 2853POPC   GL239158  32.500  24.467   9.094
 2853POPC   C1A39159  32.121  24.710   8.847
 2853POPC   D2A39160  31.944  24.608   8.458
 2853POPC   C3A39161  32.106  24.725   8.036
 2853POPC   C4A39162  32.236  24.756   7.609
 2853POPC   C1B39163  32.461  24.361   8.632
 2853POPC   C2B39164  32.275  24.274   8.221
 2853POPC   C3B39165  32.373  24.307   7.783
 2853POPC   C4B39166  32.294  24.300   7.313
 2854POPC   NC339167  31.824   5.902   9.358
 2854POPC   PO439168  32.440   5.834   9.604
 2854POPC   GL139169  32.508   5.972   9.187
 2854POPC   GL239170  32.426   5.621   9.109
 2854POPC   C1A39171  32.643   5.903   8.739
 2854POPC   D2A39172  32.577   5.725   8.327
 2854POPC   C3A39173  32.573   6.000   8.010
 2854POPC   C4A39174  32.375   6.010   7.632
 2854POPC   C1B39175  32.142   5.557   8.752
 2854POPC   C2B39176  32.184   5.421   8.328
 2854POPC   C3B39177  32.090   5.718   7.984
 2854POPC   C4B39178  32.000   5.610   7.535
 2855POPC   NC339179   7.640   8.560   9.261
 2855POPC   PO439180   7.407   7.993   9.537
 2855POPC   GL139181   7.574   7.835   9.162
 2855POPC   GL239182   7.408   8.132   9.027
 2855POPC   C1A39183   7.757   7.878   8.736
 2855POPC   D2A39184   7.491   8.046   8.409
 2855POPC   C3A39185   7.605   8.285   8.089
 2855POPC   C4A39186   7.529   8.206   7.681
 2855POPC   C1B39187   7.111   8.249   8.714
 2855POPC   C2B39188   6.988   8.168   8.313
 2855POPC   C3B39189   7.108   8.291   7.970
 2855POPC   C4B39190   7.000   8.487   7.683
 2856POPC   NC339191  39.457  26.248   9.480
 2856POPC   PO439192  39.813  25.712   9.327
 2856POPC   GL139193  39.511  25.973   9.073
 2856POPC   GL239194  39.155  25.942   9.179
 2856POPC   C1A39195  39.320  26.157   8.696
 2856POPC   D2A39196  39.455  25.991   8.288
 2856POPC   C3A39197  39.271  26.186   7.926
 2856POPC   C4A39198  39.149  26.011   7.521
 2856POPC   C1B39199  38.910  25.851   8.807
 2856POPC   C2B39200  38.921  25.972   8.368
 2856POPC   C3B39201  38.962  25.787   7.958
 2856POPC   C4B39202  38.748  25.691   7.576
 2857POPC   NC339203  41.860   9.446   9.618
 2857POPC   PO439204  41.249   9.774   9.550
 2857POPC   GL139205  41.655   9.800   9.270
 2857POPC   GL239206  41.646  10.111   9.084
 2857POPC   C1A39207  41.832   9.722   8.812
 2857POPC   D2A39208  41.597   9.743   8.398
 2857POPC   C3A39209  41.764   9.851   7.983
 2857POPC   C4A39210  41.755   9.783   7.544
 2857POPC   C1B39211  41.340   9.841   8.854
 2857POPC   C2B39212  41.098   9.923   8.495
 2857POPC   C3B39213  41.261  10.019   8.100
 2857POPC   C4B39214  41.298   9.849   7.697
 2858POPC   NC339215  15.988  18.078   9.444
 2858POPC   PO439216  16.132  18.798   9.484
 2858POPC   GL139217  15.940  18.530   9.127
 2858POPC   GL239218  16.058  18.177   8.955
 2858POPC   C1A39219  15.842  18.525   8.689
 2858POPC   D2A39220  16.034  18.251   8.381
 2858POPC   C3A39221  16.071  18.488   8.015
 2858POPC   C4A39222  15.820  18.801   7.799
 2858POPC   C1B39223  15.651  18.054   8.682
 2858POPC   C2B39224  15.613  17.886   8.247
 2858POPC   C3B39225  15.883  18.004   7.897
 2858POPC   C4B39226  16.337  17.876   7.826
 2859POPC   NC339227  21.862  41.884   9.392
 2859POPC   PO439228  22.348  41.464   9.660
 2859POPC   GL139229  22.319  41.531   9.172
 2859POPC   GL239230  21.963  41.559   9.019
 2859POPC   C1A39231  22.313  41.362   8.707
 2859POPC   D2A39232  22.396  41.389   8.246
 2859POPC   C3A39233  22.149  41.615   7.967
 2859POPC   C4A39234  22.126  41.613   7.535
 2859POPC   C1B39235  22.270  41.860   8.786
 2859POPC   C2B39236  22.473  41.868   8.350
 2859POPC   C3B39237  22.478  41.982   7.872
 2859POPC   C4B39238  22.457  41.994   7.390
 2860POPC   NC339239   8.861  32.805   9.406
 2860POPC   PO439240   9.498  33.196   9.461
 2860POPC   GL139241   9.251  33.205   9.090
 2860POPC   GL239242   9.067  33.504   9.061
 2860POPC   C1A39243   9.170  32.943   8.717
 2860POPC   D2A39244   8.918  32.951   8.340
 2860POPC   C3A39245   9.086  33.065   7.941
 2860POPC   C4A39246   9.030  32.828   7.538
 2860POPC   C1B39247   8.953  33.403   8.630
 2860POPC   C2B39248   8.650  33.410   8.300
 2860POPC   C3B39249   8.544  33.322   7.881
 2860POPC   C4B39250   8.817  33.280   7.534
 2861POPC   NC339251  36.955   7.090   9.344
 2861POPC   PO439252  36.745   7.703   9.463
 2861POPC   GL139253  36.816   7.540   9.119
 2861POPC   GL239254  37.130   7.513   9.110
 2861POPC   C1A39255  36.758   7.674   8.739
 2861POPC   D2A39256  36.557   7.542   8.410
 2861POPC   C3A39257  36.756   7.579   8.024
 2861POPC   C4A39258  36.590   7.297   7.715
 2861POPC   C1B39259  37.287   7.309   8.773
 2861POPC   C2B39260  37.134   7.410   8.378
 2861POPC   C3B39261  37.267   7.596   7.995
 2861POPC   C4B39262  37.112   7.372   7.656
 2862POPC   NC339263  43.305  25.259   9.594
 2862POPC   PO439264  42.610  25.263   9.589
 2862POPC   GL139265  42.873  25.323   9.238
 2862POPC   GL239266  43.066  25.053   9.132
 2862POPC   C1A39267  42.871  25.427   8.789
 2862POPC   D2A39268  43.074  25.635   8.414
 2862POPC   C3A39269  42.958  25.438   8.044
 2862POPC   C4A39270  43.209  25.111   7.870
 2862POPC   C1B39271  43.376  24.966   8.768
 2862POPC   C2B39272  43.533  25.111   8.364
 2862POPC   C3B39273  43.662  24.903   7.987
 2862POPC   C4B39274  43.543  24.862   7.576
 2863POPC   NC339275  26.665  30.151   9.863
 2863POPC   PO439276  26.535  29.585   9.590
 2863POPC   GL139277  26.440  29.702   9.153
 2863POPC   GL239278  26.732  29.699   8.942
 2863POPC   C1A39279  26.431  30.081   8.827
 2863POPC   D2A39280  26.376  30.353   8.445
 2863POPC   C3A39281  26.586  30.228   8.056
 2863POPC   C4A39282  26.471  29.888   7.788
 2863POPC   C1B39283  27.054  29.764   8.637
 2863POPC   C2B39284  27.285  29.858   8.257
 2863POPC   C3B39285  27.030  29.952   7.922
 2863POPC   C4B39286  26.901  29.735   7.576
 2864POPC   NC339287   5.020   9.952   9.574
 2864POPC   PO439288   5.193   9.292   9.657
 2864POPC   GL139289   5.220   9.634   9.240
 2864POPC   GL239290   4.937   9.753   9.122
 2864POPC   C1A39291   5.331   9.691   8.767
 2864POPC   D2A39292   5.194   9.468   8.371
 2864POPC   C3A39293   5.387   9.619   7.981
 2864POPC   C4A39294   5.451   9.990   7.719
 2864POPC   C1B39295   4.817   9.620   8.764
 2864POPC   C2B39296   4.724   9.831   8.398
 2864POPC   C3B39297   4.836   9.656   8.031
 2864POPC   C4B39298   4.982   9.836   7.679
 2865POPC   NC339299  22.782  34.349   9.239
 2865POPC   PO439300  23.071  33.787   9.602
 2865POPC   GL139301  22.927  33.874   9.192
 2865POPC   GL239302  23.213  34.054   9.123
 2865POPC   C1A39303  22.953  33.984   8.702
 2865POPC   D2A39304  23.088  33.908   8.259
 2865POPC   C3A39305  22.886  34.075   7.883
 2865POPC   C4A39306  22.759  33.962   7.471
 2865POPC   C1B39307  23.465  34.004   8.736
 2865POPC   C2B39308  23.491  34.247   8.333
 2865POPC   C3B39309  23.386  34.134   7.901
 2865POPC   C4B39310  23.296  33.882   7.508
 2866POPC   NC339311  37.836  21.852   9.510
 2866POPC   PO439312  37.443  22.443   9.486
 2866POPC   GL139313  37.716  22.224   9.165
 2866POPC   GL239314  37.955  22.417   8.987
 2866POPC   C1A39315  37.701  22.021   8.767
 2866POPC   D2A39316  37.503  22.027   8.431
 2866POPC   C3A39317  37.659  22.267   8.103
 2866POPC   C4A39318  37.586  22.138   7.683
 2866POPC   C1B39319  38.194  22.033   8.815
 2866POPC   C2B39320  38.102  21.859   8.383
 2866POPC   C3B39321  38.030  21.929   7.948
 2866POPC   C4B39322  38.035  22.356   7.757
 2867POPC   NC339323  25.612  22.517   9.339
 2867POPC   PO439324  26.188  22.170   9.469
 2867POPC   GL139325  25.990  22.241   9.093
 2867POPC   GL239326  25.655  22.075   9.070
 2867POPC   C1A39327  26.130  22.029   8.728
 2867POPC   D2A39328  26.139  21.870   8.307
 2867POPC   C3A39329  26.290  22.201   8.061
 2867POPC   C4A39330  26.176  22.266   7.650
 2867POPC   C1B39331  25.635  22.330   8.726
 2867POPC   C2B39332  25.886  22.314   8.376
 2867POPC   C3B39333  25.758  22.285   7.976
 2867POPC   C4B39334  25.729  22.579   7.675
 2868POPC   NC339335  28.322  40.847   9.861
 2868POPC   PO439336  27.903  40.508   9.598
 2868POPC   GL139337  27.991  40.744   9.250
 2868POPC   GL239338  28.338  40.645   9.217
 2868POPC   C1A39339  28.079  40.677   8.779
 2868POPC   D2A39340  28.248  40.578   8.349
 2868POPC   C3A39341  28.304  40.909   8.061
 2868POPC   C4A39342  28.032  40.953   7.718
 2868POPC   C1B39343  28.561  40.532   8.808
 2868POPC   C2B39344  28.730  40.406   8.399
 2868POPC   C3B39345  28.735  40.625   7.981
 2868POPC   C4B39346  28.562  40.766   7.583
 2869POPC   NC339347  19.601  38.948   9.450
 2869POPC   PO439348  20.224  39.033   9.438
 2869POPC   GL139349  20.065  39.228   9.064
 2869POPC   GL239350  19.693  39.171   8.991
 2869POPC   C1A39351  19.982  39.354   8.633
 2869POPC   D2A39352  19.652  39.131   8.410
 2869POPC   C3A39353  19.800  38.988   8.035
 2869POPC   C4A39354  19.960  39.174   7.705
 2869POPC   C1B39355  19.490  39.513   8.714
 2869POPC   C2B39356  19.655  39.630   8.290
 2869POPC   C3B39357  19.768  39.642   7.832
 2869POPC   C4B39358  19.631  39.420   7.439
 2870POPC   NC339359   6.377  31.143   9.505
 2870POPC   PO439360   6.328  31.711   9.168
 2870POPC   GL139361   6.536  31.346   9.048
 2870POPC   GL239362   6.821  31.081   9.088
 2870POPC   C1A39363   6.573  31.328   8.629
 2870POPC   D2A39364   6.652  31.675   8.387
 2870POPC   C3A39365   6.661  31.607   7.961
 2870POPC   C4A39366   6.996  31.784   7.746
 2870POPC   C1B39367   7.063  31.266   8.693
 2870POPC   C2B39368   7.013  31.336   8.248
 2870POPC   C3B39369   7.073  31.270   7.812
 2870POPC   C4B39370   6.910  31.158   7.410
 2871POPC   NC339371  39.708  24.649   9.228
 2871POPC   PO439372  40.206  24.367   9.514
 2871POPC   GL139373  40.126  24.206   9.117
 2871POPC   GL239374  39.752  24.063   9.062
 2871POPC   C1A39375  40.222  24.527   8.801
 2871POPC   D2A39376  39.948  24.780   8.581
 2871POPC   C3A39377  40.058  24.751   8.164
 2871POPC   C4A39378  39.849  24.786   7.807
 2871POPC   C1B39379  39.827  24.236   8.695
 2871POPC   C2B39380  40.105  24.187   8.347
 2871POPC   C3B39381  39.974  24.190   7.918
 2871POPC   C4B39382  40.172  24.032   7.547
 2872POPC   NC339383  15.830   5.592   9.688
 2872POPC   PO439384  15.893   4.889   9.671
 2872POPC   GL139385  15.951   4.951   9.220
 2872POPC   GL239386  16.016   5.256   9.168
 2872POPC   C1A39387  15.881   4.933   8.782
 2872POPC   D2A39388  15.681   5.134   8.449
 2872POPC   C3A39389  15.622   4.826   8.097
 2872POPC   C4A39390  15.798   4.872   7.664
 2872POPC   C1B39391  16.215   5.352   8.788
 2872POPC   C2B39392  16.197   5.174   8.397
 2872POPC   C3B39393  15.976   5.184   8.025
 2872POPC   C4B39394  16.136   5.289   7.622
 2873POPC   NC339395  20.435   9.096   9.822
 2873POPC   PO439396  19.906   8.850   9.660
 2873POPC   GL139397  19.836   8.813   9.217
 2873POPC   GL239398  19.774   9.145   9.091
 2873POPC   C1A39399  19.769   8.755   8.772
 2873POPC   D2A39400  19.770   9.014   8.411
 2873POPC   C3A39401  19.861   8.860   7.978
 2873POPC   C4A39402  20.190   8.890   7.624
 2873POPC   C1B39403  20.147   9.095   8.761
 2873POPC   C2B39404  20.247   9.002   8.278
 2873POPC   C3B39405  20.076   9.307   7.906
 2873POPC   C4B39406  20.105   9.442   7.443
 2874POPC   NC339407  34.878  44.979   9.431
 2874POPC   PO439408  34.529  44.441   9.431
 2874POPC   GL139409  34.380  44.595   9.094
 2874POPC   GL239410  34.682  44.764   9.010
 2874POPC   C1A39411  34.369  44.596   8.669
 2874POPC   D2A39412  34.634  44.762   8.458
 2874POPC   C3A39413  34.374  44.708   8.108
 2874POPC   C4A39414  34.498  44.644   7.720
 2874POPC   C1B39415  34.954   0.056   8.772
 2874POPC   C2B39416  35.104  44.967   8.370
 2874POPC   C3B39417  34.944  44.722   8.032
 2874POPC   C4B39418  34.947  44.880   7.618
 2875POPC   NC339419   4.031  37.948   9.476
 2875POPC   PO439420   4.208  38.449   9.966
 2875POPC   GL139421   4.324  38.383   9.490
 2875POPC   GL239422   4.671  38.279   9.364
 2875POPC   C1A39423   4.340  38.589   9.062
 2875POPC   D2A39424   4.074  38.596   8.668
 2875POPC   C3A39425   4.232  38.679   8.253
 2875POPC   C4A39426   4.246  38.439   7.880
 2875POPC   C1B39427   4.720  38.298   8.890
 2875POPC   C2B39428   4.599  38.305   8.436
 2875POPC   C3B39429   4.702  38.290   7.989
 2875POPC   C4B39430   4.650  38.422   7.488
 2876POPC   NC339431   6.760  10.021   9.481
 2876POPC   PO439432   6.958   9.414   9.427
 2876POPC   GL139433   6.740   9.621   9.136
 2876POPC   GL239434   6.402   9.690   9.237
 2876POPC   C1A39435   6.840   9.847   8.793
 2876POPC   D2A39436   7.032   9.654   8.465
 2876POPC   C3A39437   6.899   9.787   8.094
 2876POPC   C4A39438   6.768   9.848   7.708
 2876POPC   C1B39439   6.351   9.657   8.786
 2876POPC   C2B39440   6.483   9.866   8.410
 2876POPC   C3B39441   6.372   9.955   8.011
 2876POPC   C4B39442   6.259   9.650   7.700
 2877POPC   NC339443  25.000  27.663   9.293
 2877POPC   PO439444  24.326  27.806   9.465
 2877POPC   GL139445  24.481  27.747   9.110
 2877POPC   GL239446  24.563  27.409   9.116
 2877POPC   C1A39447  24.567  27.796   8.694
 2877POPC   D2A39448  24.338  27.690   8.335
 2877POPC   C3A39449  24.574  27.762   7.982
 2877POPC   C4A39450  24.464  27.657   7.554
 2877POPC   C1B39451  24.254  27.406   8.778
 2877POPC   C2B39452  24.324  27.173   8.394
 2877POPC   C3B39453  24.454  27.247   7.982
 2877POPC   C4B39454  24.836  27.381   7.789
 2878POPC   NC339455  38.856  24.739   9.465
 2878POPC   PO439456  39.424  24.314   9.377
 2878POPC   GL139457  39.224  24.484   9.049
 2878POPC   GL239458  38.856  24.385   9.075
 2878POPC   C1A39459  39.431  24.553   8.636
 2878POPC   D2A39460  39.664  24.441   8.269
 2878POPC   C3A39461  39.452  24.539   7.947
 2878POPC   C4A39462  39.408  24.697   7.516
 2878POPC   C1B39463  38.938  24.416   8.640
 2878POPC   C2B39464  39.055  24.699   8.288
 2878POPC   C3B39465  38.995  24.716   7.853
 2878POPC   C4B39466  39.074  24.316   7.714
 2879POPC   NC339467  31.312  34.948   9.572
 2879POPC   PO439468  31.509  34.344   9.489
 2879POPC   GL139469  31.326  34.580   9.191
 2879POPC   GL239470  31.590  34.830   9.160
 2879POPC   C1A39471  31.306  34.677   8.756
 2879POPC   D2A39472  31.207  34.482   8.376
 2879POPC   C3A39473  31.380  34.697   8.058
 2879POPC   C4A39474  31.394  34.644   7.714
 2879POPC   C1B39475  31.840  34.664   8.835
 2879POPC   C2B39476  31.718  34.668   8.425
 2879POPC   C3B39477  31.735  34.341   8.112
 2879POPC   C4B39478  31.811  34.362   7.652
 2880POPC   NC339479  15.354  30.176   9.595
 2880POPC   PO439480  15.536  29.531   9.516
 2880POPC   GL139481  15.260  29.816   9.198
 2880POPC   GL239482  15.205  30.144   9.119
 2880POPC   C1A39483  15.132  29.783   8.748
 2880POPC   D2A39484  15.378  29.654   8.375
 2880POPC   C3A39485  15.162  29.708   7.975
 2880POPC   C4A39486  15.361  29.922   7.621
 2880POPC   C1B39487  14.800  30.171   8.872
 2880POPC   C2B39488  14.814  30.144   8.452
 2880POPC   C3B39489  14.998  30.234   8.054
 2880POPC   C4B39490  14.873  30.136   7.678
 2881POPC   NC339491  28.675  14.383   9.752
 2881POPC   PO439492  29.024  14.677   9.343
 2881POPC   GL139493  28.922  14.260   9.214
 2881POPC   GL239494  29.231  14.038   9.233
 2881POPC   C1A39495  28.751  14.329   8.815
 2881POPC   D2A39496  28.952  14.516   8.467
 2881POPC   C3A39497  28.990  14.257   8.103
 2881POPC   C4A39498  28.829  14.317   7.672
 2881POPC   C1B39499  29.272  14.257   8.821
 2881POPC   C2B39500  29.476  14.333   8.445
 2881POPC   C3B39501  29.432  14.489   8.040
 2881POPC   C4B39502  29.389  14.256   7.650
 2882POPC   NC339503  35.977  27.238   9.535
 2882POPC   PO439504  36.188  26.605   9.534
 2882POPC   GL139505  36.053  26.849   9.186
 2882POPC   GL239506  36.274  27.128   9.122
 2882POPC   C1A39507  35.869  26.720   8.788
 2882POPC   D2A39508  35.984  26.582   8.379
 2882POPC   C3A39509  35.835  26.604   7.974
 2882POPC   C4A39510  35.939  26.886   7.666
 2882POPC   C1B39511  36.088  27.194   8.762
 2882POPC   C2B39512  36.200  27.059   8.376
 2882POPC   C3B39513  36.123  27.214   8.029
 2882POPC   C4B39514  36.295  27.329   7.680
 2883POPC   NC339515  36.770  14.505   9.728
 2883POPC   PO439516  36.051  14.535   9.599
 2883POPC   GL139517  36.170  14.477   9.185
 2883POPC   GL239518  36.056  14.128   9.134
 2883POPC   C1A39519  36.423  14.690   8.868
 2883POPC   D2A39520  36.595  14.557   8.469
 2883POPC   C3A39521  36.399  14.636   8.054
 2883POPC   C4A39522  36.093  14.428   7.772
 2883POPC   C1B39523  36.226  14.245   8.716
 2883POPC   C2B39524  36.346  14.096   8.342
 2883POPC   C3B39525  36.108  13.983   8.012
 2883POPC   C4B39526  36.164  13.925   7.580
 2884POPC   NC339527  13.492   0.875   9.691
 2884POPC   PO439528  13.540   0.315   9.421
 2884POPC   GL139529  13.721   0.508   9.069
 2884POPC   GL239530  13.916   0.863   9.026
 2884POPC   C1A39531  13.664   0.422   8.643
 2884POPC   D2A39532  13.385   0.309   8.317
 2884POPC   C3A39533  13.443   0.521   7.935
 2884POPC   C4A39534  13.549   0.487   7.520
 2884POPC   C1B39535  13.513   0.900   8.838
 2884POPC   C2B39536  13.423   0.817   8.393
 2884POPC   C3B39537  13.652   0.984   8.046
 2884POPC   C4B39538  13.527   0.990   7.628
 2885POPC   NC339539  11.731  18.862   9.405
 2885POPC   PO439540  12.346  19.035   9.637
 2885POPC   GL139541  12.201  18.934   9.213
 2885POPC   GL239542  12.004  19.217   9.099
 2885POPC   C1A39543  12.076  18.855   8.761
 2885POPC   D2A39544  12.098  19.132   8.396
 2885POPC   C3A39545  12.335  19.035   8.019
 2885POPC   C4A39546  12.224  19.188   7.613
 2885POPC   C1B39547  11.729  19.276   8.735
 2885POPC   C2B39548  11.591  18.994   8.392
 2885POPC   C3B39549  11.595  19.137   7.964
 2885POPC   C4B39550  11.513  19.550   7.824
 2886POPC   NC339551  25.917   1.403   9.542
 2886POPC   PO439552  26.131   0.697   9.583
 2886POPC   GL139553  26.170   1.042   9.188
 2886POPC   GL239554  25.957   1.373   9.063
 2886POPC   C1A39555  26.345   1.242   8.784
 2886POPC   D2A39556  26.189   1.498   8.433
 2886POPC   C3A39557  26.351   1.409   8.048
 2886POPC   C4A39558  26.288   1.269   7.654
 2886POPC   C1B39559  25.768   1.344   8.688
 2886POPC   C2B39560  25.923   1.032   8.401
 2886POPC   C3B39561  25.956   1.041   7.960
 2886POPC   C4B39562  25.812   1.438   7.762
 2887POPC   NC339563  20.241  22.357   9.283
 2887POPC   PO439564  19.789  21.984   9.654
 2887POPC   GL139565  19.787  22.092   9.185
 2887POPC   GL239566  20.105  21.995   8.980
 2887POPC   C1A39567  19.616  22.232   8.772
 2887POPC   D2A39568  19.711  22.420   8.348
 2887POPC   C3A39569  19.615  22.218   7.968
 2887POPC   C4A39570  19.510  21.967   7.615
 2887POPC   C1B39571  20.112  22.340   8.653
 2887POPC   C2B39572  20.265  22.460   8.241
 2887POPC   C3B39573  20.095  22.430   7.805
 2887POPC   C4B39574  20.107  22.527   7.321
 2888POPC   NC339575  25.614  22.552   9.849
 2888POPC   PO439576  25.000  22.356   9.600
 2888POPC   GL139577  25.137  22.390   9.205
 2888POPC   GL239578  25.107  22.079   9.121
 2888POPC   C1A39579  25.087  22.455   8.775
 2888POPC   D2A39580  25.221  22.292   8.398
 2888POPC   C3A39581  25.070  22.534   8.075
 2888POPC   C4A39582  25.265  22.307   7.758
 2888POPC   C1B39583  25.277  21.941   8.766
 2888POPC   C2B39584  25.657  21.854   8.550
 2888POPC   C3B39585  25.678  21.757   8.136
 2888POPC   C4B39586  25.960  21.842   7.808
 2889POPC   NC339587  28.122  30.033   9.522
 2889POPC   PO439588  28.713  30.011   9.198
 2889POPC   GL139589  28.339  29.816   9.057
 2889POPC   GL239590  27.998  29.646   9.197
 2889POPC   C1A39591  28.513  29.761   8.636
 2889POPC   D2A39592  28.759  30.106   8.472
 2889POPC   C3A39593  28.489  30.153   8.131
 2889POPC   C4A39594  28.225  29.950   7.857
 2889POPC   C1B39595  28.084  29.514   8.756
 2889POPC   C2B39596  28.260  29.413   8.342
 2889POPC   C3B39597  28.109  29.439   7.932
 2889POPC   C4B39598  28.208  29.563   7.529
 2890POPC   NC339599  23.492  30.326   9.424
 2890POPC   PO439600  23.881  30.899   9.555
 2890POPC   GL139601  23.920  30.832   9.126
 2890POPC   GL239602  23.780  30.516   9.024
 2890POPC   C1A39603  23.761  30.933   8.746
 2890POPC   D2A39604  23.956  30.907   8.370
 2890POPC   C3A39605  23.747  30.973   7.967
 2890POPC   C4A39606  23.963  30.755   7.635
 2890POPC   C1B39607  23.764  30.456   8.552
 2890POPC   C2B39608  23.782  30.480   8.115
 2890POPC   C3B39609  23.517  30.536   7.780
 2890POPC   C4B39610  23.279  30.332   7.488
 2891POPC   NC339611  41.090  43.558   9.794
 2891POPC   PO439612  40.767  43.004   9.625
 2891POPC   GL139613  40.794  42.900   9.221
 2891POPC   GL239614  40.662  43.244   9.176
 2891POPC   C1A39615  40.872  42.682   8.869
 2891POPC   D2A39616  40.717  42.784   8.482
 2891POPC   C3A39617  40.877  42.654   8.141
 2891POPC   C4A39618  40.784  42.734   7.753
 2891POPC   C1B39619  40.818  43.197   8.791
 2891POPC   C2B39620  40.903  43.263   8.384
 2891POPC   C3B39621  40.726  43.181   8.038
 2891POPC   C4B39622  40.893  43.221   7.664
 2892POPC   NC339623  11.753  26.292   9.407
 2892POPC   PO439624  12.368  25.982   9.605
 2892POPC   GL139625  12.140  25.966   9.221
 2892POPC   GL239626  11.837  25.763   9.294
 2892POPC   C1A39627  12.165  26.074   8.790
 2892POPC   D2A39628  12.011  25.995   8.411
 2892POPC   C3A39629  12.201  26.013   8.006
 2892POPC   C4A39630  12.227  25.715   7.707
 2892POPC   C1B39631  11.641  25.719   8.891
 2892POPC   C2B39632  11.548  25.765   8.466
 2892POPC   C3B39633  11.737  25.777   8.048
 2892POPC   C4B39634  11.719  25.826   7.599
 2893POPC   NC339635   1.312   2.065   9.475
 2893POPC   PO439636   0.688   1.991   9.647
 2893POPC   GL139637   0.946   1.864   9.226
 2893POPC   GL239638   0.978   2.188   9.086
 2893POPC   C1A39639   1.205   1.885   8.759
 2893POPC   D2A39640   1.319   2.190   8.364
 2893POPC   C3A39641   1.267   2.051   7.896
 2893POPC   C4A39642   1.416   1.654   7.689
 2893POPC   C1B39643   0.774   2.141   8.684
 2893POPC   C2B39644   0.838   2.027   8.246
 2893POPC   C3B39645   0.790   2.270   7.878
 2893POPC   C4B39646   0.984   2.296   7.465
 2894POPC   NC339647   5.683  44.652   9.542
 2894POPC   PO439648   6.151   0.067   9.342
 2894POPC   GL139649   5.901  44.812   9.069
 2894POPC   GL239650   5.551  44.769   9.069
 2894POPC   C1A39651   5.948  44.525   8.722
 2894POPC   D2A39652   5.865  44.353   8.283
 2894POPC   C3A39653   5.944  44.656   7.927
 2894POPC   C4A39654   6.041  44.689   7.465
 2894POPC   C1B39655   5.442  44.560   8.704
 2894POPC   C2B39656   5.524  44.732   8.350
 2894POPC   C3B39657   5.418  44.606   7.972
 2894POPC   C4B39658   5.539  44.682   7.570
 2895POPC   NC339659  12.340   8.195   9.516
 2895POPC   PO439660  11.680   8.406   9.514
 2895POPC   GL139661  11.870   8.243   9.132
 2895POPC   GL239662  12.200   8.121   9.036
 2895POPC   C1A39663  11.766   8.206   8.717
 2895POPC   D2A39664  12.038   8.254   8.365
 2895POPC   C3A39665  11.834   8.258   8.001
 2895POPC   C4A39666  11.952   8.225   7.604
 2895POPC   C1B39667  12.174   7.876   8.659
 2895POPC   C2B39668  12.399   7.770   8.282
 2895POPC   C3B39669  12.206   7.831   7.886
 2895POPC   C4B39670  12.322   7.907   7.441
 2896POPC   NC339671  10.594  38.886   9.646
 2896POPC   PO439672  10.338  38.236   9.540
 2896POPC   GL139673  10.536  38.533   9.262
 2896POPC   GL239674  10.772  38.820   9.170
 2896POPC   C1A39675  10.622  38.390   8.877
 2896POPC   D2A39676  10.440  38.446   8.493
 2896POPC   C3A39677  10.452  38.129   8.188
 2896POPC   C4A39678  10.206  38.295   7.858
 2896POPC   C1B39679  10.971  38.741   8.797
 2896POPC   C2B39680  10.942  38.469   8.447
 2896POPC   C3B39681  10.902  38.364   8.033
 2896POPC   C4B39682  10.648  38.482   7.719
 2897POPC   NC339683  31.821  29.823   9.312
 2897POPC   PO439684  32.484  30.077   9.472
 2897POPC   GL139685  32.350  30.067   9.054
 2897POPC   GL239686  32.267  29.737   9.079
 2897POPC   C1A39687  32.000  30.006   8.726
 2897POPC   D2A39688  31.954  29.818   8.353
 2897POPC   C3A39689  32.201  30.064   8.106
 2897POPC   C4A39690  32.115  30.053   7.706
 2897POPC   C1B39691  32.450  29.746   8.654
 2897POPC   C2B39692  32.694  29.503   8.387
 2897POPC   C3B39693  32.570  29.640   8.008
 2897POPC   C4B39694  32.170  29.566   7.900
 2898POPC   NC339695  42.825  34.827   9.466
 2898POPC   PO439696  43.298  34.345   9.531
 2898POPC   GL139697  43.136  34.548   9.167
 2898POPC   GL239698  43.184  34.244   9.036
 2898POPC   C1A39699  43.056  34.862   8.814
 2898POPC   D2A39700  42.897  34.760   8.379
 2898POPC   C3A39701  43.119  34.776   8.025
 2898POPC   C4A39702  42.988  34.867   7.660
 2898POPC   C1B39703  43.024  34.369   8.675
 2898POPC   C2B39704  43.245  34.366   8.329
 2898POPC   C3B39705  43.170  34.289   7.923
 2898POPC   C4B39706  43.181  34.415   7.500
 2899POPC   NC339707   7.889  10.965   9.459
 2899POPC   PO439708   8.364  11.403   9.451
 2899POPC   GL139709   8.221  11.361   9.064
 2899POPC   GL239710   8.144  11.033   9.029
 2899POPC   C1A39711   8.288  11.356   8.633
 2899POPC   D2A39712   8.120  11.599   8.339
 2899POPC   C3A39713   8.280  11.520   7.958
 2899POPC   C4A39714   8.145  11.209   7.726
 2899POPC   C1B39715   8.541  10.967   8.845
 2899POPC   C2B39716   8.692  11.078   8.454
 2899POPC   C3B39717   8.415  11.058   8.145
 2899POPC   C4B39718   8.597  10.951   7.784
 2900POPC   NC339719  37.858  40.586   9.236
 2900POPC   PO439720  37.315  40.839   9.571
 2900POPC   GL139721  37.444  41.058   9.108
 2900POPC   GL239722  37.795  41.073   9.053
 2900POPC   C1A39723  37.505  40.970   8.649
 2900POPC   D2A39724  37.672  40.581   8.460
 2900POPC   C3A39725  37.645  40.610   8.011
 2900POPC   C4A39726  37.493  40.791   7.610
 2900POPC   C1B39727  38.053  40.969   8.698
 2900POPC   C2B39728  37.924  40.999   8.264
 2900POPC   C3B39729  37.894  41.058   7.823
 2900POPC   C4B39730  38.196  41.048   7.510
 2901POPC   NC339731  21.528  18.905   9.704
 2901POPC   PO439732  21.157  18.409   9.595
 2901POPC   GL139733  21.318  18.356   9.150
 2901POPC   GL239734  21.670  18.238   9.072
 2901POPC   C1A39735  21.336  18.179   8.716
 2901POPC   D2A39736  21.246  18.318   8.337
 2901POPC   C3A39737  21.342  18.242   7.933
 2901POPC   C4A39738  21.136  18.477   7.598
 2901POPC   C1B39739  21.831  18.241   8.627
 2901POPC   C2B39740  21.743  18.059   8.234
 2901POPC   C3B39741  21.835  18.241   7.868
 2901POPC   C4B39742  21.603  18.265   7.465
 2902POPC   NC339743   4.628  11.986   9.457
 2902POPC   PO439744   4.003  12.357   9.513
 2902POPC   GL139745   4.224  12.156   9.195
 2902POPC   GL239746   4.152  11.787   9.156
 2902POPC   C1A39747   4.260  12.232   8.771
 2902POPC   D2A39748   4.068  12.104   8.403
 2902POPC   C3A39749   4.287  12.322   8.083
 2902POPC   C4A39750   4.150  12.253   7.685
 2902POPC   C1B39751   4.400  11.712   8.769
 2902POPC   C2B39752   4.517  11.819   8.335
 2902POPC   C3B39753   4.295  11.841   7.935
 2902POPC   C4B39754   4.406  11.782   7.482
 2903POPC   NC339755  19.058  18.622   9.586
 2903POPC   PO439756  18.847  19.225   9.498
 2903POPC   GL139757  19.070  18.982   9.196
 2903POPC   GL239758  19.167  19.298   9.040
 2903POPC   C1A39759  19.067  18.822   8.769
 2903POPC   D2A39760  19.024  19.093   8.384
 2903POPC   C3A39761  19.051  18.930   7.946
 2903POPC   C4A39762  19.388  18.865   7.676
 2903POPC   C1B39763  19.219  19.525   8.651
 2903POPC   C2B39764  19.425  19.415   8.269
 2903POPC   C3B39765  19.302  19.395   7.827
 2903POPC   C4B39766  19.318  19.561   7.403
 2904POPC   NC339767  34.178  44.158   9.516
 2904POPC   PO439768  34.589  43.649   9.503
 2904POPC   GL139769  34.369  43.801   9.146
 2904POPC   GL239770  34.485  44.090   9.091
 2904POPC   C1A39771  34.528  43.748   8.724
 2904POPC   D2A39772  34.786  43.673   8.359
 2904POPC   C3A39773  34.588  43.735   7.965
 2904POPC   C4A39774  34.243  43.639   7.731
 2904POPC   C1B39775  34.716  44.261   8.765
 2904POPC   C2B39776  34.608  44.271   8.326
 2904POPC   C3B39777  34.752  44.244   7.912
 2904POPC   C4B39778  34.514  44.092   7.572
 2905POPC   NC339779   1.096  14.952   9.408
 2905POPC   PO439780   1.604  15.491   9.604
 2905POPC   GL139781   1.501  15.256   9.183
 2905POPC   GL239782   1.372  14.945   8.988
 2905POPC   C1A39783   1.303  15.389   8.769
 2905POPC   D2A39784   1.166  15.193   8.386
 2905POPC   C3A39785   1.197  15.425   8.006
 2905POPC   C4A39786   0.950  15.501   7.653
 2905POPC   C1B39787   0.980  14.845   8.753
 2905POPC   C2B39788   0.790  14.869   8.332
 2905POPC   C3B39789   0.968  14.963   7.924
 2905POPC   C4B39790   1.227  15.040   7.582
 2906POPC   NC339791   0.273  20.349   9.477
 2906POPC   PO439792   0.633  20.840   9.429
 2906POPC   GL139793   0.373  20.909   9.081
 2906POPC   GL239794   0.364  20.580   9.032
 2906POPC   C1A39795   0.304  20.886   8.624
 2906POPC   D2A39796   0.548  21.023   8.250
 2906POPC   C3A39797   0.449  20.761   7.921
 2906POPC   C4A39798   0.543  20.644   7.512
 2906POPC   C1B39799   0.518  20.358   8.672
 2906POPC   C2B39800   0.376  20.387   8.267
 2906POPC   C3B39801   0.277  20.286   7.849
 2906POPC   C4B39802   0.050  20.465   7.577
 2907POPC   NC339803   3.826  11.865   9.566
 2907POPC   PO439804   3.251  12.187   9.435
 2907POPC   GL139805   3.463  11.874   9.201
 2907POPC   GL239806   3.719  12.114   9.143
 2907POPC   C1A39807   3.565  11.822   8.759
 2907POPC   D2A39808   3.307  11.988   8.417
 2907POPC   C3A39809   3.477  11.898   8.020
 2907POPC   C4A39810   3.484  12.092   7.619
 2907POPC   C1B39811   3.733  12.367   8.795
 2907POPC   C2B39812   3.547  12.459   8.410
 2907POPC   C3B39813   3.741  12.326   8.039
 2907POPC   C4B39814   3.725  12.531   7.670
 2908POPC   NC339815  39.455  34.660   9.459
 2908POPC   PO439816  38.773  34.501   9.395
 2908POPC   GL139817  38.917  34.488   8.993
 2908POPC   GL239818  39.243  34.338   9.117
 2908POPC   C1A39819  38.919  34.844   8.666
 2908POPC   D2A39820  39.004  35.009   8.221
 2908POPC   C3A39821  38.912  34.669   7.938
 2908POPC   C4A39822  39.046  34.315   7.707
 2908POPC   C1B39823  39.370  34.622   8.767
 2908POPC   C2B39824  39.235  34.573   8.337
 2908POPC   C3B39825  39.427  34.625   7.921
 2908POPC   C4B39826  39.831  34.596   7.700
 2909POPC   NC339827  25.281   7.929   9.539
 2909POPC   PO439828  25.920   8.264   9.391
 2909POPC   GL139829  25.521   8.067   9.119
 2909POPC   GL239830  25.458   7.655   9.151
 2909POPC   C1A39831  25.350   8.102   8.683
 2909POPC   D2A39832  25.517   8.286   8.288
 2909POPC   C3A39833  25.354   8.439   7.905
 2909POPC   C4A39834  25.364   8.196   7.543
 2909POPC   C1B39835  25.252   7.599   8.741
 2909POPC   C2B39836  25.068   7.797   8.362
 2909POPC   C3B39837  25.229   7.925   7.974
 2909POPC   C4B39838  25.184   7.733   7.593
 2910POPC   NC339839  44.301  30.908   9.684
 2910POPC   PO439840  44.944  30.649   9.560
 2910POPC   GL139841  44.805  30.637   9.162
 2910POPC   GL239842  44.501  30.802   9.188
 2910POPC   C1A39843  44.738  30.751   8.733
 2910POPC   D2A39844  44.503  30.691   8.386
 2910POPC   C3A39845  44.741  30.546   8.066
 2910POPC   C4A39846  44.767  30.699   7.672
 2910POPC   C1B39847  44.236  30.962   8.806
 2910POPC   C2B39848  44.096  30.995   8.349
 2910POPC   C3B39849  44.297  30.907   7.943
 2910POPC   C4B39850  44.464  31.112   7.576
 2911POPC   NC339851  39.530  44.183   9.903
 2911POPC   PO439852  39.093  43.793   9.553
 2911POPC   GL139853  39.056  43.803   9.134
 2911POPC   GL239854  39.404  43.749   9.117
 2911POPC   C1A39855  38.979  43.619   8.736
 2911POPC   D2A39856  38.795  43.511   8.346
 2911POPC   C3A39857  38.980  43.727   7.993
 2911POPC   C4A39858  39.155  44.120   7.799
 2911POPC   C1B39859  39.372  43.995   8.757
 2911POPC   C2B39860  39.343  43.787   8.408
 2911POPC   C3B39861  39.487  43.790   8.056
 2911POPC   C4B39862  39.658  43.979   7.757
 2912POPC   NC339863   5.649  27.051   9.422
 2912POPC   PO439864   5.931  27.551   9.734
 2912POPC   GL139865   5.952  27.477   9.284
 2912POPC   GL239866   5.871  27.807   9.120
 2912POPC   C1A39867   5.808  27.383   8.846
 2912POPC   D2A39868   5.822  27.702   8.527
 2912POPC   C3A39869   5.857  27.545   8.118
 2912POPC   C4A39870   5.765  27.788   7.758
 2912POPC   C1B39871   6.207  27.875   8.816
 2912POPC   C2B39872   6.295  27.888   8.388
 2912POPC   C3B39873   6.171  27.942   8.000
 2912POPC   C4B39874   6.196  28.050   7.583
 2913POPC   NC339875  39.556   2.348   9.446
 2913POPC   PO439876  39.739   1.675   9.447
 2913POPC   GL139877  39.847   1.994   9.091
 2913POPC   GL239878  39.568   2.259   8.955
 2913POPC   C1A39879  40.132   2.068   8.708
 2913POPC   D2A39880  39.986   2.091   8.230
 2913POPC   C3A39881  40.311   2.152   7.886
 2913POPC   C4A39882  40.364   2.319   7.436
 2913POPC   C1B39883  39.646   1.993   8.622
 2913POPC   C2B39884  39.617   1.717   8.280
 2913POPC   C3B39885  39.811   1.462   7.963
 2913POPC   C4B39886  39.865   1.559   7.498
 2914POPC   NC339887  42.728  26.912   9.606
 2914POPC   PO439888  43.390  26.718   9.590
 2914POPC   GL139889  43.214  26.731   9.153
 2914POPC   GL239890  42.961  26.968   9.176
 2914POPC   C1A39891  42.923  26.717   8.749
 2914POPC   D2A39892  43.053  26.791   8.334
 2914POPC   C3A39893  42.990  26.665   7.916
 2914POPC   C4A39894  43.329  26.932   7.714
 2914POPC   C1B39895  42.765  27.231   8.876
 2914POPC   C2B39896  42.745  27.159   8.480
 2914POPC   C3B39897  42.980  27.230   8.108
 2914POPC   C4B39898  42.831  27.112   7.717
 2915POPC   NC339899   8.156   1.074   9.580
 2915POPC   PO439900   8.155   1.596   9.153
 2915POPC   GL139901   8.168   1.155   9.069
 2915POPC   GL239902   7.859   1.008   9.155
 2915POPC   C1A39903   8.352   1.037   8.687
 2915POPC   D2A39904   8.238   1.235   8.308
 2915POPC   C3A39905   8.424   1.144   7.912
 2915POPC   C4A39906   8.682   1.366   7.617
 2915POPC   C1B39907   7.683   1.005   8.731
 2915POPC   C2B39908   7.682   1.263   8.321
 2915POPC   C3B39909   7.906   1.280   7.931
 2915POPC   C4B39910   7.999   0.871   7.783
 2916POPC   NC339911   7.984  14.077   9.518
 2916POPC   PO439912   8.072  14.666   9.621
 2916POPC   GL139913   8.194  14.421   9.188
 2916POPC   GL239914   8.411  14.173   8.954
 2916POPC   C1A39915   8.068  14.492   8.758
 2916POPC   D2A39916   7.988  14.126   8.474
 2916POPC   C3A39917   8.233  14.224   8.110
 2916POPC   C4A39918   8.253  14.687   7.992
 2916POPC   C1B39919   8.598  14.546   8.829
 2916POPC   C2B39920   8.531  14.621   8.428
 2916POPC   C3B39921   8.704  14.432   8.094
 2916POPC   C4B39922   8.582  14.315   7.731
 2917POPC   NC339923  11.485  40.930   9.369
 2917POPC   PO439924  10.877  41.157   9.425
 2917POPC   GL139925  11.016  40.831   9.095
 2917POPC   GL239926  11.289  40.988   8.890
 2917POPC   C1A39927  11.149  40.552   8.700
 2917POPC   D2A39928  11.377  40.731   8.345
 2917POPC   C3A39929  11.337  40.969   7.979
 2917POPC   C4A39930  11.194  40.743   7.641
 2917POPC   C1B39931  11.660  40.705   8.762
 2917POPC   C2B39932  11.867  40.569   8.363
 2917POPC   C3B39933  11.802  40.542   7.904
 2917POPC   C4B39934  11.678  40.688   7.469
 2918POPC   NC339935  31.772   6.888   9.203
 2918POPC   PO439936  32.375   6.828   9.519
 2918POPC   GL139937  32.363   6.517   9.183
 2918POPC   GL239938  32.057   6.331   9.212
 2918POPC   C1A39939  32.206   6.566   8.759
 2918POPC   D2A39940  32.107   6.817   8.403
 2918POPC   C3A39941  32.483   6.897   8.195
 2918POPC   C4A39942  32.524   6.865   7.747
 2918POPC   C1B39943  32.150   6.069   8.821
 2918POPC   C2B39944  32.187   6.060   8.374
 2918POPC   C3B39945  32.228   6.400   8.045
 2918POPC   C4B39946  32.194   6.475   7.605
 2919POPC   NC339947  39.529  23.173   9.501
 2919POPC   PO439948  38.931  22.831   9.579
 2919POPC   GL139949  39.140  22.923   9.217
 2919POPC   GL239950  39.443  22.742   9.229
 2919POPC   C1A39951  39.144  22.807   8.797
 2919POPC   D2A39952  39.158  23.023   8.418
 2919POPC   C3A39953  39.099  22.740   8.098
 2919POPC   C4A39954  39.020  22.829   7.713
 2919POPC   C1B39955  39.595  23.029   8.867
 2919POPC   C2B39956  39.627  23.178   8.424
 2919POPC   C3B39957  39.440  23.091   7.986
 2919POPC   C4B39958  39.486  23.017   7.513
 2920POPC   NC339959   6.022  31.890   9.446
 2920POPC   PO439960   5.777  31.322   9.601
 2920POPC   GL139961   5.964  31.358   9.189
 2920POPC   GL239962   5.865  31.642   8.973
 2920POPC   C1A39963   5.907  31.154   8.789
 2920POPC   D2A39964   5.768  31.273   8.358
 2920POPC   C3A39965   5.691  31.305   7.909
 2920POPC   C4A39966   5.318  31.439   7.623
 2920POPC   C1B39967   6.131  31.569   8.583
 2920POPC   C2B39968   6.228  31.424   8.176
 2920POPC   C3B39969   6.095  31.677   7.802
 2920POPC   C4B39970   6.194  31.871   7.421
 2921POPC   NC339971  34.612   7.088   9.474
 2921POPC   PO439972  34.289   7.703   9.253
 2921POPC   GL139973  34.383   7.319   9.056
 2921POPC   GL239974  34.717   7.194   8.994
 2921POPC   C1A39975  34.206   7.257   8.659
 2921POPC   D2A39976  34.073   7.399   8.257
 2921POPC   C3A39977  34.358   7.264   7.941
 2921POPC   C4A39978  34.503   7.486   7.581
 2921POPC   C1B39979  34.735   7.516   8.700
 2921POPC   C2B39980  34.579   7.564   8.297
 2921POPC   C3B39981  34.834   7.532   7.944
 2921POPC   C4B39982  34.996   7.434   7.545
 2922POPC   NC339983  43.078  15.631   9.699
 2922POPC   PO439984  43.285  16.232   9.564
 2922POPC   GL139985  43.259  16.064   9.146
 2922POPC   GL239986  43.109  15.727   9.159
 2922POPC   C1A39987  43.312  16.038   8.695
 2922POPC   D2A39988  43.198  15.759   8.365
 2922POPC   C3A39989  43.133  15.954   7.996
 2922POPC   C4A39990  43.099  15.770   7.597
 2922POPC   C1B39991  42.837  15.774   8.770
 2922POPC   C2B39992  42.676  15.774   8.331
 2922POPC   C3B39993  42.655  15.866   7.871
 2922POPC   C4B39994  42.621  15.881   7.428
 2923POPC   NC339995  36.940  11.821   9.249
 2923POPC   PO439996  36.598  12.163   9.706
 2923POPC   GL139997  36.656  12.239   9.181
 2923POPC   GL239998  36.478  12.429   8.937
 2923POPC   C1A39999  36.895  12.231   8.736
 2923POPC   D2A40000  36.730  12.200   8.304
 2923POPC   C3A40001  36.923  11.987   7.968
 2923POPC   C4A40002  37.051  12.009   7.523
 2923POPC   C1B40003  36.439  11.988   8.673
 2923POPC   C2B40004  36.614  11.682   8.331
 2923POPC   C3B40005  36.598  11.615   7.868
 2923POPC   C4B40006  36.554  11.971   7.591
 2924POPC   NC340007   4.961  40.814   9.529
 2924POPC   PO440008   5.596  40.656   9.542
 2924POPC   GL140009   5.407  40.729   9.133
 2924POPC   GL240010   5.061  40.817   9.044
 2924POPC   C1A40011   5.362  40.614   8.708
 2924POPC   D2A40012   5.037  40.740   8.438
 2924POPC   C3A40013   5.107  40.583   8.046
 2924POPC   C4A40014   5.395  40.815   7.812
 2924POPC   C1B40015   4.831  41.110   8.802
 2924POPC   C2B40016   4.615  41.046   8.410
 2924POPC   C3B40017   4.816  40.996   8.020
 2924POPC   C4B40018   5.046  41.198   7.675
 2925POPC   NC340019  28.813   4.466   9.565
 2925POPC   PO440020  28.143   4.390   9.558
 2925POPC   GL140021  28.247   4.458   9.172
 2925POPC   GL240022  28.550   4.316   9.160
 2925POPC   C1A40023  28.175   4.304   8.771
 2925POPC   D2A40024  28.353   4.433   8.405
 2925POPC   C3A40025  28.117   4.389   8.052
 2925POPC   C4A40026  28.267   4.509   7.667
 2925POPC   C1B40027  28.654   4.073   8.795
 2925POPC   C2B40028  28.748   4.114   8.362
 2925POPC   C3B40029  28.563   4.141   7.966
 2925POPC   C4B40030  28.441   4.045   7.541
 2926POPC   NC340031  27.071  35.712   9.353
 2926POPC   PO440032  26.813  36.242   9.654
 2926POPC   GL140033  26.741  36.312   9.205
 2926POPC   GL240034  26.728  35.997   9.122
 2926POPC   C1A40035  26.569  36.387   8.768
 2926POPC   D2A40036  26.860  36.424   8.388
 2926POPC   C3A40037  26.689  36.501   7.967
 2926POPC   C4A40038  26.301  36.362   7.718
 2926POPC   C1B40039  26.863  35.977   8.711
 2926POPC   C2B40040  26.618  35.966   8.346
 2926POPC   C3B40041  26.635  35.985   7.920
 2926POPC   C4B40042  27.040  35.871   7.790
 2927POPC   NC340043  29.632   8.006   9.680
 2927POPC   PO440044  30.108   8.352   9.379
 2927POPC   GL140045  30.100   8.219   8.998
 2927POPC   GL240046  29.948   7.934   9.044
 2927POPC   C1A40047  29.893   8.206   8.612
 2927POPC   D2A40048  30.013   8.387   8.255
 2927POPC   C3A40049  29.711   8.447   8.011
 2927POPC   C4A40050  29.731   8.222   7.672
 2927POPC   C1B40051  30.344   7.840   8.814
 2927POPC   C2B40052  30.463   7.862   8.414
 2927POPC   C3B40053  30.292   8.004   8.025
 2927POPC   C4B40054  30.174   7.980   7.599
 2928POPC   NC340055  39.446  16.275   9.528
 2928POPC   PO440056  39.189  16.785   9.545
 2928POPC   GL140057  39.077  16.825   9.137
 2928POPC   GL240058  39.228  16.525   9.087
 2928POPC   C1A40059  39.290  16.952   8.751
 2928POPC   D2A40060  39.594  16.816   8.433
 2928POPC   C3A40061  39.479  16.801   7.994
 2928POPC   C4A40062  39.092  16.922   7.803
 2928POPC   C1B40063  39.385  16.377   8.703
 2928POPC   C2B40064  39.188  16.179   8.364
 2928POPC   C3B40065  39.212  16.345   7.949
 2928POPC   C4B40066  38.958  16.368   7.597
 2929POPC   NC340067   6.128   1.409   9.537
 2929POPC   PO440068   5.780   0.872   9.613
 2929POPC   GL140069   5.822   1.041   9.176
 2929POPC   GL240070   5.747   1.410   9.154
 2929POPC   C1A40071   5.904   0.926   8.729
 2929POPC   D2A40072   5.847   0.972   8.276
 2929POPC   C3A40073   5.965   1.020   7.865
 2929POPC   C4A40074   6.227   1.307   7.684
 2929POPC   C1B40075   5.544   1.298   8.750
 2929POPC   C2B40076   5.394   1.313   8.322
 2929POPC   C3B40077   5.572   1.336   7.892
 2929POPC   C4B40078   5.753   1.392   7.503
 2930POPC   NC340079   0.832  43.643   9.495
 2930POPC   PO440080   1.503  43.989   9.480
 2930POPC   GL140081   1.356  43.793   9.089
 2930POPC   GL240082   0.996  43.847   9.061
 2930POPC   C1A40083   1.316  43.850   8.628
 2930POPC   D2A40084   1.153  43.638   8.281
 2930POPC   C3A40085   1.190  43.853   7.939
 2930POPC   C4A40086   1.021  43.780   7.571
 2930POPC   C1B40087   0.799  44.152   8.787
 2930POPC   C2B40088   1.066  44.314   8.516
 2930POPC   C3B40089   1.023  44.310   8.101
 2930POPC   C4B40090   1.070  44.270   7.680
 2931POPC   NC340091  27.028  11.838   9.516
 2931POPC   PO440092  26.583  12.283   9.702
 2931POPC   GL140093  26.719  12.268   9.274
 2931POPC   GL240094  26.594  11.934   9.221
 2931POPC   C1A40095  26.933  12.140   8.872
 2931POPC   D2A40096  26.828  11.930   8.474
 2931POPC   C3A40097  26.856  12.047   8.056
 2931POPC   C4A40098  27.147  12.212   7.768
 2931POPC   C1B40099  26.447  11.863   8.801
 2931POPC   C2B40100  26.322  12.011   8.375
 2931POPC   C3B40101  26.354  11.863   7.940
 2931POPC   C4B40102  26.687  11.810   7.609
 2932POPC   NC340103  33.483  15.708   9.642
 2932POPC   PO440104  34.039  16.212   9.491
 2932POPC   GL140105  33.908  16.057   9.133
 2932POPC   GL240106  33.614  15.888   9.198
 2932POPC   C1A40107  33.924  16.177   8.707
 2932POPC   D2A40108  33.972  15.987   8.318
 2932POPC   C3A40109  33.819  16.219   7.984
 2932POPC   C4A40110  33.761  16.029   7.598
 2932POPC   C1B40111  33.433  16.082   8.842
 2932POPC   C2B40112  33.475  15.992   8.413
 2932POPC   C3B40113  33.428  15.879   7.990
 2932POPC   C4B40114  33.264  16.189   7.680
 2933POPC   NC340115   3.161   0.689   9.503
 2933POPC   PO440116   2.681   0.155   9.538
 2933POPC   GL140117   2.790   0.471   9.197
 2933POPC   GL240118   3.112   0.354   9.101
 2933POPC   C1A40119   2.810   0.545   8.728
 2933POPC   D2A40120   2.584   0.281   8.393
 2933POPC   C3A40121   2.719   0.318   7.948
 2933POPC   C4A40122   2.783   0.527   7.535
 2933POPC   C1B40123   3.316   0.479   8.720
 2933POPC   C2B40124   3.203   0.425   8.290
 2933POPC   C3B40125   3.150   0.573   7.887
 2933POPC   C4B40126   3.162   0.885   7.575
 2934POPC   NC340127   5.733   6.536   9.482
 2934POPC   PO440128   6.047   7.081   9.449
 2934POPC   GL140129   5.823   6.878   9.099
 2934POPC   GL240130   5.893   6.516   9.020
 2934POPC   C1A40131   5.729   6.868   8.674
 2934POPC   D2A40132   5.933   6.593   8.381
 2934POPC   C3A40133   5.763   6.656   7.982
 2934POPC   C4A40134   5.809   6.789   7.566
 2934POPC   C1B40135   5.617   6.353   8.738
 2934POPC   C2B40136   5.529   6.186   8.337
 2934POPC   C3B40137   5.771   6.141   8.003
 2934POPC   C4B40138   5.739   6.231   7.575
 2935POPC   NC340139  10.749   6.389   9.859
 2935POPC   PO440140  10.185   6.595   9.527
 2935POPC   GL140141  10.379   6.686   9.133
 2935POPC   GL240142  10.549   6.978   9.190
 2935POPC   C1A40143  10.531   6.463   8.745
 2935POPC   D2A40144  10.356   6.316   8.364
 2935POPC   C3A40145  10.541   6.492   8.019
 2935POPC   C4A40146  10.288   6.662   7.734
 2935POPC   C1B40147  10.768   6.955   8.820
 2935POPC   C2B40148  10.741   6.780   8.401
 2935POPC   C3B40149  10.797   6.945   7.980
 2935POPC   C4B40150  10.509   7.104   7.709
 2936POPC   NC340151  14.429   3.810   9.748
 2936POPC   PO440152  14.293   3.130   9.513
 2936POPC   GL140153  14.301   3.478   9.187
 2936POPC   GL240154  14.224   3.238   8.975
 2936POPC   C1A40155  14.262   3.674   8.721
 2936POPC   D2A40156  14.494   3.587   8.309
 2936POPC   C3A40157  14.313   3.614   7.864
 2936POPC   C4A40158  14.428   3.805   7.445
 2936POPC   C1B40159  14.574   3.229   8.735
 2936POPC   C2B40160  14.596   3.072   8.333
 2936POPC   C3B40161  14.653   3.214   7.942
 2936POPC   C4B40162  14.670   3.390   7.557
 2937POPC   NC340163  39.445  14.692   9.516
 2937POPC   PO440164  38.845  14.337   9.549
 2937POPC   GL140165  39.138  14.242   9.238
 2937POPC   GL240166  39.104  14.591   9.124
 2937POPC   C1A40167  39.461  14.263   8.912
 2937POPC   D2A40168  39.514  14.618   8.593
 2937POPC   C3A40169  39.461  14.575   8.134
 2937POPC   C4A40170  39.435  14.238   7.849
 2937POPC   C1B40171  38.983  14.339   8.751
 2937POPC   C2B40172  39.102  14.179   8.313
 2937POPC   C3B40173  38.932  14.332   7.905
 2937POPC   C4B40174  38.817  14.636   7.567
 2938POPC   NC340175   5.616  18.860   9.537
 2938POPC   PO440176   6.190  19.164   9.408
 2938POPC   GL140177   6.004  19.157   9.015
 2938POPC   GL240178   5.771  18.869   9.043
 2938POPC   C1A40179   5.694  19.248   8.704
 2938POPC   D2A40180   5.599  19.089   8.308
 2938POPC   C3A40181   5.987  19.021   8.118
 2938POPC   C4A40182   6.101  19.140   7.741
 2938POPC   C1B40183   5.971  18.789   8.638
 2938POPC   C2B40184   5.776  18.583   8.303
 2938POPC   C3B40185   5.736  18.638   7.886
 2938POPC   C4B40186   5.445  18.531   7.612
 2939POPC   NC340187  39.622  12.195   9.485
 2939POPC   PO440188  39.069  12.021   9.877
 2939POPC   GL140189  39.045  12.027   9.376
 2939POPC   GL240190  39.229  12.303   9.162
 2939POPC   C1A40191  39.038  11.909   8.914
 2939POPC   D2A40192  39.163  12.210   8.563
 2939POPC   C3A40193  38.990  12.193   8.128
 2939POPC   C4A40194  39.117  11.894   7.834
 2939POPC   C1B40195  39.596  12.226   8.858
 2939POPC   C2B40196  39.769  12.251   8.457
 2939POPC   C3B40197  39.497  12.113   8.132
 2939POPC   C4B40198  39.457  12.279   7.720
 2940POPC   NC340199  10.421  26.625   9.590
 2940POPC   PO440200  11.039  26.430   9.415
 2940POPC   GL140201  10.826  26.727   9.147
 2940POPC   GL240202  10.453  26.762   9.112
 2940POPC   C1A40203  10.732  26.771   8.700
 2940POPC   D2A40204  10.463  26.933   8.396
 2940POPC   C3A40205  10.723  26.955   8.048
 2940POPC   C4A40206  10.544  27.122   7.689
 2940POPC   C1B40207  10.212  26.568   8.772
 2940POPC   C2B40208   9.946  26.358   8.459
 2940POPC   C3B40209  10.136  26.405   8.069
 2940POPC   C4B40210  10.433  26.598   7.830
 2941POPC   NC340211  19.671  15.234   9.555
 2941POPC   PO440212  20.004  15.755   9.520
 2941POPC   GL140213  20.122  15.457   9.187
 2941POPC   GL240214  20.021  15.116   9.198
 2941POPC   C1A40215  20.011  15.428   8.760
 2941POPC   D2A40216  19.723  15.303   8.436
 2941POPC   C3A40217  19.896  15.395   8.060
 2941POPC   C4A40218  19.942  15.523   7.653
 2941POPC   C1B40219  20.128  14.899   8.830
 2941POPC   C2B40220  19.927  14.779   8.468
 2941POPC   C3B40221  20.019  14.735   8.080
 2941POPC   C4B40222  19.881  14.967   7.731
 2942POPC   NC340223  12.537  31.554   9.474
 2942POPC   PO440224  13.065  31.341   9.698
 2942POPC   GL140225  12.929  31.286   9.255
 2942POPC   GL240226  12.930  31.560   9.107
 2942POPC   C1A40227  12.802  31.186   8.782
 2942POPC   D2A40228  12.871  31.239   8.331
 2942POPC   C3A40229  12.586  31.178   7.984
 2942POPC   C4A40230  12.817  31.164   7.608
 2942POPC   C1B40231  13.066  31.617   8.726
 2942POPC   C2B40232  13.140  31.693   8.299
 2942POPC   C3B40233  12.967  31.560   7.925
 2942POPC   C4B40234  13.074  31.743   7.555
 2943POPC   NC340235  35.857   3.867   9.323
 2943POPC   PO440236  36.182   4.399   9.684
 2943POPC   GL140237  36.067   4.285   9.247
 2943POPC   GL240238  35.818   4.290   9.028
 2943POPC   C1A40239  36.263   4.031   8.839
 2943POPC   D2A40240  36.270   3.866   8.411
 2943POPC   C3A40241  36.133   4.187   8.134
 2943POPC   C4A40242  36.261   4.308   7.737
 2943POPC   C1B40243  35.843   4.192   8.578
 2943POPC   C2B40244  35.677   4.436   8.249
 2943POPC   C3B40245  35.677   4.282   7.853
 2943POPC   C4B40246  35.772   4.193   7.467
 2944POPC   NC340247  27.090  39.777   9.483
 2944POPC   PO440248  26.638  40.016   9.117
 2944POPC   GL140249  26.993  39.974   8.895
 2944POPC   GL240250  27.326  39.861   9.037
 2944POPC   C1A40251  26.940  40.233   8.517
 2944POPC   D2A40252  26.674  40.157   8.170
 2944POPC   C3A40253  26.427  40.350   7.859
 2944POPC   C4A40254  26.662  40.158   7.533
 2944POPC   C1B40255  27.311  39.741   8.592
 2944POPC   C2B40256  27.015  39.798   8.270
 2944POPC   C3B40257  27.077  39.979   7.854
 2944POPC   C4B40258  27.415  39.900   7.547
 2945POPC   NC340259  32.643  27.323   9.491
 2945POPC   PO440260  32.118  27.793   9.594
 2945POPC   GL140261  32.309  27.644   9.216
 2945POPC   GL240262  32.107  27.392   9.031
 2945POPC   C1A40263  32.313  27.796   8.788
 2945POPC   D2A40264  32.182  27.529   8.461
 2945POPC   C3A40265  32.176  27.704   8.078
 2945POPC   C4A40266  32.185  27.484   7.678
 2945POPC   C1B40267  32.503  27.326   8.824
 2945POPC   C2B40268  32.616  27.223   8.432
 2945POPC   C3B40269  32.445  27.209   8.034
 2945POPC   C4B40270  32.628  27.242   7.636
 2946POPC   NC340271  36.514  31.202   9.741
 2946POPC   PO440272  37.006  31.634   9.719
 2946POPC   GL140273  36.786  31.674   9.261
 2946POPC   GL240274  36.790  31.364   9.121
 2946POPC   C1A40275  36.868  31.685   8.749
 2946POPC   D2A40276  36.742  31.780   8.311
 2946POPC   C3A40277  36.970  31.681   7.926
 2946POPC   C4A40278  37.273  31.372   7.757
 2946POPC   C1B40279  37.024  31.203   8.784
 2946POPC   C2B40280  37.067  30.939   8.457
 2946POPC   C3B40281  36.985  31.180   8.125
 2946POPC   C4B40282  36.656  31.302   7.840
 2947POPC   NC340283  44.578  15.572   9.327
 2947POPC   PO440284  44.389  15.019   9.626
 2947POPC   GL140285  44.320  14.994   9.184
 2947POPC   GL240286  44.661  15.128   9.068
 2947POPC   C1A40287  44.277  15.109   8.737
 2947POPC   D2A40288  44.642  14.932   8.547
 2947POPC   C3A40289  44.626  14.929   8.118
 2947POPC   C4A40290  44.263  14.887   7.859
 2947POPC   C1B40291  44.690  15.436   8.699
 2947POPC   C2B40292  44.565  15.570   8.286
 2947POPC   C3B40293  44.455  15.372   7.900
 2947POPC   C4B40294  44.689  15.415   7.538
 2948POPC   NC340295  13.250  11.629   9.481
 2948POPC   PO440296  13.543  11.094   9.475
 2948POPC   GL140297  13.750  11.173   9.089
 2948POPC   GL240298  13.433  11.215   9.012
 2948POPC   C1A40299  13.724  11.406   8.650
 2948POPC   D2A40300  13.500  11.631   8.290
 2948POPC   C3A40301  13.634  11.388   7.933
 2948POPC   C4A40302  14.071  11.229   7.780
 2948POPC   C1B40303  13.162  11.082   8.751
 2948POPC   C2B40304  13.262  11.211   8.425
 2948POPC   C3B40305  13.277  11.042   8.111
 2948POPC   C4B40306  13.259  11.091   7.720
 2949POPC   NC340307  11.632  36.741   9.341
 2949POPC   PO440308  12.314  36.642   9.382
 2949POPC   GL140309  12.189  36.967   9.114
 2949POPC   GL240310  11.867  37.155   9.094
 2949POPC   C1A40311  12.005  36.811   8.730
 2949POPC   D2A40312  11.827  36.762   8.333
 2949POPC   C3A40313  12.073  36.810   7.984
 2949POPC   C4A40314  12.207  36.569   7.659
 2949POPC   C1B40315  12.144  37.298   8.732
 2949POPC   C2B40316  12.047  37.239   8.283
 2949POPC   C3B40317  11.876  37.264   7.844
 2949POPC   C4B40318  11.914  36.989   7.467
 2950POPC   NC340319  24.889  34.655   9.252
 2950POPC   PO440320  24.297  34.923   9.528
 2950POPC   GL140321  24.351  34.571   9.190
 2950POPC   GL240322  24.590  34.281   9.220
 2950POPC   C1A40323  24.357  34.425   8.778
 2950POPC   D2A40324  24.582  34.609   8.433
 2950POPC   C3A40325  24.322  34.646   8.087
 2950POPC   C4A40326  24.275  34.538   7.679
 2950POPC   C1B40327  24.807  34.222   8.788
 2950POPC   C2B40328  24.944  34.241   8.371
 2950POPC   C3B40329  24.739  34.322   7.963
 2950POPC   C4B40330  24.656  34.243   7.509
 2951POPC   NC340331  14.772   2.964   9.391
 2951POPC   PO440332  15.285   2.477   9.428
 2951POPC   GL140333  15.303   2.722   9.090
 2951POPC   GL240334  15.283   3.071   9.204
 2951POPC   C1A40335  15.264   2.594   8.672
 2951POPC   D2A40336  14.992   2.724   8.354
 2951POPC   C3A40337  15.204   2.812   7.972
 2951POPC   C4A40338  14.982   2.980   7.618
 2951POPC   C1B40339  15.515   3.162   8.844
 2951POPC   C2B40340  15.549   3.018   8.449
 2951POPC   C3B40341  15.477   3.260   8.112
 2951POPC   C4B40342  15.499   3.148   7.708
 2952POPC   NC340343  26.827  43.558   9.361
 2952POPC   PO440344  26.618  44.181   9.595
 2952POPC   GL140345  26.832  44.062   9.158
 2952POPC   GL240346  26.720  43.787   8.953
 2952POPC   C1A40347  27.035  44.036   8.701
 2952POPC   D2A40348  26.809  43.774   8.418
 2952POPC   C3A40349  26.960  43.789   8.037
 2952POPC   C4A40350  26.942  44.098   7.776
 2952POPC   C1B40351  26.611  43.428   8.733
 2952POPC   C2B40352  26.408  43.420   8.324
 2952POPC   C3B40353  26.393  43.649   7.936
 2952POPC   C4B40354  26.691  43.699   7.588
 2953POPC   NC340355   4.353   0.865   9.330
 2953POPC   PO440356   4.389   0.234   9.641
 2953POPC   GL140357   4.401   0.254   9.208
 2953POPC   GL240358   4.093   0.390   9.166
 2953POPC   C1A40359   4.559   0.270   8.784
 2953POPC   D2A40360   4.475   0.586   8.453
 2953POPC   C3A40361   4.571   0.503   8.002
 2953POPC   C4A40362   4.473   0.365   7.589
 2953POPC   C1B40363   4.071   0.184   8.758
 2953POPC   C2B40364   4.201   0.178   8.319
 2953POPC   C3B40365   4.071   0.400   7.952
 2953POPC   C4B40366   3.964   0.133   7.624
 2954POPC   NC340367  14.847   1.521   9.379
 2954POPC   PO440368  15.101   0.879   9.561
 2954POPC   GL140369  15.244   1.171   9.195
 2954POPC   GL240370  15.153   1.474   8.977
 2954POPC   C1A40371  15.447   1.133   8.772
 2954POPC   D2A40372  15.236   1.365   8.425
 2954POPC   C3A40373  15.206   1.090   8.079
 2954POPC   C4A40374  15.167   1.175   7.640
 2954POPC   C1B40375  14.875   1.661   8.700
 2954POPC   C2B40376  14.897   1.750   8.289
 2954POPC   C3B40377  14.928   1.498   7.952
 2954POPC   C4B40378  14.791   1.490   7.505
 2955POPC   NC340379  20.409  23.145   9.834
 2955POPC   PO440380  20.566  22.492   9.592
 2955POPC   GL140381  20.566  22.717   9.149
 2955POPC   GL240382  20.574  23.084   9.158
 2955POPC   C1A40383  20.494  22.696   8.688
 2955POPC   D2A40384  20.453  22.990   8.341
 2955POPC   C3A40385  20.420  22.863   7.943
 2955POPC   C4A40386  20.556  22.628   7.645
 2955POPC   C1B40387  20.743  23.165   8.729
 2955POPC   C2B40388  20.941  23.107   8.282
 2955POPC   C3B40389  20.882  23.059   7.831
 2955POPC   C4B40390  20.692  23.323   7.499
 2956POPC   NC340391  21.559  33.052   9.592
 2956POPC   PO440392  20.910  32.966   9.512
 2956POPC   GL140393  21.166  33.205   9.168
 2956POPC   GL240394  21.550  33.186   9.112
 2956POPC   C1A40395  21.256  33.199   8.706
 2956POPC   D2A40396  21.344  32.957   8.350
 2956POPC   C3A40397  21.147  33.095   7.984
 2956POPC   C4A40398  21.130  32.727   7.770
 2956POPC   C1B40399  21.745  33.373   8.757
 2956POPC   C2B40400  21.768  33.247   8.359
 2956POPC   C3B40401  21.595  33.434   8.002
 2956POPC   C4B40402  21.620  33.067   7.838
 2957POPC   NC340403  44.103  37.633   9.465
 2957POPC   PO440404  43.395  37.647   9.646
 2957POPC   GL140405  43.655  37.571   9.252
 2957POPC   GL240406  43.786  37.821   9.064
 2957POPC   C1A40407  43.866  37.383   8.839
 2957POPC   D2A40408  43.753  37.618   8.448
 2957POPC   C3A40409  43.719  37.451   8.042
 2957POPC   C4A40410  44.085  37.337   7.785
 2957POPC   C1B40411  43.641  38.093   8.735
 2957POPC   C2B40412  43.589  38.267   8.340
 2957POPC   C3B40413  43.756  38.146   7.949
 2957POPC   C4B40414  43.921  37.785   7.690
 2958POPC   NC340415  34.493  20.979   9.498
 2958POPC   PO440416  34.689  20.267   9.471
 2958POPC   GL140417  34.557  20.562   9.128
 2958POPC   GL240418  34.189  20.679   9.189
 2958POPC   C1A40419  34.660  20.660   8.650
 2958POPC   D2A40420  34.641  20.839   8.206
 2958POPC   C3A40421  34.731  20.702   7.783
 2958POPC   C4A40422  35.033  20.373   7.694
 2958POPC   C1B40423  34.198  20.451   8.784
 2958POPC   C2B40424  34.275  20.446   8.334
 2958POPC   C3B40425  34.163  20.488   7.909
 2958POPC   C4B40426  34.257  20.697   7.534
 2959POPC   NC340427   2.687   1.530   9.241
 2959POPC   PO440428   2.754   0.928   9.441
 2959POPC   GL140429   2.568   0.958   9.041
 2959POPC   GL240430   2.861   1.130   8.983
 2959POPC   C1A40431   2.627   1.004   8.570
 2959POPC   D2A40432   2.782   0.744   8.232
 2959POPC   C3A40433   2.637   0.911   7.867
 2959POPC   C4A40434   2.438   1.315   7.762
 2959POPC   C1B40435   3.039   1.379   8.688
 2959POPC   C2B40436   2.872   1.674   8.409
 2959POPC   C3B40437   2.849   1.467   8.042
 2959POPC   C4B40438   2.955   1.345   7.648
 2960POPC   NC340439  43.113  37.323   9.429
 2960POPC   PO440440  42.541  37.000   9.519
 2960POPC   GL140441  42.734  37.034   9.118
 2960POPC   GL240442  42.793  36.675   9.085
 2960POPC   C1A40443  42.608  36.964   8.667
 2960POPC   D2A40444  42.264  37.002   8.383
 2960POPC   C3A40445  42.358  36.887   7.954
 2960POPC   C4A40446  42.206  36.830   7.511
 2960POPC   C1B40447  42.644  36.443   8.731
 2960POPC   C2B40448  42.526  36.579   8.351
 2960POPC   C3B40449  42.580  36.432   7.988
 2960POPC   C4B40450  42.654  36.578   7.598
 2961POPC   NC340451  34.477   0.846   9.245
 2961POPC   PO440452  34.939   1.286   9.422
 2961POPC   GL140453  34.616   1.414   9.104
 2961POPC   GL240454  34.235   1.399   9.130
 2961POPC   C1A40455  34.566   1.240   8.708
 2961POPC   D2A40456  34.781   1.130   8.370
 2961POPC   C3A40457  34.597   1.092   8.007
 2961POPC   C4A40458  34.727   1.179   7.614
 2961POPC   C1B40459  34.235   1.614   8.709
 2961POPC   C2B40460  34.240   1.383   8.297
 2961POPC   C3B40461  34.307   1.492   7.862
 2961POPC   C4B40462  34.394   1.476   7.411
 2962POPC   NC340463  22.648  40.137   9.405
 2962POPC   PO440464  23.160  39.591   9.415
 2962POPC   GL140465  22.897  39.785   9.086
 2962POPC   GL240466  22.988  40.169   9.022
 2962POPC   C1A40467  22.925  39.639   8.649
 2962POPC   D2A40468  23.296  39.675   8.387
 2962POPC   C3A40469  23.174  39.887   8.053
 2962POPC   C4A40470  22.768  39.841   7.900
 2962POPC   C1B40471  22.689  40.098   8.675
 2962POPC   C2B40472  22.757  40.234   8.235
 2962POPC   C3B40473  22.599  40.296   7.786
 2962POPC   C4B40474  22.548  40.299   7.304
 2963POPC   NC340475  13.601  34.979   9.406
 2963POPC   PO440476  13.461  35.695   9.481
 2963POPC   GL140477  13.394  35.499   9.075
 2963POPC   GL240478  13.547  35.201   8.937
 2963POPC   C1A40479  13.446  35.612   8.661
 2963POPC   D2A40480  13.510  35.285   8.317
 2963POPC   C3A40481  13.566  35.389   7.878
 2963POPC   C4A40482  13.935  35.438   7.618
 2963POPC   C1B40483  13.794  34.985   8.609
 2963POPC   C2B40484  13.910  34.989   8.141
 2963POPC   C3B40485  14.224  34.983   7.791
 2963POPC   C4B40486  14.197  34.823   7.363
 2964POPC   NC340487  33.367   3.997   9.581
 2964POPC   PO440488  32.870   4.478   9.823
 2964POPC   GL140489  32.855   4.353   9.373
 2964POPC   GL240490  32.647   4.045   9.340
 2964POPC   C1A40491  33.117   4.292   8.991
 2964POPC   D2A40492  33.270   4.584   8.673
 2964POPC   C3A40493  33.235   4.447   8.236
 2964POPC   C4A40494  33.096   4.539   7.810
 2964POPC   C1B40495  32.614   4.200   8.913
 2964POPC   C2B40496  32.873   4.235   8.548
 2964POPC   C3B40497  32.767   4.263   8.120
 2964POPC   C4B40498  32.760   4.141   7.705
 2965POPC   NC340499  37.364   3.419   9.538
 2965POPC   PO440500  37.952   3.780   9.682
 2965POPC   GL140501  37.670   3.724   9.274
 2965POPC   GL240502  37.462   4.023   9.181
 2965POPC   C1A40503  37.528   3.387   8.911
 2965POPC   D2A40504  37.744   3.369   8.500
 2965POPC   C3A40505  37.788   3.178   8.090
 2965POPC   C4A40506  37.838   3.340   7.671
 2965POPC   C1B40507  37.615   3.882   8.775
 2965POPC   C2B40508  37.583   3.832   8.340
 2965POPC   C3B40509  37.709   3.772   7.930
 2965POPC   C4B40510  37.457   3.687   7.588
 2966POPC   NC340511  29.781  22.954   9.634
 2966POPC   PO440512  30.291  22.590   9.361
 2966POPC   GL140513  29.954  22.813   9.148
 2966POPC   GL240514  29.731  23.113   9.166
 2966POPC   C1A40515  30.080  22.984   8.752
 2966POPC   D2A40516  30.061  22.774   8.417
 2966POPC   C3A40517  30.103  22.992   8.049
 2966POPC   C4A40518  30.170  22.738   7.686
 2966POPC   C1B40519  29.593  22.945   8.805
 2966POPC   C2B40520  29.548  22.797   8.427
 2966POPC   C3B40521  29.489  22.954   8.063
 2966POPC   C4B40522  29.707  22.979   7.720
 2967POPC   NC340523  13.109  24.004   9.712
 2967POPC   PO440524  12.865  23.385   9.562
 2967POPC   GL140525  12.864  23.664   9.209
 2967POPC   GL240526  13.170  23.818   9.196
 2967POPC   C1A40527  12.802  23.693   8.741
 2967POPC   D2A40528  12.972  23.551   8.327
 2967POPC   C3A40529  12.731  23.760   8.019
 2967POPC   C4A40530  12.627  23.606   7.624
 2967POPC   C1B40531  13.176  24.050   8.797
 2967POPC   C2B40532  13.027  24.058   8.398
 2967POPC   C3B40533  13.159  24.057   8.009
 2967POPC   C4B40534  12.926  24.034   7.633
 2968POPC   NC340535  32.586  24.067   9.414
 2968POPC   PO440536  32.502  23.424   9.475
 2968POPC   GL140537  32.297  23.659   9.131
 2968POPC   GL240538  32.358  23.978   8.973
 2968POPC   C1A40539  32.317  23.540   8.726
 2968POPC   D2A40540  32.376  23.812   8.411
 2968POPC   C3A40541  32.198  23.769   8.031
 2968POPC   C4A40542  32.222  23.860   7.572
 2968POPC   C1B40543  32.006  24.058   8.702
 2968POPC   C2B40544  31.787  24.095   8.296
 2968POPC   C3B40545  31.873  24.159   7.861
 2968POPC   C4B40546  31.818  24.168   7.403
 2969POPC   NC340547   7.259  36.434   9.589
 2969POPC   PO440548   7.706  35.941   9.446
 2969POPC   GL140549   7.545  36.184   9.138
 2969POPC   GL240550   7.198  36.280   9.120
 2969POPC   C1A40551   7.508  36.355   8.738
 2969POPC   D2A40552   7.690  36.284   8.377
 2969POPC   C3A40553   7.426  36.344   8.039
 2969POPC   C4A40554   7.646  36.327   7.696
 2969POPC   C1B40555   7.049  36.526   8.784
 2969POPC   C2B40556   7.022  36.540   8.342
 2969POPC   C3B40557   6.913  36.523   7.908
 2969POPC   C4B40558   7.147  36.331   7.559
 2970POPC   NC340559  42.149   1.581   9.497
 2970POPC   PO440560  42.513   2.097   9.595
 2970POPC   GL140561  42.428   1.900   9.213
 2970POPC   GL240562  42.113   1.924   9.110
 2970POPC   C1A40563  42.579   1.788   8.817
 2970POPC   D2A40564  42.437   1.753   8.422
 2970POPC   C3A40565  42.327   1.910   8.027
 2970POPC   C4A40566  42.626   1.704   7.795
 2970POPC   C1B40567  42.215   2.149   8.766
 2970POPC   C2B40568  42.328   2.310   8.376
 2970POPC   C3B40569  42.474   2.431   8.001
 2970POPC   C4B40570  42.375   2.230   7.627
 2971POPC   NC340571  22.576  41.134   9.413
 2971POPC   PO440572  22.900  40.528   9.437
 2971POPC   GL140573  22.705  40.684   9.117
 2971POPC   GL240574  22.960  40.924   9.086
 2971POPC   C1A40575  22.779  40.589   8.696
 2971POPC   D2A40576  23.032  40.683   8.366
 2971POPC   C3A40577  22.968  40.616   7.977
 2971POPC   C4A40578  23.258  40.832   7.747
 2971POPC   C1B40579  22.737  41.099   8.777
 2971POPC   C2B40580  22.633  40.979   8.396
 2971POPC   C3B40581  22.771  41.072   7.984
 2971POPC   C4B40582  22.446  41.211   7.758
 2972POPC   NC340583  36.668  29.423   5.644
 2972POPC   PO440584  36.801  28.879   5.241
 2972POPC   GL140585  36.963  28.965   5.693
 2972POPC   GL240586  37.332  28.939   5.773
 2972POPC   C1A40587  36.866  28.928   6.167
 2972POPC   D2A40588  36.602  28.847   6.572
 2972POPC   C3A40589  36.709  29.104   6.966
 2972POPC   C4A40590  36.846  29.475   7.221
 2972POPC   C1B40591  37.386  28.824   6.222
 2972POPC   C2B40592  37.161  28.887   6.620
 2972POPC   C3B40593  37.218  29.081   7.048
 2972POPC   C4B40594  37.097  28.883   7.449
 2973POPC   NC340595   2.671  21.416   5.273
 2973POPC   PO440596   3.120  21.905   5.152
 2973POPC   GL140597   2.835  21.716   5.640
 2973POPC   GL240598   2.764  21.353   5.765
 2973POPC   C1A40599   2.999  21.618   6.120
 2973POPC   D2A40600   3.074  21.361   6.503
 2973POPC   C3A40601   3.010  21.543   6.913
 2973POPC   C4A40602   2.869  21.370   7.305
 2973POPC   C1B40603   2.688  21.188   6.196
 2973POPC   C2B40604   2.460  21.171   6.614
 2973POPC   C3B40605   2.419  21.363   7.033
 2973POPC   C4B40606   2.450  21.618   7.427
 2974POPC   NC340607   0.449   4.854   5.558
 2974POPC   PO440608   0.606   4.157   5.339
 2974POPC   GL140609   0.544   4.326   5.741
 2974POPC   GL240610   0.853   4.546   5.718
 2974POPC   C1A40611   0.421   4.096   6.118
 2974POPC   D2A40612   0.439   4.306   6.485
 2974POPC   C3A40613   0.430   4.299   6.918
 2974POPC   C4A40614   0.418   4.113   7.307
 2974POPC   C1B40615   0.786   4.590   6.173
 2974POPC   C2B40616   0.902   4.765   6.584
 2974POPC   C3B40617   0.804   4.651   6.960
 2974POPC   C4B40618   0.616   4.585   7.358
 2975POPC   NC340619  11.393   5.274   5.462
 2975POPC   PO440620  11.087   4.740   5.084
 2975POPC   GL140621  10.943   4.960   5.586
 2975POPC   GL240622  10.944   5.334   5.727
 2975POPC   C1A40623  11.142   5.006   6.063
 2975POPC   D2A40624  11.382   5.150   6.440
 2975POPC   C3A40625  11.333   5.089   6.902
 2975POPC   C4A40626  11.370   5.025   7.366
 2975POPC   C1B40627  10.719   5.398   6.132
 2975POPC   C2B40628  10.891   5.263   6.528
 2975POPC   C3B40629  11.036   5.502   6.876
 2975POPC   C4B40630  10.959   5.318   7.267
 2976POPC   NC340631  27.329  18.363   5.414
 2976POPC   PO440632  26.799  17.989   5.257
 2976POPC   GL140633  26.928  18.175   5.666
 2976POPC   GL240634  26.964  17.946   5.877
 2976POPC   C1A40635  26.843  18.436   6.043
 2976POPC   D2A40636  26.758  18.540   6.464
 2976POPC   C3A40637  26.960  18.306   6.768
 2976POPC   C4A40638  26.875  18.279   7.212
 2976POPC   C1B40639  26.590  18.008   6.121
 2976POPC   C2B40640  26.488  17.972   6.552
 2976POPC   C3B40641  26.534  17.900   6.999
 2976POPC   C4B40642  26.543  17.961   7.439
 2977POPC   NC340643   3.521  40.592   5.460
 2977POPC   PO440644   2.950  40.621   5.380
 2977POPC   GL140645   3.120  40.794   5.792
 2977POPC   GL240646   3.235  40.503   5.902
 2977POPC   C1A40647   3.275  40.904   6.256
 2977POPC   D2A40648   3.670  40.915   6.545
 2977POPC   C3A40649   3.602  41.035   6.992
 2977POPC   C4A40650   3.673  40.852   7.390
 2977POPC   C1B40651   3.611  40.522   6.170
 2977POPC   C2B40652   3.541  40.391   6.574
 2977POPC   C3B40653   3.510  40.442   6.999
 2977POPC   C4B40654   3.191  40.611   7.240
 2978POPC   NC340655  27.188  42.588   5.373
 2978POPC   PO440656  26.659  42.200   5.279
 2978POPC   GL140657  26.838  42.267   5.673
 2978POPC   GL240658  26.802  42.584   5.771
 2978POPC   C1A40659  26.870  42.156   6.114
 2978POPC   D2A40660  26.780  42.289   6.543
 2978POPC   C3A40661  27.014  42.282   6.928
 2978POPC   C4A40662  27.016  42.015   7.304
 2978POPC   C1B40663  26.523  42.577   6.146
 2978POPC   C2B40664  26.540  42.735   6.587
 2978POPC   C3B40665  26.456  42.486   6.938
 2978POPC   C4B40666  26.649  42.399   7.314
 2979POPC   NC340667  11.963  10.382   5.294
 2979POPC   PO440668  12.586  10.304   5.415
 2979POPC   GL140669  12.293  10.572   5.660
 2979POPC   GL240670  11.957  10.691   5.717
 2979POPC   C1A40671  12.268  10.482   6.122
 2979POPC   D2A40672  11.966  10.307   6.435
 2979POPC   C3A40673  12.048  10.388   6.887
 2979POPC   C4A40674  12.447  10.315   7.129
 2979POPC   C1B40675  11.811  10.737   6.154
 2979POPC   C2B40676  11.640  10.856   6.582
 2979POPC   C3B40677  11.676  10.740   7.020
 2979POPC   C4B40678  12.056  10.776   7.241
 2980POPC   NC340679  25.317  40.107   5.507
 2980POPC   PO440680  24.930  39.607   5.429
 2980POPC   GL140681  24.988  39.865   5.833
 2980POPC   GL240682  25.338  39.891   5.958
 2980POPC   C1A40683  24.954  39.895   6.299
 2980POPC   D2A40684  25.065  40.225   6.634
 2980POPC   C3A40685  25.118  40.028   7.023
 2980POPC   C4A40686  24.768  39.971   7.253
 2980POPC   C1B40687  25.390  40.149   6.258
 2980POPC   C2B40688  25.554  40.049   6.645
 2980POPC   C3B40689  25.556  39.740   6.924
 2980POPC   C4B40690  25.452  39.716   7.325
 2981POPC   NC340691   6.300  25.209   5.320
 2981POPC   PO440692   6.944  25.451   5.366
 2981POPC   GL140693   6.823  25.303   5.803
 2981POPC   GL240694   6.462  25.155   5.835
 2981POPC   C1A40695   6.828  25.374   6.271
 2981POPC   D2A40696   6.863  25.437   6.744
 2981POPC   C3A40697   6.634  25.113   7.013
 2981POPC   C4A40698   6.705  25.101   7.450
 2981POPC   C1B40699   6.313  25.396   6.202
 2981POPC   C2B40700   6.384  25.342   6.621
 2981POPC   C3B40701   6.153  25.313   6.995
 2981POPC   C4B40702   6.191  25.215   7.430
 2982POPC   NC340703  26.313  33.830   5.360
 2982POPC   PO440704  25.719  33.643   5.638
 2982POPC   GL140705  26.064  33.908   5.819
 2982POPC   GL240706  26.373  33.696   5.858
 2982POPC   C1A40707  26.020  34.147   6.219
 2982POPC   D2A40708  25.787  33.857   6.483
 2982POPC   C3A40709  25.759  33.803   6.932
 2982POPC   C4A40710  25.846  33.950   7.335
 2982POPC   C1B40711  26.291  33.729   6.309
 2982POPC   C2B40712  26.181  33.572   6.711
 2982POPC   C3B40713  26.353  33.355   7.095
 2982POPC   C4B40714  26.376  33.433   7.551
 2983POPC   NC340715  44.258  12.908   5.417
 2983POPC   PO440716  43.644  13.235   5.664
 2983POPC   GL140717  43.908  12.891   5.773
 2983POPC   GL240718  43.867  12.564   5.918
 2983POPC   C1A40719  44.176  12.917   6.094
 2983POPC   D2A40720  44.213  13.017   6.509
 2983POPC   C3A40721  43.872  12.930   6.763
 2983POPC   C4A40722  43.974  12.835   7.171
 2983POPC   C1B40723  43.978  12.546   6.389
 2983POPC   C2B40724  44.244  12.572   6.792
 2983POPC   C3B40725  44.101  12.347   7.162
 2983POPC   C4B40726  43.733  12.486   7.434
 2984POPC   NC340727  33.429  16.148   5.359
 2984POPC   PO440728  32.958  15.687   5.366
 2984POPC   GL140729  32.945  15.865   5.767
 2984POPC   GL240730  33.117  16.162   5.772
 2984POPC   C1A40731  32.935  15.843   6.214
 2984POPC   D2A40732  33.062  15.591   6.530
 2984POPC   C3A40733  33.194  15.816   6.873
 2984POPC   C4A40734  33.038  15.934   7.290
 2984POPC   C1B40735  32.819  16.314   6.074
 2984POPC   C2B40736  32.960  16.335   6.508
 2984POPC   C3B40737  32.795  16.147   6.874
 2984POPC   C4B40738  32.651  16.266   7.253
 2985POPC   NC340739  15.124  29.451   5.352
 2985POPC   PO440740  15.455  28.956   5.282
 2985POPC   GL140741  15.236  29.031   5.692
 2985POPC   GL240742  14.897  29.063   5.664
 2985POPC   C1A40743  15.317  29.056   6.147
 2985POPC   D2A40744  15.376  28.962   6.593
 2985POPC   C3A40745  15.522  29.084   7.009
 2985POPC   C4A40746  15.351  28.890   7.373
 2985POPC   C1B40747  14.887  29.305   6.037
 2985POPC   C2B40748  15.060  29.389   6.437
 2985POPC   C3B40749  15.090  29.335   6.830
 2985POPC   C4B40750  15.048  29.261   7.225
 2986POPC   NC340751   6.128  29.539   5.349
 2986POPC   PO440752   5.970  28.825   5.498
 2986POPC   GL140753   5.924  29.220   5.733
 2986POPC   GL240754   6.265  29.261   5.817
 2986POPC   C1A40755   5.889  29.431   6.152
 2986POPC   D2A40756   6.015  29.307   6.584
 2986POPC   C3A40757   5.653  29.163   6.820
 2986POPC   C4A40758   5.449  29.169   7.210
 2986POPC   C1B40759   6.133  28.980   6.171
 2986POPC   C2B40760   5.985  28.805   6.574
 2986POPC   C3B40761   6.112  28.962   6.953
 2986POPC   C4B40762   5.957  29.288   7.220
 2987POPC   NC340763  23.370  23.621   5.524
 2987POPC   PO440764  23.931  23.417   5.178
 2987POPC   GL140765  23.845  23.686   5.678
 2987POPC   GL240766  23.606  23.563   5.946
 2987POPC   C1A40767  23.860  23.872   6.191
 2987POPC   D2A40768  23.556  23.740   6.540
 2987POPC   C3A40769  23.817  23.599   6.894
 2987POPC   C4A40770  23.925  23.934   7.188
 2987POPC   C1B40771  23.337  23.348   6.156
 2987POPC   C2B40772  23.163  23.323   6.547
 2987POPC   C3B40773  23.336  23.393   6.931
 2987POPC   C4B40774  23.403  23.764   7.152
 2988POPC   NC340775   3.259   2.895   5.471
 2988POPC   PO440776   3.614   2.404   5.139
 2988POPC   GL140777   3.606   2.468   5.666
 2988POPC   GL240778   3.289   2.552   5.826
 2988POPC   C1A40779   3.731   2.739   6.100
 2988POPC   D2A40780   3.627   2.945   6.521
 2988POPC   C3A40781   3.714   2.808   6.973
 2988POPC   C4A40782   3.467   2.979   7.368
 2988POPC   C1B40783   3.376   2.404   6.210
 2988POPC   C2B40784   3.425   2.455   6.638
 2988POPC   C3B40785   3.275   2.541   7.055
 2988POPC   C4B40786   3.588   2.497   7.369
 2989POPC   NC340787   0.669  23.604   5.357
 2989POPC   PO440788   0.122  23.983   5.497
 2989POPC   GL140789   0.365  23.753   5.791
 2989POPC   GL240790   0.722  23.800   5.846
 2989POPC   C1A40791   0.336  23.861   6.232
 2989POPC   D2A40792   0.248  23.585   6.571
 2989POPC   C3A40793   0.290  23.761   6.964
 2989POPC   C4A40794   0.397  23.857   7.350
 2989POPC   C1B40795   0.830  23.993   6.245
 2989POPC   C2B40796   0.692  23.891   6.659
 2989POPC   C3B40797   0.896  23.867   7.069
 2989POPC   C4B40798   0.855  23.933   7.517
 2990POPC   NC340799  18.527  40.889   5.394
 2990POPC   PO440800  17.964  40.579   5.292
 2990POPC   GL140801  18.181  40.600   5.746
 2990POPC   GL240802  18.568  40.611   5.839
 2990POPC   C1A40803  18.218  40.825   6.186
 2990POPC   D2A40804  18.390  40.988   6.617
 2990POPC   C3A40805  18.182  41.125   7.041
 2990POPC   C4A40806  18.351  41.047   7.468
 2990POPC   C1B40807  18.671  40.392   6.261
 2990POPC   C2B40808  18.600  40.465   6.719
 2990POPC   C3B40809  18.440  40.669   7.074
 2990POPC   C4B40810  18.023  40.664   7.280
 2991POPC   NC340811  25.654  28.956   5.641
 2991POPC   PO440812  26.168  29.268   5.408
 2991POPC   GL140813  26.125  29.097   5.836
 2991POPC   GL240814  26.093  28.740   5.881
 2991POPC   C1A40815  26.063  29.057   6.290
 2991POPC   D2A40816  26.354  29.121   6.606
 2991POPC   C3A40817  26.366  29.500   6.779
 2991POPC   C4A40818  26.245  29.350   7.177
 2991POPC   C1B40819  25.765  28.640   6.239
 2991POPC   C2B40820  25.734  28.734   6.674
 2991POPC   C3B40821  26.003  28.905   6.995
 2991POPC   C4B40822  25.805  28.750   7.350
 2992POPC   NC340823  42.568  24.183   5.353
 2992POPC   PO440824  43.136  24.544   5.407
 2992POPC   GL140825  43.178  24.400   5.827
 2992POPC   GL240826  42.824  24.350   5.879
 2992POPC   C1A40827  43.190  24.520   6.283
 2992POPC   D2A40828  43.487  24.643   6.633
 2992POPC   C3A40829  43.261  24.780   6.992
 2992POPC   C4A40830  42.891  24.507   7.064
 2992POPC   C1B40831  42.713  24.267   6.317
 2992POPC   C2B40832  42.687  24.113   6.743
 2992POPC   C3B40833  42.751  24.000   7.176
 2992POPC   C4B40834  42.887  24.280   7.535
 2993POPC   NC340835  24.967  12.962   5.262
 2993POPC   PO440836  25.532  12.681   5.374
 2993POPC   GL140837  25.251  12.694   5.713
 2993POPC   GL240838  25.168  13.038   5.722
 2993POPC   C1A40839  25.262  12.806   6.173
 2993POPC   D2A40840  25.271  12.634   6.595
 2993POPC   C3A40841  25.289  12.933   6.927
 2993POPC   C4A40842  25.440  12.704   7.268
 2993POPC   C1B40843  24.911  13.198   6.072
 2993POPC   C2B40844  25.007  13.149   6.493
 2993POPC   C3B40845  24.867  13.384   6.830
 2993POPC   C4B40846  24.769  13.176   7.209
 2994POPC   NC340847  29.204   6.060   5.130
 2994POPC   PO440848  29.231   5.590   5.638
 2994POPC   GL140849  29.013   5.672   5.991
 2994POPC   GL240850  29.026   5.989   6.117
 2994POPC   C1A40851  28.989   5.596   6.425
 2994POPC   D2A40852  29.382   5.691   6.651
 2994POPC   C3A40853  29.227   5.832   7.028
 2994POPC   C4A40854  28.915   5.595   7.229
 2994POPC   C1B40855  29.091   6.102   6.504
 2994POPC   C2B40856  28.749   6.118   6.746
 2994POPC   C3B40857  28.751   6.065   7.169
 2994POPC   C4B40858  29.082   6.211   7.421
 2995POPC   NC340859   8.157  14.070   5.391
 2995POPC   PO440860   8.259  14.739   5.274
 2995POPC   GL140861   8.420  14.545   5.680
 2995POPC   GL240862   8.140  14.386   5.796
 2995POPC   C1A40863   8.476  14.426   6.175
 2995POPC   D2A40864   8.136  14.356   6.511
 2995POPC   C3A40865   8.319  14.197   6.888
 2995POPC   C4A40866   8.335  14.315   7.297
 2995POPC   C1B40867   8.138  14.042   6.106
 2995POPC   C2B40868   8.149  13.845   6.490
 2995POPC   C3B40869   7.915  13.901   6.855
 2995POPC   C4B40870   7.909  14.050   7.251
 2996POPC   NC340871  18.465   0.574   5.430
 2996POPC   PO440872  18.069   0.050   5.280
 2996POPC   GL140873  18.073   0.150   5.711
 2996POPC   GL240874  18.038   0.515   5.734
 2996POPC   C1A40875  18.070   0.166   6.167
 2996POPC   D2A40876  18.180   0.078   6.598
 2996POPC   C3A40877  18.389   0.411   6.841
 2996POPC   C4A40878  18.511   0.640   7.230
 2996POPC   C1B40879  17.976   0.698   6.157
 2996POPC   C2B40880  17.917   0.540   6.590
 2996POPC   C3B40881  17.974   0.598   7.059
 2996POPC   C4B40882  18.089   0.418   7.449
 2997POPC   NC340883   6.768   6.315   5.583
 2997POPC   PO440884   6.490   5.738   5.237
 2997POPC   GL140885   6.509   5.858   5.715
 2997POPC   GL240886   6.349   5.587   5.998
 2997POPC   C1A40887   6.331   6.070   6.088
 2997POPC   D2A40888   6.186   5.832   6.447
 2997POPC   C3A40889   6.258   5.986   6.846
 2997POPC   C4A40890   6.559   6.101   7.150
 2997POPC   C1B40891   6.670   5.728   6.282
 2997POPC   C2B40892   6.962   5.692   6.611
 2997POPC   C3B40893   6.723   5.659   6.977
 2997POPC   C4B40894   6.346   5.535   7.153
 2998POPC   NC340895  42.847  13.549   5.295
 2998POPC   PO440896  43.351  14.058   5.394
 2998POPC   GL140897  43.143  13.771   5.652
 2998POPC   GL240898  42.916  13.993   5.691
 2998POPC   C1A40899  43.158  13.540   6.054
 2998POPC   D2A40900  43.362  13.646   6.460
 2998POPC   C3A40901  43.317  13.340   6.797
 2998POPC   C4A40902  43.236  13.473   7.210
 2998POPC   C1B40903  42.877  13.956   6.098
 2998POPC   C2B40904  42.840  13.732   6.471
 2998POPC   C3B40905  43.015  13.773   6.861
 2998POPC   C4B40906  42.874  13.825   7.267
 2999POPC   NC340907  44.762  44.432   5.313
 2999POPC   PO440908   0.036   0.028   5.450
 2999POPC   GL140909  44.909  44.777   5.792
 2999POPC   GL240910  44.779  44.434   5.829
 2999POPC   C1A40911  44.770  44.893   6.199
 2999POPC   D2A40912  44.478  44.960   6.523
 2999POPC   C3A40913  44.686  44.923   6.931
 2999POPC   C4A40914  44.556  44.836   7.343
 2999POPC   C1B40915  44.478  44.459   6.190
 2999POPC   C2B40916  44.575  44.478   6.626
 2999POPC   C3B40917  44.460  44.436   7.043
 2999POPC   C4B40918  44.758  44.353   7.371
 3000POPC   NC340919  31.184  18.196   5.330
 3000POPC   PO440920  31.673  18.557   5.553
 3000POPC   GL140921  31.602  18.220   5.860
 3000POPC   GL240922  31.348  17.923   5.755
 3000POPC   C1A40923  31.636  18.524   6.220
 3000POPC   D2A40924  31.438  18.812   6.520
 3000POPC   C3A40925  31.313  18.589   6.873
 3000POPC   C4A40926  31.423  18.576   7.295
 3000POPC   C1B40927  31.252  17.950   6.207
 3000POPC   C2B40928  31.431  18.190   6.553
 3000POPC   C3B40929  31.566  18.154   6.981
 3000POPC   C4B40930  31.363  17.996   7.311
 3001POPC   NC340931  21.085  15.154   5.526
 3001POPC   PO440932  20.452  15.217   5.282
 3001POPC   GL140933  20.616  15.267   5.739
 3001POPC   GL240934  20.843  14.986   5.922
 3001POPC   C1A40935  20.416  15.227   6.180
 3001POPC   D2A40936  20.362  15.016   6.611
 3001POPC   C3A40937  20.474  15.110   7.066
 3001POPC   C4A40938  20.303  14.845   7.456
 3001POPC   C1B40939  20.904  15.356   6.167
 3001POPC   C2B40940  20.762  15.371   6.575
 3001POPC   C3B40941  20.933  15.394   6.959
 3001POPC   C4B40942  20.859  15.250   7.379
 3002POPC   NC340943   5.938   4.755   5.400
 3002POPC   PO440944   5.859   5.459   5.359
 3002POPC   GL140945   5.667   5.352   5.704
 3002POPC   GL240946   5.877   5.100   5.768
 3002POPC   C1A40947   5.482   5.242   6.124
 3002POPC   D2A40948   5.700   5.211   6.481
 3002POPC   C3A40949   5.535   5.205   6.855
 3002POPC   C4A40950   5.678   5.048   7.254
 3002POPC   C1B40951   6.063   5.109   6.137
 3002POPC   C2B40952   6.113   4.931   6.542
 3002POPC   C3B40953   6.082   5.088   6.959
 3002POPC   C4B40954   6.186   4.873   7.349
 3003POPC   NC340955   7.147  33.456   5.606
 3003POPC   PO440956   7.162  34.132   5.448
 3003POPC   GL140957   7.426  33.873   5.714
 3003POPC   GL240958   7.708  34.008   5.838
 3003POPC   C1A40959   7.456  33.690   6.150
 3003POPC   D2A40960   7.160  33.895   6.436
 3003POPC   C3A40961   7.221  33.877   6.862
 3003POPC   C4A40962   7.220  33.584   7.190
 3003POPC   C1B40963   7.728  34.117   6.257
 3003POPC   C2B40964   7.693  33.859   6.616
 3003POPC   C3B40965   7.694  33.812   7.062
 3003POPC   C4B40966   7.836  34.178   7.271
 3004POPC   NC340967  34.858   0.686   5.408
 3004POPC   PO440968  34.342   0.273   5.414
 3004POPC   GL140969  34.543   0.526   5.781
 3004POPC   GL240970  34.856   0.384   5.819
 3004POPC   C1A40971  34.707   0.621   6.250
 3004POPC   D2A40972  34.902   0.499   6.670
 3004POPC   C3A40973  34.640   0.522   7.045
 3004POPC   C4A40974  34.297   0.336   7.221
 3004POPC   C1B40975  34.622   0.121   6.070
 3004POPC   C2B40976  34.597   0.141   6.470
 3004POPC   C3B40977  34.577   0.047   6.876
 3004POPC   C4B40978  34.588  44.905   7.275
 3005POPC   NC340979  42.623  31.200   5.426
 3005POPC   PO440980  42.157  31.681   5.374
 3005POPC   GL140981  42.359  31.638   5.738
 3005POPC   GL240982  42.267  31.303   5.772
 3005POPC   C1A40983  42.282  31.615   6.185
 3005POPC   D2A40984  42.477  31.639   6.573
 3005POPC   C3A40985  42.270  31.723   6.931
 3005POPC   C4A40986  42.473  31.892   7.285
 3005POPC   C1B40987  42.499  31.091   6.086
 3005POPC   C2B40988  42.410  31.120   6.501
 3005POPC   C3B40989  42.532  31.218   6.884
 3005POPC   C4B40990  42.501  31.332   7.273
 3006POPC   NC340991   0.786   1.217   5.067
 3006POPC   PO440992   1.196   1.547   5.483
 3006POPC   GL140993   1.189   1.176   5.773
 3006POPC   GL240994   0.915   0.917   5.644
 3006POPC   C1A40995   1.315   1.094   6.221
 3006POPC   D2A40996   1.266   1.267   6.625
 3006POPC   C3A40997   1.472   1.123   6.991
 3006POPC   C4A40998   1.229   1.336   7.306
 3006POPC   C1B40999   0.860   0.919   6.086
 3006POPC   C2B41000   0.953   0.843   6.557
 3006POPC   C3B41001   0.979   0.970   7.014
 3006POPC   C4B41002   0.865   0.919   7.480
 3007POPC   NC341003  11.802  35.692   5.588
 3007POPC   PO441004  12.117  35.079   5.337
 3007POPC   GL141005  12.061  35.261   5.736
 3007POPC   GL241006  12.395  35.194   5.807
 3007POPC   C1A41007  12.019  35.439   6.174
 3007POPC   D2A41008  11.921  35.224   6.602
 3007POPC   C3A41009  11.889  35.429   7.030
 3007POPC   C4A41010  12.053  35.600   7.426
 3007POPC   C1B41011  12.235  34.979   6.178
 3007POPC   C2B41012  12.316  34.895   6.604
 3007POPC   C3B41013  12.195  35.015   7.033
 3007POPC   C4B41014  11.950  34.807   7.313
 3008POPC   NC341015  44.101  31.243   5.335
 3008POPC   PO441016  43.822  31.895   5.327
 3008POPC   GL141017  43.857  31.785   5.741
 3008POPC   GL241018  43.812  31.416   5.711
 3008POPC   C1A41019  43.712  31.721   6.151
 3008POPC   D2A41020  43.547  31.337   6.350
 3008POPC   C3A41021  43.520  31.370   6.810
 3008POPC   C4A41022  43.772  31.373   7.194
 3008POPC   C1B41023  44.106  31.401   6.030
 3008POPC   C2B41024  44.052  31.458   6.461
 3008POPC   C3B41025  44.094  31.182   6.773
 3008POPC   C4B41026  44.192  31.076   7.165
 3009POPC   NC341027  35.861  37.128   5.557
 3009POPC   PO441028  36.457  36.857   5.460
 3009POPC   GL141029  36.172  36.855   5.859
 3009POPC   GL241030  36.378  36.581   5.981
 3009POPC   C1A41031  35.906  37.091   6.227
 3009POPC   D2A41032  35.976  37.419   6.594
 3009POPC   C3A41033  36.186  37.281   6.996
 3009POPC   C4A41034  36.060  37.292   7.434
 3009POPC   C1B41035  36.389  36.855   6.326
 3009POPC   C2B41036  36.128  36.902   6.662
 3009POPC   C3B41037  36.139  36.758   7.058
 3009POPC   C4B41038  35.948  36.456   7.252
 3010POPC   NC341039  44.055  37.500   5.411
 3010POPC   PO441040  43.529  37.908   5.429
 3010POPC   GL141041  43.813  37.820   5.814
 3010POPC   GL241042  44.030  38.128   5.927
 3010POPC   C1A41043  43.697  37.650   6.248
 3010POPC   D2A41044  43.589  37.463   6.689
 3010POPC   C3A41045  43.640  37.651   7.115
 3010POPC   C4A41046  44.006  37.447   7.293
 3010POPC   C1B41047  44.106  38.242   6.323
 3010POPC   C2B41048  43.929  37.960   6.590
 3010POPC   C3B41049  44.084  37.688   6.843
 3010POPC   C4B41050  44.087  37.934   7.206
 3011POPC   NC341051  39.096   3.058   5.577
 3011POPC   PO441052  39.463   2.448   5.512
 3011POPC   GL141053  39.287   2.430   5.912
 3011POPC   GL241054  39.234   2.769   5.974
 3011POPC   C1A41055  39.464   2.481   6.322
 3011POPC   D2A41056  39.318   2.670   6.666
 3011POPC   C3A41057  39.484   2.799   7.028
 3011POPC   C4A41058  39.434   2.699   7.429
 3011POPC   C1B41059  39.340   3.037   6.336
 3011POPC   C2B41060  39.191   3.161   6.784
 3011POPC   C3B41061  39.193   3.163   7.269
 3011POPC   C4B41062  39.243   3.134   7.738
 3012POPC   NC341063  36.692  31.024   5.309
 3012POPC   PO441064  37.080  30.427   5.328
 3012POPC   GL141065  36.993  30.754   5.644
 3012POPC   GL241066  36.637  30.816   5.774
 3012POPC   C1A41067  37.134  30.773   6.072
 3012POPC   D2A41068  37.315  30.720   6.485
 3012POPC   C3A41069  37.144  30.957   6.829
 3012POPC   C4A41070  37.015  30.806   7.209
 3012POPC   C1B41071  36.661  30.542   6.119
 3012POPC   C2B41072  36.795  30.613   6.557
 3012POPC   C3B41073  36.584  30.716   6.962
 3012POPC   C4B41074  36.560  30.834   7.436
 3013POPC   NC341075  12.015  18.612   5.582
 3013POPC   PO441076  12.436  18.145   5.459
 3013POPC   GL141077  12.238  18.218   5.842
 3013POPC   GL241078  11.869  18.131   5.756
 3013POPC   C1A41079  12.246  18.296   6.273
 3013POPC   D2A41080  12.045  18.267   6.654
 3013POPC   C3A41081  12.209  18.487   6.965
 3013POPC   C4A41082  12.485  18.439   7.267
 3013POPC   C1B41083  11.756  18.254   6.171
 3013POPC   C2B41084  11.619  18.014   6.541
 3013POPC   C3B41085  11.637  18.097   6.958
 3013POPC   C4B41086  11.793  18.400   7.251
 3014POPC   NC341087  30.306  22.028   5.482
 3014POPC   PO441088  30.879  22.223   5.296
 3014POPC   GL141089  30.852  22.240   5.783
 3014POPC   GL241090  30.533  22.089   5.958
 3014POPC   C1A41091  30.865  22.459   6.182
 3014POPC   D2A41092  30.791  22.306   6.613
 3014POPC   C3A41093  30.857  22.545   6.984
 3014POPC   C4A41094  30.956  22.326   7.354
 3014POPC   C1B41095  30.172  21.858   6.114
 3014POPC   C2B41096  30.188  21.706   6.531
 3014POPC   C3B41097  30.439  21.805   6.892
 3014POPC   C4B41098  30.471  22.213   7.096
 3015POPC   NC341099  11.986   6.757   5.133
 3015POPC   PO441100  12.486   6.534   5.560
 3015POPC   GL141101  12.126   6.790   5.658
 3015POPC   GL241102  11.950   6.506   5.693
 3015POPC   C1A41103  11.932   6.869   6.080
 3015POPC   D2A41104  11.886   6.704   6.524
 3015POPC   C3A41105  11.885   6.891   6.935
 3015POPC   C4A41106  11.846   6.668   7.304
 3015POPC   C1B41107  11.990   6.341   6.119
 3015POPC   C2B41108  12.136   6.244   6.535
 3015POPC   C3B41109  12.169   6.442   6.948
 3015POPC   C4B41110  12.261   6.429   7.411
 3016POPC   NC341111  32.566  28.453   5.420
 3016POPC   PO441112  31.894  28.567   5.438
 3016POPC   GL141113  32.171  28.325   5.714
 3016POPC   GL241114  32.446  28.485   5.904
 3016POPC   C1A41115  32.183  28.110   6.108
 3016POPC   D2A41116  32.232  28.321   6.515
 3016POPC   C3A41117  32.161  28.122   6.911
 3016POPC   C4A41118  32.147  28.305   7.310
 3016POPC   C1B41119  32.393  28.732   6.242
 3016POPC   C2B41120  32.559  28.759   6.631
 3016POPC   C3B41121  32.442  28.569   6.985
 3016POPC   C4B41122  32.231  28.812   7.273
 3017POPC   NC341123   4.977  29.603   5.225
 3017POPC   PO441124   5.169  30.199   5.352
 3017POPC   GL141125   5.130  30.028   5.749
 3017POPC   GL241126   5.219  29.705   5.709
 3017POPC   C1A41127   4.948  29.961   6.126
 3017POPC   D2A41128   5.134  29.971   6.494
 3017POPC   C3A41129   4.900  30.153   6.802
 3017POPC   C4A41130   5.011  29.983   7.177
 3017POPC   C1B41131   5.448  29.719   6.120
 3017POPC   C2B41132   5.546  29.585   6.537
 3017POPC   C3B41133   5.372  29.626   6.941
 3017POPC   C4B41134   5.384  29.656   7.379
 3018POPC   NC341135  31.289  18.820   5.560
 3018POPC   PO441136  31.635  19.254   5.144
 3018POPC   GL141137  31.530  19.287   5.650
 3018POPC   GL241138  31.183  19.253   5.798
 3018POPC   C1A41139  31.594  19.173   6.144
 3018POPC   D2A41140  31.748  19.261   6.606
 3018POPC   C3A41141  31.574  19.034   7.020
 3018POPC   C4A41142  31.477  19.027   7.503
 3018POPC   C1B41143  31.054  18.984   6.201
 3018POPC   C2B41144  30.913  18.852   6.644
 3018POPC   C3B41145  31.030  18.944   7.103
 3018POPC   C4B41146  31.203  19.344   7.241
 3019POPC   NC341147  17.004  17.341   5.512
 3019POPC   PO441148  16.597  17.881   5.394
 3019POPC   GL141149  16.653  17.653   5.756
 3019POPC   GL241150  16.871  17.931   5.857
 3019POPC   C1A41151  16.731  17.374   6.106
 3019POPC   D2A41152  16.800  17.389   6.558
 3019POPC   C3A41153  16.470  17.526   6.865
 3019POPC   C4A41154  16.573  17.535   7.270
 3019POPC   C1B41155  17.067  17.735   6.181
 3019POPC   C2B41156  17.092  17.821   6.576
 3019POPC   C3B41157  16.952  17.687   6.944
 3019POPC   C4B41158  17.045  17.755   7.313
 3020POPC   NC341159  31.694  23.185   5.356
 3020POPC   PO441160  31.248  22.753   5.513
 3020POPC   GL141161  31.442  23.029   5.830
 3020POPC   GL241162  31.805  23.030   5.835
 3020POPC   C1A41163  31.316  22.950   6.260
 3020POPC   D2A41164  31.194  22.633   6.563
 3020POPC   C3A41165  31.276  22.842   6.953
 3020POPC   C4A41166  31.350  22.928   7.394
 3020POPC   C1B41167  31.793  23.244   6.224
 3020POPC   C2B41168  31.945  23.087   6.624
 3020POPC   C3B41169  31.810  22.947   7.036
 3020POPC   C4B41170  31.815  23.135   7.432
 3021POPC   NC341171  30.275  28.510   5.519
 3021POPC   PO441172  29.639  28.170   5.436
 3021POPC   GL141173  29.797  28.465   5.754
 3021POPC   GL241174  30.047  28.204   5.871
 3021POPC   C1A41175  30.020  28.634   6.134
 3021POPC   D2A41176  30.028  28.337   6.426
 3021POPC   C3A41177  29.973  28.437   6.839
 3021POPC   C4A41178  30.040  28.378   7.263
 3021POPC   C1B41179  30.228  27.947   6.184
 3021POPC   C2B41180  30.175  27.820   6.610
 3021POPC   C3B41181  30.387  27.880   6.993
 3021POPC   C4B41182  30.271  27.955   7.428
 3022POPC   NC341183  13.206  16.993   5.402
 3022POPC   PO441184  12.843  16.452   5.275
 3022POPC   GL141185  12.845  16.653   5.734
 3022POPC   GL241186  13.069  16.916   5.884
 3022POPC   C1A41187  12.807  16.620   6.224
 3022POPC   D2A41188  12.718  16.884   6.602
 3022POPC   C3A41189  12.881  16.822   6.989
 3022POPC   C4A41190  12.778  16.590   7.306
 3022POPC   C1B41191  13.073  17.094   6.297
 3022POPC   C2B41192  13.293  17.072   6.707
 3022POPC   C3B41193  13.218  17.178   7.140
 3022POPC   C4B41194  13.074  16.950   7.500
 3023POPC   NC341195  21.669  13.290   5.510
 3023POPC   PO441196  21.177  13.781   5.439
 3023POPC   GL141197  21.337  13.595   5.775
 3023POPC   GL241198  21.015  13.495   5.830
 3023POPC   C1A41199  21.611  13.725   6.144
 3023POPC   D2A41200  21.714  13.642   6.581
 3023POPC   C3A41201  21.354  13.770   6.780
 3023POPC   C4A41202  21.315  13.968   7.141
 3023POPC   C1B41203  21.274  13.331   6.205
 3023POPC   C2B41204  21.380  13.253   6.645
 3023POPC   C3B41205  21.495  13.359   7.061
 3023POPC   C4B41206  21.156  13.412   7.320
 3024POPC   NC341207   9.462  10.502   5.483
 3024POPC   PO441208   9.881  10.928   5.274
 3024POPC   GL141209   9.899  10.660   5.716
 3024POPC   GL241210   9.838  10.272   5.736
 3024POPC   C1A41211   9.822  10.621   6.181
 3024POPC   D2A41212   9.869  10.809   6.602
 3024POPC   C3A41213   9.622  10.691   6.979
 3024POPC   C4A41214   9.698  10.809   7.398
 3024POPC   C1B41215   9.801  10.107   6.149
 3024POPC   C2B41216   9.652  10.288   6.550
 3024POPC   C3B41217   9.786  10.209   6.971
 3024POPC   C4B41218   9.531  10.204   7.343
 3025POPC   NC341219  10.160  12.316   5.413
 3025POPC   PO441220   9.599  12.589   5.274
 3025POPC   GL141221   9.731  12.305   5.692
 3025POPC   GL241222  10.062  12.345   5.931
 3025POPC   C1A41223   9.640  12.105   6.121
 3025POPC   D2A41224   9.540  11.943   6.542
 3025POPC   C3A41225   9.778  12.124   6.918
 3025POPC   C4A41226   9.858  11.977   7.377
 3025POPC   C1B41227   9.962  12.422   6.394
 3025POPC   C2B41228  10.152  12.550   6.804
 3025POPC   C3B41229  10.151  12.355   7.228
 3025POPC   C4B41230  10.241  12.177   7.662
 3026POPC   NC341231  20.007  15.165   5.378
 3026POPC   PO441232  19.308  15.173   5.420
 3026POPC   GL141233  19.587  15.160   5.765
 3026POPC   GL241234  19.622  14.794   5.785
 3026POPC   C1A41235  19.734  15.297   6.205
 3026POPC   D2A41236  19.803  15.517   6.628
 3026POPC   C3A41237  20.030  15.370   6.982
 3026POPC   C4A41238  19.777  15.178   7.300
 3026POPC   C1B41239  19.726  14.768   6.222
 3026POPC   C2B41240  19.836  14.982   6.625
 3026POPC   C3B41241  20.038  14.852   6.998
 3026POPC   C4B41242  19.839  14.665   7.331
 3027POPC   NC341243  35.566  42.793   5.560
 3027POPC   PO441244  35.573  42.183   5.505
 3027POPC   GL141245  35.355  42.158   5.891
 3027POPC   GL241246  35.223  42.494   5.841
 3027POPC   C1A41247  35.469  42.250   6.334
 3027POPC   D2A41248  35.424  42.448   6.744
 3027POPC   C3A41249  35.385  42.187   7.094
 3027POPC   C4A41250  35.419  42.303   7.526
 3027POPC   C1B41251  35.013  42.512   6.239
 3027POPC   C2B41252  34.938  42.668   6.653
 3027POPC   C3B41253  34.958  42.479   7.060
 3027POPC   C4B41254  34.988  42.564   7.490
 3028POPC   NC341255  26.611  23.180   5.337
 3028POPC   PO441256  27.178  22.711   5.214
 3028POPC   GL141257  26.890  22.844   5.641
 3028POPC   GL241258  26.744  23.173   5.825
 3028POPC   C1A41259  26.773  22.747   6.121
 3028POPC   D2A41260  26.773  22.946   6.555
 3028POPC   C3A41261  26.851  22.744   6.966
 3028POPC   C4A41262  26.580  22.778   7.340
 3028POPC   C1B41263  27.103  23.209   6.120
 3028POPC   C2B41264  27.280  23.136   6.551
 3028POPC   C3B41265  27.105  23.202   6.988
 3028POPC   C4B41266  26.920  23.176   7.422
 3029POPC   NC341267  42.150  14.965   5.130
 3029POPC   PO441268  42.474  15.529   5.382
 3029POPC   GL141269  42.352  15.324   5.772
 3029POPC   GL241270  42.411  14.978   5.835
 3029POPC   C1A41271  42.213  15.288   6.217
 3029POPC   D2A41272  42.368  15.416   6.633
 3029POPC   C3A41273  42.108  15.278   6.971
 3029POPC   C4A41274  42.239  15.090   7.344
 3029POPC   C1B41275  42.576  14.893   6.228
 3029POPC   C2B41276  42.409  14.873   6.642
 3029POPC   C3B41277  42.596  15.078   6.979
 3029POPC   C4B41278  42.589  15.467   7.147
 3030POPC   NC341279   8.746  21.823   5.427
 3030POPC   PO441280   8.951  22.472   5.380
 3030POPC   GL141281   8.898  22.226   5.755
 3030POPC   GL241282   9.108  21.897   5.785
 3030POPC   C1A41283   8.803  22.291   6.194
 3030POPC   D2A41284   8.729  22.077   6.594
 3030POPC   C3A41285   8.672  22.341   6.956
 3030POPC   C4A41286   8.754  22.208   7.364
 3030POPC   C1B41287   9.258  22.031   6.182
 3030POPC   C2B41288   9.228  21.909   6.600
 3030POPC   C3B41289   9.080  22.001   7.016
 3030POPC   C4B41290   9.255  22.263   7.341
 3031POPC   NC341291  17.198  21.983   5.467
 3031POPC   PO441292  17.772  21.718   5.744
 3031POPC   GL141293  17.496  22.003   5.934
 3031POPC   GL241294  17.771  22.158   6.080
 3031POPC   C1A41295  17.295  22.089   6.345
 3031POPC   D2A41296  17.425  21.871   6.739
 3031POPC   C3A41297  17.590  22.138   7.089
 3031POPC   C4A41298  17.745  22.051   7.530
 3031POPC   C1B41299  17.672  22.407   6.452
 3031POPC   C2B41300  17.337  22.446   6.749
 3031POPC   C3B41301  17.372  22.603   7.157
 3031POPC   C4B41302  17.733  22.530   7.401
 3032POPC   NC341303   3.937  16.651   5.665
 3032POPC   PO441304   4.373  17.047   5.357
 3032POPC   GL141305   4.460  16.996   5.814
 3032POPC   GL241306   4.405  16.639   5.872
 3032POPC   C1A41307   4.394  17.170   6.271
 3032POPC   D2A41308   4.230  17.005   6.697
 3032POPC   C3A41309   4.473  16.688   6.968
 3032POPC   C4A41310   4.537  16.686   7.428
 3032POPC   C1B41311   4.201  16.704   6.261
 3032POPC   C2B41312   4.180  16.470   6.598
 3032POPC   C3B41313   3.967  16.486   6.947
 3032POPC   C4B41314   4.047  16.665   7.280
 3033POPC   NC341315  17.316  43.118   5.430
 3033POPC   PO441316  17.984  43.044   5.475
 3033POPC   GL141317  17.761  43.186   5.826
 3033POPC   GL241318  17.572  42.909   5.843
 3033POPC   C1A41319  17.551  43.288   6.253
 3033POPC   D2A41320  17.353  43.117   6.659
 3033POPC   C3A41321  17.484  43.255   7.082
 3033POPC   C4A41322  17.343  43.595   7.315
 3033POPC   C1B41323  17.457  42.762   6.242
 3033POPC   C2B41324  17.558  42.621   6.644
 3033POPC   C3B41325  17.432  42.745   7.046
 3033POPC   C4B41326  17.449  42.802   7.493
 3034POPC   NC341327  23.175  16.129   5.384
 3034POPC   PO441328  22.439  16.054   5.423
 3034POPC   GL141329  22.806  16.041   5.734
 3034POPC   GL241330  23.046  15.781   5.745
 3034POPC   C1A41331  22.885  16.039   6.195
 3034POPC   D2A41332  22.952  15.750   6.555
 3034POPC   C3A41333  22.841  15.910   6.952
 3034POPC   C4A41334  22.876  15.810   7.370
 3034POPC   C1B41335  23.364  15.847   6.072
 3034POPC   C2B41336  23.472  15.897   6.500
 3034POPC   C3B41337  23.354  15.805   6.894
 3034POPC   C4B41338  23.290  16.083   7.214
 3035POPC   NC341339   4.588  38.225   5.522
 3035POPC   PO441340   3.942  38.483   5.573
 3035POPC   GL141341   4.197  38.258   5.859
 3035POPC   GL241342   4.492  38.492   5.939
 3035POPC   C1A41343   4.249  38.109   6.280
 3035POPC   D2A41344   4.127  37.975   6.690
 3035POPC   C3A41345   4.378  38.159   7.043
 3035POPC   C4A41346   4.266  38.095   7.473
 3035POPC   C1B41347   4.159  38.625   6.221
 3035POPC   C2B41348   4.040  38.523   6.649
 3035POPC   C3B41349   3.914  38.318   7.024
 3035POPC   C4B41350   3.958  38.496   7.474
 3036POPC   NC341351  12.479  34.726   5.326
 3036POPC   PO441352  12.871  34.138   5.322
 3036POPC   GL141353  12.826  34.439   5.706
 3036POPC   GL241354  12.695  34.771   5.780
 3036POPC   C1A41355  12.988  34.528   6.148
 3036POPC   D2A41356  13.112  34.361   6.562
 3036POPC   C3A41357  12.960  34.520   6.952
 3036POPC   C4A41358  12.882  34.649   7.372
 3036POPC   C1B41359  12.740  34.988   6.171
 3036POPC   C2B41360  12.874  35.015   6.587
 3036POPC   C3B41361  12.699  34.962   6.977
 3036POPC   C4B41362  12.632  35.083   7.386
 3037POPC   NC341363   6.269  36.050   5.420
 3037POPC   PO441364   6.943  35.969   5.513
 3037POPC   GL141365   6.778  36.103   5.895
 3037POPC   GL241366   6.468  36.255   5.848
 3037POPC   C1A41367   6.870  36.144   6.343
 3037POPC   D2A41368   6.661  36.200   6.720
 3037POPC   C3A41369   6.867  36.230   7.135
 3037POPC   C4A41370   6.990  35.869   7.363
 3037POPC   C1B41371   6.345  36.265   6.288
 3037POPC   C2B41372   6.213  36.416   6.707
 3037POPC   C3B41373   6.314  36.229   7.156
 3037POPC   C4B41374   6.166  36.274   7.610
 3038POPC   NC341375  41.344  25.586   5.701
 3038POPC   PO441376  41.594  25.053   5.289
 3038POPC   GL141377  41.679  25.187   5.722
 3038POPC   GL241378  41.402  25.092   5.910
 3038POPC   C1A41379  41.885  25.265   6.107
 3038POPC   D2A41380  41.821  25.601   6.398
 3038POPC   C3A41381  41.540  25.549   6.739
 3038POPC   C4A41382  41.604  25.390   7.135
 3038POPC   C1B41383  41.459  25.108   6.375
 3038POPC   C2B41384  41.464  24.974   6.822
 3038POPC   C3B41385  41.171  24.915   7.172
 3038POPC   C4B41386  41.144  24.717   7.594
 3039POPC   NC341387   3.994  15.164   5.597
 3039POPC   PO441388   4.518  15.618   5.541
 3039POPC   GL141389   4.482  15.352   5.918
 3039POPC   GL241390   4.292  15.060   5.992
 3039POPC   C1A41391   4.494  15.327   6.370
 3039POPC   D2A41392   4.349  15.496   6.728
 3039POPC   C3A41393   4.417  15.215   7.056
 3039POPC   C4A41394   4.360  14.898   7.424
 3039POPC   C1B41395   3.988  15.145   6.285
 3039POPC   C2B41396   4.067  15.061   6.690
 3039POPC   C3B41397   3.943  15.066   7.090
 3039POPC   C4B41398   3.899  14.705   7.280
 3040POPC   NC341399  42.992  14.357   5.271
 3040POPC   PO441400  42.440  14.730   5.401
 3040POPC   GL141401  42.737  14.565   5.768
 3040POPC   GL241402  43.094  14.477   5.759
 3040POPC   C1A41403  42.749  14.416   6.240
 3040POPC   D2A41404  43.019  14.211   6.560
 3040POPC   C3A41405  42.969  14.275   7.010
 3040POPC   C4A41406  43.255  14.161   7.333
 3040POPC   C1B41407  43.307  14.287   6.123
 3040POPC   C2B41408  43.461  14.484   6.518
 3040POPC   C3B41409  43.423  14.515   6.962
 3040POPC   C4B41410  43.423  14.671   7.389
 3041POPC   NC341411  32.927  36.416   5.218
 3041POPC   PO441412  33.251  35.937   5.186
 3041POPC   GL141413  33.182  36.067   5.672
 3041POPC   GL241414  32.885  36.274   5.819
 3041POPC   C1A41415  33.297  36.069   6.162
 3041POPC   D2A41416  33.212  35.952   6.626
 3041POPC   C3A41417  33.278  36.251   7.020
 3041POPC   C4A41418  33.313  36.557   7.386
 3041POPC   C1B41419  32.780  36.005   6.203
 3041POPC   C2B41420  32.650  35.982   6.632
 3041POPC   C3B41421  32.875  35.855   6.989
 3041POPC   C4B41422  32.783  35.972   7.377
 3042POPC   NC341423  33.212  25.716   5.492
 3042POPC   PO441424  33.476  26.302   5.212
 3042POPC   GL141425  33.403  26.178   5.696
 3042POPC   GL241426  33.046  26.099   5.805
 3042POPC   C1A41427  33.445  25.933   6.110
 3042POPC   D2A41428  33.367  25.765   6.530
 3042POPC   C3A41429  33.191  26.031   6.838
 3042POPC   C4A41430  33.264  26.223   7.237
 3042POPC   C1B41431  32.938  26.002   6.250
 3042POPC   C2B41432  32.702  26.242   6.578
 3042POPC   C3B41433  32.779  26.298   7.024
 3042POPC   C4B41434  32.885  25.893   7.243
 3043POPC   NC341435  20.941  20.146   5.353
 3043POPC   PO441436  20.455  19.624   5.344
 3043POPC   GL141437  20.590  19.670   5.774
 3043POPC   GL241438  20.880  19.873   5.780
 3043POPC   C1A41439  20.526  19.847   6.188
 3043POPC   D2A41440  20.407  20.047   6.559
 3043POPC   C3A41441  20.559  19.921   6.963
 3043POPC   C4A41442  20.453  20.009   7.364
 3043POPC   C1B41443  20.897  20.202   6.129
 3043POPC   C2B41444  20.906  20.058   6.568
 3043POPC   C3B41445  20.979  20.223   6.985
 3043POPC   C4B41446  20.922  20.142   7.448
 3044POPC   NC341447   4.748  30.267   5.521
 3044POPC   PO441448   4.305  29.734   5.252
 3044POPC   GL141449   4.278  29.852   5.697
 3044POPC   GL241450   4.061  29.599   5.824
 3044POPC   C1A41451   4.313  29.870   6.170
 3044POPC   D2A41452   4.609  29.825   6.531
 3044POPC   C3A41453   4.480  29.898   6.987
 3044POPC   C4A41454   4.565  30.013   7.427
 3044POPC   C1B41455   4.132  29.367   6.193
 3044POPC   C2B41456   4.014  29.353   6.625
 3044POPC   C3B41457   4.189  29.446   7.026
 3044POPC   C4B41458   4.142  29.764   7.355
 3045POPC   NC341459  19.420  17.463   5.483
 3045POPC   PO441460  19.171  18.063   5.390
 3045POPC   GL141461  19.106  17.758   5.753
 3045POPC   GL241462  18.902  17.441   5.809
 3045POPC   C1A41463  19.138  17.667   6.184
 3045POPC   D2A41464  18.927  17.810   6.517
 3045POPC   C3A41465  18.854  17.532   6.837
 3045POPC   C4A41466  18.882  17.701   7.259
 3045POPC   C1B41467  19.070  17.164   6.165
 3045POPC   C2B41468  19.252  17.327   6.568
 3045POPC   C3B41469  19.305  17.362   7.022
 3045POPC   C4B41470  19.109  17.242   7.421
 3046POPC   NC341471  36.446   1.134   5.259
 3046POPC   PO441472  35.840   1.418   5.328
 3046POPC   GL141473  36.165   1.404   5.619
 3046POPC   GL241474  36.041   1.114   5.765
 3046POPC   C1A41475  36.284   1.452   6.069
 3046POPC   D2A41476  36.070   1.381   6.483
 3046POPC   C3A41477  36.272   1.269   6.888
 3046POPC   C4A41478  36.184   1.269   7.352
 3046POPC   C1B41479  35.777   1.102   6.150
 3046POPC   C2B41480  35.768   0.960   6.590
 3046POPC   C3B41481  35.786   1.140   7.009
 3046POPC   C4B41482  35.798   0.975   7.438
 3047POPC   NC341483  13.221   7.896   5.410
 3047POPC   PO441484  13.071   8.553   5.106
 3047POPC   GL141485  12.980   8.379   5.616
 3047POPC   GL241486  13.132   8.118   5.855
 3047POPC   C1A41487  12.643   8.175   5.967
 3047POPC   D2A41488  12.520   8.118   6.458
 3047POPC   C3A41489  12.673   8.201   6.891
 3047POPC   C4A41490  12.829   7.950   7.237
 3047POPC   C1B41491  13.023   8.459   6.148
 3047POPC   C2B41492  13.025   8.426   6.575
 3047POPC   C3B41493  13.217   8.308   6.957
 3047POPC   C4B41494  13.088   8.364   7.375
 3048POPC   NC341495  18.897   4.993   5.409
 3048POPC   PO441496  19.205   5.585   5.130
 3048POPC   GL141497  19.272   5.239   5.621
 3048POPC   GL241498  19.258   5.465   5.950
 3048POPC   C1A41499  19.180   4.992   6.060
 3048POPC   D2A41500  18.875   4.898   6.428
 3048POPC   C3A41501  18.942   5.091   6.837
 3048POPC   C4A41502  19.224   4.987   7.151
 3048POPC   C1B41503  19.141   5.371   6.392
 3048POPC   C2B41504  19.374   5.359   6.768
 3048POPC   C3B41505  19.163   5.500   7.136
 3048POPC   C4B41506  19.135   5.399   7.575
 3049POPC   NC341507  24.492  10.706   5.469
 3049POPC   PO441508  23.859  11.085   5.381
 3049POPC   GL141509  23.765  10.768   5.778
 3049POPC   GL241510  23.599  10.402   5.803
 3049POPC   C1A41511  23.557  10.683   6.215
 3049POPC   D2A41512  23.396  10.519   6.617
 3049POPC   C3A41513  23.614  10.519   7.012
 3049POPC   C4A41514  23.540  10.451   7.451
 3049POPC   C1B41515  23.506  10.180   6.240
 3049POPC   C2B41516  23.733  10.123   6.670
 3049POPC   C3B41517  23.608  10.008   7.145
 3049POPC   C4B41518  23.649   9.995   7.634
 3050POPC   NC341519   5.484  30.942   5.566
 3050POPC   PO441520   4.884  30.713   5.548
 3050POPC   GL141521   5.006  30.505   5.901
 3050POPC   GL241522   5.347  30.537   5.834
 3050POPC   C1A41523   5.041  30.443   6.329
 3050POPC   D2A41524   5.048  30.716   6.664
 3050POPC   C3A41525   5.111  30.560   7.043
 3050POPC   C4A41526   4.733  30.441   7.218
 3050POPC   C1B41527   5.317  30.869   6.214
 3050POPC   C2B41528   5.413  31.054   6.659
 3050POPC   C3B41529   5.307  31.035   7.140
 3050POPC   C4B41530   5.425  30.954   7.593
 3051POPC   NC341531  24.926  28.973   5.409
 3051POPC   PO441532  25.482  29.380   5.556
 3051POPC   GL141533  25.227  29.423   5.908
 3051POPC   GL241534  25.020  29.160   5.884
 3051POPC   C1A41535  25.185  29.410   6.364
 3051POPC   D2A41536  24.984  29.484   6.753
 3051POPC   C3A41537  25.176  29.281   7.068
 3051POPC   C4A41538  25.612  29.213   7.117
 3051POPC   C1B41539  25.265  28.925   6.196
 3051POPC   C2B41540  25.274  28.987   6.645
 3051POPC   C3B41541  25.351  28.807   7.024
 3051POPC   C4B41542  25.349  28.520   7.256
 3052POPC   NC341543  10.891   2.856   5.152
 3052POPC   PO441544  10.345   2.754   5.546
 3052POPC   GL141545  10.412   2.886   5.944
 3052POPC   GL241546  10.448   2.528   6.021
 3052POPC   C1A41547  10.614   2.872   6.352
 3052POPC   D2A41548  10.327   2.852   6.685
 3052POPC   C3A41549  10.491   2.970   7.067
 3052POPC   C4A41550  10.888   2.960   7.260
 3052POPC   C1B41551  10.105   2.435   6.315
 3052POPC   C2B41552  10.154   2.356   6.745
 3052POPC   C3B41553  10.503   2.455   7.000
 3052POPC   C4B41554  10.549   2.598   7.431
 3053POPC   NC341555   4.180  42.099   5.267
 3053POPC   PO441556   4.539  42.594   5.218
 3053POPC   GL141557   4.366  42.357   5.698
 3053POPC   GL241558   4.294  42.017   5.819
 3053POPC   C1A41559   4.557  42.335   6.170
 3053POPC   D2A41560   4.634  42.289   6.652
 3053POPC   C3A41561   4.384  42.365   7.032
 3053POPC   C4A41562   4.506  42.349   7.481
 3053POPC   C1B41563   4.071  42.222   6.204
 3053POPC   C2B41564   3.923  42.342   6.617
 3053POPC   C3B41565   3.957  42.100   6.998
 3053POPC   C4B41566   4.215  41.955   7.332
 3054POPC   NC341567   6.444   2.892   5.353
 3054POPC   PO441568   7.008   3.204   5.349
 3054POPC   GL141569   6.830   3.037   5.782
 3054POPC   GL241570   6.541   2.770   5.872
 3054POPC   C1A41571   6.927   2.866   6.218
 3054POPC   D2A41572   6.685   2.670   6.548
 3054POPC   C3A41573   6.673   2.796   6.956
 3054POPC   C4A41574   6.840   2.684   7.335
 3054POPC   C1B41575   6.349   2.478   6.244
 3054POPC   C2B41576   6.238   2.469   6.751
 3054POPC   C3B41577   6.185   2.836   7.081
 3054POPC   C4B41578   6.454   3.035   7.399
 3055POPC   NC341579   2.201  24.730   5.458
 3055POPC   PO441580   2.646  24.294   5.199
 3055POPC   GL141581   2.228  24.258   5.555
 3055POPC   GL241582   1.869  24.242   5.584
 3055POPC   C1A41583   2.144  24.412   6.028
 3055POPC   D2A41584   2.166  24.548   6.466
 3055POPC   C3A41585   2.126  24.649   6.888
 3055POPC   C4A41586   2.304  24.441   7.238
 3055POPC   C1B41587   1.734  24.120   6.020
 3055POPC   C2B41588   1.675  24.279   6.462
 3055POPC   C3B41589   1.565  24.365   6.908
 3055POPC   C4B41590   1.804  24.467   7.278
 3056POPC   NC341591   8.162  43.739   5.035
 3056POPC   PO441592   8.102  44.164   5.537
 3056POPC   GL141593   8.105  44.038   5.956
 3056POPC   GL241594   8.016  43.683   6.001
 3056POPC   C1A41595   8.235  44.062   6.365
 3056POPC   D2A41596   8.512  44.238   6.645
 3056POPC   C3A41597   8.618  43.859   6.872
 3056POPC   C4A41598   8.393  43.736   7.222
 3056POPC   C1B41599   7.790  43.779   6.294
 3056POPC   C2B41600   7.808  44.006   6.649
 3056POPC   C3B41601   8.006  44.026   7.034
 3056POPC   C4B41602   7.799  43.813   7.371
 3057POPC   NC341603  24.162  19.933   5.479
 3057POPC   PO441604  24.722  19.515   5.352
 3057POPC   GL141605  24.546  19.620   5.763
 3057POPC   GL241606  24.516  19.963   5.884
 3057POPC   C1A41607  24.729  19.580   6.197
 3057POPC   D2A41608  25.010  19.752   6.539
 3057POPC   C3A41609  24.843  19.807   6.926
 3057POPC   C4A41610  24.486  19.799   7.198
 3057POPC   C1B41611  24.648  20.066   6.320
 3057POPC   C2B41612  24.430  20.000   6.683
 3057POPC   C3B41613  24.242  20.211   6.999
 3057POPC   C4B41614  24.269  20.203   7.442
 3058POPC   NC341615  32.138  43.297   5.397
 3058POPC   PO441616  32.713  43.028   5.236
 3058POPC   GL141617  32.500  42.888   5.732
 3058POPC   GL241618  32.157  43.047   5.837
 3058POPC   C1A41619  32.462  43.069   6.220
 3058POPC   D2A41620  32.276  42.906   6.628
 3058POPC   C3A41621  32.347  43.079   7.016
 3058POPC   C4A41622  32.093  43.204   7.349
 3058POPC   C1B41623  31.954  43.113   6.282
 3058POPC   C2B41624  31.894  43.223   6.750
 3058POPC   C3B41625  31.658  43.076   7.100
 3058POPC   C4B41626  31.289  42.909   7.276
 3059POPC   NC341627  27.652  14.387   5.380
 3059POPC   PO441628  27.031  14.464   5.367
 3059POPC   GL141629  27.196  14.420   5.836
 3059POPC   GL241630  27.548  14.452   5.883
 3059POPC   C1A41631  27.316  14.399   6.329
 3059POPC   D2A41632  27.678  14.378   6.617
 3059POPC   C3A41633  27.567  14.515   7.037
 3059POPC   C4A41634  27.402  14.349   7.360
 3059POPC   C1B41635  27.769  14.134   6.152
 3059POPC   C2B41636  27.913  13.927   6.530
 3059POPC   C3B41637  28.021  14.047   6.928
 3059POPC   C4B41638  27.860  14.164   7.307
 3060POPC   NC341639  39.635  38.359   5.458
 3060POPC   PO441640  40.352  38.559   5.505
 3060POPC   GL141641  40.023  38.439   5.791
 3060POPC   GL241642  39.767  38.705   5.809
 3060POPC   C1A41643  39.930  38.265   6.206
 3060POPC   D2A41644  39.869  38.498   6.600
 3060POPC   C3A41645  39.948  38.269   6.940
 3060POPC   C4A41646  39.988  38.141   7.308
 3060POPC   C1B41647  40.023  38.754   6.183
 3060POPC   C2B41648  40.328  38.773   6.521
 3060POPC   C3B41649  40.245  38.701   6.905
 3060POPC   C4B41650  39.878  38.748   7.151
 3061POPC   NC341651  39.415  40.206   5.380
 3061POPC   PO441652  38.903  39.738   5.360
 3061POPC   GL141653  39.115  39.862   5.719
 3061POPC   GL241654  39.116  40.229   5.787
 3061POPC   C1A41655  39.215  39.889   6.151
 3061POPC   D2A41656  39.293  39.766   6.553
 3061POPC   C3A41657  39.352  40.028   6.895
 3061POPC   C4A41658  39.017  39.878   7.146
 3061POPC   C1B41659  39.042  40.394   6.212
 3061POPC   C2B41660  39.167  40.485   6.655
 3061POPC   C3B41661  39.032  40.419   7.071
 3061POPC   C4B41662  39.212  40.263   7.429
 3062POPC   NC341663   7.052  29.473   5.479
 3062POPC   PO441664   7.013  28.788   5.513
 3062POPC   GL141665   7.215  29.116   5.816
 3062POPC   GL241666   7.527  29.332   5.765
 3062POPC   C1A41667   7.226  29.330   6.245
 3062POPC   D2A41668   7.186  29.065   6.642
 3062POPC   C3A41669   7.261  29.198   7.068
 3062POPC   C4A41670   7.571  29.513   7.025
 3062POPC   C1B41671   7.609  29.027   6.127
 3062POPC   C2B41672   7.736  29.077   6.544
 3062POPC   C3B41673   7.678  28.914   6.938
 3062POPC   C4B41674   7.449  28.807   7.319
 3063POPC   NC341675  34.062   0.636   5.259
 3063POPC   PO441676  33.459   0.693   5.374
 3063POPC   GL141677  33.734   0.426   5.648
 3063POPC   GL241678  34.040   0.584   5.762
 3063POPC   C1A41679  33.722   0.379   6.105
 3063POPC   D2A41680  33.504   0.457   6.473
 3063POPC   C3A41681  33.780   0.391   6.825
 3063POPC   C4A41682  33.794   0.260   7.247
 3063POPC   C1B41683  34.206   0.543   6.190
 3063POPC   C2B41684  34.312   0.533   6.619
 3063POPC   C3B41685  34.146   0.740   6.936
 3063POPC   C4B41686  33.973   0.737   7.327
 3064POPC   NC341687  20.930  23.591   5.658
 3064POPC   PO441688  20.485  24.063   5.378
 3064POPC   GL141689  20.570  23.919   5.802
 3064POPC   GL241690  20.369  23.628   5.818
 3064POPC   C1A41691  20.671  23.725   6.245
 3064POPC   D2A41692  20.940  23.429   6.510
 3064POPC   C3A41693  20.777  23.483   6.933
 3064POPC   C4A41694  20.931  23.687   7.275
 3064POPC   C1B41695  20.259  23.413   6.173
 3064POPC   C2B41696  20.429  23.352   6.568
 3064POPC   C3B41697  20.260  23.348   6.950
 3064POPC   C4B41698  20.365  23.646   7.237
 3065POPC   NC341699  19.952  37.039   5.393
 3065POPC   PO441700  20.028  36.359   5.151
 3065POPC   GL141701  20.073  36.609   5.642
 3065POPC   GL241702  19.808  36.905   5.853
 3065POPC   C1A41703  20.074  36.619   6.145
 3065POPC   D2A41704  19.923  36.872   6.520
 3065POPC   C3A41705  20.109  36.708   6.932
 3065POPC   C4A41706  20.161  36.426   7.320
 3065POPC   C1B41707  19.677  37.268   6.155
 3065POPC   C2B41708  19.482  37.313   6.594
 3065POPC   C3B41709  19.443  37.207   7.009
 3065POPC   C4B41710  19.674  36.967   7.320
 3066POPC   NC341711  34.792  27.895   5.561
 3066POPC   PO441712  34.446  28.436   5.384
 3066POPC   GL141713  34.586  28.409   5.791
 3066POPC   GL241714  34.500  28.089   5.914
 3066POPC   C1A41715  34.564  28.553   6.224
 3066POPC   D2A41716  34.340  28.554   6.621
 3066POPC   C3A41717  34.426  28.229   6.939
 3066POPC   C4A41718  34.367  28.497   7.267
 3066POPC   C1B41719  34.784  28.052   6.258
 3066POPC   C2B41720  34.817  28.318   6.624
 3066POPC   C3B41721  34.791  28.586   6.985
 3066POPC   C4B41722  34.822  28.358   7.402
 3067POPC   NC341723   0.857   7.793   5.522
 3067POPC   PO441724   1.234   7.250   5.571
 3067POPC   GL141725   1.073   7.490   5.896
 3067POPC   GL241726   1.244   7.818   5.850
 3067POPC   C1A41727   1.216   7.579   6.314
 3067POPC   D2A41728   1.387   7.392   6.658
 3067POPC   C3A41729   1.085   7.465   6.949
 3067POPC   C4A41730   1.351   7.338   7.249
 3067POPC   C1B41731   0.874   7.920   6.162
 3067POPC   C2B41732   0.823   7.811   6.615
 3067POPC   C3B41733   0.946   7.969   7.021
 3067POPC   C4B41734   1.055   7.760   7.404
 3068POPC   NC341735   4.068   5.039   5.389
 3068POPC   PO441736   4.497   4.654   5.443
 3068POPC   GL141737   4.399   4.916   5.783
 3068POPC   GL241738   4.111   4.729   5.807
 3068POPC   C1A41739   4.418   5.185   6.158
 3068POPC   D2A41740   4.477   5.439   6.551
 3068POPC   C3A41741   4.410   5.185   6.946
 3068POPC   C4A41742   4.495   5.021   7.376
 3068POPC   C1B41743   4.139   4.625   6.219
 3068POPC   C2B41744   4.194   4.788   6.636
 3068POPC   C3B41745   4.002   4.835   7.056
 3068POPC   C4B41746   4.056   4.765   7.511
 3069POPC   NC341747  25.779   9.276   5.469
 3069POPC   PO441748  25.801   8.615   5.364
 3069POPC   GL141749  26.072   8.882   5.647
 3069POPC   GL241750  26.160   8.610   5.793
 3069POPC   C1A41751  26.084   9.056   6.109
 3069POPC   D2A41752  25.896   8.853   6.517
 3069POPC   C3A41753  25.965   9.030   6.924
 3069POPC   C4A41754  25.708   9.153   7.267
 3069POPC   C1B41755  26.195   8.561   6.213
 3069POPC   C2B41756  26.341   8.583   6.623
 3069POPC   C3B41757  26.073   8.530   6.929
 3069POPC   C4B41758  26.029   8.712   7.306
 3070POPC   NC341759  16.455  22.908   5.291
 3070POPC   PO441760  17.046  22.880   5.353
 3070POPC   GL141761  16.862  23.005   5.755
 3070POPC   GL241762  16.573  23.197   5.703
 3070POPC   C1A41763  16.920  22.858   6.176
 3070POPC   D2A41764  16.750  22.923   6.574
 3070POPC   C3A41765  16.983  22.834   6.917
 3070POPC   C4A41766  16.663  22.674   7.118
 3070POPC   C1B41767  16.555  23.225   6.175
 3070POPC   C2B41768  16.578  23.389   6.629
 3070POPC   C3B41769  16.733  23.261   7.057
 3070POPC   C4B41770  16.965  23.322   7.459
 3071POPC   NC341771  10.311  23.681   5.208
 3071POPC   PO441772  10.758  24.047   5.593
 3071POPC   GL141773  10.607  23.795   5.917
 3071POPC   GL241774  10.328  23.675   5.758
 3071POPC   C1A41775  10.621  23.779   6.361
 3071POPC   D2A41776  10.450  24.034   6.689
 3071POPC   C3A41777  10.648  23.901   7.081
 3071POPC   C4A41778  10.746  23.451   7.273
 3071POPC   C1B41779  10.157  23.881   6.145
 3071POPC   C2B41780  10.007  23.785   6.555
 3071POPC   C3B41781  10.164  23.647   6.945
 3071POPC   C4B41782  10.294  23.667   7.367
 3072POPC   NC341783  40.923  22.685   5.585
 3072POPC   PO441784  41.018  23.398   5.457
 3072POPC   GL141785  40.881  23.184   5.858
 3072POPC   GL241786  40.601  22.919   5.910
 3072POPC   C1A41787  41.009  23.103   6.286
 3072POPC   D2A41788  41.060  22.869   6.673
 3072POPC   C3A41789  40.900  23.053   7.043
 3072POPC   C4A41790  40.894  23.036   7.495
 3072POPC   C1B41791  40.711  22.683   6.320
 3072POPC   C2B41792  40.644  22.583   6.802
 3072POPC   C3B41793  40.528  22.730   7.225
 3072POPC   C4B41794  40.554  22.623   7.673
 3073POPC   NC341795   9.217  26.641   5.438
 3073POPC   PO441796   8.600  26.562   5.576
 3073POPC   GL141797   8.954  26.552   5.874
 3073POPC   GL241798   9.187  26.859   5.896
 3073POPC   C1A41799   8.944  26.663   6.298
 3073POPC   D2A41800   8.743  26.915   6.600
 3073POPC   C3A41801   8.866  26.715   6.963
 3073POPC   C4A41802   8.675  26.848   7.324
 3073POPC   C1B41803   9.429  27.090   6.201
 3073POPC   C2B41804   9.260  26.969   6.586
 3073POPC   C3B41805   9.367  26.863   6.977
 3073POPC   C4B41806   9.171  26.876   7.350
 3074POPC   NC341807  26.248  27.136   5.343
 3074POPC   PO441808  25.934  26.551   5.371
 3074POPC   GL141809  25.968  26.813   5.732
 3074POPC   GL241810  26.311  26.816   5.780
 3074POPC   C1A41811  25.776  26.839   6.157
 3074POPC   D2A41812  25.556  26.597   6.505
 3074POPC   C3A41813  25.818  26.738   6.843
 3074POPC   C4A41814  25.813  27.055   7.088
 3074POPC   C1B41815  26.331  26.846   6.223
 3074POPC   C2B41816  26.430  26.849   6.675
 3074POPC   C3B41817  26.290  26.885   7.068
 3074POPC   C4B41818  26.421  26.598   7.370
 3075POPC   NC341819  33.345  12.272   5.471
 3075POPC   PO441820  32.918  11.742   5.614
 3075POPC   GL141821  33.228  11.955   5.874
 3075POPC   GL241822  32.985  12.236   5.838
 3075POPC   C1A41823  33.323  12.226   6.252
 3075POPC   D2A41824  33.120  12.328   6.678
 3075POPC   C3A41825  33.174  12.025   7.064
 3075POPC   C4A41826  33.237  12.107   7.551
 3075POPC   C1B41827  32.846  12.044   6.222
 3075POPC   C2B41828  32.828  11.912   6.635
 3075POPC   C3B41829  32.668  12.031   7.011
 3075POPC   C4B41830  32.737  11.902   7.438
 3076POPC   NC341831  41.678  38.530   5.371
 3076POPC   PO441832  41.120  38.278   5.276
 3076POPC   GL141833  41.296  38.349   5.715
 3076POPC   GL241834  41.467  38.684   5.804
 3076POPC   C1A41835  41.438  38.325   6.178
 3076POPC   D2A41836  41.287  38.265   6.631
 3076POPC   C3A41837  41.449  38.211   7.066
 3076POPC   C4A41838  41.319  38.247   7.519
 3076POPC   C1B41839  41.826  38.708   6.108
 3076POPC   C2B41840  41.812  38.771   6.580
 3076POPC   C3B41841  41.544  38.704   6.956
 3076POPC   C4B41842  41.676  38.584   7.361
 3077POPC   NC341843  34.117   5.639   5.580
 3077POPC   PO441844  34.678   5.664   5.355
 3077POPC   GL141845  34.531   5.758   5.840
 3077POPC   GL241846  34.460   6.044   5.755
 3077POPC   C1A41847  34.623   5.635   6.309
 3077POPC   D2A41848  34.373   5.532   6.706
 3077POPC   C3A41849  34.563   5.662   7.100
 3077POPC   C4A41850  34.611   5.653   7.536
 3077POPC   C1B41851  34.535   6.161   6.175
 3077POPC   C2B41852  34.466   6.036   6.590
 3077POPC   C3B41853  34.556   6.179   6.971
 3077POPC   C4B41854  34.574   6.363   7.341
 3078POPC   NC341855  21.290  24.459   5.400
 3078POPC   PO441856  21.723  24.939   5.450
 3078POPC   GL141857  21.667  24.553   5.726
 3078POPC   GL241858  21.356  24.717   5.815
 3078POPC   C1A41859  21.443  24.327   6.120
 3078POPC   D2A41860  21.203  24.359   6.531
 3078POPC   C3A41861  21.413  24.492   6.929
 3078POPC   C4A41862  21.504  24.369   7.365
 3078POPC   C1B41863  21.097  24.732   6.152
 3078POPC   C2B41864  21.187  24.871   6.544
 3078POPC   C3B41865  21.034  24.799   6.950
 3078POPC   C4B41866  20.998  24.498   7.302
 3079POPC   NC341867  17.178  43.986   5.584
 3079POPC   PO441868  17.563  43.547   5.195
 3079POPC   GL141869  17.638  43.794   5.643
 3079POPC   GL241870  17.827  43.683   5.854
 3079POPC   C1A41871  17.499  43.920   6.156
 3079POPC   D2A41872  17.202  44.139   6.495
 3079POPC   C3A41873  17.317  44.279   6.919
 3079POPC   C4A41874  17.541  44.015   7.135
 3079POPC   C1B41875  18.001  43.528   6.192
 3079POPC   C2B41876  18.108  43.626   6.586
 3079POPC   C3B41877  17.792  43.600   6.860
 3079POPC   C4B41878  17.853  43.631   7.274
 3080POPC   NC341879  35.628  15.663   5.271
 3080POPC   PO441880  35.340  16.343   5.348
 3080POPC   GL141881  35.360  15.960   5.619
 3080POPC   GL241882  35.708  15.923   5.704
 3080POPC   C1A41883  35.121  15.831   6.004
 3080POPC   D2A41884  35.118  15.864   6.458
 3080POPC   C3A41885  35.296  15.879   6.847
 3080POPC   C4A41886  35.082  15.894   7.229
 3080POPC   C1B41887  35.612  15.682   6.043
 3080POPC   C2B41888  35.630  15.730   6.466
 3080POPC   C3B41889  35.769  15.602   6.843
 3080POPC   C4B41890  35.620  15.720   7.216
 3081POPC   NC341891  30.922   9.931   5.404
 3081POPC   PO441892  30.270   9.680   5.378
 3081POPC   GL141893  30.395   9.853   5.798
 3081POPC   GL241894  30.722   9.838   5.836
 3081POPC   C1A41895  30.448   9.766   6.237
 3081POPC   D2A41896  30.626   9.996   6.546
 3081POPC   C3A41897  30.463   9.830   6.873
 3081POPC   C4A41898  30.591   9.923   7.242
 3081POPC   C1B41899  30.984   9.886   6.195
 3081POPC   C2B41900  31.194   9.778   6.570
 3081POPC   C3B41901  30.982   9.805   6.925
 3081POPC   C4B41902  30.972   9.597   7.311
 3082POPC   NC341903  25.867  43.744   5.442
 3082POPC   PO441904  26.245  44.281   5.307
 3082POPC   GL141905  26.178  43.996   5.746
 3082POPC   GL241906  26.201  43.604   5.808
 3082POPC   C1A41907  26.067  43.980   6.206
 3082POPC   D2A41908  26.309  44.053   6.586
 3082POPC   C3A41909  26.154  44.061   6.992
 3082POPC   C4A41910  25.841  43.829   7.235
 3082POPC   C1B41911  26.382  43.592   6.208
 3082POPC   C2B41912  26.528  43.587   6.613
 3082POPC   C3B41913  26.503  43.684   7.033
 3082POPC   C4B41914  26.167  43.447   7.214
 3083POPC   NC341915  33.488  21.163   5.477
 3083POPC   PO441916  34.024  21.648   5.512
 3083POPC   GL141917  33.903  21.277   5.774
 3083POPC   GL241918  33.616  21.465   5.875
 3083POPC   C1A41919  33.754  21.090   6.180
 3083POPC   D2A41920  33.572  21.266   6.571
 3083POPC   C3A41921  33.872  21.417   6.874
 3083POPC   C4A41922  33.807  21.683   7.237
 3083POPC   C1B41923  33.329  21.607   6.192
 3083POPC   C2B41924  33.244  21.659   6.624
 3083POPC   C3B41925  33.349  21.485   7.025
 3083POPC   C4B41926  33.609  21.205   7.250
 3084POPC   NC341927  36.296  18.330   5.329
 3084POPC   PO441928  35.647  18.256   5.185
 3084POPC   GL141929  35.710  18.483   5.677
 3084POPC   GL241930  36.076  18.432   5.782
 3084POPC   C1A41931  35.757  18.424   6.184
 3084POPC   D2A41932  35.632  18.142   6.582
 3084POPC   C3A41933  35.950  18.053   6.950
 3084POPC   C4A41934  35.938  18.253   7.418
 3084POPC   C1B41935  36.292  18.469   6.196
 3084POPC   C2B41936  36.092  18.414   6.620
 3084POPC   C3B41937  36.260  18.464   7.060
 3084POPC   C4B41938  36.668  18.493   7.205
 3085POPC   NC341939  11.638  27.798   5.440
 3085POPC   PO441940  12.164  27.303   5.421
 3085POPC   GL141941  12.068  27.635   5.720
 3085POPC   GL241942  11.770  27.532   5.880
 3085POPC   C1A41943  12.200  27.685   6.172
 3085POPC   D2A41944  12.388  27.660   6.612
 3085POPC   C3A41945  12.022  27.676   6.909
 3085POPC   C4A41946  11.915  27.577   7.347
 3085POPC   C1B41947  11.723  27.920   6.136
 3085POPC   C2B41948  11.550  27.990   6.551
 3085POPC   C3B41949  11.676  28.145   6.952
 3085POPC   C4B41950  11.956  28.099   7.300
 3086POPC   NC341951  39.006   2.288   5.497
 3086POPC   PO441952  39.239   1.658   5.448
 3086POPC   GL141953  39.250   1.914   5.824
 3086POPC   GL241954  38.919   1.945   5.865
 3086POPC   C1A41955  39.150   2.086   6.292
 3086POPC   D2A41956  38.995   2.294   6.700
 3086POPC   C3A41957  39.285   2.324   7.042
 3086POPC   C4A41958  39.460   2.018   7.309
 3086POPC   C1B41959  38.688   1.900   6.227
 3086POPC   C2B41960  38.805   1.822   6.663
 3086POPC   C3B41961  38.951   1.926   7.082
 3086POPC   C4B41962  39.038   1.816   7.501
 3087POPC   NC341963  10.655  44.531   5.433
 3087POPC   PO441964  10.251   0.065   5.484
 3087POPC   GL141965  10.473  44.827   5.810
 3087POPC   GL241966  10.250  44.543   5.830
 3087POPC   C1A41967  10.439  44.747   6.263
 3087POPC   D2A41968  10.357  44.535   6.663
 3087POPC   C3A41969  10.459  44.674   7.085
 3087POPC   C4A41970  10.616  44.403   7.399
 3087POPC   C1B41971   9.974  44.407   6.204
 3087POPC   C2B41972   9.852  44.560   6.608
 3087POPC   C3B41973  10.000  44.412   7.001
 3087POPC   C4B41974  10.133  44.446   7.439
 3088POPC   NC341975  29.395  32.432   5.433
 3088POPC   PO441976  30.059  32.257   5.375
 3088POPC   GL141977  29.805  32.309   5.730
 3088POPC   GL241978  29.800  31.965   5.802
 3088POPC   C1A41979  29.709  32.326   6.183
 3088POPC   D2A41980  29.896  32.183   6.579
 3088POPC   C3A41981  30.030  32.502   6.867
 3088POPC   C4A41982  29.927  32.543   7.282
 3088POPC   C1B41983  30.163  32.054   6.106
 3088POPC   C2B41984  30.351  31.903   6.522
 3088POPC   C3B41985  30.284  32.033   6.932
 3088POPC   C4B41986  29.887  32.042   7.112
 3089POPC   NC341987  27.497   6.545   5.234
 3089POPC   PO441988  28.202   6.631   5.266
 3089POPC   GL141989  27.853   6.599   5.633
 3089POPC   GL241990  27.478   6.703   5.712
 3089POPC   C1A41991  27.842   6.744   6.089
 3089POPC   D2A41992  27.992   6.681   6.512
 3089POPC   C3A41993  27.804   6.825   6.882
 3089POPC   C4A41994  27.850   6.634   7.270
 3089POPC   C1B41995  27.355   6.592   6.131
 3089POPC   C2B41996  27.425   6.834   6.497
 3089POPC   C3B41997  27.272   6.740   6.884
 3089POPC   C4B41998  27.320   6.495   7.268
 3090POPC   NC341999  40.059  10.115   5.356
 3090POPC   PO442000  40.400   9.518   5.272
 3090POPC   GL142001  40.224   9.602   5.716
 3090POPC   GL242002  39.894   9.751   5.678
 3090POPC   C1A42003  40.215   9.870   6.124
 3090POPC   D2A42004  39.965  10.009   6.491
 3090POPC   C3A42005  40.041   9.803   6.902
 3090POPC   C4A42006  40.126   9.764   7.346
 3090POPC   C1B42007  39.741   9.701   6.085
 3090POPC   C2B42008  39.819   9.510   6.491
 3090POPC   C3B42009  39.632   9.475   6.892
 3090POPC   C4B42010  39.633   9.774   7.221
 3091POPC   NC342011  12.331   3.837   5.496
 3091POPC   PO442012  11.793   3.475   5.433
 3091POPC   GL142013  12.021   3.529   5.827
 3091POPC   GL242014  12.365   3.417   5.804
 3091POPC   C1A42015  12.010   3.624   6.275
 3091POPC   D2A42016  12.018   3.529   6.696
 3091POPC   C3A42017  12.016   3.825   7.002
 3091POPC   C4A42018  12.150   3.798   7.433
 3091POPC   C1B42019  12.373   3.232   6.241
 3091POPC   C2B42020  12.535   3.362   6.637
 3091POPC   C3B42021  12.433   3.484   7.062
 3091POPC   C4B42022  12.517   3.243   7.426
 3092POPC   NC342023  38.200  34.992   5.519
 3092POPC   PO442024  38.765  34.417   5.488
 3092POPC   GL142025  38.465  34.583   5.815
 3092POPC   GL242026  38.187  34.340   5.947
 3092POPC   C1A42027  38.286  34.794   6.176
 3092POPC   D2A42028  38.180  35.018   6.564
 3092POPC   C3A42029  38.308  34.834   6.954
 3092POPC   C4A42030  38.265  34.979   7.358
 3092POPC   C1B42031  38.509  34.255   6.223
 3092POPC   C2B42032  38.510  34.063   6.577
 3092POPC   C3B42033  38.288  34.226   6.899
 3092POPC   C4B42034  38.160  34.433   7.254
 3093POPC   NC342035  22.704  15.248   5.361
 3093POPC   PO442036  23.264  15.596   5.302
 3093POPC   GL142037  23.208  15.303   5.708
 3093POPC   GL242038  22.895  15.149   5.808
 3093POPC   C1A42039  23.090  15.421   6.171
 3093POPC   D2A42040  23.085  15.220   6.589
 3093POPC   C3A42041  23.047  15.423   7.023
 3093POPC   C4A42042  23.199  15.131   7.355
 3093POPC   C1B42043  22.666  15.118   6.194
 3093POPC   C2B42044  22.554  15.257   6.590
 3093POPC   C3B42045  22.702  15.093   6.931
 3093POPC   C4B42046  22.703  15.089   7.346
 3094POPC   NC342047   3.069   9.466   5.454
 3094POPC   PO442048   2.724  10.034   5.325
 3094POPC   GL142049   2.672   9.728   5.684
 3094POPC   GL242050   2.998   9.811   5.813
 3094POPC   C1A42051   2.425   9.534   6.053
 3094POPC   D2A42052   2.327   9.679   6.488
 3094POPC   C3A42053   2.578   9.606   6.877
 3094POPC   C4A42054   2.734   9.637   7.306
 3094POPC   C1B42055   2.930   9.570   6.188
 3094POPC   C2B42056   3.064   9.723   6.593
 3094POPC   C3B42057   3.128   9.525   6.970
 3094POPC   C4B42058   3.158   9.340   7.361
 3095POPC   NC342059   0.592  37.947   5.378
 3095POPC   PO442060   0.320  37.341   5.259
 3095POPC   GL142061   0.422  37.565   5.699
 3095POPC   GL242062   0.739  37.764   5.817
 3095POPC   C1A42063   0.235  37.769   6.079
 3095POPC   D2A42064   0.171  38.064   6.464
 3095POPC   C3A42065   0.114  37.889   6.885
 3095POPC   C4A42066   0.393  37.936   7.256
 3095POPC   C1B42067   0.723  37.514   6.167
 3095POPC   C2B42068   0.434  37.547   6.511
 3095POPC   C3B42069   0.528  37.576   6.925
 3095POPC   C4B42070   0.544  37.419   7.317
 3096POPC   NC342071   7.274  31.033   5.528
 3096POPC   PO442072   7.660  31.611   5.384
 3096POPC   GL142073   7.634  31.379   5.739
 3096POPC   GL242074   7.330  31.557   5.874
 3096POPC   C1A42075   7.691  31.375   6.176
 3096POPC   D2A42076   7.352  31.589   6.428
 3096POPC   C3A42077   7.381  31.733   6.843
 3096POPC   C4A42078   7.651  31.763   7.175
 3096POPC   C1B42079   7.232  31.164   6.147
 3096POPC   C2B42080   7.082  31.126   6.559
 3096POPC   C3B42081   7.094  30.971   6.962
 3096POPC   C4B42082   7.374  31.288   7.129
 3097POPC   NC342083  42.697  39.857   5.447
 3097POPC   PO442084  42.289  40.377   5.534
 3097POPC   GL142085  42.384  40.085   5.858
 3097POPC   GL242086  42.703  40.172   5.885
 3097POPC   C1A42087  42.516  39.887   6.263
 3097POPC   D2A42088  42.314  39.702   6.624
 3097POPC   C3A42089  42.102  40.002   6.830
 3097POPC   C4A42090  42.108  40.013   7.227
 3097POPC   C1B42091  42.583  40.399   6.238
 3097POPC   C2B42092  42.631  40.242   6.650
 3097POPC   C3B42093  42.593  40.000   7.032
 3097POPC   C4B42094  42.575  40.052   7.492
 3098POPC   NC342095  15.742  22.245   5.411
 3098POPC   PO442096  16.405  22.410   5.261
 3098POPC   GL142097  16.159  22.250   5.698
 3098POPC   GL242098  15.884  22.494   5.833
 3098POPC   C1A42099  16.264  22.160   6.147
 3098POPC   D2A42100  16.408  22.143   6.583
 3098POPC   C3A42101  16.270  22.417   6.917
 3098POPC   C4A42102  16.243  22.163   7.325
 3098POPC   C1B42103  15.784  22.066   6.045
 3098POPC   C2B42104  15.839  21.987   6.492
 3098POPC   C3B42105  15.973  22.010   6.914
 3098POPC   C4B42106  15.785  21.962   7.320
 3099POPC   NC342107  37.619  39.641   5.414
 3099POPC   PO442108  37.878  38.946   5.413
 3099POPC   GL142109  37.693  39.054   5.802
 3099POPC   GL242110  37.522  39.372   5.836
 3099POPC   C1A42111  37.622  39.045   6.237
 3099POPC   D2A42112  37.476  38.960   6.614
 3099POPC   C3A42113  37.627  39.204   6.916
 3099POPC   C4A42114  37.628  38.942   7.268
 3099POPC   C1B42115  37.901  39.447   6.124
 3099POPC   C2B42116  37.933  39.563   6.564
 3099POPC   C3B42117  38.022  39.578   7.002
 3099POPC   C4B42118  37.834  39.409   7.360
 3100POPC   NC342119  24.948  40.770   5.466
 3100POPC   PO442120  25.582  40.480   5.524
 3100POPC   GL142121  25.277  40.496   5.874
 3100POPC   GL242122  25.219  40.860   5.901
 3100POPC   C1A42123  25.298  40.630   6.341
 3100POPC   D2A42124  25.127  40.732   6.752
 3100POPC   C3A42125  25.379  40.891   7.108
 3100POPC   C4A42126  25.447  40.599   7.455
 3100POPC   C1B42127  24.898  40.943   6.258
 3100POPC   C2B42128  24.769  41.074   6.689
 3100POPC   C3B42129  24.852  41.035   7.165
 3100POPC   C4B42130  24.704  41.173   7.608
 3101POPC   NC342131   6.232  20.886   5.537
 3101POPC   PO442132   6.772  20.559   5.412
 3101POPC   GL142133   6.726  20.770   5.766
 3101POPC   GL242134   6.442  20.581   5.918
 3101POPC   C1A42135   6.846  20.749   6.201
 3101POPC   D2A42136   6.755  20.523   6.565
 3101POPC   C3A42137   7.013  20.553   6.934
 3101POPC   C4A42138   6.897  20.847   7.235
 3101POPC   C1B42139   6.160  20.380   6.245
 3101POPC   C2B42140   6.321  20.281   6.667
 3101POPC   C3B42141   6.479  20.561   6.996
 3101POPC   C4B42142   6.330  20.302   7.270
 3102POPC   NC342143  24.293  15.364   5.136
 3102POPC   PO442144  24.822  14.986   5.408
 3102POPC   GL142145  24.557  15.053   5.784
 3102POPC   GL242146  24.260  15.289   5.734
 3102POPC   C1A42147  24.499  14.941   6.247
 3102POPC   D2A42148  24.358  14.822   6.642
 3102POPC   C3A42149  24.491  15.094   6.955
 3102POPC   C4A42150  24.546  15.258   7.327
 3102POPC   C1B42151  24.072  15.192   6.172
 3102POPC   C2B42152  24.162  15.304   6.626
 3102POPC   C3B42153  24.047  15.287   7.107
 3102POPC   C4B42154  24.140  15.417   7.561
 3103POPC   NC342155  24.888  20.119   5.503
 3103POPC   PO442156  25.495  19.691   5.472
 3103POPC   GL142157  25.185  19.777   5.740
 3103POPC   GL242158  25.053  19.482   5.808
 3103POPC   C1A42159  25.153  19.997   6.122
 3103POPC   D2A42160  25.504  19.961   6.430
 3103POPC   C3A42161  25.451  19.975   6.890
 3103POPC   C4A42162  25.178  19.979   7.253
 3103POPC   C1B42163  25.321  19.500   6.186
 3103POPC   C2B42164  25.444  19.500   6.632
 3103POPC   C3B42165  25.266  19.490   7.017
 3103POPC   C4B42166  25.511  19.342   7.347
 3104POPC   NC342167  39.584  32.536   5.467
 3104POPC   PO442168  39.057  32.156   5.387
 3104POPC   GL142169  38.979  32.155   5.816
 3104POPC   GL242170  38.822  31.854   5.934
 3104POPC   C1A42171  39.251  32.263   6.181
 3104POPC   D2A42172  39.358  32.128   6.599
 3104POPC   C3A42173  39.187  32.311   6.967
 3104POPC   C4A42174  39.422  32.359   7.354
 3104POPC   C1B42175  38.961  31.862   6.352
 3104POPC   C2B42176  38.985  31.837   6.803
 3104POPC   C3B42177  38.944  31.908   7.232
 3104POPC   C4B42178  39.138  32.016   7.625
 3105POPC   NC342179  27.456  12.513   5.240
 3105POPC   PO442180  27.490  13.173   5.250
 3105POPC   GL142181  27.630  13.000   5.684
 3105POPC   GL242182  27.490  12.675   5.708
 3105POPC   C1A42183  27.669  13.045   6.170
 3105POPC   D2A42184  27.787  12.940   6.616
 3105POPC   C3A42185  27.553  13.085   6.959
 3105POPC   C4A42186  27.556  13.092   7.388
 3105POPC   C1B42187  27.693  12.527   6.059
 3105POPC   C2B42188  27.554  12.489   6.455
 3105POPC   C3B42189  27.459  12.573   6.863
 3105POPC   C4B42190  27.724  12.653   7.209
 3106POPC   NC342191  12.515  17.691   5.364
 3106POPC   PO442192  12.102  17.183   5.348
 3106POPC   GL142193  12.025  17.447   5.695
 3106POPC   GL242194  12.194  17.721   5.776
 3106POPC   C1A42195  12.115  17.345   6.122
 3106POPC   D2A42196  11.996  17.139   6.490
 3106POPC   C3A42197  12.186  17.200   6.876
 3106POPC   C4A42198  11.931  17.476   7.098
 3106POPC   C1B42199  12.031  17.830   6.234
 3106POPC   C2B42200  12.066  17.762   6.705
 3106POPC   C3B42201  12.094  17.991   7.137
 3106POPC   C4B42202  12.139  18.194   7.555
 3107POPC   NC342203  29.197  26.704   5.301
 3107POPC   PO442204  29.186  27.437   5.314
 3107POPC   GL142205  29.145  27.109   5.711
 3107POPC   GL242206  29.138  26.724   5.789
 3107POPC   C1A42207  29.165  27.102   6.204
 3107POPC   D2A42208  29.236  27.266   6.658
 3107POPC   C3A42209  29.178  27.159   7.106
 3107POPC   C4A42210  28.802  26.967   7.285
 3107POPC   C1B42211  29.341  26.626   6.149
 3107POPC   C2B42212  29.362  26.776   6.583
 3107POPC   C3B42213  29.302  26.671   7.009
 3107POPC   C4B42214  28.974  26.475   7.225
 3108POPC   NC342215  31.585  11.938   5.213
 3108POPC   PO442216  31.305  12.520   5.192
 3108POPC   GL142217  31.457  12.281   5.614
 3108POPC   GL242218  31.411  11.905   5.714
 3108POPC   C1A42219  31.615  12.240   6.076
 3108POPC   D2A42220  31.402  12.149   6.512
 3108POPC   C3A42221  31.525  12.067   6.940
 3108POPC   C4A42222  31.410  12.385   7.230
 3108POPC   C1B42223  31.580  11.729   6.121
 3108POPC   C2B42224  31.731  11.768   6.554
 3108POPC   C3B42225  31.771  11.582   6.976
 3108POPC   C4B42226  31.852  11.764   7.409
 3109POPC   NC342227  39.984  42.589   5.419
 3109POPC   PO442228  40.324  42.085   5.447
 3109POPC   GL142229  40.010  42.164   5.798
 3109POPC   GL242230  39.662  42.369   5.767
 3109POPC   C1A42231  40.024  42.103   6.255
 3109POPC   D2A42232  40.177  42.174   6.654
 3109POPC   C3A42233  40.024  41.979   7.034
 3109POPC   C4A42234  40.282  42.169   7.326
 3109POPC   C1B42235  39.873  42.567   6.097
 3109POPC   C2B42236  39.961  42.615   6.531
 3109POPC   C3B42237  39.923  42.499   6.995
 3109POPC   C4B42238  39.677  42.689   7.328
 3110POPC   NC342239  36.683   5.029   5.412
 3110POPC   PO442240  37.244   5.310   5.277
 3110POPC   GL142241  37.106   5.300   5.740
 3110POPC   GL242242  36.743   5.431   5.764
 3110POPC   C1A42243  37.100   4.994   6.115
 3110POPC   D2A42244  36.871   4.921   6.536
 3110POPC   C3A42245  37.093   4.917   6.947
 3110POPC   C4A42246  36.872   4.971   7.352
 3110POPC   C1B42247  36.648   5.232   6.160
 3110POPC   C2B42248  36.644   5.414   6.585
 3110POPC   C3B42249  36.651   5.311   7.042
 3110POPC   C4B42250  36.741   5.448   7.498
 3111POPC   NC342251  24.976  28.178   5.599
 3111POPC   PO442252  25.344  28.701   5.392
 3111POPC   GL142253  25.349  28.537   5.796
 3111POPC   GL242254  25.025  28.643   5.835
 3111POPC   C1A42255  25.298  28.377   6.229
 3111POPC   D2A42256  25.326  28.407   6.694
 3111POPC   C3A42257  25.199  28.085   6.998
 3111POPC   C4A42258  25.214  28.090   7.448
 3111POPC   C1B42259  24.743  28.790   6.121
 3111POPC   C2B42260  24.913  28.651   6.472
 3111POPC   C3B42261  24.893  28.665   6.872
 3111POPC   C4B42262  24.835  28.389   7.212
 3112POPC   NC342263  40.570  11.851   5.508
 3112POPC   PO442264  41.003  12.416   5.330
 3112POPC   GL142265  40.768  12.275   5.698
 3112POPC   GL242266  40.999  12.007   5.782
 3112POPC   C1A42267  40.662  12.125   6.149
 3112POPC   D2A42268  40.876  11.990   6.545
 3112POPC   C3A42269  40.568  12.059   6.853
 3112POPC   C4A42270  40.599  12.099   7.266
 3112POPC   C1B42271  40.934  11.708   6.090
 3112POPC   C2B42272  40.589  11.610   6.358
 3112POPC   C3B42273  40.650  11.563   6.802
 3112POPC   C4B42274  40.826  11.649   7.214
 3113POPC   NC342275  10.478  19.746   4.773
 3113POPC   PO442276  10.348  19.835   5.439
 3113POPC   GL142277  10.421  19.604   5.785
 3113POPC   GL242278  10.645  19.840   5.885
 3113POPC   C1A42279  10.275  19.630   6.219
 3113POPC   D2A42280  10.584  19.576   6.541
 3113POPC   C3A42281  10.505  19.567   6.955
 3113POPC   C4A42282  10.371  19.842   7.231
 3113POPC   C1B42283  10.599  20.038   6.284
 3113POPC   C2B42284  10.815  20.009   6.674
 3113POPC   C3B42285  10.550  20.213   6.925
 3113POPC   C4B42286  10.537  20.376   7.325
 3114POPC   NC342287  17.232   5.993   5.417
 3114POPC   PO442288  17.881   5.822   5.541
 3114POPC   GL142289  17.685   5.936   5.889
 3114POPC   GL242290  17.708   6.255   5.884
 3114POPC   C1A42291  17.448   5.855   6.239
 3114POPC   D2A42292  17.395   5.550   6.577
 3114POPC   C3A42293  17.182   5.652   6.976
 3114POPC   C4A42294  17.400   5.709   7.415
 3114POPC   C1B42295  17.768   6.289   6.326
 3114POPC   C2B42296  17.701   5.984   6.659
 3114POPC   C3B42297  17.480   6.047   7.044
 3114POPC   C4B42298  17.591   6.259   7.412
 3115POPC   NC342299  39.022  34.072   5.719
 3115POPC   PO442300  39.396  34.465   5.254
 3115POPC   GL142301  39.281  34.523   5.707
 3115POPC   GL242302  39.002  34.765   5.801
 3115POPC   C1A42303  39.306  34.552   6.169
 3115POPC   D2A42304  39.590  34.510   6.507
 3115POPC   C3A42305  39.614  34.674   6.911
 3115POPC   C4A42306  39.458  34.526   7.340
 3115POPC   C1B42307  38.799  34.669   6.190
 3115POPC   C2B42308  38.583  34.624   6.574
 3115POPC   C3B42309  38.709  34.484   6.965
 3115POPC   C4B42310  38.969  34.552   7.273
 3116POPC   NC342311   2.835  17.626   5.585
 3116POPC   PO442312   2.213  17.472   5.397
 3116POPC   GL142313   2.436  17.301   5.736
 3116POPC   GL242314   2.416  17.606   5.964
 3116POPC   C1A42315   2.604  17.187   6.161
 3116POPC   D2A42316   2.428  17.417   6.520
 3116POPC   C3A42317   2.650  17.492   6.929
 3116POPC   C4A42318   2.821  17.345   7.334
 3116POPC   C1B42319   2.788  17.723   6.230
 3116POPC   C2B42320   3.042  17.976   6.528
 3116POPC   C3B42321   3.106  17.803   6.935
 3116POPC   C4B42322   2.849  17.845   7.269
 3117POPC   NC342323  19.806  16.143   5.322
 3117POPC   PO442324  19.758  16.781   5.083
 3117POPC   GL142325  19.692  16.662   5.548
 3117POPC   GL242326  19.959  16.535   5.714
 3117POPC   C1A42327  19.579  16.763   6.001
 3117POPC   D2A42328  19.413  16.844   6.444
 3117POPC   C3A42329  19.646  16.801   6.854
 3117POPC   C4A42330  19.873  16.729   7.250
 3117POPC   C1B42331  20.032  16.352   6.119
 3117POPC   C2B42332  19.945  16.485   6.547
 3117POPC   C3B42333  20.192  16.357   6.926
 3117POPC   C4B42334  20.172  16.328   7.375
 3118POPC   NC342335  35.687  23.255   5.323
 3118POPC   PO442336  35.167  23.709   5.342
 3118POPC   GL142337  35.161  23.585   5.780
 3118POPC   GL242338  35.527  23.660   5.754
 3118POPC   C1A42339  35.058  23.660   6.237
 3118POPC   D2A42340  35.316  23.829   6.577
 3118POPC   C3A42341  35.156  23.877   7.011
 3118POPC   C4A42342  34.999  23.607   7.316
 3118POPC   C1B42343  35.642  23.846   6.155
 3118POPC   C2B42344  35.821  23.745   6.568
 3118POPC   C3B42345  35.594  23.622   6.949
 3118POPC   C4B42346  35.713  23.997   7.133
 3119POPC   NC342347  40.075   9.205   5.337
 3119POPC   PO442348  39.849   8.633   5.356
 3119POPC   GL142349  39.837   8.864   5.790
 3119POPC   GL242350  39.867   9.234   5.822
 3119POPC   C1A42351  39.965   8.915   6.247
 3119POPC   D2A42352  40.093   9.101   6.656
 3119POPC   C3A42353  40.248   8.870   7.024
 3119POPC   C4A42354  40.468   9.081   7.384
 3119POPC   C1B42355  39.568   9.224   6.153
 3119POPC   C2B42356  39.563   9.068   6.582
 3119POPC   C3B42357  39.729   8.976   6.997
 3119POPC   C4B42358  40.023   9.307   7.173
 3120POPC   NC342359  28.914  24.564   5.359
 3120POPC   PO442360  29.212  25.215   5.463
 3120POPC   GL142361  29.081  25.180   5.861
 3120POPC   GL242362  28.787  24.998   5.795
 3120POPC   C1A42363  29.328  25.172   6.220
 3120POPC   D2A42364  29.371  25.375   6.589
 3120POPC   C3A42365  29.480  25.131   6.894
 3120POPC   C4A42366  29.367  25.009   7.275
 3120POPC   C1B42367  28.735  25.098   6.243
 3120POPC   C2B42368  28.970  25.064   6.627
 3120POPC   C3B42369  28.909  25.075   7.058
 3120POPC   C4B42370  28.938  24.675   7.259
 3121POPC   NC342371  12.719   6.170   5.381
 3121POPC   PO442372  13.095   5.472   5.212
 3121POPC   GL142373  12.912   5.518   5.698
 3121POPC   GL242374  12.850   5.873   5.766
 3121POPC   C1A42375  12.663   5.643   6.144
 3121POPC   D2A42376  12.579   5.890   6.532
 3121POPC   C3A42377  12.718   5.733   6.931
 3121POPC   C4A42378  12.568   5.488   7.248
 3121POPC   C1B42379  13.009   6.046   6.209
 3121POPC   C2B42380  13.037   6.079   6.667
 3121POPC   C3B42381  12.834   6.208   7.066
 3121POPC   C4B42382  13.047   6.171   7.436
 3122POPC   NC342383  10.221  43.008   5.430
 3122POPC   PO442384  10.337  43.656   5.612
 3122POPC   GL142385  10.551  43.320   5.844
 3122POPC   GL242386  10.515  42.936   5.823
 3122POPC   C1A42387  10.484  43.175   6.264
 3122POPC   D2A42388  10.251  43.041   6.613
 3122POPC   C3A42389  10.382  43.150   7.004
 3122POPC   C4A42390  10.432  43.554   7.229
 3122POPC   C1B42391  10.658  42.686   6.165
 3122POPC   C2B42392  10.734  42.821   6.587
 3122POPC   C3B42393  10.805  42.699   6.994
 3122POPC   C4B42394  10.555  42.757   7.332
 3123POPC   NC342395  27.578   5.511   5.487
 3123POPC   PO442396  27.857   6.058   5.257
 3123POPC   GL142397  27.871   6.078   5.751
 3123POPC   GL242398  27.556   6.208   5.851
 3123POPC   C1A42399  28.037   5.836   6.148
 3123POPC   D2A42400  27.896   5.877   6.605
 3123POPC   C3A42401  27.717   5.661   6.954
 3123POPC   C4A42402  27.314   5.804   7.137
 3123POPC   C1B42403  27.756   6.273   6.271
 3123POPC   C2B42404  27.627   6.360   6.708
 3123POPC   C3B42405  27.721   6.168   7.102
 3123POPC   C4B42406  27.590   6.174   7.538
 3124POPC   NC342407  36.950  13.954   5.131
 3124POPC   PO442408  36.819  14.550   5.426
 3124POPC   GL142409  36.963  14.386   5.796
 3124POPC   GL242410  37.072  14.681   5.924
 3124POPC   C1A42411  36.923  14.320   6.257
 3124POPC   D2A42412  36.848  14.651   6.593
 3124POPC   C3A42413  36.745  14.487   7.012
 3124POPC   C4A42414  36.869  14.100   7.267
 3124POPC   C1B42415  37.324  14.676   6.295
 3124POPC   C2B42416  37.540  14.725   6.678
 3124POPC   C3B42417  37.223  14.719   6.966
 3124POPC   C4B42418  37.146  14.570   7.335
 3125POPC   NC342419   6.260  12.350   5.644
 3125POPC   PO442420   5.781  12.810   5.405
 3125POPC   GL142421   5.960  12.781   5.831
 3125POPC   GL242422   5.890  13.121   5.855
 3125POPC   C1A42423   5.964  12.620   6.301
 3125POPC   D2A42424   5.802  12.823   6.692
 3125POPC   C3A42425   6.005  12.879   7.092
 3125POPC   C4A42426   5.945  12.818   7.575
 3125POPC   C1B42427   5.692  13.045   6.229
 3125POPC   C2B42428   5.475  13.260   6.545
 3125POPC   C3B42429   5.600  13.222   6.959
 3125POPC   C4B42430   5.556  13.017   7.317
 3126POPC   NC342431  10.596   5.708   5.353
 3126POPC   PO442432  10.661   6.414   5.459
 3126POPC   GL142433  10.539   6.051   5.790
 3126POPC   GL242434  10.402   5.693   5.816
 3126POPC   C1A42435  10.664   5.934   6.227
 3126POPC   D2A42436  10.617   5.676   6.608
 3126POPC   C3A42437  10.679   5.857   7.038
 3126POPC   C4A42438  10.473   6.031   7.424
 3126POPC   C1B42439  10.225   5.610   6.225
 3126POPC   C2B42440  10.126   5.506   6.654
 3126POPC   C3B42441  10.171   5.705   7.091
 3126POPC   C4B42442  10.071   5.752   7.554
 3127POPC   NC342443  12.761  37.113   5.467
 3127POPC   PO442444  12.026  36.981   5.293
 3127POPC   GL142445  11.924  36.972   5.731
 3127POPC   GL242446  12.205  37.129   5.880
 3127POPC   C1A42447  11.793  36.933   6.173
 3127POPC   D2A42448  11.673  37.071   6.593
 3127POPC   C3A42449  11.939  36.858   6.877
 3127POPC   C4A42450  12.198  36.675   7.167
 3127POPC   C1B42451  12.370  37.047   6.301
 3127POPC   C2B42452  12.453  36.973   6.744
 3127POPC   C3B42453  12.464  37.094   7.168
 3127POPC   C4B42454  12.390  37.042   7.631
 3128POPC   NC342455   7.219  36.363   5.434
 3128POPC   PO442456   7.816  36.206   5.699
 3128POPC   GL142457   7.516  36.286   6.024
 3128POPC   GL242458   7.203  36.391   5.951
 3128POPC   C1A42459   7.375  36.080   6.420
 3128POPC   D2A42460   7.111  35.949   6.773
 3128POPC   C3A42461   7.358  36.065   7.092
 3128POPC   C4A42462   7.705  35.814   7.145
 3128POPC   C1B42463   7.218  36.576   6.349
 3128POPC   C2B42464   7.112  36.466   6.743
 3128POPC   C3B42465   7.261  36.584   7.123
 3128POPC   C4B42466   7.638  36.643   7.316
 3129POPC   NC342467  26.574   8.670   5.475
 3129POPC   PO442468  27.016   9.147   5.476
 3129POPC   GL142469  26.858   9.210   5.868
 3129POPC   GL242470  26.542   9.035   5.825
 3129POPC   C1A42471  27.018   9.170   6.288
 3129POPC   D2A42472  26.831   9.098   6.683
 3129POPC   C3A42473  26.950   9.046   7.094
 3129POPC   C4A42474  26.817   9.354   7.384
 3129POPC   C1B42475  26.564   8.918   6.255
 3129POPC   C2B42476  26.343   9.105   6.588
 3129POPC   C3B42477  26.442   9.237   7.008
 3129POPC   C4B42478  26.494   8.949   7.347
 3130POPC   NC342479  17.567   7.020   5.489
 3130POPC   PO442480  17.504   6.366   5.412
 3130POPC   GL142481  17.324   6.590   5.749
 3130POPC   GL242482  17.616   6.753   5.911
 3130POPC   C1A42483  17.274   6.381   6.143
 3130POPC   D2A42484  17.262   6.222   6.564
 3130POPC   C3A42485  17.563   6.477   6.795
 3130POPC   C4A42486  17.452   6.725   7.134
 3130POPC   C1B42487  17.836   6.820   6.288
 3130POPC   C2B42488  18.032   6.640   6.630
 3130POPC   C3B42489  17.950   6.758   7.033
 3130POPC   C4B42490  17.839   6.716   7.441
 3131POPC   NC342491  24.008   3.666   5.538
 3131POPC   PO442492  23.451   3.253   5.438
 3131POPC   GL142493  23.604   3.435   5.824
 3131POPC   GL242494  23.568   3.770   5.802
 3131POPC   C1A42495  23.889   3.558   6.181
 3131POPC   D2A42496  23.999   3.494   6.604
 3131POPC   C3A42497  23.672   3.474   6.921
 3131POPC   C4A42498  23.824   3.407   7.334
 3131POPC   C1B42499  23.531   3.914   6.252
 3131POPC   C2B42500  23.722   3.923   6.683
 3131POPC   C3B42501  23.505   3.952   7.078
 3131POPC   C4B42502  23.310   3.856   7.476
 3132POPC   NC342503  14.547  17.649   5.399
 3132POPC   PO442504  15.080  17.890   5.602
 3132POPC   GL142505  14.684  17.669   5.892
 3132POPC   GL242506  14.268  17.625   5.852
 3132POPC   C1A42507  14.474  17.571   6.315
 3132POPC   D2A42508  14.337  17.298   6.652
 3132POPC   C3A42509  14.506  17.348   7.063
 3132POPC   C4A42510  14.397  17.347   7.479
 3132POPC   C1B42511  14.088  17.891   6.211
 3132POPC   C2B42512  14.039  17.760   6.632
 3132POPC   C3B42513  14.339  17.851   6.969
 3132POPC   C4B42514  14.701  17.775   7.253
 3133POPC   NC342515  12.447   5.381   5.439
 3133POPC   PO442516  11.825   5.181   5.594
 3133POPC   GL142517  12.204   5.120   5.831
 3133POPC   GL242518  12.332   4.773   5.801
 3133POPC   C1A42519  12.290   5.295   6.241
 3133POPC   D2A42520  12.404   5.422   6.647
 3133POPC   C3A42521  12.217   5.208   6.975
 3133POPC   C4A42522  11.807   4.999   7.112
 3133POPC   C1B42523  12.191   4.778   6.234
 3133POPC   C2B42524  12.034   4.802   6.661
 3133POPC   C3B42525  12.203   4.703   7.055
 3133POPC   C4B42526  12.264   4.661   7.496
 3134POPC   NC342527  16.020  25.630   5.382
 3134POPC   PO442528  15.714  25.029   5.331
 3134POPC   GL142529  15.722  25.139   5.784
 3134POPC   GL242530  15.674  25.480   5.750
 3134POPC   C1A42531  15.803  25.149   6.263
 3134POPC   D2A42532  15.658  25.138   6.719
 3134POPC   C3A42533  15.978  25.057   7.046
 3134POPC   C4A42534  16.316  25.196   7.343
 3134POPC   C1B42535  15.531  25.557   6.147
 3134POPC   C2B42536  15.670  25.624   6.574
 3134POPC   C3B42537  15.933  25.583   6.945
 3134POPC   C4B42538  15.867  25.449   7.353
 3135POPC   NC342539  34.477   3.776   5.314
 3135POPC   PO442540  34.278   3.097   5.422
 3135POPC   GL142541  34.301   3.460   5.699
 3135POPC   GL242542  34.644   3.436   5.780
 3135POPC   C1A42543  34.365   3.688   6.109
 3135POPC   D2A42544  34.162   3.771   6.498
 3135POPC   C3A42545  34.446   3.813   6.823
 3135POPC   C4A42546  34.416   3.679   7.239
 3135POPC   C1B42547  34.847   3.529   6.190
 3135POPC   C2B42548  34.925   3.650   6.631
 3135POPC   C3B42549  34.795   3.432   7.001
 3135POPC   C4B42550  34.915   3.273   7.425
 3136POPC   NC342551  26.713   1.081   5.319
 3136POPC   PO442552  27.231   1.407   5.509
 3136POPC   GL142553  27.142   1.137   5.851
 3136POPC   GL242554  26.770   1.153   5.849
 3136POPC   C1A42555  27.074   1.021   6.270
 3136POPC   D2A42556  26.821   1.265   6.557
 3136POPC   C3A42557  26.919   1.240   7.007
 3136POPC   C4A42558  27.121   0.917   7.257
 3136POPC   C1B42559  26.754   1.559   6.041
 3136POPC   C2B42560  26.742   1.771   6.429
 3136POPC   C3B42561  26.616   1.636   6.840
 3136POPC   C4B42562  26.466   1.476   7.222
 3137POPC   NC342563  27.964   7.564   5.227
 3137POPC   PO442564  27.573   7.016   5.288
 3137POPC   GL142565  27.750   7.147   5.717
 3137POPC   GL242566  27.734   7.522   5.780
 3137POPC   C1A42567  27.645   7.208   6.170
 3137POPC   D2A42568  27.823   7.252   6.576
 3137POPC   C3A42569  27.499   7.254   6.923
 3137POPC   C4A42570  27.417   6.990   7.288
 3137POPC   C1B42571  27.776   7.779   6.179
 3137POPC   C2B42572  27.873   7.795   6.634
 3137POPC   C3B42573  27.838   7.721   7.079
 3137POPC   C4B42574  27.577   7.521   7.388
 3138POPC   NC342575   6.122  40.980   5.662
 3138POPC   PO442576   5.554  40.527   5.690
 3138POPC   GL142577   5.460  40.736   6.040
 3138POPC   GL242578   5.578  41.051   5.984
 3138POPC   C1A42579   5.656  40.627   6.423
 3138POPC   D2A42580   5.976  40.355   6.596
 3138POPC   C3A42581   6.084  40.540   6.988
 3138POPC   C4A42582   5.720  40.608   7.265
 3138POPC   C1B42583   5.542  41.126   6.421
 3138POPC   C2B42584   5.600  40.941   6.853
 3138POPC   C3B42585   5.742  41.201   7.211
 3138POPC   C4B42586   5.589  41.237   7.634
 3139POPC   NC342587  39.849  10.864   5.468
 3139POPC   PO442588  40.264  10.503   5.189
 3139POPC   GL142589  40.175  10.513   5.687
 3139POPC   GL242590  40.385  10.772   5.823
 3139POPC   C1A42591  39.940  10.368   6.095
 3139POPC   D2A42592  39.746  10.534   6.510
 3139POPC   C3A42593  39.901  10.331   6.902
 3139POPC   C4A42594  40.050  10.255   7.318
 3139POPC   C1B42595  40.263  10.702   6.279
 3139POPC   C2B42596  40.177  10.755   6.715
 3139POPC   C3B42597  40.300  10.653   7.142
 3139POPC   C4B42598  40.273  10.608   7.611
 3140POPC   NC342599  26.152  22.302   5.466
 3140POPC   PO442600  25.488  22.162   5.351
 3140POPC   GL142601  25.726  22.164   5.761
 3140POPC   GL242602  25.804  21.826   5.822
 3140POPC   C1A42603  25.899  22.206   6.202
 3140POPC   D2A42604  25.776  22.139   6.643
 3140POPC   C3A42605  25.999  22.130   7.025
 3140POPC   C4A42606  25.769  22.097   7.419
 3140POPC   C1B42607  26.057  21.724   6.199
 3140POPC   C2B42608  26.261  21.924   6.556
 3140POPC   C3B42609  26.446  21.825   6.965
 3140POPC   C4B42610  26.251  21.821   7.374
 3141POPC   NC342611  27.374   7.404   5.444
 3141POPC   PO442612  26.668   7.378   5.512
 3141POPC   GL142613  26.824   7.220   5.878
 3141POPC   GL242614  26.506   7.063   5.999
 3141POPC   C1A42615  27.090   7.329   6.264
 3141POPC   D2A42616  26.991   7.142   6.680
 3141POPC   C3A42617  26.874   7.463   6.986
 3141POPC   C4A42618  27.217   7.721   7.103
 3141POPC   C1B42619  26.573   7.399   6.307
 3141POPC   C2B42620  26.363   7.485   6.709
 3141POPC   C3B42621  26.407   7.243   7.076
 3141POPC   C4B42622  26.585   7.294   7.459
 3142POPC   NC342623  44.510   0.051   5.534
 3142POPC   PO442624  44.749   0.714   5.407
 3142POPC   GL142625  44.721   0.484   5.745
 3142POPC   GL242626  44.495   0.710   5.879
 3142POPC   C1A42627  44.804   0.416   6.171
 3142POPC   D2A42628  44.911   0.255   6.569
 3142POPC   C3A42629  44.821   0.484   6.920
 3142POPC   C4A42630  44.690   0.326   7.326
 3142POPC   C1B42631  44.305   0.364   6.114
 3142POPC   C2B42632  44.436   0.462   6.530
 3142POPC   C3B42633  44.355   0.293   6.910
 3142POPC   C4B42634  44.230   0.487   7.241
 3143POPC   NC342635  37.886  37.730   5.369
 3143POPC   PO442636  37.298  37.307   5.530
 3143POPC   GL142637  37.608  37.519   5.759
 3143POPC   GL242638  37.486  37.781   5.931
 3143POPC   C1A42639  37.750  37.456   6.189
 3143POPC   D2A42640  37.585  37.629   6.561
 3143POPC   C3A42641  37.837  37.610   6.917
 3143POPC   C4A42642  37.951  37.330   7.245
 3143POPC   C1B42643  37.193  37.910   6.252
 3143POPC   C2B42644  37.231  37.989   6.681
 3143POPC   C3B42645  37.310  37.956   7.111
 3143POPC   C4B42646  37.603  37.719   7.344
 3144POPC   NC342647   7.146  10.063   5.508
 3144POPC   PO442648   7.765   9.713   5.299
 3144POPC   GL142649   7.668   9.669   5.737
 3144POPC   GL242650   7.301   9.662   5.801
 3144POPC   C1A42651   7.663   9.789   6.172
 3144POPC   D2A42652   7.667   9.966   6.579
 3144POPC   C3A42653   7.354   9.855   6.869
 3144POPC   C4A42654   7.510   9.647   7.221
 3144POPC   C1B42655   7.176   9.447   6.185
 3144POPC   C2B42656   7.316   9.400   6.633
 3144POPC   C3B42657   7.086   9.419   7.057
 3144POPC   C4B42658   7.012   9.424   7.527
 3145POPC   NC342659  42.676  27.338   5.387
 3145POPC   PO442660  42.187  27.832   5.260
 3145POPC   GL142661  42.233  27.645   5.680
 3145POPC   GL242662  42.581  27.692   5.753
 3145POPC   C1A42663  42.146  27.655   6.139
 3145POPC   D2A42664  42.230  27.541   6.576
 3145POPC   C3A42665  42.219  27.849   6.913
 3145POPC   C4A42666  42.305  27.700   7.313
 3145POPC   C1B42667  42.658  27.449   6.121
 3145POPC   C2B42668  42.750  27.429   6.556
 3145POPC   C3B42669  42.661  27.560   6.971
 3145POPC   C4B42670  42.804  27.557   7.409
 3146POPC   NC342671  20.763  13.582   5.379
 3146POPC   PO442672  20.210  14.018   5.351
 3146POPC   GL142673  20.467  13.839   5.730
 3146POPC   GL242674  20.435  13.494   5.784
 3146POPC   C1A42675  20.701  13.729   6.151
 3146POPC   D2A42676  20.828  13.912   6.555
 3146POPC   C3A42677  20.869  13.687   6.930
 3146POPC   C4A42678  20.675  13.622   7.299
 3146POPC   C1B42679  20.331  13.381   6.191
 3146POPC   C2B42680  20.413  13.573   6.581
 3146POPC   C3B42681  20.419  13.355   6.942
 3146POPC   C4B42682  20.211  13.361   7.330
 3147POPC   NC342683  31.593   6.393   5.303
 3147POPC   PO442684  31.332   5.798   5.164
 3147POPC   GL142685  31.419   5.798   5.681
 3147POPC   GL242686  31.325   6.114   5.821
 3147POPC   C1A42687  31.514   5.731   6.171
 3147POPC   D2A42688  31.738   5.592   6.562
 3147POPC   C3A42689  31.727   5.817   6.968
 3147POPC   C4A42690  31.535   5.746   7.378
 3147POPC   C1B42691  31.338   6.216   6.256
 3147POPC   C2B42692  31.335   5.976   6.631
 3147POPC   C3B42693  31.241   6.039   7.047
 3147POPC   C4B42694  30.991   6.386   7.197
 3148POPC   NC342695  37.441  42.795   5.476
 3148POPC   PO442696  38.054  42.950   5.515
 3148POPC   GL142697  37.732  43.137   5.803
 3148POPC   GL242698  37.504  42.888   5.968
 3148POPC   C1A42699  37.723  43.298   6.240
 3148POPC   D2A42700  37.625  43.082   6.621
 3148POPC   C3A42701  37.639  43.284   7.008
 3148POPC   C4A42702  37.369  43.038   7.248
 3148POPC   C1B42703  37.832  42.768   6.248
 3148POPC   C2B42704  37.826  42.581   6.659
 3148POPC   C3B42705  37.847  42.799   7.036
 3148POPC   C4B42706  37.857  42.991   7.429
 3149POPC   NC342707  22.091  22.337   5.135
 3149POPC   PO442708  21.645  21.966   5.452
 3149POPC   GL142709  21.952  22.103   5.723
 3149POPC   GL242710  21.848  22.431   5.715
 3149POPC   C1A42711  22.191  21.963   6.130
 3149POPC   D2A42712  22.400  21.926   6.556
 3149POPC   C3A42713  22.187  21.914   6.954
 3149POPC   C4A42714  21.846  21.874   7.292
 3149POPC   C1B42715  22.117  22.491   6.070
 3149POPC   C2B42716  22.390  22.440   6.446
 3149POPC   C3B42717  22.181  22.419   6.854
 3149POPC   C4B42718  22.104  22.315   7.288
 3150POPC   NC342719  27.110  25.671   5.508
 3150POPC   PO442720  26.920  26.334   5.492
 3150POPC   GL142721  26.887  26.077   5.832
 3150POPC   GL242722  26.524  26.075   5.821
 3150POPC   C1A42723  26.857  26.034   6.296
 3150POPC   D2A42724  27.157  25.999   6.647
 3150POPC   C3A42725  27.020  25.795   7.031
 3150POPC   C4A42726  27.077  25.951   7.444
 3150POPC   C1B42727  26.614  26.446   6.077
 3150POPC   C2B42728  26.542  26.400   6.483
 3150POPC   C3B42729  26.676  26.147   6.797
 3150POPC   C4B42730  26.653  26.145   7.222
 3151POPC   NC342731  10.895  40.418   5.165
 3151POPC   PO442732  10.466  40.802   5.369
 3151POPC   GL142733  10.481  40.621   5.792
 3151POPC   GL242734  10.654  40.331   5.739
 3151POPC   C1A42735  10.504  40.802   6.198
 3151POPC   D2A42736  10.318  40.720   6.572
 3151POPC   C3A42737  10.420  40.849   6.976
 3151POPC   C4A42738  10.082  40.947   7.243
 3151POPC   C1B42739  10.795  40.350   6.165
 3151POPC   C2B42740  10.780  40.531   6.583
 3151POPC   C3B42741  10.908  40.665   6.999
 3151POPC   C4B42742  10.814  40.464   7.400
 3152POPC   NC342743  38.643  16.125   5.588
 3152POPC   PO442744  38.237  16.461   5.155
 3152POPC   GL142745  38.328  16.538   5.680
 3152POPC   GL242746  38.704  16.553   5.837
 3152POPC   C1A42747  38.381  16.832   6.100
 3152POPC   D2A42748  38.554  16.922   6.543
 3152POPC   C3A42749  38.418  16.747   6.980
 3152POPC   C4A42750  38.284  16.906   7.380
 3152POPC   C1B42751  38.892  16.870   6.135
 3152POPC   C2B42752  39.048  16.977   6.541
 3152POPC   C3B42753  38.923  16.927   6.956
 3152POPC   C4B42754  38.790  16.797   7.385
 3153POPC   NC342755   2.672  28.766   5.156
 3153POPC   PO442756   3.030  28.227   5.257
 3153POPC   GL142757   3.020  28.232   5.764
 3153POPC   GL242758   2.709  28.259   5.950
 3153POPC   C1A42759   3.073  28.222   6.274
 3153POPC   D2A42760   2.806  28.514   6.565
 3153POPC   C3A42761   2.930  28.575   7.003
 3153POPC   C4A42762   3.098  28.679   7.399
 3153POPC   C1B42763   2.422  28.472   6.217
 3153POPC   C2B42764   2.291  28.647   6.616
 3153POPC   C3B42765   2.404  28.451   7.015
 3153POPC   C4B42766   2.686  28.250   7.317
 3154POPC   NC342767  29.381  30.258   5.614
 3154POPC   PO442768  28.872  30.615   5.354
 3154POPC   GL142769  28.971  30.632   5.752
 3154POPC   GL242770  29.259  30.806   5.677
 3154POPC   C1A42771  28.824  30.567   6.190
 3154POPC   D2A42772  28.775  30.595   6.635
 3154POPC   C3A42773  29.092  30.410   6.888
 3154POPC   C4A42774  29.229  30.479   7.296
 3154POPC   C1B42775  29.164  30.950   6.096
 3154POPC   C2B42776  29.254  30.771   6.483
 3154POPC   C3B42777  29.182  30.907   6.867
 3154POPC   C4B42778  29.033  30.998   7.221
 3155POPC   NC342779  34.685  41.355   5.410
 3155POPC   PO442780  34.590  42.033   5.396
 3155POPC   GL142781  34.610  41.728   5.776
 3155POPC   GL242782  34.590  41.365   5.924
 3155POPC   C1A42783  34.321  41.812   6.096
 3155POPC   D2A42784  34.216  41.937   6.502
 3155POPC   C3A42785  34.431  41.780   6.850
 3155POPC   C4A42786  34.320  41.584   7.232
 3155POPC   C1B42787  34.745  41.538   6.334
 3155POPC   C2B42788  34.833  41.471   6.788
 3155POPC   C3B42789  34.651  41.217   7.109
 3155POPC   C4B42790  34.529  41.186   7.558
 3156POPC   NC342791  43.941  38.177   5.447
 3156POPC   PO442792  43.508  38.648   5.294
 3156POPC   GL142793  43.615  38.567   5.736
 3156POPC   GL242794  43.532  38.254   5.794
 3156POPC   C1A42795  43.761  38.669   6.180
 3156POPC   D2A42796  44.118  38.713   6.493
 3156POPC   C3A42797  44.144  38.413   6.868
 3156POPC   C4A42798  44.081  38.422   7.339
 3156POPC   C1B42799  43.615  38.173   6.215
 3156POPC   C2B42800  43.660  38.399   6.611
 3156POPC   C3B42801  43.677  38.185   7.009
 3156POPC   C4B42802  43.682  38.145   7.447
 3157POPC   NC342803  44.834  16.804   5.443
 3157POPC   PO442804  44.399  17.333   5.502
 3157POPC   GL142805  44.637  17.084   5.862
 3157POPC   GL242806  44.681  16.698   5.906
 3157POPC   C1A42807  44.514  16.961   6.289
 3157POPC   D2A42808  44.557  17.026   6.699
 3157POPC   C3A42809  44.952  16.838   6.875
 3157POPC   C4A42810  44.949  16.517   7.173
 3157POPC   C1B42811  44.351  16.483   6.163
 3157POPC   C2B42812  44.414  16.339   6.569
 3157POPC   C3B42813  44.472  16.579   6.963
 3157POPC   C4B42814  44.420  16.566   7.390
 3158POPC   NC342815  10.166   2.338   5.646
 3158POPC   PO442816  10.452   1.824   5.254
 3158POPC   GL142817  10.575   2.003   5.681
 3158POPC   GL242818  10.846   2.268   5.759
 3158POPC   C1A42819  10.680   1.923   6.111
 3158POPC   D2A42820  10.493   2.107   6.468
 3158POPC   C3A42821  10.566   1.953   6.890
 3158POPC   C4A42822  10.441   1.824   7.314
 3158POPC   C1B42823  10.896   2.403   6.216
 3158POPC   C2B42824  11.035   2.621   6.580
 3158POPC   C3B42825  11.015   2.482   7.009
 3158POPC   C4B42826  10.808   2.169   7.300
 3159POPC   NC342827  14.334  37.271   5.192
 3159POPC   PO442828  14.487  36.672   5.244
 3159POPC   GL142829  14.370  36.815   5.731
 3159POPC   GL242830  14.319  36.562   6.002
 3159POPC   C1A42831  14.330  37.036   6.179
 3159POPC   D2A42832  14.562  37.080   6.542
 3159POPC   C3A42833  14.446  36.872   6.947
 3159POPC   C4A42834  14.558  37.047   7.365
 3159POPC   C1B42835  14.119  36.663   6.434
 3159POPC   C2B42836  13.916  36.663   6.832
 3159POPC   C3B42837  14.043  36.539   7.232
 3159POPC   C4B42838  14.485  36.550   7.412
 3160POPC   NC342839  20.920  31.834   5.519
 3160POPC   PO442840  21.311  31.391   5.271
 3160POPC   GL142841  21.310  31.312   5.732
 3160POPC   GL242842  21.293  31.662   5.819
 3160POPC   C1A42843  21.569  31.394   6.137
 3160POPC   D2A42844  21.637  31.682   6.520
 3160POPC   C3A42845  21.568  31.462   6.930
 3160POPC   C4A42846  21.565  31.248   7.334
 3160POPC   C1B42847  21.044  31.491   6.150
 3160POPC   C2B42848  21.001  31.645   6.563
 3160POPC   C3B42849  20.888  31.546   6.973
 3160POPC   C4B42850  21.181  31.563   7.267
 3161POPC   NC342851  17.566  19.525   5.492
 3161POPC   PO442852  17.044  19.285   5.135
 3161POPC   GL142853  17.434  19.017   5.564
 3161POPC   GL242854  17.605  18.756   5.808
 3161POPC   C1A42855  17.354  19.018   6.128
 3161POPC   D2A42856  17.223  18.811   6.571
 3161POPC   C3A42857  17.444  18.865   6.983
 3161POPC   C4A42858  17.457  19.205   7.302
 3161POPC   C1B42859  17.822  18.856   6.213
 3161POPC   C2B42860  17.657  19.124   6.567
 3161POPC   C3B42861  17.838  19.195   6.967
 3161POPC   C4B42862  17.915  18.784   7.200
 3162POPC   NC342863  44.009   1.478   5.272
 3162POPC   PO442864  43.758   0.850   5.409
 3162POPC   GL142865  43.852   1.221   5.696
 3162POPC   GL242866  43.580   1.334   5.897
 3162POPC   C1A42867  44.088   1.348   6.086
 3162POPC   D2A42868  44.077   1.224   6.555
 3162POPC   C3A42869  44.141   1.417   6.976
 3162POPC   C4A42870  43.926   1.321   7.373
 3162POPC   C1B42871  43.698   1.034   6.198
 3162POPC   C2B42872  43.596   1.013   6.610
 3162POPC   C3B42873  43.613   1.241   6.963
 3162POPC   C4B42874  43.444   1.161   7.351
 3163POPC   NC342875  35.048  30.427   5.453
 3163POPC   PO442876  35.482  30.973   5.446
 3163POPC   GL142877  35.229  30.880   5.767
 3163POPC   GL242878  35.341  30.578   5.839
 3163POPC   C1A42879  35.087  30.879   6.197
 3163POPC   D2A42880  34.894  30.978   6.602
 3163POPC   C3A42881  35.144  30.849   6.987
 3163POPC   C4A42882  35.556  30.848   7.210
 3163POPC   C1B42883  35.178  30.378   6.210
 3163POPC   C2B42884  35.274  30.230   6.628
 3163POPC   C3B42885  35.151  30.305   7.053
 3163POPC   C4B42886  35.432  30.239   7.401
 3164POPC   NC342887  21.978  27.690   5.150
 3164POPC   PO442888  21.346  27.748   5.428
 3164POPC   GL142889  21.625  27.682   5.749
 3164POPC   GL242890  21.530  27.402   5.909
 3164POPC   C1A42891  21.673  27.812   6.199
 3164POPC   D2A42892  21.534  27.762   6.656
 3164POPC   C3A42893  21.765  27.988   6.948
 3164POPC   C4A42894  21.633  28.135   7.328
 3164POPC   C1B42895  21.463  27.350   6.355
 3164POPC   C2B42896  21.094  27.490   6.592
 3164POPC   C3B42897  21.075  27.749   6.959
 3164POPC   C4B42898  21.408  27.700   7.195
 3165POPC   NC342899  23.629  19.318   5.657
 3165POPC   PO442900  23.515  19.959   5.410
 3165POPC   GL142901  23.573  19.973   5.824
 3165POPC   GL242902  23.884  19.763   5.881
 3165POPC   C1A42903  23.529  19.871   6.238
 3165POPC   D2A42904  23.710  19.547   6.461
 3165POPC   C3A42905  23.601  19.565   6.866
 3165POPC   C4A42906  23.572  19.563   7.280
 3165POPC   C1B42907  24.087  19.967   6.231
 3165POPC   C2B42908  23.891  20.012   6.652
 3165POPC   C3B42909  23.829  19.962   7.099
 3165POPC   C4B42910  24.021  19.762   7.436
 3166POPC   NC342911   5.071   9.366   5.542
 3166POPC   PO442912   5.256   8.799   5.252
 3166POPC   GL142913   5.198   8.899   5.677
 3166POPC   GL242914   4.873   8.883   5.765
 3166POPC   C1A42915   5.295   9.008   6.122
 3166POPC   D2A42916   5.578   8.983   6.494
 3166POPC   C3A42917   5.399   9.126   6.908
 3166POPC   C4A42918   5.064   9.174   7.196
 3166POPC   C1B42919   4.822   8.827   6.236
 3166POPC   C2B42920   4.728   8.665   6.680
 3166POPC   C3B42921   4.727   8.745   7.099
 3166POPC   C4B42922   4.562   9.127   7.251
 3167POPC   NC342923  36.434  12.699   5.596
 3167POPC   PO442924  37.083  12.728   5.486
 3167POPC   GL142925  36.857  12.826   5.875
 3167POPC   GL242926  36.707  13.169   5.827
 3167POPC   C1A42927  36.770  12.581   6.259
 3167POPC   D2A42928  36.692  12.498   6.696
 3167POPC   C3A42929  36.969  12.728   6.984
 3167POPC   C4A42930  36.871  12.828   7.421
 3167POPC   C1B42931  36.985  13.211   6.196
 3167POPC   C2B42932  36.851  13.026   6.576
 3167POPC   C3B42933  36.522  12.992   6.858
 3167POPC   C4B42934  36.544  13.188   7.238
 3168POPC   NC342935  24.853  30.655   5.284
 3168POPC   PO442936  25.433  30.840   5.249
 3168POPC   GL142937  25.350  30.609   5.716
 3168POPC   GL242938  24.964  30.579   5.802
 3168POPC   C1A42939  25.301  30.730   6.231
 3168POPC   D2A42940  25.134  30.838   6.688
 3168POPC   C3A42941  25.351  30.770   7.119
 3168POPC   C4A42942  25.462  30.841   7.564
 3168POPC   C1B42943  25.157  30.270   6.078
 3168POPC   C2B42944  25.230  30.178   6.510
 3168POPC   C3B42945  25.320  30.278   6.936
 3168POPC   C4B42946  25.120  30.354   7.342
 3169POPC   NC342947  15.508  28.578   5.040
 3169POPC   PO442948  15.115  28.255   5.469
 3169POPC   GL142949  15.238  28.251   5.869
 3169POPC   GL242950  15.201  28.583   5.976
 3169POPC   C1A42951  15.183  28.198   6.303
 3169POPC   D2A42952  14.886  28.394   6.564
 3169POPC   C3A42953  15.034  28.211   6.908
 3169POPC   C4A42954  15.329  28.411   7.199
 3169POPC   C1B42955  14.866  28.793   6.153
 3169POPC   C2B42956  14.850  28.949   6.568
 3169POPC   C3B42957  15.024  28.800   6.953
 3169POPC   C4B42958  14.798  28.518   7.214
 3170POPC   NC342959  31.495  24.384   5.303
 3170POPC   PO442960  31.128  24.900   5.613
 3170POPC   GL142961  31.415  24.573   5.777
 3170POPC   GL242962  31.259  24.230   5.712
 3170POPC   C1A42963  31.623  24.484   6.188
 3170POPC   D2A42964  31.634  24.653   6.632
 3170POPC   C3A42965  31.499  24.455   7.007
 3170POPC   C4A42966  31.325  24.683   7.320
 3170POPC   C1B42967  31.104  24.325   6.107
 3170POPC   C2B42968  31.239  24.329   6.507
 3170POPC   C3B42969  31.144  24.128   6.842
 3170POPC   C4B42970  31.035  24.232   7.229
 3171POPC   NC342971  28.238   6.929   5.613
 3171POPC   PO442972  28.633   6.331   5.331
 3171POPC   GL142973  28.377   6.413   5.702
 3171POPC   GL242974  28.674   6.609   5.772
 3171POPC   C1A42975  28.348   6.575   6.154
 3171POPC   D2A42976  28.549   6.578   6.577
 3171POPC   C3A42977  28.285   6.594   6.934
 3171POPC   C4A42978  28.324   6.915   7.234
 3171POPC   C1B42979  28.705   6.958   6.055
 3171POPC   C2B42980  28.783   7.005   6.463
 3171POPC   C3B42981  28.772   6.934   6.925
 3171POPC   C4B42982  28.852   7.033   7.386
 3172POPC   NC342983  25.786  26.267   5.040
 3172POPC   PO442984  25.228  26.122   5.404
 3172POPC   GL142985  25.310  26.021   5.808
 3172POPC   GL242986  25.580  25.765   5.762
 3172POPC   C1A42987  25.030  25.875   6.155
 3172POPC   D2A42988  25.102  26.005   6.570
 3172POPC   C3A42989  24.967  25.740   6.897
 3172POPC   C4A42990  24.866  25.915   7.293
 3172POPC   C1B42991  25.522  25.807   6.220
 3172POPC   C2B42992  25.616  26.061   6.577
 3172POPC   C3B42993  25.442  25.957   6.974
 3172POPC   C4B42994  25.628  25.965   7.354
 3173POPC   NC342995  39.391  20.745   5.639
 3173POPC   PO442996  38.870  20.921   5.693
 3173POPC   GL142997  39.058  20.642   6.028
 3173POPC   GL242998  39.362  20.411   6.030
 3173POPC   C1A42999  39.222  20.739   6.418
 3173POPC   D2A43000  39.376  20.998   6.720
 3173POPC   C3A43001  39.081  20.902   7.048
 3173POPC   C4A43002  39.236  20.620   7.328
 3173POPC   C1B43003  39.212  20.236   6.426
 3173POPC   C2B43004  39.220  20.336   6.870
 3173POPC   C3B43005  39.306  20.118   7.266
 3173POPC   C4B43006  39.158  20.022   7.695
 3174POPC   NC343007  20.417  15.684   5.391
 3174POPC   PO443008  20.225  16.347   5.326
 3174POPC   GL143009  20.175  16.065   5.703
 3174POPC   GL243010  20.501  15.979   5.793
 3174POPC   C1A43011  20.177  15.854   6.141
 3174POPC   D2A43012  20.309  15.607   6.505
 3174POPC   C3A43013  20.461  15.815   6.855
 3174POPC   C4A43014  20.547  15.628   7.196
 3174POPC   C1B43015  20.696  15.823   6.218
 3174POPC   C2B43016  20.941  15.847   6.620
 3174POPC   C3B43017  20.968  15.910   7.060
 3174POPC   C4B43018  20.686  16.097   7.359
 3175POPC   NC343019  35.706   7.594   5.414
 3175POPC   PO443020  36.138   7.050   5.230
 3175POPC   GL143021  36.112   7.124   5.703
 3175POPC   GL243022  36.139   7.495   5.865
 3175POPC   C1A43023  36.238   7.082   6.167
 3175POPC   D2A43024  36.391   7.396   6.468
 3175POPC   C3A43025  36.150   7.410   6.854
 3175POPC   C4A43026  36.262   7.484   7.273
 3175POPC   C1B43027  36.053   7.755   6.286
 3175POPC   C2B43028  35.774   7.772   6.694
 3175POPC   C3B43029  35.757   7.633   7.164
 3175POPC   C4B43030  35.937   7.666   7.627
 3176POPC   NC343031  43.525  39.824   5.592
 3176POPC   PO443032  43.014  40.189   5.498
 3176POPC   GL143033  43.231  40.199   5.896
 3176POPC   GL243034  43.552  40.363   5.888
 3176POPC   C1A43035  43.016  40.076   6.287
 3176POPC   D2A43036  42.907  39.814   6.656
 3176POPC   C3A43037  43.217  39.775   6.973
 3176POPC   C4A43038  42.947  39.733   7.305
 3176POPC   C1B43039  43.396  40.417   6.355
 3176POPC   C2B43040  43.157  40.250   6.750
 3176POPC   C3B43041  43.059  40.220   7.194
 3176POPC   C4B43042  43.216  40.072   7.590
 3177POPC   NC343043   2.256  39.768   5.409
 3177POPC   PO443044   1.618  40.068   5.274
 3177POPC   GL143045   1.844  40.006   5.668
 3177POPC   GL243046   1.649  39.727   5.762
 3177POPC   C1A43047   2.078  40.172   6.054
 3177POPC   D2A43048   2.203  40.002   6.475
 3177POPC   C3A43049   1.984  40.093   6.853
 3177POPC   C4A43050   1.751  40.284   7.186
 3177POPC   C1B43051   1.767  39.790   6.195
 3177POPC   C2B43052   1.956  39.519   6.487
 3177POPC   C3B43053   2.053  39.585   6.912
 3177POPC   C4B43054   1.926  39.803   7.298
 3178POPC   NC343055  42.582  31.955   5.363
 3178POPC   PO443056  42.107  32.423   5.460
 3178POPC   GL143057  42.281  32.182   5.731
 3178POPC   GL243058  42.583  32.394   5.749
 3178POPC   C1A43059  42.269  32.129   6.162
 3178POPC   D2A43060  42.030  31.976   6.508
 3178POPC   C3A43061  42.179  32.225   6.835
 3178POPC   C4A43062  42.081  32.262   7.255
 3178POPC   C1B43063  42.753  32.555   6.174
 3178POPC   C2B43064  42.849  32.466   6.628
 3178POPC   C3B43065  42.649  32.322   6.997
 3178POPC   C4B43066  42.588  32.394   7.433
 3179POPC   NC343067   9.509   8.901   5.230
 3179POPC   PO443068  10.002   8.547   5.582
 3179POPC   GL143069   9.697   8.868   5.776
 3179POPC   GL243070   9.369   8.768   5.755
 3179POPC   C1A43071   9.825   9.123   6.144
 3179POPC   D2A43072   9.992   9.018   6.563
 3179POPC   C3A43073   9.845   9.169   6.971
 3179POPC   C4A43074   9.997   8.960   7.352
 3179POPC   C1B43075   9.340   8.989   6.131
 3179POPC   C2B43076   9.477   9.047   6.527
 3179POPC   C3B43077   9.519   8.784   6.847
 3179POPC   C4B43078   9.473   8.851   7.255
 3180POPC   NC343079  12.478  22.433   5.460
 3180POPC   PO443080  13.071  22.066   5.478
 3180POPC   GL143081  12.815  22.243   5.789
 3180POPC   GL243082  12.552  22.008   5.864
 3180POPC   C1A43083  12.727  22.467   6.157
 3180POPC   D2A43084  12.969  22.375   6.529
 3180POPC   C3A43085  12.857  22.441   6.948
 3180POPC   C4A43086  13.044  22.223   7.337
 3180POPC   C1B43087  12.633  21.985   6.317
 3180POPC   C2B43088  12.672  21.941   6.761
 3180POPC   C3B43089  12.585  22.064   7.163
 3180POPC   C4B43090  12.581  22.235   7.530
 3181POPC   NC343091  16.129   8.794   5.361
 3181POPC   PO443092  15.636   9.111   5.583
 3181POPC   GL143093  15.972   9.087   5.843
 3181POPC   GL243094  15.906   8.752   5.877
 3181POPC   C1A43095  16.093   9.013   6.285
 3181POPC   D2A43096  16.006   9.214   6.672
 3181POPC   C3A43097  16.077   8.970   7.037
 3181POPC   C4A43098  16.312   9.037   7.374
 3181POPC   C1B43099  15.795   8.595   6.239
 3181POPC   C2B43100  15.793   8.752   6.657
 3181POPC   C3B43101  15.551   8.685   7.014
 3181POPC   C4B43102  15.488   8.748   7.437
 3182POPC   NC343103  33.612  21.871   5.549
 3182POPC   PO443104  33.767  22.493   5.199
 3182POPC   GL143105  33.757  22.403   5.655
 3182POPC   GL243106  33.439  22.306   5.806
 3182POPC   C1A43107  33.848  22.497   6.125
 3182POPC   D2A43108  33.781  22.738   6.540
 3182POPC   C3A43109  33.796  22.491   6.960
 3182POPC   C4A43110  33.959  22.169   7.266
 3182POPC   C1B43111  33.507  22.089   6.193
 3182POPC   C2B43112  33.596  22.055   6.626
 3182POPC   C3B43113  33.389  22.003   6.993
 3182POPC   C4B43114  33.455  22.047   7.400
 3183POPC   NC343115  29.788  18.606   5.330
 3183POPC   PO443116  29.994  19.214   5.351
 3183POPC   GL143117  29.998  19.072   5.760
 3183POPC   GL243118  29.909  18.723   5.842
 3183POPC   C1A43119  29.852  19.203   6.141
 3183POPC   D2A43120  29.731  19.099   6.547
 3183POPC   C3A43121  29.936  19.218   6.909
 3183POPC   C4A43122  29.620  19.205   7.182
 3183POPC   C1B43123  30.030  18.740   6.305
 3183POPC   C2B43124  29.875  18.643   6.728
 3183POPC   C3B43125  29.913  18.755   7.170
 3183POPC   C4B43126  29.719  18.880   7.574
 3184POPC   NC343127  17.896  36.923   5.484
 3184POPC   PO443128  17.265  37.183   5.425
 3184POPC   GL143129  17.327  37.025   5.847
 3184POPC   GL243130  17.483  36.695   5.796
 3184POPC   C1A43131  17.210  37.086   6.302
 3184POPC   D2A43132  17.397  36.905   6.668
 3184POPC   C3A43133  17.407  37.115   7.055
 3184POPC   C4A43134  17.686  37.031   7.390
 3184POPC   C1B43135  17.348  36.580   6.247
 3184POPC   C2B43136  17.326  36.409   6.704
 3184POPC   C3B43137  17.457  36.582   7.111
 3184POPC   C4B43138  17.224  36.606   7.490
 3185POPC   NC343139  22.317  36.116   5.565
 3185POPC   PO443140  21.799  36.051   5.183
 3185POPC   GL143141  21.876  36.311   5.684
 3185POPC   GL243142  22.116  36.490   5.866
 3185POPC   C1A43143  22.088  36.021   6.142
 3185POPC   D2A43144  22.352  35.837   6.480
 3185POPC   C3A43145  22.129  35.863   6.871
 3185POPC   C4A43146  22.155  35.905   7.304
 3185POPC   C1B43147  21.863  36.434   6.267
 3185POPC   C2B43148  22.129  36.313   6.613
 3185POPC   C3B43149  22.060  36.348   7.046
 3185POPC   C4B43150  21.665  36.395   7.202
 3186POPC   NC343151   6.904   8.692   5.422
 3186POPC   PO443152   6.342   8.979   5.471
 3186POPC   GL143153   6.587   9.114   5.816
 3186POPC   GL243154   6.957   9.055   5.806
 3186POPC   C1A43155   6.612   9.101   6.238
 3186POPC   D2A43156   6.855   9.218   6.567
 3186POPC   C3A43157   6.667   9.110   6.927
 3186POPC   C4A43158   6.313   8.889   7.105
 3186POPC   C1B43159   6.857   8.672   6.095
 3186POPC   C2B43160   6.662   8.636   6.525
 3186POPC   C3B43161   6.839   8.607   6.950
 3186POPC   C4B43162   6.631   8.590   7.346
 3187POPC   NC343163   1.147   5.321   5.342
 3187POPC   PO443164   1.245   4.624   5.343
 3187POPC   GL143165   1.256   4.906   5.756
 3187POPC   GL243166   1.176   5.287   5.835
 3187POPC   C1A43167   1.165   4.997   6.226
 3187POPC   D2A43168   1.363   5.111   6.616
 3187POPC   C3A43169   1.188   5.037   6.985
 3187POPC   C4A43170   1.258   5.101   7.413
 3187POPC   C1B43171   0.943   5.483   6.219
 3187POPC   C2B43172   0.896   5.344   6.664
 3187POPC   C3B43173   0.993   5.507   7.083
 3187POPC   C4B43174   0.887   5.443   7.538
 3188POPC   NC343175  15.246  39.212   5.172
 3188POPC   PO443176  14.875  39.624   5.568
 3188POPC   GL143177  15.214  39.367   5.770
 3188POPC   GL243178  15.376  39.024   5.683
 3188POPC   C1A43179  15.338  39.403   6.229
 3188POPC   D2A43180  15.375  39.410   6.690
 3188POPC   C3A43181  15.143  39.180   7.029
 3188POPC   C4A43182  14.740  38.972   7.135
 3188POPC   C1B43183  15.191  38.937   6.084
 3188POPC   C2B43184  15.212  38.933   6.538
 3188POPC   C3B43185  15.340  38.729   6.942
 3188POPC   C4B43186  15.642  38.718   7.271
 3189POPC   NC343187  15.718   6.884   5.183
 3189POPC   PO443188  16.265   6.656   5.439
 3189POPC   GL143189  15.924   6.795   5.729
 3189POPC   GL243190  15.897   6.515   5.932
 3189POPC   C1A43191  15.872   6.951   6.191
 3189POPC   D2A43192  16.057   7.084   6.597
 3189POPC   C3A43193  16.103   6.742   6.852
 3189POPC   C4A43194  15.915   6.520   7.152
 3189POPC   C1B43195  16.061   6.462   6.351
 3189POPC   C2B43196  15.843   6.269   6.710
 3189POPC   C3B43197  15.707   6.059   7.091
 3189POPC   C4B43198  15.811   6.173   7.522
 3190POPC   NC343199  32.105  31.377   5.501
 3190POPC   PO443200  32.690  31.793   5.520
 3190POPC   GL143201  32.387  31.628   5.839
 3190POPC   GL243202  32.079  31.807   5.875
 3190POPC   C1A43203  32.250  31.430   6.240
 3190POPC   D2A43204  32.490  31.468   6.629
 3190POPC   C3A43205  32.616  31.159   6.928
 3190POPC   C4A43206  32.347  31.100   7.268
 3190POPC   C1B43207  31.884  31.854   6.254
 3190POPC   C2B43208  32.030  31.702   6.647
 3190POPC   C3B43209  32.030  31.807   7.070
 3190POPC   C4B43210  31.732  32.079   7.239
 3191POPC   NC343211   6.417  32.529   5.429
 3191POPC   PO443212   6.934  32.056   5.308
 3191POPC   GL143213   6.798  32.137   5.728
 3191POPC   GL243214   6.866  31.826   5.832
 3191POPC   C1A43215   6.680  32.290   6.139
 3191POPC   D2A43216   6.836  32.392   6.530
 3191POPC   C3A43217   6.582  32.303   6.864
 3191POPC   C4A43218   6.738  32.462   7.229
 3191POPC   C1B43219   6.493  31.820   6.114
 3191POPC   C2B43220   6.446  31.940   6.526
 3191POPC   C3B43221   6.492  31.814   6.982
 3191POPC   C4B43222   6.682  31.975   7.377
 3192POPC   NC343223  44.763  41.917   5.516
 3192POPC   PO443224  44.663  42.603   5.440
 3192POPC   GL143225  44.673  42.338   5.800
 3192POPC   GL243226  44.348  42.286   5.925
 3192POPC   C1A43227  44.702  42.230   6.268
 3192POPC   D2A43228  44.372  42.338   6.576
 3192POPC   C3A43229  44.521  42.167   6.958
 3192POPC   C4A43230  44.953  42.034   7.099
 3192POPC   C1B43231  44.575  42.705   6.135
 3192POPC   C2B43232  44.574  42.854   6.591
 3192POPC   C3B43233  44.690  42.667   6.983
 3192POPC   C4B43234  44.711  42.418   7.376
 3193POPC   NC343235  27.223  43.291   5.429
 3193POPC   PO443236  27.617  42.754   5.294
 3193POPC   GL143237  27.601  43.007   5.701
 3193POPC   GL243238  27.297  42.862   5.803
 3193POPC   C1A43239  27.717  42.988   6.182
 3193POPC   D2A43240  27.780  43.225   6.598
 3193POPC   C3A43241  27.830  43.070   7.012
 3193POPC   C4A43242  27.880  43.233   7.417
 3193POPC   C1B43243  27.284  43.218   6.075
 3193POPC   C2B43244  27.329  43.361   6.464
 3193POPC   C3B43245  27.350  43.214   6.872
 3193POPC   C4B43246  27.089  43.279   7.157
 3194POPC   NC343247  34.948  12.982   5.594
 3194POPC   PO443248  34.404  13.025   5.206
 3194POPC   GL143249  34.418  12.870   5.666
 3194POPC   GL243250  34.548  13.121   5.893
 3194POPC   C1A43251  34.453  12.642   6.098
 3194POPC   D2A43252  34.275  12.487   6.513
 3194POPC   C3A43253  34.415  12.694   6.889
 3194POPC   C4A43254  34.570  12.768   7.302
 3194POPC   C1B43255  34.508  13.282   6.284
 3194POPC   C2B43256  34.417  13.166   6.690
 3194POPC   C3B43257  34.592  13.217   7.090
 3194POPC   C4B43258  34.363  13.191   7.500
 3195POPC   NC343259  16.682  20.631   5.360
 3195POPC   PO443260  16.205  21.016   5.685
 3195POPC   GL143261  16.644  20.841   5.856
 3195POPC   GL243262  16.803  20.485   5.818
 3195POPC   C1A43263  16.802  20.736   6.282
 3195POPC   D2A43264  16.537  20.749   6.656
 3195POPC   C3A43265  16.710  20.742   7.074
 3195POPC   C4A43266  16.671  20.812   7.536
 3195POPC   C1B43267  16.518  20.349   6.118
 3195POPC   C2B43268  16.536  20.253   6.544
 3195POPC   C3B43269  16.397  20.333   6.967
 3195POPC   C4B43270  16.615  20.301   7.335
 3196POPC   NC343271  31.440  30.699   5.189
 3196POPC   PO443272  30.772  30.626   5.338
 3196POPC   GL143273  31.198  30.702   5.653
 3196POPC   GL243274  31.511  30.912   5.689
 3196POPC   C1A43275  31.302  30.559   6.098
 3196POPC   D2A43276  31.546  30.417   6.480
 3196POPC   C3A43277  31.454  30.584   6.931
 3196POPC   C4A43278  31.545  30.582   7.414
 3196POPC   C1B43279  31.311  31.059   6.076
 3196POPC   C2B43280  31.408  30.969   6.502
 3196POPC   C3B43281  31.434  31.121   6.929
 3196POPC   C4B43282  31.593  31.062   7.350
 3197POPC   NC343283  31.087  14.026   5.606
 3197POPC   PO443284  31.357  13.514   5.246
 3197POPC   GL143285  31.351  13.343   5.670
 3197POPC   GL243286  31.680  13.346   5.808
 3197POPC   C1A43287  31.280  13.438   6.126
 3197POPC   D2A43288  31.412  13.840   6.356
 3197POPC   C3A43289  31.486  13.837   6.802
 3197POPC   C4A43290  31.479  13.765   7.234
 3197POPC   C1B43291  31.790  13.508   6.228
 3197POPC   C2B43292  31.686  13.415   6.619
 3197POPC   C3B43293  31.840  13.492   7.015
 3197POPC   C4B43294  31.657  13.279   7.396
 3198POPC   NC343295  37.939  33.656   5.396
 3198POPC   PO443296  37.524  34.087   5.408
 3198POPC   GL143297  37.708  33.972   5.824
 3198POPC   GL243298  37.733  33.622   5.870
 3198POPC   C1A43299  37.621  34.020   6.286
 3198POPC   D2A43300  37.549  34.223   6.673
 3198POPC   C3A43301  37.830  34.026   6.965
 3198POPC   C4A43302  37.778  33.705   7.251
 3198POPC   C1B43303  37.665  33.512   6.281
 3198POPC   C2B43304  37.675  33.588   6.700
 3198POPC   C3B43305  37.910  33.324   6.947
 3198POPC   C4B43306  38.031  33.283   7.367
 3199POPC   NC343307  17.310   1.569   5.421
 3199POPC   PO443308  17.210   0.883   5.423
 3199POPC   GL143309  17.263   1.218   5.806
 3199POPC   GL243310  17.590   1.308   5.808
 3199POPC   C1A43311  17.328   1.473   6.238
 3199POPC   D2A43312  17.568   1.470   6.619
 3199POPC   C3A43313  17.357   1.546   6.998
 3199POPC   C4A43314  17.272   1.176   7.186
 3199POPC   C1B43315  17.577   1.034   6.212
 3199POPC   C2B43316  17.589   0.930   6.668
 3199POPC   C3B43317  17.755   1.143   6.997
 3199POPC   C4B43318  17.865   1.551   7.098
 3200POPC   NC343319  22.349   3.800   5.497
 3200POPC   PO443320  21.976   3.251   5.326
 3200POPC   GL143321  22.047   3.332   5.787
 3200POPC   GL243322  22.009   3.684   5.870
 3200POPC   C1A43323  22.186   3.338   6.216
 3200POPC   D2A43324  22.429   3.482   6.548
 3200POPC   C3A43325  22.188   3.634   6.839
 3200POPC   C4A43326  22.166   3.301   7.112
 3200POPC   C1B43327  22.244   3.857   6.245
 3200POPC   C2B43328  22.515   3.983   6.629
 3200POPC   C3B43329  22.373   4.065   7.044
 3200POPC   C4B43330  22.005   4.001   7.344
 3201POPC   NC343331  41.491  33.915   5.327
 3201POPC   PO443332  41.719  33.285   5.479
 3201POPC   GL143333  41.622  33.655   5.741
 3201POPC   GL243334  41.338  33.554   5.809
 3201POPC   C1A43335  41.435  33.965   6.069
 3201POPC   D2A43336  41.577  33.952   6.501
 3201POPC   C3A43337  41.417  33.988   6.921
 3201POPC   C4A43338  41.639  33.907   7.321
 3201POPC   C1B43339  41.361  33.494   6.237
 3201POPC   C2B43340  41.250  33.564   6.627
 3201POPC   C3B43341  41.396  33.478   7.020
 3201POPC   C4B43342  41.294  33.567   7.400
 3202POPC   NC343343  25.570  43.210   5.350
 3202POPC   PO443344  25.119  42.701   5.325
 3202POPC   GL143345  25.246  42.911   5.692
 3202POPC   GL243346  24.914  42.919   5.857
 3202POPC   C1A43347  25.335  42.967   6.143
 3202POPC   D2A43348  25.105  42.894   6.531
 3202POPC   C3A43349  25.253  43.093   6.880
 3202POPC   C4A43350  25.320  43.233   7.254
 3202POPC   C1B43351  24.766  43.137   6.246
 3202POPC   C2B43352  24.872  43.360   6.659
 3202POPC   C3B43353  24.808  43.256   7.120
 3202POPC   C4B43354  24.963  43.386   7.568
 3203POPC   NC343355   5.497  28.835   5.598
 3203POPC   PO443356   5.145  29.193   5.206
 3203POPC   GL143357   5.105  29.167   5.665
 3203POPC   GL243358   5.410  29.260   5.878
 3203POPC   C1A43359   5.075  28.923   6.072
 3203POPC   D2A43360   4.938  28.990   6.462
 3203POPC   C3A43361   5.125  29.078   6.822
 3203POPC   C4A43362   5.019  28.855   7.191
 3203POPC   C1B43363   5.033  29.426   6.116
 3203POPC   C2B43364   5.017  29.493   6.534
 3203POPC   C3B43365   4.859  29.568   6.912
 3203POPC   C4B43366   5.001  29.361   7.242
 3204POPC   NC343367  36.713  40.056   5.498
 3204POPC   PO443368  37.162  39.642   5.428
 3204POPC   GL143369  36.990  39.922   5.897
 3204POPC   GL243370  36.733  40.264   5.936
 3204POPC   C1A43371  36.645  39.918   6.275
 3204POPC   D2A43372  36.655  39.825   6.695
 3204POPC   C3A43373  37.001  39.925   6.903
 3204POPC   C4A43374  37.003  39.740   7.265
 3204POPC   C1B43375  37.007  40.267   6.280
 3204POPC   C2B43376  36.766  40.332   6.638
 3204POPC   C3B43377  36.881  40.423   7.016
 3204POPC   C4B43378  36.715  40.159   7.300
 3205POPC   NC343379   4.852  13.687   5.432
 3205POPC   PO443380   5.519  13.490   5.433
 3205POPC   GL143381   5.197  13.459   5.792
 3205POPC   GL243382   5.485  13.413   5.965
 3205POPC   C1A43383   5.063  13.485   6.262
 3205POPC   D2A43384   4.962  13.236   6.668
 3205POPC   C3A43385   4.933  13.434   7.097
 3205POPC   C4A43386   5.210  13.356   7.448
 3205POPC   C1B43387   5.520  13.729   6.246
 3205POPC   C2B43388   5.261  13.879   6.557
 3205POPC   C3B43389   5.331  13.649   6.893
 3205POPC   C4B43390   5.599  13.637   7.266
 3206POPC   NC343391   9.574  18.691   5.204
 3206POPC   PO443392   9.893  18.180   5.403
 3206POPC   GL143393   9.949  18.403   5.769
 3206POPC   GL243394   9.763  18.174   5.941
 3206POPC   C1A43395   9.818  18.636   6.166
 3206POPC   D2A43396   9.512  18.663   6.523
 3206POPC   C3A43397   9.703  18.549   6.919
 3206POPC   C4A43398   9.977  18.638   7.260
 3206POPC   C1B43399   9.507  17.991   6.242
 3206POPC   C2B43400   9.515  18.140   6.641
 3206POPC   C3B43401   9.650  18.064   7.063
 3206POPC   C4B43402   9.859  18.176   7.444
 3207POPC   NC343403  29.066  11.585   5.367
 3207POPC   PO443404  29.739  11.529   5.533
 3207POPC   GL143405  29.391  11.335   5.799
 3207POPC   GL243406  29.013  11.224   5.833
 3207POPC   C1A43407  29.308  11.448   6.243
 3207POPC   D2A43408  29.348  11.788   6.529
 3207POPC   C3A43409  29.581  11.588   6.825
 3207POPC   C4A43410  29.393  11.350   7.128
 3207POPC   C1B43411  29.144  10.973   6.214
 3207POPC   C2B43412  29.130  11.061   6.668
 3207POPC   C3B43413  28.900  11.278   6.990
 3207POPC   C4B43414  28.630  11.312   7.310
 3208POPC   NC343415   6.372  30.994   5.498
 3208POPC   PO443416   6.764  30.452   5.299
 3208POPC   GL143417   6.580  30.556   5.699
 3208POPC   GL243418   6.725  30.845   5.855
 3208POPC   C1A43419   6.654  30.480   6.169
 3208POPC   D2A43420   6.963  30.614   6.491
 3208POPC   C3A43421   6.835  30.504   6.916
 3208POPC   C4A43422   6.876  30.636   7.338
 3208POPC   C1B43423   6.690  31.029   6.245
 3208POPC   C2B43424   6.611  30.967   6.690
 3208POPC   C3B43425   6.542  30.955   7.109
 3208POPC   C4B43426   6.495  30.901   7.547
 3209POPC   NC343427  33.621  37.238   5.638
 3209POPC   PO443428  33.660  36.588   5.405
 3209POPC   GL143429  33.906  36.688   5.813
 3209POPC   GL243430  34.000  37.035   5.884
 3209POPC   C1A43431  33.715  36.790   6.227
 3209POPC   D2A43432  33.439  36.813   6.604
 3209POPC   C3A43433  33.628  36.697   6.991
 3209POPC   C4A43434  33.811  36.772   7.397
 3209POPC   C1B43435  33.940  37.244   6.273
 3209POPC   C2B43436  33.954  37.081   6.708
 3209POPC   C3B43437  33.789  37.201   7.129
 3209POPC   C4B43438  33.916  37.233   7.592
 3210POPC   NC343439   9.293  22.780   5.452
 3210POPC   PO443440   8.592  23.145   5.471
 3210POPC   GL143441   8.885  22.935   5.685
 3210POPC   GL243442   9.101  23.237   5.627
 3210POPC   C1A43443   9.041  22.744   6.074
 3210POPC   D2A43444   8.869  22.739   6.502
 3210POPC   C3A43445   9.105  22.653   6.884
 3210POPC   C4A43446   8.945  22.699   7.261
 3210POPC   C1B43447   8.893  23.261   6.055
 3210POPC   C2B43448   8.808  23.292   6.473
 3210POPC   C3B43449   8.997  23.141   6.830
 3210POPC   C4B43450   9.031  23.269   7.218
 3211POPC   NC343451  26.624  41.067   5.463
 3211POPC   PO443452  27.093  40.554   5.338
 3211POPC   GL143453  26.813  40.660   5.710
 3211POPC   GL243454  26.916  40.948   5.892
 3211POPC   C1A43455  26.619  40.615   6.143
 3211POPC   D2A43456  26.918  40.663   6.477
 3211POPC   C3A43457  26.847  40.656   6.931
 3211POPC   C4A43458  26.556  40.566   7.253
 3211POPC   C1B43459  26.697  41.132   6.264
 3211POPC   C2B43460  26.692  41.332   6.674
 3211POPC   C3B43461  26.702  41.131   7.085
 3211POPC   C4B43462  27.024  41.076   7.373
 3212POPC   NC343463  13.375  23.131   5.393
 3212POPC   PO443464  12.860  22.695   5.515
 3212POPC   GL143465  12.869  22.959   5.809
 3212POPC   GL243466  13.236  22.911   5.824
 3212POPC   C1A43467  12.614  22.969   6.194
 3212POPC   D2A43468  12.783  22.856   6.604
 3212POPC   C3A43469  12.700  23.160   6.933
 3212POPC   C4A43470  12.602  23.149   7.374
 3212POPC   C1B43471  13.120  22.798   6.222
 3212POPC   C2B43472  13.312  22.759   6.603
 3212POPC   C3B43473  13.155  22.927   6.959
 3212POPC   C4B43474  13.321  22.923   7.318
 3213POPC   NC343475  13.906  17.483   5.502
 3213POPC   PO443476  13.301  17.345   5.670
 3213POPC   GL143477  13.652  17.415   5.924
 3213POPC   GL243478  13.726  17.743   5.894
 3213POPC   C1A43479  13.969  17.403   6.245
 3213POPC   D2A43480  13.831  17.265   6.654
 3213POPC   C3A43481  13.991  17.444   7.037
 3213POPC   C4A43482  13.896  17.357   7.456
 3213POPC   C1B43483  13.578  17.697   6.353
 3213POPC   C2B43484  13.495  17.645   6.783
 3213POPC   C3B43485  13.534  17.602   7.214
 3213POPC   C4B43486  13.643  17.773   7.624
 3214POPC   NC343487  43.633  14.457   5.413
 3214POPC   PO443488  44.075  14.006   5.441
 3214POPC   GL143489  44.105  14.192   5.847
 3214POPC   GL243490  44.157  14.543   5.862
 3214POPC   C1A43491  44.086  14.307   6.286
 3214POPC   D2A43492  43.962  14.458   6.676
 3214POPC   C3A43493  43.979  14.147   6.979
 3214POPC   C4A43494  43.753  14.268   7.313
 3214POPC   C1B43495  43.808  14.746   6.118
 3214POPC   C2B43496  43.712  14.941   6.538
 3214POPC   C3B43497  43.811  14.850   6.983
 3214POPC   C4B43498  44.145  14.588   7.183
 3215POPC   NC343499  30.666  16.310   5.534
 3215POPC   PO443500  30.703  16.894   5.225
 3215POPC   GL143501  30.652  16.785   5.724
 3215POPC   GL243502  30.925  16.614   5.893
 3215POPC   C1A43503  30.536  16.826   6.206
 3215POPC   D2A43504  30.475  17.164   6.553
 3215POPC   C3A43505  30.388  17.038   7.027
 3215POPC   C4A43506  30.357  16.613   7.223
 3215POPC   C1B43507  30.978  16.578   6.357
 3215POPC   C2B43508  30.767  16.764   6.726
 3215POPC   C3B43509  30.854  16.859   7.143
 3215POPC   C4B43510  31.019  16.627   7.458
 3216POPC   NC343511  21.862  28.550   5.328
 3216POPC   PO443512  22.314  28.019   5.281
 3216POPC   GL143513  22.159  28.283   5.705
 3216POPC   GL243514  22.332  28.129   5.979
 3216POPC   C1A43515  21.933  28.397   6.137
 3216POPC   D2A43516  22.001  28.601   6.555
 3216POPC   C3A43517  21.819  28.504   6.964
 3216POPC   C4A43518  21.800  28.590   7.409
 3216POPC   C1B43519  22.313  28.205   6.416
 3216POPC   C2B43520  22.368  28.317   6.830
 3216POPC   C3B43521  22.175  28.160   7.212
 3216POPC   C4B43522  22.040  28.087   7.652
 3217POPC   NC343523  23.368  41.353   5.670
 3217POPC   PO443524  23.875  41.707   5.525
 3217POPC   GL143525  23.756  41.658   5.914
 3217POPC   GL243526  23.456  41.841   5.900
 3217POPC   C1A43527  23.941  41.569   6.305
 3217POPC   D2A43528  23.944  41.388   6.713
 3217POPC   C3A43529  24.065  41.675   7.044
 3217POPC   C4A43530  23.930  41.601   7.496
 3217POPC   C1B43531  23.459  41.938   6.344
 3217POPC   C2B43532  23.739  41.868   6.695
 3217POPC   C3B43533  23.580  41.621   7.087
 3217POPC   C4B43534  23.459  41.787   7.561
 3218POPC   NC343535  32.882  23.521   4.997
 3218POPC   PO443536  33.292  23.724   5.422
 3218POPC   GL143537  33.184  23.867   5.860
 3218POPC   GL243538  32.895  23.679   6.033
 3218POPC   C1A43539  33.111  24.015   6.315
 3218POPC   D2A43540  33.076  23.753   6.673
 3218POPC   C3A43541  32.953  23.943   7.039
 3218POPC   C4A43542  33.162  23.864   7.476
 3218POPC   C1B43543  32.885  23.382   6.362
 3218POPC   C2B43544  32.824  23.311   6.789
 3218POPC   C3B43545  33.011  23.469   7.139
 3218POPC   C4B43546  32.779  23.531   7.549
 3219POPC   NC343547  14.534   6.845   5.445
 3219POPC   PO443548  13.907   6.762   5.199
 3219POPC   GL143549  14.104   6.621   5.617
 3219POPC   GL243550  14.083   6.922   5.773
 3219POPC   C1A43551  14.361   6.629   6.048
 3219POPC   D2A43552  14.642   6.717   6.393
 3219POPC   C3A43553  14.469   6.885   6.747
 3219POPC   C4A43554  14.455   6.584   7.077
 3219POPC   C1B43555  14.083   7.083   6.166
 3219POPC   C2B43556  13.997   6.890   6.540
 3219POPC   C3B43557  14.024   6.818   6.958
 3219POPC   C4B43558  14.147   6.940   7.307
 3220POPC   NC343559  12.376   9.472   5.326
 3220POPC   PO443560  11.811   9.870   5.318
 3220POPC   GL143561  11.950   9.796   5.705
 3220POPC   GL243562  12.086   9.474   5.747
 3220POPC   C1A43563  12.186   9.906   6.062
 3220POPC   D2A43564  12.113   9.800   6.476
 3220POPC   C3A43565  12.312   9.944   6.835
 3220POPC   C4A43566  12.058   9.998   7.233
 3220POPC   C1B43567  12.203   9.341   6.157
 3220POPC   C2B43568  12.036   9.311   6.570
 3220POPC   C3B43569  12.006   9.558   6.922
 3220POPC   C4B43570  12.313   9.565   7.223
 3221POPC   NC343571   9.708  30.511   5.278
 3221POPC   PO443572  10.127  30.928   5.374
 3221POPC   GL143573   9.943  30.715   5.710
 3221POPC   GL243574   9.817  30.380   5.742
 3221POPC   C1A43575   9.966  30.774   6.136
 3221POPC   D2A43576   9.725  30.866   6.482
 3221POPC   C3A43577   9.887  30.838   6.912
 3221POPC   C4A43578   9.967  30.914   7.378
 3221POPC   C1B43579   9.553  30.519   6.054
 3221POPC   C2B43580   9.430  30.439   6.475
 3221POPC   C3B43581   9.509  30.275   6.869
 3221POPC   C4B43582   9.709  30.460   7.218
 3222POPC   NC343583   2.964  41.945   5.373
 3222POPC   PO443584   2.484  41.505   5.427
 3222POPC   GL143585   2.657  41.457   5.810
 3222POPC   GL243586   2.982  41.301   5.734
 3222POPC   C1A43587   2.518  41.603   6.198
 3222POPC   D2A43588   2.355  41.471   6.608
 3222POPC   C3A43589   2.480  41.795   6.928
 3222POPC   C4A43590   2.596  41.922   7.365
 3222POPC   C1B43591   3.021  41.356   6.184
 3222POPC   C2B43592   2.886  41.558   6.550
 3222POPC   C3B43593   2.779  41.393   6.918
 3222POPC   C4B43594   2.928  41.514   7.303
 3223POPC   NC343595  41.244  33.152   5.521
 3223POPC   PO443596  40.546  33.212   5.414
 3223POPC   GL143597  40.762  33.058   5.768
 3223POPC   GL243598  40.837  32.721   5.710
 3223POPC   C1A43599  40.921  33.215   6.148
 3223POPC   D2A43600  40.794  33.011   6.520
 3223POPC   C3A43601  40.565  32.887   6.860
 3223POPC   C4A43602  40.624  33.033   7.224
 3223POPC   C1B43603  40.980  32.703   6.158
 3223POPC   C2B43604  41.053  32.582   6.606
 3223POPC   C3B43605  41.007  32.705   7.035
 3223POPC   C4B43606  41.133  33.077   7.217
 3224POPC   NC343607  39.762  23.624   5.302
 3224POPC   PO443608  40.299  23.976   5.402
 3224POPC   GL143609  40.023  23.803   5.744
 3224POPC   GL243610  39.709  24.003   5.725
 3224POPC   C1A43611  40.134  23.621   6.178
 3224POPC   D2A43612  40.131  23.377   6.575
 3224POPC   C3A43613  40.013  23.511   6.959
 3224POPC   C4A43614  40.339  23.776   7.147
 3224POPC   C1B43615  39.818  24.011   6.199
 3224POPC   C2B43616  39.884  23.864   6.634
 3224POPC   C3B43617  39.845  23.974   7.099
 3224POPC   C4B43618  39.673  23.931   7.505
 3225POPC   NC343619   3.371  20.858   5.311
 3225POPC   PO443620   3.757  20.325   5.394
 3225POPC   GL143621   3.778  20.496   5.824
 3225POPC   GL243622   3.584  20.777   5.781
 3225POPC   C1A43623   3.597  20.558   6.253
 3225POPC   D2A43624   3.300  20.463   6.574
 3225POPC   C3A43625   3.514  20.416   6.952
 3225POPC   C4A43626   3.478  20.637   7.356
 3225POPC   C1B43627   3.712  21.034   6.128
 3225POPC   C2B43628   3.896  20.922   6.515
 3225POPC   C3B43629   3.770  20.860   6.928
 3225POPC   C4B43630   3.811  21.032   7.322
 3226POPC   NC343631  17.649  20.513   5.718
 3226POPC   PO443632  17.589  19.962   5.302
 3226POPC   GL143633  17.650  19.961   5.752
 3226POPC   GL243634  17.335  20.088   5.801
 3226POPC   C1A43635  17.845  19.857   6.147
 3226POPC   D2A43636  17.673  19.649   6.520
 3226POPC   C3A43637  17.796  19.836   6.889
 3226POPC   C4A43638  17.689  19.642   7.201
 3226POPC   C1B43639  17.336  19.767   6.134
 3226POPC   C2B43640  17.224  19.865   6.542
 3226POPC   C3B43641  17.266  19.754   6.935
 3226POPC   C4B43642  17.371  20.054   7.227
 3227POPC   NC343643  25.831  23.244   5.370
 3227POPC   PO443644  26.300  22.745   5.384
 3227POPC   GL143645  26.189  22.905   5.759
 3227POPC   GL243646  26.001  22.611   5.841
 3227POPC   C1A43647  26.268  22.929   6.200
 3227POPC   D2A43648  26.047  23.114   6.551
 3227POPC   C3A43649  26.185  22.953   6.935
 3227POPC   C4A43650  26.158  23.122   7.341
 3227POPC   C1B43651  25.806  22.702   6.205
 3227POPC   C2B43652  25.953  22.614   6.576
 3227POPC   C3B43653  25.788  22.614   6.949
 3227POPC   C4B43654  26.037  22.592   7.282
 3228POPC   NC343655  41.092  28.093   5.439
 3228POPC   PO443656  40.479  28.445   5.365
 3228POPC   GL143657  40.618  28.559   5.768
 3228POPC   GL243658  40.798  28.250   5.838
 3228POPC   C1A43659  40.661  28.556   6.224
 3228POPC   D2A43660  40.923  28.473   6.575
 3228POPC   C3A43661  40.786  28.382   6.974
 3228POPC   C4A43662  40.909  28.292   7.370
 3228POPC   C1B43663  40.887  28.075   6.238
 3228POPC   C2B43664  40.693  28.005   6.635
 3228POPC   C3B43665  40.587  27.854   7.035
 3228POPC   C4B43666  40.526  27.983   7.448
 3229POPC   NC343667  38.856  12.088   5.580
 3229POPC   PO443668  38.211  12.315   5.391
 3229POPC   GL143669  38.352  12.214   5.810
 3229POPC   GL243670  38.343  11.844   5.823
 3229POPC   C1A43671  38.452  12.348   6.261
 3229POPC   D2A43672  38.510  12.131   6.675
 3229POPC   C3A43673  38.299  12.277   7.037
 3229POPC   C4A43674  38.510  12.333   7.419
 3229POPC   C1B43675  38.392  11.823   6.258
 3229POPC   C2B43676  38.110  11.789   6.617
 3229POPC   C3B43677  38.229  11.752   7.020
 3229POPC   C4B43678  38.644  11.886   7.149
 3230POPC   NC343679  31.135   7.340   5.645
 3230POPC   PO443680  31.764   7.335   5.445
 3230POPC   GL143681  31.603   7.274   5.813
 3230POPC   GL243682  31.537   7.594   5.851
 3230POPC   C1A43683  31.528   7.205   6.240
 3230POPC   D2A43684  31.561   6.962   6.605
 3230POPC   C3A43685  31.418   7.231   6.958
 3230POPC   C4A43686  31.090   7.118   7.285
 3230POPC   C1B43687  31.628   7.755   6.219
 3230POPC   C2B43688  31.444   7.622   6.590
 3230POPC   C3B43689  31.090   7.570   6.807
 3230POPC   C4B43690  31.120   7.634   7.207
 3231POPC   NC343691   6.014   2.351   5.191
 3231POPC   PO443692   5.668   1.971   5.550
 3231POPC   GL143693   5.747   2.088   5.939
 3231POPC   GL243694   6.101   2.043   5.979
 3231POPC   C1A43695   5.715   1.898   6.337
 3231POPC   D2A43696   5.678   1.654   6.709
 3231POPC   C3A43697   5.696   1.820   7.116
 3231POPC   C4A43698   5.962   2.147   7.251
 3231POPC   C1B43699   6.190   1.674   6.206
 3231POPC   C2B43700   6.216   1.605   6.591
 3231POPC   C3B43701   6.165   1.909   6.848
 3231POPC   C4B43702   6.450   1.978   7.165
 3232POPC   NC343703  30.099  10.103   5.446
 3232POPC   PO443704  29.746  10.658   5.369
 3232POPC   GL143705  29.923  10.677   5.810
 3232POPC   GL243706  30.174  10.430   5.833
 3232POPC   C1A43707  30.035  10.709   6.282
 3232POPC   D2A43708  29.830  10.499   6.660
 3232POPC   C3A43709  29.886  10.628   7.099
 3232POPC   C4A43710  29.711  10.671   7.506
 3232POPC   C1B43711  30.236  10.227   6.230
 3232POPC   C2B43712  30.328  10.396   6.646
 3232POPC   C3B43713  30.226  10.263   7.037
 3232POPC   C4B43714  30.073   9.923   7.206
 3233POPC   NC343715   2.549  12.987   5.653
 3233POPC   PO443716   1.834  12.999   5.540
 3233POPC   GL143717   1.829  12.829   5.925
 3233POPC   GL243718   2.177  12.742   5.913
 3233POPC   C1A43719   1.818  12.970   6.383
 3233POPC   D2A43720   2.072  12.862   6.769
 3233POPC   C3A43721   1.827  12.933   7.168
 3233POPC   C4A43722   1.836  13.187   7.542
 3233POPC   C1B43723   2.020  12.514   6.294
 3233POPC   C2B43724   1.972  12.355   6.703
 3233POPC   C3B43725   2.085  12.504   7.128
 3233POPC   C4B43726   2.329  12.905   7.321
 3234POPC   NC343727   4.037  22.678   5.450
 3234POPC   PO443728   4.527  23.079   5.396
 3234POPC   GL143729   4.231  23.097   5.735
 3234POPC   GL243730   4.231  23.459   5.781
 3234POPC   C1A43731   4.240  22.834   6.128
 3234POPC   D2A43732   4.495  22.727   6.510
 3234POPC   C3A43733   4.408  22.986   6.882
 3234POPC   C4A43734   4.003  23.053   7.083
 3234POPC   C1B43735   4.083  23.336   6.180
 3234POPC   C2B43736   4.076  23.321   6.634
 3234POPC   C3B43737   4.272  23.512   7.001
 3234POPC   C4B43738   4.571  23.469   7.360
 3235POPC   NC343739  44.733  38.494   5.342
 3235POPC   PO443740  44.105  38.573   5.630
 3235POPC   GL143741  44.447  38.464   5.880
 3235POPC   GL243742  44.778  38.647   5.838
 3235POPC   C1A43743  44.579  38.509   6.308
 3235POPC   D2A43744  44.589  38.673   6.718
 3235POPC   C3A43745  44.690  38.295   6.963
 3235POPC   C4A43746  44.517  38.161   7.338
 3235POPC   C1B43747   0.004  38.833   6.193
 3235POPC   C2B43748   0.154  38.731   6.617
 3235POPC   C3B43749  44.996  38.708   7.021
 3235POPC   C4B43750  44.921  38.835   7.402
 3236POPC   NC343751  22.730  17.915   5.190
 3236POPC   PO443752  22.697  18.511   5.240
 3236POPC   GL143753  22.941  18.237   5.590
 3236POPC   GL243754  22.783  17.940   5.728
 3236POPC   C1A43755  23.112  18.172   6.065
 3236POPC   D2A43756  23.202  18.458   6.452
 3236POPC   C3A43757  23.066  18.384   6.902
 3236POPC   C4A43758  22.860  18.564   7.287
 3236POPC   C1B43759  22.640  17.912   6.163
 3236POPC   C2B43760  22.820  17.885   6.576
 3236POPC   C3B43761  22.716  18.004   6.994
 3236POPC   C4B43762  22.914  18.093   7.368
 3237POPC   NC343763   1.391  30.933   5.362
 3237POPC   PO443764   0.850  30.696   5.461
 3237POPC   GL143765   1.086  30.714   5.819
 3237POPC   GL243766   1.160  30.357   5.800
 3237POPC   C1A43767   1.331  30.770   6.211
 3237POPC   D2A43768   1.401  31.017   6.594
 3237POPC   C3A43769   1.223  30.919   6.965
 3237POPC   C4A43770   0.933  30.660   7.134
 3237POPC   C1B43771   0.982  30.384   6.217
 3237POPC   C2B43772   1.106  30.532   6.638
 3237POPC   C3B43773   1.356  30.399   7.014
 3237POPC   C4B43774   1.236  30.309   7.398
 3238POPC   NC343775   9.725  17.166   5.399
 3238POPC   PO443776   9.548  16.551   5.270
 3238POPC   GL143777   9.605  16.464   5.713
 3238POPC   GL243778   9.687  16.803   5.781
 3238POPC   C1A43779   9.661  16.372   6.145
 3238POPC   D2A43780   9.584  16.578   6.559
 3238POPC   C3A43781   9.708  16.422   6.949
 3238POPC   C4A43782   9.493  16.666   7.215
 3238POPC   C1B43783   9.723  16.931   6.220
 3238POPC   C2B43784   9.938  16.950   6.641
 3238POPC   C3B43785   9.893  16.923   7.082
 3238POPC   C4B43786   9.540  17.151   7.362
 3239POPC   NC343787   4.978  27.993   5.456
 3239POPC   PO443788   5.197  27.376   5.231
 3239POPC   GL143789   4.981  27.498   5.640
 3239POPC   GL243790   5.217  27.694   5.820
 3239POPC   C1A43791   4.920  27.343   6.067
 3239POPC   D2A43792   5.151  27.198   6.424
 3239POPC   C3A43793   5.154  27.477   6.772
 3239POPC   C4A43794   5.241  27.422   7.203
 3239POPC   C1B43795   5.227  27.722   6.281
 3239POPC   C2B43796   5.542  27.809   6.615
 3239POPC   C3B43797   5.398  27.900   7.050
 3239POPC   C4B43798   5.350  27.803   7.492
 3240POPC   NC343799  28.974  16.587   5.544
 3240POPC   PO443800  29.490  16.802   5.220
 3240POPC   GL143801  29.250  16.972   5.704
 3240POPC   GL243802  29.224  16.652   5.974
 3240POPC   C1A43803  28.921  16.993   6.121
 3240POPC   D2A43804  29.058  16.792   6.526
 3240POPC   C3A43805  28.873  16.905   6.899
 3240POPC   C4A43806  29.033  16.916   7.295
 3240POPC   C1B43807  28.849  16.478   6.199
 3240POPC   C2B43808  28.909  16.286   6.602
 3240POPC   C3B43809  28.971  16.426   7.034
 3240POPC   C4B43810  28.894  16.468   7.488
 3241POPC   NC343811   8.048   9.384   5.474
 3241POPC   PO443812   8.087   8.684   5.491
 3241POPC   GL143813   8.095   9.002   5.830
 3241POPC   GL243814   8.420   9.144   5.875
 3241POPC   C1A43815   8.055   8.985   6.291
 3241POPC   D2A43816   8.034   8.658   6.638
 3241POPC   C3A43817   8.039   8.807   7.068
 3241POPC   C4A43818   8.175   8.742   7.520
 3241POPC   C1B43819   8.473   8.744   6.160
 3241POPC   C2B43820   8.569   8.708   6.632
 3241POPC   C3B43821   8.554   8.781   7.116
 3241POPC   C4B43822   8.362   9.151   7.290
 3242POPC   NC343823  11.141  12.126   5.403
 3242POPC   PO443824  11.798  12.345   5.540
 3242POPC   GL143825  11.404  12.237   5.813
 3242POPC   GL243826  11.208  11.878   5.829
 3242POPC   C1A43827  11.179  12.229   6.200
 3242POPC   D2A43828  11.234  12.364   6.613
 3242POPC   C3A43829  11.408  12.122   6.974
 3242POPC   C4A43830  11.275  12.214   7.423
 3242POPC   C1B43831  10.944  11.766   6.184
 3242POPC   C2B43832  11.114  11.797   6.601
 3242POPC   C3B43833  10.937  11.942   6.985
 3242POPC   C4B43834  10.829  11.787   7.370
 3243POPC   NC343835   8.574  12.592   5.408
 3243POPC   PO443836   8.185  13.139   5.526
 3243POPC   GL143837   8.261  13.077   5.934
 3243POPC   GL243838   8.345  12.749   5.846
 3243POPC   C1A43839   8.031  12.993   6.316
 3243POPC   D2A43840   7.916  13.015   6.759
 3243POPC   C3A43841   8.223  13.087   7.056
 3243POPC   C4A43842   8.105  13.176   7.473
 3243POPC   C1B43843   8.290  12.537   6.220
 3243POPC   C2B43844   8.309  12.675   6.643
 3243POPC   C3B43845   8.224  12.543   7.051
 3243POPC   C4B43846   8.352  12.744   7.428
 3244POPC   NC343847   5.571  19.264   5.618
 3244POPC   PO443848   5.852  18.767   5.270
 3244POPC   GL143849   6.080  18.804   5.759
 3244POPC   GL243850   6.017  19.164   5.872
 3244POPC   C1A43851   5.968  18.763   6.240
 3244POPC   D2A43852   5.720  18.910   6.592
 3244POPC   C3A43853   5.938  18.868   6.981
 3244POPC   C4A43854   5.871  18.832   7.416
 3244POPC   C1B43855   5.899  19.302   6.300
 3244POPC   C2B43856   5.922  19.335   6.771
 3244POPC   C3B43857   5.687  19.282   7.196
 3244POPC   C4B43858   5.577  19.148   7.676
 3245POPC   NC343859  41.070  40.193   5.459
 3245POPC   PO443860  40.599  39.718   5.367
 3245POPC   GL143861  40.696  39.881   5.739
 3245POPC   GL243862  40.989  39.689   5.802
 3245POPC   C1A43863  40.576  40.036   6.172
 3245POPC   D2A43864  40.781  40.110   6.588
 3245POPC   C3A43865  40.570  40.075   6.971
 3245POPC   C4A43866  40.704  40.126   7.376
 3245POPC   C1B43867  41.088  39.926   6.183
 3245POPC   C2B43868  41.243  39.897   6.621
 3245POPC   C3B43869  41.116  39.973   7.043
 3245POPC   C4B43870  41.005  39.736   7.416
 3246POPC   NC343871  23.708   4.404   4.934
 3246POPC   PO443872  23.898   4.113   5.505
 3246POPC   GL143873  23.785   4.233   5.896
 3246POPC   GL243874  23.428   4.248   5.855
 3246POPC   C1A43875  23.975   4.164   6.287
 3246POPC   D2A43876  23.953   4.382   6.669
 3246POPC   C3A43877  23.993   4.211   7.075
 3246POPC   C4A43878  23.865   4.420   7.476
 3246POPC   C1B43879  23.340   4.475   6.224
 3246POPC   C2B43880  23.431   4.322   6.609
 3246POPC   C3B43881  23.533   4.452   7.009
 3246POPC   C4B43882  23.319   4.364   7.381
 3247POPC   NC343883  26.673  13.136   5.440
 3247POPC   PO443884  27.034  12.643   5.386
 3247POPC   GL143885  26.841  12.748   5.768
 3247POPC   GL243886  27.089  13.021   5.771
 3247POPC   C1A43887  26.724  12.803   6.238
 3247POPC   D2A43888  26.530  12.629   6.630
 3247POPC   C3A43889  26.712  12.667   7.069
 3247POPC   C4A43890  26.767  13.065   7.318
 3247POPC   C1B43891  27.223  12.755   6.124
 3247POPC   C2B43892  27.255  12.907   6.529
 3247POPC   C3B43893  27.057  13.029   6.895
 3247POPC   C4B43894  27.184  12.773   7.234
 3248POPC   NC343895  32.646  30.741   5.377
 3248POPC   PO443896  33.290  30.531   5.599
 3248POPC   GL143897  32.980  30.725   5.786
 3248POPC   GL243898  32.663  30.545   5.863
 3248POPC   C1A43899  32.966  30.935   6.152
 3248POPC   D2A43900  32.745  30.835   6.507
 3248POPC   C3A43901  32.915  30.710   6.873
 3248POPC   C4A43902  32.988  30.911   7.257
 3248POPC   C1B43903  32.628  30.384   6.301
 3248POPC   C2B43904  33.060  30.432   6.433
 3248POPC   C3B43905  33.355  30.404   6.778
 3248POPC   C4B43906  33.211  30.441   7.191
 3249POPC   NC343907  26.465  26.432   5.442
 3249POPC   PO443908  26.075  25.950   5.174
 3249POPC   GL143909  26.024  26.082   5.625
 3249POPC   GL243910  26.111  25.759   5.795
 3249POPC   C1A43911  26.104  26.381   6.016
 3249POPC   D2A43912  26.050  26.502   6.469
 3249POPC   C3A43913  26.218  26.395   6.916
 3249POPC   C4A43914  26.039  26.274   7.343
 3249POPC   C1B43915  26.017  25.911   6.189
 3249POPC   C2B43916  26.144  26.007   6.582
 3249POPC   C3B43917  25.968  25.938   6.966
 3249POPC   C4B43918  26.249  25.808   7.288
 3250POPC   NC343919  13.526  18.419   5.427
 3250POPC   PO443920  13.316  18.102   5.934
 3250POPC   GL143921  13.705  18.210   6.067
 3250POPC   GL243922  13.775  18.505   5.870
 3250POPC   C1A43923  13.745  18.194   6.502
 3250POPC   D2A43924  13.346  18.277   6.691
 3250POPC   C3A43925  13.373  18.069   7.057
 3250POPC   C4A43926  13.841  17.986   7.062
 3250POPC   C1B43927  13.699  18.667   6.271
 3250POPC   C2B43928  13.946  18.671   6.636
 3250POPC   C3B43929  13.776  18.527   7.008
 3250POPC   C4B43930  13.356  18.575   7.107
 3251POPC   NC343931  35.561  28.947   5.419
 3251POPC   PO443932  34.924  29.314   5.369
 3251POPC   GL143933  35.220  29.208   5.733
 3251POPC   GL243934  35.564  29.350   5.739
 3251POPC   C1A43935  35.332  28.966   6.139
 3251POPC   D2A43936  35.551  28.832   6.530
 3251POPC   C3A43937  35.364  28.847   6.943
 3251POPC   C4A43938  35.356  29.053   7.344
 3251POPC   C1B43939  35.528  29.439   6.175
 3251POPC   C2B43940  35.661  29.313   6.554
 3251POPC   C3B43941  35.530  29.357   6.957
 3251POPC   C4B43942  35.855  29.500   7.216
 3252POPC   NC343943   5.830  41.649   5.083
 3252POPC   PO443944   5.741  41.253   5.563
 3252POPC   GL143945   5.853  41.561   5.843
 3252POPC   GL243946   6.198  41.676   5.727
 3252POPC   C1A43947   5.809  41.538   6.297
 3252POPC   D2A43948   5.822  41.400   6.733
 3252POPC   C3A43949   5.640  41.682   6.999
 3252POPC   C4A43950   5.705  41.694   7.422
 3252POPC   C1B43951   6.286  41.564   6.167
 3252POPC   C2B43952   6.161  41.751   6.598
 3252POPC   C3B43953   6.149  41.651   7.071
 3252POPC   C4B43954   6.262  41.205   7.204
 3253POPC   NC343955  10.005  28.061   5.482
 3253POPC   PO443956   9.520  28.499   5.532
 3253POPC   GL143957   9.593  28.439   5.974
 3253POPC   GL243958   9.598  28.079   5.874
 3253POPC   C1A43959   9.859  28.586   6.382
 3253POPC   D2A43960  10.103  28.536   6.800
 3253POPC   C3A43961   9.777  28.374   7.095
 3253POPC   C4A43962   9.439  28.367   7.392
 3253POPC   C1B43963   9.965  28.140   6.163
 3253POPC   C2B43964   9.937  28.073   6.622
 3253POPC   C3B43965  10.129  28.021   7.037
 3253POPC   C4B43966  10.318  27.659   7.218
 3254POPC   NC343967   7.136  40.061   5.495
 3254POPC   PO443968   7.783  40.048   5.469
 3254POPC   GL143969   7.536  40.016   5.827
 3254POPC   GL243970   7.732  40.158   6.033
 3254POPC   C1A43971   7.268  40.012   6.210
 3254POPC   D2A43972   7.164  39.902   6.639
 3254POPC   C3A43973   7.424  39.879   7.000
 3254POPC   C4A43974   7.315  39.783   7.416
 3254POPC   C1B43975   7.575  40.386   6.351
 3254POPC   C2B43976   7.470  40.326   6.755
 3254POPC   C3B43977   7.436  40.411   7.158
 3254POPC   C4B43978   7.630  40.179   7.478
 3255POPC   NC343979  24.283  19.053   5.347
 3255POPC   PO443980  23.597  18.867   5.492
 3255POPC   GL143981  23.552  18.871   5.924
 3255POPC   GL243982  23.883  18.927   5.935
 3255POPC   C1A43983  23.602  18.993   6.369
 3255POPC   D2A43984  23.851  19.130   6.739
 3255POPC   C3A43985  23.590  19.088   7.074
 3255POPC   C4A43986  23.299  18.777   7.165
 3255POPC   C1B43987  24.047  19.195   6.272
 3255POPC   C2B43988  24.241  19.552   6.456
 3255POPC   C3B43989  24.138  19.603   6.876
 3255POPC   C4B43990  24.061  19.302   7.182
 3256POPC   NC343991  21.192  28.186   5.519
 3256POPC   PO443992  21.822  28.079   5.385
 3256POPC   GL143993  21.646  28.206   5.761
 3256POPC   GL243994  21.591  28.571   5.792
 3256POPC   C1A43995  21.424  28.250   6.154
 3256POPC   D2A43996  21.609  28.266   6.550
 3256POPC   C3A43997  21.315  28.200   6.896
 3256POPC   C4A43998  21.107  28.175   7.312
 3256POPC   C1B43999  21.554  28.732   6.276
 3256POPC   C2B44000  21.375  28.712   6.709
 3256POPC   C3B44001  21.343  28.621   7.168
 3256POPC   C4B44002  21.121  28.692   7.583
 3257POPC   NC344003  25.975   4.644   5.550
 3257POPC   PO444004  26.103   4.015   5.376
 3257POPC   GL144005  25.902   4.048   5.776
 3257POPC   GL244006  26.223   4.016   5.909
 3257POPC   C1A44007  25.839   4.071   6.244
 3257POPC   D2A44008  25.825   4.395   6.533
 3257POPC   C3A44009  25.579   4.482   6.866
 3257POPC   C4A44010  25.838   4.774   7.099
 3257POPC   C1B44011  26.236   4.410   6.221
 3257POPC   C2B44012  26.290   4.376   6.717
 3257POPC   C3B44013  25.994   4.275   7.102
 3257POPC   C4B44014  26.053   4.070   7.550
 3258POPC   NC344015  25.418  16.549   5.521
 3258POPC   PO444016  24.956  17.005   5.459
 3258POPC   GL144017  25.021  16.709   5.808
 3258POPC   GL244018  25.355  16.777   5.972
 3258POPC   C1A44019  25.025  16.506   6.228
 3258POPC   D2A44020  25.221  16.771   6.548
 3258POPC   C3A44021  25.159  16.583   6.946
 3258POPC   C4A44022  25.322  16.540   7.333
 3258POPC   C1B44023  25.571  17.091   6.248
 3258POPC   C2B44024  25.533  17.266   6.675
 3258POPC   C3B44025  25.432  17.044   7.087
 3258POPC   C4B44026  25.621  16.922   7.494
 3259POPC   NC344027  27.447   4.286   5.358
 3259POPC   PO444028  27.985   3.918   5.608
 3259POPC   GL144029  27.725   4.269   5.810
 3259POPC   GL244030  27.469   4.577   5.792
 3259POPC   C1A44031  27.622   4.366   6.236
 3259POPC   D2A44032  27.393   4.400   6.604
 3259POPC   C3A44033  27.718   4.355   6.864
 3259POPC   C4A44034  27.686   4.049   7.174
 3259POPC   C1B44035  27.279   4.746   6.193
 3259POPC   C2B44036  27.137   4.835   6.612
 3259POPC   C3B44037  27.368   4.795   7.016
 3259POPC   C4B44038  27.631   4.556   7.316
 3260POPC   NC344039  10.326  15.396   5.387
 3260POPC   PO444040  10.829  14.941   5.354
 3260POPC   GL144041  10.640  14.954   5.766
 3260POPC   GL244042  10.666  15.326   5.772
 3260POPC   C1A44043  10.490  15.060   6.207
 3260POPC   D2A44044  10.330  15.445   6.435
 3260POPC   C3A44045  10.140  15.422   6.860
 3260POPC   C4A44046  10.089  15.276   7.280
 3260POPC   C1B44047  10.901  15.417   6.155
 3260POPC   C2B44048  10.814  15.266   6.570
 3260POPC   C3B44049  10.650  15.136   6.972
 3260POPC   C4B44050  10.929  15.296   7.277
 3261POPC   NC344051  30.931  11.505   5.476
 3261POPC   PO444052  30.537  11.089   5.717
 3261POPC   GL144053  30.761  11.322   5.950
 3261POPC   GL244054  30.840  11.039   6.139
 3261POPC   C1A44055  30.705  11.530   6.347
 3261POPC   D2A44056  30.889  11.239   6.618
 3261POPC   C3A44057  30.814  11.241   7.039
 3261POPC   C4A44058  30.911  11.630   7.210
 3261POPC   C1B44059  30.425  11.081   6.381
 3261POPC   C2B44060  30.208  10.901   6.746
 3261POPC   C3B44061  30.416  10.742   7.107
 3261POPC   C4B44062  30.699  10.932   7.434
 3262POPC   NC344063  43.012  10.064   5.489
 3262POPC   PO444064  43.301   9.453   5.307
 3262POPC   GL144065  43.171   9.622   5.687
 3262POPC   GL244066  42.842   9.520   5.639
 3262POPC   C1A44067  43.203   9.790   6.115
 3262POPC   D2A44068  43.394   9.897   6.484
 3262POPC   C3A44069  43.234   9.750   6.847
 3262POPC   C4A44070  43.210   9.920   7.226
 3262POPC   C1B44071  42.840   9.391   6.087
 3262POPC   C2B44072  42.878   9.561   6.506
 3262POPC   C3B44073  42.754   9.439   6.906
 3262POPC   C4B44074  42.977   9.441   7.277
 3263POPC   NC344075   4.688  10.103   5.275
 3263POPC   PO444076   4.046   9.761   5.340
 3263POPC   GL144077   4.262   9.920   5.725
 3263POPC   GL244078   4.634   9.868   5.719
 3263POPC   C1A44079   4.285   9.751   6.171
 3263POPC   D2A44080   4.131   9.551   6.562
 3263POPC   C3A44081   4.351   9.648   6.915
 3263POPC   C4A44082   4.248   9.571   7.305
 3263POPC   C1B44083   4.787   9.973   6.117
 3263POPC   C2B44084   4.613   9.962   6.547
 3263POPC   C3B44085   4.789   9.936   6.960
 3263POPC   C4B44086   4.778   9.611   7.273
 3264POPC   NC344087  26.648  44.811   5.648
 3264POPC   PO444088  27.149  44.442   5.309
 3264POPC   GL144089  26.921  44.331   5.735
 3264POPC   GL244090  26.554  44.338   5.752
 3264POPC   C1A44091  26.968  44.453   6.200
 3264POPC   D2A44092  27.126  44.719   6.562
 3264POPC   C3A44093  26.885  44.821   6.924
 3264POPC   C4A44094  26.906  44.657   7.313
 3264POPC   C1B44095  26.427  44.432   6.172
 3264POPC   C2B44096  26.589  44.514   6.586
 3264POPC   C3B44097  26.459  44.494   7.022
 3264POPC   C4B44098  26.326  44.470   7.442
 3265POPC   NC344099  25.957  16.547   5.290
 3265POPC   PO444100  26.374  17.013   5.441
 3265POPC   GL144101  26.202  16.728   5.781
 3265POPC   GL244102  25.847  16.648   5.813
 3265POPC   C1A44103  26.243  16.495   6.201
 3265POPC   D2A44104  26.099  16.598   6.631
 3265POPC   C3A44105  26.288  16.494   7.019
 3265POPC   C4A44106  26.152  16.687   7.396
 3265POPC   C1B44107  25.724  16.591   6.264
 3265POPC   C2B44108  25.610  16.437   6.684
 3265POPC   C3B44109  25.758  16.591   7.099
 3265POPC   C4B44110  25.768  16.437   7.581
 3266POPC   NC344111  37.116  26.679   5.083
 3266POPC   PO444112  36.571  27.105   5.242
 3266POPC   GL144113  36.744  26.945   5.654
 3266POPC   GL244114  36.482  26.861   5.860
 3266POPC   C1A44115  37.054  27.070   6.037
 3266POPC   D2A44116  37.210  26.930   6.438
 3266POPC   C3A44117  37.037  27.041   6.830
 3266POPC   C4A44118  37.065  26.719   7.108
 3266POPC   C1B44119  36.660  26.859   6.291
 3266POPC   C2B44120  36.573  26.721   6.697
 3266POPC   C3B44121  36.571  26.768   7.104
 3266POPC   C4B44122  36.325  26.923   7.365
 3267POPC   NC344123   5.891  44.760   5.423
 3267POPC   PO444124   5.865  44.143   5.308
 3267POPC   GL144125   5.836  44.288   5.745
 3267POPC   GL244126   5.539  44.520   5.824
 3267POPC   C1A44127   5.971  44.336   6.197
 3267POPC   D2A44128   6.222  44.488   6.553
 3267POPC   C3A44129   6.062  44.485   6.973
 3267POPC   C4A44130   5.741  44.332   7.245
 3267POPC   C1B44131   5.713  44.806   6.170
 3267POPC   C2B44132   5.880  44.880   6.612
 3267POPC   C3B44133   5.677  44.854   7.044
 3267POPC   C4B44134   5.794   0.111   7.395
 3268POPC   NC344135  41.474  11.685   5.584
 3268POPC   PO444136  41.832  11.095   5.321
 3268POPC   GL144137  41.619  11.170   5.768
 3268POPC   GL244138  41.284  11.316   5.872
 3268POPC   C1A44139  41.590  11.117   6.233
 3268POPC   D2A44140  41.474  11.229   6.650
 3268POPC   C3A44141  41.780  11.389   6.916
 3268POPC   C4A44142  41.912  11.071   7.165
 3268POPC   C1B44143  41.416  11.617   6.242
 3268POPC   C2B44144  41.349  11.765   6.683
 3268POPC   C3B44145  41.293  11.515   7.058
 3268POPC   C4B44146  41.558  11.368   7.404
 3269POPC   NC344147  43.344   5.237   5.560
 3269POPC   PO444148  42.778   5.505   5.558
 3269POPC   GL144149  42.961   5.411   5.983
 3269POPC   GL244150  43.141   5.083   6.004
 3269POPC   C1A44151  42.985   5.345   6.441
 3269POPC   D2A44152  43.194   5.018   6.669
 3269POPC   C3A44153  43.023   5.011   7.076
 3269POPC   C4A44154  42.751   5.057   7.419
 3269POPC   C1B44155  43.451   5.319   6.207
 3269POPC   C2B44156  43.599   5.323   6.611
 3269POPC   C3B44157  43.528   5.154   7.040
 3269POPC   C4B44158  43.625   5.388   7.386
 3270POPC   NC344159   5.752  35.995   5.251
 3270POPC   PO444160   6.074  36.462   5.535
 3270POPC   GL144161   5.836  36.183   5.740
 3270POPC   GL244162   6.051  35.972   5.875
 3270POPC   C1A44163   5.659  36.119   6.161
 3270POPC   D2A44164   5.685  35.958   6.597
 3270POPC   C3A44165   5.838  36.163   6.945
 3270POPC   C4A44166   5.753  36.367   7.325
 3270POPC   C1B44167   6.057  35.820   6.270
 3270POPC   C2B44168   6.224  35.894   6.656
 3270POPC   C3B44169   6.126  35.707   7.016
 3270POPC   C4B44170   5.949  35.888   7.365
 3271POPC   NC344171   3.586  13.009   4.976
 3271POPC   PO444172   3.461  13.614   5.331
 3271POPC   GL144173   3.437  13.622   5.749
 3271POPC   GL244174   3.750  13.495   5.775
 3271POPC   C1A44175   3.560  13.809   6.140
 3271POPC   D2A44176   3.606  13.615   6.539
 3271POPC   C3A44177   3.479  13.816   6.878
 3271POPC   C4A44178   3.631  13.765   7.256
 3271POPC   C1B44179   3.667  13.296   6.145
 3271POPC   C2B44180   3.353  13.171   6.434
 3271POPC   C3B44181   3.478  13.144   6.851
 3271POPC   C4B44182   3.290  13.078   7.259
 3272POPC   NC344183  10.206  22.143   5.440
 3272POPC   PO444184   9.524  22.214   5.579
 3272POPC   GL144185   9.731  22.039   5.900
 3272POPC   GL244186  10.088  22.136   5.930
 3272POPC   C1A44187   9.713  22.278   6.274
 3272POPC   D2A44188   9.363  22.463   6.483
 3272POPC   C3A44189   9.480  22.317   6.886
 3272POPC   C4A44190   9.752  22.450   7.237
 3272POPC   C1B44191  10.016  21.849   6.286
 3272POPC   C2B44192   9.750  21.900   6.641
 3272POPC   C3B44193   9.801  21.963   7.068
 3272POPC   C4B44194  10.168  22.140   7.229
 3273POPC   NC344195  13.756  37.060   5.555
 3273POPC   PO444196  13.637  36.435   5.424
 3273POPC   GL144197  13.535  36.681   5.817
 3273POPC   GL244198  13.864  36.825   5.986
 3273POPC   C1A44199  13.419  36.933   6.206
 3273POPC   D2A44200  13.572  37.011   6.629
 3273POPC   C3A44201  13.431  36.745   6.979
 3273POPC   C4A44202  13.607  36.887   7.364
 3273POPC   C1B44203  13.867  37.208   6.264
 3273POPC   C2B44204  14.067  37.183   6.704
 3273POPC   C3B44205  14.035  37.097   7.173
 3273POPC   C4B44206  14.114  36.881   7.592
 3274POPC   NC344207   6.134  34.996   5.528
 3274POPC   PO444208   6.003  35.651   5.463
 3274POPC   GL144209   5.911  35.485   5.828
 3274POPC   GL244210   5.604  35.704   5.817
 3274POPC   C1A44211   6.109  35.320   6.201
 3274POPC   D2A44212   6.288  35.377   6.609
 3274POPC   C3A44213   6.102  35.178   6.982
 3274POPC   C4A44214   6.012  35.353   7.385
 3274POPC   C1B44215   5.609  35.569   6.249
 3274POPC   C2B44216   5.790  35.478   6.670
 3274POPC   C3B44217   5.625  35.624   7.087
 3274POPC   C4B44218   5.585  35.593   7.566
 3275POPC   NC344219   2.947  40.155   5.392
 3275POPC   PO444220   2.690  39.524   5.348
 3275POPC   GL144221   2.736  39.762   5.785
 3275POPC   GL244222   2.919  40.092   5.880
 3275POPC   C1A44223   2.887  39.759   6.260
 3275POPC   D2A44224   3.183  40.017   6.547
 3275POPC   C3A44225   3.058  40.180   6.949
 3275POPC   C4A44226   2.889  39.938   7.238
 3275POPC   C1B44227   2.592  40.162   6.160
 3275POPC   C2B44228   2.693  40.121   6.577
 3275POPC   C3B44229   2.511  40.094   6.923
 3275POPC   C4B44230   2.324  40.113   7.274
 3276POPC   NC344231  41.097  27.330   5.620
 3276POPC   PO444232  40.722  27.822   5.547
 3276POPC   GL144233  40.809  27.611   5.939
 3276POPC   GL244234  41.139  27.720   5.967
 3276POPC   C1A44235  40.784  27.566   6.383
 3276POPC   D2A44236  41.147  27.762   6.574
 3276POPC   C3A44237  41.105  27.982   6.956
 3276POPC   C4A44238  41.013  27.796   7.327
 3276POPC   C1B44239  41.251  27.364   6.237
 3276POPC   C2B44240  41.126  27.249   6.626
 3276POPC   C3B44241  40.900  27.437   6.946
 3276POPC   C4B44242  41.099  27.291   7.305
 3277POPC   NC344243   4.795  42.579   5.591
 3277POPC   PO444244   5.050  41.971   5.651
 3277POPC   GL144245   5.076  42.312   5.939
 3277POPC   GL244246   5.422  42.322   5.885
 3277POPC   C1A44247   5.045  42.484   6.360
 3277POPC   D2A44248   5.141  42.235   6.734
 3277POPC   C3A44249   4.942  42.414   7.106
 3277POPC   C4A44250   4.869  42.770   7.334
 3277POPC   C1B44251   5.550  42.394   6.312
 3277POPC   C2B44252   5.502  42.618   6.711
 3277POPC   C3B44253   5.469  42.374   7.112
 3277POPC   C4B44254   5.227  41.953   7.165
 3278POPC   NC344255  16.528   5.562   5.535
 3278POPC   PO444256  16.807   6.087   5.278
 3278POPC   GL144257  16.773   6.007   5.713
 3278POPC   GL244258  16.802   6.336   5.830
 3278POPC   C1A44259  16.956   5.967   6.138
 3278POPC   D2A44260  16.932   5.821   6.555
 3278POPC   C3A44261  16.846   6.064   6.941
 3278POPC   C4A44262  16.931   5.896   7.381
 3278POPC   C1B44263  16.592   6.331   6.245
 3278POPC   C2B44264  16.368   6.106   6.572
 3278POPC   C3B44265  16.285   6.199   6.977
 3278POPC   C4B44266  16.442   5.943   7.276
 3279POPC   NC344267  23.567  37.230   5.436
 3279POPC   PO444268  24.014  36.817   5.423
 3279POPC   GL144269  23.800  36.917   5.816
 3279POPC   GL244270  23.554  36.697   5.766
 3279POPC   C1A44271  23.521  37.028   6.186
 3279POPC   D2A44272  23.701  37.094   6.581
 3279POPC   C3A44273  23.472  37.150   6.922
 3279POPC   C4A44274  23.629  37.085   7.328
 3279POPC   C1B44275  23.578  36.529   6.162
 3279POPC   C2B44276  23.767  36.571   6.544
 3279POPC   C3B44277  23.724  36.691   6.976
 3279POPC   C4B44278  23.429  36.474   7.242
 3280POPC   NC344279  36.415  14.790   5.362
 3280POPC   PO444280  35.949  15.287   5.435
 3280POPC   GL144281  36.058  15.106   5.784
 3280POPC   GL244282  36.393  15.087   5.781
 3280POPC   C1A44283  35.907  15.287   6.172
 3280POPC   D2A44284  35.640  15.211   6.522
 3280POPC   C3A44285  35.892  15.095   6.874
 3280POPC   C4A44286  35.937  15.298   7.249
 3280POPC   C1B44287  36.417  15.306   6.172
 3280POPC   C2B44288  36.206  15.430   6.557
 3280POPC   C3B44289  36.358  15.377   6.961
 3280POPC   C4B44290  36.413  15.131   7.340
 3281POPC   NC344291  30.676  23.867   5.327
 3281POPC   PO444292  30.121  23.910   5.577
 3281POPC   GL144293  30.472  23.815   5.847
 3281POPC   GL244294  30.827  23.946   5.824
 3281POPC   C1A44295  30.503  23.650   6.251
 3281POPC   D2A44296  30.544  23.379   6.575
 3281POPC   C3A44297  30.450  23.560   6.947
 3281POPC   C4A44298  30.131  23.463   7.208
 3281POPC   C1B44299  30.983  23.841   6.249
 3281POPC   C2B44300  30.814  23.797   6.665
 3281POPC   C3B44301  30.962  23.713   7.100
 3281POPC   C4B44302  31.051  23.812   7.549
 3282POPC   NC344303  14.229  29.011   5.280
 3282POPC   PO444304  14.650  29.531   5.427
 3282POPC   GL144305  14.422  29.246   5.698
 3282POPC   GL244306  14.078  29.269   5.718
 3282POPC   C1A44307  14.428  29.082   6.097
 3282POPC   D2A44308  14.540  29.357   6.401
 3282POPC   C3A44309  14.538  29.287   6.821
 3282POPC   C4A44310  14.610  29.022   7.174
 3282POPC   C1B44311  13.971  29.302   6.158
 3282POPC   C2B44312  13.947  29.200   6.590
 3282POPC   C3B44313  14.020  29.397   7.001
 3282POPC   C4B44314  14.368  29.484   7.259
 3283POPC   NC344315   1.979  12.564   5.438
 3283POPC   PO444316   2.029  11.838   5.469
 3283POPC   GL144317   2.218  12.161   5.725
 3283POPC   GL244318   1.968  12.280   5.856
 3283POPC   C1A44319   2.358  12.141   6.185
 3283POPC   D2A44320   2.221  11.917   6.580
 3283POPC   C3A44321   2.269  12.056   7.017
 3283POPC   C4A44322   2.174  12.119   7.509
 3283POPC   C1B44323   1.864  11.925   6.143
 3283POPC   C2B44324   1.672  11.819   6.534
 3283POPC   C3B44325   1.760  11.955   6.928
 3283POPC   C4B44326   1.910  11.774   7.260
 3284POPC   NC344327  40.463  44.623   5.635
 3284POPC   PO444328  41.154  44.440   5.530
 3284POPC   GL144329  40.924  44.476   5.900
 3284POPC   GL244330  40.565  44.437   6.090
 3284POPC   C1A44331  41.089  44.554   6.277
 3284POPC   D2A44332  40.835  44.806   6.483
 3284POPC   C3A44333  40.796  44.662   6.865
 3284POPC   C4A44334  40.782  44.610   7.254
 3284POPC   C1B44335  40.353  44.788   6.306
 3284POPC   C2B44336  40.378  44.942   6.723
 3284POPC   C3B44337  40.315  44.704   7.072
 3284POPC   C4B44338  40.384  44.299   7.286
 3285POPC   NC344339  42.998  19.738   5.338
 3285POPC   PO444340  43.620  19.627   5.444
 3285POPC   GL144341  43.345  19.629   5.831
 3285POPC   GL244342  42.989  19.720   5.859
 3285POPC   C1A44343  43.281  19.860   6.254
 3285POPC   D2A44344  43.068  19.764   6.644
 3285POPC   C3A44345  43.128  20.015   6.986
 3285POPC   C4A44346  43.496  20.086   7.184
 3285POPC   C1B44347  42.752  19.644   6.258
 3285POPC   C2B44348  42.662  19.476   6.702
 3285POPC   C3B44349  42.740  19.683   7.121
 3285POPC   C4B44350  43.098  19.717   7.397
 3286POPC   NC344351  20.155  31.315   5.517
 3286POPC   PO444352  19.732  31.725   5.194
 3286POPC   GL144353  19.788  31.634   5.694
 3286POPC   GL244354  19.703  31.279   5.882
 3286POPC   C1A44355  19.866  31.638   6.173
 3286POPC   D2A44356  19.843  31.390   6.571
 3286POPC   C3A44357  19.840  31.516   7.015
 3286POPC   C4A44358  19.527  31.431   7.341
 3286POPC   C1B44359  20.121  31.195   6.153
 3286POPC   C2B44360  20.343  31.165   6.559
 3286POPC   C3B44361  20.191  31.123   6.969
 3286POPC   C4B44362  19.958  31.148   7.370
 3287POPC   NC344363   5.049  21.542   5.069
 3287POPC   PO444364   5.322  21.062   5.450
 3287POPC   GL144365   5.202  21.058   5.900
 3287POPC   GL244366   5.084  21.393   5.926
 3287POPC   C1A44367   5.223  21.057   6.390
 3287POPC   D2A44368   5.122  21.356   6.766
 3287POPC   C3A44369   5.046  21.228   7.195
 3287POPC   C4A44370   5.200  21.172   7.596
 3287POPC   C1B44371   5.388  21.526   6.290
 3287POPC   C2B44372   5.575  21.564   6.713
 3287POPC   C3B44373   5.465  21.513   7.148
 3287POPC   C4B44374   5.244  21.655   7.494
 3288POPC   NC344375   7.707  27.090   5.216
 3288POPC   PO444376   8.215  27.461   5.507
 3288POPC   GL144377   8.164  27.448   5.921
 3288POPC   GL244378   8.458  27.245   5.955
 3288POPC   C1A44379   8.064  27.700   6.319
 3288POPC   D2A44380   8.116  27.892   6.726
 3288POPC   C3A44381   8.087  27.616   7.083
 3288POPC   C4A44382   8.401  27.641   7.387
 3288POPC   C1B44383   8.440  27.337   6.361
 3288POPC   C2B44384   8.455  27.427   6.761
 3288POPC   C3B44385   8.422  27.213   7.101
 3288POPC   C4B44386   8.347  27.149   7.541
 3289POPC   NC344387  36.247  41.279   5.338
 3289POPC   PO444388  36.027  41.793   5.714
 3289POPC   GL144389  36.043  41.399   5.934
 3289POPC   GL244390  36.344  41.204   5.824
 3289POPC   C1A44391  35.895  41.415   6.375
 3289POPC   D2A44392  36.090  41.676   6.711
 3289POPC   C3A44393  35.947  41.655   7.124
 3289POPC   C4A44394  35.751  41.938   7.410
 3289POPC   C1B44395  36.478  41.115   6.205
 3289POPC   C2B44396  36.305  41.175   6.601
 3289POPC   C3B44397  36.349  41.317   6.999
 3289POPC   C4B44398  36.468  41.605   7.272
 3290POPC   NC344399  38.004   6.225   5.472
 3290POPC   PO444400  37.788   5.632   5.210
 3290POPC   GL144401  37.790   5.896   5.737
 3290POPC   GL244402  37.483   6.061   5.860
 3290POPC   C1A44403  37.896   6.084   6.187
 3290POPC   D2A44404  37.939   5.852   6.589
 3290POPC   C3A44405  37.811   5.936   7.015
 3290POPC   C4A44406  37.834   5.657   7.393
 3290POPC   C1B44407  37.467   5.835   6.266
 3290POPC   C2B44408  37.316   5.838   6.663
 3290POPC   C3B44409  37.294   6.073   7.005
 3290POPC   C4B44410  37.400   5.898   7.368
 3291POPC   NC344411  34.355   1.529   5.598
 3291POPC   PO444412  34.923   1.804   5.350
 3291POPC   GL144413  34.853   1.429   5.644
 3291POPC   GL244414  34.630   1.108   5.595
 3291POPC   C1A44415  34.723   1.330   6.090
 3291POPC   D2A44416  34.760   1.380   6.527
 3291POPC   C3A44417  34.509   1.415   6.907
 3291POPC   C4A44418  34.896   1.273   7.119
 3291POPC   C1B44419  34.353   0.978   5.953
 3291POPC   C2B44420  34.376   1.011   6.400
 3291POPC   C3B44421  34.613   0.940   6.769
 3291POPC   C4B44422  34.489   0.991   7.202
 3292POPC   NC344423  40.745  11.058   5.307
 3292POPC   PO444424  41.024  11.676   5.407
 3292POPC   GL144425  40.773  11.398   5.707
 3292POPC   GL244426  40.450  11.515   5.868
 3292POPC   C1A44427  40.868  11.208   6.118
 3292POPC   D2A44428  41.024  11.392   6.501
 3292POPC   C3A44429  40.970  11.162   6.882
 3292POPC   C4A44430  40.978  11.174   7.330
 3292POPC   C1B44431  40.369  11.178   6.160
 3292POPC   C2B44432  40.585  11.054   6.534
 3292POPC   C3B44433  40.462  11.111   6.953
 3292POPC   C4B44434  40.364  11.459   7.214
 3293POPC   NC344435  20.040  32.015   5.417
 3293POPC   PO444436  19.951  32.675   5.420
 3293POPC   GL144437  19.931  32.500   5.910
 3293POPC   GL244438  19.876  32.106   5.951
 3293POPC   C1A44439  19.899  32.397   6.379
 3293POPC   D2A44440  19.939  32.421   6.829
 3293POPC   C3A44441  19.655  32.321   7.135
 3293POPC   C4A44442  19.931  32.361   7.453
 3293POPC   C1B44443  20.195  31.987   6.275
 3293POPC   C2B44444  20.031  31.909   6.680
 3293POPC   C3B44445  20.061  31.983   7.111
 3293POPC   C4B44446  19.735  31.886   7.404
 3294POPC   NC344447   2.165   6.669   5.322
 3294POPC   PO444448   1.502   6.668   5.404
 3294POPC   GL144449   1.798   6.547   5.784
 3294POPC   GL244450   2.190   6.535   5.803
 3294POPC   C1A44451   1.940   6.527   6.226
 3294POPC   D2A44452   1.817   6.793   6.535
 3294POPC   C3A44453   1.765   6.510   6.887
 3294POPC   C4A44454   1.667   6.452   7.317
 3294POPC   C1B44455   2.372   6.850   6.085
 3294POPC   C2B44456   2.327   7.034   6.507
 3294POPC   C3B44457   2.195   6.818   6.867
 3294POPC   C4B44458   2.200   6.546   7.210
 3295POPC   NC344459  15.788   3.855   5.495
 3295POPC   PO444460  16.406   3.579   5.462
 3295POPC   GL144461  16.152   3.407   5.812
 3295POPC   GL244462  15.862   3.596   5.944
 3295POPC   C1A44463  15.951   3.157   6.139
 3295POPC   D2A44464  15.826   3.369   6.518
 3295POPC   C3A44465  15.953   3.176   6.901
 3295POPC   C4A44466  15.770   3.141   7.294
 3295POPC   C1B44467  16.258   3.570   6.266
 3295POPC   C2B44468  16.290   3.562   6.726
 3295POPC   C3B44469  16.055   3.740   7.032
 3295POPC   C4B44470  16.206   4.101   7.233
 3296POPC   NC344471   5.930   3.201   5.380
 3296POPC   PO444472   5.547   3.730   5.213
 3296POPC   GL144473   5.863   3.698   5.613
 3296POPC   GL244474   6.223   3.836   5.732
 3296POPC   C1A44475   5.851   3.620   6.088
 3296POPC   D2A44476   5.833   3.318   6.473
 3296POPC   C3A44477   5.701   3.259   6.923
 3296POPC   C4A44478   6.015   3.297   7.226
 3296POPC   C1B44479   6.265   3.976   6.185
 3296POPC   C2B44480   5.967   3.884   6.507
 3296POPC   C3B44481   5.900   3.728   6.913
 3296POPC   C4B44482   6.094   3.815   7.328
 3297POPC   NC344483  34.833  33.666   5.287
 3297POPC   PO444484  34.411  34.164   5.497
 3297POPC   GL144485  34.702  33.949   5.739
 3297POPC   GL244486  34.603  33.603   5.760
 3297POPC   C1A44487  34.888  33.857   6.148
 3297POPC   D2A44488  34.753  33.689   6.521
 3297POPC   C3A44489  34.895  33.829   6.922
 3297POPC   C4A44490  34.917  34.093   7.273
 3297POPC   C1B44491  34.326  33.792   6.094
 3297POPC   C2B44492  34.275  33.915   6.520
 3297POPC   C3B44493  34.385  33.647   6.896
 3297POPC   C4B44494  34.516  33.762   7.315
 3298POPC   NC344495  35.850  32.001   5.218
 3298POPC   PO444496  36.353  32.336   5.479
 3298POPC   GL144497  36.191  32.125   5.781
 3298POPC   GL244498  35.928  32.395   5.783
 3298POPC   C1A44499  36.391  32.008   6.169
 3298POPC   D2A44500  36.362  32.181   6.566
 3298POPC   C3A44501  36.238  31.901   6.861
 3298POPC   C4A44502  36.298  32.043   7.227
 3298POPC   C1B44503  35.866  32.184   6.172
 3298POPC   C2B44504  35.860  32.080   6.589
 3298POPC   C3B44505  35.849  32.270   6.984
 3298POPC   C4B44506  35.790  32.146   7.400
 3299POPC   NC344507  21.626  34.003   5.332
 3299POPC   PO444508  20.976  33.802   5.250
 3299POPC   GL144509  21.228  33.803   5.656
 3299POPC   GL244510  21.543  33.600   5.691
 3299POPC   C1A44511  21.367  34.009   6.055
 3299POPC   D2A44512  21.583  33.983   6.479
 3299POPC   C3A44513  21.404  34.050   6.891
 3299POPC   C4A44514  21.280  33.808   7.228
 3299POPC   C1B44515  21.753  33.660   6.100
 3299POPC   C2B44516  21.823  33.520   6.542
 3299POPC   C3B44517  21.634  33.522   6.968
 3299POPC   C4B44518  21.669  33.388   7.397
 3300POPC   NC344519  10.815  27.690   5.584
 3300POPC   PO444520  11.436  27.339   5.536
 3300POPC   GL144521  11.242  27.464   5.887
 3300POPC   GL244522  11.303  27.801   5.825
 3300POPC   C1A44523  11.419  27.525   6.303
 3300POPC   D2A44524  11.254  27.593   6.709
 3300POPC   C3A44525  11.532  27.675   7.013
 3300POPC   C4A44526  11.490  27.928   7.398
 3300POPC   C1B44527  11.162  27.948   6.184
 3300POPC   C2B44528  10.979  28.013   6.567
 3300POPC   C3B44529  11.139  28.020   6.982
 3300POPC   C4B44530  10.915  28.079   7.359
 3301POPC   NC344531   9.875  14.690   5.422
 3301POPC   PO444532   9.261  14.371   5.435
 3301POPC   GL144533   9.567  14.462   5.780
 3301POPC   GL244534   9.851  14.211   5.844
 3301POPC   C1A44535   9.538  14.394   6.215
 3301POPC   D2A44536   9.430  14.286   6.612
 3301POPC   C3A44537   9.768  14.245   6.897
 3301POPC   C4A44538   9.879  14.514   7.216
 3301POPC   C1B44539  10.027  14.500   6.128
 3301POPC   C2B44540   9.890  14.581   6.548
 3301POPC   C3B44541  10.215  14.653   6.854
 3301POPC   C4B44542  10.307  14.807   7.268
 3302POPC   NC344543   6.866  43.364   5.134
 3302POPC   PO444544   6.386  42.920   5.286
 3302POPC   GL144545   6.574  42.851   5.685
 3302POPC   GL244546   6.837  43.081   5.697
 3302POPC   C1A44547   6.624  42.906   6.140
 3302POPC   D2A44548   6.556  43.149   6.498
 3302POPC   C3A44549   6.578  42.961   6.927
 3302POPC   C4A44550   6.404  43.033   7.340
 3302POPC   C1B44551   6.957  43.295   6.081
 3302POPC   C2B44552   7.078  43.255   6.499
 3302POPC   C3B44553   6.856  43.391   6.839
 3302POPC   C4B44554   6.857  43.353   7.265
 3303POPC   NC344555  18.670  33.822   5.201
 3303POPC   PO444556  18.133  33.898   5.405
 3303POPC   GL144557  18.283  33.857   5.818
 3303POPC   GL244558  18.636  33.908   5.797
 3303POPC   C1A44559  18.191  33.857   6.266
 3303POPC   D2A44560  18.402  33.808   6.682
 3303POPC   C3A44561  18.336  34.077   7.051
 3303POPC   C4A44562  18.361  33.940   7.497
 3303POPC   C1B44563  18.702  33.946   6.265
 3303POPC   C2B44564  18.863  34.023   6.711
 3303POPC   C3B44565  18.812  34.199   7.125
 3303POPC   C4B44566  18.887  34.032   7.548
 3304POPC   NC344567  38.920  11.229   5.417
 3304POPC   PO444568  39.573  11.227   5.409
 3304POPC   GL144569  39.472  11.215   5.835
 3304POPC   GL244570  39.159  11.373   5.840
 3304POPC   C1A44571  39.486  11.354   6.272
 3304POPC   D2A44572  39.427  11.684   6.571
 3304POPC   C3A44573  39.552  11.652   7.005
 3304POPC   C4A44574  39.485  11.253   7.200
 3304POPC   C1B44575  38.996  11.193   6.215
 3304POPC   C2B44576  39.109  11.254   6.649
 3304POPC   C3B44577  39.043  11.526   6.996
 3304POPC   C4B44578  38.975  11.633   7.427
 3305POPC   NC344579  27.824  10.002   5.381
 3305POPC   PO444580  27.128   9.903   5.498
 3305POPC   GL144581  27.506   9.834   5.763
 3305POPC   GL244582  27.650   9.501   5.827
 3305POPC   C1A44583  27.581   9.954   6.180
 3305POPC   D2A44584  27.247  10.067   6.491
 3305POPC   C3A44585  27.360  10.089   6.908
 3305POPC   C4A44586  27.549   9.963   7.318
 3305POPC   C1B44587  27.446   9.467   6.233
 3305POPC   C2B44588  27.579   9.655   6.625
 3305POPC   C3B44589  27.804   9.615   6.988
 3305POPC   C4B44590  27.882   9.262   7.236
 3306POPC   NC344591  21.454   4.218   5.344
 3306POPC   PO444592  20.899   4.555   5.585
 3306POPC   GL144593  21.332   4.502   5.779
 3306POPC   GL244594  21.502   4.194   5.863
 3306POPC   C1A44595  21.563   4.517   6.220
 3306POPC   D2A44596  21.540   4.324   6.625
 3306POPC   C3A44597  21.147   4.391   6.915
 3306POPC   C4A44598  21.135   4.737   7.254
 3306POPC   C1B44599  21.740   4.005   6.214
 3306POPC   C2B44600  21.681   3.822   6.644
 3306POPC   C3B44601  21.529   4.030   7.036
 3306POPC   C4B44602  21.133   3.969   7.215
 3307POPC   NC344603  13.950   3.505   5.272
 3307POPC   PO444604  14.528   3.588   5.247
 3307POPC   GL144605  14.277   3.625   5.665
 3307POPC   GL244606  14.073   3.315   5.751
 3307POPC   C1A44607  14.111   3.708   6.110
 3307POPC   D2A44608  13.940   3.662   6.552
 3307POPC   C3A44609  14.285   3.774   6.877
 3307POPC   C4A44610  14.651   3.546   7.037
 3307POPC   C1B44611  14.106   3.149   6.194
 3307POPC   C2B44612  14.043   2.954   6.586
 3307POPC   C3B44613  14.016   3.268   6.892
 3307POPC   C4B44614  14.220   3.401   7.246
 3308POPC   NC344615  31.538  36.391   5.134
 3308POPC   PO444616  31.336  36.991   5.410
 3308POPC   GL144617  31.472  36.914   5.836
 3308POPC   GL244618  31.641  37.172   5.963
 3308POPC   C1A44619  31.522  36.762   6.277
 3308POPC   D2A44620  31.338  36.532   6.622
 3308POPC   C3A44621  31.393  36.799   6.993
 3308POPC   C4A44622  31.729  36.836   7.297
 3308POPC   C1B44623  31.841  37.154   6.348
 3308POPC   C2B44624  31.812  36.971   6.747
 3308POPC   C3B44625  31.697  37.269   7.046
 3308POPC   C4B44626  31.517  37.341   7.436
 3309POPC   NC344627  36.798  32.449   5.393
 3309POPC   PO444628  37.043  31.774   5.628
 3309POPC   GL144629  37.022  32.183   5.807
 3309POPC   GL244630  36.689  32.308   5.866
 3309POPC   C1A44631  37.077  32.346   6.226
 3309POPC   D2A44632  37.197  32.116   6.606
 3309POPC   C3A44633  37.119  32.344   6.961
 3309POPC   C4A44634  37.135  32.487   7.360
 3309POPC   C1B44635  36.533  32.516   6.208
 3309POPC   C2B44636  36.751  32.534   6.613
 3309POPC   C3B44637  36.604  32.440   7.020
 3309POPC   C4B44638  36.231  32.540   7.264
 3310POPC   NC344639  24.955  38.502   5.379
 3310POPC   PO444640  24.360  38.068   5.441
 3310POPC   GL144641  24.537  38.401   5.707
 3310POPC   GL244642  24.860  38.286   5.846
 3310POPC   C1A44643  24.518  38.569   6.143
 3310POPC   D2A44644  24.426  38.914   6.430
 3310POPC   C3A44645  24.440  38.785   6.847
 3310POPC   C4A44646  24.444  38.486   7.196
 3310POPC   C1B44647  24.863  38.174   6.312
 3310POPC   C2B44648  24.591  38.133   6.650
 3310POPC   C3B44649  24.693  38.042   7.068
 3310POPC   C4B44650  24.753  38.181   7.495
 3311POPC   NC344651   4.434  40.663   5.432
 3311POPC   PO444652   3.819  40.960   5.453
 3311POPC   GL144653   4.038  40.776   5.844
 3311POPC   GL244654   4.415  40.720   5.917
 3311POPC   C1A44655   4.098  40.671   6.297
 3311POPC   D2A44656   4.289  40.748   6.686
 3311POPC   C3A44657   3.994  40.632   6.994
 3311POPC   C4A44658   4.161  40.652   7.366
 3311POPC   C1B44659   4.601  41.077   6.076
 3311POPC   C2B44660   4.677  41.077   6.510
 3311POPC   C3B44661   4.594  41.170   6.913
 3311POPC   C4B44662   4.583  41.012   7.329
 3312POPC   NC344663  12.270  31.404   5.386
 3312POPC   PO444664  11.902  31.866   5.656
 3312POPC   GL144665  12.016  31.540   5.888
 3312POPC   GL244666  12.335  31.353   5.881
 3312POPC   C1A44667  12.111  31.487   6.313
 3312POPC   D2A44668  12.090  31.247   6.675
 3312POPC   C3A44669  12.207  31.461   7.054
 3312POPC   C4A44670  12.239  31.877   7.235
 3312POPC   C1B44671  12.339  31.042   6.248
 3312POPC   C2B44672  12.451  30.890   6.683
 3312POPC   C3B44673  12.584  31.077   7.084
 3312POPC   C4B44674  12.333  31.211   7.488
 3313POPC   NC344675  35.545  44.989   5.410
 3313POPC   PO444676  34.967  44.522   5.477
 3313POPC   GL144677  35.203  44.457   5.827
 3313POPC   GL244678  35.528  44.610   5.782
 3313POPC   C1A44679  35.352  44.619   6.258
 3313POPC   D2A44680  35.308  44.502   6.650
 3313POPC   C3A44681  35.531  44.600   6.993
 3313POPC   C4A44682  35.370  44.368   7.357
 3313POPC   C1B44683  35.638  44.979   6.067
 3313POPC   C2B44684  35.685  44.988   6.526
 3313POPC   C3B44685  35.637   0.122   6.964
 3313POPC   C4B44686  35.417  44.998   7.335
 3314POPC   NC344687  27.210  20.715   5.248
 3314POPC   PO444688  27.796  20.381   5.415
 3314POPC   GL144689  27.583  20.494   5.753
 3314POPC   GL244690  27.533  20.834   5.675
 3314POPC   C1A44691  27.655  20.345   6.152
 3314POPC   D2A44692  27.923  20.343   6.490
 3314POPC   C3A44693  27.627  20.216   6.808
 3314POPC   C4A44694  27.407  20.392   7.171
 3314POPC   C1B44695  27.820  20.833   6.057
 3314POPC   C2B44696  27.669  20.783   6.467
 3314POPC   C3B44697  27.736  20.709   6.891
 3314POPC   C4B44698  27.502  20.917   7.190
 3315POPC   NC344699  30.963  20.030   5.517
 3315POPC   PO444700  30.220  20.176   5.404
 3315POPC   GL144701  30.417  20.001   5.766
 3315POPC   GL244702  30.479  19.689   5.702
 3315POPC   C1A44703  30.691  20.064   6.139
 3315POPC   D2A44704  30.908  19.840   6.465
 3315POPC   C3A44705  30.701  19.917   6.850
 3315POPC   C4A44706  30.839  20.028   7.251
 3315POPC   C1B44707  30.670  19.556   6.096
 3315POPC   C2B44708  30.735  19.317   6.461
 3315POPC   C3B44709  30.764  19.335   6.890
 3315POPC   C4B44710  30.713  19.538   7.253
 3316POPC   NC344711  13.415  26.353   5.704
 3316POPC   PO444712  12.998  25.909   5.398
 3316POPC   GL144713  12.877  26.075   5.795
 3316POPC   GL244714  12.799  25.770   5.955
 3316POPC   C1A44715  13.054  26.149   6.214
 3316POPC   D2A44716  13.191  25.997   6.604
 3316POPC   C3A44717  13.092  26.338   6.869
 3316POPC   C4A44718  13.087  26.280   7.286
 3316POPC   C1B44719  12.558  26.009   6.264
 3316POPC   C2B44720  12.672  26.034   6.684
 3316POPC   C3B44721  12.855  25.898   7.052
 3316POPC   C4B44722  12.568  25.940   7.392
 3317POPC   NC344723  10.122  25.244   5.454
 3317POPC   PO444724  10.717  25.601   5.584
 3317POPC   GL144725  10.437  25.404   5.862
 3317POPC   GL244726  10.418  25.062   5.862
 3317POPC   C1A44727  10.386  25.416   6.321
 3317POPC   D2A44728  10.670  25.566   6.655
 3317POPC   C3A44729  10.531  25.462   7.076
 3317POPC   C4A44730  10.717  25.352   7.458
 3317POPC   C1B44731  10.640  24.978   6.290
 3317POPC   C2B44732  10.538  25.052   6.718
 3317POPC   C3B44733  10.608  24.948   7.139
 3317POPC   C4B44734  10.703  24.839   7.535
 3318POPC   NC344735  15.840  11.867   5.463
 3318POPC   PO444736  15.407  11.510   5.526
 3318POPC   GL144737  15.528  11.801   5.903
 3318POPC   GL244738  15.897  11.919   5.979
 3318POPC   C1A44739  15.567  11.947   6.367
 3318POPC   D2A44740  15.717  12.300   6.629
 3318POPC   C3A44741  15.908  12.203   7.012
 3318POPC   C4A44742  16.109  12.039   7.384
 3318POPC   C1B44743  16.079  11.985   6.425
 3318POPC   C2B44744  16.339  11.950   6.840
 3318POPC   C3B44745  16.615  12.019   7.214
 3318POPC   C4B44746  16.538  12.042   7.685
 3319POPC   NC344747   3.798  10.149   5.419
 3319POPC   PO444748   3.382  10.722   5.412
 3319POPC   GL144749   3.545  10.507   5.762
 3319POPC   GL244750   3.426  10.155   5.780
 3319POPC   C1A44751   3.354  10.490   6.191
 3319POPC   D2A44752   3.244  10.661   6.600
 3319POPC   C3A44753   3.585  10.888   6.804
 3319POPC   C4A44754   3.618  10.828   7.244
 3319POPC   C1B44755   3.793  10.209   6.106
 3319POPC   C2B44756   3.799  10.488   6.495
 3319POPC   C3B44757   3.642  10.399   6.900
 3319POPC   C4B44758   3.597  10.236   7.332
 3320POPC   NC344759  27.673  10.912   5.766
 3320POPC   PO444760  27.936  10.445   5.268
 3320POPC   GL144761  27.775  10.320   5.765
 3320POPC   GL244762  27.448  10.352   5.723
 3320POPC   C1A44763  27.875  10.374   6.245
 3320POPC   D2A44764  27.800  10.126   6.633
 3320POPC   C3A44765  27.810  10.312   7.047
 3320POPC   C4A44766  27.737  10.585   7.418
 3320POPC   C1B44767  27.381  10.424   6.151
 3320POPC   C2B44768  27.548  10.597   6.569
 3320POPC   C3B44769  27.481  10.708   6.994
 3320POPC   C4B44770  27.280  10.412   7.288
 3321POPC   NC344771  44.056   7.702   5.407
 3321POPC   PO444772  44.041   7.033   5.536
 3321POPC   GL144773  44.211   7.376   5.790
 3321POPC   GL244774  43.869   7.456   5.857
 3321POPC   C1A44775  44.149   7.651   6.211
 3321POPC   D2A44776  43.801   7.538   6.458
 3321POPC   C3A44777  43.896   7.596   6.885
 3321POPC   C4A44778  43.746   7.890   7.176
 3321POPC   C1B44779  44.033   7.138   6.196
 3321POPC   C2B44780  43.977   7.066   6.619
 3321POPC   C3B44781  44.129   7.164   7.034
 3321POPC   C4B44782  43.934   7.175   7.429
 3322POPC   NC344783  25.307  32.584   5.385
 3322POPC   PO444784  25.368  31.910   5.399
 3322POPC   GL144785  25.323  32.189   5.811
 3322POPC   GL244786  25.192  32.533   5.865
 3322POPC   C1A44787  25.262  32.267   6.283
 3322POPC   D2A44788  25.106  32.433   6.649
 3322POPC   C3A44789  25.193  32.122   6.908
 3322POPC   C4A44790  25.402  32.087   7.277
 3322POPC   C1B44791  25.572  32.626   6.105
 3322POPC   C2B44792  25.713  32.453   6.496
 3322POPC   C3B44793  25.558  32.492   6.880
 3322POPC   C4B44794  25.253  32.568   7.174
 3323POPC   NC344795   5.590  20.719   5.302
 3323POPC   PO444796   6.100  20.440   5.545
 3323POPC   GL144797   5.751  20.562   5.826
 3323POPC   GL244798   5.963  20.762   5.939
 3323POPC   C1A44799   5.676  20.654   6.316
 3323POPC   D2A44800   5.863  20.496   6.678
 3323POPC   C3A44801   5.634  20.553   7.037
 3323POPC   C4A44802   5.662  20.537   7.489
 3323POPC   C1B44803   6.174  20.936   6.232
 3323POPC   C2B44804   6.269  20.819   6.591
 3323POPC   C3B44805   6.033  20.913   6.929
 3323POPC   C4B44806   6.062  20.716   7.268
 3324POPC   NC344807  33.566  28.462   5.434
 3324POPC   PO444808  33.826  27.896   5.344
 3324POPC   GL144809  33.742  28.094   5.753
 3324POPC   GL244810  34.047  28.294   5.716
 3324POPC   C1A44811  33.588  28.393   6.097
 3324POPC   D2A44812  33.690  28.543   6.517
 3324POPC   C3A44813  33.453  28.339   6.857
 3324POPC   C4A44814  33.534  28.395   7.293
 3324POPC   C1B44815  34.103  28.285   6.171
 3324POPC   C2B44816  34.010  28.153   6.593
 3324POPC   C3B44817  33.946  28.390   6.971
 3324POPC   C4B44818  33.987  28.196   7.357
 3325POPC   NC344819   9.630  12.993   5.511
 3325POPC   PO444820   9.040  12.628   5.437
 3325POPC   GL144821   8.861  12.709   5.845
 3325POPC   GL244822   8.797  13.063   5.856
 3325POPC   C1A44823   8.761  12.753   6.283
 3325POPC   D2A44824   8.910  12.528   6.633
 3325POPC   C3A44825   8.715  12.691   7.005
 3325POPC   C4A44826   8.863  12.805   7.398
 3325POPC   C1B44827   9.181  13.024   6.134
 3325POPC   C2B44828   9.164  12.962   6.583
 3325POPC   C3B44829   9.211  12.836   7.009
 3325POPC   C4B44830   9.233  13.199   7.237
 3326POPC   NC344831  31.413  14.947   5.500
 3326POPC   PO444832  31.544  15.558   5.319
 3326POPC   GL144833  31.404  15.416   5.755
 3326POPC   GL244834  31.706  15.241   5.812
 3326POPC   C1A44835  31.215  15.229   6.177
 3326POPC   D2A44836  31.102  14.962   6.566
 3326POPC   C3A44837  31.345  14.971   6.996
 3326POPC   C4A44838  31.461  15.368   7.260
 3326POPC   C1B44839  31.720  15.169   6.241
 3326POPC   C2B44840  31.578  15.279   6.635
 3326POPC   C3B44841  31.824  15.172   6.969
 3326POPC   C4B44842  31.885  14.958   7.341
 3327POPC   NC344843  44.369  40.309   5.362
 3327POPC   PO444844  44.776  39.788   5.495
 3327POPC   GL144845  44.663  39.936   5.894
 3327POPC   GL244846  44.457  40.205   5.841
 3327POPC   C1A44847  44.738  39.922   6.334
 3327POPC   D2A44848  44.490  39.847   6.703
 3327POPC   C3A44849  44.742  39.635   6.993
 3327POPC   C4A44850  44.913  39.871   7.318
 3327POPC   C1B44851  44.403  40.473   6.162
 3327POPC   C2B44852  44.534  40.345   6.554
 3327POPC   C3B44853  44.410  40.363   6.984
 3327POPC   C4B44854  44.522  40.198   7.402
 3328POPC   NC344855   7.075   3.609   5.128
 3328POPC   PO444856   6.446   3.361   5.451
 3328POPC   GL144857   6.450   3.401   5.900
 3328POPC   GL244858   6.669   3.732   6.035
 3328POPC   C1A44859   6.304   3.458   6.304
 3328POPC   D2A44860   6.441   3.722   6.605
 3328POPC   C3A44861   6.378   3.551   6.968
 3328POPC   C4A44862   6.553   3.611   7.345
 3328POPC   C1B44863   6.821   3.369   6.244
 3328POPC   C2B44864   6.658   3.193   6.600
 3328POPC   C3B44865   6.806   3.292   6.982
 3328POPC   C4B44866   6.901   3.239   7.359
 3329POPC   NC344867  28.427   9.240   5.570
 3329POPC   PO444868  28.629   8.567   5.431
 3329POPC   GL144869  28.504   8.748   5.808
 3329POPC   GL244870  28.852   8.833   5.835
 3329POPC   C1A44871  28.280   8.759   6.220
 3329POPC   D2A44872  28.228   8.607   6.662
 3329POPC   C3A44873  28.116   8.859   7.016
 3329POPC   C4A44874  28.092   8.836   7.458
 3329POPC   C1B44875  28.762   9.040   6.209
 3329POPC   C2B44876  28.548   9.021   6.584
 3329POPC   C3B44877  28.654   8.884   6.971
 3329POPC   C4B44878  28.537   9.031   7.356
 3330POPC   NC344879  11.025   8.632   5.373
 3330POPC   PO444880  11.542   9.032   5.069
 3330POPC   GL144881  11.428   8.965   5.547
 3330POPC   GL244882  11.491   8.699   5.799
 3330POPC   C1A44883  11.245   9.093   5.991
 3330POPC   D2A44884  11.224   9.292   6.430
 3330POPC   C3A44885  11.170   9.005   6.817
 3330POPC   C4A44886  11.181   9.041   7.278
 3330POPC   C1B44887  11.711   8.600   6.181
 3330POPC   C2B44888  11.606   8.520   6.632
 3330POPC   C3B44889  11.545   8.701   7.074
 3330POPC   C4B44890  11.450   8.709   7.559
 3331POPC   NC344891  14.785   1.665   5.447
 3331POPC   PO444892  15.215   1.172   5.358
 3331POPC   GL144893  15.263   1.152   5.804
 3331POPC   GL244894  14.955   1.353   5.820
 3331POPC   C1A44895  15.491   1.162   6.239
 3331POPC   D2A44896  15.435   1.402   6.628
 3331POPC   C3A44897  15.239   1.097   6.873
 3331POPC   C4A44898  15.388   0.936   7.252
 3331POPC   C1B44899  15.085   1.461   6.229
 3331POPC   C2B44900  14.921   1.614   6.605
 3331POPC   C3B44901  14.870   1.452   6.972
 3331POPC   C4B44902  15.235   1.463   7.203
 3332POPC   NC344903  10.609   9.854   5.452
 3332POPC   PO444904  10.126   9.434   5.413
 3332POPC   GL144905  10.342   9.549   5.812
 3332POPC   GL244906  10.217   9.871   5.861
 3332POPC   C1A44907  10.629   9.616   6.217
 3332POPC   D2A44908  10.859   9.615   6.636
 3332POPC   C3A44909  10.743   9.806   7.042
 3332POPC   C4A44910  10.377   9.657   7.233
 3332POPC   C1B44911  10.314  10.015   6.266
 3332POPC   C2B44912  10.411   9.927   6.686
 3332POPC   C3B44913  10.311  10.137   7.061
 3332POPC   C4B44914  10.433  10.099   7.466
 3333POPC   NC344915  43.771  29.637   5.095
 3333POPC   PO444916  43.931  29.083   5.410
 3333POPC   GL144917  43.916  28.925   5.822
 3333POPC   GL244918  43.564  28.791   5.804
 3333POPC   C1A44919  44.091  29.028   6.219
 3333POPC   D2A44920  43.930  29.349   6.503
 3333POPC   C3A44921  44.104  29.280   6.891
 3333POPC   C4A44922  44.071  29.338   7.341
 3333POPC   C1B44923  43.584  29.057   6.199
 3333POPC   C2B44924  43.608  28.944   6.640
 3333POPC   C3B44925  43.751  28.973   7.089
 3333POPC   C4B44926  44.205  28.849   7.157
 3334POPC   NC344927  31.601  44.021   5.458
 3334POPC   PO444928  32.043  44.220   5.904
 3334POPC   GL144929  31.623  44.064   5.990
 3334POPC   GL244930  31.466  43.756   5.895
 3334POPC   C1A44931  31.413  44.134   6.374
 3334POPC   D2A44932  31.630  44.290   6.732
 3334POPC   C3A44933  31.529  44.041   7.084
 3334POPC   C4A44934  31.590  44.021   7.526
 3334POPC   C1B44935  31.223  43.664   6.291
 3334POPC   C2B44936  31.176  43.774   6.754
 3334POPC   C3B44937  31.249  43.464   7.110
 3334POPC   C4B44938  31.281  43.519   7.573
 3335POPC   NC344939  26.385  24.837   5.398
 3335POPC   PO444940  26.868  25.266   5.448
 3335POPC   GL144941  26.871  25.198   5.840
 3335POPC   GL244942  26.528  25.354   5.851
 3335POPC   C1A44943  26.841  25.248   6.270
 3335POPC   D2A44944  26.823  25.573   6.566
 3335POPC   C3A44945  26.890  25.303   6.876
 3335POPC   C4A44946  27.055  25.299   7.251
 3335POPC   C1B44947  26.318  25.142   6.181
 3335POPC   C2B44948  26.487  24.915   6.537
 3335POPC   C3B44949  26.422  25.067   6.953
 3335POPC   C4B44950  26.515  25.359   7.246
 3336POPC   NC344951  39.229  42.710   5.644
 3336POPC   PO444952  39.308  42.037   5.593
 3336POPC   GL144953  39.144  42.253   5.913
 3336POPC   GL244954  39.235  42.566   6.121
 3336POPC   C1A44955  38.925  42.189   6.264
 3336POPC   D2A44956  39.009  42.311   6.681
 3336POPC   C3A44957  38.954  41.979   6.987
 3336POPC   C4A44958  38.995  41.986   7.429
 3336POPC   C1B44959  39.512  42.246   6.276
 3336POPC   C2B44960  39.664  42.194   6.683
 3336POPC   C3B44961  39.420  42.264   7.052
 3336POPC   C4B44962  39.007  42.474   7.168
 3337POPC   NC344963  15.569   2.918   5.632
 3337POPC   PO444964  14.898   2.970   5.504
 3337POPC   GL144965  15.123   2.785   5.831
 3337POPC   GL244966  15.240   2.467   5.697
 3337POPC   C1A44967  15.227   2.804   6.295
 3337POPC   D2A44968  15.083   2.789   6.745
 3337POPC   C3A44969  15.269   2.959   7.109
 3337POPC   C4A44970  15.363   2.707   7.448
 3337POPC   C1B44971  14.952   2.414   6.091
 3337POPC   C2B44972  14.973   2.308   6.526
 3337POPC   C3B44973  14.805   2.352   6.920
 3337POPC   C4B44974  14.901   2.590   7.252
 3338POPC   NC344975  11.027  25.358   5.338
 3338POPC   PO444976  11.613  25.227   5.344
 3338POPC   GL144977  11.318  25.203   5.727
 3338POPC   GL244978  10.925  25.134   5.784
 3338POPC   C1A44979  11.367  25.109   6.166
 3338POPC   D2A44980  11.531  25.305   6.553
 3338POPC   C3A44981  11.509  25.155   6.967
 3338POPC   C4A44982  11.585  25.452   7.270
 3338POPC   C1B44983  10.918  25.371   6.151
 3338POPC   C2B44984  11.022  25.212   6.546
 3338POPC   C3B44985  10.985  25.264   6.951
 3338POPC   C4B44986  11.108  25.102   7.288
 3339POPC   NC344987  44.834  23.487   5.443
 3339POPC   PO444988  44.405  23.854   5.083
 3339POPC   GL144989  44.558  23.844   5.637
 3339POPC   GL244990  44.348  23.569   5.876
 3339POPC   C1A44991  44.780  23.714   6.081
 3339POPC   D2A44992  44.509  23.519   6.449
 3339POPC   C3A44993  44.609  23.629   6.900
 3339POPC   C4A44994  44.852  23.842   7.215
 3339POPC   C1B44995  44.345  23.947   6.188
 3339POPC   C2B44996  44.583  24.079   6.579
 3339POPC   C3B44997  44.551  24.204   7.025
 3339POPC   C4B44998  44.361  23.936   7.367
 3340POPC   NC344999   2.481  11.883   5.356
 3340POPC   PO445000   2.476  12.557   5.470
 3340POPC   GL145001   2.722  12.260   5.768
 3340POPC   GL245002   2.638  11.889   5.841
 3340POPC   C1A45003   2.903  12.203   6.188
 3340POPC   D2A45004   2.727  12.048   6.573
 3340POPC   C3A45005   2.843  12.210   6.956
 3340POPC   C4A45006   2.678  11.987   7.287
 3340POPC   C1B45007   2.806  11.684   6.216
 3340POPC   C2B45008   3.051  11.662   6.609
 3340POPC   C3B45009   3.081  11.764   7.049
 3340POPC   C4B45010   3.107  11.753   7.524
 3341POPC   NC345011  18.815  42.171   5.527
 3341POPC   PO445012  18.166  42.244   5.499
 3341POPC   GL145013  18.285  42.438   5.867
 3341POPC   GL245014  18.617  42.520   5.826
 3341POPC   C1A45015  18.323  42.569   6.276
 3341POPC   D2A45016  18.068  42.611   6.635
 3341POPC   C3A45017  18.045  42.417   6.991
 3341POPC   C4A45018  18.230  42.577   7.321
 3341POPC   C1B45019  18.714  42.263   6.170
 3341POPC   C2B45020  18.758  42.465   6.544
 3341POPC   C3B45021  18.534  42.479   6.903
 3341POPC   C4B45022  18.489  42.152   7.186
 3342POPC   NC345023  44.478   4.809   5.554
 3342POPC   PO445024  44.490   5.516   5.399
 3342POPC   GL145025  44.512   5.280   5.789
 3342POPC   GL245026  44.811   5.348   5.961
 3342POPC   C1A45027  44.434   5.152   6.239
 3342POPC   D2A45028  44.561   5.273   6.668
 3342POPC   C3A45029  44.419   5.056   7.028
 3342POPC   C4A45030  44.462   5.416   7.241
 3342POPC   C1B45031  44.938   5.018   6.266
 3342POPC   C2B45032  44.942   4.965   6.712
 3342POPC   C3B45033  44.922   5.160   7.101
 3342POPC   C4B45034  44.965   4.845   7.425
 3343POPC   NC345035  25.680  13.083   5.550
 3343POPC   PO445036  26.287  12.761   5.459
 3343POPC   GL145037  25.988  12.760   5.844
 3343POPC   GL245038  25.724  12.482   5.832
 3343POPC   C1A45039  26.127  12.856   6.301
 3343POPC   D2A45040  26.204  13.039   6.716
 3343POPC   C3A45041  26.217  12.717   7.041
 3343POPC   C4A45042  26.381  12.794   7.479
 3343POPC   C1B45043  25.704  12.576   6.277
 3343POPC   C2B45044  25.771  12.756   6.688
 3343POPC   C3B45045  25.803  12.991   7.056
 3343POPC   C4B45046  25.552  13.201   7.312
 3344POPC   NC345047  36.099  11.864   5.342
 3344POPC   PO445048  36.124  12.492   5.329
 3344POPC   GL145049  36.172  12.278   5.743
 3344POPC   GL245050  35.920  12.033   5.785
 3344POPC   C1A45051  36.313  12.285   6.188
 3344POPC   D2A45052  36.084  12.220   6.569
 3344POPC   C3A45053  36.326  12.196   6.928
 3344POPC   C4A45054  36.188  12.187   7.331
 3344POPC   C1B45055  36.040  11.841   6.142
 3344POPC   C2B45056  35.826  11.779   6.514
 3344POPC   C3B45057  35.924  11.864   6.925
 3344POPC   C4B45058  35.936  11.733   7.338
 3345POPC   NC345059  21.475  26.159   5.318
 3345POPC   PO445060  21.087  25.726   5.645
 3345POPC   GL145061  21.440  26.029   5.797
 3345POPC   GL245062  21.207  26.126   6.031
 3345POPC   C1A45063  21.673  26.131   6.205
 3345POPC   D2A45064  21.618  25.936   6.621
 3345POPC   C3A45065  21.580  26.101   7.045
 3345POPC   C4A45066  21.517  25.787   7.408
 3345POPC   C1B45067  21.153  25.897   6.425
 3345POPC   C2B45068  21.122  26.112   6.821
 3345POPC   C3B45069  21.100  26.059   7.256
 3345POPC   C4B45070  21.030  25.717   7.523
 3346POPC   NC345071  29.578  15.319   5.334
 3346POPC   PO445072  30.185  14.944   5.403
 3346POPC   GL145073  29.927  15.127   5.756
 3346POPC   GL245074  29.594  15.032   5.761
 3346POPC   C1A45075  29.859  15.167   6.217
 3346POPC   D2A45076  30.081  15.067   6.598
 3346POPC   C3A45077  29.982  15.241   6.983
 3346POPC   C4A45078  29.662  15.494   7.154
 3346POPC   C1B45079  29.558  14.774   6.113
 3346POPC   C2B45080  29.685  14.739   6.488
 3346POPC   C3B45081  29.551  14.630   6.848
 3346POPC   C4B45082  29.733  14.838   7.158
 3347POPC   NC345083  40.308  25.305   5.529
 3347POPC   PO445084  39.541  25.518   5.465
 3347POPC   GL145085  39.878  25.469   5.765
 3347POPC   GL245086  39.885  25.098   5.760
 3347POPC   C1A45087  40.119  25.435   6.172
 3347POPC   D2A45088  39.982  25.284   6.581
 3347POPC   C3A45089  40.136  25.156   6.966
 3347POPC   C4A45090  39.912  25.441   7.223
 3347POPC   C1B45091  39.787  25.018   6.199
 3347POPC   C2B45092  39.729  24.844   6.656
 3347POPC   C3B45093  39.647  24.991   7.101
 3347POPC   C4B45094  39.646  25.151   7.538
 3348POPC   NC345095  29.949   2.292   5.325
 3348POPC   PO445096  30.328   2.756   5.463
 3348POPC   GL145097  30.063   2.672   5.811
 3348POPC   GL245098  29.731   2.556   5.699
 3348POPC   C1A45099  30.076   2.899   6.222
 3348POPC   D2A45100  30.292   2.776   6.605
 3348POPC   C3A45101  30.179   2.980   6.998
 3348POPC   C4A45102  30.018   2.901   7.417
 3348POPC   C1B45103  29.672   2.535   6.151
 3348POPC   C2B45104  29.762   2.684   6.577
 3348POPC   C3B45105  29.852   2.557   6.980
 3348POPC   C4B45106  29.523   2.560   7.279
 3349POPC   NC345107  12.211  36.548   5.274
 3349POPC   PO445108  12.255  35.838   5.481
 3349POPC   GL145109  12.230  36.040   5.833
 3349POPC   GL245110  11.920  36.201   5.746
 3349POPC   C1A45111  12.175  35.973   6.263
 3349POPC   D2A45112  12.046  35.720   6.612
 3349POPC   C3A45113  12.171  35.884   7.002
 3349POPC   C4A45114  12.177  36.201   7.316
 3349POPC   C1B45115  11.793  36.402   6.139
 3349POPC   C2B45116  11.666  36.549   6.563
 3349POPC   C3B45117  11.770  36.377   7.004
 3349POPC   C4B45118  11.740  36.500   7.456
 3350POPC   NC345119   1.578  42.771   5.513
 3350POPC   PO445120   1.830  43.332   5.578
 3350POPC   GL145121   1.922  43.037   5.832
 3350POPC   GL245122   2.270  42.998   5.790
 3350POPC   C1A45123   1.867  43.125   6.246
 3350POPC   D2A45124   1.972  43.000   6.631
 3350POPC   C3A45125   2.181  43.304   6.847
 3350POPC   C4A45126   1.927  43.523   7.100
 3350POPC   C1B45127   2.347  42.891   6.240
 3350POPC   C2B45128   2.459  42.890   6.683
 3350POPC   C3B45129   2.185  42.796   7.052
 3350POPC   C4B45130   1.717  42.784   7.098
 3351POPC   NC345131  17.705  44.801   5.140
 3351POPC   PO445132  17.333  44.417   5.506
 3351POPC   GL145133  17.591  44.659   5.753
 3351POPC   GL245134  17.759  44.317   5.818
 3351POPC   C1A45135  17.385  44.852   6.134
 3351POPC   D2A45136  17.313  44.644   6.558
 3351POPC   C3A45137  17.453  44.825   6.984
 3351POPC   C4A45138  17.367  44.858   7.438
 3351POPC   C1B45139  17.724  44.484   6.243
 3351POPC   C2B45140  17.822  44.699   6.620
 3351POPC   C3B45141  17.897  44.564   7.029
 3351POPC   C4B45142  17.859  44.758   7.427
 3352POPC   NC345143  18.457  16.190   5.336
 3352POPC   PO445144  18.787  15.657   5.413
 3352POPC   GL145145  18.518  15.930   5.762
 3352POPC   GL245146  18.596  16.312   5.809
 3352POPC   C1A45147  18.209  16.071   6.114
 3352POPC   D2A45148  18.131  16.260   6.553
 3352POPC   C3A45149  18.074  16.015   6.932
 3352POPC   C4A45150  18.252  15.983   7.347
 3352POPC   C1B45151  18.667  16.269   6.231
 3352POPC   C2B45152  18.606  16.422   6.634
 3352POPC   C3B45153  18.542  16.245   7.023
 3352POPC   C4B45154  18.772  15.957   7.305
 3353POPC   NC345155   1.738  25.548   5.117
 3353POPC   PO445156   2.180  25.156   5.315
 3353POPC   GL145157   2.226  25.132   5.798
 3353POPC   GL245158   1.985  24.942   6.010
 3353POPC   C1A45159   2.355  25.318   6.208
 3353POPC   D2A45160   2.235  25.500   6.609
 3353POPC   C3A45161   2.076  25.180   6.908
 3353POPC   C4A45162   2.202  24.965   7.277
 3353POPC   C1B45163   1.868  25.222   6.356
 3353POPC   C2B45164   1.612  25.284   6.728
 3353POPC   C3B45165   1.595  25.323   7.201
 3353POPC   C4B45166   1.577  25.415   7.675
 3354POPC   NC345167  16.378   4.639   5.315
 3354POPC   PO445168  15.823   4.300   5.341
 3354POPC   GL145169  16.047   4.291   5.758
 3354POPC   GL245170  16.216   3.955   5.847
 3354POPC   C1A45171  16.106   4.433   6.205
 3354POPC   D2A45172  16.253   4.286   6.626
 3354POPC   C3A45173  16.232   4.579   6.972
 3354POPC   C4A45174  15.979   4.524   7.359
 3354POPC   C1B45175  15.961   3.970   6.252
 3354POPC   C2B45176  15.717   4.251   6.503
 3354POPC   C3B45177  15.781   4.331   6.918
 3354POPC   C4B45178  15.678   4.037   7.215
 3355POPC   NC345179  12.616  30.125   5.132
 3355POPC   PO445180  13.152  29.855   5.234
 3355POPC   GL145181  13.056  29.844   5.709
 3355POPC   GL245182  13.177  29.566   5.921
 3355POPC   C1A45183  12.940  29.962   6.159
 3355POPC   D2A45184  13.033  30.183   6.571
 3355POPC   C3A45185  12.758  30.093   6.923
 3355POPC   C4A45186  12.582  29.761   7.100
 3355POPC   C1B45187  12.916  29.432   6.244
 3355POPC   C2B45188  12.884  29.682   6.605
 3355POPC   C3B45189  13.075  29.649   6.977
 3355POPC   C4B45190  12.944  29.610   7.438
 3356POPC   NC345191  12.211  12.226   5.731
 3356POPC   PO445192  12.063  12.755   5.314
 3356POPC   GL145193  12.052  12.749   5.770
 3356POPC   GL245194  12.279  13.027   5.911
 3356POPC   C1A45195  11.975  12.768   6.218
 3356POPC   D2A45196  11.985  13.069   6.571
 3356POPC   C3A45197  12.107  12.830   6.903
 3356POPC   C4A45198  11.957  12.821   7.318
 3356POPC   C1B45199  12.441  13.037   6.340
 3356POPC   C2B45200  12.490  13.171   6.775
 3356POPC   C3B45201  12.468  13.056   7.195
 3356POPC   C4B45202  12.247  13.142   7.568
 3357POPC   NC345203   2.248  16.237   5.440
 3357POPC   PO445204   2.238  15.529   5.393
 3357POPC   GL145205   2.143  15.808   5.763
 3357POPC   GL245206   2.441  15.962   5.848
 3357POPC   C1A45207   2.050  16.147   6.116
 3357POPC   D2A45208   2.159  16.291   6.549
 3357POPC   C3A45209   1.828  16.227   6.861
 3357POPC   C4A45210   1.879  15.849   7.121
 3357POPC   C1B45211   2.321  15.706   6.256
 3357POPC   C2B45212   2.240  15.716   6.746
 3357POPC   C3B45213   2.373  15.719   7.207
 3357POPC   C4B45214   2.481  15.553   7.663
 3358POPC   NC345215  19.053   3.140   5.342
 3358POPC   PO445216  19.349   3.664   5.620
 3358POPC   GL145217  19.013   3.480   5.852
 3358POPC   GL245218  18.862   3.126   5.812
 3358POPC   C1A45219  19.128   3.423   6.290
 3358POPC   D2A45220  19.405   3.320   6.610
 3358POPC   C3A45221  19.201   3.382   6.972
 3358POPC   C4A45222  19.255   3.545   7.348
 3358POPC   C1B45223  18.659   3.287   6.172
 3358POPC   C2B45224  18.633   3.561   6.495
 3358POPC   C3B45225  18.712   3.467   6.885
 3358POPC   C4B45226  18.785   3.710   7.228
 3359POPC   NC345227  26.836  16.955   5.537
 3359POPC   PO445228  27.128  16.410   5.182
 3359POPC   GL145229  27.107  16.578   5.702
 3359POPC   GL245230  26.693  16.553   5.792
 3359POPC   C1A45231  26.959  16.537   6.196
 3359POPC   D2A45232  27.037  16.622   6.616
 3359POPC   C3A45233  26.816  16.579   7.004
 3359POPC   C4A45234  26.959  16.959   7.214
 3359POPC   C1B45235  26.577  16.880   6.157
 3359POPC   C2B45236  26.517  16.908   6.639
 3359POPC   C3B45237  26.474  16.955   7.112
 3359POPC   C4B45238  26.607  16.822   7.563
 3360POPC   NC345239  36.321  35.594   5.424
 3360POPC   PO445240  36.171  34.986   5.534
 3360POPC   GL145241  36.007  35.173   5.886
 3360POPC   GL245242  36.101  35.514   5.874
 3360POPC   C1A45243  36.041  35.290   6.325
 3360POPC   D2A45244  36.402  35.241   6.611
 3360POPC   C3A45245  36.221  35.306   6.997
 3360POPC   C4A45246  35.783  35.176   7.021
 3360POPC   C1B45247  36.350  35.680   6.250
 3360POPC   C2B45248  36.365  35.894   6.659
 3360POPC   C3B45249  36.423  35.767   7.101
 3360POPC   C4B45250  36.280  35.532   7.472
 3361POPC   NC345251  43.667  16.331   5.440
 3361POPC   PO445252  44.046  15.665   5.406
 3361POPC   GL145253  44.134  15.872   5.817
 3361POPC   GL245254  44.038  16.198   5.818
 3361POPC   C1A45255  44.187  15.988   6.262
 3361POPC   D2A45256  44.203  15.803   6.663
 3361POPC   C3A45257  43.919  15.820   7.008
 3361POPC   C4A45258  43.875  16.027   7.397
 3361POPC   C1B45259  43.696  15.929   6.108
 3361POPC   C2B45260  43.548  15.951   6.583
 3361POPC   C3B45261  43.533  16.162   7.008
 3361POPC   C4B45262  43.400  16.123   7.433
 3362POPC   NC345263  17.148  41.503   5.047
 3362POPC   PO445264  17.711  41.767   5.284
 3362POPC   GL145265  17.631  41.944   5.717
 3362POPC   GL245266  17.282  41.903   5.766
 3362POPC   C1A45267  17.745  41.890   6.179
 3362POPC   D2A45268  17.630  41.678   6.609
 3362POPC   C3A45269  17.765  41.541   7.032
 3362POPC   C4A45270  17.535  41.479   7.416
 3362POPC   C1B45271  17.283  41.673   6.178
 3362POPC   C2B45272  17.142  41.519   6.588
 3362POPC   C3B45273  17.241  41.326   6.995
 3362POPC   C4B45274  17.026  41.403   7.409
 3363POPC   NC345275  28.838   7.684   5.433
 3363POPC   PO445276  29.282   8.204   5.404
 3363POPC   GL145277  29.227   8.034   5.807
 3363POPC   GL245278  29.509   8.184   5.952
 3363POPC   C1A45279  28.968   7.862   6.126
 3363POPC   D2A45280  28.738   7.906   6.495
 3363POPC   C3A45281  28.922   7.885   6.892
 3363POPC   C4A45282  28.952   8.112   7.235
 3363POPC   C1B45283  29.204   8.322   6.262
 3363POPC   C2B45284  29.149   8.315   6.701
 3363POPC   C3B45285  29.407   8.233   7.060
 3363POPC   C4B45286  29.301   8.373   7.487
 3364POPC   NC345287   0.706  37.238   5.010
 3364POPC   PO445288   1.274  37.043   5.229
 3364POPC   GL145289   1.179  37.045   5.673
 3364POPC   GL245290   1.484  37.104   5.895
 3364POPC   C1A45291   1.034  37.018   6.116
 3364POPC   D2A45292   1.194  37.069   6.520
 3364POPC   C3A45293   1.030  37.003   6.932
 3364POPC   C4A45294   1.146  36.825   7.320
 3364POPC   C1B45295   1.562  36.818   6.294
 3364POPC   C2B45296   1.434  36.679   6.743
 3364POPC   C3B45297   1.514  36.496   7.174
 3364POPC   C4B45298   1.552  36.737   7.593
 3365POPC   NC345299  19.958  33.698   5.519
 3365POPC   PO445300  19.668  34.271   5.560
 3365POPC   GL145301  19.800  34.007   5.933
 3365POPC   GL245302  19.741  33.625   5.978
 3365POPC   C1A45303  19.819  33.947   6.400
 3365POPC   D2A45304  20.024  33.859   6.810
 3365POPC   C3A45305  19.829  34.145   7.114
 3365POPC   C4A45306  19.536  34.067   7.464
 3365POPC   C1B45307  19.960  33.386   6.315
 3365POPC   C2B45308  20.200  33.336   6.691
 3365POPC   C3B45309  20.064  33.366   7.097
 3365POPC   C4B45310  19.772  33.663   7.281
 3366POPC   NC345311  16.066  39.536   5.414
 3366POPC   PO445312  15.690  38.923   5.278
 3366POPC   GL145313  15.918  39.093   5.681
 3366POPC   GL245314  15.732  39.401   5.793
 3366POPC   C1A45315  16.174  39.318   6.059
 3366POPC   D2A45316  16.307  39.188   6.475
 3366POPC   C3A45317  16.182  39.240   6.908
 3366POPC   C4A45318  16.087  39.128   7.324
 3366POPC   C1B45319  15.722  39.093   6.176
 3366POPC   C2B45320  15.705  39.018   6.643
 3366POPC   C3B45321  15.655  39.202   7.076
 3366POPC   C4B45322  15.569  39.133   7.552
 3367POPC   NC345323  39.938   2.642   5.426
 3367POPC   PO445324  40.124   3.198   5.543
 3367POPC   GL145325  40.120   2.844   5.867
 3367POPC   GL245326  39.796   2.647   5.931
 3367POPC   C1A45327  40.098   2.892   6.322
 3367POPC   D2A45328  39.786   2.929   6.632
 3367POPC   C3A45329  39.989   2.855   7.038
 3367POPC   C4A45330  40.219   3.027   7.423
 3367POPC   C1B45331  39.967   2.408   6.300
 3367POPC   C2B45332  39.783   2.435   6.728
 3367POPC   C3B45333  39.784   2.392   7.156
 3367POPC   C4B45334  39.938   2.603   7.487
 3368POPC   NC345335  29.348   4.361   5.408
 3368POPC   PO445336  28.790   4.777   5.510
 3368POPC   GL145337  29.097   4.557   5.798
 3368POPC   GL245338  29.067   4.169   5.783
 3368POPC   C1A45339  29.370   4.538   6.142
 3368POPC   D2A45340  29.252   4.642   6.547
 3368POPC   C3A45341  28.999   4.354   6.775
 3368POPC   C4A45342  29.110   4.422   7.185
 3368POPC   C1B45343  29.316   3.990   6.133
 3368POPC   C2B45344  29.372   4.123   6.548
 3368POPC   C3B45345  29.245   3.947   6.970
 3368POPC   C4B45346  29.331   4.031   7.426
 3369POPC   NC345347  39.745  14.980   5.508
 3369POPC   PO445348  39.655  15.608   5.239
 3369POPC   GL145349  39.757  15.453   5.744
 3369POPC   GL245350  40.046  15.208   5.863
 3369POPC   C1A45351  39.916  15.519   6.224
 3369POPC   D2A45352  39.763  15.398   6.622
 3369POPC   C3A45353  39.994  15.347   7.012
 3369POPC   C4A45354  39.939  14.943   7.164
 3369POPC   C1B45355  39.923  15.006   6.265
 3369POPC   C2B45356  40.128  14.982   6.662
 3369POPC   C3B45357  40.448  14.969   6.968
 3369POPC   C4B45358  40.413  15.194   7.351
 3370POPC   NC345359  24.720  35.732   5.508
 3370POPC   PO445360  24.571  36.416   5.396
 3370POPC   GL145361  24.406  36.301   5.852
 3370POPC   GL245362  24.064  36.479   5.951
 3370POPC   C1A45363  24.641  36.139   6.246
 3370POPC   D2A45364  24.659  36.257   6.690
 3370POPC   C3A45365  24.559  36.054   7.081
 3370POPC   C4A45366  24.717  35.756   7.396
 3370POPC   C1B45367  24.235  36.425   6.360
 3370POPC   C2B45368  24.157  36.355   6.783
 3370POPC   C3B45369  24.367  36.536   7.074
 3370POPC   C4B45370  24.282  36.571   7.482
 3371POPC   NC345371  34.851  29.730   5.581
 3371POPC   PO445372  35.483  30.137   5.466
 3371POPC   GL145373  35.334  30.060   5.833
 3371POPC   GL245374  35.260  29.730   5.861
 3371POPC   C1A45375  35.500  29.966   6.239
 3371POPC   D2A45376  35.331  29.721   6.592
 3371POPC   C3A45377  35.494  29.863   7.029
 3371POPC   C4A45378  35.498  29.739   7.507
 3371POPC   C1B45379  34.968  29.909   6.184
 3371POPC   C2B45380  34.830  29.967   6.572
 3371POPC   C3B45381  34.955  29.762   6.926
 3371POPC   C4B45382  35.047  29.863   7.308
 3372POPC   NC345383  35.869  21.523   5.427
 3372POPC   PO445384  36.520  21.318   5.422
 3372POPC   GL145385  36.252  21.355   5.769
 3372POPC   GL245386  35.953  21.130   5.753
 3372POPC   C1A45387  36.266  21.302   6.207
 3372POPC   D2A45388  36.082  21.479   6.567
 3372POPC   C3A45389  36.234  21.511   6.981
 3372POPC   C4A45390  35.974  21.614   7.309
 3372POPC   C1B45391  35.758  21.250   6.147
 3372POPC   C2B45392  35.764  21.074   6.549
 3372POPC   C3B45393  35.766  21.281   6.944
 3372POPC   C4B45394  35.963  21.110   7.276
 3373POPC   NC345395   7.048   5.974   5.148
 3373POPC   PO445396   7.247   6.254   5.639
 3373POPC   GL145397   7.302   5.872   5.862
 3373POPC   GL245398   6.986   5.788   5.887
 3373POPC   C1A45399   7.499   5.759   6.257
 3373POPC   D2A45400   7.788   5.621   6.607
 3373POPC   C3A45401   7.486   5.664   6.932
 3373POPC   C4A45402   7.522   6.009   7.234
 3373POPC   C1B45403   7.054   6.085   6.239
 3373POPC   C2B45404   7.269   6.107   6.611
 3373POPC   C3B45405   7.070   6.053   6.991
 3373POPC   C4B45406   7.050   5.818   7.345
 3374POPC   NC345407  20.614  38.742   5.442
 3374POPC   PO445408  20.252  38.224   5.456
 3374POPC   GL145409  20.666  38.297   5.714
 3374POPC   GL245410  20.839  38.570   5.864
 3374POPC   C1A45411  20.723  38.178   6.172
 3374POPC   D2A45412  20.514  38.072   6.566
 3374POPC   C3A45413  20.499  38.295   6.953
 3374POPC   C4A45414  20.569  38.101   7.355
 3374POPC   C1B45415  20.535  38.717   6.164
 3374POPC   C2B45416  20.480  38.726   6.614
 3374POPC   C3B45417  20.608  38.801   7.029
 3374POPC   C4B45418  20.615  38.591   7.436
 3375POPC   NC345419  43.340  27.238   5.274
 3375POPC   PO445420  42.900  27.761   5.341
 3375POPC   GL145421  43.104  27.704   5.754
 3375POPC   GL245422  43.418  27.513   5.709
 3375POPC   C1A45423  43.110  27.675   6.229
 3375POPC   D2A45424  43.266  27.921   6.568
 3375POPC   C3A45425  43.078  27.845   6.949
 3375POPC   C4A45426  43.295  27.629   7.225
 3375POPC   C1B45427  43.160  27.235   5.987
 3375POPC   C2B45428  43.153  27.151   6.419
 3375POPC   C3B45429  43.150  27.279   6.854
 3375POPC   C4B45430  43.100  27.149   7.279
 3376POPC   NC345431  23.890  26.650   5.399
 3376POPC   PO445432  23.215  26.594   5.168
 3376POPC   GL145433  23.439  26.726   5.624
 3376POPC   GL245434  23.778  26.896   5.827
 3376POPC   C1A45435  23.403  26.766   6.099
 3376POPC   D2A45436  23.773  26.641   6.381
 3376POPC   C3A45437  23.731  26.661   6.818
 3376POPC   C4A45438  23.460  26.739   7.211
 3376POPC   C1B45439  23.748  27.135   6.285
 3376POPC   C2B45440  23.824  27.157   6.795
 3376POPC   C3B45441  23.946  26.913   7.213
 3376POPC   C4B45442  24.020  27.102   7.647
 3377POPC   NC345443  34.464  38.036   5.624
 3377POPC   PO445444  34.624  38.661   5.445
 3377POPC   GL145445  34.711  38.460   5.827
 3377POPC   GL245446  34.940  38.215   5.811
 3377POPC   C1A45447  34.498  38.272   6.210
 3377POPC   D2A45448  34.259  38.069   6.530
 3377POPC   C3A45449  34.415  38.219   6.918
 3377POPC   C4A45450  34.481  38.463   7.281
 3377POPC   C1B45451  35.015  38.372   6.237
 3377POPC   C2B45452  34.784  38.430   6.616
 3377POPC   C3B45453  34.910  38.356   7.035
 3377POPC   C4B45454  34.868  38.209   7.498
 3378POPC   NC345455  32.028  29.281   5.576
 3378POPC   PO445456  32.622  29.037   5.388
 3378POPC   GL145457  32.423  29.016   5.816
 3378POPC   GL245458  32.075  28.858   5.848
 3378POPC   C1A45459  32.463  29.239   6.232
 3378POPC   D2A45460  32.252  29.392   6.610
 3378POPC   C3A45461  32.406  29.238   7.020
 3378POPC   C4A45462  32.286  29.460   7.406
 3378POPC   C1B45463  31.959  29.188   6.188
 3378POPC   C2B45464  31.737  29.239   6.545
 3378POPC   C3B45465  31.919  29.083   6.898
 3378POPC   C4B45466  31.767  28.966   7.284
 3379POPC   NC345467  30.632  27.403   5.454
 3379POPC   PO445468  30.443  28.035   5.524
 3379POPC   GL145469  30.638  27.841   5.928
 3379POPC   GL245470  30.758  27.512   5.942
 3379POPC   C1A45471  30.681  27.788   6.424
 3379POPC   D2A45472  31.012  27.568   6.698
 3379POPC   C3A45473  31.059  27.667   7.123
 3379POPC   C4A45474  30.696  27.616   7.370
 3379POPC   C1B45475  30.678  27.300   6.318
 3379POPC   C2B45476  30.524  27.371   6.759
 3379POPC   C3B45477  30.658  27.156   7.140
 3379POPC   C4B45478  30.615  27.083   7.587
 3380POPC   NC345479  16.308  17.506   5.363
 3380POPC   PO445480  15.894  17.956   5.369
 3380POPC   GL145481  16.093  17.776   5.777
 3380POPC   GL245482  16.180  17.390   5.868
 3380POPC   C1A45483  15.929  17.694   6.221
 3380POPC   D2A45484  16.050  17.779   6.662
 3380POPC   C3A45485  15.844  17.688   7.054
 3380POPC   C4A45486  16.029  17.685   7.471
 3380POPC   C1B45487  15.948  17.162   6.255
 3380POPC   C2B45488  15.989  17.264   6.748
 3380POPC   C3B45489  16.147  17.253   7.201
 3380POPC   C4B45490  16.252  16.897   7.512
 3381POPC   NC345491  25.521  18.508   5.477
 3381POPC   PO445492  25.226  17.923   5.468
 3381POPC   GL145493  25.340  18.099   5.854
 3381POPC   GL245494  25.684  18.055   5.870
 3381POPC   C1A45495  25.384  18.259   6.295
 3381POPC   D2A45496  25.155  18.576   6.519
 3381POPC   C3A45497  25.103  18.509   6.948
 3381POPC   C4A45498  25.323  18.434   7.313
 3381POPC   C1B45499  25.834  18.439   6.104
 3381POPC   C2B45500  25.741  18.613   6.504
 3381POPC   C3B45501  25.615  18.416   6.877
 3381POPC   C4B45502  25.829  18.487   7.268
 3382POPC   NC345503  42.139  23.496   5.455
 3382POPC   PO445504  42.771  23.731   5.333
 3382POPC   GL145505  42.507  23.858   5.739
 3382POPC   GL245506  42.130  23.952   5.740
 3382POPC   C1A45507  42.427  23.842   6.181
 3382POPC   D2A45508  42.249  23.632   6.543
 3382POPC   C3A45509  42.488  23.643   6.919
 3382POPC   C4A45510  42.489  23.591   7.363
 3382POPC   C1B45511  42.044  24.149   6.179
 3382POPC   C2B45512  41.905  24.046   6.568
 3382POPC   C3B45513  42.187  24.060   6.895
 3382POPC   C4B45514  42.126  23.955   7.290
 3383POPC   NC345515  39.668  25.953   5.561
 3383POPC   PO445516  40.322  25.797   5.522
 3383POPC   GL145517  40.092  25.944   5.864
 3383POPC   GL245518  39.910  26.241   5.889
 3383POPC   C1A45519  39.973  25.919   6.277
 3383POPC   D2A45520  40.194  25.809   6.612
 3383POPC   C3A45521  39.981  25.885   6.995
 3383POPC   C4A45522  40.203  25.829   7.404
 3383POPC   C1B45523  39.860  26.461   6.240
 3383POPC   C2B45524  39.998  26.341   6.621
 3383POPC   C3B45525  39.892  26.476   7.016
 3383POPC   C4B45526  39.999  26.270   7.372
 3384POPC   NC345527  21.209  17.852   5.610
 3384POPC   PO445528  21.501  17.341   5.350
 3384POPC   GL145529  21.454  17.412   5.799
 3384POPC   GL245530  21.771  17.524   5.930
 3384POPC   C1A45531  21.329  17.599   6.206
 3384POPC   D2A45532  21.327  17.785   6.585
 3384POPC   C3A45533  21.460  17.517   6.873
 3384POPC   C4A45534  21.438  17.551   7.309
 3384POPC   C1B45535  21.641  17.182   6.246
 3384POPC   C2B45536  21.801  17.134   6.673
 3384POPC   C3B45537  21.707  17.148   7.116
 3384POPC   C4B45538  21.617  17.123   7.552
 3385POPC   NC345539  35.543   9.870   4.995
 3385POPC   PO445540  35.282   9.318   5.371
 3385POPC   GL145541  35.380   9.658   5.637
 3385POPC   GL245542  35.086   9.833   5.721
 3385POPC   C1A45543  35.529   9.768   6.069
 3385POPC   D2A45544  35.725   9.648   6.493
 3385POPC   C3A45545  35.596   9.857   6.895
 3385POPC   C4A45546  35.356   9.633   7.200
 3385POPC   C1B45547  35.054  10.078   6.091
 3385POPC   C2B45548  34.948  10.113   6.520
 3385POPC   C3B45549  35.064   9.754   6.751
 3385POPC   C4B45550  34.906   9.418   7.031
 3386POPC   NC345551   4.659  25.374   5.487
 3386POPC   PO445552   3.939  25.366   5.596
 3386POPC   GL145553   4.109  25.130   5.940
 3386POPC   GL245554   4.469  25.101   5.876
 3386POPC   C1A45555   4.225  25.341   6.339
 3386POPC   D2A45556   4.137  25.648   6.698
 3386POPC   C3A45557   4.296  25.472   7.107
 3386POPC   C4A45558   4.191  25.441   7.576
 3386POPC   C1B45559   4.425  24.842   6.221
 3386POPC   C2B45560   4.372  24.936   6.623
 3386POPC   C3B45561   4.517  24.980   7.002
 3386POPC   C4B45562   4.250  24.992   7.322
 3387POPC   NC345563  29.913   6.340   5.326
 3387POPC   PO445564  30.234   6.881   5.317
 3387POPC   GL145565  30.134   6.621   5.705
 3387POPC   GL245566  29.760   6.603   5.730
 3387POPC   C1A45567  30.079   6.431   6.140
 3387POPC   D2A45568  30.036   6.357   6.603
 3387POPC   C3A45569  30.193   6.607   6.960
 3387POPC   C4A45570  29.988   6.510   7.374
 3387POPC   C1B45571  29.683   6.775   6.123
 3387POPC   C2B45572  29.589   6.623   6.521
 3387POPC   C3B45573  29.692   6.657   6.954
 3387POPC   C4B45574  29.778   6.968   7.265
 3388POPC   NC345575  38.198  15.592   5.405
 3388POPC   PO445576  38.329  14.884   5.306
 3388POPC   GL145577  38.425  15.240   5.724
 3388POPC   GL245578  38.558  15.603   5.757
 3388POPC   C1A45579  38.616  15.158   6.202
 3388POPC   D2A45580  38.708  14.850   6.523
 3388POPC   C3A45581  38.722  15.101   6.891
 3388POPC   C4A45582  38.602  15.059   7.308
 3388POPC   C1B45583  38.368  15.605   6.178
 3388POPC   C2B45584  38.435  15.439   6.602
 3388POPC   C3B45585  38.233  15.381   6.989
 3388POPC   C4B45586  38.251  15.487   7.395
 3389POPC   NC345587  39.174  15.508   5.207
 3389POPC   PO445588  39.290  14.896   5.495
 3389POPC   GL145589  39.266  15.099   5.861
 3389POPC   GL245590  38.934  15.245   5.788
 3389POPC   C1A45591  39.129  15.085   6.280
 3389POPC   D2A45592  39.193  14.976   6.704
 3389POPC   C3A45593  39.498  15.161   6.996
 3389POPC   C4A45594  39.520  15.125   7.432
 3389POPC   C1B45595  38.894  15.557   6.155
 3389POPC   C2B45596  38.960  15.480   6.595
 3389POPC   C3B45597  39.170  15.537   6.982
 3389POPC   C4B45598  39.153  15.512   7.439
 3390POPC   NC345599  30.470  18.068   5.329
 3390POPC   PO445600  30.914  18.608   5.367
 3390POPC   GL145601  30.789  18.306   5.684
 3390POPC   GL245602  31.104  18.380   5.817
 3390POPC   C1A45603  30.748  18.132   6.126
 3390POPC   D2A45604  30.516  18.036   6.527
 3390POPC   C3A45605  30.590  18.004   6.984
 3390POPC   C4A45606  30.870  17.873   7.338
 3390POPC   C1B45607  31.126  18.477   6.236
 3390POPC   C2B45608  30.934  18.326   6.582
 3390POPC   C3B45609  31.060  18.143   6.932
 3390POPC   C4B45610  30.977  18.361   7.315
 3391POPC   NC345611   4.989  39.140   5.447
 3391POPC   PO445612   5.716  38.938   5.481
 3391POPC   GL145613   5.435  39.235   5.701
 3391POPC   GL245614   5.214  38.968   5.855
 3391POPC   C1A45615   5.307  39.448   6.107
 3391POPC   D2A45616   5.267  39.627   6.531
 3391POPC   C3A45617   5.075  39.448   6.885
 3391POPC   C4A45618   4.897  39.481   7.280
 3391POPC   C1B45619   5.547  38.990   6.135
 3391POPC   C2B45620   5.395  39.122   6.538
 3391POPC   C3B45621   5.182  38.943   6.887
 3391POPC   C4B45622   5.325  39.134   7.251
 3392POPC   NC345623  20.038  18.692   5.366
 3392POPC   PO445624  19.819  19.361   5.247
 3392POPC   GL145625  19.824  19.225   5.696
 3392POPC   GL245626  19.984  18.896   5.835
 3392POPC   C1A45627  19.708  19.289   6.137
 3392POPC   D2A45628  19.650  19.122   6.551
 3392POPC   C3A45629  19.843  19.268   6.934
 3392POPC   C4A45630  19.661  19.176   7.341
 3392POPC   C1B45631  20.018  18.622   6.228
 3392POPC   C2B45632  19.958  18.744   6.658
 3392POPC   C3B45633  19.879  18.748   7.083
 3392POPC   C4B45634  20.192  18.531   7.290
 3393POPC   NC345635   1.961   5.612   5.333
 3393POPC   PO445636   1.988   6.245   5.418
 3393POPC   GL145637   1.906   6.034   5.802
 3393POPC   GL245638   2.089   5.714   5.820
 3393POPC   C1A45639   1.748   6.006   6.241
 3393POPC   D2A45640   1.503   6.120   6.622
 3393POPC   C3A45641   1.731   5.988   6.994
 3393POPC   C4A45642   2.042   6.069   7.278
 3393POPC   C1B45643   1.952   5.524   6.201
 3393POPC   C2B45644   1.865   5.628   6.634
 3393POPC   C3B45645   2.148   5.633   7.000
 3393POPC   C4B45646   2.403   5.731   7.412
 3394POPC   NC345647   8.876  30.443   5.388
 3394POPC   PO445648   9.457  30.903   5.313
 3394POPC   GL145649   9.197  30.754   5.663
 3394POPC   GL245650   8.867  30.905   5.645
 3394POPC   C1A45651   9.049  30.564   6.076
 3394POPC   D2A45652   8.919  30.472   6.512
 3394POPC   C3A45653   9.122  30.608   6.872
 3394POPC   C4A45654   9.153  30.496   7.282
 3394POPC   C1B45655   8.854  31.043   6.067
 3394POPC   C2B45656   8.711  31.025   6.511
 3394POPC   C3B45657   8.896  31.057   6.920
 3394POPC   C4B45658   8.753  30.870   7.301
 3395POPC   NC345659  30.061  19.703   5.367
 3395POPC   PO445660  29.422  20.033   5.397
 3395POPC   GL145661  29.605  19.765   5.709
 3395POPC   GL245662  29.900  19.960   5.800
 3395POPC   C1A45663  29.606  19.643   6.165
 3395POPC   D2A45664  29.861  19.604   6.561
 3395POPC   C3A45665  29.718  19.677   7.018
 3395POPC   C4A45666  29.775  19.926   7.411
 3395POPC   C1B45667  30.140  19.667   6.091
 3395POPC   C2B45668  30.372  19.742   6.476
 3395POPC   C3B45669  30.200  19.858   6.886
 3395POPC   C4B45670  30.230  19.727   7.301
 3396POPC   NC345671  15.637   1.008   5.427
 3396POPC   PO445672  16.322   1.187   5.407
 3396POPC   GL145673  16.063   1.096   5.770
 3396POPC   GL245674  15.761   1.303   5.824
 3396POPC   C1A45675  15.997   1.050   6.220
 3396POPC   D2A45676  15.966   1.297   6.591
 3396POPC   C3A45677  15.795   1.121   6.980
 3396POPC   C4A45678  15.976   0.982   7.378
 3396POPC   C1B45679  15.700   1.616   6.160
 3396POPC   C2B45680  15.796   1.781   6.567
 3396POPC   C3B45681  15.801   1.660   7.014
 3396POPC   C4B45682  15.691   1.863   7.415
 3397POPC   NC345683  30.598  32.082   5.441
 3397POPC   PO445684  31.230  32.245   5.355
 3397POPC   GL145685  31.053  32.195   5.776
 3397POPC   GL245686  30.742  32.015   5.936
 3397POPC   C1A45687  31.027  32.357   6.226
 3397POPC   D2A45688  30.672  32.297   6.484
 3397POPC   C3A45689  30.699  32.365   6.916
 3397POPC   C4A45690  30.443  32.530   7.197
 3397POPC   C1B45691  30.883  31.825   6.321
 3397POPC   C2B45692  30.868  31.904   6.762
 3397POPC   C3B45693  30.701  31.945   7.219
 3397POPC   C4B45694  30.716  31.996   7.672
 3398POPC   NC345695  34.914   5.100   5.308
 3398POPC   PO445696  34.292   5.210   5.548
 3398POPC   GL145697  34.517   5.074   5.877
 3398POPC   GL245698  34.321   5.324   6.055
 3398POPC   C1A45699  34.678   5.013   6.316
 3398POPC   D2A45700  34.834   5.274   6.688
 3398POPC   C3A45701  34.770   5.149   7.129
 3398POPC   C4A45702  34.908   5.217   7.553
 3398POPC   C1B45703  34.157   4.925   6.210
 3398POPC   C2B45704  34.012   4.831   6.594
 3398POPC   C3B45705  34.160   5.020   6.959
 3398POPC   C4B45706  34.370   4.777   7.230
 3399POPC   NC345707  42.092  15.810   5.518
 3399POPC   PO445708  42.539  16.266   5.596
 3399POPC   GL145709  42.507  15.833   5.823
 3399POPC   GL245710  42.182  15.761   6.008
 3399POPC   C1A45711  42.618  15.667   6.223
 3399POPC   D2A45712  42.341  15.922   6.492
 3399POPC   C3A45713  42.393  15.915   6.926
 3399POPC   C4A45714  42.163  15.742   7.243
 3399POPC   C1B45715  42.066  16.201   6.138
 3399POPC   C2B45716  42.159  16.419   6.525
 3399POPC   C3B45717  42.093  16.385   6.953
 3399POPC   C4B45718  42.037  16.224   7.357
 3400POPC   NC345719   7.001  18.788   5.375
 3400POPC   PO445720   7.664  19.082   5.529
 3400POPC   GL145721   7.338  19.110   5.823
 3400POPC   GL245722   7.193  18.756   5.862
 3400POPC   C1A45723   7.402  19.269   6.242
 3400POPC   D2A45724   7.678  19.463   6.544
 3400POPC   C3A45725   7.501  19.403   6.973
 3400POPC   C4A45726   7.415  19.195   7.390
 3400POPC   C1B45727   7.559  18.777   6.176
 3400POPC   C2B45728   7.625  18.911   6.629
 3400POPC   C3B45729   7.523  18.795   7.083
 3400POPC   C4B45730   7.344  18.720   7.539
 3401POPC   NC345731   6.307  30.511   5.197
 3401POPC   PO445732   5.839  30.938   5.285
 3401POPC   GL145733   5.924  30.863   5.788
 3401POPC   GL245734   6.228  30.913   5.968
 3401POPC   C1A45735   5.785  30.646   6.178
 3401POPC   D2A45736   5.553  30.573   6.572
 3401POPC   C3A45737   5.804  30.440   6.941
 3401POPC   C4A45738   5.589  30.611   7.272
 3401POPC   C1B45739   6.215  30.857   6.387
 3401POPC   C2B45740   5.963  30.881   6.740
 3401POPC   C3B45741   6.039  30.876   7.198
 3401POPC   C4B45742   5.923  30.783   7.613
 3402POPC   NC345743   7.761  35.013   5.388
 3402POPC   PO445744   7.134  35.093   5.724
 3402POPC   GL145745   7.458  35.293   5.967
 3402POPC   GL245746   7.787  35.153   5.899
 3402POPC   C1A45747   7.436  35.525   6.368
 3402POPC   D2A45748   7.143  35.438   6.692
 3402POPC   C3A45749   7.238  35.485   7.106
 3402POPC   C4A45750   7.057  35.077   7.169
 3402POPC   C1B45751   7.942  35.422   6.271
 3402POPC   C2B45752   7.849  35.480   6.726
 3402POPC   C3B45753   7.715  35.275   7.103
 3402POPC   C4B45754   7.716  35.464   7.531
 3403POPC   NC345755  33.560  17.124   5.516
 3403POPC   PO445756  33.949  16.531   5.430
 3403POPC   GL145757  33.790  16.593   5.823
 3403POPC   GL245758  33.800  16.956   5.933
 3403POPC   C1A45759  33.957  16.586   6.229
 3403POPC   D2A45760  34.157  16.872   6.511
 3403POPC   C3A45761  34.009  16.792   6.934
 3403POPC   C4A45762  33.858  16.416   7.132
 3403POPC   C1B45763  33.448  16.733   6.197
 3403POPC   C2B45764  33.259  16.790   6.629
 3403POPC   C3B45765  33.481  16.796   7.047
 3403POPC   C4B45766  33.643  17.017   7.398
 3404POPC   NC345767  11.807  37.392   5.413
 3404POPC   PO445768  12.421  37.663   5.491
 3404POPC   GL145769  12.111  37.903   5.725
 3404POPC   GL245770  12.014  37.601   5.837
 3404POPC   C1A45771  12.060  37.961   6.192
 3404POPC   D2A45772  11.761  37.815   6.509
 3404POPC   C3A45773  11.959  37.804   6.880
 3404POPC   C4A45774  12.058  37.910   7.275
 3404POPC   C1B45775  11.907  37.422   6.221
 3404POPC   C2B45776  12.106  37.360   6.620
 3404POPC   C3B45777  12.013  37.326   7.040
 3404POPC   C4B45778  12.170  37.430   7.398
 3405POPC   NC345779  31.567  17.479   5.579
 3405POPC   PO445780  31.024  17.119   5.702
 3405POPC   GL145781  31.261  17.422   5.992
 3405POPC   GL245782  31.624  17.580   6.062
 3405POPC   C1A45783  31.310  17.448   6.438
 3405POPC   D2A45784  31.408  17.730   6.755
 3405POPC   C3A45785  31.188  17.610   7.055
 3405POPC   C4A45786  31.227  17.210   7.177
 3405POPC   C1B45787  31.815  17.595   6.477
 3405POPC   C2B45788  31.963  17.888   6.778
 3405POPC   C3B45789  31.927  17.855   7.201
 3405POPC   C4B45790  31.634  17.527   7.288
 3406POPC   NC345791  18.615  22.566   5.488
 3406POPC   PO445792  17.997  22.608   5.500
 3406POPC   GL145793  18.259  22.830   5.814
 3406POPC   GL245794  18.195  23.170   5.811
 3406POPC   C1A45795  18.400  22.940   6.254
 3406POPC   D2A45796  18.568  22.846   6.670
 3406POPC   C3A45797  18.279  23.013   6.998
 3406POPC   C4A45798  18.281  22.915   7.427
 3406POPC   C1B45799  18.029  23.295   6.198
 3406POPC   C2B45800  17.971  23.168   6.601
 3406POPC   C3B45801  17.752  23.324   6.931
 3406POPC   C4B45802  18.007  23.433   7.226
 3407POPC   NC345803   0.561   9.593   5.289
 3407POPC   PO445804  44.934   9.425   5.594
 3407POPC   GL145805   0.329   9.570   5.824
 3407POPC   GL245806   0.699   9.569   5.767
 3407POPC   C1A45807   0.325   9.763   6.231
 3407POPC   D2A45808   0.412   9.537   6.589
 3407POPC   C3A45809   0.330   9.539   7.004
 3407POPC   C4A45810   0.588   9.888   7.065
 3407POPC   C1B45811   0.851   9.401   6.131
 3407POPC   C2B45812   0.795   9.226   6.519
 3407POPC   C3B45813   0.854   9.443   6.886
 3407POPC   C4B45814   0.765   9.435   7.287
 3408POPC   NC345815   2.629   4.482   5.344
 3408POPC   PO445816   2.995   3.929   5.378
 3408POPC   GL145817   2.907   4.213   5.743
 3408POPC   GL245818   2.542   4.268   5.800
 3408POPC   C1A45819   3.073   4.260   6.177
 3408POPC   D2A45820   3.131   4.380   6.597
 3408POPC   C3A45821   2.943   4.217   6.943
 3408POPC   C4A45822   2.790   4.380   7.299
 3408POPC   C1B45823   2.485   4.513   6.159
 3408POPC   C2B45824   2.644   4.652   6.559
 3408POPC   C3B45825   2.484   4.573   6.963
 3408POPC   C4B45826   2.273   4.727   7.311
 3409POPC   NC345827   5.497  41.868   5.553
 3409POPC   PO445828   5.338  41.327   5.131
 3409POPC   GL145829   5.264  41.414   5.629
 3409POPC   GL245830   4.922  41.446   5.799
 3409POPC   C1A45831   5.361  41.499   6.077
 3409POPC   D2A45832   5.354  41.646   6.520
 3409POPC   C3A45833   5.281  41.351   6.837
 3409POPC   C4A45834   5.267  41.438   7.282
 3409POPC   C1B45835   4.904  41.660   6.215
 3409POPC   C2B45836   4.831  41.543   6.613
 3409POPC   C3B45837   4.856  41.613   7.012
 3409POPC   C4B45838   4.688  41.972   7.157
 3410POPC   NC345839  39.832  12.526   5.529
 3410POPC   PO445840  39.183  12.426   5.602
 3410POPC   GL145841  39.326  12.047   5.820
 3410POPC   GL245842  39.600  12.217   6.005
 3410POPC   C1A45843  39.133  11.771   6.154
 3410POPC   D2A45844  38.931  11.839   6.567
 3410POPC   C3A45845  39.218  12.028   6.875
 3410POPC   C4A45846  39.300  12.017   7.302
 3410POPC   C1B45847  39.213  12.280   6.272
 3410POPC   C2B45848  38.971  12.401   6.628
 3410POPC   C3B45849  38.884  12.346   7.086
 3410POPC   C4B45850  38.972  12.308   7.576
 3411POPC   NC345851  43.575  21.575   5.551
 3411POPC   PO445852  43.204  20.949   5.553
 3411POPC   GL145853  43.370  21.282   5.907
 3411POPC   GL245854  43.399  21.695   6.007
 3411POPC   C1A45855  43.337  21.323   6.353
 3411POPC   D2A45856  43.294  21.512   6.748
 3411POPC   C3A45857  43.241  21.123   6.968
 3411POPC   C4A45858  43.145  20.941   7.367
 3411POPC   C1B45859  43.085  21.762   6.353
 3411POPC   C2B45860  42.861  21.800   6.750
 3411POPC   C3B45861  43.030  21.683   7.170
 3411POPC   C4B45862  43.008  21.460   7.560
 3412POPC   NC345863  35.694  11.520   5.095
 3412POPC   PO445864  35.300  11.029   5.310
 3412POPC   GL145865  35.428  11.059   5.731
 3412POPC   GL245866  35.310  11.378   5.884
 3412POPC   C1A45867  35.408  10.963   6.159
 3412POPC   D2A45868  35.543  11.166   6.532
 3412POPC   C3A45869  35.522  11.012   6.933
 3412POPC   C4A45870  35.427  11.103   7.353
 3412POPC   C1B45871  35.321  11.587   6.315
 3412POPC   C2B45872  35.447  11.598   6.792
 3412POPC   C3B45873  35.376  11.632   7.228
 3412POPC   C4B45874  35.133  11.451   7.579
 3413POPC   NC345875   1.477  43.587   5.421
 3413POPC   PO445876   1.155  42.928   5.353
 3413POPC   GL145877   1.226  42.994   5.787
 3413POPC   GL245878   1.138  43.332   5.759
 3413POPC   C1A45879   1.021  42.981   6.179
 3413POPC   D2A45880   0.997  43.075   6.598
 3413POPC   C3A45881   1.263  42.809   6.824
 3413POPC   C4A45882   1.140  42.877   7.231
 3413POPC   C1B45883   1.392  43.333   6.168
 3413POPC   C2B45884   1.510  43.237   6.623
 3413POPC   C3B45885   1.483  43.247   7.093
 3413POPC   C4B45886   1.220  43.330   7.463
 3414POPC   NC345887  25.940  12.460   5.361
 3414POPC   PO445888  26.389  11.962   5.436
 3414POPC   GL145889  26.056  12.050   5.717
 3414POPC   GL245890  26.243  12.338   5.761
 3414POPC   C1A45891  25.944  12.137   6.156
 3414POPC   D2A45892  26.062  12.333   6.566
 3414POPC   C3A45893  26.034  11.978   6.826
 3414POPC   C4A45894  25.949  11.982   7.242
 3414POPC   C1B45895  26.363  12.428   6.146
 3414POPC   C2B45896  26.527  12.159   6.448
 3414POPC   C3B45897  26.534  12.174   6.882
 3414POPC   C4B45898  26.437  11.863   7.144
 3415POPC   NC345899   3.283  11.408   5.499
 3415POPC   PO445900   3.812  11.361   5.148
 3415POPC   GL145901   3.785  11.226   5.645
 3415POPC   GL245902   3.503  11.049   5.814
 3415POPC   C1A45903   3.879  11.343   6.094
 3415POPC   D2A45904   4.079  11.278   6.519
 3415POPC   C3A45905   3.819  11.389   6.883
 3415POPC   C4A45906   3.789  11.320   7.316
 3415POPC   C1B45907   3.502  11.037   6.284
 3415POPC   C2B45908   3.228  11.186   6.617
 3415POPC   C3B45909   3.136  11.020   7.038
 3415POPC   C4B45910   3.228  11.230   7.428
 3416POPC   NC345911  40.644  14.702   5.444
 3416POPC   PO445912  40.991  14.127   5.330
 3416POPC   GL145913  40.744  14.249   5.696
 3416POPC   GL245914  41.075  14.283   5.837
 3416POPC   C1A45915  40.694  14.497   6.114
 3416POPC   D2A45916  40.545  14.679   6.515
 3416POPC   C3A45917  40.681  14.439   6.891
 3416POPC   C4A45918  40.810  14.491   7.333
 3416POPC   C1B45919  41.108  14.232   6.290
 3416POPC   C2B45920  41.053  14.011   6.683
 3416POPC   C3B45921  41.200  14.208   7.043
 3416POPC   C4B45922  41.213  14.222   7.474
 3417POPC   NC345923  43.558   0.381   5.404
 3417POPC   PO445924  43.016   0.826   5.401
 3417POPC   GL145925  43.163   0.560   5.776
 3417POPC   GL245926  43.455   0.758   5.849
 3417POPC   C1A45927  43.114   0.268   6.184
 3417POPC   D2A45928  42.969   0.398   6.600
 3417POPC   C3A45929  43.065   0.309   7.048
 3417POPC   C4A45930  43.021  44.985   7.413
 3417POPC   C1B45931  43.329   0.698   6.296
 3417POPC   C2B45932  43.492   0.505   6.666
 3417POPC   C3B45933  43.564   0.724   7.069
 3417POPC   C4B45934  43.463   0.655   7.507
 3418POPC   NC345935   7.246  43.855   5.417
 3418POPC   PO445936   7.849  43.564   5.327
 3418POPC   GL145937   7.682  43.875   5.676
 3418POPC   GL245938   7.498  43.628   5.832
 3418POPC   C1A45939   7.478  44.112   6.094
 3418POPC   D2A45940   7.324  44.048   6.555
 3418POPC   C3A45941   7.480  44.079   7.032
 3418POPC   C4A45942   7.230  44.162   7.401
 3418POPC   C1B45943   7.305  43.639   6.227
 3418POPC   C2B45944   7.483  43.552   6.617
 3418POPC   C3B45945   7.258  43.662   6.920
 3418POPC   C4B45946   7.302  43.613   7.329
 3419POPC   NC345947  21.384  16.896   5.378
 3419POPC   PO445948  21.774  16.380   5.294
 3419POPC   GL145949  21.662  16.570   5.725
 3419POPC   GL245950  21.419  16.858   5.882
 3419POPC   C1A45951  21.568  16.427   6.141
 3419POPC   D2A45952  21.667  16.630   6.533
 3419POPC   C3A45953  21.408  16.836   6.806
 3419POPC   C4A45954  21.428  16.738   7.227
 3419POPC   C1B45955  21.179  16.732   6.262
 3419POPC   C2B45956  20.939  16.700   6.636
 3419POPC   C3B45957  20.950  16.892   7.039
 3419POPC   C4B45958  21.139  17.123   7.341
 3420POPC   NC345959  29.165  14.184   5.464
 3420POPC   PO445960  29.307  14.881   5.366
 3420POPC   GL145961  29.187  14.671   5.730
 3420POPC   GL245962  29.461  14.419   5.802
 3420POPC   C1A45963  29.028  14.442   6.097
 3420POPC   D2A45964  29.228  14.415   6.493
 3420POPC   C3A45965  29.025  14.506   6.879
 3420POPC   C4A45966  29.256  14.589   7.248
 3420POPC   C1B45967  29.406  14.070   6.121
 3420POPC   C2B45968  29.332  13.913   6.553
 3420POPC   C3B45969  29.357  14.132   6.946
 3420POPC   C4B45970  29.059  14.109   7.273
 3421POPC   NC345971  43.741  33.051   5.314
 3421POPC   PO445972  44.381  33.114   5.209
 3421POPC   GL145973  44.100  33.091   5.679
 3421POPC   GL245974  43.777  32.920   5.803
 3421POPC   C1A45975  44.011  33.205   6.164
 3421POPC   D2A45976  44.061  33.296   6.640
 3421POPC   C3A45977  43.832  33.188   7.043
 3421POPC   C4A45978  43.885  32.887   7.366
 3421POPC   C1B45979  43.720  32.794   6.232
 3421POPC   C2B45980  43.677  32.883   6.645
 3421POPC   C3B45981  43.531  32.738   7.023
 3421POPC   C4B45982  43.459  32.646   7.465
 3422POPC   NC345983  14.235  27.242   5.291
 3422POPC   PO445984  14.784  27.653   5.430
 3422POPC   GL145985  14.489  27.369   5.707
 3422POPC   GL245986  14.205  27.597   5.709
 3422POPC   C1A45987  14.234  27.346   6.128
 3422POPC   D2A45988  14.386  27.533   6.471
 3422POPC   C3A45989  14.355  27.356   6.856
 3422POPC   C4A45990  14.356  27.520   7.230
 3422POPC   C1B45991  14.552  27.769   6.029
 3422POPC   C2B45992  14.834  27.814   6.398
 3422POPC   C3B45993  14.651  27.828   6.802
 3422POPC   C4B45994  14.693  27.959   7.204
 3423POPC   NC345995  25.050  29.564   5.432
 3423POPC   PO445996  25.522  30.026   5.324
 3423POPC   GL145997  25.361  29.895   5.720
 3423POPC   GL245998  24.987  29.954   5.740
 3423POPC   C1A45999  25.432  29.820   6.158
 3423POPC   D2A46000  25.633  29.871   6.551
 3423POPC   C3A46001  25.403  29.740   6.917
 3423POPC   C4A46002  25.424  29.940   7.306
 3423POPC   C1B46003  24.929  29.812   6.184
 3423POPC   C2B46004  24.803  29.935   6.637
 3423POPC   C3B46005  24.942  29.929   7.088
 3423POPC   C4B46006  24.998  29.862   7.567
 3424POPC   NC346007  33.944  17.888   5.044
 3424POPC   PO446008  33.992  17.242   5.354
 3424POPC   GL146009  33.841  17.504   5.711
 3424POPC   GL246010  34.138  17.707   5.682
 3424POPC   C1A46011  33.663  17.398   6.153
 3424POPC   D2A46012  33.681  17.085   6.490
 3424POPC   C3A46013  33.715  17.230   6.904
 3424POPC   C4A46014  33.679  17.503   7.247
 3424POPC   C1B46015  34.171  17.494   6.085
 3424POPC   C2B46016  34.094  17.411   6.498
 3424POPC   C3B46017  34.141  17.499   6.910
 3424POPC   C4B46018  34.099  17.236   7.273
 3425POPC   NC346019  39.276  26.708   5.425
 3425POPC   PO446020  39.256  27.355   5.370
 3425POPC   GL146021  39.395  27.093   5.743
 3425POPC   GL246022  39.047  26.988   5.773
 3425POPC   C1A46023  39.374  26.872   6.179
 3425POPC   D2A46024  39.445  26.562   6.535
 3425POPC   C3A46025  39.376  26.573   7.014
 3425POPC   C4A46026  39.056  26.493   7.335
 3425POPC   C1B46027  38.943  27.169   6.161
 3425POPC   C2B46028  39.142  27.217   6.549
 3425POPC   C3B46029  39.098  26.996   6.913
 3425POPC   C4B46030  39.063  27.097   7.304
 3426POPC   NC346031   2.970  10.460   5.438
 3426POPC   PO446032   2.409  10.801   5.626
 3426POPC   GL146033   2.717  10.589   5.896
 3426POPC   GL246034   2.681  10.239   5.804
 3426POPC   C1A46035   2.794  10.492   6.348
 3426POPC   D2A46036   2.511  10.542   6.748
 3426POPC   C3A46037   2.772  10.526   7.096
 3426POPC   C4A46038   3.183  10.419   7.123
 3426POPC   C1B46039   2.631  10.006   6.171
 3426POPC   C2B46040   2.682  10.054   6.611
 3426POPC   C3B46041   2.884  10.018   7.000
 3426POPC   C4B46042   2.784  10.132   7.434
 3427POPC   NC346043   6.998  39.228   5.536
 3427POPC   PO446044   7.657  39.125   5.527
 3427POPC   GL146045   7.366  39.236   5.870
 3427POPC   GL246046   7.238  39.593   5.817
 3427POPC   C1A46047   7.281  39.132   6.299
 3427POPC   D2A46048   7.440  38.936   6.677
 3427POPC   C3A46049   7.141  38.966   6.983
 3427POPC   C4A46050   7.130  39.116   7.373
 3427POPC   C1B46051   7.556  39.600   6.164
 3427POPC   C2B46052   7.527  39.530   6.607
 3427POPC   C3B46053   7.493  39.344   7.026
 3427POPC   C4B46054   7.569  39.350   7.468
 3428POPC   NC346055  39.875  43.442   5.431
 3428POPC   PO446056  39.590  42.843   5.389
 3428POPC   GL146057  39.928  42.952   5.754
 3428POPC   GL246058  39.939  43.263   5.891
 3428POPC   C1A46059  40.210  42.949   6.157
 3428POPC   D2A46060  40.198  43.128   6.577
 3428POPC   C3A46061  39.865  42.999   6.869
 3428POPC   C4A46062  40.118  42.924   7.220
 3428POPC   C1B46063  40.135  43.490   6.200
 3428POPC   C2B46064  39.980  43.620   6.596
 3428POPC   C3B46065  40.032  43.459   7.010
 3428POPC   C4B46066  40.121  43.394   7.415
 3429POPC   NC346067  29.346  13.345   5.362
 3429POPC   PO446068  28.864  13.820   5.516
 3429POPC   GL146069  29.169  13.625   5.786
 3429POPC   GL246070  29.028  13.303   5.849
 3429POPC   C1A46071  29.344  13.556   6.196
 3429POPC   D2A46072  29.447  13.423   6.657
 3429POPC   C3A46073  29.258  13.635   6.988
 3429POPC   C4A46074  29.441  13.774   7.374
 3429POPC   C1B46075  28.880  13.313   6.246
 3429POPC   C2B46076  28.887  13.499   6.635
 3429POPC   C3B46077  28.779  13.374   7.033
 3429POPC   C4B46078  28.972  13.555   7.391
 3430POPC   NC346079  17.627  13.613   4.963
 3430POPC   PO446080  17.723  13.575   5.544
 3430POPC   GL146081  17.568  13.539   5.938
 3430POPC   GL246082  17.779  13.271   6.019
 3430POPC   C1A46083  17.419  13.567   6.365
 3430POPC   D2A46084  17.314  13.452   6.796
 3430POPC   C3A46085  17.269  13.775   7.120
 3430POPC   C4A46086  17.210  13.993   7.524
 3430POPC   C1B46087  17.936  13.619   6.292
 3430POPC   C2B46088  17.794  13.695   6.701
 3430POPC   C3B46089  17.753  13.477   7.062
 3430POPC   C4B46090  18.004  13.415   7.391
 3431POPC   NC346091  24.398  37.705   5.145
 3431POPC   PO446092  24.779  37.537   5.714
 3431POPC   GL146093  24.732  37.777   6.047
 3431POPC   GL246094  24.461  38.040   6.060
 3431POPC   C1A46095  24.619  37.604   6.402
 3431POPC   D2A46096  24.533  37.653   6.771
 3431POPC   C3A46097  24.423  37.330   6.993
 3431POPC   C4A46098  24.333  37.432   7.404
 3431POPC   C1B46099  24.191  37.870   6.341
 3431POPC   C2B46100  24.030  37.911   6.700
 3431POPC   C3B46101  24.164  37.825   7.065
 3431POPC   C4B46102  24.284  38.006   7.365
 3432POPC   NC346103  36.503  23.409   5.297
 3432POPC   PO446104  35.931  23.673   5.425
 3432POPC   GL146105  36.051  23.619   5.827
 3432POPC   GL246106  36.287  23.329   5.853
 3432POPC   C1A46107  36.152  23.874   6.181
 3432POPC   D2A46108  36.333  24.114   6.514
 3432POPC   C3A46109  36.187  24.113   6.933
 3432POPC   C4A46110  36.376  23.926   7.293
 3432POPC   C1B46111  36.017  23.349   6.255
 3432POPC   C2B46112  36.080  23.324   6.703
 3432POPC   C3B46113  36.078  23.609   7.035
 3432POPC   C4B46114  35.857  23.389   7.346
 3433POPC   NC346115  27.214  32.317   5.464
 3433POPC   PO446116  26.887  31.837   5.459
 3433POPC   GL146117  26.837  32.203   5.790
 3433POPC   GL246118  26.515  32.403   5.813
 3433POPC   C1A46119  27.097  32.286   6.183
 3433POPC   D2A46120  26.998  31.937   6.474
 3433POPC   C3A46121  27.010  32.025   6.904
 3433POPC   C4A46122  27.247  32.380   7.071
 3433POPC   C1B46123  26.594  32.278   6.272
 3433POPC   C2B46124  26.781  32.461   6.663
 3433POPC   C3B46125  26.731  32.390   7.125
 3433POPC   C4B46126  26.549  31.968   7.165
 3434POPC   NC346127  22.235  14.652   5.204
 3434POPC   PO446128  22.640  14.132   5.484
 3434POPC   GL146129  22.390  14.425   5.659
 3434POPC   GL246130  22.549  14.743   5.722
 3434POPC   C1A46131  22.155  14.393   6.049
 3434POPC   D2A46132  22.325  14.342   6.479
 3434POPC   C3A46133  22.080  14.437   6.835
 3434POPC   C4A46134  22.218  14.252   7.258
 3434POPC   C1B46135  22.612  14.605   6.143
 3434POPC   C2B46136  22.691  14.700   6.604
 3434POPC   C3B46137  22.470  14.677   7.054
 3434POPC   C4B46138  22.526  14.645   7.516
 3435POPC   NC346139  17.129   0.439   5.528
 3435POPC   PO446140  16.620   0.076   5.411
 3435POPC   GL146141  16.810   0.160   5.801
 3435POPC   GL246142  16.710   0.495   5.824
 3435POPC   C1A46143  17.025   0.235   6.196
 3435POPC   D2A46144  16.983   0.024   6.577
 3435POPC   C3A46145  17.071   0.192   6.950
 3435POPC   C4A46146  16.803   0.424   7.166
 3435POPC   C1B46147  16.710   0.659   6.237
 3435POPC   C2B46148  16.750   0.563   6.655
 3435POPC   C3B46149  16.489   0.713   6.923
 3435POPC   C4B46150  16.422   0.714   7.331
 3436POPC   NC346151  43.829  44.788   5.362
 3436POPC   PO446152  44.380  44.593   5.533
 3436POPC   GL146153  44.018  44.612   5.816
 3436POPC   GL246154  43.651  44.541   5.769
 3436POPC   C1A46155  43.916  44.488   6.237
 3436POPC   D2A46156  44.073  44.632   6.649
 3436POPC   C3A46157  43.936  44.432   7.034
 3436POPC   C4A46158  43.995  44.467   7.464
 3436POPC   C1B46159  43.664  44.950   6.023
 3436POPC   C2B46160  43.511   0.028   6.453
 3436POPC   C3B46161  43.648  44.861   6.860
 3436POPC   C4B46162  43.608  44.771   7.309
 3437POPC   NC346163  42.680  22.012   5.461
 3437POPC   PO446164  43.320  21.961   5.548
 3437POPC   GL146165  43.300  22.203   5.863
 3437POPC   GL246166  42.989  22.062   5.947
 3437POPC   C1A46167  43.400  22.157   6.268
 3437POPC   D2A46168  43.142  22.224   6.590
 3437POPC   C3A46169  43.306  22.027   6.908
 3437POPC   C4A46170  43.161  22.182   7.263
 3437POPC   C1B46171  42.711  22.099   6.297
 3437POPC   C2B46172  42.621  22.252   6.677
 3437POPC   C3B46173  42.665  22.112   7.105
 3437POPC   C4B46174  42.688  22.410   7.416
 3438POPC   NC346175  31.353  35.695   5.366
 3438POPC   PO446176  31.877  35.241   5.414
 3438POPC   GL146177  31.556  35.309   5.771
 3438POPC   GL246178  31.229  35.486   5.825
 3438POPC   C1A46179  31.356  35.071   6.113
 3438POPC   D2A46180  31.520  35.071   6.539
 3438POPC   C3A46181  31.353  35.126   6.955
 3438POPC   C4A46182  31.514  35.346   7.274
 3438POPC   C1B46183  31.118  35.480   6.282
 3438POPC   C2B46184  31.200  35.539   6.722
 3438POPC   C3B46185  31.060  35.567   7.151
 3438POPC   C4B46186  31.142  35.540   7.590
 3439POPC   NC346187  27.015   5.046   5.450
 3439POPC   PO446188  26.283   4.969   5.418
 3439POPC   GL146189  26.613   4.840   5.732
 3439POPC   GL246190  26.746   5.155   5.861
 3439POPC   C1A46191  26.752   4.716   6.177
 3439POPC   D2A46192  26.625   4.758   6.610
 3439POPC   C3A46193  26.846   4.669   7.031
 3439POPC   C4A46194  26.731   4.735   7.505
 3439POPC   C1B46195  26.966   5.181   6.234
 3439POPC   C2B46196  26.828   5.253   6.635
 3439POPC   C3B46197  26.969   5.394   7.002
 3439POPC   C4B46198  27.030   5.076   7.316
 3440POPC   NC346199  37.965  44.189   5.499
 3440POPC   PO446200  37.445  43.716   5.308
 3440POPC   GL146201  37.614  43.841   5.721
 3440POPC   GL246202  37.964  43.769   5.810
 3440POPC   C1A46203  37.574  43.976   6.157
 3440POPC   D2A46204  37.626  43.877   6.604
 3440POPC   C3A46205  37.643  44.256   6.867
 3440POPC   C4A46206  37.510  44.301   7.295
 3440POPC   C1B46207  38.025  43.744   6.254
 3440POPC   C2B46208  38.029  43.518   6.640
 3440POPC   C3B46209  37.985  43.670   7.047
 3440POPC   C4B46210  37.590  43.817   7.163
 3441POPC   NC346211  15.959   6.304   5.471
 3441POPC   PO446212  16.071   5.683   5.618
 3441POPC   GL146213  15.974   6.000   5.890
 3441POPC   GL246214  16.287   6.195   5.862
 3441POPC   C1A46215  15.768   6.024   6.267
 3441POPC   D2A46216  15.697   5.759   6.630
 3441POPC   C3A46217  16.077   5.751   6.890
 3441POPC   C4A46218  15.994   5.716   7.350
 3441POPC   C1B46219  16.443   5.846   6.131
 3441POPC   C2B46220  16.490   5.564   6.479
 3441POPC   C3B46221  16.599   5.598   6.887
 3441POPC   C4B46222  16.360   5.428   7.185
 3442POPC   NC346223  24.034  17.574   5.123
 3442POPC   PO446224  24.640  17.639   5.425
 3442POPC   GL146225  24.736  17.474   5.799
 3442POPC   GL246226  25.007  17.684   5.875
 3442POPC   C1A46227  24.568  17.597   6.196
 3442POPC   D2A46228  24.618  17.523   6.623
 3442POPC   C3A46229  24.424  17.524   6.995
 3442POPC   C4A46230  24.527  17.250   7.288
 3442POPC   C1B46231  24.961  17.977   6.195
 3442POPC   C2B46232  24.975  18.084   6.622
 3442POPC   C3B46233  24.798  17.863   6.969
 3442POPC   C4B46234  24.737  17.723   7.403
 3443POPC   NC346235  33.934   6.593   5.346
 3443POPC   PO446236  33.367   6.551   5.559
 3443POPC   GL146237  33.562   6.444   5.902
 3443POPC   GL246238  33.862   6.592   5.865
 3443POPC   C1A46239  33.619   6.626   6.312
 3443POPC   D2A46240  33.865   6.912   6.563
 3443POPC   C3A46241  33.738   6.759   6.945
 3443POPC   C4A46242  33.838   6.819   7.343
 3443POPC   C1B46243  34.044   6.353   6.234
 3443POPC   C2B46244  34.197   6.490   6.647
 3443POPC   C3B46245  34.123   6.443   7.077
 3443POPC   C4B46246  33.725   6.292   7.247
 3444POPC   NC346247  37.507  12.521   5.539
 3444POPC   PO446248  37.827  13.027   5.312
 3444POPC   GL146249  37.682  12.969   5.752
 3444POPC   GL246250  37.940  12.691   5.767
 3444POPC   C1A46251  37.363  12.812   6.097
 3444POPC   D2A46252  37.257  12.733   6.519
 3444POPC   C3A46253  37.538  12.795   6.872
 3444POPC   C4A46254  37.381  12.894   7.277
 3444POPC   C1B46255  37.885  12.784   6.220
 3444POPC   C2B46256  38.086  12.572   6.585
 3444POPC   C3B46257  38.102  12.759   6.988
 3444POPC   C4B46258  37.925  13.083   7.230
 3445POPC   NC346259  27.492  21.502   5.313
 3445POPC   PO446260  28.111  21.330   5.427
 3445POPC   GL146261  27.762  21.292   5.780
 3445POPC   GL246262  27.373  21.321   5.769
 3445POPC   C1A46263  27.610  21.552   6.153
 3445POPC   D2A46264  27.749  21.678   6.564
 3445POPC   C3A46265  27.499  21.581   6.920
 3445POPC   C4A46266  27.410  21.462   7.333
 3445POPC   C1B46267  27.379  21.092   6.130
 3445POPC   C2B46268  27.431  21.230   6.554
 3445POPC   C3B46269  27.172  21.181   6.928
 3445POPC   C4B46270  26.913  21.305   7.263
 3446POPC   NC346271   6.472  28.797   5.515
 3446POPC   PO446272   6.572  29.528   5.500
 3446POPC   GL146273   6.763  29.363   5.909
 3446POPC   GL246274   6.717  28.974   5.916
 3446POPC   C1A46275   6.752  29.192   6.350
 3446POPC   D2A46276   6.496  28.995   6.611
 3446POPC   C3A46277   6.757  29.088   6.933
 3446POPC   C4A46278   6.716  29.422   7.204
 3446POPC   C1B46279   6.513  28.649   6.217
 3446POPC   C2B46280   6.380  28.494   6.634
 3446POPC   C3B46281   6.522  28.644   7.047
 3446POPC   C4B46282   6.447  28.998   7.316
 3447POPC   NC346283   9.999  17.712   5.341
 3447POPC   PO446284   9.553  17.469   5.717
 3447POPC   GL146285  10.000  17.447   5.799
 3447POPC   GL246286  10.118  17.812   5.819
 3447POPC   C1A46287  10.076  17.310   6.219
 3447POPC   D2A46288   9.704  17.392   6.513
 3447POPC   C3A46289   9.773  17.390   6.964
 3447POPC   C4A46290  10.041  17.305   7.378
 3447POPC   C1B46291   9.987  17.813   6.261
 3447POPC   C2B46292   9.949  17.811   6.707
 3447POPC   C3B46293  10.072  17.764   7.132
 3447POPC   C4B46294   9.703  17.673   7.385
 3448POPC   NC346295  30.230  11.927   5.484
 3448POPC   PO446296  30.945  11.976   5.502
 3448POPC   GL146297  30.875  12.108   5.879
 3448POPC   GL246298  30.670  11.818   5.921
 3448POPC   C1A46299  31.073  11.901   6.234
 3448POPC   D2A46300  31.059  11.765   6.687
 3448POPC   C3A46301  30.974  12.104   7.017
 3448POPC   C4A46302  30.862  12.443   7.312
 3448POPC   C1B46303  30.610  12.081   6.325
 3448POPC   C2B46304  30.527  11.890   6.718
 3448POPC   C3B46305  30.434  11.796   7.136
 3448POPC   C4B46306  30.428  12.191   7.276
 3449POPC   NC346307  28.230  11.865   5.333
 3449POPC   PO446308  28.849  11.979   5.539
 3449POPC   GL146309  28.492  11.932   5.791
 3449POPC   GL246310  28.332  12.259   5.680
 3449POPC   C1A46311  28.389  11.874   6.228
 3449POPC   D2A46312  28.452  12.189   6.519
 3449POPC   C3A46313  28.349  12.147   6.926
 3449POPC   C4A46314  28.663  12.340   7.172
 3449POPC   C1B46315  28.157  12.314   6.088
 3449POPC   C2B46316  28.061  12.532   6.470
 3449POPC   C3B46317  28.170  12.657   6.878
 3449POPC   C4B46318  28.189  12.493   7.276
 3450POPC   NC346319   0.109  13.433   5.411
 3450POPC   PO446320   0.830  13.156   5.497
 3450POPC   GL146321   0.653  13.448   5.813
 3450POPC   GL246322   0.305  13.576   5.856
 3450POPC   C1A46323   0.612  13.439   6.239
 3450POPC   D2A46324   0.656  13.732   6.529
 3450POPC   C3A46325   0.606  13.569   6.870
 3450POPC   C4A46326   0.451  13.584   7.267
 3450POPC   C1B46327   0.334  13.918   6.170
 3450POPC   C2B46328   0.273  14.071   6.591
 3450POPC   C3B46329   0.136  13.774   6.904
 3450POPC   C4B46330  44.987  13.779   7.335
 3451POPC   NC346331  34.298   1.559   5.098
 3451POPC   PO446332  34.444   1.967   5.673
 3451POPC   GL146333  34.430   1.834   6.037
 3451POPC   GL246334  34.117   1.619   6.018
 3451POPC   C1A46335  34.503   2.196   6.274
 3451POPC   D2A46336  34.376   2.326   6.662
 3451POPC   C3A46337  34.607   2.139   6.988
 3451POPC   C4A46338  34.794   2.236   7.371
 3451POPC   C1B46339  34.256   1.527   6.419
 3451POPC   C2B46340  34.518   1.820   6.606
 3451POPC   C3B46341  34.907   1.759   6.853
 3451POPC   C4B46342  34.795   1.736   7.279
 3452POPC   NC346343  13.133   1.863   5.205
 3452POPC   PO446344  13.727   2.080   5.295
 3452POPC   GL146345  13.695   1.973   5.773
 3452POPC   GL246346  13.327   2.044   5.776
 3452POPC   C1A46347  13.802   2.068   6.234
 3452POPC   D2A46348  14.068   2.040   6.598
 3452POPC   C3A46349  13.928   2.156   6.987
 3452POPC   C4A46350  13.611   1.932   7.095
 3452POPC   C1B46351  13.354   1.808   6.180
 3452POPC   C2B46352  13.370   1.671   6.641
 3452POPC   C3B46353  13.287   1.562   7.087
 3452POPC   C4B46354  13.528   1.473   7.464
 3453POPC   NC346355   6.066  37.858   5.207
 3453POPC   PO446356   5.811  37.291   5.423
 3453POPC   GL146357   5.876  37.535   5.778
 3453POPC   GL246358   5.955  37.880   5.708
 3453POPC   C1A46359   5.780  37.658   6.204
 3453POPC   D2A46360   5.928  37.520   6.607
 3453POPC   C3A46361   5.615  37.503   6.941
 3453POPC   C4A46362   5.665  37.395   7.371
 3453POPC   C1B46363   5.692  38.124   6.003
 3453POPC   C2B46364   5.764  38.128   6.454
 3453POPC   C3B46365   5.868  37.977   6.856
 3453POPC   C4B46366   5.613  37.930   7.225
 3454POPC   NC346367  44.237  16.917   5.615
 3454POPC   PO446368  43.624  16.803   5.491
 3454POPC   GL146369  43.820  16.685   5.853
 3454POPC   GL246370  43.605  16.415   5.943
 3454POPC   C1A46371  44.001  16.865   6.238
 3454POPC   D2A46372  44.127  16.747   6.624
 3454POPC   C3A46373  43.936  16.934   6.969
 3454POPC   C4A46374  43.685  17.050   7.334
 3454POPC   C1B46375  43.855  16.378   6.292
 3454POPC   C2B46376  43.937  16.256   6.697
 3454POPC   C3B46377  43.985  16.433   7.081
 3454POPC   C4B46378  43.860  16.570   7.472
 3455POPC   NC346379   8.061  24.386   5.160
 3455POPC   PO446380   7.688  24.801   5.521
 3455POPC   GL146381   8.075  24.555   5.733
 3455POPC   GL246382   7.884  24.499   5.970
 3455POPC   C1A46383   8.318  24.492   6.181
 3455POPC   D2A46384   8.103  24.344   6.590
 3455POPC   C3A46385   8.214  24.527   7.004
 3455POPC   C4A46386   8.108  24.554   7.443
 3455POPC   C1B46387   7.748  24.179   6.216
 3455POPC   C2B46388   7.699  24.027   6.596
 3455POPC   C3B46389   7.745  24.261   6.999
 3455POPC   C4B46390   7.631  24.080   7.378
 3456POPC   NC346391  12.554  24.629   5.478
 3456POPC   PO446392  11.975  24.328   5.250
 3456POPC   GL146393  11.975  24.529   5.693
 3456POPC   GL246394  12.253  24.450   5.884
 3456POPC   C1A46395  11.761  24.528   6.118
 3456POPC   D2A46396  11.950  24.480   6.552
 3456POPC   C3A46397  11.856  24.320   6.956
 3456POPC   C4A46398  12.138  24.310   7.288
 3456POPC   C1B46399  12.215  24.756   6.227
 3456POPC   C2B46400  12.379  24.771   6.637
 3456POPC   C3B46401  12.115  24.753   7.025
 3456POPC   C4B46402  11.792  24.683   7.372
 3457POPC   NC346403  20.627  22.693   5.482
 3457POPC   PO446404  20.570  23.417   5.395
 3457POPC   GL146405  20.602  23.166   5.764
 3457POPC   GL246406  20.933  23.001   5.773
 3457POPC   C1A46407  20.669  23.085   6.206
 3457POPC   D2A46408  20.498  22.820   6.533
 3457POPC   C3A46409  20.588  22.968   6.926
 3457POPC   C4A46410  20.362  22.982   7.323
 3457POPC   C1B46411  21.050  22.748   6.153
 3457POPC   C2B46412  21.031  22.899   6.587
 3457POPC   C3B46413  21.077  23.085   6.991
 3457POPC   C4B46414  20.886  22.897   7.345
 3458POPC   NC346415  34.543  17.141   5.331
 3458POPC   PO446416  34.854  17.747   5.305
 3458POPC   GL146417  34.655  17.525   5.679
 3458POPC   GL246418  34.783  17.180   5.779
 3458POPC   C1A46419  34.674  17.551   6.136
 3458POPC   D2A46420  34.634  17.733   6.546
 3458POPC   C3A46421  34.754  17.502   6.893
 3458POPC   C4A46422  34.715  17.685   7.293
 3458POPC   C1B46423  34.453  17.073   6.086
 3458POPC   C2B46424  34.557  17.187   6.508
 3458POPC   C3B46425  34.423  17.089   6.900
 3458POPC   C4B46426  34.594  17.196   7.266
 3459POPC   NC346427  22.679  12.096   5.240
 3459POPC   PO446428  22.018  12.016   5.105
 3459POPC   GL146429  21.890  12.088   5.617
 3459POPC   GL246430  22.178  12.178   5.853
 3459POPC   C1A46431  21.752  12.040   6.095
 3459POPC   D2A46432  21.831  12.231   6.518
 3459POPC   C3A46433  22.037  12.094   6.868
 3459POPC   C4A46434  21.852  11.925   7.226
 3459POPC   C1B46435  22.380  12.250   6.296
 3459POPC   C2B46436  22.689  12.337   6.652
 3459POPC   C3B46437  22.515  12.355   7.051
 3459POPC   C4B46438  22.360  12.031   7.266
 3460POPC   NC346439  13.178   7.297   5.148
 3460POPC   PO446440  12.779   7.660   5.450
 3460POPC   GL146441  12.784   7.474   5.836
 3460POPC   GL246442  13.013   7.182   5.784
 3460POPC   C1A46443  12.901   7.764   6.193
 3460POPC   D2A46444  12.981   7.889   6.621
 3460POPC   C3A46445  12.619   7.690   6.845
 3460POPC   C4A46446  12.580   7.492   7.244
 3460POPC   C1B46447  13.111   7.265   6.219
 3460POPC   C2B46448  13.031   7.075   6.602
 3460POPC   C3B46449  13.224   7.048   6.968
 3460POPC   C4B46450  12.868   7.081   7.167
 3461POPC   NC346451  28.214  20.173   5.457
 3461POPC   PO446452  28.479  19.592   5.380
 3461POPC   GL146453  28.271  19.752   5.760
 3461POPC   GL246454  28.017  19.513   5.833
 3461POPC   C1A46455  28.352  19.634   6.192
 3461POPC   D2A46456  28.477  19.546   6.597
 3461POPC   C3A46457  28.404  19.821   6.951
 3461POPC   C4A46458  28.228  19.887   7.391
 3461POPC   C1B46459  27.888  19.409   6.269
 3461POPC   C2B46460  28.004  19.383   6.738
 3461POPC   C3B46461  28.160  19.432   7.189
 3461POPC   C4B46462  28.188  19.435   7.658
 3462POPC   NC346463  21.690  33.059   5.655
 3462POPC   PO446464  21.020  32.967   5.574
 3462POPC   GL146465  21.246  32.976   5.975
 3462POPC   GL246466  21.462  33.239   6.065
 3462POPC   C1A46467  21.156  33.034   6.412
 3462POPC   D2A46468  21.519  33.132   6.626
 3462POPC   C3A46469  21.541  33.012   7.033
 3462POPC   C4A46470  21.353  33.002   7.419
 3462POPC   C1B46471  21.303  33.541   6.330
 3462POPC   C2B46472  21.183  33.531   6.742
 3462POPC   C3B46473  21.105  33.347   7.146
 3462POPC   C4B46474  21.223  33.459   7.618
 3463POPC   NC346475  39.148  28.887   5.443
 3463POPC   PO446476  39.397  29.521   5.448
 3463POPC   GL146477  39.222  29.299   5.826
 3463POPC   GL246478  39.381  28.969   5.895
 3463POPC   C1A46479  39.194  29.397   6.286
 3463POPC   D2A46480  39.250  29.198   6.696
 3463POPC   C3A46481  39.175  29.369   7.108
 3463POPC   C4A46482  39.251  29.373   7.534
 3463POPC   C1B46483  39.014  28.926   6.151
 3463POPC   C2B46484  38.802  28.967   6.560
 3463POPC   C3B46485  38.936  28.903   7.025
 3463POPC   C4B46486  38.936  29.005   7.494
 3464POPC   NC346487   2.281  14.386   5.539
 3464POPC   PO446488   1.565  14.510   5.522
 3464POPC   GL146489   1.828  14.413   5.877
 3464POPC   GL246490   2.126  14.610   5.971
 3464POPC   C1A46491   1.876  14.260   6.308
 3464POPC   D2A46492   1.610  14.103   6.646
 3464POPC   C3A46493   1.664  14.258   7.061
 3464POPC   C4A46494   1.750  14.350   7.470
 3464POPC   C1B46495   2.185  14.733   6.398
 3464POPC   C2B46496   2.246  14.670   6.815
 3464POPC   C3B46497   2.152  14.467   7.182
 3464POPC   C4B46498   2.134  14.622   7.625
 3465POPC   NC346499  44.611   5.963   5.298
 3465POPC   PO446500  44.713   6.593   5.381
 3465POPC   GL146501  44.670   6.225   5.719
 3465POPC   GL246502  44.701   5.825   5.776
 3465POPC   C1A46503  44.621   6.095   6.185
 3465POPC   D2A46504  44.720   5.647   6.370
 3465POPC   C3A46505  44.982   5.603   6.764
 3465POPC   C4A46506  44.917   5.685   7.220
 3465POPC   C1B46507  44.322   5.700   6.042
 3465POPC   C2B46508  44.230   5.672   6.514
 3465POPC   C3B46509  44.507   5.758   6.879
 3465POPC   C4B46510  44.440   5.907   7.344
 3466POPC   NC346511  37.202  15.644   5.486
 3466POPC   PO446512  37.286  16.299   5.421
 3466POPC   GL146513  37.020  16.193   5.770
 3466POPC   GL246514  36.802  15.897   5.704
 3466POPC   C1A46515  37.018  16.016   6.193
 3466POPC   D2A46516  36.969  16.174   6.607
 3466POPC   C3A46517  37.184  16.031   6.999
 3466POPC   C4A46518  36.977  15.915   7.378
 3466POPC   C1B46519  36.567  15.792   6.072
 3466POPC   C2B46520  36.588  15.808   6.507
 3466POPC   C3B46521  36.668  15.861   6.961
 3466POPC   C4B46522  36.580  15.618   7.366
 3467POPC   NC346523  23.653  16.674   5.320
 3467POPC   PO446524  24.210  16.675   5.619
 3467POPC   GL146525  23.801  16.565   5.839
 3467POPC   GL246526  23.508  16.817   5.802
 3467POPC   C1A46527  23.746  16.626   6.302
 3467POPC   D2A46528  24.102  16.662   6.636
 3467POPC   C3A46529  23.930  16.612   7.043
 3467POPC   C4A46530  23.447  16.575   7.111
 3467POPC   C1B46531  23.810  17.083   6.006
 3467POPC   C2B46532  23.856  17.105   6.433
 3467POPC   C3B46533  23.691  16.957   6.779
 3467POPC   C4B46534  23.552  17.068   7.184
 3468POPC   NC346535  29.322  34.952   5.531
 3468POPC   PO446536  28.902  34.510   5.618
 3468POPC   GL146537  29.275  34.589   5.899
 3468POPC   GL246538  29.499  34.884   6.018
 3468POPC   C1A46539  29.278  34.491   6.323
 3468POPC   D2A46540  28.980  34.266   6.568
 3468POPC   C3A46541  29.104  34.393   6.941
 3468POPC   C4A46542  29.128  34.316   7.346
 3468POPC   C1B46543  29.085  34.954   6.228
 3468POPC   C2B46544  28.973  34.807   6.631
 3468POPC   C3B46545  29.079  34.889   7.061
 3468POPC   C4B46546  29.477  34.696   7.224
 3469POPC   NC346547  27.294  15.232   4.982
 3469POPC   PO446548  27.638  14.828   5.463
 3469POPC   GL146549  27.776  14.959   5.883
 3469POPC   GL246550  27.942  15.313   5.831
 3469POPC   C1A46551  27.556  14.878   6.288
 3469POPC   D2A46552  27.366  14.790   6.673
 3469POPC   C3A46553  27.515  15.048   6.997
 3469POPC   C4A46554  27.897  15.097   7.252
 3469POPC   C1B46555  27.607  15.372   6.131
 3469POPC   C2B46556  27.573  15.372   6.589
 3469POPC   C3B46557  27.686  15.526   7.014
 3469POPC   C4B46558  27.895  15.685   7.327
 3470POPC   NC346559  36.654  10.798   5.406
 3470POPC   PO446560  37.174  10.379   5.428
 3470POPC   GL146561  37.151  10.433   5.823
 3470POPC   GL246562  37.065  10.763   5.818
 3470POPC   C1A46563  37.017  10.435   6.227
 3470POPC   D2A46564  36.873  10.330   6.626
 3470POPC   C3A46565  37.072  10.379   7.001
 3470POPC   C4A46566  36.795  10.374   7.372
 3470POPC   C1B46567  37.071  10.980   6.180
 3470POPC   C2B46568  36.974  10.845   6.551
 3470POPC   C3B46569  37.124  10.881   6.920
 3470POPC   C4B46570  36.854  10.838   7.235
 3471POPC   NC346571  44.230  43.873   5.384
 3471POPC   PO446572  43.619  43.945   5.415
 3471POPC   GL146573  43.856  44.067   5.791
 3471POPC   GL246574  44.241  44.150   5.814
 3471POPC   C1A46575  43.663  44.017   6.216
 3471POPC   D2A46576  43.795  44.144   6.624
 3471POPC   C3A46577  43.646  43.905   6.979
 3471POPC   C4A46578  43.839  44.010   7.336
 3471POPC   C1B46579  44.143  43.819   6.137
 3471POPC   C2B46580  44.029  43.691   6.551
 3471POPC   C3B46581  44.157  43.868   6.945
 3471POPC   C4B46582  44.123  43.591   7.301
 3472POPC   NC346583   3.374  42.308   5.614
 3472POPC   PO446584   3.965  42.507   5.389
 3472POPC   GL146585   3.854  42.436   5.791
 3472POPC   GL246586   3.789  42.077   5.797
 3472POPC   C1A46587   3.688  42.581   6.190
 3472POPC   D2A46588   3.388  42.597   6.547
 3472POPC   C3A46589   3.573  42.507   6.974
 3472POPC   C4A46590   3.656  42.742   7.356
 3472POPC   C1B46591   3.574  42.061   6.219
 3472POPC   C2B46592   3.452  42.096   6.670
 3472POPC   C3B46593   3.483  42.020   7.113
 3472POPC   C4B46594   3.732  41.924   7.523
 3473POPC   NC346595   1.070  14.621   5.453
 3473POPC   PO446596   1.403  15.237   5.292
 3473POPC   GL146597   1.341  15.354   5.729
 3473POPC   GL246598   1.030  15.175   5.817
 3473POPC   C1A46599   1.286  15.578   6.136
 3473POPC   D2A46600   1.391  15.452   6.553
 3473POPC   C3A46601   1.032  15.291   6.770
 3473POPC   C4A46602   1.090  15.340   7.197
 3473POPC   C1B46603   1.308  15.068   6.155
 3473POPC   C2B46604   1.365  14.953   6.563
 3473POPC   C3B46605   1.298  14.892   6.962
 3473POPC   C4B46606   1.375  14.633   7.273
 3474POPC   NC346607  44.278  35.900   5.497
 3474POPC   PO446608  44.903  36.124   5.298
 3474POPC   GL146609  44.716  36.147   5.773
 3474POPC   GL246610  44.382  36.084   5.941
 3474POPC   C1A46611  44.719  36.285   6.248
 3474POPC   D2A46612  44.497  36.252   6.665
 3474POPC   C3A46613  44.732  36.353   7.068
 3474POPC   C4A46614  44.896  36.113   7.407
 3474POPC   C1B46615  44.312  35.764   6.276
 3474POPC   C2B46616  44.521  35.697   6.614
 3474POPC   C3B46617  44.633  35.860   6.992
 3474POPC   C4B46618  44.471  35.710   7.354
 3475POPC   NC346619   4.428   3.485   5.419
 3475POPC   PO446620   3.836   3.905   5.479
 3475POPC   GL146621   4.076   3.691   5.853
 3475POPC   GL246622   4.418   3.518   5.916
 3475POPC   C1A46623   4.146   3.639   6.311
 3475POPC   D2A46624   4.377   3.792   6.641
 3475POPC   C3A46625   4.132   3.711   6.991
 3475POPC   C4A46626   4.161   3.396   7.262
 3475POPC   C1B46627   4.547   3.318   6.335
 3475POPC   C2B46628   4.556   3.334   6.808
 3475POPC   C3B46629   4.818   3.203   7.145
 3475POPC   C4B46630   4.868   3.279   7.588
 3476POPC   NC346631  28.009  24.454   5.407
 3476POPC   PO446632  28.620  24.129   5.315
 3476POPC   GL146633  28.557  24.412   5.705
 3476POPC   GL246634  28.248  24.385   5.834
 3476POPC   C1A46635  28.587  24.566   6.165
 3476POPC   D2A46636  28.542  24.761   6.593
 3476POPC   C3A46637  28.591  24.477   6.940
 3476POPC   C4A46638  28.383  24.357   7.341
 3476POPC   C1B46639  28.035  24.384   6.223
 3476POPC   C2B46640  28.062  24.564   6.640
 3476POPC   C3B46641  28.004  24.379   6.999
 3476POPC   C4B46642  27.679  24.286   7.267
 3477POPC   NC346643   2.334  23.049   5.385
 3477POPC   PO446644   1.697  23.073   5.360
 3477POPC   GL146645   1.937  23.043   5.748
 3477POPC   GL246646   1.853  22.710   5.740
 3477POPC   C1A46647   1.955  23.006   6.217
 3477POPC   D2A46648   2.018  23.065   6.665
 3477POPC   C3A46649   2.045  23.162   7.097
 3477POPC   C4A46650   2.197  23.332   7.500
 3477POPC   C1B46651   1.808  22.530   6.147
 3477POPC   C2B46652   2.021  22.565   6.529
 3477POPC   C3B46653   1.886  22.657   6.958
 3477POPC   C4B46654   1.652  22.544   7.319
 3478POPC   NC346655  23.357  39.129   5.538
 3478POPC   PO446656  22.732  38.910   5.509
 3478POPC   GL146657  22.812  39.119   5.912
 3478POPC   GL246658  23.157  39.248   5.992
 3478POPC   C1A46659  22.707  39.405   6.261
 3478POPC   D2A46660  22.827  39.488   6.700
 3478POPC   C3A46661  23.045  39.127   6.915
 3478POPC   C4A46662  22.912  39.039   7.341
 3478POPC   C1B46663  23.223  39.475   6.373
 3478POPC   C2B46664  23.326  39.550   6.808
 3478POPC   C3B46665  23.128  39.517   7.213
 3478POPC   C4B46666  23.196  39.596   7.645
 3479POPC   NC346667  27.268  23.117   4.997
 3479POPC   PO446668  27.799  22.995   5.372
 3479POPC   GL146669  27.894  23.058   5.788
 3479POPC   GL246670  28.148  23.303   5.724
 3479POPC   C1A46671  27.760  22.901   6.212
 3479POPC   D2A46672  27.909  22.799   6.650
 3479POPC   C3A46673  27.580  22.947   6.934
 3479POPC   C4A46674  27.293  22.819   7.290
 3479POPC   C1B46675  28.016  23.360   6.171
 3479POPC   C2B46676  27.786  23.297   6.555
 3479POPC   C3B46677  27.891  23.382   6.975
 3479POPC   C4B46678  27.667  23.249   7.333
 3480POPC   NC346679  24.197  13.012   5.236
 3480POPC   PO446680  24.687  12.599   5.351
 3480POPC   GL146681  24.402  12.791   5.671
 3480POPC   GL246682  24.635  13.061   5.664
 3480POPC   C1A46683  24.387  13.006   6.116
 3480POPC   D2A46684  24.487  13.226   6.524
 3480POPC   C3A46685  24.360  13.030   6.936
 3480POPC   C4A46686  24.220  12.613   7.027
 3480POPC   C1B46687  24.807  12.725   5.973
 3480POPC   C2B46688  24.797  12.644   6.406
 3480POPC   C3B46689  24.793  12.789   6.822
 3480POPC   C4B46690  24.934  12.682   7.225
 3481POPC   NC346691  24.460  29.740   5.377
 3481POPC   PO446692  24.584  30.359   5.490
 3481POPC   GL146693  24.487  30.069   5.807
 3481POPC   GL246694  24.190  29.916   5.765
 3481POPC   C1A46695  24.474  29.991   6.246
 3481POPC   D2A46696  24.378  30.248   6.578
 3481POPC   C3A46697  24.422  30.075   6.977
 3481POPC   C4A46698  24.528  29.945   7.386
 3481POPC   C1B46699  24.003  30.067   6.141
 3481POPC   C2B46700  23.992  29.889   6.548
 3481POPC   C3B46701  24.055  29.698   6.935
 3481POPC   C4B46702  24.026  29.923   7.295
 3482POPC   NC346703  37.036  13.282   5.446
 3482POPC   PO446704  36.568  13.758   5.294
 3482POPC   GL146705  36.837  13.740   5.700
 3482POPC   GL246706  37.150  13.914   5.839
 3482POPC   C1A46707  36.757  13.731   6.155
 3482POPC   D2A46708  36.578  13.447   6.453
 3482POPC   C3A46709  36.762  13.493   6.871
 3482POPC   C4A46710  37.040  13.231   7.105
 3482POPC   C1B46711  37.254  13.671   6.191
 3482POPC   C2B46712  37.116  13.767   6.584
 3482POPC   C3B46713  37.255  13.804   6.993
 3482POPC   C4B46714  37.147  13.661   7.375
 3483POPC   NC346715  25.884  25.587   5.372
 3483POPC   PO446716  25.919  24.858   5.389
 3483POPC   GL146717  25.848  24.952   5.814
 3483POPC   GL246718  26.024  25.243   5.759
 3483POPC   C1A46719  25.734  24.935   6.251
 3483POPC   D2A46720  25.992  25.070   6.590
 3483POPC   C3A46721  25.850  24.963   6.987
 3483POPC   C4A46722  26.048  25.038   7.340
 3483POPC   C1B46723  25.836  25.417   6.127
 3483POPC   C2B46724  25.837  25.561   6.573
 3483POPC   C3B46725  26.038  25.438   6.982
 3483POPC   C4B46726  25.838  25.510   7.392
 3484POPC   NC346727  44.927  26.812   5.264
 3484POPC   PO446728  44.317  26.919   5.448
 3484POPC   GL146729  44.550  26.977   5.798
 3484POPC   GL246730  44.813  27.206   5.679
 3484POPC   C1A46731  44.513  26.761   6.213
 3484POPC   D2A46732  44.337  26.550   6.595
 3484POPC   C3A46733  44.490  26.724   6.990
 3484POPC   C4A46734  44.746  26.542   7.302
 3484POPC   C1B46735  44.916  27.102   6.116
 3484POPC   C2B46736  44.891  27.137   6.561
 3484POPC   C3B46737   0.117  27.143   6.957
 3484POPC   C4B46738  44.939  27.037   7.304
 3485POPC   NC346739  35.028   2.234   5.196
 3485POPC   PO446740  35.257   2.892   5.396
 3485POPC   GL146741  35.184   2.961   5.804
 3485POPC   GL246742  34.979   2.680   5.865
 3485POPC   C1A46743  35.370   2.792   6.201
 3485POPC   D2A46744  35.395   2.488   6.544
 3485POPC   C3A46745  35.523   2.652   6.932
 3485POPC   C4A46746  35.416   2.776   7.327
 3485POPC   C1B46747  34.877   3.002   6.204
 3485POPC   C2B46748  34.975   3.125   6.631
 3485POPC   C3B46749  34.994   2.913   7.065
 3485POPC   C4B46750  34.884   2.758   7.509
 3486POPC   NC346751  13.435   5.495   5.536
 3486POPC   PO446752  13.816   6.062   5.401
 3486POPC   GL146753  13.709   5.881   5.823
 3486POPC   GL246754  13.349   5.927   5.821
 3486POPC   C1A46755  13.572   6.030   6.267
 3486POPC   D2A46756  13.638   6.168   6.698
 3486POPC   C3A46757  13.767   5.836   6.989
 3486POPC   C4A46758  13.649   5.696   7.382
 3486POPC   C1B46759  13.260   5.614   6.182
 3486POPC   C2B46760  13.372   5.684   6.643
 3486POPC   C3B46761  13.234   5.808   7.077
 3486POPC   C4B46762  13.177   5.562   7.467
 3487POPC   NC346763  24.188   4.526   5.515
 3487POPC   PO446764  24.875   4.374   5.583
 3487POPC   GL146765  24.675   4.174   5.950
 3487POPC   GL246766  24.305   4.145   5.873
 3487POPC   C1A46767  24.632   4.209   6.422
 3487POPC   D2A46768  24.462   4.340   6.840
 3487POPC   C3A46769  24.726   4.202   7.182
 3487POPC   C4A46770  24.817   4.034   7.585
 3487POPC   C1B46771  24.323   4.523   6.153
 3487POPC   C2B46772  24.206   4.786   6.492
 3487POPC   C3B46773  24.177   4.763   6.932
 3487POPC   C4B46774  24.354   4.555   7.294
 3488POPC   NC346775   2.940  24.666   5.300
 3488POPC   PO446776   2.687  24.182   5.702
 3488POPC   GL146777   2.860  24.558   5.819
 3488POPC   GL246778   2.654  24.841   5.709
 3488POPC   C1A46779   2.937  24.553   6.249
 3488POPC   D2A46780   2.681  24.428   6.635
 3488POPC   C3A46781   2.910  24.304   7.013
 3488POPC   C4A46782   3.038  24.557   7.344
 3488POPC   C1B46783   2.472  24.806   6.148
 3488POPC   C2B46784   2.484  24.943   6.624
 3488POPC   C3B46785   2.639  24.787   7.067
 3488POPC   C4B46786   2.613  24.735   7.566
 3489POPC   NC346787  44.791  12.617   5.345
 3489POPC   PO446788  44.573  13.227   5.294
 3489POPC   GL146789  44.548  13.088   5.787
 3489POPC   GL246790  44.577  12.732   5.824
 3489POPC   C1A46791  44.654  13.109   6.228
 3489POPC   D2A46792  44.693  13.028   6.688
 3489POPC   C3A46793  44.359  13.130   6.992
 3489POPC   C4A46794  44.350  13.033   7.450
 3489POPC   C1B46795  44.526  12.600   6.273
 3489POPC   C2B46796  44.783  12.527   6.640
 3489POPC   C3B46797   0.049  12.758   6.945
 3489POPC   C4B46798  44.832  13.063   7.213
 3490POPC   NC346799  33.997  14.613   5.392
 3490POPC   PO446800  33.488  14.241   5.632
 3490POPC   GL146801  33.628  14.583   5.928
 3490POPC   GL246802  33.969  14.791   5.874
 3490POPC   C1A46803  33.546  14.564   6.385
 3490POPC   D2A46804  33.459  14.491   6.822
 3490POPC   C3A46805  33.645  14.620   7.196
 3490POPC   C4A46806  33.449  14.669   7.641
 3490POPC   C1B46807  34.037  14.599   6.304
 3490POPC   C2B46808  33.980  14.583   6.770
 3490POPC   C3B46809  34.145  14.480   7.199
 3490POPC   C4B46810  34.174  14.247   7.599
 3491POPC   NC346811  42.239  10.061   5.359
 3491POPC   PO446812  42.436   9.426   5.316
 3491POPC   GL146813  42.333   9.676   5.675
 3491POPC   GL246814  42.572   9.927   5.721
 3491POPC   C1A46815  42.247   9.634   6.100
 3491POPC   D2A46816  42.390   9.450   6.474
 3491POPC   C3A46817  42.305   9.760   6.775
 3491POPC   C4A46818  42.063   9.782   7.153
 3491POPC   C1B46819  42.707   9.905   6.134
 3491POPC   C2B46820  42.907  10.071   6.510
 3491POPC   C3B46821  42.778   9.954   6.906
 3491POPC   C4B46822  42.558   9.771   7.232
 3492POPC   NC346823  38.646  38.252   5.563
 3492POPC   PO446824  38.590  38.817   5.130
 3492POPC   GL146825  38.453  38.753   5.577
 3492POPC   GL246826  38.143  38.551   5.671
 3492POPC   C1A46827  38.508  38.694   6.033
 3492POPC   D2A46828  38.559  38.923   6.421
 3492POPC   C3A46829  38.368  38.707   6.782
 3492POPC   C4A46830  38.537  38.658   7.213
 3492POPC   C1B46831  38.184  38.306   6.080
 3492POPC   C2B46832  38.377  38.248   6.509
 3492POPC   C3B46833  38.307  38.232   6.985
 3492POPC   C4B46834  38.205  38.186   7.432
 3493POPC   NC346835  11.782  40.195   5.221
 3493POPC   PO446836  12.023  39.579   5.343
 3493POPC   GL146837  11.877  39.739   5.737
 3493POPC   GL246838  11.941  40.103   5.736
 3493POPC   C1A46839  12.059  39.791   6.151
 3493POPC   D2A46840  11.933  39.643   6.531
 3493POPC   C3A46841  12.050  39.810   6.949
 3493POPC   C4A46842  11.884  39.711   7.341
 3493POPC   C1B46843  11.790  40.233   6.165
 3493POPC   C2B46844  11.803  40.146   6.630
 3493POPC   C3B46845  11.893  40.364   7.048
 3493POPC   C4B46846  12.173  40.510   7.429
 3494POPC   NC346847  41.995  11.413   5.019
 3494POPC   PO446848  42.420  11.527   5.500
 3494POPC   GL146849  42.441  11.223   5.866
 3494POPC   GL246850  42.107  11.072   5.919
 3494POPC   C1A46851  42.433  11.240   6.338
 3494POPC   D2A46852  42.244  11.466   6.659
 3494POPC   C3A46853  42.445  11.601   7.020
 3494POPC   C4A46854  42.121  11.508   7.314
 3494POPC   C1B46855  42.035  10.887   6.344
 3494POPC   C2B46856  42.158  10.942   6.743
 3494POPC   C3B46857  42.399  11.115   7.047
 3494POPC   C4B46858  42.806  11.164   7.134
 3495POPC   NC346859  34.055  25.479   5.539
 3495POPC   PO446860  33.362  25.271   5.411
 3495POPC   GL146861  33.547  25.397   5.817
 3495POPC   GL246862  33.906  25.405   6.000
 3495POPC   C1A46863  33.532  25.170   6.213
 3495POPC   D2A46864  33.816  25.330   6.534
 3495POPC   C3A46865  33.559  25.415   6.852
 3495POPC   C4A46866  33.472  25.226   7.222
 3495POPC   C1B46867  34.261  25.428   6.287
 3495POPC   C2B46868  34.254  25.612   6.680
 3495POPC   C3B46869  34.019  25.512   7.051
 3495POPC   C4B46870  33.911  25.061   6.998
 3496POPC   NC346871  25.596   6.893   5.487
 3496POPC   PO446872  25.395   6.293   5.438
 3496POPC   GL146873  25.343   6.489   5.834
 3496POPC   GL246874  25.497   6.787   5.954
 3496POPC   C1A46875  25.142   6.387   6.211
 3496POPC   D2A46876  25.290   6.471   6.635
 3496POPC   C3A46877  25.083   6.439   7.037
 3496POPC   C4A46878  25.306   6.411   7.448
 3496POPC   C1B46879  25.249   6.877   6.306
 3496POPC   C2B46880  25.081   6.920   6.729
 3496POPC   C3B46881  25.217   6.917   7.164
 3496POPC   C4B46882  25.162   7.264   7.422
 3497POPC   NC346883  37.119  36.196   5.458
 3497POPC   PO446884  36.536  36.011   5.479
 3497POPC   GL146885  36.749  36.168   5.840
 3497POPC   GL246886  37.088  36.027   5.943
 3497POPC   C1A46887  36.675  36.077   6.255
 3497POPC   D2A46888  37.006  36.058   6.515
 3497POPC   C3A46889  36.818  36.059   6.868
 3497POPC   C4A46890  36.781  36.093   7.277
 3497POPC   C1B46891  37.273  36.368   6.192
 3497POPC   C2B46892  37.159  36.552   6.621
 3497POPC   C3B46893  37.067  36.454   7.060
 3497POPC   C4B46894  37.280  36.209   7.374
 3498POPC   NC346895  43.928  28.591   5.441
 3498POPC   PO446896  44.248  27.916   5.501
 3498POPC   GL146897  44.185  28.133   5.893
 3498POPC   GL246898  43.907  28.376   5.887
 3498POPC   C1A46899  43.989  28.119   6.338
 3498POPC   D2A46900  43.863  27.930   6.756
 3498POPC   C3A46901  44.093  28.115   7.125
 3498POPC   C4A46902  44.017  28.113   7.600
 3498POPC   C1B46903  43.760  28.579   6.240
 3498POPC   C2B46904  43.543  28.404   6.591
 3498POPC   C3B46905  43.576  28.308   7.033
 3498POPC   C4B46906  43.845  28.514   7.316
 3499POPC   NC346907   7.961  39.497   5.541
 3499POPC   PO446908   8.651  39.170   5.426
 3499POPC   GL146909   8.318  39.174   5.756
 3499POPC   GL246910   8.261  39.507   5.951
 3499POPC   C1A46911   8.294  39.066   6.199
 3499POPC   D2A46912   8.550  39.284   6.514
 3499POPC   C3A46913   8.382  39.341   6.916
 3499POPC   C4A46914   8.008  39.125   7.160
 3499POPC   C1B46915   8.041  39.481   6.340
 3499POPC   C2B46916   7.944  39.226   6.662
 3499POPC   C3B46917   7.934  39.568   6.934
 3499POPC   C4B46918   7.822  39.740   7.295
 3500POPC   NC346919  36.077  17.177   5.510
 3500POPC   PO446920  36.309  17.860   5.473
 3500POPC   GL146921  36.283  17.528   5.812
 3500POPC   GL246922  35.945  17.392   5.952
 3500POPC   C1A46923  36.375  17.390   6.248
 3500POPC   D2A46924  36.327  17.641   6.634
 3500POPC   C3A46925  36.121  17.480   6.988
 3500POPC   C4A46926  36.048  17.755   7.346
 3500POPC   C1B46927  35.962  17.039   6.246
 3500POPC   C2B46928  35.826  17.073   6.679
 3500POPC   C3B46929  35.725  17.060   7.116
 3500POPC   C4B46930  35.923  17.279   7.418
 3501POPC   NC346931  10.933  17.615   5.423
 3501POPC   PO446932  10.306  17.269   5.379
 3501POPC   GL146933  10.523  17.470   5.728
 3501POPC   GL246934  10.811  17.250   5.806
 3501POPC   C1A46935  10.501  17.739   6.141
 3501POPC   D2A46936  10.427  17.929   6.564
 3501POPC   C3A46937  10.610  17.737   6.958
 3501POPC   C4A46938  10.503  17.576   7.375
 3501POPC   C1B46939  10.608  17.248   6.200
 3501POPC   C2B46940  10.418  17.396   6.587
 3501POPC   C3B46941  10.339  17.248   6.987
 3501POPC   C4B46942  10.471  17.018   7.383
 3502POPC   NC346943  26.840  29.858   5.275
 3502POPC   PO446944  26.925  30.425   5.551
 3502POPC   GL146945  26.723  30.123   5.800
 3502POPC   GL246946  26.863  29.782   5.804
 3502POPC   C1A46947  26.822  30.038   6.247
 3502POPC   D2A46948  26.748  29.852   6.652
 3502POPC   C3A46949  26.896  30.111   6.981
 3502POPC   C4A46950  26.682  30.166   7.389
 3502POPC   C1B46951  27.122  29.620   6.157
 3502POPC   C2B46952  27.245  29.693   6.607
 3502POPC   C3B46953  27.082  29.622   7.026
 3502POPC   C4B46954  26.678  29.671   7.137
 3503POPC   NC346955   8.387  34.252   5.036
 3503POPC   PO446956   8.031  34.625   5.404
 3503POPC   GL146957   8.108  34.703   5.800
 3503POPC   GL246958   7.886  34.480   5.907
 3503POPC   C1A46959   8.378  34.488   6.101
 3503POPC   D2A46960   8.348  34.296   6.516
 3503POPC   C3A46961   8.416  34.632   6.835
 3503POPC   C4A46962   8.410  34.788   7.264
 3503POPC   C1B46963   7.932  34.582   6.329
 3503POPC   C2B46964   7.904  34.477   6.741
 3503POPC   C3B46965   7.944  34.718   7.072
 3503POPC   C4B46966   7.701  34.645   7.379
 3504POPC   NC346967  27.012  36.768   5.412
 3504POPC   PO446968  26.394  37.093   5.310
 3504POPC   GL146969  26.685  36.945   5.751
 3504POPC   GL246970  27.047  36.949   5.870
 3504POPC   C1A46971  26.675  36.839   6.254
 3504POPC   D2A46972  26.531  36.907   6.716
 3504POPC   C3A46973  26.782  36.747   7.085
 3504POPC   C4A46974  26.686  36.801   7.545
 3504POPC   C1B46975  27.152  37.041   6.262
 3504POPC   C2B46976  27.042  36.907   6.627
 3504POPC   C3B46977  27.280  36.875   6.958
 3504POPC   C4B46978  27.164  36.996   7.349
 3505POPC   NC346979  12.556  20.068   5.454
 3505POPC   PO446980  13.062  19.663   5.453
 3505POPC   GL146981  12.923  19.897   5.804
 3505POPC   GL246982  12.617  19.697   5.861
 3505POPC   C1A46983  12.995  19.914   6.266
 3505POPC   D2A46984  12.885  20.163   6.655
 3505POPC   C3A46985  12.712  19.915   7.003
 3505POPC   C4A46986  12.922  19.643   7.238
 3505POPC   C1B46987  12.694  19.442   6.247
 3505POPC   C2B46988  12.751  19.508   6.702
 3505POPC   C3B46989  12.515  19.376   7.055
 3505POPC   C4B46990  12.428  19.674   7.392
 3506POPC   NC346991  27.510   0.057   5.560
 3506POPC   PO446992  27.812   0.588   5.337
 3506POPC   GL146993  27.659   0.513   5.780
 3506POPC   GL246994  27.696   0.201   5.997
 3506POPC   C1A46995  27.442   0.637   6.185
 3506POPC   D2A46996  27.278   0.673   6.620
 3506POPC   C3A46997  27.542   0.523   6.949
 3506POPC   C4A46998  27.452   0.511   7.359
 3506POPC   C1B46999  27.934   0.131   6.345
 3506POPC   C2B47000  27.890   0.188   6.779
 3506POPC   C3B47001  27.808   0.113   7.201
 3506POPC   C4B47002  27.694   0.098   7.635
 3507POPC   NC347003  21.393  27.290   5.377
 3507POPC   PO447004  21.444  26.629   5.406
 3507POPC   GL147005  21.609  26.553   5.810
 3507POPC   GL247006  21.630  26.919   5.811
 3507POPC   C1A47007  21.668  26.646   6.263
 3507POPC   D2A47008  21.466  26.453   6.614
 3507POPC   C3A47009  21.553  26.641   7.005
 3507POPC   C4A47010  21.289  26.527   7.330
 3507POPC   C1B47011  21.284  26.941   6.092
 3507POPC   C2B47012  21.224  26.927   6.555
 3507POPC   C3B47013  21.070  26.812   6.970
 3507POPC   C4B47014  21.140  27.007   7.391
 3508POPC   NC347015  15.701  20.683   5.548
 3508POPC   PO447016  16.239  20.592   5.214
 3508POPC   GL147017  16.253  20.513   5.718
 3508POPC   GL247018  15.961  20.323   5.838
 3508POPC   C1A47019  16.111  20.630   6.192
 3508POPC   D2A47020  16.076  20.483   6.599
 3508POPC   C3A47021  16.074  20.828   6.923
 3508POPC   C4A47022  16.329  21.055   7.240
 3508POPC   C1B47023  15.652  20.304   6.187
 3508POPC   C2B47024  15.558  20.478   6.603
 3508POPC   C3B47025  15.784  20.390   6.996
 3508POPC   C4B47026  15.649  20.302   7.385
 3509POPC   NC347027  37.219   7.629   5.272
 3509POPC   PO447028  37.901   7.336   5.130
 3509POPC   GL147029  37.780   7.353   5.585
 3509POPC   GL247030  37.460   7.416   5.662
 3509POPC   C1A47031  37.818   7.506   6.039
 3509POPC   D2A47032  37.555   7.693   6.391
 3509POPC   C3A47033  37.626   7.513   6.815
 3509POPC   C4A47034  37.743   7.672   7.188
 3509POPC   C1B47035  37.332   7.287   6.074
 3509POPC   C2B47036  37.382   7.194   6.498
 3509POPC   C3B47037  37.441   7.006   6.899
 3509POPC   C4B47038  37.393   7.209   7.271
 3510POPC   NC347039  34.096  12.689   5.276
 3510POPC   PO447040  33.802  13.217   5.601
 3510POPC   GL147041  33.663  12.989   5.949
 3510POPC   GL247042  33.891  12.703   5.895
 3510POPC   C1A47043  33.567  12.721   6.349
 3510POPC   D2A47044  33.634  12.433   6.715
 3510POPC   C3A47045  33.610  12.663   7.088
 3510POPC   C4A47046  33.593  13.120   7.055
 3510POPC   C1B47047  34.054  12.920   6.287
 3510POPC   C2B47048  33.947  12.878   6.736
 3510POPC   C3B47049  34.057  12.898   7.194
 3510POPC   C4B47050  34.139  12.693   7.598
 3511POPC   NC347051  24.898  43.949   5.304
 3511POPC   PO447052  25.424  43.651   5.407
 3511POPC   GL147053  25.395  43.667   5.907
 3511POPC   GL247054  25.012  43.622   5.915
 3511POPC   C1A47055  25.579  43.783   6.395
 3511POPC   D2A47056  25.682  44.086   6.784
 3511POPC   C3A47057  25.427  44.100   7.216
 3511POPC   C4A47058  25.468  44.097   7.711
 3511POPC   C1B47059  25.084  43.885   6.292
 3511POPC   C2B47060  25.156  43.992   6.741
 3511POPC   C3B47061  24.919  44.145   7.118
 3511POPC   C4B47062  24.992  44.009   7.550
 3512POPC   NC347063  22.788  37.687   5.268
 3512POPC   PO447064  22.180  37.406   5.450
 3512POPC   GL147065  22.233  37.660   5.837
 3512POPC   GL247066  21.893  37.724   5.876
 3512POPC   C1A47067  22.469  37.718   6.250
 3512POPC   D2A47068  22.724  37.664   6.649
 3512POPC   C3A47069  22.549  37.682   7.106
 3512POPC   C4A47070  22.377  37.733   7.553
 3512POPC   C1B47071  21.973  37.569   6.300
 3512POPC   C2B47072  22.079  37.681   6.732
 3512POPC   C3B47073  22.022  37.644   7.162
 3512POPC   C4B47074  21.791  37.336   7.373
 3513POPC   NC347075   1.461  23.502   5.394
 3513POPC   PO447076   0.964  24.039   5.458
 3513POPC   GL147077   1.236  23.838   5.794
 3513POPC   GL247078   1.166  23.479   5.821
 3513POPC   C1A47079   1.341  23.906   6.253
 3513POPC   D2A47080   1.215  24.081   6.654
 3513POPC   C3A47081   1.435  23.873   7.020
 3513POPC   C4A47082   1.310  23.699   7.461
 3513POPC   C1B47083   1.042  23.505   6.234
 3513POPC   C2B47084   1.107  23.588   6.647
 3513POPC   C3B47085   1.176  23.434   7.037
 3513POPC   C4B47086   0.892  23.432   7.365
 3514POPC   NC347087  39.134  22.270   5.312
 3514POPC   PO447088  39.733  22.440   5.483
 3514POPC   GL147089  39.365  22.391   5.805
 3514POPC   GL247090  38.952  22.400   5.788
 3514POPC   C1A47091  39.264  22.278   6.246
 3514POPC   D2A47092  39.303  21.982   6.610
 3514POPC   C3A47093  39.369  22.071   7.087
 3514POPC   C4A47094  39.371  22.137   7.548
 3514POPC   C1B47095  38.753  22.313   6.222
 3514POPC   C2B47096  38.878  22.261   6.632
 3514POPC   C3B47097  38.892  21.948   6.945
 3514POPC   C4B47098  38.896  22.156   7.288
 3515POPC   NC347099  42.811  32.808   5.338
 3515POPC   PO447100  43.520  32.606   5.228
 3515POPC   GL147101  43.275  32.885   5.597
 3515POPC   GL247102  42.903  32.878   5.808
 3515POPC   C1A47103  43.294  32.994   6.063
 3515POPC   D2A47104  43.203  32.781   6.440
 3515POPC   C3A47105  43.157  33.042   6.811
 3515POPC   C4A47106  43.281  33.116   7.227
 3515POPC   C1B47107  42.798  33.183   6.141
 3515POPC   C2B47108  42.690  33.132   6.559
 3515POPC   C3B47109  42.662  32.880   6.886
 3515POPC   C4B47110  42.775  33.041   7.265
 3516POPC   NC347111   7.228  30.460   5.194
 3516POPC   PO447112   7.652  30.759   5.611
 3516POPC   GL147113   7.372  30.707   5.923
 3516POPC   GL247114   7.117  30.557   5.710
 3516POPC   C1A47115   7.462  30.747   6.370
 3516POPC   D2A47116   7.612  31.052   6.691
 3516POPC   C3A47117   7.574  30.826   7.082
 3516POPC   C4A47118   7.319  30.888   7.458
 3516POPC   C1B47119   7.143  30.295   6.099
 3516POPC   C2B47120   7.364  30.207   6.478
 3516POPC   C3B47121   7.215  30.095   6.881
 3516POPC   C4B47122   7.304  30.418   7.192
 3517POPC   NC347123  31.890  16.589   5.258
 3517POPC   PO447124  32.417  17.063   5.205
 3517POPC   GL147125  32.239  16.864   5.624
 3517POPC   GL247126  31.961  16.645   5.740
 3517POPC   C1A47127  32.312  16.814   6.099
 3517POPC   D2A47128  32.272  17.014   6.529
 3517POPC   C3A47129  32.257  16.910   6.954
 3517POPC   C4A47130  32.574  16.816   7.258
 3517POPC   C1B47131  32.060  16.342   6.061
 3517POPC   C2B47132  32.161  16.499   6.483
 3517POPC   C3B47133  32.330  16.404   6.855
 3517POPC   C4B47134  32.178  16.473   7.221
 3518POPC   NC347135   0.843  21.364   5.670
 3518POPC   PO447136   1.496  21.405   5.374
 3518POPC   GL147137   1.383  21.504   5.808
 3518POPC   GL247138   1.107  21.763   5.877
 3518POPC   C1A47139   1.368  21.482   6.269
 3518POPC   D2A47140   1.085  21.169   6.438
 3518POPC   C3A47141   0.939  21.140   6.835
 3518POPC   C4A47142   1.250  21.075   7.104
 3518POPC   C1B47143   0.831  21.696   6.247
 3518POPC   C2B47144   0.921  21.611   6.653
 3518POPC   C3B47145   1.110  21.568   7.049
 3518POPC   C4B47146   1.537  21.685   7.052
 3519POPC   NC347147   4.221  27.810   5.501
 3519POPC   PO447148   4.418  27.195   5.410
 3519POPC   GL147149   4.469  27.402   5.826
 3519POPC   GL247150   4.142  27.487   5.906
 3519POPC   C1A47151   4.480  27.552   6.301
 3519POPC   D2A47152   4.276  27.496   6.723
 3519POPC   C3A47153   4.238  27.452   7.184
 3519POPC   C4A47154   4.524  27.256   7.447
 3519POPC   C1B47155   3.990  27.845   6.137
 3519POPC   C2B47156   4.073  28.032   6.534
 3519POPC   C3B47157   3.990  27.865   6.938
 3519POPC   C4B47158   4.119  27.950   7.341
 3520POPC   NC347159  29.272  28.555   5.509
 3520POPC   PO447160  28.718  28.266   5.692
 3520POPC   GL147161  28.999  28.511   5.973
 3520POPC   GL247162  29.351  28.632   5.984
 3520POPC   C1A47163  29.065  28.467   6.421
 3520POPC   D2A47164  29.147  28.141   6.674
 3520POPC   C3A47165  29.343  28.199   7.016
 3520POPC   C4A47166  29.181  28.158   7.385
 3520POPC   C1B47167  29.552  28.449   6.297
 3520POPC   C2B47168  29.489  28.588   6.722
 3520POPC   C3B47169  29.597  28.622   7.182
 3520POPC   C4B47170  29.517  28.443   7.627
 3521POPC   NC347171  44.403  14.340   5.447
 3521POPC   PO447172  44.853  14.815   5.366
 3521POPC   GL147173  44.662  14.665   5.778
 3521POPC   GL247174  44.636  14.295   5.896
 3521POPC   C1A47175  44.516  14.648   6.235
 3521POPC   D2A47176  44.476  14.402   6.607
 3521POPC   C3A47177  44.612  14.615   6.962
 3521POPC   C4A47178  44.644  14.465   7.368
 3521POPC   C1B47179  44.828  14.131   6.284
 3521POPC   C2B47180  44.724  13.968   6.696
 3521POPC   C3B47181  44.577  14.019   7.133
 3521POPC   C4B47182  44.606  13.995   7.604
 3522POPC   NC347183   3.225   6.642   5.669
 3522POPC   PO447184   2.649   6.633   5.313
 3522POPC   GL147185   2.735   6.491   5.742
 3522POPC   GL247186   2.968   6.205   5.834
 3522POPC   C1A47187   2.668   6.406   6.176
 3522POPC   D2A47188   2.438   6.501   6.527
 3522POPC   C3A47189   2.692   6.763   6.778
 3522POPC   C4A47190   2.725   6.729   7.208
 3522POPC   C1B47191   3.168   6.161   6.219
 3522POPC   C2B47192   3.133   6.384   6.586
 3522POPC   C3B47193   2.913   6.342   6.946
 3522POPC   C4B47194   3.084   6.355   7.301
 3523POPC   NC347195  21.860  21.586   5.278
 3523POPC   PO447196  22.381  21.155   5.436
 3523POPC   GL147197  22.370  21.420   5.814
 3523POPC   GL247198  22.060  21.599   5.749
 3523POPC   C1A47199  22.381  21.448   6.282
 3523POPC   D2A47200  22.116  21.236   6.596
 3523POPC   C3A47201  22.279  21.217   7.036
 3523POPC   C4A47202  22.300  21.589   7.322
 3523POPC   C1B47203  21.898  21.523   6.144
 3523POPC   C2B47204  21.884  21.708   6.546
 3523POPC   C3B47205  21.867  21.509   6.945
 3523POPC   C4B47206  21.838  21.213   7.286
 3524POPC   NC347207  28.387  44.468   5.562
 3524POPC   PO447208  27.892  44.902   5.347
 3524POPC   GL147209  28.074  44.879   5.775
 3524POPC   GL247210  28.425  44.886   5.829
 3524POPC   C1A47211  28.093  44.655   6.196
 3524POPC   D2A47212  27.966  44.323   6.520
 3524POPC   C3A47213  28.069  44.486   6.953
 3524POPC   C4A47214  28.244  44.879   7.059
 3524POPC   C1B47215  28.619  44.702   6.201
 3524POPC   C2B47216  28.472  44.498   6.593
 3524POPC   C3B47217  28.554  44.280   6.972
 3524POPC   C4B47218  28.814  44.411   7.310
 3525POPC   NC347219  11.718  22.239   5.406
 3525POPC   PO447220  12.286  21.941   5.418
 3525POPC   GL147221  12.105  22.232   5.771
 3525POPC   GL247222  11.821  22.438   5.862
 3525POPC   C1A47223  12.203  22.270   6.202
 3525POPC   D2A47224  12.437  22.419   6.581
 3525POPC   C3A47225  12.195  22.365   6.947
 3525POPC   C4A47226  12.036  22.124   7.280
 3525POPC   C1B47227  11.703  22.488   6.278
 3525POPC   C2B47228  11.712  22.276   6.679
 3525POPC   C3B47229  11.637  22.378   7.115
 3525POPC   C4B47230  11.632  22.338   7.589
 3526POPC   NC347231  26.523  43.504   5.424
 3526POPC   PO447232  26.888  42.968   5.432
 3526POPC   GL147233  26.850  43.092   5.831
 3526POPC   GL247234  26.708  43.363   5.861
 3526POPC   C1A47235  26.949  42.858   6.202
 3526POPC   D2A47236  27.265  42.847   6.536
 3526POPC   C3A47237  27.022  42.802   6.936
 3526POPC   C4A47238  26.904  42.837   7.365
 3526POPC   C1B47239  26.859  43.418   6.253
 3526POPC   C2B47240  26.852  43.160   6.597
 3526POPC   C3B47241  26.619  43.141   6.938
 3526POPC   C4B47242  26.628  43.280   7.331
 3527POPC   NC347243  28.168  20.854   5.501
 3527POPC   PO447244  28.655  20.303   5.502
 3527POPC   GL147245  28.439  20.505   5.833
 3527POPC   GL247246  28.101  20.397   5.905
 3527POPC   C1A47247  28.390  20.691   6.246
 3527POPC   D2A47248  28.199  20.775   6.632
 3527POPC   C3A47249  28.396  20.738   7.035
 3527POPC   C4A47250  28.051  20.930   7.233
 3527POPC   C1B47251  28.385  20.171   6.223
 3527POPC   C2B47252  28.406  20.259   6.657
 3527POPC   C3B47253  28.125  20.318   6.988
 3527POPC   C4B47254  28.201  20.435   7.451
 3528POPC   NC347255  35.890  37.944   5.477
 3528POPC   PO447256  36.306  38.326   5.135
 3528POPC   GL147257  36.185  38.325   5.683
 3528POPC   GL247258  35.958  38.595   5.856
 3528POPC   C1A47259  36.149  38.274   6.210
 3528POPC   D2A47260  35.972  38.512   6.581
 3528POPC   C3A47261  36.115  38.381   6.989
 3528POPC   C4A47262  36.161  38.528   7.405
 3528POPC   C1B47263  36.300  38.756   6.146
 3528POPC   C2B47264  36.390  38.926   6.557
 3528POPC   C3B47265  36.575  38.838   6.969
 3528POPC   C4B47266  36.611  38.834   7.413
 3529POPC   NC347267  23.526  12.089   5.234
 3529POPC   PO447268  24.015  11.941   5.584
 3529POPC   GL147269  23.697  12.022   5.819
 3529POPC   GL247270  23.639  12.349   5.674
 3529POPC   C1A47271  23.577  12.061   6.251
 3529POPC   D2A47272  23.463  11.900   6.672
 3529POPC   C3A47273  23.747  11.832   7.047
 3529POPC   C4A47274  23.933  12.008   7.436
 3529POPC   C1B47275  23.883  12.459   6.044
 3529POPC   C2B47276  23.855  12.425   6.481
 3529POPC   C3B47277  23.709  12.317   6.870
 3529POPC   C4B47278  23.759  12.478   7.249
 3530POPC   NC347279   9.507  11.192   5.402
 3530POPC   PO447280   9.573  11.862   5.458
 3530POPC   GL147281   9.664  11.542   5.774
 3530POPC   GL247282   9.872  11.199   5.780
 3530POPC   C1A47283   9.643  11.564   6.204
 3530POPC   D2A47284   9.848  11.371   6.537
 3530POPC   C3A47285   9.548  11.181   6.803
 3530POPC   C4A47286   9.545  11.252   7.226
 3530POPC   C1B47287  10.169  11.034   6.122
 3530POPC   C2B47288  10.294  11.116   6.575
 3530POPC   C3B47289  10.064  11.148   6.975
 3530POPC   C4B47290  10.172  11.001   7.377
 3531POPC   NC347291   7.274  24.983   5.316
 3531POPC   PO447292   7.422  25.616   5.541
 3531POPC   GL147293   7.342  25.418   5.915
 3531POPC   GL247294   7.337  25.081   5.806
 3531POPC   C1A47295   7.576  25.211   6.247
 3531POPC   D2A47296   7.701  25.113   6.672
 3531POPC   C3A47297   7.587  25.305   7.090
 3531POPC   C4A47298   7.571  25.385   7.566
 3531POPC   C1B47299   7.062  24.966   6.120
 3531POPC   C2B47300   7.178  25.086   6.548
 3531POPC   C3B47301   7.139  25.056   6.980
 3531POPC   C4B47302   7.280  24.970   7.368
 3532POPC   NC347303  30.762  31.098   5.364
 3532POPC   PO447304  30.903  31.746   5.528
 3532POPC   GL147305  30.503  31.620   5.674
 3532POPC   GL247306  30.493  31.278   5.761
 3532POPC   C1A47307  30.408  31.600   6.122
 3532POPC   D2A47308  30.571  31.422   6.501
 3532POPC   C3A47309  30.530  31.564   6.902
 3532POPC   C4A47310  30.676  31.429   7.319
 3532POPC   C1B47311  30.843  31.333   6.073
 3532POPC   C2B47312  31.058  31.342   6.530
 3532POPC   C3B47313  31.090  31.506   6.991
 3532POPC   C4B47314  31.136  31.244   7.386
 3533POPC   NC347315   6.957  17.183   5.485
 3533POPC   PO447316   6.569  17.724   5.430
 3533POPC   GL147317   6.495  17.705   5.831
 3533POPC   GL247318   6.615  17.366   5.849
 3533POPC   C1A47319   6.648  17.690   6.225
 3533POPC   D2A47320   6.677  17.328   6.502
 3533POPC   C3A47321   6.608  17.398   6.898
 3533POPC   C4A47322   6.716  17.647   7.195
 3533POPC   C1B47323   7.004  17.336   6.111
 3533POPC   C2B47324   7.113  17.054   6.415
 3533POPC   C3B47325   7.049  17.117   6.845
 3533POPC   C4B47326   7.190  17.301   7.210
 3534POPC   NC347327  44.800  29.874   5.427
 3534POPC   PO447328  44.082  29.773   5.418
 3534POPC   GL147329  44.387  29.836   5.764
 3534POPC   GL247330  44.302  30.160   5.897
 3534POPC   C1A47331  44.755  29.743   6.084
 3534POPC   D2A47332  44.925  29.575   6.491
 3534POPC   C3A47333  44.829  29.833   6.859
 3534POPC   C4A47334  44.851  29.880   7.306
 3534POPC   C1B47335  44.725  30.265   6.107
 3534POPC   C2B47336  44.883  30.420   6.523
 3534POPC   C3B47337  44.665  30.332   6.922
 3534POPC   C4B47338  44.354  30.012   7.054
 3535POPC   NC347339  44.830   4.234   5.330
 3535POPC   PO447340  44.958   4.885   5.562
 3535POPC   GL147341  44.783   4.497   5.791
 3535POPC   GL247342   0.018   4.225   5.817
 3535POPC   C1A47343  44.571   4.534   6.218
 3535POPC   D2A47344  44.470   4.748   6.624
 3535POPC   C3A47345  44.647   4.582   7.045
 3535POPC   C4A47346  44.495   4.199   7.309
 3535POPC   C1B47347   0.090   4.515   6.191
 3535POPC   C2B47348  44.963   4.445   6.642
 3535POPC   C3B47349  44.943   4.152   7.025
 3535POPC   C4B47350  44.967   4.337   7.443
 3536POPC   NC347351   4.348  12.736   5.343
 3536POPC   PO447352   3.874  13.177   5.291
 3536POPC   GL147353   4.023  13.057   5.730
 3536POPC   GL247354   4.420  13.042   5.774
 3536POPC   C1A47355   4.125  13.030   6.197
 3536POPC   D2A47356   4.235  12.633   6.457
 3536POPC   C3A47357   4.316  12.622   6.907
 3536POPC   C4A47358   4.076  12.679   7.297
 3536POPC   C1B47359   4.639  13.106   6.196
 3536POPC   C2B47360   4.464  13.102   6.623
 3536POPC   C3B47361   4.537  13.070   7.067
 3536POPC   C4B47362   4.554  12.752   7.392
 3537POPC   NC347363  35.149  37.517   5.299
 3537POPC   PO447364  35.782  37.549   5.205
 3537POPC   GL147365  35.525  37.614   5.635
 3537POPC   GL247366  35.354  37.936   5.619
 3537POPC   C1A47367  35.512  37.487   6.087
 3537POPC   D2A47368  35.455  37.348   6.505
 3537POPC   C3A47369  35.552  37.595   6.855
 3537POPC   C4A47370  35.575  37.439   7.273
 3537POPC   C1B47371  35.281  37.949   6.068
 3537POPC   C2B47372  35.264  37.905   6.508
 3537POPC   C3B47373  35.210  37.970   6.930
 3537POPC   C4B47374  35.296  37.890   7.342
 3538POPC   NC347375  20.852  43.171   5.436
 3538POPC   PO447376  20.345  42.836   5.499
 3538POPC   GL147377  20.496  43.069   5.824
 3538POPC   GL247378  20.839  43.040   5.939
 3538POPC   C1A47379  20.406  42.992   6.221
 3538POPC   D2A47380  20.578  43.067   6.634
 3538POPC   C3A47381  20.716  42.834   6.951
 3538POPC   C4A47382  20.610  42.936   7.372
 3538POPC   C1B47383  20.793  43.341   6.280
 3538POPC   C2B47384  20.727  43.544   6.700
 3538POPC   C3B47385  20.787  43.342   7.115
 3538POPC   C4B47386  20.852  43.333   7.594
 3539POPC   NC347387  44.887   3.252   5.611
 3539POPC   PO447388  44.671   3.881   5.563
 3539POPC   GL147389  44.510   3.652   5.887
 3539POPC   GL247390  44.398   3.335   5.738
 3539POPC   C1A47391  44.711   3.658   6.303
 3539POPC   D2A47392  44.937   3.559   6.692
 3539POPC   C3A47393  44.669   3.667   7.029
 3539POPC   C4A47394  44.701   3.758   7.465
 3539POPC   C1B47395  44.500   3.198   6.170
 3539POPC   C2B47396  44.519   3.286   6.617
 3539POPC   C3B47397  44.572   3.152   7.062
 3539POPC   C4B47398  44.422   3.346   7.455
 3540POPC   NC347399  20.271  20.789   5.409
 3540POPC   PO447400  19.711  20.272   5.506
 3540POPC   GL147401  19.973  20.417   5.838
 3540POPC   GL247402  20.181  20.107   5.838
 3540POPC   C1A47403  19.887  20.667   6.240
 3540POPC   D2A47404  19.965  20.962   6.599
 3540POPC   C3A47405  19.963  20.816   7.015
 3540POPC   C4A47406  19.597  20.659   7.251
 3540POPC   C1B47407  19.974  20.134   6.269
 3540POPC   C2B47408  19.633  20.155   6.552
 3540POPC   C3B47409  19.813  20.331   6.911
 3540POPC   C4B47410  20.093  20.351   7.262
 3541POPC   NC347411   1.003  29.352   5.572
 3541POPC   PO447412   1.712  29.266   5.437
 3541POPC   GL147413   1.492  29.072   5.804
 3541POPC   GL247414   1.440  29.419   5.855
 3541POPC   C1A47415   1.130  28.966   6.139
 3541POPC   D2A47416   1.010  29.148   6.595
 3541POPC   C3A47417   1.034  28.996   7.052
 3541POPC   C4A47418   0.875  29.127   7.483
 3541POPC   C1B47419   1.219  29.461   6.222
 3541POPC   C2B47420   1.154  29.657   6.597
 3541POPC   C3B47421   1.127  29.507   6.968
 3541POPC   C4B47422   1.285  29.359   7.304
 3542POPC   NC347423  24.750  19.135   5.612
 3542POPC   PO447424  24.089  19.365   5.618
 3542POPC   GL147425  24.341  19.152   5.883
 3542POPC   GL247426  24.382  18.811   5.807
 3542POPC   C1A47427  24.543  19.100   6.272
 3542POPC   D2A47428  24.400  19.139   6.683
 3542POPC   C3A47429  24.621  19.344   6.978
 3542POPC   C4A47430  24.545  19.211   7.368
 3542POPC   C1B47431  24.219  18.676   6.215
 3542POPC   C2B47432  24.123  18.704   6.649
 3542POPC   C3B47433  24.318  18.799   7.052
 3542POPC   C4B47434  24.720  18.727   7.244
 3543POPC   NC347435   0.650   3.663   5.289
 3543POPC   PO447436   0.311   3.114   5.503
 3543POPC   GL147437   0.453   3.359   5.850
 3543POPC   GL247438   0.559   3.718   5.789
 3543POPC   C1A47439   0.234   3.586   6.205
 3543POPC   D2A47440   0.378   3.803   6.579
 3543POPC   C3A47441   0.387   3.522   6.944
 3543POPC   C4A47442   0.142   3.683   7.235
 3543POPC   C1B47443   0.739   3.618   6.196
 3543POPC   C2B47444   0.858   3.679   6.603
 3543POPC   C3B47445   0.742   3.871   6.974
 3543POPC   C4B47446   0.731   3.698   7.370
 3544POPC   NC347447  23.615  28.505   5.179
 3544POPC   PO447448  23.963  27.893   5.264
 3544POPC   GL147449  23.739  28.095   5.631
 3544POPC   GL247450  23.660  28.451   5.720
 3544POPC   C1A47451  23.883  28.147   6.075
 3544POPC   D2A47452  24.093  28.273   6.458
 3544POPC   C3A47453  23.891  28.089   6.773
 3544POPC   C4A47454  23.888  28.129   7.177
 3544POPC   C1B47455  23.726  28.654   6.143
 3544POPC   C2B47456  23.932  28.806   6.533
 3544POPC   C3B47457  23.950  28.586   6.923
 3544POPC   C4B47458  23.581  28.515   7.196
 3545POPC   NC347459  19.013  43.303   5.422
 3545POPC   PO447460  18.860  42.585   5.326
 3545POPC   GL147461  18.977  42.865   5.679
 3545POPC   GL247462  18.686  43.028   5.715
 3545POPC   C1A47463  19.239  43.048   6.050
 3545POPC   D2A47464  19.377  43.301   6.414
 3545POPC   C3A47465  19.283  43.170   6.830
 3545POPC   C4A47466  19.101  43.134   7.244
 3545POPC   C1B47467  18.742  42.892   6.148
 3545POPC   C2B47468  18.900  43.138   6.483
 3545POPC   C3B47469  18.732  43.310   6.886
 3545POPC   C4B47470  18.600  43.302   7.314
 3546POPC   NC347471  15.445  24.743   5.599
 3546POPC   PO447472  15.163  24.152   5.330
 3546POPC   GL147473  15.190  24.320   5.732
 3546POPC   GL247474  15.507  24.215   5.784
 3546POPC   C1A47475  15.104  24.464   6.173
 3546POPC   D2A47476  14.878  24.593   6.572
 3546POPC   C3A47477  14.897  24.353   6.936
 3546POPC   C4A47478  15.205  24.610   7.062
 3546POPC   C1B47479  15.545  24.203   6.218
 3546POPC   C2B47480  15.309  24.253   6.617
 3546POPC   C3B47481  15.468  24.191   7.046
 3546POPC   C4B47482  15.507  24.441   7.443
 3547POPC   NC347483  16.304  10.386   5.427
 3547POPC   PO447484  15.675  10.670   5.626
 3547POPC   GL147485  16.005  10.560   5.815
 3547POPC   GL247486  15.991  10.211   5.816
 3547POPC   C1A47487  16.074  10.537   6.247
 3547POPC   D2A47488  16.153  10.606   6.676
 3547POPC   C3A47489  15.772  10.568   6.923
 3547POPC   C4A47490  15.866  10.782   7.267
 3547POPC   C1B47491  16.098  10.028   6.218
 3547POPC   C2B47492  15.838  10.084   6.564
 3547POPC   C3B47493  16.062  10.136   6.880
 3547POPC   C4B47494  16.200  10.387   7.181
 3548POPC   NC347495  19.665   4.715   5.470
 3548POPC   PO447496  19.439   4.079   5.259
 3548POPC   GL147497  19.687   4.241   5.689
 3548POPC   GL247498  19.510   4.510   5.894
 3548POPC   C1A47499  19.884   4.311   6.140
 3548POPC   D2A47500  19.657   4.303   6.583
 3548POPC   C3A47501  19.829   4.231   7.015
 3548POPC   C4A47502  19.838   4.190   7.456
 3548POPC   C1B47503  19.348   4.575   6.278
 3548POPC   C2B47504  19.354   4.766   6.677
 3548POPC   C3B47505  19.391   4.503   7.053
 3548POPC   C4B47506  19.434   4.534   7.497
 3549POPC   NC347507   5.096   1.070   5.400
 3549POPC   PO447508   4.822   1.674   5.384
 3549POPC   GL147509   4.926   1.430   5.768
 3549POPC   GL247510   4.934   1.078   5.896
 3549POPC   C1A47511   5.251   1.434   6.086
 3549POPC   D2A47512   5.246   1.528   6.486
 3549POPC   C3A47513   5.109   1.297   6.844
 3549POPC   C4A47514   5.447   1.281   7.122
 3549POPC   C1B47515   4.836   1.209   6.311
 3549POPC   C2B47516   4.656   1.107   6.679
 3549POPC   C3B47517   4.795   0.907   7.040
 3549POPC   C4B47518   5.012   1.090   7.359
 3550POPC   NC347519   0.158   7.099   5.346
 3550POPC   PO447520   0.393   7.756   5.438
 3550POPC   GL147521   0.549   7.508   5.823
 3550POPC   GL247522   0.421   7.160   5.805
 3550POPC   C1A47523   0.673   7.441   6.256
 3550POPC   D2A47524   0.458   7.253   6.621
 3550POPC   C3A47525   0.299   7.489   6.943
 3550POPC   C4A47526   0.629   7.593   7.190
 3550POPC   C1B47527   0.490   6.952   6.205
 3550POPC   C2B47528   0.294   6.775   6.576
 3550POPC   C3B47529   0.151   6.944   6.959
 3550POPC   C4B47530   0.337   7.129   7.285
 3551POPC   NC347531  43.400  39.012   5.547
 3551POPC   PO447532  43.068  39.565   5.343
 3551POPC   GL147533  43.210  39.448   5.763
 3551POPC   GL247534  43.007  39.745   5.850
 3551POPC   C1A47535  43.245  39.138   6.151
 3551POPC   D2A47536  43.337  38.844   6.511
 3551POPC   C3A47537  43.437  39.020   6.870
 3551POPC   C4A47538  43.364  38.995   7.300
 3551POPC   C1B47539  42.939  39.555   6.236
 3551POPC   C2B47540  43.140  39.359   6.610
 3551POPC   C3B47541  43.044  39.300   7.052
 3551POPC   C4B47542  42.963  39.252   7.512
 3552POPC   NC347543  44.222   3.947   5.495
 3552POPC   PO447544  43.812   3.436   5.402
 3552POPC   GL147545  43.979   3.612   5.847
 3552POPC   GL247546  43.892   3.965   5.893
 3552POPC   C1A47547  44.187   3.634   6.296
 3552POPC   D2A47548  44.108   3.531   6.757
 3552POPC   C3A47549  44.188   3.738   7.169
 3552POPC   C4A47550  44.222   3.819   7.620
 3552POPC   C1B47551  43.753   3.894   6.334
 3552POPC   C2B47552  43.619   3.574   6.629
 3552POPC   C3B47553  43.693   3.511   7.068
 3552POPC   C4B47554  43.749   3.796   7.429
 3553POPC   NC347555   2.639   7.105   5.246
 3553POPC   PO447556   3.126   7.510   5.366
 3553POPC   GL147557   2.886   7.555   5.786
 3553POPC   GL247558   2.577   7.751   5.790
 3553POPC   C1A47559   2.953   7.563   6.246
 3553POPC   D2A47560   2.845   7.190   6.519
 3553POPC   C3A47561   2.830   7.230   6.970
 3553POPC   C4A47562   2.802   7.626   7.141
 3553POPC   C1B47563   2.461   7.440   6.151
 3553POPC   C2B47564   2.462   7.543   6.608
 3553POPC   C3B47565   2.314   7.352   6.978
 3553POPC   C4B47566   2.211   7.065   7.291
 3554POPC   NC347567  30.983  30.266   5.551
 3554POPC   PO447568  30.390  30.499   5.698
 3554POPC   GL147569  30.736  30.534   5.889
 3554POPC   GL247570  30.764  30.867   5.837
 3554POPC   C1A47571  30.842  30.360   6.253
 3554POPC   D2A47572  30.611  30.444   6.598
 3554POPC   C3A47573  30.770  30.436   6.982
 3554POPC   C4A47574  30.549  30.736   7.191
 3554POPC   C1B47575  30.857  30.869   6.269
 3554POPC   C2B47576  30.954  30.820   6.659
 3554POPC   C3B47577  30.879  31.048   6.981
 3554POPC   C4B47578  31.078  30.763   7.234
 3555POPC   NC347579   0.328  35.140   5.548
 3555POPC   PO447580   0.090  34.562   5.349
 3555POPC   GL147581   0.118  34.670   5.828
 3555POPC   GL247582  44.981  35.024   5.912
 3555POPC   C1A47583   0.373  34.639   6.266
 3555POPC   D2A47584   0.512  34.369   6.649
 3555POPC   C3A47585   0.609  34.459   7.094
 3555POPC   C4A47586   0.649  34.869   7.321
 3555POPC   C1B47587  44.887  34.791   6.275
 3555POPC   C2B47588   0.020  34.587   6.651
 3555POPC   C3B47589  44.961  34.741   7.064
 3555POPC   C4B47590   0.204  34.624   7.391
 3556POPC   NC347591  37.474  21.216   5.341
 3556POPC   PO447592  37.756  21.873   5.358
 3556POPC   GL147593  37.598  21.582   5.696
 3556POPC   GL247594  37.887  21.530   5.896
 3556POPC   C1A47595  37.491  21.367   6.124
 3556POPC   D2A47596  37.651  21.437   6.568
 3556POPC   C3A47597  37.559  21.226   6.969
 3556POPC   C4A47598  37.622  21.318   7.393
 3556POPC   C1B47599  38.038  21.630   6.286
 3556POPC   C2B47600  37.963  21.851   6.667
 3556POPC   C3B47601  37.808  21.706   7.057
 3556POPC   C4B47602  37.848  21.746   7.506
 3557POPC   NC347603   7.162  19.442   5.442
 3557POPC   PO447604   7.741  19.752   5.286
 3557POPC   GL147605   7.526  19.672   5.755
 3557POPC   GL247606   7.773  19.571   6.044
 3557POPC   C1A47607   7.324  19.785   6.178
 3557POPC   D2A47608   7.394  19.866   6.614
 3557POPC   C3A47609   7.151  19.794   6.956
 3557POPC   C4A47610   7.168  20.120   7.226
 3557POPC   C1B47611   7.806  19.951   6.306
 3557POPC   C2B47612   7.891  20.014   6.754
 3557POPC   C3B47613   7.630  19.914   7.121
 3557POPC   C4B47614   7.554  20.119   7.551
 3558POPC   NC347615  33.632  36.082   5.400
 3558POPC   PO447616  34.203  35.717   5.400
 3558POPC   GL147617  33.982  35.927   5.770
 3558POPC   GL247618  33.622  35.845   5.849
 3558POPC   C1A47619  33.806  36.249   6.102
 3558POPC   D2A47620  33.748  36.399   6.540
 3558POPC   C3A47621  33.914  36.248   6.907
 3558POPC   C4A47622  33.763  36.273   7.292
 3558POPC   C1B47623  33.820  35.752   6.225
 3558POPC   C2B47624  33.712  35.887   6.617
 3558POPC   C3B47625  33.596  35.846   7.043
 3558POPC   C4B47626  33.805  35.708   7.415
 3559POPC   NC347627   9.259  44.582   5.478
 3559POPC   PO447628   8.643  44.831   5.224
 3559POPC   GL147629   8.771  44.503   5.658
 3559POPC   GL247630   9.001  44.646   5.960
 3559POPC   C1A47631   8.618  44.401   6.122
 3559POPC   D2A47632   8.871  44.604   6.471
 3559POPC   C3A47633   8.814  44.553   6.920
 3559POPC   C4A47634   8.646  44.230   7.246
 3559POPC   C1B47635   9.262  44.892   6.205
 3559POPC   C2B47636   9.483  44.966   6.564
 3559POPC   C3B47637   9.351  44.822   6.922
 3559POPC   C4B47638   9.153  44.734   7.274
 3560POPC   NC347639  35.090  35.430   5.412
 3560POPC   PO447640  35.756  35.610   5.472
 3560POPC   GL147641  35.540  35.392   5.790
 3560POPC   GL247642  35.506  35.032   5.831
 3560POPC   C1A47643  35.545  35.420   6.231
 3560POPC   D2A47644  35.639  35.546   6.658
 3560POPC   C3A47645  35.336  35.417   6.986
 3560POPC   C4A47646  35.344  35.238   7.401
 3560POPC   C1B47647  35.295  34.951   6.210
 3560POPC   C2B47648  35.469  35.018   6.616
 3560POPC   C3B47649  35.277  34.901   6.993
 3560POPC   C4B47650  34.921  34.990   7.282
 3561POPC   NC347651  25.117  39.191   5.259
 3561POPC   PO447652  24.632  38.739   5.126
 3561POPC   GL147653  24.644  38.893   5.605
 3561POPC   GL247654  24.307  38.908   5.805
 3561POPC   C1A47655  24.707  39.140   6.023
 3561POPC   D2A47656  24.606  39.458   6.381
 3561POPC   C3A47657  24.614  39.292   6.817
 3561POPC   C4A47658  24.631  39.472   7.246
 3561POPC   C1B47659  24.190  39.255   6.127
 3561POPC   C2B47660  24.106  39.378   6.589
 3561POPC   C3B47661  24.172  39.337   7.054
 3561POPC   C4B47662  24.430  39.004   7.303
 3562POPC   NC347663  34.093  42.131   5.415
 3562POPC   PO447664  33.881  41.467   5.289
 3562POPC   GL147665  33.741  41.597   5.750
 3562POPC   GL247666  33.572  41.321   5.966
 3562POPC   C1A47667  33.795  41.720   6.221
 3562POPC   D2A47668  33.572  41.692   6.624
 3562POPC   C3A47669  33.856  41.761   6.965
 3562POPC   C4A47670  33.832  41.514   7.338
 3562POPC   C1B47671  34.052  41.316   6.057
 3562POPC   C2B47672  34.248  41.418   6.417
 3562POPC   C3B47673  34.167  41.342   6.814
 3562POPC   C4B47674  34.149  41.076   7.139
 3563POPC   NC347675  11.193  18.182   5.210
 3563POPC   PO447676  11.559  18.619   5.567
 3563POPC   GL147677  11.344  18.295   5.815
 3563POPC   GL247678  11.187  18.004   5.701
 3563POPC   C1A47679  11.263  18.277   6.250
 3563POPC   D2A47680  11.492  18.504   6.573
 3563POPC   C3A47681  11.259  18.428   6.910
 3563POPC   C4A47682  11.294  18.322   7.317
 3563POPC   C1B47683  11.001  17.867   6.075
 3563POPC   C2B47684  11.141  17.819   6.510
 3563POPC   C3B47685  11.132  17.926   6.951
 3563POPC   C4B47686  11.014  17.678   7.317
 3564POPC   NC347687  30.454  35.411   5.448
 3564POPC   PO447688  31.155  35.268   5.369
 3564POPC   GL147689  30.848  35.158   5.699
 3564POPC   GL247690  30.717  35.460   5.878
 3564POPC   C1A47691  30.823  35.055   6.158
 3564POPC   D2A47692  30.698  35.271   6.536
 3564POPC   C3A47693  30.841  35.153   6.943
 3564POPC   C4A47694  30.735  35.246   7.402
 3564POPC   C1B47695  30.432  35.601   6.188
 3564POPC   C2B47696  30.300  35.600   6.622
 3564POPC   C3B47697  30.529  35.643   7.019
 3564POPC   C4B47698  30.334  35.539   7.412
 3565POPC   NC347699  33.145  35.545   5.408
 3565POPC   PO447700  32.627  35.159   5.132
 3565POPC   GL147701  32.778  35.164   5.596
 3565POPC   GL247702  33.082  34.947   5.661
 3565POPC   C1A47703  32.835  35.328   6.069
 3565POPC   D2A47704  32.901  35.544   6.494
 3565POPC   C3A47705  32.762  35.347   6.898
 3565POPC   C4A47706  32.852  35.448   7.311
 3565POPC   C1B47707  33.179  34.951   6.130
 3565POPC   C2B47708  33.002  35.039   6.567
 3565POPC   C3B47709  33.095  34.972   7.041
 3565POPC   C4B47710  33.511  35.076   7.215
 3566POPC   NC347711  37.856   9.953   5.205
 3566POPC   PO447712  37.387   9.536   5.473
 3566POPC   GL147713  37.584   9.704   5.815
 3566POPC   GL247714  37.808   9.954   5.723
 3566POPC   C1A47715  37.566   9.597   6.246
 3566POPC   D2A47716  37.856   9.580   6.597
 3566POPC   C3A47717  37.671   9.639   6.970
 3566POPC   C4A47718  37.246   9.702   7.096
 3566POPC   C1B47719  37.959   9.910   6.130
 3566POPC   C2B47720  37.869  10.108   6.512
 3566POPC   C3B47721  38.029  10.134   6.890
 3566POPC   C4B47722  38.025   9.881   7.233
 3567POPC   NC347723   3.225  21.529   5.413
 3567POPC   PO447724   3.742  21.125   5.217
 3567POPC   GL147725   3.607  21.277   5.658
 3567POPC   GL247726   3.259  21.174   5.772
 3567POPC   C1A47727   3.523  21.509   6.085
 3567POPC   D2A47728   3.702  21.403   6.490
 3567POPC   C3A47729   3.515  21.346   6.904
 3567POPC   C4A47730   3.664  21.510   7.307
 3567POPC   C1B47731   3.192  20.969   6.158
 3567POPC   C2B47732   3.393  20.964   6.558
 3567POPC   C3B47733   3.247  20.881   6.968
 3567POPC   C4B47734   3.296  21.118   7.333
 3568POPC   NC347735  15.090  44.455   5.307
 3568POPC   PO447736  14.995  44.911   5.614
 3568POPC   GL147737  14.986  44.613   5.952
 3568POPC   GL247738  15.253  44.817   6.122
 3568POPC   C1A47739  14.985  44.518   6.417
 3568POPC   D2A47740  15.271  44.764   6.689
 3568POPC   C3A47741  15.228  44.598   7.105
 3568POPC   C4A47742  15.249  44.216   7.385
 3568POPC   C1B47743  15.545   0.143   6.310
 3568POPC   C2B47744  15.730   0.218   6.724
 3568POPC   C3B47745  15.472   0.095   7.097
 3568POPC   C4B47746  15.190   0.008   7.458
 3569POPC   NC347747  41.653  42.503   5.411
 3569POPC   PO447748  41.297  42.033   5.665
 3569POPC   GL147749  41.301  42.333   5.912
 3569POPC   GL247750  41.598  42.494   5.909
 3569POPC   C1A47751  41.373  42.221   6.318
 3569POPC   D2A47752  41.620  42.283   6.629
 3569POPC   C3A47753  41.381  42.440   6.922
 3569POPC   C4A47754  41.284  42.358   7.334
 3569POPC   C1B47755  41.913  42.413   6.178
 3569POPC   C2B47756  42.089  42.493   6.577
 3569POPC   C3B47757  41.896  42.500   6.985
 3569POPC   C4B47758  41.748  42.180   7.258
 3570POPC   NC347759   8.056   3.340   5.250
 3570POPC   PO447760   8.722   3.363   5.456
 3570POPC   GL147761   8.311   3.511   5.712
 3570POPC   GL247762   7.959   3.395   5.788
 3570POPC   C1A47763   8.200   3.725   6.134
 3570POPC   D2A47764   8.276   3.918   6.567
 3570POPC   C3A47765   8.235   3.596   6.898
 3570POPC   C4A47766   7.971   3.496   7.245
 3570POPC   C1B47767   7.952   3.207   6.241
 3570POPC   C2B47768   8.103   3.115   6.697
 3570POPC   C3B47769   7.953   2.996   7.138
 3570POPC   C4B47770   7.696   3.144   7.497
 3571POPC   NC347771   9.348  28.933   5.515
 3571POPC   PO447772   9.859  29.358   5.364
 3571POPC   GL147773   9.689  29.414   5.755
 3571POPC   GL247774   9.342  29.436   5.714
 3571POPC   C1A47775   9.659  29.171   6.147
 3571POPC   D2A47776   9.856  29.089   6.542
 3571POPC   C3A47777   9.652  28.798   6.827
 3571POPC   C4A47778   9.562  28.868   7.247
 3571POPC   C1B47779   9.414  29.618   6.145
 3571POPC   C2B47780   9.484  29.485   6.555
 3571POPC   C3B47781   9.606  29.324   6.942
 3571POPC   C4B47782   9.397  29.469   7.287
 3572POPC   NC347783   0.766  31.597   5.479
 3572POPC   PO447784   0.200  31.277   5.302
 3572POPC   GL147785   0.185  31.227   5.734
 3572POPC   GL247786   0.399  31.478   5.816
 3572POPC   C1A47787   0.299  31.136   6.171
 3572POPC   D2A47788   0.452  31.293   6.560
 3572POPC   C3A47789   0.198  31.246   6.919
 3572POPC   C4A47790   0.320  31.523   7.217
 3572POPC   C1B47791   0.707  31.489   6.148
 3572POPC   C2B47792   0.788  31.731   6.518
 3572POPC   C3B47793   0.718  31.657   6.933
 3572POPC   C4B47794   0.979  31.821   7.267
 3573POPC   NC347795  33.759  35.217   4.937
 3573POPC   PO447796  33.630  35.589   5.416
 3573POPC   GL147797  33.792  35.376   5.779
 3573POPC   GL247798  33.509  35.205   5.800
 3573POPC   C1A47799  33.877  35.242   6.216
 3573POPC   D2A47800  34.015  35.466   6.604
 3573POPC   C3A47801  33.852  35.391   6.999
 3573POPC   C4A47802  34.067  35.258   7.365
 3573POPC   C1B47803  33.379  35.473   6.147
 3573POPC   C2B47804  33.449  35.450   6.590
 3573POPC   C3B47805  33.254  35.473   6.978
 3573POPC   C4B47806  33.323  35.565   7.413
 3574POPC   NC347807  40.489  31.874   5.525
 3574POPC   PO447808  40.012  32.368   5.384
 3574POPC   GL147809  40.027  32.581   5.777
 3574POPC   GL247810  40.374  32.543   5.890
 3574POPC   C1A47811  39.954  32.548   6.212
 3574POPC   D2A47812  39.876  32.197   6.505
 3574POPC   C3A47813  39.742  32.303   6.921
 3574POPC   C4A47814  39.961  32.341   7.308
 3574POPC   C1B47815  40.251  32.150   6.108
 3574POPC   C2B47816  40.381  32.034   6.539
 3574POPC   C3B47817  40.214  32.071   6.936
 3574POPC   C4B47818  40.458  32.000   7.297
 3575POPC   NC347819  20.335  12.681   5.432
 3575POPC   PO447820  20.506  13.302   5.125
 3575POPC   GL147821  20.639  13.072   5.608
 3575POPC   GL247822  20.759  12.760   5.767
 3575POPC   C1A47823  20.396  12.888   6.083
 3575POPC   D2A47824  20.651  12.899   6.517
 3575POPC   C3A47825  20.504  12.850   6.950
 3575POPC   C4A47826  20.592  12.608   7.339
 3575POPC   C1B47827  20.792  13.166   6.097
 3575POPC   C2B47828  20.874  13.359   6.515
 3575POPC   C3B47829  20.918  13.180   6.932
 3575POPC   C4B47830  20.690  13.124   7.343
 3576POPC   NC347831   9.638  39.720   5.274
 3576POPC   PO447832   9.781  40.354   5.465
 3576POPC   GL147833   9.677  40.009   5.737
 3576POPC   GL247834   9.911  39.766   5.875
 3576POPC   C1A47835   9.460  40.008   6.145
 3576POPC   D2A47836   9.394  40.252   6.555
 3576POPC   C3A47837   9.498  40.112   7.004
 3576POPC   C4A47838   9.695  39.801   7.303
 3576POPC   C1B47839   9.960  39.927   6.308
 3576POPC   C2B47840   9.924  39.974   6.764
 3576POPC   C3B47841  10.098  40.064   7.179
 3576POPC   C4B47842   9.977  40.151   7.610
 3577POPC   NC347843  27.363  37.989   5.298
 3577POPC   PO447844  27.372  37.244   5.452
 3577POPC   GL147845  27.438  37.328   5.855
 3577POPC   GL247846  27.768  37.489   5.847
 3577POPC   C1A47847  27.344  37.504   6.269
 3577POPC   D2A47848  27.318  37.422   6.717
 3577POPC   C3A47849  27.598  37.730   6.925
 3577POPC   C4A47850  27.708  37.689   7.372
 3577POPC   C1B47851  27.823  37.733   6.253
 3577POPC   C2B47852  28.042  37.805   6.660
 3577POPC   C3B47853  28.102  37.883   7.132
 3577POPC   C4B47854  28.175  37.745   7.597
 3578POPC   NC347855   5.773  33.395   5.337
 3578POPC   PO447856   6.167  32.894   5.281
 3578POPC   GL147857   6.090  33.165   5.677
 3578POPC   GL247858   5.756  33.118   5.813
 3578POPC   C1A47859   6.134  33.135   6.146
 3578POPC   D2A47860   5.934  32.947   6.487
 3578POPC   C3A47861   5.775  33.304   6.746
 3578POPC   C4A47862   6.079  33.412   7.127
 3578POPC   C1B47863   5.517  33.040   6.213
 3578POPC   C2B47864   5.462  32.854   6.647
 3578POPC   C3B47865   5.513  32.604   7.020
 3578POPC   C4B47866   5.595  32.723   7.444
 3579POPC   NC347867  27.477   1.776   5.490
 3579POPC   PO447868  27.831   2.318   5.633
 3579POPC   GL147869  27.656   2.043   5.895
 3579POPC   GL247870  27.923   1.819   5.919
 3579POPC   C1A47871  27.579   1.938   6.318
 3579POPC   D2A47872  27.652   2.125   6.703
 3579POPC   C3A47873  27.349   2.022   6.992
 3579POPC   C4A47874  27.395   1.870   7.391
 3579POPC   C1B47875  27.917   1.550   6.261
 3579POPC   C2B47876  27.736   1.574   6.677
 3579POPC   C3B47877  27.800   1.775   7.071
 3579POPC   C4B47878  28.075   1.693   7.384
 3580POPC   NC347879   8.193  30.684   5.343
 3580POPC   PO447880   7.683  30.353   5.176
 3580POPC   GL147881   8.050  30.395   5.703
 3580POPC   GL247882   8.428  30.589   5.769
 3580POPC   C1A47883   8.040  30.597   6.146
 3580POPC   D2A47884   8.159  30.890   6.520
 3580POPC   C3A47885   8.053  30.800   6.933
 3580POPC   C4A47886   8.232  30.699   7.319
 3580POPC   C1B47887   8.547  30.639   6.180
 3580POPC   C2B47888   8.415  30.449   6.544
 3580POPC   C3B47889   8.575  30.573   6.931
 3580POPC   C4B47890   8.628  30.373   7.346
 3581POPC   NC347891   4.640  18.418   5.467
 3581POPC   PO447892   4.100  18.713   5.362
 3581POPC   GL147893   4.152  18.346   5.677
 3581POPC   GL247894   4.350  18.527   5.867
 3581POPC   C1A47895   4.166  18.150   6.140
 3581POPC   D2A47896   4.404  18.186   6.551
 3581POPC   C3A47897   4.141  18.034   6.887
 3581POPC   C4A47898   4.138  17.908   7.320
 3581POPC   C1B47899   4.622  18.524   6.199
 3581POPC   C2B47900   4.856  18.482   6.543
 3581POPC   C3B47901   4.700  18.484   6.943
 3581POPC   C4B47902   4.507  18.228   7.194
 3582POPC   NC347903  18.084  41.774   5.541
 3582POPC   PO447904  18.577  41.332   5.532
 3582POPC   GL147905  18.479  41.604   5.865
 3582POPC   GL247906  18.477  41.951   5.826
 3582POPC   C1A47907  18.198  41.551   6.212
 3582POPC   D2A47908  18.106  41.448   6.626
 3582POPC   C3A47909  18.469  41.521   6.856
 3582POPC   C4A47910  18.426  41.626   7.257
 3582POPC   C1B47911  18.234  42.061   6.185
 3582POPC   C2B47912  18.314  42.133   6.596
 3582POPC   C3B47913  18.119  41.902   6.907
 3582POPC   C4B47914  18.043  41.972   7.310
 3583POPC   NC347915  31.692   7.880   5.453
 3583POPC   PO447916  31.519   8.599   5.410
 3583POPC   GL147917  31.678   8.300   5.735
 3583POPC   GL247918  31.389   8.084   5.866
 3583POPC   C1A47919  31.738   8.285   6.188
 3583POPC   D2A47920  31.494   8.163   6.557
 3583POPC   C3A47921  31.688   8.311   6.953
 3583POPC   C4A47922  31.655   8.435   7.408
 3583POPC   C1B47923  31.141   7.849   6.200
 3583POPC   C2B47924  30.997   8.011   6.580
 3583POPC   C3B47925  31.174   8.092   6.972
 3583POPC   C4B47926  31.269   8.092   7.397
 3584POPC   NC347927  24.774  26.257   5.316
 3584POPC   PO447928  24.605  25.628   5.513
 3584POPC   GL147929  24.697  26.007   5.755
 3584POPC   GL247930  24.361  26.117   5.760
 3584POPC   C1A47931  24.670  26.227   6.154
 3584POPC   D2A47932  24.595  25.974   6.514
 3584POPC   C3A47933  24.661  26.167   6.900
 3584POPC   C4A47934  24.429  26.177   7.279
 3584POPC   C1B47935  24.239  25.907   6.120
 3584POPC   C2B47936  24.103  25.789   6.529
 3584POPC   C3B47937  24.161  26.006   6.871
 3584POPC   C4B47938  24.020  25.858   7.249
 3585POPC   NC347939  15.606  11.101   5.467
 3585POPC   PO447940  16.137  11.556   5.323
 3585POPC   GL147941  16.091  11.207   5.634
 3585POPC   GL247942  15.846  11.415   5.796
 3585POPC   C1A47943  16.014  11.035   6.086
 3585POPC   D2A47944  16.148  11.113   6.508
 3585POPC   C3A47945  15.927  11.098   6.881
 3585POPC   C4A47946  15.918  11.277   7.291
 3585POPC   C1B47947  15.807  11.489   6.247
 3585POPC   C2B47948  15.941  11.559   6.651
 3585POPC   C3B47949  15.941  11.698   7.040
 3585POPC   C4B47950  15.602  11.773   7.317
 3586POPC   NC347951  11.416   0.150   5.256
 3586POPC   PO447952  11.025   0.673   5.392
 3586POPC   GL147953  11.023   0.456   5.753
 3586POPC   GL247954  11.280   0.207   5.756
 3586POPC   C1A47955  11.111   0.548   6.161
 3586POPC   D2A47956  11.269   0.634   6.553
 3586POPC   C3A47957  11.024   0.702   6.900
 3586POPC   C4A47958  11.033   0.501   7.286
 3586POPC   C1B47959  11.451   0.179   6.165
 3586POPC   C2B47960  11.614   0.265   6.593
 3586POPC   C3B47961  11.476   0.387   6.964
 3586POPC   C4B47962  11.407   0.146   7.284
 3587POPC   NC347963  27.459   9.134   5.524
 3587POPC   PO447964  27.881   8.654   5.573
 3587POPC   GL147965  27.636   8.683   5.967
 3587POPC   GL247966  27.427   8.995   6.003
 3587POPC   C1A47967  27.549   8.725   6.423
 3587POPC   D2A47968  27.180   8.715   6.689
 3587POPC   C3A47969  27.267   8.632   7.103
 3587POPC   C4A47970  27.624   8.815   7.281
 3587POPC   C1B47971  27.841   9.114   6.212
 3587POPC   C2B47972  27.845   9.156   6.672
 3587POPC   C3B47973  27.462   9.157   6.931
 3587POPC   C4B47974  27.328   9.228   7.378
 3588POPC   NC347975  41.284  32.336   5.396
 3588POPC   PO447976  40.607  32.302   5.426
 3588POPC   GL147977  40.777  32.208   5.806
 3588POPC   GL247978  41.109  32.305   5.858
 3588POPC   C1A47979  40.718  32.283   6.213
 3588POPC   D2A47980  40.544  32.530   6.483
 3588POPC   C3A47981  40.638  32.369   6.885
 3588POPC   C4A47982  40.471  32.512   7.251
 3588POPC   C1B47983  41.226  32.225   6.254
 3588POPC   C2B47984  40.980  32.080   6.603
 3588POPC   C3B47985  41.134  32.191   6.979
 3588POPC   C4B47986  40.941  32.320   7.357
 3589POPC   NC347987  10.629  12.982   5.481
 3589POPC   PO447988  10.257  12.648   5.087
 3589POPC   GL147989  10.541  12.527   5.600
 3589POPC   GL247990  10.429  12.805   5.909
 3589POPC   C1A47991  10.690  12.394   6.007
 3589POPC   D2A47992  10.466  12.551   6.361
 3589POPC   C3A47993  10.704  12.680   6.689
 3589POPC   C4A47994  10.559  12.739   7.104
 3589POPC   C1B47995  10.635  13.065   6.255
 3589POPC   C2B47996  10.629  13.187   6.706
 3589POPC   C3B47997  10.633  13.250   7.153
 3589POPC   C4B47998  10.700  13.065   7.515
 3590POPC   NC347999  41.943  29.728   5.467
 3590POPC   PO448000  42.549  30.036   5.550
 3590POPC   GL148001  42.257  29.886   5.832
 3590POPC   GL248002  41.921  30.089   5.831
 3590POPC   C1A48003  42.350  29.702   6.220
 3590POPC   D2A48004  42.566  29.886   6.529
 3590POPC   C3A48005  42.650  29.695   6.888
 3590POPC   C4A48006  42.425  29.823   7.263
 3590POPC   C1B48007  41.918  29.936   6.213
 3590POPC   C2B48008  42.093  30.093   6.565
 3590POPC   C3B48009  42.050  30.008   6.975
 3590POPC   C4B48010  42.164  30.321   7.250
 3591POPC   NC348011  12.303  42.895   5.703
 3591POPC   PO448012  11.688  42.798   5.423
 3591POPC   GL148013  11.798  42.989   5.837
 3591POPC   GL248014  11.577  43.298   5.908
 3591POPC   C1A48015  11.968  42.794   6.245
 3591POPC   D2A48016  12.154  42.639   6.630
 3591POPC   C3A48017  12.206  43.008   6.909
 3591POPC   C4A48018  12.207  43.319   7.266
 3591POPC   C1B48019  11.779  43.307   6.359
 3591POPC   C2B48020  11.718  43.273   6.820
 3591POPC   C3B48021  11.694  43.490   7.207
 3591POPC   C4B48022  11.726  43.339   7.631
 3592POPC   NC348023  13.320  33.592   5.596
 3592POPC   PO448024  13.717  34.050   5.398
 3592POPC   GL148025  13.562  34.052   5.800
 3592POPC   GL248026  13.202  34.093   5.726
 3592POPC   C1A48027  13.702  33.914   6.264
 3592POPC   D2A48028  13.952  33.859   6.684
 3592POPC   C3A48029  13.899  33.566   7.050
 3592POPC   C4A48030  13.750  33.672   7.471
 3592POPC   C1B48031  13.218  34.057   6.156
 3592POPC   C2B48032  13.238  33.870   6.505
 3592POPC   C3B48033  13.476  33.685   6.779
 3592POPC   C4B48034  13.373  33.500   7.146
 3593POPC   NC348035   5.719   4.146   5.131
 3593POPC   PO448036   6.221   4.467   5.171
 3593POPC   GL148037   6.021   4.312   5.625
 3593POPC   GL248038   6.033   4.603   5.893
 3593POPC   C1A48039   5.835   4.194   6.071
 3593POPC   D2A48040   6.027   4.413   6.458
 3593POPC   C3A48041   6.062   4.215   6.885
 3593POPC   C4A48042   5.740   4.140   7.181
 3593POPC   C1B48043   5.692   4.746   6.156
 3593POPC   C2B48044   5.624   4.721   6.600
 3593POPC   C3B48045   5.810   4.639   6.983
 3593POPC   C4B48046   5.763   4.582   7.428
 3594POPC   NC348047   0.294  27.351   5.473
 3594POPC   PO448048   0.330  26.654   5.459
 3594POPC   GL148049   0.215  26.800   5.821
 3594POPC   GL248050  44.939  26.592   5.914
 3594POPC   C1A48051   0.413  27.011   6.149
 3594POPC   D2A48052   0.371  26.960   6.558
 3594POPC   C3A48053   0.662  26.837   6.842
 3594POPC   C4A48054   0.635  26.997   7.232
 3594POPC   C1B48055  44.992  26.650   6.364
 3594POPC   C2B48056  44.970  26.680   6.826
 3594POPC   C3B48057   0.249  26.653   7.185
 3594POPC   C4B48058   0.157  26.582   7.621
 3595POPC   NC348059  24.238   5.868   5.031
 3595POPC   PO448060  24.789   5.985   5.347
 3595POPC   GL148061  24.736   5.763   5.740
 3595POPC   GL248062  24.685   6.100   5.862
 3595POPC   C1A48063  24.534   5.701   6.158
 3595POPC   D2A48064  24.715   5.648   6.553
 3595POPC   C3A48065  24.512   5.669   6.930
 3595POPC   C4A48066  24.611   5.649   7.315
 3595POPC   C1B48067  24.643   6.216   6.267
 3595POPC   C2B48068  24.459   6.097   6.650
 3595POPC   C3B48069  24.561   6.188   7.066
 3595POPC   C4B48070  24.434   6.167   7.467
 3596POPC   NC348071  32.203  26.668   5.362
 3596POPC   PO448072  31.946  27.270   5.503
 3596POPC   GL148073  32.254  27.093   5.788
 3596POPC   GL248074  32.296  26.761   5.839
 3596POPC   C1A48075  32.297  27.128   6.226
 3596POPC   D2A48076  32.034  27.285   6.555
 3596POPC   C3A48077  32.137  27.083   6.933
 3596POPC   C4A48078  32.272  27.056   7.346
 3596POPC   C1B48079  32.444  26.635   6.212
 3596POPC   C2B48080  32.448  26.758   6.631
 3596POPC   C3B48081  32.598  26.812   7.027
 3596POPC   C4B48082  32.364  26.535   7.280
 3597POPC   NC348083  43.692  18.183   5.485
 3597POPC   PO448084  44.346  18.065   5.368
 3597POPC   GL148085  44.148  18.006   5.791
 3597POPC   GL248086  43.804  17.974   5.942
 3597POPC   C1A48087  44.164  18.247   6.186
 3597POPC   D2A48088  44.118  18.555   6.524
 3597POPC   C3A48089  44.150  18.502   6.990
 3597POPC   C4A48090  43.965  18.190   7.261
 3597POPC   C1B48091  43.672  18.353   6.227
 3597POPC   C2B48092  43.559  18.515   6.652
 3597POPC   C3B48093  43.625  18.586   7.112
 3597POPC   C4B48094  43.518  18.359   7.504
 3598POPC   NC348095  21.918   5.073   5.112
 3598POPC   PO448096  22.431   4.891   5.523
 3598POPC   GL148097  22.319   5.162   5.881
 3598POPC   GL248098  21.949   5.197   5.898
 3598POPC   C1A48099  22.233   5.242   6.339
 3598POPC   D2A48100  21.961   5.256   6.742
 3598POPC   C3A48101  22.211   5.308   7.126
 3598POPC   C4A48102  22.571   5.487   7.246
 3598POPC   C1B48103  21.835   4.938   6.275
 3598POPC   C2B48104  21.876   4.737   6.663
 3598POPC   C3B48105  21.979   4.863   7.090
 3598POPC   C4B48106  22.183   4.952   7.491
 3599POPC   NC348107  34.178  44.106   5.317
 3599POPC   PO448108  34.313  43.501   5.537
 3599POPC   GL148109  34.021  43.798   5.723
 3599POPC   GL248110  34.214  44.062   5.820
 3599POPC   C1A48111  33.765  43.852   6.118
 3599POPC   D2A48112  33.905  43.728   6.540
 3599POPC   C3A48113  33.759  43.841   6.956
 3599POPC   C4A48114  33.866  43.744   7.398
 3599POPC   C1B48115  34.174  44.123   6.249
 3599POPC   C2B48116  34.172  44.157   6.662
 3599POPC   C3B48117  33.932  44.407   6.930
 3599POPC   C4B48118  33.776  44.236   7.298
 3600POPC   NC348119  28.245  33.253   5.418
 3600POPC   PO448120  28.783  32.864   5.193
 3600POPC   GL148121  28.603  32.896   5.604
 3600POPC   GL248122  28.662  33.207   5.758
 3600POPC   C1A48123  28.475  32.856   6.069
 3600POPC   D2A48124  28.209  33.049   6.407
 3600POPC   C3A48125  28.298  32.846   6.803
 3600POPC   C4A48126  28.171  32.883   7.214
 3600POPC   C1B48127  28.569  33.357   6.181
 3600POPC   C2B48128  28.610  33.272   6.646
 3600POPC   C3B48129  28.380  33.325   7.052
 3600POPC   C4B48130  28.486  33.273   7.485
 3601POPC   NC348131  28.546  10.994   5.336
 3601POPC   PO448132  28.106  10.667   5.690
 3601POPC   GL148133  28.319  10.439   6.016
 3601POPC   GL248134  28.192  10.081   5.968
 3601POPC   C1A48135  28.366  10.677   6.379
 3601POPC   D2A48136  28.114  11.003   6.559
 3601POPC   C3A48137  27.972  10.792   6.921
 3601POPC   C4A48138  28.215  10.569   7.222
 3601POPC   C1B48139  28.273  10.084   6.418
 3601POPC   C2B48140  28.368  10.353   6.777
 3601POPC   C3B48141  28.666  10.349   7.131
 3601POPC   C4B48142  28.531  10.337   7.552
 3602POPC   NC348143  41.234  37.861   5.497
 3602POPC   PO448144  41.817  38.172   5.628
 3602POPC   GL148145  41.540  37.876   5.901
 3602POPC   GL248146  41.517  37.508   5.762
 3602POPC   C1A48147  41.471  37.846   6.363
 3602POPC   D2A48148  41.794  37.895   6.677
 3602POPC   C3A48149  41.716  37.620   6.980
 3602POPC   C4A48150  41.608  37.807   7.317
 3602POPC   C1B48151  41.502  37.369   6.202
 3602POPC   C2B48152  41.471  37.222   6.664
 3602POPC   C3B48153  41.308  37.342   7.104
 3602POPC   C4B48154  41.442  37.372   7.538
 3603POPC   NC348155  38.019  41.242   5.408
 3603POPC   PO448156  37.594  40.735   5.573
 3603POPC   GL148157  37.463  40.999   5.913
 3603POPC   GL248158  37.594  41.270   5.726
 3603POPC   C1A48159  37.465  41.016   6.372
 3603POPC   D2A48160  37.635  40.683   6.642
 3603POPC   C3A48161  37.620  40.682   7.056
 3603POPC   C4A48162  37.916  40.698   7.319
 3603POPC   C1B48163  37.889  41.237   6.096
 3603POPC   C2B48164  38.006  41.009   6.491
 3603POPC   C3B48165  38.008  41.052   6.955
 3603POPC   C4B48166  37.727  41.163   7.334
 3604POPC   NC348167  18.168  24.016   5.452
 3604POPC   PO448168  17.876  23.405   5.491
 3604POPC   GL148169  18.059  23.678   5.852
 3604POPC   GL248170  18.424  23.692   5.814
 3604POPC   C1A48171  18.085  23.794   6.326
 3604POPC   D2A48172  18.419  23.824   6.676
 3604POPC   C3A48173  18.319  23.810   7.117
 3604POPC   C4A48174  17.888  23.907   7.349
 3604POPC   C1B48175  18.499  23.509   6.227
 3604POPC   C2B48176  18.461  23.331   6.622
 3604POPC   C3B48177  18.622  23.386   7.037
 3604POPC   C4B48178  18.827  23.630   7.318
 3605POPC   NC348179  25.869  29.652   5.398
 3605POPC   PO448180  26.224  30.232   5.317
 3605POPC   GL148181  25.944  30.085   5.661
 3605POPC   GL248182  26.144  29.787   5.815
 3605POPC   C1A48183  25.870  30.074   6.124
 3605POPC   D2A48184  26.141  29.842   6.443
 3605POPC   C3A48185  26.217  29.998   6.875
 3605POPC   C4A48186  26.262  29.868   7.296
 3605POPC   C1B48187  25.855  29.520   6.100
 3605POPC   C2B48188  25.703  29.364   6.517
 3605POPC   C3B48189  25.882  29.569   6.879
 3605POPC   C4B48190  25.817  29.635   7.302
 3606POPC   NC348191  43.091  23.388   5.171
 3606POPC   PO448192  42.968  22.751   5.353
 3606POPC   GL148193  42.933  22.820   5.803
 3606POPC   GL248194  42.783  22.536   5.952
 3606POPC   C1A48195  42.905  23.018   6.210
 3606POPC   D2A48196  43.150  23.280   6.483
 3606POPC   C3A48197  43.098  23.145   6.894
 3606POPC   C4A48198  43.345  23.103   7.239
 3606POPC   C1B48199  43.180  22.597   6.191
 3606POPC   C2B48200  43.116  22.736   6.600
 3606POPC   C3B48201  42.931  22.571   6.980
 3606POPC   C4B48202  43.098  22.688   7.360
 3607POPC   NC348203  17.846  22.144   5.556
 3607POPC   PO448204  18.572  22.105   5.471
 3607POPC   GL148205  18.285  21.950   5.759
 3607POPC   GL248206  18.246  22.306   5.841
 3607POPC   C1A48207  18.231  21.949   6.195
 3607POPC   D2A48208  18.361  22.210   6.515
 3607POPC   C3A48209  18.015  22.149   6.770
 3607POPC   C4A48210  18.088  21.998   7.158
 3607POPC   C1B48211  18.106  22.523   6.196
 3607POPC   C2B48212  18.100  22.654   6.633
 3607POPC   C3B48213  18.254  22.505   7.073
 3607POPC   C4B48214  18.197  22.403   7.527
 3608POPC   NC348215  27.354  28.374   5.442
 3608POPC   PO448216  27.691  28.951   5.360
 3608POPC   GL148217  27.725  28.581   5.729
 3608POPC   GL248218  27.429  28.448   5.929
 3608POPC   C1A48219  27.841  28.401   6.184
 3608POPC   D2A48220  27.626  28.262   6.572
 3608POPC   C3A48221  27.854  28.365   6.947
 3608POPC   C4A48222  27.920  28.697   7.255
 3608POPC   C1B48223  27.223  28.161   6.243
 3608POPC   C2B48224  27.096  28.116   6.662
 3608POPC   C3B48225  27.355  28.148   7.016
 3608POPC   C4B48226  27.454  28.496   7.241
 3609POPC   NC348227  30.911  12.505   5.463
 3609POPC   PO448228  30.471  13.057   5.317
 3609POPC   GL148229  30.471  12.964   5.772
 3609POPC   GL248230  30.495  12.611   5.778
 3609POPC   C1A48231  30.671  12.835   6.207
 3609POPC   D2A48232  30.880  12.483   6.476
 3609POPC   C3A48233  31.037  12.616   6.873
 3609POPC   C4A48234  30.831  12.933   7.155
 3609POPC   C1B48235  30.243  12.569   6.167
 3609POPC   C2B48236  30.243  12.403   6.556
 3609POPC   C3B48237  30.483  12.549   6.921
 3609POPC   C4B48238  30.396  12.697   7.357
 3610POPC   NC348239  32.096  37.968   5.518
 3610POPC   PO448240  32.274  37.339   5.418
 3610POPC   GL148241  32.304  37.545   5.818
 3610POPC   GL248242  31.956  37.572   5.875
 3610POPC   C1A48243  32.422  37.679   6.253
 3610POPC   D2A48244  32.604  37.794   6.668
 3610POPC   C3A48245  32.340  37.691   7.028
 3610POPC   C4A48246  32.391  37.609   7.489
 3610POPC   C1B48247  31.964  37.912   6.184
 3610POPC   C2B48248  32.144  38.014   6.586
 3610POPC   C3B48249  32.013  38.080   7.008
 3610POPC   C4B48250  32.275  38.100   7.372
 3611POPC   NC348251  29.511  21.375   5.506
 3611POPC   PO448252  28.947  21.875   5.481
 3611POPC   GL148253  29.069  21.575   5.774
 3611POPC   GL248254  28.768  21.390   5.881
 3611POPC   C1A48255  29.278  21.379   6.141
 3611POPC   D2A48256  29.251  21.442   6.601
 3611POPC   C3A48257  29.309  21.129   6.896
 3611POPC   C4A48258  29.267  21.220   7.330
 3611POPC   C1B48259  28.858  21.644   6.245
 3611POPC   C2B48260  28.752  21.596   6.668
 3611POPC   C3B48261  28.891  21.406   7.045
 3611POPC   C4B48262  28.847  21.550   7.466
 3612POPC   NC348263  25.891   1.177   5.575
 3612POPC   PO448264  26.440   0.802   5.573
 3612POPC   GL148265  26.268   1.061   5.920
 3612POPC   GL248266  25.929   1.156   6.075
 3612POPC   C1A48267  26.375   1.299   6.291
 3612POPC   D2A48268  26.209   1.388   6.706
 3612POPC   C3A48269  26.268   1.043   7.001
 3612POPC   C4A48270  26.139   0.846   7.395
 3612POPC   C1B48271  25.842   1.510   6.361
 3612POPC   C2B48272  25.705   1.461   6.808
 3612POPC   C3B48273  25.670   1.055   6.991
 3612POPC   C4B48274  25.730   0.637   7.170
 3613POPC   NC348275  43.330  24.118   5.401
 3613POPC   PO448276  43.542  23.541   5.138
 3613POPC   GL148277  43.259  23.611   5.598
 3613POPC   GL248278  43.032  23.900   5.734
 3613POPC   C1A48279  43.000  23.504   6.027
 3613POPC   D2A48280  42.843  23.710   6.438
 3613POPC   C3A48281  43.049  23.681   6.844
 3613POPC   C4A48282  42.981  23.492   7.242
 3613POPC   C1B48283  43.144  24.011   6.157
 3613POPC   C2B48284  43.257  24.089   6.581
 3613POPC   C3B48285  43.316  24.238   7.000
 3613POPC   C4B48286  43.224  23.967   7.313
 3614POPC   NC348287   1.351  13.070   5.506
 3614POPC   PO448288   1.547  12.485   5.254
 3614POPC   GL148289   1.352  12.603   5.713
 3614POPC   GL248290   1.002  12.789   5.828
 3614POPC   C1A48291   1.364  12.782   6.170
 3614POPC   D2A48292   1.128  12.793   6.560
 3614POPC   C3A48293   1.378  12.963   6.875
 3614POPC   C4A48294   1.338  13.020   7.300
 3614POPC   C1B48295   1.058  13.196   6.119
 3614POPC   C2B48296   1.012  13.347   6.568
 3614POPC   C3B48297   0.974  13.249   7.007
 3614POPC   C4B48298   0.901  12.825   7.110
 3615POPC   NC348299  10.536   3.765   5.372
 3615POPC   PO448300  10.899   3.198   5.480
 3615POPC   GL148301  10.616   3.370   5.797
 3615POPC   GL248302  10.570   3.735   5.878
 3615POPC   C1A48303  10.536   3.379   6.255
 3615POPC   D2A48304  10.667   3.287   6.694
 3615POPC   C3A48305  10.456   3.483   7.084
 3615POPC   C4A48306  10.215   3.853   7.241
 3615POPC   C1B48307  10.680   3.898   6.277
 3615POPC   C2B48308  10.592   3.835   6.714
 3615POPC   C3B48309  10.695   3.934   7.119
 3615POPC   C4B48310  10.802   3.734   7.501
 3616POPC   NC348311   6.383  21.555   5.103
 3616POPC   PO448312   7.056  21.354   5.277
 3616POPC   GL148313   6.686  21.275   5.566
 3616POPC   GL248314   6.578  21.581   5.744
 3616POPC   C1A48315   6.574  21.170   6.021
 3616POPC   D2A48316   6.599  21.213   6.452
 3616POPC   C3A48317   6.599  21.074   6.883
 3616POPC   C4A48318   6.363  21.151   7.235
 3616POPC   C1B48319   6.661  21.674   6.217
 3616POPC   C2B48320   6.627  21.658   6.706
 3616POPC   C3B48321   6.444  21.674   7.124
 3616POPC   C4B48322   6.562  21.739   7.591
 3617POPC   NC348323  32.369  10.399   5.222
 3617POPC   PO448324  32.081  10.921   5.358
 3617POPC   GL148325  32.346  10.638   5.687
 3617POPC   GL248326  32.429  10.251   5.709
 3617POPC   C1A48327  32.456  10.645   6.129
 3617POPC   D2A48328  32.142  10.675   6.478
 3617POPC   C3A48329  32.323  10.756   6.889
 3617POPC   C4A48330  32.256  10.806   7.331
 3617POPC   C1B48331  32.139  10.258   6.064
 3617POPC   C2B48332  32.301  10.200   6.497
 3617POPC   C3B48333  32.237  10.258   6.908
 3617POPC   C4B48334  31.957  10.173   7.203
 3618POPC   NC348335   5.561  13.969   5.235
 3618POPC   PO448336   5.925  14.556   5.344
 3618POPC   GL148337   6.039  14.340   5.799
 3618POPC   GL248338   5.803  14.033   5.926
 3618POPC   C1A48339   5.982  14.361   6.251
 3618POPC   D2A48340   5.906  14.650   6.574
 3618POPC   C3A48341   5.622  14.599   6.907
 3618POPC   C4A48342   5.805  14.451   7.277
 3618POPC   C1B48343   5.502  14.232   6.241
 3618POPC   C2B48344   5.695  14.154   6.642
 3618POPC   C3B48345   5.513  14.107   7.023
 3618POPC   C4B48346   5.279  14.405   7.254
 3619POPC   NC348347  27.706  17.447   5.554
 3619POPC   PO448348  27.133  17.194   5.270
 3619POPC   GL148349  27.253  17.574   5.700
 3619POPC   GL248350  27.498  17.410   6.003
 3619POPC   C1A48351  27.386  17.858   6.151
 3619POPC   D2A48352  27.716  17.742   6.472
 3619POPC   C3A48353  27.542  17.603   6.887
 3619POPC   C4A48354  27.533  17.697   7.345
 3619POPC   C1B48355  27.932  17.320   6.181
 3619POPC   C2B48356  28.079  17.139   6.565
 3619POPC   C3B48357  28.116  17.233   7.002
 3619POPC   C4B48358  27.740  17.247   7.230
 3620POPC   NC348359  44.325  33.807   5.017
 3620POPC   PO448360  43.893  33.514   5.419
 3620POPC   GL148361  43.807  33.538   5.831
 3620POPC   GL248362  43.490  33.353   5.777
 3620POPC   C1A48363  43.783  33.849   6.183
 3620POPC   D2A48364  43.603  33.897   6.614
 3620POPC   C3A48365  43.842  33.703   6.961
 3620POPC   C4A48366  43.961  33.900   7.355
 3620POPC   C1B48367  43.513  33.414   6.231
 3620POPC   C2B48368  43.545  33.379   6.647
 3620POPC   C3B48369  43.348  33.563   6.980
 3620POPC   C4B48370  43.551  33.545   7.354
 3621POPC   NC348371  14.522  18.360   5.475
 3621POPC   PO448372  14.130  17.863   5.405
 3621POPC   GL148373  14.124  18.145   5.765
 3621POPC   GL248374  14.430  18.104   5.891
 3621POPC   C1A48375  14.160  18.409   6.195
 3621POPC   D2A48376  14.245  18.233   6.616
 3621POPC   C3A48377  14.292  18.448   7.011
 3621POPC   C4A48378  14.179  18.290   7.447
 3621POPC   C1B48379  14.670  18.326   6.150
 3621POPC   C2B48380  14.718  18.394   6.557
 3621POPC   C3B48381  14.764  18.182   6.924
 3621POPC   C4B48382  14.682  18.303   7.329
 3622POPC   NC348383  40.929  24.726   5.374
 3622POPC   PO448384  40.370  24.862   5.708
 3622POPC   GL148385  40.646  24.483   5.863
 3622POPC   GL248386  41.019  24.416   5.776
 3622POPC   C1A48387  40.778  24.521   6.275
 3622POPC   D2A48388  40.674  24.398   6.684
 3622POPC   C3A48389  40.684  24.714   6.998
 3622POPC   C4A48390  40.606  24.823   7.417
 3622POPC   C1B48391  41.050  24.130   6.120
 3622POPC   C2B48392  40.911  23.970   6.534
 3622POPC   C3B48393  40.815  23.998   6.975
 3622POPC   C4B48394  40.981  24.341   7.236
 3623POPC   NC348395   0.730  10.488   5.397
 3623POPC   PO448396   0.226  10.044   5.296
 3623POPC   GL148397   0.157  10.364   5.645
 3623POPC   GL248398   0.354  10.666   5.729
 3623POPC   C1A48399   0.184  10.366   6.114
 3623POPC   D2A48400   0.416  10.495   6.487
 3623POPC   C3A48401   0.339  10.326   6.901
 3623POPC   C4A48402   0.344  10.481   7.329
 3623POPC   C1B48403   0.319  10.869   6.136
 3623POPC   C2B48404   0.544  11.023   6.487
 3623POPC   C3B48405   0.545  10.802   6.892
 3623POPC   C4B48406   0.761  10.809   7.257
 3624POPC   NC348407  10.880  22.780   5.475
 3624POPC   PO448408  10.570  23.307   5.060
 3624POPC   GL148409  10.516  23.201   5.607
 3624POPC   GL248410  10.165  23.182   5.749
 3624POPC   C1A48411  10.471  22.920   6.057
 3624POPC   D2A48412  10.368  22.835   6.527
 3624POPC   C3A48413  10.736  22.814   6.814
 3624POPC   C4A48414  10.720  22.830   7.254
 3624POPC   C1B48415  10.300  23.381   6.194
 3624POPC   C2B48416  10.511  23.344   6.615
 3624POPC   C3B48417  10.398  23.171   7.007
 3624POPC   C4B48418  10.326  23.125   7.426
 3625POPC   NC348419  44.194  10.527   5.482
 3625POPC   PO448420  43.439  10.239   5.372
 3625POPC   GL148421  43.624  10.577   5.695
 3625POPC   GL248422  43.929  10.499   5.890
 3625POPC   C1A48423  43.615  10.747   6.162
 3625POPC   D2A48424  43.905  10.645   6.517
 3625POPC   C3A48425  43.749  10.533   6.924
 3625POPC   C4A48426  43.839  10.706   7.364
 3625POPC   C1B48427  44.279  10.604   6.159
 3625POPC   C2B48428  44.368  10.385   6.557
 3625POPC   C3B48429  44.221  10.354   6.992
 3625POPC   C4B48430  44.342  10.561   7.376
 3626POPC   NC348431  35.672  39.290   5.484
 3626POPC   PO448432  35.124  38.960   5.371
 3626POPC   GL148433  35.203  39.267   5.716
 3626POPC   GL248434  35.080  39.638   5.716
 3626POPC   C1A48435  35.426  39.294   6.122
 3626POPC   D2A48436  35.531  39.012   6.477
 3626POPC   C3A48437  35.487  39.226   6.877
 3626POPC   C4A48438  35.643  39.130   7.276
 3626POPC   C1B48439  34.931  39.429   6.114
 3626POPC   C2B48440  35.063  39.282   6.520
 3626POPC   C3B48441  34.921  39.258   6.932
 3626POPC   C4B48442  35.137  39.312   7.302
 3627POPC   NC348443  28.714  27.506   5.293
 3627POPC   PO448444  28.706  26.779   5.370
 3627POPC   GL148445  28.459  26.882   5.729
 3627POPC   GL248446  28.718  26.941   5.961
 3627POPC   C1A48447  28.333  26.634   6.110
 3627POPC   D2A48448  28.362  26.602   6.557
 3627POPC   C3A48449  28.318  27.017   6.748
 3627POPC   C4A48450  28.267  27.086   7.181
 3627POPC   C1B48451  28.854  26.694   6.330
 3627POPC   C2B48452  28.828  26.778   6.780
 3627POPC   C3B48453  28.516  26.626   7.063
 3627POPC   C4B48454  28.576  26.540   7.542
 3628POPC   NC348455  40.536  29.913   5.151
 3628POPC   PO448456  40.873  30.183   5.771
 3628POPC   GL148457  40.927  29.846   6.017
 3628POPC   GL248458  40.599  29.784   5.906
 3628POPC   C1A48459  40.933  29.790   6.432
 3628POPC   D2A48460  41.197  29.718   6.733
 3628POPC   C3A48461  41.054  29.935   7.067
 3628POPC   C4A48462  40.765  30.096   7.314
 3628POPC   C1B48463  40.440  29.912   6.256
 3628POPC   C2B48464  40.470  29.689   6.624
 3628POPC   C3B48465  40.590  30.032   6.851
 3628POPC   C4B48466  40.312  30.233   7.162
 3629POPC   NC348467   6.388  43.354   5.531
 3629POPC   PO448468   5.804  43.024   5.535
 3629POPC   GL148469   5.785  42.920   5.922
 3629POPC   GL248470   6.149  42.996   5.948
 3629POPC   C1A48471   5.882  42.785   6.324
 3629POPC   D2A48472   6.109  42.907   6.641
 3629POPC   C3A48473   5.831  42.927   6.955
 3629POPC   C4A48474   5.759  43.186   7.280
 3629POPC   C1B48475   6.084  43.297   6.297
 3629POPC   C2B48476   6.311  43.599   6.583
 3629POPC   C3B48477   6.422  43.595   7.011
 3629POPC   C4B48478   6.153  43.480   7.330
 3630POPC   NC348479  27.088  24.841   5.364
 3630POPC   PO448480  26.714  24.291   5.602
 3630POPC   GL148481  26.562  24.433   5.965
 3630POPC   GL248482  26.562  24.788   5.900
 3630POPC   C1A48483  26.670  24.446   6.378
 3630POPC   D2A48484  27.093  24.348   6.535
 3630POPC   C3A48485  26.971  24.337   6.950
 3630POPC   C4A48486  26.692  24.114   7.208
 3630POPC   C1B48487  26.979  24.762   6.124
 3630POPC   C2B48488  27.141  24.875   6.552
 3630POPC   C3B48489  27.065  24.830   6.999
 3630POPC   C4B48490  26.764  24.853   7.304
 3631POPC   NC348491  41.667   9.851   5.520
 3631POPC   PO448492  41.159   9.405   5.439
 3631POPC   GL148493  41.399   9.506   5.792
 3631POPC   GL248494  41.242   9.835   5.866
 3631POPC   C1A48495  41.607   9.306   6.149
 3631POPC   D2A48496  41.864   9.448   6.505
 3631POPC   C3A48497  41.653   9.620   6.900
 3631POPC   C4A48498  41.368   9.558   7.263
 3631POPC   C1B48499  41.549   9.801   6.227
 3631POPC   C2B48500  41.858   9.972   6.542
 3631POPC   C3B48501  41.796  10.156   6.946
 3631POPC   C4B48502  41.472  10.065   7.227
 3632POPC   NC348503  42.588  26.587   5.381
 3632POPC   PO448504  42.229  27.184   5.440
 3632POPC   GL148505  42.402  27.109   5.820
 3632POPC   GL248506  42.426  26.729   5.866
 3632POPC   C1A48507  42.292  27.104   6.254
 3632POPC   D2A48508  42.524  26.985   6.605
 3632POPC   C3A48509  42.341  27.154   6.946
 3632POPC   C4A48510  42.590  27.118   7.270
 3632POPC   C1B48511  42.284  26.577   6.287
 3632POPC   C2B48512  42.171  26.667   6.731
 3632POPC   C3B48513  42.348  26.662   7.119
 3632POPC   C4B48514  42.210  26.404   7.478
 3633POPC   NC348515  26.276  24.109   5.495
 3633POPC   PO448516  26.240  23.453   5.331
 3633POPC   GL148517  26.272  23.414   5.759
 3633POPC   GL248518  25.925  23.468   5.829
 3633POPC   C1A48519  26.244  23.449   6.215
 3633POPC   D2A48520  26.123  23.690   6.545
 3633POPC   C3A48521  26.062  23.475   6.915
 3633POPC   C4A48522  26.203  23.655   7.246
 3633POPC   C1B48523  25.817  23.807   6.155
 3633POPC   C2B48524  25.762  24.040   6.587
 3633POPC   C3B48525  25.730  23.857   7.020
 3633POPC   C4B48526  25.710  23.488   7.340
 3634POPC   NC348527  43.193  38.246   5.382
 3634POPC   PO448528  42.903  38.886   5.624
 3634POPC   GL148529  43.107  38.569   5.761
 3634POPC   GL248530  43.014  38.208   5.856
 3634POPC   C1A48531  43.264  38.523   6.145
 3634POPC   D2A48532  43.094  38.299   6.481
 3634POPC   C3A48533  43.226  38.408   6.882
 3634POPC   C4A48534  43.348  38.498   7.279
 3634POPC   C1B48535  42.741  38.022   6.171
 3634POPC   C2B48536  42.803  37.889   6.610
 3634POPC   C3B48537  42.780  38.186   6.971
 3634POPC   C4B48538  42.879  38.335   7.378
 3635POPC   NC348539  31.463  26.182   5.361
 3635POPC   PO448540  31.752  25.568   5.562
 3635POPC   GL148541  31.576  25.893   5.784
 3635POPC   GL248542  31.247  25.784   5.754
 3635POPC   C1A48543  31.465  26.143   6.165
 3635POPC   D2A48544  31.672  26.293   6.547
 3635POPC   C3A48545  31.448  26.155   6.897
 3635POPC   C4A48546  31.494  25.903   7.262
 3635POPC   C1B48547  31.155  25.717   6.180
 3635POPC   C2B48548  31.088  25.957   6.542
 3635POPC   C3B48549  31.172  25.736   6.905
 3635POPC   C4B48550  31.211  25.397   7.222
 3636POPC   NC348551   8.589  38.041   5.416
 3636POPC   PO448552   8.082  37.542   5.484
 3636POPC   GL148553   8.288  37.551   5.883
 3636POPC   GL248554   8.488  37.841   5.869
 3636POPC   C1A48555   8.267  37.707   6.322
 3636POPC   D2A48556   8.015  37.869   6.661
 3636POPC   C3A48557   8.062  37.749   7.107
 3636POPC   C4A48558   7.845  37.853   7.522
 3636POPC   C1B48559   8.597  38.102   6.238
 3636POPC   C2B48560   8.510  38.064   6.682
 3636POPC   C3B48561   8.355  38.198   7.072
 3636POPC   C4B48562   8.338  37.987   7.478
 3637POPC   NC348563   8.449  16.826   5.092
 3637POPC   PO448564   8.956  16.825   5.590
 3637POPC   GL148565   8.900  16.563   5.939
 3637POPC   GL248566   9.234  16.648   6.022
 3637POPC   C1A48567   8.750  16.570   6.383
 3637POPC   D2A48568   8.717  16.497   6.823
 3637POPC   C3A48569   9.046  16.691   6.969
 3637POPC   C4A48570   9.054  16.876   7.349
 3637POPC   C1B48571   9.218  16.905   6.394
 3637POPC   C2B48572   9.405  17.037   6.798
 3637POPC   C3B48573   9.148  17.295   7.066
 3637POPC   C4B48574   8.898  17.345   7.438
 3638POPC   NC348575  37.396  31.741   5.329
 3638POPC   PO448576  37.285  32.447   5.423
 3638POPC   GL148577  37.523  32.335   5.778
 3638POPC   GL248578  37.551  32.010   5.744
 3638POPC   C1A48579  37.604  32.471   6.183
 3638POPC   D2A48580  37.444  32.567   6.585
 3638POPC   C3A48581  37.653  32.364   6.922
 3638POPC   C4A48582  37.795  32.520   7.326
 3638POPC   C1B48583  37.429  31.967   6.175
 3638POPC   C2B48584  37.587  31.749   6.564
 3638POPC   C3B48585  37.686  31.844   7.003
 3638POPC   C4B48586  37.485  32.106   7.334
 3639POPC   NC348587  14.609   8.751   5.509
 3639POPC   PO448588  14.807   8.112   5.318
 3639POPC   GL148589  14.610   8.234   5.737
 3639POPC   GL248590  14.290   8.458   5.812
 3639POPC   C1A48591  14.529   8.114   6.186
 3639POPC   D2A48592  14.381   8.320   6.574
 3639POPC   C3A48593  14.268   8.170   6.979
 3639POPC   C4A48594  14.607   7.947   7.109
 3639POPC   C1B48595  14.005   8.631   6.139
 3639POPC   C2B48596  13.960   8.590   6.582
 3639POPC   C3B48597  14.151   8.674   6.986
 3639POPC   C4B48598  14.119   8.534   7.437
 3640POPC   NC348599  43.368   1.123   5.487
 3640POPC   PO448600  42.722   1.333   5.380
 3640POPC   GL148601  42.977   1.306   5.771
 3640POPC   GL248602  42.883   1.001   5.860
 3640POPC   C1A48603  43.186   1.178   6.208
 3640POPC   D2A48604  43.186   1.358   6.632
 3640POPC   C3A48605  42.903   1.240   6.961
 3640POPC   C4A48606  42.948   1.296   7.373
 3640POPC   C1B48607  42.812   0.735   6.186
 3640POPC   C2B48608  42.856   0.915   6.546
 3640POPC   C3B48609  43.150   0.842   6.805
 3640POPC   C4B48610  43.095   0.825   7.216
 3641POPC   NC348611  34.104  35.261   5.395
 3641POPC   PO448612  34.734  35.522   5.144
 3641POPC   GL148613  34.622  35.487   5.623
 3641POPC   GL248614  34.296  35.489   5.839
 3641POPC   C1A48615  34.749  35.566   6.071
 3641POPC   D2A48616  34.465  35.634   6.447
 3641POPC   C3A48617  34.502  35.592   6.920
 3641POPC   C4A48618  34.870  35.507   7.206
 3641POPC   C1B48619  34.392  35.194   6.166
 3641POPC   C2B48620  34.341  35.047   6.605
 3641POPC   C3B48621  34.467  35.088   7.043
 3641POPC   C4B48622  34.396  34.861   7.413
 3642POPC   NC348623  13.406  29.549   5.462
 3642POPC   PO448624  13.794  28.972   5.413
 3642POPC   GL148625  13.632  28.952   5.805
 3642POPC   GL248626  13.580  29.263   5.827
 3642POPC   C1A48627  13.766  28.834   6.216
 3642POPC   D2A48628  13.552  28.828   6.625
 3642POPC   C3A48629  13.808  28.921   6.994
 3642POPC   C4A48630  13.730  29.158   7.359
 3642POPC   C1B48631  13.456  29.261   6.228
 3642POPC   C2B48632  13.269  29.303   6.590
 3642POPC   C3B48633  13.466  29.289   6.933
 3642POPC   C4B48634  13.227  29.231   7.246
 3643POPC   NC348635  32.689  19.793   5.387
 3643POPC   PO448636  33.376  19.951   5.374
 3643POPC   GL148637  33.190  19.995   5.771
 3643POPC   GL248638  32.948  19.761   5.833
 3643POPC   C1A48639  33.348  19.915   6.179
 3643POPC   D2A48640  33.201  19.747   6.558
 3643POPC   C3A48641  33.380  19.874   6.957
 3643POPC   C4A48642  33.185  19.676   7.292
 3643POPC   C1B48643  32.843  19.977   6.194
 3643POPC   C2B48644  32.813  20.137   6.579
 3643POPC   C3B48645  32.866  19.948   6.961
 3643POPC   C4B48646  32.663  19.704   7.260
 3644POPC   NC348647  35.318   4.275   5.449
 3644POPC   PO448648  34.815   4.687   5.521
 3644POPC   GL148649  35.124   4.504   5.826
 3644POPC   GL248650  35.469   4.673   5.790
 3644POPC   C1A48651  35.289   4.255   6.186
 3644POPC   D2A48652  35.384   4.105   6.608
 3644POPC   C3A48653  35.130   4.290   6.965
 3644POPC   C4A48654  34.796   4.043   7.163
 3644POPC   C1B48655  35.640   4.635   6.218
 3644POPC   C2B48656  35.519   4.591   6.644
 3644POPC   C3B48657  35.638   4.499   7.058
 3644POPC   C4B48658  35.763   4.692   7.428
 3645POPC   NC348659   9.556  40.412   5.055
 3645POPC   PO448660   8.907  40.180   5.288
 3645POPC   GL148661   9.043  40.142   5.709
 3645POPC   GL248662   8.849  39.877   5.832
 3645POPC   C1A48663   9.017  40.272   6.143
 3645POPC   D2A48664   8.923  40.028   6.528
 3645POPC   C3A48665   8.987  40.222   6.910
 3645POPC   C4A48666   9.003  40.125   7.340
 3645POPC   C1B48667   8.607  39.771   6.196
 3645POPC   C2B48668   8.453  39.784   6.606
 3645POPC   C3B48669   8.622  39.800   6.998
 3645POPC   C4B48670   8.357  39.667   7.315
 3646POPC   NC348671  34.198  10.200   5.404
 3646POPC   PO448672  34.614  10.782   5.255
 3646POPC   GL148673  34.623  10.754   5.698
 3646POPC   GL248674  34.333  10.547   5.777
 3646POPC   C1A48675  34.592  10.805   6.151
 3646POPC   D2A48676  34.552  10.585   6.554
 3646POPC   C3A48677  34.673  10.701   6.937
 3646POPC   C4A48678  34.424  10.831   7.233
 3646POPC   C1B48679  34.105  10.364   6.139
 3646POPC   C2B48680  34.025  10.460   6.576
 3646POPC   C3B48681  34.214  10.386   6.981
 3646POPC   C4B48682  34.196   9.984   7.246
 3647POPC   NC348683  44.809  19.319   5.405
 3647POPC   PO448684  44.215  18.983   5.465
 3647POPC   GL148685  44.544  19.118   5.808
 3647POPC   GL248686  44.925  19.009   5.802
 3647POPC   C1A48687  44.477  19.287   6.217
 3647POPC   D2A48688  44.251  19.062   6.545
 3647POPC   C3A48689  44.304  19.078   6.995
 3647POPC   C4A48690  44.647  19.216   7.244
 3647POPC   C1B48691  44.971  19.126   6.224
 3647POPC   C2B48692  44.765  19.117   6.615
 3647POPC   C3B48693  44.964  18.954   6.930
 3647POPC   C4B48694   0.097  18.852   7.293
 3648POPC   NC348695   3.260  25.745   5.347
 3648POPC   PO448696   3.657  26.318   5.476
 3648POPC   GL148697   3.505  25.980   5.743
 3648POPC   GL248698   3.732  25.726   5.887
 3648POPC   C1A48699   3.474  26.079   6.177
 3648POPC   D2A48700   3.660  26.406   6.434
 3648POPC   C3A48701   3.351  26.441   6.753
 3648POPC   C4A48702   3.501  26.363   7.137
 3648POPC   C1B48703   3.723  25.670   6.346
 3648POPC   C2B48704   3.633  25.935   6.692
 3648POPC   C3B48705   3.590  25.852   7.121
 3648POPC   C4B48706   3.250  25.874   7.416
 3649POPC   NC348707  10.841  11.622   5.358
 3649POPC   PO448708  10.720  10.982   5.438
 3649POPC   GL148709  10.672  11.201   5.826
 3649POPC   GL248710  10.984  11.394   5.798
 3649POPC   C1A48711  10.515  11.436   6.225
 3649POPC   D2A48712  10.584  11.687   6.610
 3649POPC   C3A48713  10.485  11.450   6.951
 3649POPC   C4A48714  10.506  11.396   7.363
 3649POPC   C1B48715  10.989  11.254   6.213
 3649POPC   C2B48716  10.825  11.225   6.613
 3649POPC   C3B48717  10.984  11.431   6.950
 3649POPC   C4B48718  10.997  11.291   7.322
 3650POPC   NC348719  19.291  31.606   5.107
 3650POPC   PO448720  18.852  31.412   5.552
 3650POPC   GL148721  18.947  31.573   5.930
 3650POPC   GL248722  19.296  31.627   5.859
 3650POPC   C1A48723  18.883  31.518   6.375
 3650POPC   D2A48724  18.640  31.317   6.698
 3650POPC   C3A48725  18.657  31.498   7.043
 3650POPC   C4A48726  19.057  31.515   7.167
 3650POPC   C1B48727  19.385  31.615   6.324
 3650POPC   C2B48728  19.416  31.685   6.775
 3650POPC   C3B48729  19.308  31.950   7.127
 3650POPC   C4B48730  19.211  31.820   7.545
 3651POPC   NC348731  15.032   8.398   5.011
 3651POPC   PO448732  15.598   8.162   5.309
 3651POPC   GL148733  15.220   8.303   5.628
 3651POPC   GL248734  15.087   8.026   5.784
 3651POPC   C1A48735  14.986   8.463   6.001
 3651POPC   D2A48736  14.871   8.440   6.435
 3651POPC   C3A48737  15.058   8.471   6.886
 3651POPC   C4A48738  15.198   8.343   7.260
 3651POPC   C1B48739  15.024   7.928   6.215
 3651POPC   C2B48740  15.097   8.034   6.633
 3651POPC   C3B48741  15.090   7.893   7.039
 3651POPC   C4B48742  15.001   7.594   7.380
 3652POPC   NC348743  27.274  29.312   5.390
 3652POPC   PO448744  27.792  29.628   5.585
 3652POPC   GL148745  27.578  29.303   5.831
 3652POPC   GL248746  27.381  28.969   5.784
 3652POPC   C1A48747  27.542  29.348   6.287
 3652POPC   D2A48748  27.730  29.561   6.634
 3652POPC   C3A48749  27.561  29.439   7.041
 3652POPC   C4A48750  27.740  29.407   7.461
 3652POPC   C1B48751  27.663  28.884   6.128
 3652POPC   C2B48752  27.810  28.773   6.546
 3652POPC   C3B48753  27.587  28.857   6.892
 3652POPC   C4B48754  27.518  28.992   7.291
 3653POPC   NC348755  36.450  25.024   5.549
 3653POPC   PO448756  35.910  25.382   5.350
 3653POPC   GL148757  35.891  25.337   5.800
 3653POPC   GL248758  36.230  25.294   5.910
 3653POPC   C1A48759  35.890  25.197   6.256
 3653POPC   D2A48760  36.086  25.279   6.664
 3653POPC   C3A48761  35.802  25.290   7.008
 3653POPC   C4A48762  35.912  25.005   7.283
 3653POPC   C1B48763  36.466  25.330   6.282
 3653POPC   C2B48764  36.586  25.095   6.631
 3653POPC   C3B48765  36.468  25.106   7.067
 3653POPC   C4B48766  36.292  25.448   7.276
 3654POPC   NC348767  33.995  18.720   5.155
 3654POPC   PO448768  33.576  18.142   5.220
 3654POPC   GL148769  33.579  18.196   5.728
 3654POPC   GL248770  33.915  18.138   5.840
 3654POPC   C1A48771  33.662  18.381   6.203
 3654POPC   D2A48772  34.072  18.407   6.425
 3654POPC   C3A48773  34.026  18.369   6.890
 3654POPC   C4A48774  33.687  18.519   7.148
 3654POPC   C1B48775  33.813  17.881   6.206
 3654POPC   C2B48776  33.686  17.707   6.615
 3654POPC   C3B48777  33.817  17.904   6.989
 3654POPC   C4B48778  33.597  18.034   7.316
 3655POPC   NC348779  44.409  33.471   5.512
 3655POPC   PO448780  44.683  34.065   5.149
 3655POPC   GL148781  44.673  33.944   5.615
 3655POPC   GL248782  44.331  33.914   5.768
 3655POPC   C1A48783  44.745  33.857   6.084
 3655POPC   D2A48784  44.622  33.953   6.531
 3655POPC   C3A48785  44.785  33.884   7.004
 3655POPC   C4A48786  44.651  33.892   7.474
 3655POPC   C1B48787  44.269  33.660   6.152
 3655POPC   C2B48788  44.136  33.799   6.555
 3655POPC   C3B48789  44.291  33.939   6.948
 3655POPC   C4B48790  44.333  33.596   7.204
 3656POPC   NC348791  11.813  11.386   5.363
 3656POPC   PO448792  12.462  11.135   5.428
 3656POPC   GL148793  12.157  11.182   5.741
 3656POPC   GL248794  12.259  10.980   6.007
 3656POPC   C1A48795  11.845  11.258   6.077
 3656POPC   D2A48796  11.814  11.395   6.501
 3656POPC   C3A48797  11.901  11.189   6.913
 3656POPC   C4A48798  11.911  11.312   7.379
 3656POPC   C1B48799  12.318  11.378   6.247
 3656POPC   C2B48800  12.241  11.585   6.650
 3656POPC   C3B48801  12.246  11.536   7.019
 3656POPC   C4B48802  12.369  11.187   7.209
 3657POPC   NC348803   9.451  21.796   5.423
 3657POPC   PO448804   9.909  21.334   5.318
 3657POPC   GL148805   9.753  21.290   5.756
 3657POPC   GL248806   9.413  21.382   5.761
 3657POPC   C1A48807   9.851  21.200   6.189
 3657POPC   D2A48808  10.054  21.391   6.529
 3657POPC   C3A48809   9.876  21.482   6.930
 3657POPC   C4A48810  10.122  21.614   7.298
 3657POPC   C1B48811   9.549  21.608   6.127
 3657POPC   C2B48812   9.525  21.465   6.539
 3657POPC   C3B48813   9.346  21.555   6.949
 3657POPC   C4B48814   9.410  21.764   7.346
 3658POPC   NC348815  23.838  13.908   5.440
 3658POPC   PO448816  23.282  13.546   5.245
 3658POPC   GL148817  23.456  13.675   5.718
 3658POPC   GL248818  23.529  13.958   5.854
 3658POPC   C1A48819  23.771  13.588   6.100
 3658POPC   D2A48820  23.992  13.406   6.486
 3658POPC   C3A48821  23.866  13.520   6.913
 3658POPC   C4A48822  23.718  13.348   7.304
 3658POPC   C1B48823  23.337  13.882   6.198
 3658POPC   C2B48824  23.486  13.691   6.540
 3658POPC   C3B48825  23.522  13.895   6.881
 3658POPC   C4B48826  23.584  13.922   7.271
 3659POPC   NC348827  36.142   9.946   5.479
 3659POPC   PO448828  36.203  10.619   5.437
 3659POPC   GL148829  36.089  10.562   5.879
 3659POPC   GL248830  35.723  10.648   5.875
 3659POPC   C1A48831  36.313  10.605   6.325
 3659POPC   D2A48832  36.499  10.794   6.745
 3659POPC   C3A48833  36.399  10.517   7.097
 3659POPC   C4A48834  35.994  10.294   7.187
 3659POPC   C1B48835  35.918  10.922   6.195
 3659POPC   C2B48836  35.992  10.892   6.629
 3659POPC   C3B48837  35.976  10.800   7.034
 3659POPC   C4B48838  35.680  10.664   7.339
 3660POPC   NC348839   7.145  25.850   5.199
 3660POPC   PO448840   6.639  26.235   5.480
 3660POPC   GL148841   6.474  26.069   5.830
 3660POPC   GL248842   6.576  25.744   5.960
 3660POPC   C1A48843   6.600  26.202   6.209
 3660POPC   D2A48844   6.370  26.222   6.596
 3660POPC   C3A48845   6.495  26.028   6.934
 3660POPC   C4A48846   6.820  26.321   7.045
 3660POPC   C1B48847   6.598  25.775   6.440
 3660POPC   C2B48848   6.928  25.969   6.663
 3660POPC   C3B48849   6.945  25.831   7.073
 3660POPC   C4B48850   6.576  25.570   7.198
 3661POPC   NC348851  19.617   5.815   5.073
 3661POPC   PO448852  19.775   5.190   5.463
 3661POPC   GL148853  19.684   5.031   5.879
 3661POPC   GL248854  19.936   4.789   5.909
 3661POPC   C1A48855  19.621   5.203   6.294
 3661POPC   D2A48856  19.905   5.209   6.663
 3661POPC   C3A48857  19.723   5.168   7.083
 3661POPC   C4A48858  19.610   5.473   7.390
 3661POPC   C1B48859  19.834   4.752   6.378
 3661POPC   C2B48860  19.850   4.715   6.831
 3661POPC   C3B48861  19.872   4.679   7.275
 3661POPC   C4B48862  19.972   4.616   7.717
 3662POPC   NC348863   3.322  36.136   5.496
 3662POPC   PO448864   2.766  36.309   5.430
 3662POPC   GL148865   2.733  36.291   5.879
 3662POPC   GL248866   3.066  36.184   5.950
 3662POPC   C1A48867   2.554  36.112   6.278
 3662POPC   D2A48868   2.542  35.719   6.565
 3662POPC   C3A48869   2.657  35.724   7.028
 3662POPC   C4A48870   3.004  35.930   7.279
 3662POPC   C1B48871   3.047  36.075   6.401
 3662POPC   C2B48872   2.764  36.151   6.764
 3662POPC   C3B48873   2.884  36.398   7.119
 3662POPC   C4B48874   3.317  36.376   7.319
 3663POPC   NC348875  23.154  35.937   5.570
 3663POPC   PO448876  22.618  36.509   5.529
 3663POPC   GL148877  22.822  36.346   5.914
 3663POPC   GL248878  23.178  36.290   5.927
 3663POPC   C1A48879  22.841  36.027   6.264
 3663POPC   D2A48880  22.845  35.620   6.493
 3663POPC   C3A48881  22.658  35.748   6.896
 3663POPC   C4A48882  22.544  36.174   7.088
 3663POPC   C1B48883  23.348  36.078   6.255
 3663POPC   C2B48884  23.262  36.220   6.648
 3663POPC   C3B48885  23.125  36.055   7.032
 3663POPC   C4B48886  23.388  35.979   7.353
 3664POPC   NC348887  13.882   2.400   5.591
 3664POPC   PO448888  14.438   1.920   5.625
 3664POPC   GL148889  14.207   2.061   5.909
 3664POPC   GL248890  14.339   2.377   5.832
 3664POPC   C1A48891  14.383   1.835   6.272
 3664POPC   D2A48892  14.586   1.988   6.639
 3664POPC   C3A48893  14.392   1.926   7.005
 3664POPC   C4A48894  14.403   1.556   7.177
 3664POPC   C1B48895  14.475   2.324   6.268
 3664POPC   C2B48896  14.319   2.463   6.681
 3664POPC   C3B48897  14.344   2.429   7.124
 3664POPC   C4B48898  14.567   2.210   7.424
 3665POPC   NC348899  43.370  31.165   5.382
 3665POPC   PO448900  42.901  31.606   5.384
 3665POPC   GL148901  43.039  31.370   5.761
 3665POPC   GL248902  43.338  31.552   5.789
 3665POPC   C1A48903  43.058  31.190   6.198
 3665POPC   D2A48904  42.962  31.443   6.576
 3665POPC   C3A48905  43.000  31.370   7.010
 3665POPC   C4A48906  42.947  31.091   7.344
 3665POPC   C1B48907  43.197  31.701   6.183
 3665POPC   C2B48908  43.384  31.883   6.548
 3665POPC   C3B48909  43.532  31.877   6.957
 3665POPC   C4B48910  43.337  31.642   7.274
 3666POPC   NC348911  24.667  14.544   5.470
 3666POPC   PO448912  24.223  14.172   5.482
 3666POPC   GL148913  24.325  14.481   5.848
 3666POPC   GL248914  24.709  14.576   5.964
 3666POPC   C1A48915  24.332  14.441   6.288
 3666POPC   D2A48916  24.674  14.366   6.565
 3666POPC   C3A48917  24.522  14.149   6.948
 3666POPC   C4A48918  24.594  14.154   7.410
 3666POPC   C1B48919  25.003  14.799   6.262
 3666POPC   C2B48920  24.879  14.849   6.688
 3666POPC   C3B48921  24.654  14.629   7.016
 3666POPC   C4B48922  24.658  14.658   7.405
 3667POPC   NC348923   0.150  21.144   5.447
 3667POPC   PO448924   0.589  21.734   5.540
 3667POPC   GL148925   0.311  21.516   5.815
 3667POPC   GL248926   0.396  21.184   5.911
 3667POPC   C1A48927   0.259  21.583   6.256
 3667POPC   D2A48928   0.439  21.766   6.639
 3667POPC   C3A48929   0.568  21.559   7.019
 3667POPC   C4A48930   0.286  21.453   7.356
 3667POPC   C1B48931   0.604  21.223   6.294
 3667POPC   C2B48932   0.410  21.246   6.670
 3667POPC   C3B48933   0.474  21.068   7.068
 3667POPC   C4B48934   0.806  21.033   7.325
 3668POPC   NC348935  42.295  10.747   5.523
 3668POPC   PO448936  41.918  10.205   5.670
 3668POPC   GL148937  42.288  10.306   5.874
 3668POPC   GL248938  42.172  10.571   5.985
 3668POPC   C1A48939  42.442  10.305   6.327
 3668POPC   D2A48940  42.185  10.408   6.692
 3668POPC   C3A48941  42.338  10.200   7.066
 3668POPC   C4A48942  42.503  10.252   7.499
 3668POPC   C1B48943  42.529  10.776   6.154
 3668POPC   C2B48944  42.643  10.825   6.591
 3668POPC   C3B48945  42.540  10.650   6.975
 3668POPC   C4B48946  42.181  10.651   7.250
 3669POPC   NC348947  44.237  18.505   5.511
 3669POPC   PO448948  44.906  18.129   5.480
 3669POPC   GL148949  44.615  18.255   5.810
 3669POPC   GL248950  44.612  18.602   5.850
 3669POPC   C1A48951  44.663  18.289   6.261
 3669POPC   D2A48952  44.883  18.038   6.494
 3669POPC   C3A48953  44.817  17.987   6.914
 3669POPC   C4A48954  44.611  18.197   7.180
 3669POPC   C1B48955  44.559  18.776   6.270
 3669POPC   C2B48956  44.589  18.630   6.727
 3669POPC   C3B48957  44.623  18.694   7.192
 3669POPC   C4B48958  44.863  18.469   7.554
 3670POPC   NC348959   8.873   9.672   5.235
 3670POPC   PO448960   9.352  10.067   5.391
 3670POPC   GL148961   9.210   9.815   5.774
 3670POPC   GL248962   8.820   9.800   5.788
 3670POPC   C1A48963   9.056   9.797   6.225
 3670POPC   D2A48964   8.725   9.880   6.524
 3670POPC   C3A48965   8.952   9.843   6.879
 3670POPC   C4A48966   9.040   9.694   7.281
 3670POPC   C1B48967   8.630   9.520   6.167
 3670POPC   C2B48968   8.457   9.432   6.602
 3670POPC   C3B48969   8.551   9.570   7.051
 3670POPC   C4B48970   8.655   9.498   7.505
 3671POPC   NC348971   0.638  44.058   5.351
 3671POPC   PO448972   0.313  43.454   5.473
 3671POPC   GL148973   0.574  43.737   5.751
 3671POPC   GL248974   0.735  44.116   5.835
 3671POPC   C1A48975   0.482  43.855   6.177
 3671POPC   D2A48976   0.717  43.942   6.563
 3671POPC   C3A48977   0.540  43.815   6.963
 3671POPC   C4A48978   0.877  43.572   7.146
 3671POPC   C1B48979   0.623  44.331   6.239
 3671POPC   C2B48980   0.427  44.349   6.641
 3671POPC   C3B48981   0.695  44.283   6.991
 3671POPC   C4B48982   0.639  44.111   7.424
 3672POPC   NC348983  24.803  16.158   5.318
 3672POPC   PO448984  25.481  16.103   5.401
 3672POPC   GL148985  25.198  16.152   5.757
 3672POPC   GL248986  25.010  15.874   5.722
 3672POPC   C1A48987  25.309  16.078   6.197
 3672POPC   D2A48988  25.325  15.812   6.567
 3672POPC   C3A48989  25.422  15.978   6.973
 3672POPC   C4A48990  25.262  15.677   7.258
 3672POPC   C1B48991  24.857  15.815   6.133
 3672POPC   C2B48992  24.837  16.021   6.494
 3672POPC   C3B48993  24.906  15.903   6.891
 3672POPC   C4B48994  25.004  16.150   7.240
 3673POPC   NC348995  18.472  39.550   5.592
 3673POPC   PO448996  18.141  38.975   5.423
 3673POPC   GL148997  18.268  39.113   5.820
 3673POPC   GL248998  17.912  39.040   5.882
 3673POPC   C1A48999  18.551  39.318   6.181
 3673POPC   D2A49000  18.841  39.255   6.514
 3673POPC   C3A49001  18.704  39.427   6.893
 3673POPC   C4A49002  18.662  39.363   7.313
 3673POPC   C1B49003  18.085  39.169   6.295
 3673POPC   C2B49004  18.375  39.031   6.611
 3673POPC   C3B49005  18.327  39.099   7.026
 3673POPC   C4B49006  18.030  39.036   7.334
 3674POPC   NC349007  35.015  20.053   5.445
 3674POPC   PO449008  35.732  20.101   5.498
 3674POPC   GL149009  35.418  19.943   5.726
 3674POPC   GL249010  35.336  19.637   5.540
 3674POPC   C1A49011  35.219  20.056   6.107
 3674POPC   D2A49012  35.316  20.048   6.548
 3674POPC   C3A49013  35.061  20.078   6.925
 3674POPC   C4A49014  35.344  20.196   7.294
 3674POPC   C1B49015  35.280  19.525   5.966
 3674POPC   C2B49016  35.214  19.526   6.384
 3674POPC   C3B49017  35.124  19.567   6.789
 3674POPC   C4B49018  35.278  19.704   7.178
 3675POPC   NC349019  29.076  23.089   5.217
 3675POPC   PO449020  29.654  23.098   5.592
 3675POPC   GL149021  29.227  22.977   5.822
 3675POPC   GL249022  28.955  23.251   6.027
 3675POPC   C1A49023  29.171  22.889   6.259
 3675POPC   D2A49024  29.226  23.213   6.547
 3675POPC   C3A49025  29.297  23.106   6.951
 3675POPC   C4A49026  29.054  22.836   7.191
 3675POPC   C1B49027  28.730  23.152   6.390
 3675POPC   C2B49028  28.771  23.081   6.835
 3675POPC   C3B49029  28.878  23.304   7.233
 3675POPC   C4B49030  28.664  23.353   7.667
 3676POPC   NC349031   6.838   3.559   5.601
 3676POPC   PO449032   7.510   3.648   5.290
 3676POPC   GL149033   7.443   3.528   5.723
 3676POPC   GL249034   7.270   3.809   5.857
 3676POPC   C1A49035   7.663   3.647   6.134
 3676POPC   D2A49036   7.854   3.623   6.544
 3676POPC   C3A49037   7.655   3.380   6.858
 3676POPC   C4A49038   7.336   3.402   7.165
 3676POPC   C1B49039   7.165   3.769   6.281
 3676POPC   C2B49040   6.941   3.671   6.649
 3676POPC   C3B49041   6.956   3.772   7.077
 3676POPC   C4B49042   7.052   3.702   7.498
 3677POPC   NC349043   1.337  41.903   5.459
 3677POPC   PO449044   0.978  41.323   5.375
 3677POPC   GL149045   1.063  41.559   5.776
 3677POPC   GL249046   1.437  41.581   5.830
 3677POPC   C1A49047   1.055  41.388   6.193
 3677POPC   D2A49048   1.238  41.417   6.602
 3677POPC   C3A49049   1.016  41.470   6.977
 3677POPC   C4A49050   1.187  41.558   7.377
 3677POPC   C1B49051   1.499  41.666   6.226
 3677POPC   C2B49052   1.500  41.870   6.599
 3677POPC   C3B49053   1.469  41.777   7.008
 3677POPC   C4B49054   1.509  41.965   7.408
 3678POPC   NC349055  26.002  40.285   5.506
 3678POPC   PO449056  25.688  39.806   5.582
 3678POPC   GL149057  25.934  39.945   5.913
 3678POPC   GL249058  25.751  40.219   5.933
 3678POPC   C1A49059  26.281  40.216   6.109
 3678POPC   D2A49060  26.375  40.313   6.573
 3678POPC   C3A49061  26.022  40.157   6.880
 3678POPC   C4A49062  25.982  39.819   7.237
 3678POPC   C1B49063  25.861  40.323   6.349
 3678POPC   C2B49064  25.701  40.577   6.663
 3678POPC   C3B49065  25.449  40.410   6.977
 3678POPC   C4B49066  25.648  40.177   7.265
 3679POPC   NC349067  23.132  27.841   5.531
 3679POPC   PO449068  22.549  27.740   5.717
 3679POPC   GL149069  22.889  27.558   5.919
 3679POPC   GL249070  22.961  27.875   6.016
 3679POPC   C1A49071  23.061  27.510   6.354
 3679POPC   D2A49072  22.957  27.606   6.789
 3679POPC   C3A49073  23.264  27.528   7.082
 3679POPC   C4A49074  23.236  27.454   7.544
 3679POPC   C1B49075  22.619  27.789   6.332
 3679POPC   C2B49076  22.515  27.835   6.717
 3679POPC   C3B49077  22.608  27.874   7.102
 3679POPC   C4B49078  22.988  27.886   7.305
 3680POPC   NC349079  32.709   4.092   5.331
 3680POPC   PO449080  33.243   4.411   5.003
 3680POPC   GL149081  33.243   4.481   5.578
 3680POPC   GL249082  32.922   4.304   5.763
 3680POPC   C1A49083  33.306   4.369   6.096
 3680POPC   D2A49084  33.317   4.157   6.546
 3680POPC   C3A49085  33.197   4.331   6.966
 3680POPC   C4A49086  32.884   4.463   7.292
 3680POPC   C1B49087  32.697   3.999   6.064
 3680POPC   C2B49088  32.808   4.078   6.492
 3680POPC   C3B49089  32.758   4.025   6.919
 3680POPC   C4B49090  32.522   4.078   7.275
 3681POPC   NC349091  27.497  37.259   5.004
 3681POPC   PO449092  27.447  36.666   5.268
 3681POPC   GL149093  27.505  36.788   5.719
 3681POPC   GL249094  27.735  36.543   5.842
 3681POPC   C1A49095  27.650  36.942   6.160
 3681POPC   D2A49096  27.771  36.715   6.554
 3681POPC   C3A49097  27.795  36.924   6.941
 3681POPC   C4A49098  27.605  37.198   7.239
 3681POPC   C1B49099  27.712  36.255   6.230
 3681POPC   C2B49100  27.858  36.195   6.663
 3681POPC   C3B49101  27.655  36.394   6.976
 3681POPC   C4B49102  27.559  36.649   7.319
 3682POPC   NC349103  10.511  30.328   5.312
 3682POPC   PO449104  10.729  29.622   5.367
 3682POPC   GL149105  10.553  29.761   5.760
 3682POPC   GL249106  10.738  30.033   5.914
 3682POPC   C1A49107  10.433  29.743   6.215
 3682POPC   D2A49108  10.216  29.915   6.581
 3682POPC   C3A49109  10.244  29.629   6.938
 3682POPC   C4A49110  10.377  29.669   7.364
 3682POPC   C1B49111  10.707  30.151   6.377
 3682POPC   C2B49112  10.692  30.004   6.835
 3682POPC   C3B49113  10.589  30.135   7.268
 3682POPC   C4B49114  10.680  30.383   7.652
 3683POPC   NC349115   6.347  38.421   5.189
 3683POPC   PO449116   5.752  38.190   5.313
 3683POPC   GL149117   5.975  38.395   5.643
 3683POPC   GL249118   5.828  38.614   5.849
 3683POPC   C1A49119   6.170  38.258   6.073
 3683POPC   D2A49120   6.252  38.363   6.519
 3683POPC   C3A49121   5.971  38.492   6.814
 3683POPC   C4A49122   5.932  38.366   7.206
 3683POPC   C1B49123   5.839  38.598   6.275
 3683POPC   C2B49124   5.846  38.916   6.568
 3683POPC   C3B49125   5.685  38.920   6.955
 3683POPC   C4B49126   5.698  38.795   7.387
 3684POPC   NC349127  38.761  14.759   5.577
 3684POPC   PO449128  38.925  14.083   5.367
 3684POPC   GL149129  39.061  14.333   5.747
 3684POPC   GL249130  39.396  14.454   5.850
 3684POPC   C1A49131  38.997  14.541   6.177
 3684POPC   D2A49132  39.108  14.423   6.596
 3684POPC   C3A49133  38.932  14.607   6.953
 3684POPC   C4A49134  39.087  14.927   7.215
 3684POPC   C1B49135  39.499  14.675   6.269
 3684POPC   C2B49136  39.662  14.768   6.712
 3684POPC   C3B49137  39.508  14.643   7.145
 3684POPC   C4B49138  39.364  14.685   7.613
 3685POPC   NC349139  27.822  37.120   5.485
 3685POPC   PO449140  28.420  36.838   5.462
 3685POPC   GL149141  28.403  36.799   5.869
 3685POPC   GL249142  28.083  36.920   5.878
 3685POPC   C1A49143  28.440  36.947   6.317
 3685POPC   D2A49144  28.269  37.052   6.726
 3685POPC   C3A49145  28.504  36.961   7.117
 3685POPC   C4A49146  28.453  36.935   7.593
 3685POPC   C1B49147  28.104  36.579   6.191
 3685POPC   C2B49148  28.272  36.513   6.573
 3685POPC   C3B49149  28.176  36.589   6.971
 3685POPC   C4B49150  28.024  36.409   7.312
 3686POPC   NC349151  29.722  29.339   5.431
 3686POPC   PO449152  30.287  28.988   5.619
 3686POPC   GL149153  29.845  29.023   5.827
 3686POPC   GL249154  29.755  29.381   5.945
 3686POPC   C1A49155  29.658  28.973   6.243
 3686POPC   D2A49156  29.859  28.943   6.637
 3686POPC   C3A49157  29.906  29.272   6.953
 3686POPC   C4A49158  29.894  29.049   7.348
 3686POPC   C1B49159  30.070  29.287   6.280
 3686POPC   C2B49160  30.341  29.269   6.662
 3686POPC   C3B49161  30.318  29.580   7.024
 3686POPC   C4B49162  30.131  29.484   7.426
 3687POPC   NC349163  34.865   5.436   5.710
 3687POPC   PO449164  35.392   5.077   5.395
 3687POPC   GL149165  35.297   5.170   5.819
 3687POPC   GL249166  35.026   4.987   5.866
 3687POPC   C1A49167  35.139   5.229   6.275
 3687POPC   D2A49168  35.335   5.086   6.617
 3687POPC   C3A49169  35.274   5.296   6.974
 3687POPC   C4A49170  35.627   5.355   7.218
 3687POPC   C1B49171  35.142   4.743   6.248
 3687POPC   C2B49172  35.011   4.692   6.648
 3687POPC   C3B49173  35.232   4.798   7.036
 3687POPC   C4B49174  35.340   4.998   7.437
 3688POPC   NC349175  25.083  41.626   5.365
 3688POPC   PO449176  25.468  41.247   5.630
 3688POPC   GL149177  25.396  41.681   5.823
 3688POPC   GL249178  25.049  41.791   5.840
 3688POPC   C1A49179  25.383  41.860   6.256
 3688POPC   D2A49180  25.423  41.608   6.621
 3688POPC   C3A49181  25.319  41.720   7.059
 3688POPC   C4A49182  25.550  41.512   7.390
 3688POPC   C1B49183  24.950  41.548   6.224
 3688POPC   C2B49184  24.893  41.631   6.668
 3688POPC   C3B49185  24.829  41.551   7.098
 3688POPC   C4B49186  25.052  41.519   7.464
 3689POPC   NC349187  11.717  32.233   5.474
 3689POPC   PO449188  12.335  31.876   5.302
 3689POPC   GL149189  12.185  32.270   5.668
 3689POPC   GL249190  12.139  32.117   6.012
 3689POPC   C1A49191  12.031  32.598   6.040
 3689POPC   D2A49192  11.941  32.631   6.524
 3689POPC   C3A49193  12.216  32.630   6.917
 3689POPC   C4A49194  12.153  32.406   7.322
 3689POPC   C1B49195  11.828  31.906   6.301
 3689POPC   C2B49196  11.972  31.790   6.711
 3689POPC   C3B49197  11.953  32.161   6.927
 3689POPC   C4B49198  11.643  32.341   7.154
 3690POPC   NC349199   1.665   7.412   5.584
 3690POPC   PO449200   2.193   7.164   5.270
 3690POPC   GL149201   2.164   7.263   5.736
 3690POPC   GL249202   2.074   7.626   5.850
 3690POPC   C1A49203   1.976   7.188   6.152
 3690POPC   D2A49204   1.958   7.419   6.532
 3690POPC   C3A49205   1.819   7.177   6.882
 3690POPC   C4A49206   1.714   6.934   7.187
 3690POPC   C1B49207   2.182   7.866   6.243
 3690POPC   C2B49208   2.063   7.929   6.685
 3690POPC   C3B49209   1.887   7.660   6.974
 3690POPC   C4B49210   1.955   7.491   7.380
 3691POPC   NC349211  38.934  43.744   5.581
 3691POPC   PO449212  39.184  44.359   5.496
 3691POPC   GL149213  39.220  44.093   5.893
 3691POPC   GL249214  39.277  43.730   5.991
 3691POPC   C1A49215  39.228  44.093   6.340
 3691POPC   D2A49216  39.052  44.318   6.651
 3691POPC   C3A49217  39.285  44.098   6.908
 3691POPC   C4A49218  39.393  44.127   7.344
 3691POPC   C1B49219  38.884  43.729   6.269
 3691POPC   C2B49220  38.853  43.855   6.730
 3691POPC   C3B49221  39.014  43.811   7.200
 3691POPC   C4B49222  39.263  43.633   7.560
 3692POPC   NC349223  13.185   3.105   5.722
 3692POPC   PO449224  13.476   3.561   5.250
 3692POPC   GL149225  13.553   3.457   5.696
 3692POPC   GL249226  13.724   3.700   5.783
 3692POPC   C1A49227  13.645   3.378   6.182
 3692POPC   D2A49228  13.569   3.214   6.622
 3692POPC   C3A49229  13.508   3.456   7.000
 3692POPC   C4A49230  13.847   3.731   7.132
 3692POPC   C1B49231  13.425   3.832   6.146
 3692POPC   C2B49232  13.431   3.827   6.609
 3692POPC   C3B49233  13.394   3.959   7.032
 3692POPC   C4B49234  13.473   3.837   7.453
 3693POPC   NC349235  40.079  22.015   5.515
 3693POPC   PO449236  40.484  22.550   5.514
 3693POPC   GL149237  40.285  22.316   5.883
 3693POPC   GL249238  39.910  22.300   5.940
 3693POPC   C1A49239  40.234  21.979   6.183
 3693POPC   D2A49240  40.228  21.925   6.610
 3693POPC   C3A49241  40.168  22.282   6.908
 3693POPC   C4A49242  40.256  22.317   7.348
 3693POPC   C1B49243  39.775  22.165   6.369
 3693POPC   C2B49244  39.771  21.967   6.796
 3693POPC   C3B49245  39.846  21.966   7.235
 3693POPC   C4B49246  39.688  21.755   7.622
 3694POPC   NC349247  10.104   2.081   5.091
 3694POPC   PO449248   9.608   1.681   5.312
 3694POPC   GL149249   9.724   1.897   5.694
 3694POPC   GL249250  10.069   1.848   5.628
 3694POPC   C1A49251   9.696   2.141   6.100
 3694POPC   D2A49252   9.778   2.051   6.527
 3694POPC   C3A49253   9.689   2.234   6.918
 3694POPC   C4A49254   9.673   1.918   7.221
 3694POPC   C1B49255  10.143   1.846   6.098
 3694POPC   C2B49256  10.151   1.688   6.531
 3694POPC   C3B49257  10.068   1.854   6.926
 3694POPC   C4B49258  10.123   2.190   7.223
 3695POPC   NC349259   6.326  42.527   5.039
 3695POPC   PO449260   6.817  42.213   5.338
 3695POPC   GL149261   6.665  42.348   5.733
 3695POPC   GL249262   6.351  42.249   5.696
 3695POPC   C1A49263   6.788  42.409   6.155
 3695POPC   D2A49264   6.998  42.332   6.539
 3695POPC   C3A49265   6.801  42.348   6.944
 3695POPC   C4A49266   6.643  42.559   7.306
 3695POPC   C1B49267   6.411  42.048   6.106
 3695POPC   C2B49268   6.567  42.046   6.504
 3695POPC   C3B49269   6.368  42.100   6.879
 3695POPC   C4B49270   6.463  42.068   7.267
 3696POPC   NC349271  11.103  20.510   5.240
 3696POPC   PO449272  11.474  21.034   5.482
 3696POPC   GL149273  11.430  20.618   5.651
 3696POPC   GL249274  11.136  20.761   5.801
 3696POPC   C1A49275  11.444  20.420   6.062
 3696POPC   D2A49276  11.286  20.626   6.462
 3696POPC   C3A49277  11.512  20.590   6.856
 3696POPC   C4A49278  11.516  20.798   7.242
 3696POPC   C1B49279  10.879  20.908   6.168
 3696POPC   C2B49280  10.902  21.023   6.615
 3696POPC   C3B49281  11.110  21.060   7.026
 3696POPC   C4B49282  10.943  21.143   7.484
 3697POPC   NC349283   1.286  12.113   5.223
 3697POPC   PO449284   0.806  12.307   5.648
 3697POPC   GL149285   1.163  12.053   5.786
 3697POPC   GL249286   1.513  12.106   5.690
 3697POPC   C1A49287   1.267  11.919   6.215
 3697POPC   D2A49288   1.058  11.886   6.597
 3697POPC   C3A49289   1.266  11.992   6.940
 3697POPC   C4A49290   1.154  11.998   7.328
 3697POPC   C1B49291   1.540  12.323   6.095
 3697POPC   C2B49292   1.461  12.303   6.533
 3697POPC   C3B49293   1.534  12.474   6.926
 3697POPC   C4B49294   1.259  12.501   7.232
 3698POPC   NC349295  42.946   8.353   5.428
 3698POPC   PO449296  43.454   7.920   5.437
 3698POPC   GL149297  43.334   8.206   5.794
 3698POPC   GL249298  42.993   8.104   5.916
 3698POPC   C1A49299  43.417   8.207   6.263
 3698POPC   D2A49300  43.316   8.042   6.697
 3698POPC   C3A49301  43.163   8.371   6.974
 3698POPC   C4A49302  43.161   8.451   7.432
 3698POPC   C1B49303  42.900   8.123   6.384
 3698POPC   C2B49304  42.705   8.257   6.802
 3698POPC   C3B49305  42.735   8.168   7.256
 3698POPC   C4B49306  42.750   7.918   7.659
 3699POPC   NC349307  35.083  31.244   5.410
 3699POPC   PO449308  35.553  31.658   5.333
 3699POPC   GL149309  35.423  31.489   5.705
 3699POPC   GL249310  35.156  31.709   5.680
 3699POPC   C1A49311  35.438  31.246   6.069
 3699POPC   D2A49312  35.255  31.308   6.458
 3699POPC   C3A49313  35.487  31.221   6.836
 3699POPC   C4A49314  35.303  31.360   7.207
 3699POPC   C1B49315  35.046  31.640   6.079
 3699POPC   C2B49316  35.064  31.784   6.486
 3699POPC   C3B49317  35.037  31.663   6.890
 3699POPC   C4B49318  35.035  31.824   7.304
 3700POPC   NC349319  14.593  21.790   5.217
 3700POPC   PO449320  14.150  21.337   5.330
 3700POPC   GL149321  14.262  21.506   5.745
 3700POPC   GL249322  14.641  21.570   5.682
 3700POPC   C1A49323  14.089  21.585   6.195
 3700POPC   D2A49324  14.033  21.625   6.668
 3700POPC   C3A49325  14.245  21.294   6.919
 3700POPC   C4A49326  14.447  21.288   7.314
 3700POPC   C1B49327  14.603  21.634   6.117
 3700POPC   C2B49328  14.508  21.444   6.510
 3700POPC   C3B49329  14.636  21.610   6.919
 3700POPC   C4B49330  14.714  21.902   7.264
 3701POPC   NC349331  34.396  40.398   5.346
 3701POPC   PO449332  34.806  40.921   5.312
 3701POPC   GL149333  34.551  40.845   5.740
 3701POPC   GL249334  34.369  40.529   5.829
 3701POPC   C1A49335  34.377  40.915   6.191
 3701POPC   D2A49336  34.559  41.045   6.597
 3701POPC   C3A49337  34.701  40.740   6.914
 3701POPC   C4A49338  34.524  40.751   7.308
 3701POPC   C1B49339  34.510  40.404   6.218
 3701POPC   C2B49340  34.359  40.465   6.635
 3701POPC   C3B49341  34.340  40.318   7.061
 3701POPC   C4B49342  34.414  40.322   7.532
 3702POPC   NC349343   2.961  18.339   5.423
 3702POPC   PO449344   2.464  17.937   5.588
 3702POPC   GL149345   2.782  18.112   5.840
 3702POPC   GL249346   2.543  18.409   5.837
 3702POPC   C1A49347   2.872  18.374   6.218
 3702POPC   D2A49348   2.584  18.426   6.578
 3702POPC   C3A49349   2.795  18.240   6.922
 3702POPC   C4A49350   2.908  18.363   7.327
 3702POPC   C1B49351   2.438  18.085   6.209
 3702POPC   C2B49352   2.503  17.918   6.638
 3702POPC   C3B49353   2.349  18.013   7.072
 3702POPC   C4B49354   2.497  18.106   7.504
 3703POPC   NC349355  23.170  19.867   5.117
 3703POPC   PO449356  22.791  19.375   5.439
 3703POPC   GL149357  22.823  19.510   5.913
 3703POPC   GL249358  23.107  19.730   5.886
 3703POPC   C1A49359  22.885  19.572   6.374
 3703POPC   D2A49360  23.191  19.756   6.623
 3703POPC   C3A49361  23.020  19.835   7.026
 3703POPC   C4A49362  22.747  19.562   7.277
 3703POPC   C1B49363  22.937  20.033   6.190
 3703POPC   C2B49364  22.806  20.109   6.622
 3703POPC   C3B49365  22.794  20.305   7.047
 3703POPC   C4B49366  22.832  20.125   7.429
 3704POPC   NC349367  26.008  17.285   5.397
 3704POPC   PO449368  26.388  17.756   5.568
 3704POPC   GL149369  26.029  17.560   5.839
 3704POPC   GL249370  25.937  17.174   5.873
 3704POPC   C1A49371  25.892  17.494   6.267
 3704POPC   D2A49372  26.076  17.652   6.604
 3704POPC   C3A49373  25.880  17.587   6.959
 3704POPC   C4A49374  26.128  17.711   7.293
 3704POPC   C1B49375  26.089  17.004   6.260
 3704POPC   C2B49376  26.035  17.129   6.685
 3704POPC   C3B49377  25.983  17.096   7.133
 3704POPC   C4B49378  26.238  17.172   7.546
 3705POPC   NC349379   6.902   2.019   5.520
 3705POPC   PO449380   6.371   2.440   5.450
 3705POPC   GL149381   6.540   2.250   5.800
 3705POPC   GL249382   6.876   2.380   5.902
 3705POPC   C1A49383   6.608   2.020   6.158
 3705POPC   D2A49384   6.572   2.114   6.571
 3705POPC   C3A49385   6.693   1.763   6.766
 3705POPC   C4A49386   6.907   1.693   7.101
 3705POPC   C1B49387   7.084   2.355   6.305
 3705POPC   C2B49388   7.114   2.488   6.731
 3705POPC   C3B49389   6.824   2.298   6.996
 3705POPC   C4B49390   6.900   2.114   7.381
 3706POPC   NC349391  31.779   4.122   5.616
 3706POPC   PO449392  32.367   4.430   5.335
 3706POPC   GL149393  32.235   4.297   5.758
 3706POPC   GL249394  32.467   4.430   5.961
 3706POPC   C1A49395  32.061   4.229   6.204
 3706POPC   D2A49396  32.313   4.314   6.558
 3706POPC   C3A49397  32.181   4.073   6.894
 3706POPC   C4A49398  32.062   4.255   7.286
 3706POPC   C1B49399  32.724   4.550   6.313
 3706POPC   C2B49400  32.730   4.535   6.790
 3706POPC   C3B49401  32.428   4.598   7.138
 3706POPC   C4B49402  32.385   4.480   7.606
 3707POPC   NC349403  19.626   2.801   5.533
 3707POPC   PO449404  19.789   2.188   5.505
 3707POPC   GL149405  19.969   2.462   5.846
 3707POPC   GL249406  20.107   2.822   5.765
 3707POPC   C1A49407  19.922   2.580   6.292
 3707POPC   D2A49408  19.696   2.905   6.506
 3707POPC   C3A49409  19.770   2.942   6.933
 3707POPC   C4A49410  19.867   2.725   7.294
 3707POPC   C1B49411  20.133   3.020   6.173
 3707POPC   C2B49412  20.257   2.942   6.599
 3707POPC   C3B49413  20.280   2.908   7.043
 3707POPC   C4B49414  20.030   3.226   7.296
 3708POPC   NC349415  32.854   3.380   5.420
 3708POPC   PO449416  33.165   4.025   5.427
 3708POPC   GL149417  33.040   3.756   5.751
 3708POPC   GL249418  33.101   3.388   5.848
 3708POPC   C1A49419  33.167   3.838   6.169
 3708POPC   D2A49420  33.121   3.656   6.562
 3708POPC   C3A49421  33.230   3.812   6.967
 3708POPC   C4A49422  32.964   3.820   7.351
 3708POPC   C1B49423  32.813   3.449   6.169
 3708POPC   C2B49424  32.790   3.229   6.552
 3708POPC   C3B49425  32.890   3.397   6.932
 3708POPC   C4B49426  32.755   3.258   7.291
 3709POPC   NC349427  39.608  44.112   5.549
 3709POPC   PO449428  40.085  43.775   5.185
 3709POPC   GL149429  40.131  43.781   5.697
 3709POPC   GL249430  39.806  43.749   5.846
 3709POPC   C1A49431  40.273  43.965   6.103
 3709POPC   D2A49432  40.401  43.905   6.533
 3709POPC   C3A49433  40.233  43.938   6.934
 3709POPC   C4A49434  40.469  43.789   7.257
 3709POPC   C1B49435  39.723  43.972   6.204
 3709POPC   C2B49436  39.725  44.121   6.606
 3709POPC   C3B49437  39.727  43.881   6.965
 3709POPC   C4B49438  39.719  43.705   7.339
 3710POPC   NC349439  23.051  33.360   5.054
 3710POPC   PO449440  22.981  33.905   5.386
 3710POPC   GL149441  22.929  33.763   5.796
 3710POPC   GL249442  23.168  33.987   5.909
 3710POPC   C1A49443  23.180  33.555   6.157
 3710POPC   D2A49444  23.226  33.561   6.603
 3710POPC   C3A49445  22.868  33.608   6.849
 3710POPC   C4A49446  22.982  33.563   7.249
 3710POPC   C1B49447  23.061  34.223   6.271
 3710POPC   C2B49448  22.907  34.074   6.653
 3710POPC   C3B49449  23.034  34.069   7.066
 3710POPC   C4B49450  23.108  34.339   7.432
 3711POPC   NC349451   1.926  13.417   5.352
 3711POPC   PO449452   2.044  14.006   5.618
 3711POPC   GL149453   1.898  13.606   5.825
 3711POPC   GL249454   2.123  13.291   5.828
 3711POPC   C1A49455   1.884  13.520   6.264
 3711POPC   D2A49456   2.029  13.819   6.598
 3711POPC   C3A49457   1.848  13.772   7.009
 3711POPC   C4A49458   1.936  13.701   7.475
 3711POPC   C1B49459   2.268  13.155   6.228
 3711POPC   C2B49460   2.208  13.332   6.645
 3711POPC   C3B49461   2.141  13.355   7.097
 3711POPC   C4B49462   2.346  13.396   7.488
 3712POPC   NC349463  33.290  44.379   5.396
 3712POPC   PO449464  33.005  44.960   5.428
 3712POPC   GL149465  33.008  44.641   5.751
 3712POPC   GL249466  33.363  44.664   5.813
 3712POPC   C1A49467  33.063  44.662   6.215
 3712POPC   D2A49468  33.257  44.568   6.591
 3712POPC   C3A49469  33.096  44.798   6.944
 3712POPC   C4A49470  32.920  44.752   7.354
 3712POPC   C1B49471  33.481  44.337   6.117
 3712POPC   C2B49472  33.649  44.204   6.529
 3712POPC   C3B49473  33.430  44.238   6.932
 3712POPC   C4B49474  33.305  44.437   7.317
 3713POPC   NC349475   5.488  10.635   5.552
 3713POPC   PO449476   4.911  10.516   5.280
 3713POPC   GL149477   5.008  10.709   5.728
 3713POPC   GL249478   5.024  10.359   5.805
 3713POPC   C1A49479   5.318  10.688   6.148
 3713POPC   D2A49480   5.336  10.456   6.539
 3713POPC   C3A49481   5.301  10.619   6.979
 3713POPC   C4A49482   5.095  10.698   7.399
 3713POPC   C1B49483   4.852  10.487   6.220
 3713POPC   C2B49484   4.838  10.417   6.672
 3713POPC   C3B49485   4.764  10.450   7.106
 3713POPC   C4B49486   4.736  10.281   7.527
 3714POPC   NC349487   9.414  23.773   5.477
 3714POPC   PO449488   9.954  23.942   5.008
 3714POPC   GL149489   9.898  23.671   5.479
 3714POPC   GL249490   9.869  23.938   5.722
 3714POPC   C1A49491   9.848  23.501   5.973
 3714POPC   D2A49492   9.622  23.457   6.395
 3714POPC   C3A49493   9.652  23.482   6.853
 3714POPC   C4A49494   9.445  23.573   7.258
 3714POPC   C1B49495   9.629  23.916   6.165
 3714POPC   C2B49496   9.533  23.975   6.609
 3714POPC   C3B49497   9.717  23.942   7.030
 3714POPC   C4B49498   9.847  23.874   7.449
 3715POPC   NC349499  44.442  15.045   5.382
 3715POPC   PO449500  44.830  15.550   5.397
 3715POPC   GL149501  44.740  15.266   5.749
 3715POPC   GL249502  44.447  15.478   5.761
 3715POPC   C1A49503  44.715  15.127   6.224
 3715POPC   D2A49504  44.845  15.008   6.686
 3715POPC   C3A49505  44.747  15.086   7.157
 3715POPC   C4A49506  44.704  14.908   7.601
 3715POPC   C1B49507  44.393  15.527   6.216
 3715POPC   C2B49508  44.471  15.365   6.640
 3715POPC   C3B49509  44.401  15.536   7.065
 3715POPC   C4B49510  44.207  15.649   7.446
 3716POPC   NC349511  29.724  31.730   5.339
 3716POPC   PO449512  30.218  31.280   5.342
 3716POPC   GL149513  30.002  31.472   5.713
 3716POPC   GL249514  30.009  31.177   5.927
 3716POPC   C1A49515  29.905  31.617   6.160
 3716POPC   D2A49516  30.066  31.437   6.528
 3716POPC   C3A49517  29.915  31.542   6.920
 3716POPC   C4A49518  29.855  31.270   7.265
 3716POPC   C1B49519  30.355  31.046   6.212
 3716POPC   C2B49520  30.439  30.948   6.661
 3716POPC   C3B49521  30.300  31.150   7.053
 3716POPC   C4B49522  30.274  31.173   7.531
 3717POPC   NC349523  21.924  24.047   5.288
 3717POPC   PO449524  22.217  23.433   5.433
 3717POPC   GL149525  21.939  23.598   5.744
 3717POPC   GL249526  21.955  23.970   5.784
 3717POPC   C1A49527  22.077  23.653   6.173
 3717POPC   D2A49528  22.236  23.905   6.508
 3717POPC   C3A49529  22.365  23.737   6.898
 3717POPC   C4A49530  22.592  23.997   7.180
 3717POPC   C1B49531  21.915  24.149   6.182
 3717POPC   C2B49532  21.724  24.240   6.577
 3717POPC   C3B49533  21.700  24.063   6.981
 3717POPC   C4B49534  21.890  23.681   7.090
 3718POPC   NC349535  23.641  27.561   5.153
 3718POPC   PO449536  24.096  27.156   5.479
 3718POPC   GL149537  23.719  27.387   5.815
 3718POPC   GL249538  23.489  27.688   5.843
 3718POPC   C1A49539  23.805  27.637   6.221
 3718POPC   D2A49540  23.985  27.609   6.613
 3718POPC   C3A49541  23.756  27.641   7.000
 3718POPC   C4A49542  23.669  27.332   7.299
 3718POPC   C1B49543  23.409  27.960   6.213
 3718POPC   C2B49544  23.422  27.845   6.652
 3718POPC   C3B49545  23.409  28.029   7.062
 3718POPC   C4B49546  23.474  27.900   7.502
 3719POPC   NC349547  43.786  41.808   5.283
 3719POPC   PO449548  44.399  41.639   5.513
 3719POPC   GL149549  44.070  41.646   5.770
 3719POPC   GL249550  43.971  41.985   5.730
 3719POPC   C1A49551  43.963  41.415   6.159
 3719POPC   D2A49552  44.191  41.330   6.563
 3719POPC   C3A49553  43.962  41.368   6.956
 3719POPC   C4A49554  43.542  41.377   7.128
 3719POPC   C1B49555  43.681  41.870   6.037
 3719POPC   C2B49556  43.740  41.774   6.455
 3719POPC   C3B49557  43.644  41.803   6.867
 3719POPC   C4B49558  43.852  41.786   7.250
 3720POPC   NC349559  28.412  10.274   5.548
 3720POPC   PO449560  28.090   9.632   5.532
 3720POPC   GL149561  28.424   9.639   5.870
 3720POPC   GL249562  28.719   9.784   5.722
 3720POPC   C1A49563  28.368   9.405   6.250
 3720POPC   D2A49564  28.177   9.560   6.605
 3720POPC   C3A49565  28.299   9.325   6.934
 3720POPC   C4A49566  28.371   9.527   7.265
 3720POPC   C1B49567  28.705  10.025   6.120
 3720POPC   C2B49568  28.759  10.031   6.582
 3720POPC   C3B49569  28.542   9.891   6.956
 3720POPC   C4B49570  28.725   9.869   7.372
 3721POPC   NC349571  38.437   6.126   4.974
 3721POPC   PO449572  38.269   5.835   5.514
 3721POPC   GL149573  38.286   6.035   5.893
 3721POPC   GL249574  38.533   6.160   6.142
 3721POPC   C1A49575  38.273   5.720   6.218
 3721POPC   D2A49576  38.358   5.505   6.603
 3721POPC   C3A49577  38.366   5.809   6.883
 3721POPC   C4A49578  38.265   5.872   7.258
 3721POPC   C1B49579  38.745   5.793   6.413
 3721POPC   C2B49580  38.826   5.581   6.832
 3721POPC   C3B49581  38.790   5.844   7.231
 3721POPC   C4B49582  38.926   5.942   7.653
 3722POPC   NC349583   8.946  19.442   5.483
 3722POPC   PO449584   9.163  18.855   5.295
 3722POPC   GL149585   9.007  18.884   5.752
 3722POPC   GL249586   8.852  19.208   5.920
 3722POPC   C1A49587   9.142  18.904   6.201
 3722POPC   D2A49588   8.989  19.175   6.518
 3722POPC   C3A49589   9.226  19.022   6.841
 3722POPC   C4A49590   9.053  18.809   7.144
 3722POPC   C1B49591   9.219  19.440   6.141
 3722POPC   C2B49592   9.292  19.598   6.567
 3722POPC   C3B49593   9.069  19.491   6.946
 3722POPC   C4B49594   9.170  19.282   7.294
 3723POPC   NC349595  37.830   9.289   5.399
 3723POPC   PO449596  37.340   8.788   5.367
 3723POPC   GL149597  37.664   8.828   5.686
 3723POPC   GL249598  37.588   9.174   5.819
 3723POPC   C1A49599  37.643   8.623   6.111
 3723POPC   D2A49600  37.924   8.583   6.476
 3723POPC   C3A49601  37.702   8.630   6.889
 3723POPC   C4A49602  37.843   8.771   7.323
 3723POPC   C1B49603  37.903   9.059   6.119
 3723POPC   C2B49604  38.040   9.082   6.561
 3723POPC   C3B49605  37.825   9.138   6.955
 3723POPC   C4B49606  37.725   9.314   7.366
 3724POPC   NC349607   8.325   4.616   5.509
 3724POPC   PO449608   8.748   4.193   5.365
 3724POPC   GL149609   8.413   4.043   5.710
 3724POPC   GL249610   8.023   3.964   5.705
 3724POPC   C1A49611   8.348   4.234   6.135
 3724POPC   D2A49612   8.153   4.497   6.486
 3724POPC   C3A49613   8.222   4.317   6.903
 3724POPC   C4A49614   8.297   4.450   7.341
 3724POPC   C1B49615   7.845   4.136   6.120
 3724POPC   C2B49616   7.785   4.140   6.575
 3724POPC   C3B49617   7.857   3.946   6.970
 3724POPC   C4B49618   8.127   3.970   7.282
 3725POPC   NC349619   3.996  24.288   5.386
 3725POPC   PO449620   4.502  24.744   5.499
 3725POPC   GL149621   4.379  24.477   5.824
 3725POPC   GL249622   4.042  24.554   5.836
 3725POPC   C1A49623   4.288  24.335   6.243
 3725POPC   D2A49624   4.511  24.444   6.592
 3725POPC   C3A49625   4.335  24.504   6.972
 3725POPC   C4A49626   4.292  24.306   7.344
 3725POPC   C1B49627   3.920  24.715   6.220
 3725POPC   C2B49628   3.964  24.595   6.640
 3725POPC   C3B49629   3.886  24.729   7.072
 3725POPC   C4B49630   3.908  24.655   7.509
 3726POPC   NC349631  19.488   1.085   5.451
 3726POPC   PO449632  19.792   1.611   5.138
 3726POPC   GL149633  19.930   1.373   5.580
 3726POPC   GL249634  19.699   1.313   5.852
 3726POPC   C1A49635  20.117   1.262   6.076
 3726POPC   D2A49636  19.922   1.322   6.507
 3726POPC   C3A49637  20.032   1.187   6.914
 3726POPC   C4A49638  20.134   0.936   7.258
 3726POPC   C1B49639  19.598   1.590   6.226
 3726POPC   C2B49640  19.688   1.780   6.602
 3726POPC   C3B49641  19.645   1.520   6.930
 3726POPC   C4B49642  19.687   1.288   7.291
 3727POPC   NC349643  40.615  10.376   5.441
 3727POPC   PO449644  41.151  10.696   5.255
 3727POPC   GL149645  40.914  10.701   5.697
 3727POPC   GL249646  40.922  10.334   5.868
 3727POPC   C1A49647  40.765  10.714   6.160
 3727POPC   D2A49648  40.956  10.411   6.482
 3727POPC   C3A49649  40.887  10.346   6.927
 3727POPC   C4A49650  40.815  10.729   7.152
 3727POPC   C1B49651  40.542  10.267   6.173
 3727POPC   C2B49652  40.491  10.044   6.581
 3727POPC   C3B49653  40.461  10.069   7.044
 3727POPC   C4B49654  40.614  10.310   7.389
 3728POPC   NC349655  25.705   8.247   5.628
 3728POPC   PO449656  25.106   7.952   5.510
 3728POPC   GL149657  25.278   8.117   5.934
 3728POPC   GL249658  25.380   8.466   5.946
 3728POPC   C1A49659  25.254   8.231   6.388
 3728POPC   D2A49660  25.082   8.422   6.751
 3728POPC   C3A49661  25.305   8.226   7.034
 3728POPC   C4A49662  25.372   7.802   7.124
 3728POPC   C1B49663  25.706   8.420   6.274
 3728POPC   C2B49664  25.642   8.418   6.702
 3728POPC   C3B49665  25.548   8.709   7.037
 3728POPC   C4B49666  25.532   8.728   7.503
 3729POPC   NC349667  17.520  10.264   5.214
 3729POPC   PO449668  17.496   9.567   5.351
 3729POPC   GL149669  17.475   9.910   5.670
 3729POPC   GL249670  17.285   9.642   5.835
 3729POPC   C1A49671  17.327  10.077   6.102
 3729POPC   D2A49672  17.276   9.893   6.552
 3729POPC   C3A49673  17.496  10.058   6.945
 3729POPC   C4A49674  17.576  10.012   7.392
 3729POPC   C1B49675  17.512   9.575   6.197
 3729POPC   C2B49676  17.482   9.399   6.596
 3729POPC   C3B49677  17.410   9.514   7.015
 3729POPC   C4B49678  17.768   9.531   7.271
 3730POPC   NC349679  26.587  31.505   5.317
 3730POPC   PO449680  27.104  31.158   5.664
 3730POPC   GL149681  26.900  31.429   5.950
 3730POPC   GL249682  26.559  31.509   5.827
 3730POPC   C1A49683  26.904  31.436   6.421
 3730POPC   D2A49684  27.044  31.300   6.840
 3730POPC   C3A49685  27.000  31.608   7.214
 3730POPC   C4A49686  26.988  32.036   7.439
 3730POPC   C1B49687  26.426  31.270   6.201
 3730POPC   C2B49688  26.412  31.438   6.628
 3730POPC   C3B49689  26.575  31.378   7.052
 3730POPC   C4B49690  26.888  31.099   7.287
 3731POPC   NC349691  36.486  34.179   5.559
 3731POPC   PO449692  35.868  34.079   5.742
 3731POPC   GL149693  36.268  33.848   5.937
 3731POPC   GL249694  36.350  33.494   5.847
 3731POPC   C1A49695  36.290  33.611   6.350
 3731POPC   D2A49696  36.074  33.766   6.727
 3731POPC   C3A49697  36.390  33.778   7.041
 3731POPC   C4A49698  36.505  34.130   7.283
 3731POPC   C1B49699  35.987  33.338   6.067
 3731POPC   C2B49700  35.978  33.136   6.474
 3731POPC   C3B49701  36.118  33.280   6.858
 3731POPC   C4B49702  35.960  33.529   7.196
 3732POPC   NC349703   3.202   1.668   5.523
 3732POPC   PO449704   2.667   1.954   5.194
 3732POPC   GL149705   2.710   1.872   5.661
 3732POPC   GL249706   2.665   1.500   5.655
 3732POPC   C1A49707   2.829   2.002   6.104
 3732POPC   D2A49708   3.035   2.162   6.506
 3732POPC   C3A49709   2.834   2.172   6.891
 3732POPC   C4A49710   2.661   2.013   7.244
 3732POPC   C1B49711   2.851   1.500   6.064
 3732POPC   C2B49712   3.038   1.663   6.425
 3732POPC   C3B49713   2.979   1.687   6.841
 3732POPC   C4B49714   3.017   1.673   7.273
 3733POPC   NC349715  28.080  25.436   5.581
 3733POPC   PO449716  28.271  24.879   5.412
 3733POPC   GL149717  28.296  24.889   5.847
 3733POPC   GL249718  28.330  25.250   5.967
 3733POPC   C1A49719  28.156  24.882   6.257
 3733POPC   D2A49720  28.293  25.223   6.506
 3733POPC   C3A49721  28.397  25.174   6.931
 3733POPC   C4A49722  28.455  24.864   7.247
 3733POPC   C1B49723  28.557  25.578   6.191
 3733POPC   C2B49724  28.709  25.509   6.606
 3733POPC   C3B49725  28.684  25.574   7.044
 3733POPC   C4B49726  28.441  25.539   7.423
 3734POPC   NC349727  44.855  43.489   5.506
 3734POPC   PO449728  44.578  44.050   5.150
 3734POPC   GL149729  44.706  43.979   5.604
 3734POPC   GL249730   0.067  43.909   5.735
 3734POPC   C1A49731  44.662  43.977   6.082
 3734POPC   D2A49732  44.449  44.003   6.508
 3734POPC   C3A49733  44.679  43.983   6.910
 3734POPC   C4A49734  44.628  43.673   7.224
 3734POPC   C1B49735   0.034  43.614   6.128
 3734POPC   C2B49736   0.037  43.800   6.540
 3734POPC   C3B49737   0.060  43.616   6.944
 3734POPC   C4B49738   0.119  43.867   7.305
 3735POPC   NC349739  17.766  42.238   5.275
 3735POPC   PO449740  17.224  42.608   5.250
 3735POPC   GL149741  17.406  42.423   5.650
 3735POPC   GL249742  17.765  42.443   5.760
 3735POPC   C1A49743  17.375  42.269   6.093
 3735POPC   D2A49744  17.319  42.076   6.502
 3735POPC   C3A49745  17.184  42.325   6.842
 3735POPC   C4A49746  17.194  42.373   7.290
 3735POPC   C1B49747  17.846  42.414   6.210
 3735POPC   C2B49748  17.803  42.170   6.600
 3735POPC   C3B49749  17.634  42.119   7.019
 3735POPC   C4B49750  17.720  42.385   7.380
 3736POPC   NC349751  10.107  32.735   5.382
 3736POPC   PO449752   9.866  33.382   5.339
 3736POPC   GL149753   9.875  33.132   5.717
 3736POPC   GL249754  10.069  33.367   5.869
 3736POPC   C1A49755   9.740  32.859   6.099
 3736POPC   D2A49756   9.688  32.939   6.572
 3736POPC   C3A49757  10.018  32.933   6.907
 3736POPC   C4A49758   9.840  32.937   7.350
 3736POPC   C1B49759   9.782  33.353   6.224
 3736POPC   C2B49760   9.947  33.410   6.639
 3736POPC   C3B49761   9.861  33.376   7.082
 3736POPC   C4B49762   9.798  33.408   7.552
 3737POPC   NC349763   8.719  11.613   5.547
 3737POPC   PO449764   9.059  11.019   5.305
 3737POPC   GL149765   8.863  11.112   5.725
 3737POPC   GL249766   8.508  11.007   5.682
 3737POPC   C1A49767   8.907  11.357   6.154
 3737POPC   D2A49768   9.177  11.515   6.537
 3737POPC   C3A49769   8.994  11.677   6.945
 3737POPC   C4A49770   9.091  11.474   7.343
 3737POPC   C1B49771   8.581  10.902   6.126
 3737POPC   C2B49772   8.776  11.048   6.547
 3737POPC   C3B49773   9.022  11.148   6.935
 3737POPC   C4B49774   8.889  11.007   7.368
 3738POPC   NC349775  15.549  30.943   5.391
 3738POPC   PO449776  15.227  30.322   5.482
 3738POPC   GL149777  15.326  30.655   5.791
 3738POPC   GL249778  15.038  30.865   5.887
 3738POPC   C1A49779  15.341  30.691   6.273
 3738POPC   D2A49780  15.324  30.395   6.657
 3738POPC   C3A49781  15.244  30.604   7.081
 3738POPC   C4A49782  15.253  30.917   7.452
 3738POPC   C1B49783  14.757  30.995   6.201
 3738POPC   C2B49784  14.911  30.875   6.634
 3738POPC   C3B49785  14.883  30.999   7.089
 3738POPC   C4B49786  14.777  31.042   7.544
 3739POPC   NC349787  24.806  24.312   5.415
 3739POPC   PO449788  24.070  24.374   5.386
 3739POPC   GL149789  24.349  24.401   5.800
 3739POPC   GL249790  24.637  24.172   5.861
 3739POPC   C1A49791  24.481  24.484   6.266
 3739POPC   D2A49792  24.457  24.273   6.705
 3739POPC   C3A49793  24.446  24.606   7.028
 3739POPC   C4A49794  24.752  24.840   7.271
 3739POPC   C1B49795  24.945  24.345   6.117
 3739POPC   C2B49796  24.988  24.658   6.428
 3739POPC   C3B49797  24.945  24.598   6.857
 3739POPC   C4B49798  24.858  24.327   7.177
 3740POPC   NC349799  23.647  15.530   5.535
 3740POPC   PO449800  23.686  16.204   5.450
 3740POPC   GL149801  23.770  15.978   5.800
 3740POPC   GL249802  23.977  15.697   5.896
 3740POPC   C1A49803  23.806  16.135   6.181
 3740POPC   D2A49804  23.960  16.172   6.563
 3740POPC   C3A49805  23.700  16.173   6.914
 3740POPC   C4A49806  23.786  16.231   7.357
 3740POPC   C1B49807  23.895  15.652   6.340
 3740POPC   C2B49808  23.893  15.705   6.793
 3740POPC   C3B49809  23.767  15.732   7.202
 3740POPC   C4B49810  23.352  15.621   7.393
 3741POPC   NC349811   9.548  21.042   5.360
 3741POPC   PO449812   9.920  20.470   5.455
 3741POPC   GL149813   9.833  20.760   5.823
 3741POPC   GL249814   9.472  20.839   5.835
 3741POPC   C1A49815   9.895  20.706   6.292
 3741POPC   D2A49816   9.757  20.510   6.686
 3741POPC   C3A49817   9.751  20.768   7.056
 3741POPC   C4A49818   9.701  20.531   7.412
 3741POPC   C1B49819   9.353  21.076   6.196
 3741POPC   C2B49820   9.490  20.963   6.611
 3741POPC   C3B49821   9.291  21.042   7.005
 3741POPC   C4B49822   9.577  21.234   7.269
 3742POPC   NC349823  34.717  43.297   5.409
 3742POPC   PO449824  34.274  42.954   5.170
 3742POPC   GL149825  34.526  42.900   5.636
 3742POPC   GL249826  34.365  42.768   5.942
 3742POPC   C1A49827  34.625  43.180   6.056
 3742POPC   D2A49828  34.793  43.204   6.504
 3742POPC   C3A49829  34.659  43.196   6.960
 3742POPC   C4A49830  34.951  43.053   7.285
 3742POPC   C1B49831  34.467  42.801   6.384
 3742POPC   C2B49832  34.231  43.018   6.711
 3742POPC   C3B49833  34.139  43.012   7.162
 3742POPC   C4B49834  34.159  42.809   7.605
 3743POPC   NC349835  40.156  39.789   5.455
 3743POPC   PO449836  39.886  40.449   5.368
 3743POPC   GL149837  39.901  40.127   5.716
 3743POPC   GL249838  39.607  39.950   5.796
 3743POPC   C1A49839  40.043  40.140   6.153
 3743POPC   D2A49840  40.254  40.161   6.564
 3743POPC   C3A49841  40.047  40.237   6.971
 3743POPC   C4A49842  40.215  39.982   7.334
 3743POPC   C1B49843  39.706  39.746   6.189
 3743POPC   C2B49844  39.806  39.893   6.597
 3743POPC   C3B49845  39.900  39.759   7.019
 3743POPC   C4B49846  39.680  40.045   7.318
 3744POPC   NC349847  24.438  27.968   5.184
 3744POPC   PO449848  24.702  28.534   5.470
 3744POPC   GL149849  24.530  28.381   5.832
 3744POPC   GL249850  24.174  28.429   5.750
 3744POPC   C1A49851  24.600  28.278   6.284
 3744POPC   D2A49852  24.760  28.215   6.717
 3744POPC   C3A49853  24.384  28.256   6.996
 3744POPC   C4A49854  24.306  28.142   7.435
 3744POPC   C1B49855  24.249  28.650   6.160
 3744POPC   C2B49856  24.418  28.668   6.636
 3744POPC   C3B49857  24.390  28.735   7.118
 3744POPC   C4B49858  24.052  28.612   7.449
 3745POPC   NC349859  43.787  20.917   4.841
 3745POPC   PO449860  44.000  21.285   5.420
 3745POPC   GL149861  44.016  21.497   5.809
 3745POPC   GL249862  44.108  21.213   5.942
 3745POPC   C1A49863  43.808  21.483   6.233
 3745POPC   D2A49864  43.907  21.638   6.650
 3745POPC   C3A49865  43.716  21.349   6.935
 3745POPC   C4A49866  43.474  21.353   7.350
 3745POPC   C1B49867  44.292  21.345   6.322
 3745POPC   C2B49868  44.406  21.406   6.734
 3745POPC   C3B49869  44.172  21.523   7.079
 3745POPC   C4B49870  43.991  21.216   7.323
 3746POPC   NC349871  22.425  31.254   5.404
 3746POPC   PO449872  22.204  31.850   5.578
 3746POPC   GL149873  22.170  31.466   5.850
 3746POPC   GL249874  22.424  31.213   5.903
 3746POPC   C1A49875  22.075  31.323   6.279
 3746POPC   D2A49876  22.042  31.360   6.707
 3746POPC   C3A49877  22.003  31.735   6.923
 3746POPC   C4A49878  21.958  31.647   7.328
 3746POPC   C1B49879  22.556  31.517   6.251
 3746POPC   C2B49880  22.480  31.619   6.721
 3746POPC   C3B49881  22.382  31.405   7.130
 3746POPC   C4B49882  22.335  31.111   7.487
 3747POPC   NC349883  34.617  35.921   5.331
 3747POPC   PO449884  34.609  36.616   5.422
 3747POPC   GL149885  34.373  36.332   5.710
 3747POPC   GL249886  34.508  35.977   5.837
 3747POPC   C1A49887  34.302  36.326   6.152
 3747POPC   D2A49888  34.179  36.059   6.485
 3747POPC   C3A49889  34.412  36.118   6.868
 3747POPC   C4A49890  34.293  36.228   7.275
 3747POPC   C1B49891  34.727  36.045   6.274
 3747POPC   C2B49892  34.860  35.904   6.711
 3747POPC   C3B49893  34.851  36.029   7.169
 3747POPC   C4B49894  34.821  35.864   7.587
 3748POPC   NC349895  39.848  11.602   5.414
 3748POPC   PO449896  40.330  11.165   5.478
 3748POPC   GL149897  39.999  11.252   5.796
 3748POPC   GL249898  39.905  10.939   5.969
 3748POPC   C1A49899  39.988  11.516   6.191
 3748POPC   D2A49900  40.191  11.409   6.605
 3748POPC   C3A49901  39.950  11.306   6.954
 3748POPC   C4A49902  39.889  11.501   7.359
 3748POPC   C1B49903  39.876  11.046   6.392
 3748POPC   C2B49904  39.588  11.003   6.724
 3748POPC   C3B49905  39.796  10.817   7.059
 3748POPC   C4B49906  39.974  10.968   7.410
 3749POPC   NC349907   8.769  39.644   5.385
 3749POPC   PO449908   9.368  39.293   5.326
 3749POPC   GL149909   9.135  39.340   5.700
 3749POPC   GL249910   9.296  39.665   5.768
 3749POPC   C1A49911   9.226  39.157   6.133
 3749POPC   D2A49912   9.020  38.995   6.507
 3749POPC   C3A49913   9.162  39.049   6.901
 3749POPC   C4A49914   8.874  39.348   7.103
 3749POPC   C1B49915   9.105  39.645   6.197
 3749POPC   C2B49916   9.005  39.521   6.610
 3749POPC   C3B49917   9.133  39.750   6.957
 3749POPC   C4B49918   9.218  39.652   7.367
 3750POPC   NC349919  19.260  15.642   5.552
 3750POPC   PO449920  19.926  15.687   5.415
 3750POPC   GL149921  19.687  15.851   5.785
 3750POPC   GL249922  19.567  16.196   5.786
 3750POPC   C1A49923  19.684  15.833   6.252
 3750POPC   D2A49924  19.993  15.990   6.613
 3750POPC   C3A49925  19.987  15.877   7.081
 3750POPC   C4A49926  19.629  15.661   7.273
 3750POPC   C1B49927  19.545  16.311   6.230
 3750POPC   C2B49928  19.493  16.142   6.617
 3750POPC   C3B49929  19.697  16.274   6.953
 3750POPC   C4B49930  19.573  16.316   7.315
 3751POPC   NC349931  11.316  30.916   5.393
 3751POPC   PO449932  10.955  30.425   5.122
 3751POPC   GL149933  11.337  30.432   5.540
 3751POPC   GL249934  11.708  30.542   5.644
 3751POPC   C1A49935  11.371  30.677   5.995
 3751POPC   D2A49936  11.240  30.727   6.442
 3751POPC   C3A49937  11.359  30.684   6.876
 3751POPC   C4A49938  11.123  30.598   7.290
 3751POPC   C1B49939  11.754  30.373   6.107
 3751POPC   C2B49940  11.652  30.358   6.577
 3751POPC   C3B49941  11.781  30.351   7.036
 3751POPC   C4B49942  11.638  30.707   7.294
 3752POPC   NC349943  19.709  21.612   5.332
 3752POPC   PO449944  19.830  20.975   5.435
 3752POPC   GL149945  19.717  21.265   5.778
 3752POPC   GL249946  19.894  21.625   5.805
 3752POPC   C1A49947  19.886  21.288   6.213
 3752POPC   D2A49948  19.999  21.480   6.618
 3752POPC   C3A49949  19.779  21.302   6.967
 3752POPC   C4A49950  19.693  21.145   7.403
 3752POPC   C1B49951  19.540  21.641   6.082
 3752POPC   C2B49952  19.480  21.644   6.512
 3752POPC   C3B49953  19.639  21.799   6.907
 3752POPC   C4B49954  19.487  21.607   7.260
 3753POPC   NC349955  42.593  12.888   5.433
 3753POPC   PO449956  41.889  12.906   5.383
 3753POPC   GL149957  42.167  12.819   5.729
 3753POPC   GL249958  42.232  13.155   5.764
 3753POPC   C1A49959  42.494  12.832   6.081
 3753POPC   D2A49960  42.575  13.066   6.449
 3753POPC   C3A49961  42.459  12.853   6.844
 3753POPC   C4A49962  42.489  12.969   7.270
 3753POPC   C1B49963  42.092  13.188   6.173
 3753POPC   C2B49964  42.069  13.071   6.593
 3753POPC   C3B49965  42.185  13.277   6.971
 3753POPC   C4B49966  42.100  13.260   7.437
 3754POPC   NC349967  39.551  27.635   5.595
 3754POPC   PO449968  38.881  27.842   5.365
 3754POPC   GL149969  38.838  27.676   5.797
 3754POPC   GL249970  39.118  27.509   5.825
 3754POPC   C1A49971  39.030  27.662   6.272
 3754POPC   D2A49972  39.296  27.697   6.646
 3754POPC   C3A49973  39.088  27.540   7.010
 3754POPC   C4A49974  38.936  27.559   7.446
 3754POPC   C1B49975  39.454  27.385   6.166
 3754POPC   C2B49976  39.699  27.339   6.535
 3754POPC   C3B49977  39.527  27.288   6.927
 3754POPC   C4B49978  39.460  27.421   7.358
 3755POPC   NC349979  14.388  26.274   5.490
 3755POPC   PO449980  14.552  26.925   5.163
 3755POPC   GL149981  14.528  26.820   5.600
 3755POPC   GL249982  14.644  26.528   5.826
 3755POPC   C1A49983  14.519  26.962   6.013
 3755POPC   D2A49984  14.489  27.002   6.474
 3755POPC   C3A49985  14.556  26.894   6.898
 3755POPC   C4A49986  14.390  26.999   7.295
 3755POPC   C1B49987  14.778  26.622   6.260
 3755POPC   C2B49988  14.682  26.470   6.651
 3755POPC   C3B49989  14.822  26.429   7.031
 3755POPC   C4B49990  14.764  26.662   7.332
 3756POPC   NC349991  44.327  25.825   5.351
 3756POPC   PO449992  43.668  26.166   5.344
 3756POPC   GL149993  44.001  26.082   5.660
 3756POPC   GL249994  43.780  25.858   5.778
 3756POPC   C1A49995  44.140  26.006   6.101
 3756POPC   D2A49996  43.921  25.891   6.483
 3756POPC   C3A49997  44.049  26.036   6.868
 3756POPC   C4A49998  43.852  26.055   7.269
 3756POPC   C1B49999  43.540  25.841   6.140
 3756POPC   C2B50000  43.433  25.697   6.525
 3756POPC   C3B50001  43.504  25.912   6.889
 3756POPC   C4B50002  43.463  25.674   7.241
 3757POPC   NC350003   8.565  15.524   5.422
 3757POPC   PO450004   9.070  15.082   5.467
 3757POPC   GL150005   9.019  15.258   5.849
 3757POPC   GL250006   8.653  15.203   5.837
 3757POPC   C1A50007   9.123  15.284   6.293
 3757POPC   D2A50008   8.811  15.106   6.568
 3757POPC   C3A50009   8.982  14.962   6.947
 3757POPC   C4A50010   9.129  15.220   7.282
 3757POPC   C1B50011   8.678  15.517   6.158
 3757POPC   C2B50012   8.576  15.588   6.582
 3757POPC   C3B50013   8.762  15.449   6.961
 3757POPC   C4B50014   8.626  15.152   7.257
 3758POPC   NC350015   4.229  36.556   5.444
 3758POPC   PO450016   3.760  36.242   5.511
 3758POPC   GL150017   4.090  36.320   5.885
 3758POPC   GL250018   4.485  36.404   5.886
 3758POPC   C1A50019   4.168  36.453   6.331
 3758POPC   D2A50020   4.364  36.531   6.745
 3758POPC   C3A50021   4.201  36.335   7.153
 3758POPC   C4A50022   4.010  35.929   7.367
 3758POPC   C1B50023   4.818  36.346   6.236
 3758POPC   C2B50024   4.872  36.473   6.689
 3758POPC   C3B50025   4.818  36.414   7.145
 3758POPC   C4B50026   4.654  36.455   7.575
 3759POPC   NC350027  26.352   3.606   5.403
 3759POPC   PO450028  25.765   3.294   5.356
 3759POPC   GL150029  25.930   3.536   5.690
 3759POPC   GL250030  26.220   3.389   5.890
 3759POPC   C1A50031  25.797   3.596   6.090
 3759POPC   D2A50032  25.928   3.303   6.438
 3759POPC   C3A50033  25.954   3.330   6.882
 3759POPC   C4A50034  25.972   3.168   7.325
 3759POPC   C1B50035  26.247   3.683   6.296
 3759POPC   C2B50036  26.043   3.843   6.688
 3759POPC   C3B50037  25.964   3.754   7.155
 3759POPC   C4B50038  26.210   3.582   7.501
 3760POPC   NC350039   4.877  33.796   5.526
 3760POPC   PO450040   5.523  33.782   5.409
 3760POPC   GL150041   5.424  33.701   5.862
 3760POPC   GL250042   5.106  33.882   5.987
 3760POPC   C1A50043   5.335  33.556   6.301
 3760POPC   D2A50044   5.090  33.816   6.586
 3760POPC   C3A50045   5.316  33.926   6.924
 3760POPC   C4A50046   5.360  33.808   7.322
 3760POPC   C1B50047   4.813  33.580   6.216
 3760POPC   C2B50048   4.866  33.358   6.638
 3760POPC   C3B50049   5.019  33.477   7.070
 3760POPC   C4B50050   4.865  33.728   7.428
 3761POPC   NC350051  20.120  32.835   5.040
 3761POPC   PO450052  19.766  33.277   5.519
 3761POPC   GL150053  19.988  33.023   5.804
 3761POPC   GL250054  19.687  33.073   6.014
 3761POPC   C1A50055  20.105  32.875   6.217
 3761POPC   D2A50056  19.898  32.907   6.591
 3761POPC   C3A50057  20.194  32.857   6.912
 3761POPC   C4A50058  20.050  32.867   7.301
 3761POPC   C1B50059  19.532  32.725   6.264
 3761POPC   C2B50060  19.485  32.552   6.687
 3761POPC   C3B50061  19.639  32.811   7.029
 3761POPC   C4B50062  19.558  33.250   7.079
 3762POPC   NC350063  44.513   6.928   5.657
 3762POPC   PO450064  44.269   6.280   5.364
 3762POPC   GL150065  44.153   6.511   5.730
 3762POPC   GL250066  44.201   6.222   5.911
 3762POPC   C1A50067  43.887   6.600   6.136
 3762POPC   D2A50068  43.714   6.606   6.593
 3762POPC   C3A50069  43.765   6.819   7.027
 3762POPC   C4A50070  43.910   6.675   7.446
 3762POPC   C1B50071  44.018   6.084   6.259
 3762POPC   C2B50072  44.029   6.216   6.658
 3762POPC   C3B50073  43.900   6.337   7.069
 3762POPC   C4B50074  43.997   6.156   7.482
 3763POPC   NC350075   2.264  43.494   5.595
 3763POPC   PO450076   1.763  44.027   5.389
 3763POPC   GL150077   1.898  43.999   5.819
 3763POPC   GL250078   1.968  43.655   5.976
 3763POPC   C1A50079   1.892  44.187   6.233
 3763POPC   D2A50080   1.828  44.365   6.641
 3763POPC   C3A50081   1.914  44.017   6.884
 3763POPC   C4A50082   2.013  43.975   7.293
 3763POPC   C1B50083   2.217  43.531   6.346
 3763POPC   C2B50084   2.354  43.796   6.705
 3763POPC   C3B50085   2.452  43.691   7.112
 3763POPC   C4B50086   2.499  43.262   7.255
 3764POPC   NC350087  17.768  39.357   5.430
 3764POPC   PO450088  17.328  38.782   5.473
 3764POPC   GL150089  17.302  38.938   5.865
 3764POPC   GL250090  17.436  39.259   5.802
 3764POPC   C1A50091  17.249  39.136   6.264
 3764POPC   D2A50092  17.065  39.423   6.547
 3764POPC   C3A50093  17.282  39.392   6.941
 3764POPC   C4A50094  17.426  38.970   7.129
 3764POPC   C1B50095  17.691  39.429   6.121
 3764POPC   C2B50096  17.641  39.358   6.545
 3764POPC   C3B50097  17.864  39.311   6.916
 3764POPC   C4B50098  17.681  39.382   7.295
 3765POPC   NC350099  41.100   1.407   5.291
 3765POPC   PO450100  40.673   0.898   5.497
 3765POPC   GL150101  40.776   1.047   5.882
 3765POPC   GL250102  41.113   0.873   5.874
 3765POPC   C1A50103  40.557   1.290   6.247
 3765POPC   D2A50104  40.339   1.155   6.649
 3765POPC   C3A50105  40.576   1.095   7.043
 3765POPC   C4A50106  40.629   1.409   7.366
 3765POPC   C1B50107  41.039   1.009   6.314
 3765POPC   C2B50108  40.892   1.275   6.649
 3765POPC   C3B50109  41.044   1.334   7.056
 3765POPC   C4B50110  40.995   1.069   7.425
 3766POPC   NC350111  22.002   4.717   5.692
 3766POPC   PO450112  21.842   4.040   5.529
 3766POPC   GL150113  22.122   4.208   5.831
 3766POPC   GL250114  22.462   4.293   5.674
 3766POPC   C1A50115  22.064   4.385   6.250
 3766POPC   D2A50116  22.051   4.166   6.635
 3766POPC   C3A50117  21.935   4.353   6.993
 3766POPC   C4A50118  21.581   4.558   7.107
 3766POPC   C1B50119  22.562   4.233   6.122
 3766POPC   C2B50120  22.474   4.482   6.512
 3766POPC   C3B50121  22.630   4.522   6.888
 3766POPC   C4B50122  22.354   4.547   7.213
 3767POPC   NC350123   7.695  26.482   5.520
 3767POPC   PO450124   7.229  26.988   5.273
 3767POPC   GL150125   7.219  26.791   5.755
 3767POPC   GL250126   7.139  27.142   5.798
 3767POPC   C1A50127   7.314  26.683   6.217
 3767POPC   D2A50128   7.475  27.025   6.527
 3767POPC   C3A50129   7.450  27.016   6.967
 3767POPC   C4A50130   7.646  26.693   7.220
 3767POPC   C1B50131   7.039  27.099   6.235
 3767POPC   C2B50132   7.015  27.225   6.668
 3767POPC   C3B50133   6.954  27.113   7.088
 3767POPC   C4B50134   6.873  26.977   7.519
 3768POPC   NC350135  41.001  13.668   5.185
 3768POPC   PO450136  40.382  13.693   5.457
 3768POPC   GL150137  40.773  13.703   5.731
 3768POPC   GL250138  40.960  13.374   5.652
 3768POPC   C1A50139  40.842  13.752   6.212
 3768POPC   D2A50140  40.703  13.471   6.571
 3768POPC   C3A50141  40.669  13.628   6.988
 3768POPC   C4A50142  40.762  13.997   7.197
 3768POPC   C1B50143  41.086  13.311   6.100
 3768POPC   C2B50144  41.212  13.505   6.509
 3768POPC   C3B50145  41.134  13.382   6.940
 3768POPC   C4B50146  40.907  13.388   7.367
 3769POPC   NC350147  21.681  39.801   5.393
 3769POPC   PO450148  22.375  39.906   5.395
 3769POPC   GL150149  22.164  40.115   5.724
 3769POPC   GL250150  22.430  40.347   5.836
 3769POPC   C1A50151  22.030  40.152   6.143
 3769POPC   D2A50152  22.132  40.301   6.545
 3769POPC   C3A50153  22.020  40.022   6.853
 3769POPC   C4A50154  22.056  40.136   7.247
 3769POPC   C1B50155  22.567  40.266   6.263
 3769POPC   C2B50156  22.498  39.952   6.619
 3769POPC   C3B50157  22.431  39.777   7.025
 3769POPC   C4B50158  22.605  39.425   7.171
 3770POPC   NC350159   8.003  10.916   5.496
 3770POPC   PO450160   8.276  11.521   5.597
 3770POPC   GL150161   7.969  11.324   5.834
 3770POPC   GL250162   8.096  11.037   5.983
 3770POPC   C1A50163   7.809  11.466   6.220
 3770POPC   D2A50164   7.817  11.722   6.591
 3770POPC   C3A50165   7.940  11.490   6.963
 3770POPC   C4A50166   8.152  11.522   7.342
 3770POPC   C1B50167   8.304  11.302   6.272
 3770POPC   C2B50168   8.307  11.251   6.694
 3770POPC   C3B50169   8.535  11.290   7.048
 3770POPC   C4B50170   8.378  10.998   7.317
 3771POPC   NC350171   6.943  34.761   5.448
 3771POPC   PO450172   6.221  34.463   5.522
 3771POPC   GL150173   6.577  34.622   5.788
 3771POPC   GL250174   6.858  34.372   5.818
 3771POPC   C1A50175   6.817  34.741   6.187
 3771POPC   D2A50176   7.116  34.750   6.538
 3771POPC   C3A50177   6.938  34.636   6.931
 3771POPC   C4A50178   6.573  34.843   7.129
 3771POPC   C1B50179   6.758  34.219   6.266
 3771POPC   C2B50180   6.798  34.163   6.718
 3771POPC   C3B50181   6.540  34.321   7.047
 3771POPC   C4B50182   6.710  34.454   7.407
 3772POPC   NC350183  44.106  30.244   5.377
 3772POPC   PO450184  43.764  30.897   5.314
 3772POPC   GL150185  43.740  30.905   5.761
 3772POPC   GL250186  43.450  31.053   5.872
 3772POPC   C1A50187  43.906  30.946   6.196
 3772POPC   D2A50188  43.929  30.689   6.577
 3772POPC   C3A50189  43.771  30.837   6.964
 3772POPC   C4A50190  43.752  30.625   7.315
 3772POPC   C1B50191  43.417  30.795   6.217
 3772POPC   C2B50192  43.404  30.895   6.605
 3772POPC   C3B50193  43.271  30.947   6.992
 3772POPC   C4B50194  43.443  31.014   7.390
 3773POPC   NC350195   3.682   9.392   5.241
 3773POPC   PO450196   4.104   8.945   5.497
 3773POPC   GL150197   3.692   8.984   5.739
 3773POPC   GL250198   3.926   9.083   5.957
 3773POPC   C1A50199   3.529   9.046   6.220
 3773POPC   D2A50200   3.780   9.068   6.595
 3773POPC   C3A50201   3.504   9.142   6.927
 3773POPC   C4A50202   3.337   8.874   7.204
 3773POPC   C1B50203   3.890   8.680   6.201
 3773POPC   C2B50204   3.709   8.527   6.598
 3773POPC   C3B50205   3.754   8.686   7.002
 3773POPC   C4B50206   3.756   8.711   7.455
 3774POPC   NC350207  23.891  18.503   5.465
 3774POPC   PO450208  23.661  17.917   5.087
 3774POPC   GL150209  23.676  18.026   5.615
 3774POPC   GL250210  23.535  18.355   5.803
 3774POPC   C1A50211  23.664  17.978   6.122
 3774POPC   D2A50212  23.425  17.969   6.542
 3774POPC   C3A50213  23.597  18.166   6.948
 3774POPC   C4A50214  23.839  18.064   7.325
 3774POPC   C1B50215  23.686  18.501   6.245
 3774POPC   C2B50216  23.625  18.629   6.728
 3774POPC   C3B50217  23.817  18.635   7.167
 3774POPC   C4B50218  23.828  18.476   7.607
 3775POPC   NC350219  25.957  28.014   5.499
 3775POPC   PO450220  26.443  27.571   5.379
 3775POPC   GL150221  26.179  27.507   5.745
 3775POPC   GL250222  26.031  27.767   5.946
 3775POPC   C1A50223  26.115  27.297   6.136
 3775POPC   D2A50224  26.018  27.125   6.532
 3775POPC   C3A50225  26.049  27.424   6.840
 3775POPC   C4A50226  26.190  27.371   7.228
 3775POPC   C1B50227  26.319  27.796   6.282
 3775POPC   C2B50228  26.387  27.800   6.716
 3775POPC   C3B50229  26.120  27.905   7.032
 3775POPC   C4B50230  25.845  27.733   7.313
 3776POPC   NC350231  24.399  39.808   5.471
 3776POPC   PO450232  24.893  40.316   5.516
 3776POPC   GL150233  24.569  40.173   5.765
 3776POPC   GL250234  24.303  40.358   5.776
 3776POPC   C1A50235  24.464  39.985   6.150
 3776POPC   D2A50236  24.566  40.084   6.575
 3776POPC   C3A50237  24.455  39.778   6.859
 3776POPC   C4A50238  24.267  39.823   7.243
 3776POPC   C1B50239  24.058  40.301   6.136
 3776POPC   C2B50240  24.132  40.432   6.549
 3776POPC   C3B50241  24.226  40.245   6.935
 3776POPC   C4B50242  24.413  40.350   7.327
 3777POPC   NC350243   2.081  44.384   5.403
 3777POPC   PO450244   1.626  44.672   5.646
 3777POPC   GL150245   1.938  44.636   5.941
 3777POPC   GL250246   2.207  44.427   5.903
 3777POPC   C1A50247   1.981  44.756   6.351
 3777POPC   D2A50248   1.841   0.024   6.662
 3777POPC   C3A50249   1.945  44.794   6.974
 3777POPC   C4A50250   1.804  44.436   7.153
 3777POPC   C1B50251   2.434  44.511   6.292
 3777POPC   C2B50252   2.329  44.374   6.710
 3777POPC   C3B50253   2.305  44.489   7.126
 3777POPC   C4B50254   2.346  44.678   7.555
 3778POPC   NC350255  42.347  35.201   5.240
 3778POPC   PO450256  42.358  35.772   5.684
 3778POPC   GL150257  42.439  35.496   5.936
 3778POPC   GL250258  42.399  35.184   5.763
 3778POPC   C1A50259  42.365  35.510   6.369
 3778POPC   D2A50260  42.164  35.321   6.686
 3778POPC   C3A50261  42.367  35.485   7.050
 3778POPC   C4A50262  42.241  35.390   7.463
 3778POPC   C1B50263  42.268  35.061   6.173
 3778POPC   C2B50264  42.508  34.967   6.562
 3778POPC   C3B50265  42.410  34.979   7.008
 3778POPC   C4B50266  41.980  35.086   7.135
 3779POPC   NC350267  15.122  26.186   5.264
 3779POPC   PO450268  15.608  25.811   5.362
 3779POPC   GL150269  15.379  26.066   5.692
 3779POPC   GL250270  14.989  26.111   5.729
 3779POPC   C1A50271  15.281  25.980   6.116
 3779POPC   D2A50272  15.189  25.769   6.489
 3779POPC   C3A50273  15.380  25.992   6.807
 3779POPC   C4A50274  15.209  26.117   7.177
 3779POPC   C1B50275  14.805  26.146   6.101
 3779POPC   C2B50276  14.641  26.022   6.434
 3779POPC   C3B50277  14.850  25.974   6.809
 3779POPC   C4B50278  14.750  25.945   7.229
 3780POPC   NC350279  30.690  19.029   5.244
 3780POPC   PO450280  30.922  19.574   5.453
 3780POPC   GL150281  30.681  19.220   5.717
 3780POPC   GL250282  30.797  18.876   5.777
 3780POPC   C1A50283  30.403  19.112   6.076
 3780POPC   D2A50284  30.233  19.235   6.466
 3780POPC   C3A50285  30.384  18.992   6.790
 3780POPC   C4A50286  30.384  19.133   7.198
 3780POPC   C1B50287  30.646  18.650   6.155
 3780POPC   C2B50288  30.457  18.543   6.560
 3780POPC   C3B50289  30.629  18.559   6.988
 3780POPC   C4B50290  30.662  18.756   7.419
 3781POPC   NC350291  16.027  31.663   4.889
 3781POPC   PO450292  15.869  31.308   5.430
 3781POPC   GL150293  15.805  31.279   5.899
 3781POPC   GL250294  15.512  31.104   5.976
 3781POPC   C1A50295  16.044  31.369   6.319
 3781POPC   D2A50296  16.252  31.418   6.730
 3781POPC   C3A50297  16.120  31.624   7.115
 3781POPC   C4A50298  16.180  31.595   7.589
 3781POPC   C1B50299  15.621  31.125   6.453
 3781POPC   C2B50300  15.703  31.397   6.827
 3781POPC   C3B50301  15.702  31.413   7.309
 3781POPC   C4B50302  15.607  31.245   7.749
 3782POPC   NC350303  27.515  33.016   5.246
 3782POPC   PO450304  28.115  32.780   5.425
 3782POPC   GL150305  27.811  33.077   5.700
 3782POPC   GL250306  27.409  33.117   5.739
 3782POPC   C1A50307  27.713  33.060   6.172
 3782POPC   D2A50308  27.768  32.848   6.599
 3782POPC   C3A50309  27.896  33.156   6.870
 3782POPC   C4A50310  27.855  33.279   7.265
 3782POPC   C1B50311  27.246  32.796   6.068
 3782POPC   C2B50312  27.260  32.746   6.543
 3782POPC   C3B50313  27.367  33.111   6.859
 3782POPC   C4B50314  27.331  33.276   7.283
 3783POPC   NC350315  33.343  27.823   5.425
 3783POPC   PO450316  33.526  27.246   5.699
 3783POPC   GL150317  33.819  27.572   5.891
 3783POPC   GL250318  34.134  27.761   5.740
 3783POPC   C1A50319  33.719  27.612   6.344
 3783POPC   D2A50320  33.731  27.280   6.693
 3783POPC   C3A50321  33.823  27.462   7.091
 3783POPC   C4A50322  33.646  27.905   7.103
 3783POPC   C1B50323  34.219  27.766   6.201
 3783POPC   C2B50324  34.141  27.659   6.645
 3783POPC   C3B50325  34.202  27.796   7.094
 3783POPC   C4B50326  34.298  27.545   7.460
 3784POPC   NC350327   3.547  14.952   5.228
 3784POPC   PO450328   3.705  15.557   5.436
 3784POPC   GL150329   3.537  15.339   5.808
 3784POPC   GL250330   3.545  14.983   5.801
 3784POPC   C1A50331   3.547  15.417   6.263
 3784POPC   D2A50332   3.780  15.517   6.654
 3784POPC   C3A50333   3.550  15.388   7.026
 3784POPC   C4A50334   3.340  15.469   7.465
 3784POPC   C1B50335   3.591  14.793   6.204
 3784POPC   C2B50336   3.548  14.990   6.609
 3784POPC   C3B50337   3.455  14.856   7.012
 3784POPC   C4B50338   3.543  15.031   7.395
 3785POPC   NC350339  33.007   9.210   5.048
 3785POPC   PO450340  33.182   8.868   5.628
 3785POPC   GL150341  33.080   8.824   6.011
 3785POPC   GL250342  32.741   8.662   5.973
 3785POPC   C1A50343  32.867   9.072   6.337
 3785POPC   D2A50344  32.977   9.351   6.633
 3785POPC   C3A50345  33.025   9.082   6.938
 3785POPC   C4A50346  33.111   9.263   7.300
 3785POPC   C1B50347  32.927   8.539   6.385
 3785POPC   C2B50348  32.805   8.476   6.803
 3785POPC   C3B50349  32.873   8.602   7.205
 3785POPC   C4B50350  33.274   8.797   7.306
 3786POPC   NC350351  24.436  36.821   5.240
 3786POPC   PO450352  24.749  37.394   5.192
 3786POPC   GL150353  24.654  37.072   5.625
 3786POPC   GL250354  24.395  36.831   5.777
 3786POPC   C1A50355  24.743  37.008   6.117
 3786POPC   D2A50356  24.647  36.728   6.481
 3786POPC   C3A50357  24.722  36.902   6.907
 3786POPC   C4A50358  24.590  36.997   7.349
 3786POPC   C1B50359  24.186  36.927   6.224
 3786POPC   C2B50360  24.178  36.887   6.714
 3786POPC   C3B50361  24.106  36.967   7.184
 3786POPC   C4B50362  24.089  37.051   7.651
 3787POPC   NC350363  39.106   4.097   5.647
 3787POPC   PO450364  39.403   4.402   5.237
 3787POPC   GL150365  39.355   4.519   5.751
 3787POPC   GL250366  39.611   4.423   5.974
 3787POPC   C1A50367  39.163   4.395   6.242
 3787POPC   D2A50368  39.212   4.321   6.760
 3787POPC   C3A50369  39.149   4.052   7.125
 3787POPC   C4A50370  39.353   3.694   7.348
 3787POPC   C1B50371  39.487   4.776   6.281
 3787POPC   C2B50372  39.545   4.799   6.764
 3787POPC   C3B50373  39.574   4.593   7.177
 3787POPC   C4B50374  39.602   4.174   7.319
 3788POPC   NC350375  22.871  24.343   5.419
 3788POPC   PO450376  22.620  24.867   5.680
 3788POPC   GL150377  22.810  24.615   5.928
 3788POPC   GL250378  23.166  24.493   5.829
 3788POPC   C1A50379  22.691  24.669   6.359
 3788POPC   D2A50380  22.666  24.336   6.664
 3788POPC   C3A50381  22.650  24.515   7.042
 3788POPC   C4A50382  22.720  24.394   7.442
 3788POPC   C1B50383  23.212  24.659   6.270
 3788POPC   C2B50384  23.065  24.691   6.715
 3788POPC   C3B50385  23.143  24.632   7.155
 3788POPC   C4B50386  23.465  24.785   7.412
 3789POPC   NC350387   3.594   1.023   5.424
 3789POPC   PO450388   3.834   1.598   5.515
 3789POPC   GL150389   3.838   1.254   5.834
 3789POPC   GL250390   3.489   1.115   5.910
 3789POPC   C1A50391   3.880   1.226   6.286
 3789POPC   D2A50392   3.874   1.449   6.693
 3789POPC   C3A50393   3.808   1.154   7.033
 3789POPC   C4A50394   3.504   0.834   7.165
 3789POPC   C1B50395   3.426   1.431   6.189
 3789POPC   C2B50396   3.361   1.318   6.633
 3789POPC   C3B50397   3.422   1.484   7.030
 3789POPC   C4B50398   3.378   1.285   7.363
 3790POPC   NC350399  13.836   7.175   5.421
 3790POPC   PO450400  13.456   7.649   5.099
 3790POPC   GL150401  13.447   7.465   5.604
 3790POPC   GL250402  13.268   7.619   5.871
 3790POPC   C1A50403  13.598   7.280   6.058
 3790POPC   D2A50404  13.793   7.382   6.494
 3790POPC   C3A50405  13.708   7.201   6.897
 3790POPC   C4A50406  13.515   7.381   7.246
 3790POPC   C1B50407  13.409   7.702   6.313
 3790POPC   C2B50408  13.333   7.511   6.721
 3790POPC   C3B50409  13.068   7.534   7.083
 3790POPC   C4B50410  13.131   7.544   7.563
 3791POPC   NC350411  23.150  12.765   5.350
 3791POPC   PO450412  22.557  12.427   5.571
 3791POPC   GL150413  22.729  12.601   5.910
 3791POPC   GL250414  22.985  12.815   5.953
 3791POPC   C1A50415  22.624  12.712   6.323
 3791POPC   D2A50416  22.971  12.790   6.606
 3791POPC   C3A50417  22.917  12.664   7.037
 3791POPC   C4A50418  22.790  12.586   7.433
 3791POPC   C1B50419  22.806  13.165   6.209
 3791POPC   C2B50420  22.683  13.259   6.607
 3791POPC   C3B50421  22.850  13.155   6.980
 3791POPC   C4B50422  22.849  13.113   7.399
 3792POPC   NC350423  36.192  20.148   5.399
 3792POPC   PO450424  36.245  19.436   5.351
 3792POPC   GL150425  36.186  19.737   5.692
 3792POPC   GL250426  35.864  19.732   5.831
 3792POPC   C1A50427  36.254  19.866   6.146
 3792POPC   D2A50428  36.100  20.004   6.571
 3792POPC   C3A50429  36.229  19.696   6.924
 3792POPC   C4A50430  36.174  19.679   7.400
 3792POPC   C1B50431  35.658  19.782   6.225
 3792POPC   C2B50432  35.660  19.684   6.672
 3792POPC   C3B50433  35.764  19.830   7.100
 3792POPC   C4B50434  35.681  19.603   7.486
 3793POPC   NC350435   9.298  38.093   5.452
 3793POPC   PO450436   9.809  37.633   5.403
 3793POPC   GL150437   9.605  37.568   5.798
 3793POPC   GL250438   9.512  37.918   5.884
 3793POPC   C1A50439   9.805  37.444   6.200
 3793POPC   D2A50440   9.807  37.501   6.644
 3793POPC   C3A50441   9.879  37.350   7.000
 3793POPC   C4A50442   9.561  37.518   7.257
 3793POPC   C1B50443   9.805  37.963   6.216
 3793POPC   C2B50444  10.013  37.987   6.630
 3793POPC   C3B50445   9.869  37.867   7.019
 3793POPC   C4B50446   9.501  38.087   7.172
 3794POPC   NC350447   4.708  16.039   5.486
 3794POPC   PO450448   5.230  15.651   5.585
 3794POPC   GL150449   5.118  16.001   5.849
 3794POPC   GL250450   4.777  16.163   5.948
 3794POPC   C1A50451   5.050  15.880   6.270
 3794POPC   D2A50452   5.179  16.076   6.617
 3794POPC   C3A50453   5.159  15.841   6.965
 3794POPC   C4A50454   5.174  16.053   7.323
 3794POPC   C1B50455   4.608  16.361   6.278
 3794POPC   C2B50456   4.775  16.415   6.648
 3794POPC   C3B50457   4.796  16.231   7.011
 3794POPC   C4B50458   4.686  16.189   7.434
 3795POPC   NC350459  36.574  34.890   5.330
 3795POPC   PO450460  36.931  34.336   5.521
 3795POPC   GL150461  36.874  34.250   5.932
 3795POPC   GL250462  36.558  34.270   6.068
 3795POPC   C1A50463  37.164  34.279   6.250
 3795POPC   D2A50464  37.281  34.638   6.489
 3795POPC   C3A50465  37.139  34.562   6.875
 3795POPC   C4A50466  37.159  34.656   7.287
 3795POPC   C1B50467  36.736  34.582   6.350
 3795POPC   C2B50468  36.658  34.766   6.759
 3795POPC   C3B50469  36.636  34.642   7.205
 3795POPC   C4B50470  36.461  34.696   7.641
 3796POPC   NC350471  10.540  31.108   5.469
 3796POPC   PO450472  10.843  30.453   5.638
 3796POPC   GL150473  10.460  30.623   5.752
 3796POPC   GL250474  10.305  30.285   5.789
 3796POPC   C1A50475  10.451  30.907   6.121
 3796POPC   D2A50476  10.289  30.748   6.521
 3796POPC   C3A50477  10.407  30.903   6.892
 3796POPC   C4A50478  10.612  30.701   7.237
 3796POPC   C1B50479  10.046  30.245   6.179
 3796POPC   C2B50480   9.946  30.377   6.607
 3796POPC   C3B50481  10.219  30.429   6.971
 3796POPC   C4B50482  10.196  30.465   7.432
 3797POPC   NC350483  41.772  20.690   5.298
 3797POPC   PO450484  42.205  20.977   5.576
 3797POPC   GL150485  41.788  20.782   5.801
 3797POPC   GL250486  41.945  20.529   5.982
 3797POPC   C1A50487  41.530  20.626   6.241
 3797POPC   D2A50488  41.340  20.658   6.697
 3797POPC   C3A50489  41.516  20.516   7.105
 3797POPC   C4A50490  41.347  20.581   7.540
 3797POPC   C1B50491  41.964  20.922   6.237
 3797POPC   C2B50492  41.979  20.994   6.672
 3797POPC   C3B50493  41.947  20.779   7.061
 3797POPC   C4B50494  41.699  20.934   7.411
 3798POPC   NC350495  37.759  24.671   5.406
 3798POPC   PO450496  37.285  24.236   5.596
 3798POPC   GL150497  37.584  24.465   5.844
 3798POPC   GL250498  37.670  24.830   5.869
 3798POPC   C1A50499  37.792  24.382   6.206
 3798POPC   D2A50500  37.471  24.390   6.535
 3798POPC   C3A50501  37.599  24.375   6.953
 3798POPC   C4A50502  37.910  24.234   7.253
 3798POPC   C1B50503  37.853  24.877   6.271
 3798POPC   C2B50504  37.833  24.794   6.700
 3798POPC   C3B50505  37.843  24.790   7.137
 3798POPC   C4B50506  37.591  24.562   7.446
 3799POPC   NC350507  25.780  15.623   5.628
 3799POPC   PO450508  26.062  16.094   5.201
 3799POPC   GL150509  25.959  16.128   5.639
 3799POPC   GL250510  26.229  15.880   5.744
 3799POPC   C1A50511  25.880  16.121   6.107
 3799POPC   D2A50512  26.103  16.079   6.532
 3799POPC   C3A50513  25.930  16.129   6.967
 3799POPC   C4A50514  26.145  16.143   7.372
 3799POPC   C1B50515  26.420  15.631   6.090
 3799POPC   C2B50516  26.434  15.606   6.548
 3799POPC   C3B50517  26.180  15.692   6.903
 3799POPC   C4B50518  26.274  15.651   7.328
 3800POPC   NC350519  43.542  17.281   5.525
 3800POPC   PO450520  42.904  17.123   5.651
 3800POPC   GL150521  43.244  17.285   5.971
 3800POPC   GL250522  43.424  17.609   5.898
 3800POPC   C1A50523  43.394  17.264   6.416
 3800POPC   D2A50524  43.502  17.179   6.846
 3800POPC   C3A50525  43.321  17.482   7.136
 3800POPC   C4A50526  43.301  17.828   7.428
 3800POPC   C1B50527  43.276  17.758   6.317
 3800POPC   C2B50528  43.125  17.791   6.766
 3800POPC   C3B50529  42.870  17.768   7.155
 3800POPC   C4B50530  42.822  17.859   7.608
 3801POPC   NC350531   2.022  17.803   5.663
 3801POPC   PO450532   1.737  17.371   5.172
 3801POPC   GL150533   1.830  17.325   5.703
 3801POPC   GL250534   1.747  17.568   6.027
 3801POPC   C1A50535   2.096  17.232   6.113
 3801POPC   D2A50536   1.929  17.257   6.520
 3801POPC   C3A50537   2.170  17.260   6.941
 3801POPC   C4A50538   2.030  17.160   7.376
 3801POPC   C1B50539   2.062  17.739   6.314
 3801POPC   C2B50540   2.036  17.722   6.730
 3801POPC   C3B50541   1.715  17.489   6.904
 3801POPC   C4B50542   1.835  17.605   7.234
 3802POPC   NC350543   8.200  42.541   5.331
 3802POPC   PO450544   8.443  41.992   5.592
 3802POPC   GL150545   8.284  42.324   5.825
 3802POPC   GL250546   7.917  42.311   5.815
 3802POPC   C1A50547   8.466  42.511   6.210
 3802POPC   D2A50548   8.293  42.535   6.640
 3802POPC   C3A50549   8.344  42.389   7.091
 3802POPC   C4A50550   7.949  42.479   7.349
 3802POPC   C1B50551   7.979  42.338   6.257
 3802POPC   C2B50552   7.980  42.072   6.603
 3802POPC   C3B50553   7.927  42.103   7.007
 3802POPC   C4B50554   8.146  42.015   7.383
 3803POPC   NC350555  11.400   0.847   5.614
 3803POPC   PO450556  11.149   1.416   5.301
 3803POPC   GL150557  11.306   1.363   5.683
 3803POPC   GL250558  11.656   1.288   5.701
 3803POPC   C1A50559  11.144   1.370   6.091
 3803POPC   D2A50560  11.240   1.129   6.461
 3803POPC   C3A50561  11.124   1.234   6.866
 3803POPC   C4A50562  11.046   1.067   7.277
 3803POPC   C1B50563  11.844   1.234   6.128
 3803POPC   C2B50564  11.714   1.233   6.584
 3803POPC   C3B50565  11.594   1.106   7.000
 3803POPC   C4B50566  11.481   0.789   7.280
 3804POPC   NC350567  14.677   2.545   5.397
 3804POPC   PO450568  13.963   2.707   5.266
 3804POPC   GL150569  14.253   2.827   5.597
 3804POPC   GL250570  14.016   2.803   5.855
 3804POPC   C1A50571  14.487   2.812   6.032
 3804POPC   D2A50572  14.704   2.741   6.421
 3804POPC   C3A50573  14.563   2.876   6.827
 3804POPC   C4A50574  14.705   3.052   7.195
 3804POPC   C1B50575  14.028   2.555   6.231
 3804POPC   C2B50576  13.793   2.486   6.597
 3804POPC   C3B50577  13.883   2.678   7.004
 3804POPC   C4B50578  14.211   2.901   7.201
 3805POPC   NC350579  37.541  30.496   5.337
 3805POPC   PO450580  37.785  31.116   5.498
 3805POPC   GL150581  37.757  30.750   5.712
 3805POPC   GL250582  38.040  30.562   5.679
 3805POPC   C1A50583  37.665  30.647   6.115
 3805POPC   D2A50584  37.863  30.650   6.505
 3805POPC   C3A50585  37.651  30.842   6.851
 3805POPC   C4A50586  37.443  30.565   7.116
 3805POPC   C1B50587  38.169  30.759   6.072
 3805POPC   C2B50588  38.162  31.053   6.429
 3805POPC   C3B50589  38.163  30.914   6.862
 3805POPC   C4B50590  37.929  30.717   7.245
 3806POPC   NC350591  35.339   1.555   5.320
 3806POPC   PO450592  35.137   1.001   5.581
 3806POPC   GL150593  35.360   1.274   5.841
 3806POPC   GL250594  35.642   1.472   5.789
 3806POPC   C1A50595  35.235   1.330   6.264
 3806POPC   D2A50596  35.058   0.961   6.489
 3806POPC   C3A50597  35.199   0.877   6.907
 3806POPC   C4A50598  35.349   1.073   7.269
 3806POPC   C1B50599  35.668   1.632   6.215
 3806POPC   C2B50600  35.574   1.478   6.639
 3806POPC   C3B50601  35.386   1.533   7.044
 3806POPC   C4B50602  35.663   1.456   7.412
 3807POPC   NC350603  37.623  40.261   5.563
 3807POPC   PO450604  38.067  39.592   5.482
 3807POPC   GL150605  37.814  39.853   5.839
 3807POPC   GL250606  37.908  40.233   5.979
 3807POPC   C1A50607  37.674  39.902   6.270
 3807POPC   D2A50608  37.874  40.193   6.557
 3807POPC   C3A50609  37.814  40.055   6.974
 3807POPC   C4A50610  37.519  39.738   7.079
 3807POPC   C1B50611  37.513  40.394   6.232
 3807POPC   C2B50612  37.349  40.250   6.669
 3807POPC   C3B50613  37.358  40.238   7.122
 3807POPC   C4B50614  37.636  40.321   7.482
 3808POPC   NC350615  18.124   2.077   5.462
 3808POPC   PO450616  18.488   1.599   5.823
 3808POPC   GL150617  18.293   1.949   5.929
 3808POPC   GL250618  18.470   2.218   5.822
 3808POPC   C1A50619  17.961   2.054   6.203
 3808POPC   D2A50620  17.913   1.837   6.586
 3808POPC   C3A50621  18.177   1.944   6.909
 3808POPC   C4A50622  18.086   1.965   7.306
 3808POPC   C1B50623  18.389   2.336   6.258
 3808POPC   C2B50624  18.085   2.382   6.619
 3808POPC   C3B50625  18.192   2.432   7.073
 3808POPC   C4B50626  18.561   2.208   7.202
 3809POPC   NC350627  16.997  39.898   5.425
 3809POPC   PO450628  16.530  40.253   5.161
 3809POPC   GL150629  16.541  40.120   5.694
 3809POPC   GL250630  16.797  39.881   5.876
 3809POPC   C1A50631  16.432  40.009   6.185
 3809POPC   D2A50632  16.517  40.183   6.612
 3809POPC   C3A50633  16.464  40.016   7.039
 3809POPC   C4A50634  16.609  40.083   7.496
 3809POPC   C1B50635  16.931  40.022   6.304
 3809POPC   C2B50636  16.905  39.872   6.719
 3809POPC   C3B50637  16.895  39.791   7.140
 3809POPC   C4B50638  16.996  39.781   7.600
 3810POPC   NC350639  28.125  44.023   5.541
 3810POPC   PO450640  28.574  43.685   5.220
 3810POPC   GL150641  28.382  43.594   5.667
 3810POPC   GL250642  28.673  43.557   5.857
 3810POPC   C1A50643  28.194  43.702   6.127
 3810POPC   D2A50644  28.356  43.944   6.521
 3810POPC   C3A50645  28.116  43.971   6.900
 3810POPC   C4A50646  28.037  43.685   7.221
 3810POPC   C1B50647  28.625  43.517   6.309
 3810POPC   C2B50648  28.808  43.699   6.665
 3810POPC   C3B50649  28.575  43.744   7.009
 3810POPC   C4B50650  28.650  43.939   7.378
 3811POPC   NC350651  20.891  32.537   5.370
 3811POPC   PO450652  21.345  32.080   5.523
 3811POPC   GL150653  21.339  32.189   5.883
 3811POPC   GL250654  21.374  32.530   5.786
 3811POPC   C1A50655  21.233  31.984   6.244
 3811POPC   D2A50656  21.287  32.147   6.629
 3811POPC   C3A50657  21.329  31.895   6.900
 3811POPC   C4A50658  21.506  31.958   7.261
 3811POPC   C1B50659  21.221  32.529   6.239
 3811POPC   C2B50660  21.463  32.626   6.613
 3811POPC   C3B50661  21.411  32.505   7.011
 3811POPC   C4B50662  21.460  32.506   7.438
 3812POPC   NC350663  10.334  36.036   5.425
 3812POPC   PO450664  10.898  36.330   5.402
 3812POPC   GL150665  10.674  36.160   5.786
 3812POPC   GL250666  10.927  36.122   5.952
 3812POPC   C1A50667  10.532  36.166   6.262
 3812POPC   D2A50668  10.554  36.074   6.714
 3812POPC   C3A50669  10.370  36.348   7.037
 3812POPC   C4A50670  10.343  36.291   7.490
 3812POPC   C1B50671  10.851  35.759   6.193
 3812POPC   C2B50672  10.825  35.607   6.576
 3812POPC   C3B50673  10.942  35.814   6.921
 3812POPC   C4B50674  10.668  35.964   7.230
 3813POPC   NC350675  34.346  30.533   5.396
 3813POPC   PO450676  34.870  30.848   5.400
 3813POPC   GL150677  34.697  30.769   5.787
 3813POPC   GL250678  34.441  31.010   5.750
 3813POPC   C1A50679  34.651  30.594   6.209
 3813POPC   D2A50680  34.831  30.480   6.608
 3813POPC   C3A50681  34.655  30.694   6.958
 3813POPC   C4A50682  34.319  30.532   7.184
 3813POPC   C1B50683  34.291  30.972   6.181
 3813POPC   C2B50684  34.334  30.819   6.590
 3813POPC   C3B50685  34.253  31.033   6.968
 3813POPC   C4B50686  34.227  31.403   7.202
 3814POPC   NC350687  43.674   8.331   5.415
 3814POPC   PO450688  44.218   8.055   5.147
 3814POPC   GL150689  44.123   8.217   5.631
 3814POPC   GL250690  44.315   8.532   5.780
 3814POPC   C1A50691  43.871   8.056   6.010
 3814POPC   D2A50692  43.885   8.066   6.487
 3814POPC   C3A50693  43.666   8.409   6.740
 3814POPC   C4A50694  43.608   8.373   7.191
 3814POPC   C1B50695  44.147   8.448   6.175
 3814POPC   C2B50696  44.168   8.502   6.624
 3814POPC   C3B50697  44.092   8.224   6.962
 3814POPC   C4B50698  44.406   8.175   7.227
 3815POPC   NC350699   3.490  28.192   5.185
 3815POPC   PO450700   3.930  28.587   5.506
 3815POPC   GL150701   3.596  28.269   5.698
 3815POPC   GL250702   3.411  28.489   5.937
 3815POPC   C1A50703   3.485  27.999   6.031
 3815POPC   D2A50704   3.566  28.022   6.460
 3815POPC   C3A50705   3.529  28.080   6.887
 3815POPC   C4A50706   3.679  28.128   7.262
 3815POPC   C1B50707   3.389  28.670   6.301
 3815POPC   C2B50708   3.306  28.475   6.671
 3815POPC   C3B50709   3.477  28.594   7.038
 3815POPC   C4B50710   3.606  28.581   7.448
 3816POPC   NC350711   7.741  37.216   5.445
 3816POPC   PO450712   7.621  36.549   5.264
 3816POPC   GL150713   7.538  36.696   5.687
 3816POPC   GL250714   7.234  36.898   5.784
 3816POPC   C1A50715   7.642  36.785   6.115
 3816POPC   D2A50716   7.579  37.057   6.460
 3816POPC   C3A50717   7.637  36.916   6.877
 3816POPC   C4A50718   7.443  37.097   7.237
 3816POPC   C1B50719   7.036  37.031   6.201
 3816POPC   C2B50720   7.081  36.989   6.685
 3816POPC   C3B50721   6.953  36.989   7.131
 3816POPC   C4B50722   7.117  36.856   7.565
 3817POPC   NC350723  39.384  13.996   5.410
 3817POPC   PO450724  39.050  13.442   5.577
 3817POPC   GL150725  39.091  13.781   5.826
 3817POPC   GL250726  39.414  13.921   5.897
 3817POPC   C1A50727  38.925  13.617   6.221
 3817POPC   D2A50728  38.622  13.500   6.522
 3817POPC   C3A50729  38.937  13.551   6.818
 3817POPC   C4A50730  39.131  13.692   7.202
 3817POPC   C1B50731  39.253  14.037   6.272
 3817POPC   C2B50732  39.270  13.926   6.698
 3817POPC   C3B50733  39.278  14.190   7.031
 3817POPC   C4B50734  39.169  14.267   7.425
 3818POPC   NC350735  41.656  12.567   5.564
 3818POPC   PO450736  41.431  13.244   5.489
 3818POPC   GL150737  41.371  12.959   5.780
 3818POPC   GL250738  41.702  12.967   5.899
 3818POPC   C1A50739  41.257  12.829   6.195
 3818POPC   D2A50740  41.438  13.034   6.548
 3818POPC   C3A50741  41.319  12.901   6.941
 3818POPC   C4A50742  41.329  13.061   7.320
 3818POPC   C1B50743  41.766  12.720   6.291
 3818POPC   C2B50744  41.769  12.696   6.748
 3818POPC   C3B50745  41.971  12.827   7.110
 3818POPC   C4B50746  41.733  12.626   7.395
 3819POPC   NC350747  27.838  13.438   5.124
 3819POPC   PO450748  27.934  14.039   5.441
 3819POPC   GL150749  27.625  13.886   5.731
 3819POPC   GL250750  27.250  13.957   5.619
 3819POPC   C1A50751  27.668  13.615   6.147
 3819POPC   D2A50752  27.938  13.421   6.490
 3819POPC   C3A50753  27.789  13.564   6.890
 3819POPC   C4A50754  27.644  13.630   7.293
 3819POPC   C1B50755  27.268  13.960   6.073
 3819POPC   C2B50756  27.407  13.911   6.505
 3819POPC   C3B50757  27.478  14.006   6.937
 3819POPC   C4B50758  27.194  13.894   7.260
 3820POPC   NC350759  25.125  37.843   5.722
 3820POPC   PO450760  25.717  37.518   5.458
 3820POPC   GL150761  25.562  37.640   5.858
 3820POPC   GL250762  25.268  37.414   5.944
 3820POPC   C1A50763  25.433  37.768   6.299
 3820POPC   D2A50764  25.106  37.833   6.614
 3820POPC   C3A50765  25.297  37.700   6.972
 3820POPC   C4A50766  25.459  37.686   7.358
 3820POPC   C1B50767  25.070  37.382   6.329
 3820POPC   C2B50768  24.953  37.360   6.781
 3820POPC   C3B50769  24.839  37.570   7.188
 3820POPC   C4B50770  24.860  37.371   7.563
 3821POPC   NC350771  30.238  36.267   5.198
 3821POPC   PO450772  29.826  35.761   5.145
 3821POPC   GL150773  30.052  35.756   5.636
 3821POPC   GL250774  30.199  36.109   5.707
 3821POPC   C1A50775  29.997  35.883   6.119
 3821POPC   D2A50776  29.846  35.833   6.570
 3821POPC   C3A50777  29.834  36.073   6.951
 3821POPC   C4A50778  30.127  35.983   7.259
 3821POPC   C1B50779  30.111  36.383   6.073
 3821POPC   C2B50780  29.970  36.360   6.515
 3821POPC   C3B50781  30.104  36.524   6.945
 3821POPC   C4B50782  30.285  36.453   7.394
 3822POPC   NC350783   3.857  19.061   5.567
 3822POPC   PO450784   3.337  18.642   5.451
 3822POPC   GL150785   3.373  18.959   5.794
 3822POPC   GL250786   3.374  18.744   6.103
 3822POPC   C1A50787   3.315  19.235   6.178
 3822POPC   D2A50788   3.406  18.986   6.571
 3822POPC   C3A50789   3.477  19.175   6.960
 3822POPC   C4A50790   3.304  19.113   7.347
 3822POPC   C1B50791   3.774  19.016   6.223
 3822POPC   C2B50792   3.930  19.091   6.664
 3822POPC   C3B50793   3.936  19.022   7.121
 3822POPC   C4B50794   3.847  18.783   7.481
 3823POPC   NC350795  34.024  29.081   5.440
 3823POPC   PO450796  33.432  29.551   5.463
 3823POPC   GL150797  33.755  29.376   5.822
 3823POPC   GL250798  33.896  29.018   5.921
 3823POPC   C1A50799  33.990  29.393   6.240
 3823POPC   D2A50800  34.198  29.270   6.655
 3823POPC   C3A50801  33.930  29.050   6.954
 3823POPC   C4A50802  33.676  29.326   7.197
 3823POPC   C1B50803  33.572  28.972   6.227
 3823POPC   C2B50804  33.490  28.991   6.667
 3823POPC   C3B50805  33.327  28.824   7.035
 3823POPC   C4B50806  33.202  29.184   7.222
 3824POPC   NC350807  25.074  25.674   5.532
 3824POPC   PO450808  25.564  25.283   5.500
 3824POPC   GL150809  25.347  25.313   5.863
 3824POPC   GL250810  24.991  25.248   5.847
 3824POPC   C1A50811  25.330  25.305   6.294
 3824POPC   D2A50812  25.476  25.128   6.670
 3824POPC   C3A50813  25.526  25.436   6.984
 3824POPC   C4A50814  25.286  25.574   7.329
 3824POPC   C1B50815  24.824  25.127   6.278
 3824POPC   C2B50816  24.829  25.097   6.746
 3824POPC   C3B50817  25.136  25.111   7.081
 3824POPC   C4B50818  25.054  25.127   7.558
 3825POPC   NC350819  37.480  28.048   5.565
 3825POPC   PO450820  37.957  27.638   5.220
 3825POPC   GL150821  37.891  27.734   5.645
 3825POPC   GL250822  37.595  27.555   5.747
 3825POPC   C1A50823  37.999  27.919   6.056
 3825POPC   D2A50824  38.112  27.737   6.487
 3825POPC   C3A50825  37.867  27.710   6.861
 3825POPC   C4A50826  37.783  27.470   7.234
 3825POPC   C1B50827  37.534  27.722   6.174
 3825POPC   C2B50828  37.462  27.863   6.593
 3825POPC   C3B50829  37.360  27.727   7.022
 3825POPC   C4B50830  37.002  27.883   7.269
 3826POPC   NC350831   6.486  20.174   5.528
 3826POPC   PO450832   6.851  19.630   5.726
 3826POPC   GL150833   6.513  19.825   5.892
 3826POPC   GL250834   6.292  19.621   5.788
 3826POPC   C1A50835   6.515  19.995   6.283
 3826POPC   D2A50836   6.848  20.011   6.587
 3826POPC   C3A50837   6.704  20.076   6.993
 3826POPC   C4A50838   6.783  19.791   7.330
 3826POPC   C1B50839   6.385  19.464   6.215
 3826POPC   C2B50840   6.330  19.650   6.628
 3826POPC   C3B50841   6.441  19.437   6.975
 3826POPC   C4B50842   6.188  19.238   7.257
 3827POPC   NC350843  22.480  32.101   5.308
 3827POPC   PO450844  23.129  32.261   5.422
 3827POPC   GL150845  23.072  32.373   5.812
 3827POPC   GL250846  22.713  32.364   5.756
 3827POPC   C1A50847  23.237  32.253   6.210
 3827POPC   D2A50848  23.159  32.103   6.590
 3827POPC   C3A50849  23.253  32.277   6.973
 3827POPC   C4A50850  23.235  31.988   7.298
 3827POPC   C1B50851  22.772  31.996   6.036
 3827POPC   C2B50852  22.653  32.024   6.467
 3827POPC   C3B50853  22.779  32.002   6.901
 3827POPC   C4B50854  22.815  32.269   7.238
 3828POPC   NC350855  14.685  28.127   5.387
 3828POPC   PO450856  14.265  28.586   5.039
 3828POPC   GL150857  14.388  28.584   5.529
 3828POPC   GL250858  14.748  28.562   5.689
 3828POPC   C1A50859  14.308  28.597   5.998
 3828POPC   D2A50860  14.451  28.667   6.433
 3828POPC   C3A50861  14.285  28.810   6.828
 3828POPC   C4A50862  14.309  28.621   7.254
 3828POPC   C1B50863  14.725  28.282   6.067
 3828POPC   C2B50864  14.446  28.157   6.420
 3828POPC   C3B50865  14.424  28.287   6.865
 3828POPC   C4B50866  14.193  28.052   7.204
 3829POPC   NC350867   3.092  19.042   5.342
 3829POPC   PO450868   2.622  18.681   5.341
 3829POPC   GL150869   2.613  18.935   5.719
 3829POPC   GL250870   2.421  19.268   5.763
 3829POPC   C1A50871   2.882  18.965   6.080
 3829POPC   D2A50872   2.916  18.815   6.500
 3829POPC   C3A50873   2.987  19.015   6.894
 3829POPC   C4A50874   2.874  18.865   7.287
 3829POPC   C1B50875   2.420  19.186   6.224
 3829POPC   C2B50876   2.428  19.377   6.659
 3829POPC   C3B50877   2.496  19.114   7.035
 3829POPC   C4B50878   2.442  19.094   7.488
 3830POPC   NC350879   2.265  42.045   5.489
 3830POPC   PO450880   2.933  42.393   5.492
 3830POPC   GL150881   2.929  42.180   5.869
 3830POPC   GL250882   2.607  42.029   5.878
 3830POPC   C1A50883   3.054  42.119   6.300
 3830POPC   D2A50884   2.815  42.109   6.679
 3830POPC   C3A50885   2.979  42.298   7.044
 3830POPC   C4A50886   2.820  42.416   7.461
 3830POPC   C1B50887   2.345  42.295   6.169
 3830POPC   C2B50888   2.359  42.395   6.623
 3830POPC   C3B50889   2.443  42.331   7.081
 3830POPC   C4B50890   2.299  42.326   7.529
 3831POPC   NC350891   3.487  44.336   5.566
 3831POPC   PO450892   3.394  44.965   5.457
 3831POPC   GL150893   3.516  44.781   5.842
 3831POPC   GL250894   3.578  44.469   6.043
 3831POPC   C1A50895   3.381  44.920   6.208
 3831POPC   D2A50896   3.558  44.841   6.590
 3831POPC   C3A50897   3.333  44.913   6.985
 3831POPC   C4A50898   3.593  44.843   7.323
 3831POPC   C1B50899   3.839  44.189   6.298
 3831POPC   C2B50900   4.004  44.298   6.706
 3831POPC   C3B50901   3.650  44.480   6.946
 3831POPC   C4B50902   3.194  44.427   7.041
 3832POPC   NC350903  24.980  12.238   5.424
 3832POPC   PO450904  25.409  11.766   5.480
 3832POPC   GL150905  25.318  12.081   5.790
 3832POPC   GL250906  24.994  11.986   5.877
 3832POPC   C1A50907  25.295  12.268   6.206
 3832POPC   D2A50908  25.573  12.152   6.554
 3832POPC   C3A50909  25.669  12.342   6.969
 3832POPC   C4A50910  25.524  12.221   7.392
 3832POPC   C1B50911  24.780  12.134   6.254
 3832POPC   C2B50912  25.005  12.169   6.642
 3832POPC   C3B50913  25.276  12.009   6.965
 3832POPC   C4B50914  25.225  11.800   7.344
 3833POPC   NC350915  12.882  15.989   5.363
 3833POPC   PO450916  12.327  15.675   5.478
 3833POPC   GL150917  12.599  15.863   5.786
 3833POPC   GL250918  12.663  15.579   6.004
 3833POPC   C1A50919  12.718  16.062   6.185
 3833POPC   D2A50920  12.535  16.074   6.590
 3833POPC   C3A50921  12.739  16.302   6.890
 3833POPC   C4A50922  13.059  16.163   7.171
 3833POPC   C1B50923  12.775  15.607   6.455
 3833POPC   C2B50924  12.875  15.760   6.868
 3833POPC   C3B50925  12.852  15.627   7.315
 3833POPC   C4B50926  12.740  15.312   7.674
 3834POPC   NC350927  28.662  13.298   5.516
 3834POPC   PO450928  29.142  13.044   5.075
 3834POPC   GL150929  29.267  12.903   5.600
 3834POPC   GL250930  29.480  13.112   5.840
 3834POPC   C1A50931  29.107  12.778   6.080
 3834POPC   D2A50932  29.210  12.532   6.494
 3834POPC   C3A50933  29.131  12.627   6.971
 3834POPC   C4A50934  29.177  12.665   7.443
 3834POPC   C1B50935  29.448  13.073   6.280
 3834POPC   C2B50936  29.128  13.026   6.610
 3834POPC   C3B50937  29.219  13.121   7.034
 3834POPC   C4B50938  29.316  13.179   7.443
 3835POPC   NC350939  30.215   4.736   5.520
 3835POPC   PO450940  29.784   4.289   5.263
 3835POPC   GL150941  29.725   4.237   5.728
 3835POPC   GL250942  29.800   4.580   5.824
 3835POPC   C1A50943  29.777   4.214   6.188
 3835POPC   D2A50944  29.754   4.493   6.563
 3835POPC   C3A50945  29.644   4.284   6.970
 3835POPC   C4A50946  29.826   4.044   7.335
 3835POPC   C1B50947  30.140   4.580   6.191
 3835POPC   C2B50948  30.266   4.381   6.622
 3835POPC   C3B50949  30.146   4.410   7.080
 3835POPC   C4B50950  30.024   4.466   7.537
 3836POPC   NC350951  28.543  36.393   5.444
 3836POPC   PO450952  27.975  35.943   5.490
 3836POPC   GL150953  28.086  36.154   5.880
 3836POPC   GL250954  28.437  36.274   5.918
 3836POPC   C1A50955  28.213  36.063   6.311
 3836POPC   D2A50956  28.598  36.088   6.554
 3836POPC   C3A50957  28.470  36.151   6.958
 3836POPC   C4A50958  28.318  35.995   7.340
 3836POPC   C1B50959  28.687  36.516   6.191
 3836POPC   C2B50960  28.771  36.589   6.608
 3836POPC   C3B50961  28.855  36.475   7.030
 3836POPC   C4B50962  28.532  36.491   7.344
 3837POPC   NC350963   4.607  39.782   5.357
 3837POPC   PO450964   4.065  39.412   5.403
 3837POPC   GL150965   4.455  39.339   5.656
 3837POPC   GL250966   4.343  39.127   5.943
 3837POPC   C1A50967   4.672  39.515   6.041
 3837POPC   D2A50968   4.720  39.596   6.517
 3837POPC   C3A50969   4.589  39.297   6.851
 3837POPC   C4A50970   4.353  39.250   7.228
 3837POPC   C1B50971   4.085  39.118   6.339
 3837POPC   C2B50972   4.158  39.017   6.789
 3837POPC   C3B50973   4.286  38.730   7.140
 3837POPC   C4B50974   4.335  38.848   7.594
 3838POPC   NC350975  17.986  16.951   5.194
 3838POPC   PO450976  17.327  16.959   5.452
 3838POPC   GL150977  17.603  16.816   5.773
 3838POPC   GL250978  17.845  16.593   5.641
 3838POPC   C1A50979  17.663  16.930   6.214
 3838POPC   D2A50980  17.499  16.900   6.628
 3838POPC   C3A50981  17.642  17.073   7.009
 3838POPC   C4A50982  17.505  16.960   7.411
 3838POPC   C1B50983  17.779  16.432   6.094
 3838POPC   C2B50984  17.641  16.401   6.519
 3838POPC   C3B50985  17.701  16.542   6.950
 3838POPC   C4B50986  18.112  16.505   7.099
 3839POPC   NC350987  36.879  16.588   5.417
 3839POPC   PO450988  36.969  17.245   5.481
 3839POPC   GL150989  36.879  16.914   5.815
 3839POPC   GL250990  37.185  16.724   5.791
 3839POPC   C1A50991  36.852  16.549   6.152
 3839POPC   D2A50992  36.800  16.677   6.617
 3839POPC   C3A50993  36.819  16.405   7.033
 3839POPC   C4A50994  37.068  16.399   7.454
 3839POPC   C1B50995  37.204  16.901   6.233
 3839POPC   C2B50996  37.265  16.923   6.690
 3839POPC   C3B50997  37.015  16.866   7.073
 3839POPC   C4B50998  36.658  17.122   7.167
 3840POPC   NC350999  22.403  18.257   5.562
 3840POPC   PO451000  21.700  18.174   5.550
 3840POPC   GL151001  21.972  18.281   5.906
 3840POPC   GL251002  21.991  18.649   5.953
 3840POPC   C1A51003  22.250  18.272   6.278
 3840POPC   D2A51004  22.329  18.023   6.637
 3840POPC   C3A51005  22.106  18.147   6.964
 3840POPC   C4A51006  21.892  18.512   7.048
 3840POPC   C1B51007  22.258  18.796   6.324
 3840POPC   C2B51008  22.621  18.652   6.531
 3840POPC   C3B51009  22.524  18.477   6.915
 3840POPC   C4B51010  22.425  18.326   7.322
 3841POPC   NC351011  26.482  28.863   5.433
 3841POPC   PO451012  26.821  29.438   5.430
 3841POPC   GL151013  26.962  29.248   5.811
 3841POPC   GL251014  26.768  28.949   5.839
 3841POPC   C1A51015  27.044  29.108   6.248
 3841POPC   D2A51016  26.832  29.356   6.567
 3841POPC   C3A51017  26.739  29.200   6.957
 3841POPC   C4A51018  27.018  28.976   7.143
 3841POPC   C1B51019  26.533  28.802   6.192
 3841POPC   C2B51020  26.732  28.778   6.596
 3841POPC   C3B51021  26.560  28.725   7.010
 3841POPC   C4B51022  26.656  28.788   7.464
 3842POPC   NC351023   9.153  28.236   5.491
 3842POPC   PO451024   8.535  28.167   5.212
 3842POPC   GL151025   8.688  28.314   5.700
 3842POPC   GL251026   8.902  28.634   5.692
 3842POPC   C1A51027   9.002  28.271   6.116
 3842POPC   D2A51028   9.395  28.260   6.420
 3842POPC   C3A51029   9.304  28.387   6.863
 3842POPC   C4A51030   9.018  28.195   7.150
 3842POPC   C1B51031   8.928  28.774   6.112
 3842POPC   C2B51032   8.959  28.593   6.536
 3842POPC   C3B51033   8.814  28.635   6.953
 3842POPC   C4B51034   9.054  28.675   7.325
 3843POPC   NC351035   3.460  13.164   5.515
 3843POPC   PO451036   3.422  12.611   5.148
 3843POPC   GL151037   3.578  12.605   5.642
 3843POPC   GL251038   3.520  12.873   5.914
 3843POPC   C1A51039   3.752  12.477   6.102
 3843POPC   D2A51040   3.724  12.820   6.425
 3843POPC   C3A51041   3.821  12.769   6.849
 3843POPC   C4A51042   3.587  12.677   7.214
 3843POPC   C1B51043   3.266  12.648   6.223
 3843POPC   C2B51044   2.975  12.618   6.549
 3843POPC   C3B51045   3.202  12.607   6.902
 3843POPC   C4B51046   3.343  12.233   7.132
 3844POPC   NC351047  25.481  10.569   5.419
 3844POPC   PO451048  24.812  10.340   5.423
 3844POPC   GL151049  25.151  10.406   5.768
 3844POPC   GL251050  25.306  10.763   5.872
 3844POPC   C1A51051  25.373  10.333   6.169
 3844POPC   D2A51052  25.318  10.420   6.616
 3844POPC   C3A51053  25.231  10.083   6.918
 3844POPC   C4A51054  25.052  10.285   7.298
 3844POPC   C1B51055  25.614  10.822   6.242
 3844POPC   C2B51056  25.689  10.811   6.733
 3844POPC   C3B51057  25.397  10.680   7.080
 3844POPC   C4B51058  24.970  10.819   7.235
 3845POPC   NC351059  19.822  38.589   5.504
 3845POPC   PO451060  19.639  37.913   5.460
 3845POPC   GL151061  19.896  38.154   5.809
 3845POPC   GL251062  20.165  38.494   5.858
 3845POPC   C1A51063  19.732  38.391   6.144
 3845POPC   D2A51064  19.615  38.239   6.500
 3845POPC   C3A51065  19.743  38.268   6.909
 3845POPC   C4A51066  19.594  38.514   7.223
 3845POPC   C1B51067  20.225  38.293   6.216
 3845POPC   C2B51068  20.095  38.417   6.591
 3845POPC   C3B51069  20.103  38.637   6.987
 3845POPC   C4B51070  20.133  38.395   7.351
 3846POPC   NC351071  28.631  30.209   5.511
 3846POPC   PO451072  28.352  29.637   5.241
 3846POPC   GL151073  28.312  29.802   5.696
 3846POPC   GL251074  28.634  29.693   5.733
 3846POPC   C1A51075  28.495  30.024   6.125
 3846POPC   D2A51076  28.420  30.261   6.491
 3846POPC   C3A51077  28.556  30.148   6.914
 3846POPC   C4A51078  28.391  29.982   7.309
 3846POPC   C1B51079  28.537  29.525   6.129
 3846POPC   C2B51080  28.613  29.669   6.564
 3846POPC   C3B51081  28.456  29.540   6.973
 3846POPC   C4B51082  28.668  29.539   7.345
 3847POPC   NC351083  34.374   4.567   5.662
 3847POPC   PO451084  34.099   4.063   5.238
 3847POPC   GL151085  34.351   4.039   5.731
 3847POPC   GL251086  34.706   4.171   5.744
 3847POPC   C1A51087  34.308   4.184   6.240
 3847POPC   D2A51088  34.212   4.336   6.710
 3847POPC   C3A51089  34.286   4.187   7.157
 3847POPC   C4A51090  34.418   4.050   7.594
 3847POPC   C1B51091  34.782   4.359   6.174
 3847POPC   C2B51092  34.743   4.216   6.604
 3847POPC   C3B51093  34.654   4.482   6.942
 3847POPC   C4B51094  34.845   4.650   7.301
 3848POPC   NC351095  42.675  21.018   5.573
 3848POPC   PO451096  42.461  21.610   5.458
 3848POPC   GL151097  42.238  21.420   5.876
 3848POPC   GL251098  42.471  21.278   5.984
 3848POPC   C1A51099  42.136  21.380   6.358
 3848POPC   D2A51100  42.337  21.370   6.775
 3848POPC   C3A51101  42.050  21.276   7.108
 3848POPC   C4A51102  41.744  21.465   7.381
 3848POPC   C1B51103  42.624  21.524   6.351
 3848POPC   C2B51104  42.837  21.301   6.678
 3848POPC   C3B51105  42.759  21.247   7.117
 3848POPC   C4B51106  42.656  21.111   7.533
 3849POPC   NC351107  16.381  21.933   5.383
 3849POPC   PO451108  16.781  21.431   5.168
 3849POPC   GL151109  16.856  21.288   5.697
 3849POPC   GL251110  16.627  21.487   5.940
 3849POPC   C1A51111  16.971  21.199   6.147
 3849POPC   D2A51112  16.834  21.412   6.539
 3849POPC   C3A51113  16.883  21.217   6.959
 3849POPC   C4A51114  16.994  21.429   7.383
 3849POPC   C1B51115  16.415  21.238   6.292
 3849POPC   C2B51116  16.403  21.230   6.769
 3849POPC   C3B51117  16.534  21.518   7.154
 3849POPC   C4B51118  16.556  21.339   7.612
 3850POPC   NC351119  11.560  44.058   5.007
 3850POPC   PO451120  11.225  43.597   5.404
 3850POPC   GL151121  11.283  43.916   5.754
 3850POPC   GL251122  10.958  43.930   5.845
 3850POPC   C1A51123  11.272  44.210   6.156
 3850POPC   D2A51124  11.294  44.329   6.629
 3850POPC   C3A51125  11.295  44.041   7.002
 3850POPC   C4A51126  11.355  44.042   7.487
 3850POPC   C1B51127  11.071  43.564   6.076
 3850POPC   C2B51128  11.013  43.485   6.498
 3850POPC   C3B51129  11.272  43.525   6.874
 3850POPC   C4B51130  11.187  43.604   7.297
 3851POPC   NC351131   7.881  27.906   5.385
 3851POPC   PO451132   7.905  28.618   5.518
 3851POPC   GL151133   8.181  28.479   5.858
 3851POPC   GL251134   8.452  28.740   5.918
 3851POPC   C1A51135   8.088  28.282   6.288
 3851POPC   D2A51136   7.943  28.533   6.661
 3851POPC   C3A51137   8.018  28.321   7.048
 3851POPC   C4A51138   8.032  28.023   7.381
 3851POPC   C1B51139   8.509  28.555   6.313
 3851POPC   C2B51140   8.431  28.328   6.701
 3851POPC   C3B51141   8.508  28.227   7.134
 3851POPC   C4B51142   8.552  28.554   7.436
 3852POPC   NC351143   8.500   6.916   5.344
 3852POPC   PO451144   7.914   6.681   5.441
 3852POPC   GL151145   8.202   6.826   5.775
 3852POPC   GL251146   8.354   6.517   5.826
 3852POPC   C1A51147   8.257   6.847   6.232
 3852POPC   D2A51148   8.183   6.562   6.581
 3852POPC   C3A51149   8.409   6.678   6.911
 3852POPC   C4A51150   8.336   6.944   7.245
 3852POPC   C1B51151   8.014   6.386   6.126
 3852POPC   C2B51152   7.777   6.214   6.501
 3852POPC   C3B51153   7.840   6.274   6.924
 3852POPC   C4B51154   8.137   6.407   7.247
 3853POPC   NC351155  33.504  20.347   5.561
 3853POPC   PO451156  33.889  20.894   5.396
 3853POPC   GL151157  33.840  20.692   5.826
 3853POPC   GL251158  33.942  20.338   5.894
 3853POPC   C1A51159  34.036  20.686   6.271
 3853POPC   D2A51160  33.982  20.940   6.663
 3853POPC   C3A51161  33.847  20.777   7.074
 3853POPC   C4A51162  33.472  20.714   7.292
 3853POPC   C1B51163  33.649  20.367   6.233
 3853POPC   C2B51164  33.741  20.474   6.668
 3853POPC   C3B51165  33.658  20.297   7.084
 3853POPC   C4B51166  33.828  20.411   7.491
 3854POPC   NC351167  32.452  36.272   5.517
 3854POPC   PO451168  31.741  36.077   5.408
 3854POPC   GL151169  32.021  36.120   5.828
 3854POPC   GL251170  32.362  36.001   5.910
 3854POPC   C1A51171  32.142  36.226   6.281
 3854POPC   D2A51172  32.006  35.927   6.595
 3854POPC   C3A51173  32.054  36.064   6.984
 3854POPC   C4A51174  32.373  36.223   7.229
 3854POPC   C1B51175  32.331  35.729   6.256
 3854POPC   C2B51176  32.375  35.557   6.660
 3854POPC   C3B51177  32.406  35.678   7.107
 3854POPC   C4B51178  32.417  35.578   7.546
 3855POPC   NC351179  13.180  36.456   5.456
 3855POPC   PO451180  13.259  37.101   5.577
 3855POPC   GL151181  13.015  36.788   5.822
 3855POPC   GL251182  12.681  36.892   5.915
 3855POPC   C1A51183  12.991  36.679   6.262
 3855POPC   D2A51184  13.061  36.933   6.631
 3855POPC   C3A51185  12.881  36.808   6.998
 3855POPC   C4A51186  13.097  36.886   7.344
 3855POPC   C1B51187  12.891  37.180   6.214
 3855POPC   C2B51188  12.747  37.381   6.598
 3855POPC   C3B51189  12.903  37.315   7.028
 3855POPC   C4B51190  12.823  37.277   7.463
 3856POPC   NC351191   3.922  25.782   5.404
 3856POPC   PO451192   4.568  25.830   5.480
 3856POPC   GL151193   4.248  25.923   5.782
 3856POPC   GL251194   4.246  25.620   5.915
 3856POPC   C1A51195   4.029  26.047   6.178
 3856POPC   D2A51196   4.161  26.193   6.592
 3856POPC   C3A51197   4.028  26.094   7.005
 3856POPC   C4A51198   4.101  25.888   7.383
 3856POPC   C1B51199   4.520  25.764   6.242
 3856POPC   C2B51200   4.628  25.949   6.646
 3856POPC   C3B51201   4.527  25.929   7.093
 3856POPC   C4B51202   4.629  25.634   7.461
 3857POPC   NC351203   5.782  14.993   5.483
 3857POPC   PO451204   6.491  14.906   5.643
 3857POPC   GL151205   6.106  14.875   5.860
 3857POPC   GL251206   5.993  15.228   5.898
 3857POPC   C1A51207   5.736  14.880   6.160
 3857POPC   D2A51208   5.610  15.104   6.548
 3857POPC   C3A51209   5.882  15.031   6.909
 3857POPC   C4A51210   5.850  14.934   7.325
 3857POPC   C1B51211   5.941  15.467   6.313
 3857POPC   C2B51212   5.921  15.514   6.775
 3857POPC   C3B51213   5.978  15.420   7.229
 3857POPC   C4B51214   5.943  15.620   7.640
 3858POPC   NC351215  19.876   8.362   5.356
 3858POPC   PO451216  19.412   7.886   5.422
 3858POPC   GL151217  19.495   8.194   5.728
 3858POPC   GL251218  19.789   8.373   5.849
 3858POPC   C1A51219  19.482   8.105   6.162
 3858POPC   D2A51220  19.722   7.857   6.446
 3858POPC   C3A51221  19.663   7.984   6.864
 3858POPC   C4A51222  19.563   8.193   7.242
 3858POPC   C1B51223  19.740   8.532   6.268
 3858POPC   C2B51224  19.533   8.497   6.675
 3858POPC   C3B51225  19.718   8.644   7.068
 3858POPC   C4B51226  20.156   8.548   7.219
 3859POPC   NC351227   8.060  10.103   5.657
 3859POPC   PO451228   8.466   9.609   5.459
 3859POPC   GL151229   8.269   9.672   5.839
 3859POPC   GL251230   8.392   9.957   6.020
 3859POPC   C1A51231   8.112   9.505   6.193
 3859POPC   D2A51232   7.864   9.478   6.552
 3859POPC   C3A51233   8.043   9.610   6.905
 3859POPC   C4A51234   7.971   9.456   7.299
 3859POPC   C1B51235   8.099  10.078   6.328
 3859POPC   C2B51236   8.118  10.160   6.760
 3859POPC   C3B51237   7.998  10.037   7.166
 3859POPC   C4B51238   8.274   9.848   7.407
 3860POPC   NC351239  43.497   2.115   5.498
 3860POPC   PO451240  42.854   2.182   5.454
 3860POPC   GL151241  43.058   2.030   5.835
 3860POPC   GL251242  43.332   1.785   5.884
 3860POPC   C1A51243  43.130   2.109   6.284
 3860POPC   D2A51244  42.942   2.397   6.579
 3860POPC   C3A51245  43.109   2.360   6.963
 3860POPC   C4A51246  43.133   2.088   7.293
 3860POPC   C1B51247  42.980   1.638   6.161
 3860POPC   C2B51248  42.807   1.763   6.559
 3860POPC   C3B51249  42.996   1.748   6.948
 3860POPC   C4B51250  43.318   1.609   7.176
 3861POPC   NC351251  39.354  25.006   5.488
 3861POPC   PO451252  38.888  25.449   5.734
 3861POPC   GL151253  39.072  25.078   5.901
 3861POPC   GL251254  39.405  25.264   5.916
 3861POPC   C1A51255  39.290  24.947   6.291
 3861POPC   D2A51256  39.419  25.233   6.617
 3861POPC   C3A51257  39.166  25.173   6.990
 3861POPC   C4A51258  39.157  25.137   7.433
 3861POPC   C1B51259  39.610  25.543   6.200
 3861POPC   C2B51260  39.675  25.678   6.611
 3861POPC   C3B51261  39.438  25.635   6.964
 3861POPC   C4B51262  39.007  25.633   7.146
 3862POPC   NC351263   0.324  29.330   5.352
 3862POPC   PO451264   0.846  28.952   5.398
 3862POPC   GL151265   0.628  29.055   5.795
 3862POPC   GL251266   0.296  29.257   5.860
 3862POPC   C1A51267   0.654  29.214   6.218
 3862POPC   D2A51268   0.313  29.188   6.523
 3862POPC   C3A51269   0.530  29.095   6.894
 3862POPC   C4A51270   0.647  29.426   7.151
 3862POPC   C1B51271   0.271  28.849   6.135
 3862POPC   C2B51272   0.287  28.656   6.588
 3862POPC   C3B51273   0.180  28.742   7.048
 3862POPC   C4B51274   0.345  29.074   7.384
 3863POPC   NC351275  11.634  17.218   5.361
 3863POPC   PO451276  11.291  17.740   5.172
 3863POPC   GL151277  11.531  17.663   5.603
 3863POPC   GL251278  11.305  17.446   5.802
 3863POPC   C1A51279  11.527  17.792   6.078
 3863POPC   D2A51280  11.642  17.522   6.450
 3863POPC   C3A51281  11.441  17.532   6.866
 3863POPC   C4A51282  11.517  17.713   7.258
 3863POPC   C1B51283  11.112  17.383   6.228
 3863POPC   C2B51284  10.921  17.269   6.639
 3863POPC   C3B51285  10.873  17.235   7.088
 3863POPC   C4B51286  11.268  17.237   7.321
 3864POPC   NC351287  37.465   3.197   5.565
 3864POPC   PO451288  37.454   3.863   5.406
 3864POPC   GL151289  37.698   3.614   5.759
 3864POPC   GL251290  37.439   3.464   6.000
 3864POPC   C1A51291  37.881   3.622   6.181
 3864POPC   D2A51292  37.678   3.667   6.574
 3864POPC   C3A51293  37.973   3.672   6.910
 3864POPC   C4A51294  37.890   3.709   7.329
 3864POPC   C1B51295  37.622   3.123   6.260
 3864POPC   C2B51296  37.751   3.015   6.697
 3864POPC   C3B51297  37.722   3.200   7.121
 3864POPC   C4B51298  37.438   3.134   7.450
 3865POPC   NC351299  18.907   9.729   5.345
 3865POPC   PO451300  19.542   9.889   5.506
 3865POPC   GL151301  19.187   9.711   5.800
 3865POPC   GL251302  18.833   9.554   5.835
 3865POPC   C1A51303  19.148   9.789   6.247
 3865POPC   D2A51304  19.101  10.099   6.571
 3865POPC   C3A51305  19.319  10.048   6.940
 3865POPC   C4A51306  19.441   9.720   7.232
 3865POPC   C1B51307  18.662   9.863   6.146
 3865POPC   C2B51308  18.598  10.105   6.530
 3865POPC   C3B51309  18.582  10.005   6.970
 3865POPC   C4B51310  18.922   9.844   7.229
 3866POPC   NC351311  15.902  24.685   5.078
 3866POPC   PO451312  15.902  24.140   5.423
 3866POPC   GL151313  15.911  24.512   5.733
 3866POPC   GL251314  16.036  24.261   5.952
 3866POPC   C1A51315  15.818  24.632   6.216
 3866POPC   D2A51316  15.809  24.379   6.657
 3866POPC   C3A51317  15.866  24.554   7.098
 3866POPC   C4A51318  16.105  24.747   7.468
 3866POPC   C1B51319  16.218  24.313   6.355
 3866POPC   C2B51320  16.423  24.360   6.753
 3866POPC   C3B51321  16.363  24.398   7.191
 3866POPC   C4B51322  16.496  24.441   7.630
 3867POPC   NC351323   9.462  42.966   5.513
 3867POPC   PO451324   9.923  43.378   5.391
 3867POPC   GL151325  10.048  43.240   5.828
 3867POPC   GL251326   9.868  42.943   5.835
 3867POPC   C1A51327   9.919  43.219   6.250
 3867POPC   D2A51328   9.564  43.428   6.440
 3867POPC   C3A51329   9.552  43.169   6.778
 3867POPC   C4A51330   9.431  43.132   7.177
 3867POPC   C1B51331   9.635  42.748   6.193
 3867POPC   C2B51332   9.816  42.769   6.592
 3867POPC   C3B51333   9.717  42.729   6.995
 3867POPC   C4B51334   9.957  42.782   7.331
 3868POPC   NC351335  36.010  22.333   5.601
 3868POPC   PO451336  36.125  22.894   5.216
 3868POPC   GL151337  36.171  22.832   5.701
 3868POPC   GL251338  36.473  22.676   5.820
 3868POPC   C1A51339  36.120  22.840   6.196
 3868POPC   D2A51340  35.888  22.835   6.637
 3868POPC   C3A51341  36.008  22.981   7.084
 3868POPC   C4A51342  36.366  23.239   7.182
 3868POPC   C1B51343  36.375  22.378   6.182
 3868POPC   C2B51344  36.287  22.395   6.614
 3868POPC   C3B51345  36.386  22.689   6.923
 3868POPC   C4B51346  36.402  22.771   7.353
 3869POPC   NC351347  26.720  14.135   5.447
 3869POPC   PO451348  26.445  14.646   5.593
 3869POPC   GL151349  26.692  14.514   5.861
 3869POPC   GL251350  26.507  14.230   5.917
 3869POPC   C1A51351  26.952  14.726   6.170
 3869POPC   D2A51352  26.872  14.675   6.574
 3869POPC   C3A51353  27.073  14.388   6.847
 3869POPC   C4A51354  26.983  14.591   7.215
 3869POPC   C1B51355  26.828  14.212   6.236
 3869POPC   C2B51356  26.622  14.228   6.599
 3869POPC   C3B51357  26.487  14.294   6.984
 3869POPC   C4B51358  26.722  14.048   7.236
 3870POPC   NC351359  43.465  30.473   5.291
 3870POPC   PO451360  42.991  30.932   5.510
 3870POPC   GL151361  43.085  30.682   5.825
 3870POPC   GL251362  43.401  30.521   5.788
 3870POPC   C1A51363  42.885  30.686   6.214
 3870POPC   D2A51364  42.871  30.910   6.618
 3870POPC   C3A51365  42.837  30.652   6.979
 3870POPC   C4A51366  43.072  30.587   7.337
 3870POPC   C1B51367  43.280  30.305   6.165
 3870POPC   C2B51368  43.148  30.451   6.582
 3870POPC   C3B51369  43.390  30.464   6.953
 3870POPC   C4B51370  43.470  30.194   7.290
 3871POPC   NC351371  20.807  34.092   5.579
 3871POPC   PO451372  20.447  34.718   5.388
 3871POPC   GL151373  20.503  34.477   5.745
 3871POPC   GL251374  20.270  34.177   5.725
 3871POPC   C1A51375  20.621  34.587   6.163
 3871POPC   D2A51376  20.610  34.906   6.474
 3871POPC   C3A51377  20.502  34.708   6.857
 3871POPC   C4A51378  20.617  34.776   7.264
 3871POPC   C1B51379  20.186  34.295   6.117
 3871POPC   C2B51380  20.209  34.267   6.533
 3871POPC   C3B51381  20.435  34.178   6.879
 3871POPC   C4B51382  20.400  34.319   7.242
 3872POPC   NC351383  38.018  42.129   5.015
 3872POPC   PO451384  37.600  42.350   5.482
 3872POPC   GL151385  37.756  42.436   5.868
 3872POPC   GL251386  37.463  42.398   6.118
 3872POPC   C1A51387  37.904  42.254   6.252
 3872POPC   D2A51388  37.580  42.037   6.516
 3872POPC   C3A51389  37.656  42.179   6.945
 3872POPC   C4A51390  38.016  42.323   7.167
 3872POPC   C1B51391  37.340  42.673   6.442
 3872POPC   C2B51392  37.359  42.635   6.892
 3872POPC   C3B51393  37.505  42.528   7.297
 3872POPC   C4B51394  37.323  42.347   7.715
 3873POPC   NC351395  39.040  31.681   5.516
 3873POPC   PO451396  39.709  31.527   5.626
 3873POPC   GL151397  39.340  31.426   5.857
 3873POPC   GL251398  39.317  31.770   5.952
 3873POPC   C1A51399  39.171  31.395   6.286
 3873POPC   D2A51400  39.434  31.279   6.615
 3873POPC   C3A51401  39.306  31.420   6.961
 3873POPC   C4A51402  38.991  31.419   7.225
 3873POPC   C1B51403  39.582  31.751   6.310
 3873POPC   C2B51404  39.704  31.748   6.743
 3873POPC   C3B51405  39.457  31.899   7.076
 3873POPC   C4B51406  39.401  31.664   7.403
 3874POPC   NC351407  15.527  23.847   5.415
 3874POPC   PO451408  16.084  23.351   5.374
 3874POPC   GL151409  15.808  23.484   5.723
 3874POPC   GL251410  15.828  23.810   5.838
 3874POPC   C1A51411  15.623  23.453   6.168
 3874POPC   D2A51412  15.592  23.592   6.621
 3874POPC   C3A51413  15.872  23.484   6.943
 3874POPC   C4A51414  16.297  23.579   7.013
 3874POPC   C1B51415  15.923  23.861   6.287
 3874POPC   C2B51416  16.101  23.937   6.702
 3874POPC   C3B51417  15.977  24.035   7.128
 3874POPC   C4B51418  15.978  24.263   7.540
 3875POPC   NC351419  18.754   2.269   5.395
 3875POPC   PO451420  19.208   2.705   5.372
 3875POPC   GL151421  19.166   2.699   5.807
 3875POPC   GL251422  18.874   2.533   5.855
 3875POPC   C1A51423  19.097   2.926   6.212
 3875POPC   D2A51424  18.924   3.048   6.624
 3875POPC   C3A51425  19.262   2.878   6.889
 3875POPC   C4A51426  19.459   2.496   7.053
 3875POPC   C1B51427  18.973   2.434   6.301
 3875POPC   C2B51428  18.968   2.444   6.755
 3875POPC   C3B51429  18.967   2.581   7.189
 3875POPC   C4B51430  18.944   3.055   7.253
 3876POPC   NC351431  35.580  33.757   5.571
 3876POPC   PO451432  34.973  34.123   5.297
 3876POPC   GL151433  35.206  34.041   5.769
 3876POPC   GL251434  35.321  33.684   5.988
 3876POPC   C1A51435  35.413  34.117   6.203
 3876POPC   D2A51436  35.238  33.976   6.558
 3876POPC   C3A51437  35.526  33.917   6.920
 3876POPC   C4A51438  35.414  33.971   7.360
 3876POPC   C1B51439  35.515  33.555   6.373
 3876POPC   C2B51440  35.259  33.491   6.724
 3876POPC   C3B51441  35.236  33.541   7.159
 3876POPC   C4B51442  35.533  33.457   7.457
 3877POPC   NC351443   4.313   1.661   5.526
 3877POPC   PO451444   4.638   1.004   5.496
 3877POPC   GL151445   4.358   1.054   5.824
 3877POPC   GL251446   4.431   1.383   5.955
 3877POPC   C1A51447   4.361   0.938   6.261
 3877POPC   D2A51448   4.147   0.989   6.650
 3877POPC   C3A51449   4.301   1.022   7.062
 3877POPC   C4A51450   4.240   1.266   7.416
 3877POPC   C1B51451   4.341   1.444   6.403
 3877POPC   C2B51452   4.372   1.485   6.841
 3877POPC   C3B51453   4.668   1.397   7.149
 3877POPC   C4B51454   4.678   1.387   7.635
 3878POPC   NC351455  39.331  27.791   5.166
 3878POPC   PO451456  39.280  28.450   5.378
 3878POPC   GL151457  39.168  28.430   5.792
 3878POPC   GL251458  39.190  28.053   5.741
 3878POPC   C1A51459  39.255  28.435   6.226
 3878POPC   D2A51460  39.215  28.664   6.604
 3878POPC   C3A51461  39.213  28.432   6.985
 3878POPC   C4A51462  39.409  28.556   7.373
 3878POPC   C1B51463  38.876  28.104   6.068
 3878POPC   C2B51464  38.963  28.099   6.512
 3878POPC   C3B51465  38.852  27.987   6.917
 3878POPC   C4B51466  39.063  28.023   7.292
 3879POPC   NC351467   6.861  18.091   5.520
 3879POPC   PO451468   6.549  18.703   5.502
 3879POPC   GL151469   6.706  18.481   5.859
 3879POPC   GL251470   6.437  18.225   5.816
 3879POPC   C1A51471   6.743  18.196   6.257
 3879POPC   D2A51472   6.774  17.907   6.655
 3879POPC   C3A51473   6.661  18.116   7.032
 3879POPC   C4A51474   6.799  18.492   7.164
 3879POPC   C1B51475   6.243  18.041   6.204
 3879POPC   C2B51476   6.312  18.161   6.646
 3879POPC   C3B51477   6.149  18.174   7.077
 3879POPC   C4B51478   6.359  18.189   7.510
 3880POPC   NC351479  18.681  30.974   5.585
 3880POPC   PO451480  18.148  30.848   5.137
 3880POPC   GL151481  18.276  30.628   5.674
 3880POPC   GL251482  18.447  30.850   6.001
 3880POPC   C1A51483  18.052  30.601   6.156
 3880POPC   D2A51484  18.266  30.743   6.583
 3880POPC   C3A51485  18.049  30.690   7.006
 3880POPC   C4A51486  18.047  30.580   7.447
 3880POPC   C1B51487  18.757  30.955   6.354
 3880POPC   C2B51488  18.771  30.850   6.832
 3880POPC   C3B51489  18.547  30.665   7.209
 3880POPC   C4B51490  18.552  30.494   7.642
 3881POPC   NC351491  30.138   8.553   5.318
 3881POPC   PO451492  29.681   8.993   5.283
 3881POPC   GL151493  29.795   9.044   5.714
 3881POPC   GL251494  30.141   8.960   5.714
 3881POPC   C1A51495  29.792   9.171   6.136
 3881POPC   D2A51496  29.939   8.914   6.463
 3881POPC   C3A51497  29.821   8.996   6.891
 3881POPC   C4A51498  30.027   9.070   7.288
 3881POPC   C1B51499  30.299   8.731   6.098
 3881POPC   C2B51500  30.289   8.562   6.542
 3881POPC   C3B51501  30.308   8.680   6.989
 3881POPC   C4B51502  30.415   8.754   7.436
 3882POPC   NC351503  34.508  37.330   5.387
 3882POPC   PO451504  34.859  37.871   5.418
 3882POPC   GL151505  34.892  37.692   5.814
 3882POPC   GL251506  34.594  37.527   5.837
 3882POPC   C1A51507  34.729  37.771   6.262
 3882POPC   D2A51508  34.763  37.922   6.681
 3882POPC   C3A51509  34.752  37.863   7.127
 3882POPC   C4A51510  34.432  37.955   7.368
 3882POPC   C1B51511  34.485  37.291   6.189
 3882POPC   C2B51512  34.402  37.483   6.585
 3882POPC   C3B51513  34.561  37.434   6.958
 3882POPC   C4B51514  34.674  37.353   7.363
 3883POPC   NC351515  15.825  22.934   5.400
 3883POPC   PO451516  16.367  22.700   5.693
 3883POPC   GL151517  16.102  23.058   5.832
 3883POPC   GL251518  15.748  22.999   5.890
 3883POPC   C1A51519  16.053  23.175   6.265
 3883POPC   D2A51520  16.177  22.841   6.559
 3883POPC   C3A51521  16.300  22.996   6.945
 3883POPC   C4A51522  16.109  23.178   7.283
 3883POPC   C1B51523  15.673  22.807   6.278
 3883POPC   C2B51524  15.689  23.065   6.649
 3883POPC   C3B51525  15.701  22.919   7.076
 3883POPC   C4B51526  15.772  22.875   7.536
 3884POPC   NC351527  37.581  29.557   5.443
 3884POPC   PO451528  37.844  30.147   5.342
 3884POPC   GL151529  37.491  30.037   5.612
 3884POPC   GL251530  37.677  30.200   5.862
 3884POPC   C1A51531  37.358  29.866   6.046
 3884POPC   D2A51532  37.557  30.031   6.422
 3884POPC   C3A51533  37.448  29.823   6.806
 3884POPC   C4A51534  37.448  30.066   7.212
 3884POPC   C1B51535  37.866  29.778   6.085
 3884POPC   C2B51536  37.857  29.613   6.548
 3884POPC   C3B51537  37.902  29.905   6.971
 3884POPC   C4B51538  37.839  29.741   7.364
 3885POPC   NC351539   4.158  20.210   5.615
 3885POPC   PO451540   4.586  19.775   5.313
 3885POPC   GL151541   4.464  19.815   5.780
 3885POPC   GL251542   4.086  19.771   5.892
 3885POPC   C1A51543   4.445  19.916   6.249
 3885POPC   D2A51544   4.596  19.744   6.663
 3885POPC   C3A51545   4.638  20.095   6.928
 3885POPC   C4A51546   4.406  20.233   7.272
 3885POPC   C1B51547   4.051  19.494   6.270
 3885POPC   C2B51548   4.080  19.667   6.701
 3885POPC   C3B51549   3.984  19.989   7.073
 3885POPC   C4B51550   3.728  19.888   7.465
 3886POPC   NC351551   1.121  41.070   5.021
 3886POPC   PO451552   1.221  40.580   5.456
 3886POPC   GL151553   1.294  40.741   5.856
 3886POPC   GL251554   1.302  41.090   5.813
 3886POPC   C1A51555   1.062  40.853   6.222
 3886POPC   D2A51556   1.103  40.682   6.594
 3886POPC   C3A51557   1.078  40.957   6.909
 3886POPC   C4A51558   1.298  40.803   7.210
 3886POPC   C1B51559   1.513  41.134   6.214
 3886POPC   C2B51560   1.534  41.004   6.647
 3886POPC   C3B51561   1.492  41.245   7.041
 3886POPC   C4B51562   1.503  41.154   7.494
 3887POPC   NC351563   6.097  42.667   5.539
 3887POPC   PO451564   5.906  42.059   5.296
 3887POPC   GL151565   5.882  42.094   5.784
 3887POPC   GL251566   5.921  42.429   5.941
 3887POPC   C1A51567   5.922  42.030   6.227
 3887POPC   D2A51568   6.021  42.320   6.542
 3887POPC   C3A51569   5.851  42.136   6.862
 3887POPC   C4A51570   5.941  42.172   7.260
 3887POPC   C1B51571   6.293  42.531   6.164
 3887POPC   C2B51572   6.483  42.561   6.585
 3887POPC   C3B51573   6.235  42.564   7.000
 3887POPC   C4B51574   6.021  42.707   7.366
 3888POPC   NC351575  32.648  12.978   5.445
 3888POPC   PO451576  31.998  13.122   5.425
 3888POPC   GL151577  32.064  12.749   5.698
 3888POPC   GL251578  32.399  12.791   5.857
 3888POPC   C1A51579  31.997  12.646   6.142
 3888POPC   D2A51580  32.354  12.774   6.384
 3888POPC   C3A51581  32.363  12.875   6.785
 3888POPC   C4A51582  32.312  12.817   7.244
 3888POPC   C1B51583  32.696  13.044   6.112
 3888POPC   C2B51584  32.670  13.235   6.518
 3888POPC   C3B51585  32.782  13.097   6.936
 3888POPC   C4B51586  32.707  13.199   7.351
 3889POPC   NC351587  26.507  38.502   5.354
 3889POPC   PO451588  27.159  38.406   5.352
 3889POPC   GL151589  26.865  38.317   5.708
 3889POPC   GL251590  26.712  38.631   5.804
 3889POPC   C1A51591  26.846  38.282   6.170
 3889POPC   D2A51592  26.733  38.430   6.612
 3889POPC   C3A51593  26.809  38.247   7.008
 3889POPC   C4A51594  27.087  38.283   7.329
 3889POPC   C1B51595  26.670  38.763   6.224
 3889POPC   C2B51596  26.424  38.836   6.602
 3889POPC   C3B51597  26.464  38.659   7.039
 3889POPC   C4B51598  26.575  38.760   7.490
 3890POPC   NC351599  36.194  36.457   5.527
 3890POPC   PO451600  36.069  36.043   5.027
 3890POPC   GL151601  36.057  35.976   5.637
 3890POPC   GL251602  36.252  36.079   5.910
 3890POPC   C1A51603  35.855  35.864   6.123
 3890POPC   D2A51604  35.742  36.045   6.555
 3890POPC   C3A51605  35.904  35.901   6.962
 3890POPC   C4A51606  36.045  35.975   7.376
 3890POPC   C1B51607  36.045  36.334   6.254
 3890POPC   C2B51608  36.101  36.375   6.704
 3890POPC   C3B51609  36.363  36.271   7.036
 3890POPC   C4B51610  36.429  36.467   7.425
 3891POPC   NC351611  37.339   2.494   5.455
 3891POPC   PO451612  37.897   2.972   5.505
 3891POPC   GL151613  37.721   2.837   5.853
 3891POPC   GL251614  37.365   2.789   5.905
 3891POPC   C1A51615  37.833   2.640   6.218
 3891POPC   D2A51616  37.643   2.516   6.598
 3891POPC   C3A51617  37.883   2.424   6.989
 3891POPC   C4A51618  38.013   2.767   7.259
 3891POPC   C1B51619  37.230   2.731   6.344
 3891POPC   C2B51620  37.280   2.796   6.801
 3891POPC   C3B51621  37.498   2.682   7.218
 3891POPC   C4B51622  37.290   2.572   7.636
 3892POPC   NC351623   5.806  34.152   5.427
 3892POPC   PO451624   6.179  33.627   5.398
 3892POPC   GL151625   5.932  33.663   5.756
 3892POPC   GL251626   5.876  33.985   5.903
 3892POPC   C1A51627   5.850  33.553   6.189
 3892POPC   D2A51628   6.091  33.646   6.572
 3892POPC   C3A51629   5.817  33.790   6.970
 3892POPC   C4A51630   5.834  33.731   7.452
 3892POPC   C1B51631   5.813  34.039   6.372
 3892POPC   C2B51632   5.822  34.252   6.787
 3892POPC   C3B51633   6.052  34.212   7.189
 3892POPC   C4B51634   6.148  34.289   7.631
 3893POPC   NC351635   5.201  40.384   5.425
 3893POPC   PO451636   5.049  39.630   5.397
 3893POPC   GL151637   5.197  39.831   5.781
 3893POPC   GL251638   5.202  40.200   5.881
 3893POPC   C1A51639   5.007  39.886   6.196
 3893POPC   D2A51640   4.941  40.056   6.608
 3893POPC   C3A51641   5.203  39.944   6.963
 3893POPC   C4A51642   4.884  40.062   7.226
 3893POPC   C1B51643   5.218  40.370   6.304
 3893POPC   C2B51644   5.328  40.396   6.741
 3893POPC   C3B51645   5.241  40.438   7.171
 3893POPC   C4B51646   5.285  40.354   7.608
 3894POPC   NC351647  28.143  30.945   5.306
 3894POPC   PO451648  28.208  30.360   5.654
 3894POPC   GL151649  28.458  30.620   5.837
 3894POPC   GL251650  28.531  30.899   5.631
 3894POPC   C1A51651  28.348  30.728   6.250
 3894POPC   D2A51652  28.039  30.612   6.518
 3894POPC   C3A51653  28.264  30.601   6.868
 3894POPC   C4A51654  28.172  30.907   7.140
 3894POPC   C1B51655  28.673  31.053   6.012
 3894POPC   C2B51656  28.708  31.106   6.463
 3894POPC   C3B51657  28.626  30.994   6.913
 3894POPC   C4B51658  28.700  30.596   7.171
 3895POPC   NC351659  11.856  29.528   5.388
 3895POPC   PO451660  12.191  30.126   5.295
 3895POPC   GL151661  12.040  30.144   5.746
 3895POPC   GL251662  11.753  29.900   5.765
 3895POPC   C1A51663  12.128  30.043   6.224
 3895POPC   D2A51664  12.354  29.864   6.611
 3895POPC   C3A51665  12.118  29.954   6.986
 3895POPC   C4A51666  11.993  29.997   7.419
 3895POPC   C1B51667  11.589  29.817   6.176
 3895POPC   C2B51668  11.775  29.865   6.579
 3895POPC   C3B51669  11.696  29.653   6.962
 3895POPC   C4B51670  11.542  29.792   7.317
 3896POPC   NC351671  12.678   6.943   5.474
 3896POPC   PO451672  13.043   6.471   5.194
 3896POPC   GL151673  13.057   6.621   5.626
 3896POPC   GL251674  12.884   6.377   5.839
 3896POPC   C1A51675  13.160   6.744   6.069
 3896POPC   D2A51676  13.292   6.474   6.416
 3896POPC   C3A51677  13.079   6.578   6.799
 3896POPC   C4A51678  13.120   6.624   7.238
 3896POPC   C1B51679  12.548   6.259   6.170
 3896POPC   C2B51680  12.615   6.395   6.623
 3896POPC   C3B51681  12.613   6.678   6.988
 3896POPC   C4B51682  12.666   6.710   7.429
 3897POPC   NC351683  41.929  40.066   5.599
 3897POPC   PO451684  41.340  39.743   5.416
 3897POPC   GL151685  41.477  39.917   5.816
 3897POPC   GL251686  41.753  39.661   5.849
 3897POPC   C1A51687  41.454  40.292   6.138
 3897POPC   D2A51688  41.303  40.415   6.546
 3897POPC   C3A51689  41.589  40.264   6.837
 3897POPC   C4A51690  41.581  40.092   7.220
 3897POPC   C1B51691  42.000  39.776   6.184
 3897POPC   C2B51692  41.739  39.924   6.485
 3897POPC   C3B51693  41.674  39.724   6.886
 3897POPC   C4B51694  41.764  39.633   7.327
 3898POPC   NC351695   8.358  20.243   5.376
 3898POPC   PO451696   8.929  20.598   5.451
 3898POPC   GL151697   8.993  20.455   5.849
 3898POPC   GL251698   8.729  20.223   5.769
 3898POPC   C1A51699   9.146  20.603   6.217
 3898POPC   D2A51700   9.032  20.762   6.596
 3898POPC   C3A51701   9.245  20.540   6.917
 3898POPC   C4A51702   8.960  20.674   7.217
 3898POPC   C1B51703   8.718  20.091   6.178
 3898POPC   C2B51704   8.891  20.280   6.532
 3898POPC   C3B51705   8.783  20.307   6.921
 3898POPC   C4B51706   8.781  20.202   7.329
 3899POPC   NC351707  38.472   9.427   5.182
 3899POPC   PO451708  38.089   8.844   5.311
 3899POPC   GL151709  38.220   8.865   5.749
 3899POPC   GL251710  38.483   9.132   5.735
 3899POPC   C1A51711  38.390   8.885   6.193
 3899POPC   D2A51712  38.477   8.682   6.581
 3899POPC   C3A51713  38.201   8.727   6.914
 3899POPC   C4A51714  38.333   8.918   7.255
 3899POPC   C1B51715  38.656   9.327   6.126
 3899POPC   C2B51716  38.526   9.286   6.558
 3899POPC   C3B51717  38.687   9.264   6.959
 3899POPC   C4B51718  38.677   9.275   7.382
 3900POPC   NC351719  20.933   3.435   5.228
 3900POPC   PO451720  20.351   3.726   5.469
 3900POPC   GL151721  20.493   3.590   5.842
 3900POPC   GL251722  20.810   3.633   5.701
 3900POPC   C1A51723  20.352   3.479   6.248
 3900POPC   D2A51724  20.340   3.692   6.648
 3900POPC   C3A51725  20.384   3.396   6.935
 3900POPC   C4A51726  20.486   3.473   7.341
 3900POPC   C1B51727  20.898   3.492   6.131
 3900POPC   C2B51728  20.783   3.476   6.554
 3900POPC   C3B51729  20.841   3.624   6.964
 3900POPC   C4B51730  20.988   3.514   7.371
 3901POPC   NC351731  31.817  28.837   5.082
 3901POPC   PO451732  31.342  28.347   5.217
 3901POPC   GL151733  31.380  28.358   5.673
 3901POPC   GL251734  31.685  28.323   5.831
 3901POPC   C1A51735  31.330  28.465   6.138
 3901POPC   D2A51736  31.504  28.478   6.573
 3901POPC   C3A51737  31.224  28.413   6.972
 3901POPC   C4A51738  31.251  28.144   7.328
 3901POPC   C1B51739  31.886  28.516   6.160
 3901POPC   C2B51740  31.947  28.760   6.507
 3901POPC   C3B51741  31.923  28.582   6.909
 3901POPC   C4B51742  31.655  28.463   7.221
 3902POPC   NC351743  44.643  34.544   5.208
 3902POPC   PO451744  44.769  35.189   5.463
 3902POPC   GL151745  44.620  34.752   5.670
 3902POPC   GL251746  44.477  34.857   5.991
 3902POPC   C1A51747  44.670  34.392   5.997
 3902POPC   D2A51748  44.561  34.458   6.458
 3902POPC   C3A51749  44.621  34.351   6.857
 3902POPC   C4A51750  44.704  34.346   7.256
 3902POPC   C1B51751  44.180  34.709   6.276
 3902POPC   C2B51752  44.186  34.782   6.706
 3902POPC   C3B51753  44.458  34.840   7.024
 3902POPC   C4B51754  44.464  34.749   7.435
 3903POPC   NC351755  32.536   1.332   5.187
 3903POPC   PO451756  33.164   1.516   5.501
 3903POPC   GL151757  33.119   1.273   5.875
 3903POPC   GL251758  32.883   1.506   6.080
 3903POPC   C1A51759  32.994   1.051   6.262
 3903POPC   D2A51760  32.809   1.203   6.632
 3903POPC   C3A51761  32.943   1.089   7.025
 3903POPC   C4A51762  32.788   0.922   7.418
 3903POPC   C1B51763  33.257   1.486   6.336
 3903POPC   C2B51764  33.412   1.178   6.628
 3903POPC   C3B51765  33.530   1.272   7.050
 3903POPC   C4B51766  33.412   1.603   7.356
 3904POPC   NC351767  35.072  22.620   5.207
 3904POPC   PO451768  35.554  22.173   5.452
 3904POPC   GL151769  35.427  22.330   5.840
 3904POPC   GL251770  35.118  22.127   5.866
 3904POPC   C1A51771  35.397  22.239   6.294
 3904POPC   D2A51772  35.173  22.218   6.696
 3904POPC   C3A51773  35.381  22.292   7.040
 3904POPC   C4A51774  35.717  22.006   7.073
 3904POPC   C1B51775  34.898  22.296   6.242
 3904POPC   C2B51776  34.796  22.532   6.609
 3904POPC   C3B51777  34.826  22.369   7.034
 3904POPC   C4B51778  35.023  22.474   7.408
 3905POPC   NC351779  20.196   5.075   5.331
 3905POPC   PO451780  20.756   5.380   5.518
 3905POPC   GL151781  20.539   5.088   5.801
 3905POPC   GL251782  20.191   5.246   5.811
 3905POPC   C1A51783  20.716   4.939   6.233
 3905POPC   D2A51784  20.813   4.727   6.649
 3905POPC   C3A51785  20.726   4.975   7.026
 3905POPC   C4A51786  20.804   5.137   7.451
 3905POPC   C1B51787  20.224   5.039   6.228
 3905POPC   C2B51788  20.307   4.875   6.642
 3905POPC   C3B51789  20.215   5.008   7.069
 3905POPC   C4B51790  20.369   4.845   7.452
 3906POPC   NC351791  10.498   7.438   5.321
 3906POPC   PO451792  11.119   7.303   5.469
 3906POPC   GL151793  10.882   7.503   5.820
 3906POPC   GL251794  10.512   7.523   5.827
 3906POPC   C1A51795  10.762   7.343   6.239
 3906POPC   D2A51796  10.538   7.329   6.630
 3906POPC   C3A51797  10.669   7.528   6.979
 3906POPC   C4A51798  10.536   7.250   7.225
 3906POPC   C1B51799  10.265   7.521   6.229
 3906POPC   C2B51800  10.086   7.583   6.672
 3906POPC   C3B51801  10.170   7.626   7.137
 3906POPC   C4B51802   9.986   7.760   7.580
 3907POPC   NC351803  32.290   2.195   5.535
 3907POPC   PO451804  32.213   1.505   5.510
 3907POPC   GL151805  32.298   1.711   5.859
 3907POPC   GL251806  31.963   1.839   5.819
 3907POPC   C1A51807  32.543   1.938   6.159
 3907POPC   D2A51808  32.427   2.153   6.532
 3907POPC   C3A51809  32.464   1.958   6.922
 3907POPC   C4A51810  32.309   2.251   7.239
 3907POPC   C1B51811  32.033   1.979   6.226
 3907POPC   C2B51812  32.016   1.850   6.628
 3907POPC   C3B51813  31.951   2.096   6.921
 3907POPC   C4B51814  31.860   2.024   7.315
 3908POPC   NC351815   5.826   0.760   5.406
 3908POPC   PO451816   5.839   0.165   5.602
 3908POPC   GL151817   5.838   0.476   5.873
 3908POPC   GL251818   6.062   0.765   5.852
 3908POPC   C1A51819   5.556   0.449   6.207
 3908POPC   D2A51820   5.547   0.624   6.592
 3908POPC   C3A51821   5.687   0.373   6.916
 3908POPC   C4A51822   5.355   0.278   7.164
 3908POPC   C1B51823   5.869   0.844   6.240
 3908POPC   C2B51824   6.053   0.630   6.591
 3908POPC   C3B51825   6.260   0.771   6.949
 3908POPC   C4B51826   6.117   0.469   7.235
 3909POPC   NC351827  22.532   6.140   5.221
 3909POPC   PO451828  22.982   5.725   5.485
 3909POPC   GL151829  22.974   5.774   5.898
 3909POPC   GL251830  22.619   5.686   5.862
 3909POPC   C1A51831  23.072   5.903   6.331
 3909POPC   D2A51832  23.010   5.587   6.667
 3909POPC   C3A51833  23.294   5.685   6.971
 3909POPC   C4A51834  23.206   6.017   7.201
 3909POPC   C1B51835  22.630   5.632   6.293
 3909POPC   C2B51836  22.630   5.929   6.662
 3909POPC   C3B51837  22.597   5.986   7.123
 3909POPC   C4B51838  22.360   5.907   7.531
 3910POPC   NC351839  29.754  24.215   5.497
 3910POPC   PO451840  30.135  24.831   5.480
 3910POPC   GL151841  29.999  24.578   5.802
 3910POPC   GL251842  29.684  24.664   5.709
 3910POPC   C1A51843  30.165  24.502   6.212
 3910POPC   D2A51844  30.351  24.683   6.581
 3910POPC   C3A51845  30.226  24.411   6.909
 3910POPC   C4A51846  30.240  24.385   7.342
 3910POPC   C1B51847  29.589  24.708   6.124
 3910POPC   C2B51848  29.714  24.526   6.505
 3910POPC   C3B51849  29.824  24.729   6.848
 3910POPC   C4B51850  29.848  24.741   7.261
 3911POPC   NC351851  40.946  29.776   5.517
 3911POPC   PO451852  41.599  30.109   5.445
 3911POPC   GL151853  41.411  29.888   5.795
 3911POPC   GL251854  41.367  30.175   5.922
 3911POPC   C1A51855  41.425  29.860   6.289
 3911POPC   D2A51856  41.715  29.742   6.646
 3911POPC   C3A51857  41.553  29.874   7.058
 3911POPC   C4A51858  41.320  29.577   7.314
 3911POPC   C1B51859  41.649  30.350   6.214
 3911POPC   C2B51860  41.599  30.236   6.633
 3911POPC   C3B51861  41.686  30.362   7.025
 3911POPC   C4B51862  41.718  30.201   7.428
 3912POPC   NC351863   0.851  13.647   5.395
 3912POPC   PO451864   1.478  13.520   5.418
 3912POPC   GL151865   1.393  13.480   5.838
 3912POPC   GL251866   1.124  13.705   5.823
 3912POPC   C1A51867   1.355  13.628   6.275
 3912POPC   D2A51868   1.154  13.861   6.601
 3912POPC   C3A51869   1.346  13.837   6.994
 3912POPC   C4A51870   1.517  13.483   7.250
 3912POPC   C1B51871   0.872  13.920   6.112
 3912POPC   C2B51872   0.823  14.220   6.478
 3912POPC   C3B51873   0.790  14.052   6.908
 3912POPC   C4B51874   0.926  13.726   7.228
 3913POPC   NC351875  38.341  29.462   5.315
 3913POPC   PO451876  38.684  28.821   5.425
 3913POPC   GL151877  38.680  29.055   5.769
 3913POPC   GL251878  38.320  29.160   5.789
 3913POPC   C1A51879  38.715  29.362   6.080
 3913POPC   D2A51880  38.470  29.352   6.455
 3913POPC   C3A51881  38.735  29.389   6.831
 3913POPC   C4A51882  38.682  29.387   7.267
 3913POPC   C1B51883  38.344  28.817   6.124
 3913POPC   C2B51884  38.300  28.639   6.549
 3913POPC   C3B51885  38.429  28.850   6.907
 3913POPC   C4B51886  38.489  28.853   7.309
 3914POPC   NC351887  40.446  30.297   5.610
 3914POPC   PO451888  39.882  29.987   5.290
 3914POPC   GL151889  39.983  30.055   5.729
 3914POPC   GL251890  40.092  29.748   5.861
 3914POPC   C1A51891  39.940  30.071   6.210
 3914POPC   D2A51892  40.150  30.175   6.608
 3914POPC   C3A51893  39.888  30.060   6.924
 3914POPC   C4A51894  39.928  29.905   7.361
 3914POPC   C1B51895  40.206  29.472   6.180
 3914POPC   C2B51896  40.079  29.304   6.562
 3914POPC   C3B51897  40.036  29.589   6.896
 3914POPC   C4B51898  40.394  29.674   7.163
 3915POPC   NC351899  24.187  38.823   5.293
 3915POPC   PO451900  24.080  39.472   5.497
 3915POPC   GL151901  23.759  39.392   5.807
 3915POPC   GL251902  23.798  39.032   5.831
 3915POPC   C1A51903  23.682  39.291   6.251
 3915POPC   D2A51904  23.479  39.067   6.599
 3915POPC   C3A51905  23.683  39.220   6.967
 3915POPC   C4A51906  23.682  39.564   7.283
 3915POPC   C1B51907  23.940  38.805   6.207
 3915POPC   C2B51908  23.947  38.846   6.665
 3915POPC   C3B51909  23.994  38.836   7.108
 3915POPC   C4B51910  23.932  39.115   7.446
 3916POPC   NC351911  34.178  23.024   5.383
 3916POPC   PO451912  34.877  22.984   5.447
 3916POPC   GL151913  34.550  22.881   5.746
 3916POPC   GL251914  34.395  23.222   5.822
 3916POPC   C1A51915  34.585  22.762   6.197
 3916POPC   D2A51916  34.586  23.027   6.579
 3916POPC   C3A51917  34.580  22.810   6.981
 3916POPC   C4A51918  34.331  22.532   7.218
 3916POPC   C1B51919  34.818  23.214   6.066
 3916POPC   C2B51920  35.080  23.170   6.443
 3916POPC   C3B51921  35.083  23.330   6.864
 3916POPC   C4B51922  34.852  23.142   7.225
 3917POPC   NC351923  29.012  16.121   5.158
 3917POPC   PO451924  29.406  16.385   5.594
 3917POPC   GL151925  29.242  15.981   5.735
 3917POPC   GL251926  28.995  16.169   5.844
 3917POPC   C1A51927  29.168  15.709   6.114
 3917POPC   D2A51928  28.994  15.640   6.553
 3917POPC   C3A51929  29.178  15.574   6.973
 3917POPC   C4A51930  29.318  15.892   7.251
 3917POPC   C1B51931  29.269  16.197   6.215
 3917POPC   C2B51932  29.486  16.480   6.481
 3917POPC   C3B51933  29.562  16.344   6.899
 3917POPC   C4B51934  29.378  16.393   7.310
 3918POPC   NC351935  42.172  13.982   5.389
 3918POPC   PO451936  42.417  13.337   5.332
 3918POPC   GL151937  42.498  13.622   5.667
 3918POPC   GL251938  42.179  13.664   5.804
 3918POPC   C1A51939  42.547  13.519   6.112
 3918POPC   D2A51940  42.350  13.515   6.524
 3918POPC   C3A51941  42.483  13.761   6.860
 3918POPC   C4A51942  42.416  13.620   7.261
 3918POPC   C1B51943  41.989  13.695   6.228
 3918POPC   C2B51944  42.003  13.879   6.639
 3918POPC   C3B51945  41.970  13.737   7.068
 3918POPC   C4B51946  42.021  13.788   7.560
 3919POPC   NC351947  42.744   1.002   5.067
 3919POPC   PO451948  42.137   0.841   5.361
 3919POPC   GL151949  42.192   1.015   5.796
 3919POPC   GL251950  42.422   1.296   5.797
 3919POPC   C1A51951  42.267   1.020   6.248
 3919POPC   D2A51952  42.352   0.808   6.633
 3919POPC   C3A51953  42.388   1.058   7.017
 3919POPC   C4A51954  42.219   1.033   7.436
 3919POPC   C1B51955  42.483   1.505   6.192
 3919POPC   C2B51956  42.535   1.334   6.595
 3919POPC   C3B51957  42.522   1.556   6.981
 3919POPC   C4B51958  42.479   1.454   7.379
 3920POPC   NC351959  36.742  30.094   5.354
 3920POPC   PO451960  37.111  29.428   5.450
 3920POPC   GL151961  36.973  29.835   5.722
 3920POPC   GL251962  37.044  30.225   5.791
 3920POPC   C1A51963  36.661  30.000   6.066
 3920POPC   D2A51964  36.377  29.911   6.430
 3920POPC   C3A51965  36.566  30.078   6.809
 3920POPC   C4A51966  36.550  29.908   7.218
 3920POPC   C1B51967  37.090  30.267   6.243
 3920POPC   C2B51968  37.014  29.938   6.547
 3920POPC   C3B51969  37.005  29.919   7.006
 3920POPC   C4B51970  36.886  30.307   7.188
 3921POPC   NC351971  30.618   6.592   5.400
 3921POPC   PO451972  31.228   6.943   5.408
 3921POPC   GL151973  30.892   6.910   5.796
 3921POPC   GL251974  30.633   6.636   5.889
 3921POPC   C1A51975  30.694   6.979   6.236
 3921POPC   D2A51976  30.497   6.679   6.514
 3921POPC   C3A51977  30.746   6.691   6.873
 3921POPC   C4A51978  30.622   6.855   7.247
 3921POPC   C1B51979  30.866   6.304   6.063
 3921POPC   C2B51980  30.848   6.226   6.495
 3921POPC   C3B51981  30.545   6.232   6.843
 3921POPC   C4B51982  30.472   6.346   7.281
 3922POPC   NC351983   4.235  29.292   5.450
 3922POPC   PO451984   4.698  28.859   5.525
 3922POPC   GL151985   4.338  28.901   5.842
 3922POPC   GL251986   3.961  29.026   5.819
 3922POPC   C1A51987   4.466  28.979   6.260
 3922POPC   D2A51988   4.532  29.296   6.575
 3922POPC   C3A51989   4.617  29.117   6.962
 3922POPC   C4A51990   4.355  29.036   7.289
 3922POPC   C1B51991   3.971  28.858   6.254
 3922POPC   C2B51992   4.135  28.865   6.699
 3922POPC   C3B51993   3.906  28.889   7.090
 3922POPC   C4B51994   3.912  28.950   7.537
 3923POPC   NC351995  44.210  42.737   5.370
 3923POPC   PO451996  43.770  42.278   5.253
 3923POPC   GL151997  43.881  42.493   5.694
 3923POPC   GL251998  44.130  42.733   5.872
 3923POPC   C1A51999  43.864  42.349   6.140
 3923POPC   D2A52000  43.647  42.279   6.542
 3923POPC   C3A52001  43.919  42.220   6.901
 3923POPC   C4A52002  43.825  42.299   7.318
 3923POPC   C1B52003  44.117  42.754   6.338
 3923POPC   C2B52004  44.044  42.693   6.780
 3923POPC   C3B52005  44.224  42.553   7.159
 3923POPC   C4B52006  44.364  42.776   7.479
 3924POPC   NC352007  40.826   9.456   5.110
 3924POPC   PO452008  40.569   9.942   5.559
 3924POPC   GL152009  40.715   9.847   5.975
 3924POPC   GL252010  40.625   9.522   6.094
 3924POPC   C1A52011  40.972   9.950   6.293
 3924POPC   D2A52012  41.257   9.955   6.631
 3924POPC   C3A52013  41.022   9.714   6.918
 3924POPC   C4A52014  40.977   9.920   7.288
 3924POPC   C1B52015  40.235   9.363   6.189
 3924POPC   C2B52016  40.320   9.544   6.564
 3924POPC   C3B52017  40.469   9.389   6.941
 3924POPC   C4B52018  40.592   9.615   7.262
 3925POPC   NC352019  25.823  32.011   5.357
 3925POPC   PO452020  25.930  32.680   5.471
 3925POPC   GL152021  25.815  32.323   5.755
 3925POPC   GL252022  26.094  32.076   5.813
 3925POPC   C1A52023  25.726  32.075   6.150
 3925POPC   D2A52024  26.005  32.028   6.538
 3925POPC   C3A52025  25.825  32.076   6.967
 3925POPC   C4A52026  25.796  32.404   7.317
 3925POPC   C1B52027  26.114  32.411   6.154
 3925POPC   C2B52028  26.233  32.547   6.580
 3925POPC   C3B52029  26.239  32.362   7.012
 3925POPC   C4B52030  26.323  32.490   7.450
 3926POPC   NC352031  18.108   3.774   5.534
 3926POPC   PO452032  18.679   3.407   5.342
 3926POPC   GL152033  18.497   3.520   5.750
 3926POPC   GL252034  18.361   3.211   5.756
 3926POPC   C1A52035  18.245   3.600   6.171
 3926POPC   D2A52036  18.134   3.858   6.578
 3926POPC   C3A52037  18.312   3.856   7.021
 3926POPC   C4A52038  18.107   3.639   7.383
 3926POPC   C1B52039  18.176   3.086   6.142
 3926POPC   C2B52040  18.318   3.166   6.545
 3926POPC   C3B52041  18.230   3.348   6.939
 3926POPC   C4B52042  18.481   3.281   7.298
 3927POPC   NC352043  42.960   5.879   5.395
 3927POPC   PO452044  43.526   5.655   5.501
 3927POPC   GL152045  43.348   5.725   5.878
 3927POPC   GL252046  43.654   5.813   6.006
 3927POPC   C1A52047  43.254   5.770   6.350
 3927POPC   D2A52048  43.021   5.790   6.755
 3927POPC   C3A52049  43.232   6.009   7.125
 3927POPC   C4A52050  43.578   5.889   7.416
 3927POPC   C1B52051  43.510   6.195   6.233
 3927POPC   C2B52052  43.396   6.189   6.656
 3927POPC   C3B52053  43.392   6.471   6.994
 3927POPC   C4B52054  43.489   6.401   7.423
 3928POPC   NC352055  34.178   2.307   5.489
 3928POPC   PO452056  33.935   1.660   5.400
 3928POPC   GL152057  33.843   1.980   5.785
 3928POPC   GL252058  34.059   2.225   5.973
 3928POPC   C1A52059  33.562   2.008   6.194
 3928POPC   D2A52060  33.341   1.911   6.623
 3928POPC   C3A52061  33.516   2.067   6.967
 3928POPC   C4A52062  33.703   2.022   7.313
 3928POPC   C1B52063  34.044   1.996   6.348
 3928POPC   C2B52064  33.939   2.086   6.724
 3928POPC   C3B52065  34.094   2.258   7.083
 3928POPC   C4B52066  34.244   1.924   7.257
 3929POPC   NC352067   8.225  19.389   5.152
 3929POPC   PO452068   8.160  19.891   5.609
 3929POPC   GL152069   8.222  19.887   6.001
 3929POPC   GL252070   8.259  20.263   5.933
 3929POPC   C1A52071   8.189  19.606   6.363
 3929POPC   D2A52072   8.439  19.501   6.698
 3929POPC   C3A52073   8.222  19.637   7.070
 3929POPC   C4A52074   8.343  19.452   7.479
 3929POPC   C1B52075   8.232  20.238   6.358
 3929POPC   C2B52076   8.404  20.037   6.672
 3929POPC   C3B52077   8.315  20.163   7.068
 3929POPC   C4B52078   7.983  20.228   7.310
 3930POPC   NC352079   1.495   6.217   5.494
 3930POPC   PO452080   1.170   5.738   5.144
 3930POPC   GL152081   1.295   5.748   5.637
 3930POPC   GL252082   1.581   5.638   5.833
 3930POPC   C1A52083   1.251   5.927   6.111
 3930POPC   D2A52084   0.991   6.177   6.403
 3930POPC   C3A52085   1.000   5.993   6.807
 3930POPC   C4A52086   1.256   5.946   7.157
 3930POPC   C1B52087   1.450   5.475   6.235
 3930POPC   C2B52088   1.339   5.626   6.639
 3930POPC   C3B52089   1.515   5.496   7.035
 3930POPC   C4B52090   1.389   5.569   7.455
 3931POPC   NC352091   7.201  13.779   5.367
 3931POPC   PO452092   7.500  13.190   5.481
 3931POPC   GL152093   7.470  13.492   5.809
 3931POPC   GL252094   7.389  13.832   5.828
 3931POPC   C1A52095   7.281  13.529   6.225
 3931POPC   D2A52096   7.325  13.759   6.602
 3931POPC   C3A52097   7.282  13.501   6.961
 3931POPC   C4A52098   6.981  13.227   7.214
 3931POPC   C1B52099   7.648  13.917   6.206
 3931POPC   C2B52100   7.634  14.190   6.574
 3931POPC   C3B52101   7.442  14.085   7.000
 3931POPC   C4B52102   7.139  13.933   7.320
 3932POPC   NC352103  21.604  38.896   5.462
 3932POPC   PO452104  21.269  39.577   5.342
 3932POPC   GL152105  21.335  39.283   5.690
 3932POPC   GL252106  21.493  39.556   5.844
 3932POPC   C1A52107  21.441  39.058   6.083
 3932POPC   D2A52108  21.746  39.034   6.436
 3932POPC   C3A52109  21.550  38.958   6.854
 3932POPC   C4A52110  21.599  39.233   7.199
 3932POPC   C1B52111  21.113  39.473   6.090
 3932POPC   C2B52112  21.018  39.463   6.526
 3932POPC   C3B52113  21.221  39.405   6.919
 3932POPC   C4B52114  21.098  39.427   7.378
 3933POPC   NC352115  33.439   1.908   5.471
 3933POPC   PO452116  32.727   1.965   5.449
 3933POPC   GL152117  32.996   1.992   5.789
 3933POPC   GL252118  32.832   2.288   5.915
 3933POPC   C1A52119  33.051   1.950   6.225
 3933POPC   D2A52120  32.820   1.707   6.555
 3933POPC   C3A52121  33.032   1.660   6.958
 3933POPC   C4A52122  33.104   2.023   7.241
 3933POPC   C1B52123  32.841   2.393   6.316
 3933POPC   C2B52124  32.902   2.190   6.692
 3933POPC   C3B52125  32.748   2.371   7.037
 3933POPC   C4B52126  32.839   2.638   7.332
 3934POPC   NC352127  39.280  37.757   5.534
 3934POPC   PO452128  38.621  37.810   5.707
 3934POPC   GL152129  38.965  37.517   5.866
 3934POPC   GL252130  39.101  37.830   6.007
 3934POPC   C1A52131  39.405  37.421   6.109
 3934POPC   D2A52132  39.616  37.474   6.533
 3934POPC   C3A52133  39.301  37.590   6.846
 3934POPC   C4A52134  39.156  37.375   7.197
 3934POPC   C1B52135  39.488  37.997   6.187
 3934POPC   C2B52136  39.709  37.988   6.594
 3934POPC   C3B52137  39.731  37.791   6.997
 3934POPC   C4B52138  39.416  37.946   7.250
 3935POPC   NC352139  11.870   8.574   5.499
 3935POPC   PO452140  12.345   9.046   5.507
 3935POPC   GL152141  12.175   8.866   5.887
 3935POPC   GL252142  11.885   9.009   5.802
 3935POPC   C1A52143  12.116   8.840   6.355
 3935POPC   D2A52144  12.124   8.454   6.629
 3935POPC   C3A52145  12.221   8.669   7.011
 3935POPC   C4A52146  12.147   9.096   7.055
 3935POPC   C1B52147  11.721   9.125   6.175
 3935POPC   C2B52148  11.633   9.016   6.575
 3935POPC   C3B52149  11.607   9.244   6.935
 3935POPC   C4B52150  11.676   9.122   7.321
 3936POPC   NC352151  16.712   6.525   5.338
 3936POPC   PO452152  16.849   7.118   5.476
 3936POPC   GL152153  16.751   6.834   5.807
 3936POPC   GL252154  16.415   6.710   5.915
 3936POPC   C1A52155  16.916   6.732   6.215
 3936POPC   D2A52156  17.190   6.731   6.565
 3936POPC   C3A52157  16.996   6.701   6.937
 3936POPC   C4A52158  16.792   7.024   7.077
 3936POPC   C1B52159  16.426   6.834   6.337
 3936POPC   C2B52160  16.566   6.601   6.695
 3936POPC   C3B52161  16.510   6.612   7.152
 3936POPC   C4B52162  16.293   6.399   7.471
 3937POPC   NC352163  41.735  39.500   5.372
 3937POPC   PO452164  41.258  38.976   5.425
 3937POPC   GL152165  41.438  39.257   5.737
 3937POPC   GL252166  41.789  39.107   5.702
 3937POPC   C1A52167  41.368  39.485   6.153
 3937POPC   D2A52168  41.216  39.384   6.598
 3937POPC   C3A52169  41.282  39.474   7.072
 3937POPC   C4A52170  41.356  39.377   7.539
 3937POPC   C1B52171  41.885  39.249   6.106
 3937POPC   C2B52172  41.759  39.410   6.488
 3937POPC   C3B52173  41.623  39.192   6.824
 3937POPC   C4B52174  41.671  39.139   7.230
 3938POPC   NC352175  34.283  22.030   5.396
 3938POPC   PO452176  34.729  22.419   5.462
 3938POPC   GL152177  34.596  22.190   5.824
 3938POPC   GL252178  34.704  21.838   5.716
 3938POPC   C1A52179  34.387  22.272   6.257
 3938POPC   D2A52180  34.313  22.383   6.721
 3938POPC   C3A52181  34.425  22.054   7.061
 3938POPC   C4A52182  34.628  22.147   7.471
 3938POPC   C1B52183  34.686  21.811   6.172
 3938POPC   C2B52184  34.693  22.001   6.606
 3938POPC   C3B52185  34.901  21.845   6.966
 3938POPC   C4B52186  35.105  21.968   7.321
 3939POPC   NC352187  33.761  23.782   5.397
 3939POPC   PO452188  34.276  23.451   5.257
 3939POPC   GL152189  34.114  23.672   5.759
 3939POPC   GL252190  33.690  23.670   5.871
 3939POPC   C1A52191  34.005  23.701   6.251
 3939POPC   D2A52192  34.176  23.693   6.674
 3939POPC   C3A52193  33.989  23.798   7.075
 3939POPC   C4A52194  34.177  23.971   7.441
 3939POPC   C1B52195  33.443  23.621   6.243
 3939POPC   C2B52196  33.582  23.827   6.616
 3939POPC   C3B52197  33.470  23.901   7.032
 3939POPC   C4B52198  33.516  23.535   7.271
 3940POPC   NC352199   4.519   6.491   5.295
 3940POPC   PO452200   3.885   6.472   5.363
 3940POPC   GL152201   4.134   6.373   5.764
 3940POPC   GL252202   4.350   6.652   5.920
 3940POPC   C1A52203   4.076   6.387   6.245
 3940POPC   D2A52204   4.398   6.418   6.584
 3940POPC   C3A52205   4.385   6.708   6.919
 3940POPC   C4A52206   4.290   6.458   7.317
 3940POPC   C1B52207   4.520   6.842   6.348
 3940POPC   C2B52208   4.867   6.617   6.629
 3940POPC   C3B52209   4.785   6.454   7.067
 3940POPC   C4B52210   4.634   6.787   7.416
 3941POPC   NC352211  21.064  25.281   5.539
 3941POPC   PO452212  21.428  25.701   5.142
 3941POPC   GL152213  21.510  25.487   5.699
 3941POPC   GL252214  21.386  25.609   6.054
 3941POPC   C1A52215  21.488  25.131   6.071
 3941POPC   D2A52216  21.568  25.282   6.521
 3941POPC   C3A52217  21.489  25.087   6.916
 3941POPC   C4A52218  21.661  25.250   7.306
 3941POPC   C1B52219  21.095  25.362   6.320
 3941POPC   C2B52220  21.004  25.281   6.758
 3941POPC   C3B52221  21.045  25.265   7.198
 3941POPC   C4B52222  20.685  25.362   7.433
 3942POPC   NC352223  28.925   3.462   5.294
 3942POPC   PO452224  29.391   3.884   5.486
 3942POPC   GL152225  29.117   3.629   5.779
 3942POPC   GL252226  28.893   3.308   5.781
 3942POPC   C1A52227  29.247   3.441   6.166
 3942POPC   D2A52228  29.295   3.614   6.554
 3942POPC   C3A52229  29.361   3.365   6.881
 3942POPC   C4A52230  29.344   3.528   7.274
 3942POPC   C1B52231  28.734   3.385   6.168
 3942POPC   C2B52232  28.905   3.289   6.567
 3942POPC   C3B52233  28.892   3.550   6.915
 3942POPC   C4B52234  28.849   3.378   7.306
 3943POPC   NC352235  37.102   1.757   5.458
 3943POPC   PO452236  36.625   2.239   5.505
 3943POPC   GL152237  36.798   1.978   5.779
 3943POPC   GL252238  37.146   2.128   5.798
 3943POPC   C1A52239  36.773   1.680   6.110
 3943POPC   D2A52240  36.957   1.683   6.521
 3943POPC   C3A52241  36.698   1.623   6.880
 3943POPC   C4A52242  36.756   1.752   7.304
 3943POPC   C1B52243  36.971   2.153   6.217
 3943POPC   C2B52244  36.945   2.346   6.595
 3943POPC   C3B52245  36.879   2.100   6.942
 3943POPC   C4B52246  36.971   2.245   7.345
 3944POPC   NC352247  40.352  32.699   5.398
 3944POPC   PO452248  39.695  33.013   5.500
 3944POPC   GL152249  39.889  33.059   5.917
 3944POPC   GL252250  40.238  33.062   5.803
 3944POPC   C1A52251  39.858  33.021   6.381
 3944POPC   D2A52252  40.103  32.722   6.677
 3944POPC   C3A52253  40.083  32.842   7.111
 3944POPC   C4A52254  39.640  32.768   7.146
 3944POPC   C1B52255  40.354  32.941   6.220
 3944POPC   C2B52256  40.297  33.203   6.584
 3944POPC   C3B52257  40.370  33.413   6.964
 3944POPC   C4B52258  40.245  33.321   7.362
 3945POPC   NC352259  32.224   0.675   5.453
 3945POPC   PO452260  32.308   0.049   5.412
 3945POPC   GL152261  32.267   0.273   5.794
 3945POPC   GL252262  32.602   0.397   5.728
 3945POPC   C1A52263  32.173   0.271   6.263
 3945POPC   D2A52264  32.265   0.092   6.702
 3945POPC   C3A52265  32.180   0.377   7.066
 3945POPC   C4A52266  31.963   0.386   7.486
 3945POPC   C1B52267  32.505   0.670   6.106
 3945POPC   C2B52268  32.571   0.738   6.585
 3945POPC   C3B52269  32.426   0.834   7.043
 3945POPC   C4B52270  32.418   0.604   7.467
 3946POPC   NC352271  36.214  37.694   5.090
 3946POPC   PO452272  36.022  37.544   5.688
 3946POPC   GL152273  36.079  37.855   5.948
 3946POPC   GL252274  35.767  38.065   5.942
 3946POPC   C1A52275  36.277  37.764   6.341
 3946POPC   D2A52276  36.510  37.501   6.639
 3946POPC   C3A52277  36.350  37.786   6.939
 3946POPC   C4A52278  35.974  37.717   7.139
 3946POPC   C1B52279  35.754  37.861   6.335
 3946POPC   C2B52280  35.920  37.972   6.687
 3946POPC   C3B52281  35.686  38.099   7.007
 3946POPC   C4B52282  35.808  38.162   7.389
 3947POPC   NC352283  25.721  20.122   5.474
 3947POPC   PO452284  26.122  19.605   5.240
 3947POPC   GL152285  26.040  19.751   5.716
 3947POPC   GL252286  25.751  19.677   5.925
 3947POPC   C1A52287  26.034  20.090   6.111
 3947POPC   D2A52288  25.892  20.280   6.548
 3947POPC   C3A52289  25.956  20.117   6.984
 3947POPC   C4A52290  26.150  20.137   7.399
 3947POPC   C1B52291  26.169  19.609   6.195
 3947POPC   C2B52292  26.089  19.673   6.645
 3947POPC   C3B52293  25.837  19.608   7.035
 3947POPC   C4B52294  25.872  19.718   7.484
 3948POPC   NC352295  29.729  25.083   5.417
 3948POPC   PO452296  30.038  25.726   5.331
 3948POPC   GL152297  30.008  25.444   5.694
 3948POPC   GL252298  29.769  25.656   5.793
 3948POPC   C1A52299  29.874  25.200   6.094
 3948POPC   D2A52300  29.874  25.348   6.548
 3948POPC   C3A52301  29.980  25.195   6.980
 3948POPC   C4A52302  30.293  24.897   7.059
 3948POPC   C1B52303  29.598  25.626   6.186
 3948POPC   C2B52304  29.616  25.822   6.561
 3948POPC   C3B52305  29.707  25.650   6.934
 3948POPC   C4B52306  29.651  25.438   7.299
 3949POPC   NC352307   8.008  35.796   5.670
 3949POPC   PO452308   8.527  36.148   5.393
 3949POPC   GL152309   8.447  36.003   5.810
 3949POPC   GL252310   8.261  36.259   5.925
 3949POPC   C1A52311   8.375  35.949   6.279
 3949POPC   D2A52312   8.251  36.269   6.631
 3949POPC   C3A52313   8.111  35.971   6.869
 3949POPC   C4A52314   8.400  36.036   7.142
 3949POPC   C1B52315   7.917  36.169   6.294
 3949POPC   C2B52316   7.704  36.474   6.525
 3949POPC   C3B52317   7.720  36.363   6.912
 3949POPC   C4B52318   7.961  36.252   7.280
 3950POPC   NC352319  40.500  43.659   5.370
 3950POPC   PO452320  40.177  44.249   5.504
 3950POPC   GL152321  40.606  44.084   5.712
 3950POPC   GL252322  40.649  43.745   5.826
 3950POPC   C1A52323  40.881  44.045   6.151
 3950POPC   D2A52324  40.750  44.274   6.530
 3950POPC   C3A52325  40.735  44.117   6.937
 3950POPC   C4A52326  40.947  44.161   7.324
 3950POPC   C1B52327  40.650  43.598   6.225
 3950POPC   C2B52328  40.883  43.737   6.603
 3950POPC   C3B52329  41.071  43.700   7.017
 3950POPC   C4B52330  40.931  43.682   7.459
 3951POPC   NC352331  27.258  33.980   5.177
 3951POPC   PO452332  27.660  33.450   5.308
 3951POPC   GL152333  27.671  33.593   5.726
 3951POPC   GL252334  27.525  33.926   5.731
 3951POPC   C1A52335  27.584  33.631   6.158
 3951POPC   D2A52336  27.738  33.851   6.513
 3951POPC   C3A52337  27.619  33.595   6.865
 3951POPC   C4A52338  27.588  33.706   7.278
 3951POPC   C1B52339  27.603  34.160   6.088
 3951POPC   C2B52340  27.383  34.256   6.476
 3951POPC   C3B52341  27.456  34.086   6.891
 3951POPC   C4B52342  27.740  34.180   7.218
 3952POPC   NC352343  38.134  25.563   5.154
 3952POPC   PO452344  37.634  25.145   5.368
 3952POPC   GL152345  37.629  25.333   5.764
 3952POPC   GL252346  37.937  25.484   5.705
 3952POPC   C1A52347  37.537  25.278   6.205
 3952POPC   D2A52348  37.798  25.305   6.563
 3952POPC   C3A52349  37.637  25.225   6.951
 3952POPC   C4A52350  37.425  25.311   7.313
 3952POPC   C1B52351  37.932  25.641   6.149
 3952POPC   C2B52352  38.192  25.646   6.543
 3952POPC   C3B52353  37.950  25.664   6.907
 3952POPC   C4B52354  37.887  25.551   7.322
 3953POPC   NC352355  38.472  16.072   5.067
 3953POPC   PO452356  38.202  15.984   5.670
 3953POPC   GL152357  38.318  16.143   6.022
 3953POPC   GL252358  38.642  16.033   6.077
 3953POPC   C1A52359  38.215  16.109   6.447
 3953POPC   D2A52360  38.250  16.214   6.881
 3953POPC   C3A52361  38.501  15.861   6.966
 3953POPC   C4A52362  38.709  15.548   7.169
 3953POPC   C1B52363  38.610  16.423   6.333
 3953POPC   C2B52364  38.768  16.474   6.744
 3953POPC   C3B52365  38.676  16.321   7.174
 3953POPC   C4B52366  38.438  16.459   7.570
 3954POPC   NC352367  31.116  16.758   5.416
 3954POPC   PO452368  31.756  17.085   5.395
 3954POPC   GL152369  31.627  17.028   5.838
 3954POPC   GL252370  31.424  16.727   5.838
 3954POPC   C1A52371  31.780  16.738   6.200
 3954POPC   D2A52372  31.634  16.504   6.567
 3954POPC   C3A52373  31.771  16.655   6.963
 3954POPC   C4A52374  31.566  16.874   7.301
 3954POPC   C1B52375  31.325  16.951   6.262
 3954POPC   C2B52376  31.275  16.910   6.727
 3954POPC   C3B52377  31.247  16.549   6.998
 3954POPC   C4B52378  31.467  16.372   7.353
 3955POPC   NC352379  14.465  26.513   4.975
 3955POPC   PO452380  14.699  25.948   5.320
 3955POPC   GL152381  14.551  25.845   5.773
 3955POPC   GL252382  14.336  26.092   5.945
 3955POPC   C1A52383  14.363  25.661   6.159
 3955POPC   D2A52384  14.124  25.942   6.450
 3955POPC   C3A52385  14.330  26.005   6.872
 3955POPC   C4A52386  14.288  25.753   7.268
 3955POPC   C1B52387  14.307  26.417   6.258
 3955POPC   C2B52388  14.190  26.578   6.670
 3955POPC   C3B52389  14.319  26.487   7.104
 3955POPC   C4B52390  14.398  26.223   7.473
 3956POPC   NC352391   6.785   1.043   5.394
 3956POPC   PO452392   6.515   1.688   5.543
 3956POPC   GL152393   6.789   1.583   5.873
 3956POPC   GL252394   6.940   1.234   5.859
 3956POPC   C1A52395   6.685   1.530   6.303
 3956POPC   D2A52396   6.601   1.205   6.584
 3956POPC   C3A52397   6.478   1.331   6.966
 3956POPC   C4A52398   6.476   1.075   7.315
 3956POPC   C1B52399   7.075   1.208   6.298
 3956POPC   C2B52400   7.067   1.373   6.726
 3956POPC   C3B52401   6.944   1.199   7.134
 3956POPC   C4B52402   7.119   0.996   7.462
 3957POPC   NC352403  35.834  12.812   5.164
 3957POPC   PO452404  35.245  12.613   5.480
 3957POPC   GL152405  35.516  12.779   5.831
 3957POPC   GL252406  35.366  13.105   5.879
 3957POPC   C1A52407  35.647  12.954   6.264
 3957POPC   D2A52408  35.358  13.038   6.606
 3957POPC   C3A52409  35.479  12.893   6.966
 3957POPC   C4A52410  35.388  12.514   7.088
 3957POPC   C1B52411  35.119  12.852   6.193
 3957POPC   C2B52412  34.792  12.823   6.499
 3957POPC   C3B52413  34.933  12.749   6.907
 3957POPC   C4B52414  35.069  12.826   7.305
 3958POPC   NC352415  26.107  36.420   5.659
 3958POPC   PO452416  26.164  35.775   5.558
 3958POPC   GL152417  26.079  35.972   5.948
 3958POPC   GL252418  25.761  36.053   5.850
 3958POPC   C1A52419  26.074  36.311   6.287
 3958POPC   D2A52420  26.170  36.506   6.690
 3958POPC   C3A52421  25.998  36.238   6.994
 3958POPC   C4A52422  25.956  35.982   7.401
 3958POPC   C1B52423  25.710  35.936   6.294
 3958POPC   C2B52424  25.754  35.845   6.749
 3958POPC   C3B52425  25.527  36.042   7.101
 3958POPC   C4B52426  25.515  36.135   7.573
 3959POPC   NC352427   6.851   6.935   5.200
 3959POPC   PO452428   6.337   6.660   5.549
 3959POPC   GL152429   6.632   6.728   5.864
 3959POPC   GL252430   6.783   7.087   5.773
 3959POPC   C1A52431   6.663   6.435   6.232
 3959POPC   D2A52432   6.705   6.159   6.606
 3959POPC   C3A52433   6.800   6.478   6.886
 3959POPC   C4A52434   6.695   6.561   7.295
 3959POPC   C1B52435   6.778   7.040   6.231
 3959POPC   C2B52436   6.552   6.853   6.571
 3959POPC   C3B52437   6.592   6.949   6.992
 3959POPC   C4B52438   7.046   6.904   7.154
 3960POPC   NC352439  33.734  26.525   5.527
 3960POPC   PO452440  33.734  25.826   5.530
 3960POPC   GL152441  33.941  25.910   5.877
 3960POPC   GL252442  34.019  26.219   5.805
 3960POPC   C1A52443  33.928  25.839   6.310
 3960POPC   D2A52444  33.819  25.882   6.725
 3960POPC   C3A52445  33.638  25.872   7.101
 3960POPC   C4A52446  33.947  26.100   7.293
 3960POPC   C1B52447  34.189  26.312   6.203
 3960POPC   C2B52448  34.227  26.178   6.608
 3960POPC   C3B52449  34.209  26.373   6.968
 3960POPC   C4B52450  34.170  26.544   7.378
 3961POPC   NC352451  31.868  11.331   5.174
 3961POPC   PO452452  31.258  11.099   5.491
 3961POPC   GL152453  31.330  11.375   5.798
 3961POPC   GL252454  31.695  11.429   5.709
 3961POPC   C1A52455  31.195  11.410   6.216
 3961POPC   D2A52456  31.422  11.371   6.580
 3961POPC   C3A52457  31.293  11.402   6.982
 3961POPC   C4A52458  31.521  11.352   7.357
 3961POPC   C1B52459  31.694  11.194   6.125
 3961POPC   C2B52460  31.751  10.989   6.530
 3961POPC   C3B52461  31.660  11.052   6.944
 3961POPC   C4B52462  31.753  10.887   7.319
 3962POPC   NC352463  26.959  35.346   4.935
 3962POPC   PO452464  26.564  34.928   5.374
 3962POPC   GL152465  26.758  35.236   5.716
 3962POPC   GL252466  26.577  35.575   5.816
 3962POPC   C1A52467  26.741  35.226   6.180
 3962POPC   D2A52468  26.971  35.092   6.524
 3962POPC   C3A52469  26.774  35.084   6.891
 3962POPC   C4A52470  26.779  35.186   7.309
 3962POPC   C1B52471  26.937  35.661   6.019
 3962POPC   C2B52472  27.002  35.647   6.444
 3962POPC   C3B52473  26.958  35.852   6.812
 3962POPC   C4B52474  26.693  35.651   7.101
 3963POPC   NC352475  33.972  26.168   5.296
 3963POPC   PO452476  34.516  25.764   5.423
 3963POPC   GL152477  34.471  25.995   5.836
 3963POPC   GL252478  34.526  26.368   5.837
 3963POPC   C1A52479  34.483  25.888   6.268
 3963POPC   D2A52480  34.660  25.917   6.691
 3963POPC   C3A52481  34.406  25.896   7.073
 3963POPC   C4A52482  34.385  25.914   7.523
 3963POPC   C1B52483  34.706  26.400   6.280
 3963POPC   C2B52484  34.749  26.416   6.752
 3963POPC   C3B52485  34.675  26.335   7.192
 3963POPC   C4B52486  34.626  26.344   7.638
 3964POPC   NC352487  34.930   9.024   5.472
 3964POPC   PO452488  35.637   8.763   5.445
 3964POPC   GL152489  35.400   8.968   5.771
 3964POPC   GL252490  35.114   8.757   5.874
 3964POPC   C1A52491  35.364   9.122   6.230
 3964POPC   D2A52492  35.316   9.331   6.658
 3964POPC   C3A52493  35.314   9.103   7.066
 3964POPC   C4A52494  35.277   9.180   7.520
 3964POPC   C1B52495  35.200   8.642   6.286
 3964POPC   C2B52496  35.365   8.762   6.671
 3964POPC   C3B52497  35.256   8.582   7.066
 3964POPC   C4B52498  35.092   8.715   7.500
 3965POPC   NC352499  22.212  16.376   5.170
 3965POPC   PO452500  21.799  15.927   5.603
 3965POPC   GL152501  22.091  15.721   5.858
 3965POPC   GL252502  22.344  15.965   5.929
 3965POPC   C1A52503  22.033  15.775   6.296
 3965POPC   D2A52504  21.863  16.156   6.462
 3965POPC   C3A52505  21.828  16.149   6.884
 3965POPC   C4A52506  21.997  15.761   7.049
 3965POPC   C1B52507  22.371  16.145   6.308
 3965POPC   C2B52508  22.598  16.257   6.640
 3965POPC   C3B52509  22.344  16.204   6.971
 3965POPC   C4B52510  22.401  15.985   7.294
 3966POPC   NC352511   2.894  13.657   5.296
 3966POPC   PO452512   2.403  13.193   5.269
 3966POPC   GL152513   2.579  13.495   5.707
 3966POPC   GL252514   2.910  13.710   5.790
 3966POPC   C1A52515   2.612  13.547   6.215
 3966POPC   D2A52516   2.526  13.729   6.667
 3966POPC   C3A52517   2.667  13.656   7.091
 3966POPC   C4A52518   3.001  13.937   6.996
 3966POPC   C1B52519   3.124  13.537   6.136
 3966POPC   C2B52520   3.056  13.615   6.554
 3966POPC   C3B52521   3.066  13.412   6.924
 3966POPC   C4B52522   3.169  13.566   7.322
 3967POPC   NC352523  22.744  25.309   5.582
 3967POPC   PO452524  23.293  24.850   5.417
 3967POPC   GL152525  23.153  25.019   5.893
 3967POPC   GL252526  22.806  25.122   6.064
 3967POPC   C1A52527  23.184  25.147   6.382
 3967POPC   D2A52528  22.763  25.148   6.619
 3967POPC   C3A52529  22.815  25.054   7.066
 3967POPC   C4A52530  23.099  25.264   7.380
 3967POPC   C1B52531  22.865  25.545   6.275
 3967POPC   C2B52532  22.692  25.718   6.679
 3967POPC   C3B52533  22.801  25.597   7.147
 3967POPC   C4B52534  22.781  25.614   7.631
 3968POPC   NC352535  25.554  28.348   5.162
 3968POPC   PO452536  26.223  28.386   5.431
 3968POPC   GL152537  26.205  28.242   5.863
 3968POPC   GL252538  25.819  28.306   5.869
 3968POPC   C1A52539  26.211  28.353   6.269
 3968POPC   D2A52540  26.214  28.634   6.581
 3968POPC   C3A52541  26.154  28.420   6.953
 3968POPC   C4A52542  26.253  28.485   7.353
 3968POPC   C1B52543  25.761  28.101   6.227
 3968POPC   C2B52544  25.863  28.148   6.633
 3968POPC   C3B52545  25.695  28.217   7.035
 3968POPC   C4B52546  25.762  28.217   7.461
 3969POPC   NC352547  25.687  31.140   5.519
 3969POPC   PO452548  26.116  31.671   5.277
 3969POPC   GL152549  26.030  31.568   5.701
 3969POPC   GL252550  25.698  31.704   5.766
 3969POPC   C1A52551  26.057  31.635   6.169
 3969POPC   D2A52552  25.871  31.533   6.593
 3969POPC   C3A52553  26.085  31.624   6.987
 3969POPC   C4A52554  26.115  31.299   7.286
 3969POPC   C1B52555  25.546  31.595   6.189
 3969POPC   C2B52556  25.498  31.871   6.573
 3969POPC   C3B52557  25.498  31.684   6.961
 3969POPC   C4B52558  25.710  31.697   7.338
 3970POPC   NC352559  36.536  14.166   5.554
 3970POPC   PO452560  36.006  14.585   5.287
 3970POPC   GL152561  35.944  14.591   5.745
 3970POPC   GL252562  36.288  14.570   5.828
 3970POPC   C1A52563  35.908  14.389   6.175
 3970POPC   D2A52564  36.250  14.404   6.509
 3970POPC   C3A52565  36.184  14.276   6.938
 3970POPC   C4A52566  35.931  14.266   7.287
 3970POPC   C1B52567  36.173  14.831   6.194
 3970POPC   C2B52568  36.341  14.932   6.590
 3970POPC   C3B52569  36.297  14.774   6.993
 3970POPC   C4B52570  36.077  14.745   7.375
 3971POPC   NC352571  12.855  21.655   5.469
 3971POPC   PO452572  12.652  21.087   5.090
 3971POPC   GL152573  12.747  21.185   5.604
 3971POPC   GL252574  12.531  21.481   5.821
 3971POPC   C1A52575  12.942  21.263   6.047
 3971POPC   D2A52576  12.951  21.111   6.488
 3971POPC   C3A52577  13.058  21.268   6.916
 3971POPC   C4A52578  12.821  21.059   7.262
 3971POPC   C1B52579  12.502  21.362   6.288
 3971POPC   C2B52580  12.561  21.363   6.761
 3971POPC   C3B52581  12.678  21.545   7.140
 3971POPC   C4B52582  13.069  21.752   7.121
 3972POPC   NC352583  33.528  22.850   5.360
 3972POPC   PO452584  33.852  23.295   5.576
 3972POPC   GL152585  33.888  22.920   5.796
 3972POPC   GL252586  33.544  22.823   5.877
 3972POPC   C1A52587  34.118  22.948   6.180
 3972POPC   D2A52588  34.075  23.193   6.556
 3972POPC   C3A52589  34.098  22.929   6.921
 3972POPC   C4A52590  34.190  23.025   7.349
 3972POPC   C1B52591  33.652  23.146   6.205
 3972POPC   C2B52592  33.473  23.239   6.606
 3972POPC   C3B52593  33.627  23.109   6.999
 3972POPC   C4B52594  33.477  22.886   7.335
 3973POPC   NC352595  40.750   7.647   5.480
 3973POPC   PO452596  41.149   7.277   5.521
 3973POPC   GL152597  40.942   7.491   5.920
 3973POPC   GL252598  40.643   7.298   5.864
 3973POPC   C1A52599  40.564   7.635   6.231
 3973POPC   D2A52600  40.453   7.427   6.629
 3973POPC   C3A52601  40.588   7.534   7.045
 3973POPC   C4A52602  40.863   7.575   7.409
 3973POPC   C1B52603  40.754   7.161   6.292
 3973POPC   C2B52604  40.724   6.961   6.705
 3973POPC   C3B52605  40.878   7.114   7.112
 3973POPC   C4B52606  41.270   7.368   7.179
 3974POPC   NC352607  22.824  21.447   5.507
 3974POPC   PO452608  23.349  21.658   5.183
 3974POPC   GL152609  23.383  21.489   5.699
 3974POPC   GL252610  23.124  21.267   5.891
 3974POPC   C1A52611  23.316  21.693   6.179
 3974POPC   D2A52612  23.472  21.796   6.628
 3974POPC   C3A52613  23.272  21.519   6.949
 3974POPC   C4A52614  23.075  21.644   7.353
 3974POPC   C1B52615  22.783  21.069   6.179
 3974POPC   C2B52616  22.630  21.130   6.623
 3974POPC   C3B52617  22.743  21.408   6.994
 3974POPC   C4B52618  22.714  21.306   7.427
 3975POPC   NC352619  30.547  44.104   5.391
 3975POPC   PO452620  31.146  43.994   5.524
 3975POPC   GL152621  30.895  43.848   5.876
 3975POPC   GL252622  30.496  43.837   5.887
 3975POPC   C1A52623  30.837  44.002   6.301
 3975POPC   D2A52624  30.692  44.247   6.642
 3975POPC   C3A52625  30.725  44.002   7.008
 3975POPC   C4A52626  31.079  43.908   7.276
 3975POPC   C1B52627  30.672  43.511   6.197
 3975POPC   C2B52628  30.864  43.406   6.594
 3975POPC   C3B52629  30.690  43.475   7.013
 3975POPC   C4B52630  30.766  43.538   7.450
 3976POPC   NC352631  17.855  10.680   5.281
 3976POPC   PO452632  17.162  10.504   5.404
 3976POPC   GL152633  17.538  10.520   5.674
 3976POPC   GL252634  17.432  10.815   5.834
 3976POPC   C1A52635  17.752  10.476   6.086
 3976POPC   D2A52636  17.592  10.318   6.486
 3976POPC   C3A52637  17.734  10.519   6.827
 3976POPC   C4A52638  17.802  10.448   7.209
 3976POPC   C1B52639  17.245  10.591   6.195
 3976POPC   C2B52640  17.274  10.676   6.655
 3976POPC   C3B52641  17.210  10.507   7.064
 3976POPC   C4B52642  16.912  10.757   7.292
 3977POPC   NC352643  37.033  19.864   5.360
 3977POPC   PO452644  36.632  20.327   5.501
 3977POPC   GL152645  36.606  20.015   5.797
 3977POPC   GL252646  36.866  19.767   5.832
 3977POPC   C1A52647  36.726  20.031   6.237
 3977POPC   D2A52648  36.585  19.852   6.589
 3977POPC   C3A52649  36.701  20.030   6.945
 3977POPC   C4A52650  36.995  19.980   7.277
 3977POPC   C1B52651  36.937  19.449   6.165
 3977POPC   C2B52652  36.999  19.258   6.574
 3977POPC   C3B52653  36.944  19.511   6.954
 3977POPC   C4B52654  36.642  19.609   7.237
 3978POPC   NC352655  43.237  37.467   5.463
 3978POPC   PO452656  42.777  37.979   5.425
 3978POPC   GL152657  42.938  37.698   5.797
 3978POPC   GL252658  43.297  37.781   5.854
 3978POPC   C1A52659  43.146  37.373   6.112
 3978POPC   D2A52660  43.104  37.474   6.541
 3978POPC   C3A52661  43.133  37.283   6.941
 3978POPC   C4A52662  43.162  37.492   7.352
 3978POPC   C1B52663  43.216  37.871   6.238
 3978POPC   C2B52664  43.400  37.925   6.621
 3978POPC   C3B52665  43.183  37.826   6.946
 3978POPC   C4B52666  43.233  38.000   7.293
 3979POPC   NC352667  44.393  17.656   5.159
 3979POPC   PO452668  43.749  17.713   5.486
 3979POPC   GL152669  43.974  17.465   5.801
 3979POPC   GL252670  43.762  17.216   5.978
 3979POPC   C1A52671  44.223  17.370   6.187
 3979POPC   D2A52672  44.152  17.546   6.612
 3979POPC   C3A52673  44.273  17.341   6.994
 3979POPC   C4A52674  44.144  17.523   7.376
 3979POPC   C1B52675  43.764  17.583   6.275
 3979POPC   C2B52676  43.628  17.666   6.709
 3979POPC   C3B52677  43.762  17.731   7.139
 3979POPC   C4B52678  43.750  17.746   7.616
 3980POPC   NC352679  21.881   2.141   5.461
 3980POPC   PO452680  22.183   1.660   5.577
 3980POPC   GL152681  21.967   1.920   5.915
 3980POPC   GL252682  22.099   2.274   5.892
 3980POPC   C1A52683  21.942   1.859   6.354
 3980POPC   D2A52684  22.249   1.953   6.672
 3980POPC   C3A52685  22.228   1.722   7.082
 3980POPC   C4A52686  22.174   1.540   7.515
 3980POPC   C1B52687  21.916   2.393   6.262
 3980POPC   C2B52688  21.792   2.253   6.658
 3980POPC   C3B52689  22.000   2.202   7.030
 3980POPC   C4B52690  22.020   2.051   7.436
 3981POPC   NC352691  16.568  30.103   5.412
 3981POPC   PO452692  17.188  30.020   5.083
 3981POPC   GL152693  17.038  29.881   5.562
 3981POPC   GL252694  16.711  29.688   5.666
 3981POPC   C1A52695  16.895  30.015   6.039
 3981POPC   D2A52696  16.594  30.046   6.439
 3981POPC   C3A52697  16.626  30.082   6.922
 3981POPC   C4A52698  16.544  30.403   7.242
 3981POPC   C1B52699  16.553  29.623   6.129
 3981POPC   C2B52700  16.587  29.545   6.600
 3981POPC   C3B52701  16.565  29.587   7.071
 3981POPC   C4B52702  16.664  29.416   7.524
 3982POPC   NC352703   4.015  26.743   5.357
 3982POPC   PO452704   4.616  26.607   5.496
 3982POPC   GL152705   4.416  26.892   5.833
 3982POPC   GL252706   4.040  26.980   5.809
 3982POPC   C1A52707   4.264  27.100   6.249
 3982POPC   D2A52708   4.084  27.029   6.668
 3982POPC   C3A52709   4.331  26.949   7.045
 3982POPC   C4A52710   4.244  26.834   7.492
 3982POPC   C1B52711   4.087  26.633   6.151
 3982POPC   C2B52712   4.393  26.648   6.509
 3982POPC   C3B52713   4.627  26.510   6.864
 3982POPC   C4B52714   4.450  26.434   7.233
 3983POPC   NC352715  22.771   5.296   5.570
 3983POPC   PO452716  23.187   4.889   5.230
 3983POPC   GL152717  23.191   5.018   5.654
 3983POPC   GL252718  23.280   5.372   5.742
 3983POPC   C1A52719  23.202   4.965   6.109
 3983POPC   D2A52720  22.843   5.152   6.407
 3983POPC   C3A52721  22.836   5.132   6.869
 3983POPC   C4A52722  22.634   4.966   7.236
 3983POPC   C1B52723  23.233   5.443   6.214
 3983POPC   C2B52724  23.349   5.214   6.612
 3983POPC   C3B52725  23.287   5.188   7.057
 3983POPC   C4B52726  23.024   5.306   7.386
 3984POPC   NC352727  21.698  25.362   5.265
 3984POPC   PO452728  22.316  25.325   5.407
 3984POPC   GL152729  22.306  25.245   5.848
 3984POPC   GL252730  21.954  25.265   5.799
 3984POPC   C1A52731  22.392  25.400   6.237
 3984POPC   D2A52732  22.184  25.454   6.599
 3984POPC   C3A52733  22.403  25.383   6.950
 3984POPC   C4A52734  22.172  25.474   7.287
 3984POPC   C1B52735  21.965  25.145   6.216
 3984POPC   C2B52736  22.128  24.961   6.550
 3984POPC   C3B52737  22.006  25.095   6.945
 3984POPC   C4B52738  22.311  24.886   7.177
 3985POPC   NC352739   2.163  30.374   5.408
 3985POPC   PO452740   1.835  31.041   5.469
 3985POPC   GL152741   1.783  30.731   5.798
 3985POPC   GL252742   2.134  30.640   5.844
 3985POPC   C1A52743   1.806  30.582   6.243
 3985POPC   D2A52744   1.624  30.564   6.635
 3985POPC   C3A52745   1.749  30.723   7.060
 3985POPC   C4A52746   2.071  30.997   7.215
 3985POPC   C1B52747   2.299  30.660   6.293
 3985POPC   C2B52748   2.144  30.578   6.711
 3985POPC   C3B52749   2.352  30.594   7.107
 3985POPC   C4B52750   2.627  30.814   7.391
 3986POPC   NC352751  37.104  33.395   5.499
 3986POPC   PO452752  36.706  32.891   5.286
 3986POPC   GL152753  36.891  32.876   5.700
 3986POPC   GL252754  36.759  33.179   5.807
 3986POPC   C1A52755  36.914  32.843   6.173
 3986POPC   D2A52756  37.092  32.934   6.589
 3986POPC   C3A52757  36.970  32.859   7.028
 3986POPC   C4A52758  36.738  32.814   7.429
 3986POPC   C1B52759  36.795  33.358   6.220
 3986POPC   C2B52760  36.710  33.539   6.646
 3986POPC   C3B52761  36.879  33.631   7.041
 3986POPC   C4B52762  36.948  33.324   7.360
 3987POPC   NC352763  44.333  35.177   5.636
 3987POPC   PO452764  44.101  34.700   5.291
 3987POPC   GL152765  44.029  34.740   5.739
 3987POPC   GL252766  44.198  34.435   5.828
 3987POPC   C1A52767  43.715  34.669   6.102
 3987POPC   D2A52768  43.710  34.876   6.529
 3987POPC   C3A52769  43.754  34.690   6.962
 3987POPC   C4A52770  43.993  34.876   7.287
 3987POPC   C1B52771  44.201  34.190   6.222
 3987POPC   C2B52772  44.061  34.298   6.663
 3987POPC   C3B52773  44.177  34.412   7.113
 3987POPC   C4B52774  44.289  34.256   7.535
 3988POPC   NC352775  26.662  12.346   5.429
 3988POPC   PO452776  27.071  11.765   5.393
 3988POPC   GL152777  26.854  12.011   5.758
 3988POPC   GL252778  26.521  11.927   5.937
 3988POPC   C1A52779  26.852  12.326   6.088
 3988POPC   D2A52780  27.032  12.435   6.506
 3988POPC   C3A52781  27.040  12.287   6.939
 3988POPC   C4A52782  26.846  12.207   7.331
 3988POPC   C1B52783  26.847  11.818   6.228
 3988POPC   C2B52784  26.908  11.884   6.659
 3988POPC   C3B52785  26.945  11.764   7.088
 3988POPC   C4B52786  27.183  11.807   7.440
 3989POPC   NC352787  40.355  41.644   5.282
 3989POPC   PO452788  39.904  41.297   5.703
 3989POPC   GL152789  39.971  41.648   5.948
 3989POPC   GL252790  40.311  41.690   6.018
 3989POPC   C1A52791  39.686  41.737   6.261
 3989POPC   D2A52792  39.868  41.736   6.622
 3989POPC   C3A52793  39.971  41.386   6.835
 3989POPC   C4A52794  39.801  41.459   7.206
 3989POPC   C1B52795  40.136  41.343   6.325
 3989POPC   C2B52796  40.373  41.132   6.632
 3989POPC   C3B52797  40.542  41.381   6.921
 3989POPC   C4B52798  40.304  41.541   7.225
 3990POPC   NC352799  26.495  18.287   5.426
 3990POPC   PO452800  25.919  18.724   5.448
 3990POPC   GL152801  26.219  18.575   5.758
 3990POPC   GL252802  26.175  18.179   5.792
 3990POPC   C1A52803  26.351  18.459   6.164
 3990POPC   D2A52804  26.205  18.409   6.540
 3990POPC   C3A52805  26.463  18.391   6.866
 3990POPC   C4A52806  26.362  18.433   7.256
 3990POPC   C1B52807  26.084  17.978   6.182
 3990POPC   C2B52808  25.831  18.082   6.515
 3990POPC   C3B52809  26.012  18.096   6.937
 3990POPC   C4B52810  25.718  17.997   7.270
 3991POPC   NC352811   7.697  24.265   5.558
 3991POPC   PO452812   7.225  24.551   5.182
 3991POPC   GL152813   7.269  24.573   5.674
 3991POPC   GL252814   7.158  24.237   5.699
 3991POPC   C1A52815   7.465  24.680   6.151
 3991POPC   D2A52816   7.588  24.544   6.587
 3991POPC   C3A52817   7.602  24.746   7.027
 3991POPC   C4A52818   7.600  24.560   7.483
 3991POPC   C1B52819   7.034  24.426   6.092
 3991POPC   C2B52820   7.050  24.605   6.485
 3991POPC   C3B52821   7.158  24.542   6.890
 3991POPC   C4B52822   7.149  24.442   7.298
 3992POPC   NC352823  20.207  39.421   5.103
 3992POPC   PO452824  19.671  39.485   5.550
 3992POPC   GL152825  19.879  39.087   5.744
 3992POPC   GL252826  19.660  38.861   5.934
 3992POPC   C1A52827  20.131  39.069   6.137
 3992POPC   D2A52828  20.101  39.369   6.505
 3992POPC   C3A52829  20.215  39.203   6.925
 3992POPC   C4A52830  20.092  39.431   7.272
 3992POPC   C1B52831  19.637  39.284   6.176
 3992POPC   C2B52832  19.582  39.490   6.569
 3992POPC   C3B52833  19.704  39.325   6.946
 3992POPC   C4B52834  19.788  38.987   7.223
 3993POPC   NC352835   6.223  19.103   5.385
 3993POPC   PO452836   6.868  19.196   5.189
 3993POPC   GL152837   6.829  19.125   5.687
 3993POPC   GL252838   6.530  19.172   5.782
 3993POPC   C1A52839   6.901  19.143   6.163
 3993POPC   D2A52840   6.785  19.406   6.563
 3993POPC   C3A52841   6.947  19.315   7.007
 3993POPC   C4A52842   6.981  18.947   7.271
 3993POPC   C1B52843   6.421  18.958   6.146
 3993POPC   C2B52844   6.330  19.079   6.585
 3993POPC   C3B52845   6.499  18.925   6.991
 3993POPC   C4B52846   6.314  18.631   7.261
 3994POPC   NC352847  13.342  38.660   5.386
 3994POPC   PO452848  13.759  38.176   5.579
 3994POPC   GL152849  13.637  38.405   5.941
 3994POPC   GL252850  13.295  38.452   5.879
 3994POPC   C1A52851  13.449  38.423   6.389
 3994POPC   D2A52852  13.462  38.679   6.761
 3994POPC   C3A52853  13.780  38.487   7.028
 3994POPC   C4A52854  14.047  38.317   7.306
 3994POPC   C1B52855  13.322  38.017   6.092
 3994POPC   C2B52856  13.406  37.922   6.533
 3994POPC   C3B52857  13.282  38.192   6.888
 3994POPC   C4B52858  13.345  38.490   7.250
 3995POPC   NC352859  16.928  18.921   5.532
 3995POPC   PO452860  17.473  18.442   5.433
 3995POPC   GL152861  17.370  18.293   5.838
 3995POPC   GL252862  17.112  18.542   5.878
 3995POPC   C1A52863  17.565  18.400   6.248
 3995POPC   D2A52864  17.696  18.592   6.645
 3995POPC   C3A52865  17.695  18.336   7.022
 3995POPC   C4A52866  17.661  18.023   7.373
 3995POPC   C1B52867  17.066  18.267   6.250
 3995POPC   C2B52868  17.243  18.303   6.657
 3995POPC   C3B52869  17.174  18.434   7.046
 3995POPC   C4B52870  17.201  18.223   7.420
 3996POPC   NC352871   1.889  21.844   5.374
 3996POPC   PO452872   1.481  22.254   5.364
 3996POPC   GL152873   1.808  22.202   5.725
 3996POPC   GL252874   1.568  21.976   5.794
 3996POPC   C1A52875   2.210  22.271   6.018
 3996POPC   D2A52876   2.325  22.105   6.450
 3996POPC   C3A52877   2.243  22.254   6.867
 3996POPC   C4A52878   2.215  22.068   7.269
 3996POPC   C1B52879   1.493  22.126   6.199
 3996POPC   C2B52880   1.600  22.295   6.588
 3996POPC   C3B52881   1.767  22.149   6.975
 3996POPC   C4B52882   1.713  22.039   7.397
 3997POPC   NC352883  21.807  23.205   5.371
 3997POPC   PO452884  21.153  23.293   5.392
 3997POPC   GL152885  21.430  22.975   5.629
 3997POPC   GL252886  21.547  23.242   5.832
 3997POPC   C1A52887  21.590  22.757   6.015
 3997POPC   D2A52888  21.479  22.653   6.436
 3997POPC   C3A52889  21.699  22.656   6.798
 3997POPC   C4A52890  21.456  22.796   7.164
 3997POPC   C1B52891  21.376  23.173   6.275
 3997POPC   C2B52892  21.510  23.140   6.728
 3997POPC   C3B52893  21.649  23.252   7.179
 3997POPC   C4B52894  21.714  23.080   7.602
 3998POPC   NC352895   5.417  13.045   5.579
 3998POPC   PO452896   4.784  12.814   5.487
 3998POPC   GL152897   4.971  12.910   5.850
 3998POPC   GL252898   5.099  12.562   5.959
 3998POPC   C1A52899   5.173  12.997   6.219
 3998POPC   D2A52900   5.360  12.693   6.456
 3998POPC   C3A52901   5.323  12.780   6.880
 3998POPC   C4A52902   5.026  12.943   7.183
 3998POPC   C1B52903   4.826  12.631   6.333
 3998POPC   C2B52904   4.822  12.656   6.794
 3998POPC   C3B52905   4.865  12.421   7.196
 3998POPC   C4B52906   4.666  12.347   7.668
 3999POPC   NC352907  32.448  42.644   5.286
 3999POPC   PO452908  31.865  42.742   5.398
 3999POPC   GL152909  31.980  42.568   5.798
 3999POPC   GL252910  32.218  42.305   5.818
 3999POPC   C1A52911  32.208  42.638   6.199
 3999POPC   D2A52912  32.543  42.502   6.527
 3999POPC   C3A52913  32.452  42.520   6.968
 3999POPC   C4A52914  32.773  42.388   7.244
 3999POPC   C1B52915  32.277  42.131   6.267
 3999POPC   C2B52916  32.385  42.048   6.712
 3999POPC   C3B52917  32.396  42.031   7.178
 3999POPC   C4B52918  32.215  41.796   7.530
 4000POPC   NC352919  30.023  12.865   5.384
 4000POPC   PO452920  29.605  12.297   5.541
 4000POPC   GL152921  29.629  12.613   5.880
 4000POPC   GL252922  29.919  12.852   5.864
 4000POPC   C1A52923  29.762  12.675   6.310
 4000POPC   D2A52924  29.765  12.923   6.661
 4000POPC   C3A52925  29.967  12.725   7.003
 4000POPC   C4A52926  29.623  12.840   7.239
 4000POPC   C1B52927  30.130  13.056   6.176
 4000POPC   C2B52928  30.276  12.928   6.567
 4000POPC   C3B52929  30.372  13.063   6.962
 4000POPC   C4B52930  30.136  13.149   7.301
 4001POPC   NC352931  13.957  34.412   5.557
 4001POPC   PO452932  14.546  34.460   5.779
 4001POPC   GL152933  14.417  34.050   5.969
 4001POPC   GL252934  14.062  34.044   5.921
 4001POPC   C1A52935  14.296  33.744   6.317
 4001POPC   D2A52936  14.294  33.476   6.714
 4001POPC   C3A52937  14.384  33.285   7.130
 4001POPC   C4A52938  14.513  33.257   7.580
 4001POPC   C1B52939  14.118  34.226   6.356
 4001POPC   C2B52940  14.404  34.109   6.727
 4001POPC   C3B52941  14.526  33.811   7.049
 4001POPC   C4B52942  14.268  33.698   7.409
 4002POPC   NC352943  29.983   0.650   5.550
 4002POPC   PO452944  29.663   0.096   5.280
 4002POPC   GL152945  29.836   0.194   5.769
 4002POPC   GL252946  30.137   0.365   5.923
 4002POPC   C1A52947  29.761   0.334   6.235
 4002POPC   D2A52948  29.558   0.384   6.621
 4002POPC   C3A52949  29.795   0.325   7.002
 4002POPC   C4A52950  29.725   0.540   7.367
 4002POPC   C1B52951  30.104   0.714   6.219
 4002POPC   C2B52952  29.918   0.782   6.635
 4002POPC   C3B52953  30.118   0.742   7.036
 4002POPC   C4B52954  30.279   0.381   7.206
 4003POPC   NC352955  35.554  32.757   5.547
 4003POPC   PO452956  35.468  32.324   5.013
 4003POPC   GL152957  35.519  32.191   5.549
 4003POPC   GL252958  35.719  31.909   5.747
 4003POPC   C1A52959  35.318  32.124   5.973
 4003POPC   D2A52960  35.401  32.161   6.413
 4003POPC   C3A52961  35.337  32.094   6.850
 4003POPC   C4A52962  35.299  32.245   7.266
 4003POPC   C1B52963  35.542  31.730   6.182
 4003POPC   C2B52964  35.549  31.686   6.640
 4003POPC   C3B52965  35.665  31.761   7.072
 4003POPC   C4B52966  35.579  31.661   7.513
 4004POPC   NC352967  17.022  44.772   5.430
 4004POPC   PO452968  16.923  44.142   5.223
 4004POPC   GL152969  16.843  44.345   5.693
 4004POPC   GL252970  16.655  44.665   5.781
 4004POPC   C1A52971  16.993  44.482   6.141
 4004POPC   D2A52972  16.794  44.533   6.567
 4004POPC   C3A52973  16.965  44.671   6.971
 4004POPC   C4A52974  17.012  44.502   7.375
 4004POPC   C1B52975  16.637  44.883   6.203
 4004POPC   C2B52976  16.475   0.133   6.569
 4004POPC   C3B52977  16.561  44.993   7.004
 4004POPC   C4B52978  16.507  44.676   7.385
 4005POPC   NC352979   5.170   6.446   5.192
 4005POPC   PO452980   4.719   6.774   5.588
 4005POPC   GL152981   4.857   6.801   5.985
 4005POPC   GL252982   4.778   6.447   6.149
 4005POPC   C1A52983   5.203   6.790   6.227
 4005POPC   D2A52984   5.449   7.036   6.532
 4005POPC   C3A52985   5.226   6.878   6.897
 4005POPC   C4A52986   5.120   6.754   7.293
 4005POPC   C1B52987   5.203   6.252   6.252
 4005POPC   C2B52988   5.326   6.040   6.589
 4005POPC   C3B52989   5.230   6.238   6.942
 4005POPC   C4B52990   5.214   6.182   7.359
 4006POPC   NC352991   8.410  17.820   5.443
 4006POPC   PO452992   8.374  17.177   5.382
 4006POPC   GL152993   8.146  17.449   5.709
 4006POPC   GL252994   8.042  17.778   5.787
 4006POPC   C1A52995   8.041  17.443   6.168
 4006POPC   D2A52996   8.239  17.218   6.486
 4006POPC   C3A52997   8.107  17.269   6.891
 4006POPC   C4A52998   8.096  17.048   7.243
 4006POPC   C1B52999   8.121  17.950   6.174
 4006POPC   C2B53000   8.242  17.781   6.541
 4006POPC   C3B53001   8.082  17.776   6.942
 4006POPC   C4B53002   7.983  17.697   7.342
 4007POPC   NC353003   7.260  42.219   5.221
 4007POPC   PO453004   7.747  42.574   5.410
 4007POPC   GL153005   7.406  42.386   5.677
 4007POPC   GL253006   7.113  42.617   5.730
 4007POPC   C1A53007   7.301  42.271   6.101
 4007POPC   D2A53008   7.485  42.167   6.506
 4007POPC   C3A53009   7.346  42.305   6.920
 4007POPC   C4A53010   7.499  42.148   7.311
 4007POPC   C1B53011   7.133  42.806   6.166
 4007POPC   C2B53012   7.227  42.778   6.632
 4007POPC   C3B53013   7.062  42.770   7.055
 4007POPC   C4B53014   7.225  42.585   7.430
 4008POPC   NC353015  10.603  39.513   5.440
 4008POPC   PO453016  10.438  38.885   5.401
 4008POPC   GL153017  10.571  39.116   5.805
 4008POPC   GL253018  10.437  39.437   5.905
 4008POPC   C1A53019  10.567  39.157   6.297
 4008POPC   D2A53020  10.336  39.161   6.668
 4008POPC   C3A53021  10.617  39.127   6.976
 4008POPC   C4A53022  10.557  39.351   7.322
 4008POPC   C1B53023  10.119  39.418   6.215
 4008POPC   C2B53024   9.953  39.483   6.607
 4008POPC   C3B53025  10.155  39.573   7.012
 4008POPC   C4B53026  10.132  39.617   7.479
 4009POPC   NC353027   4.593  21.850   5.506
 4009POPC   PO453028   4.036  22.208   5.414
 4009POPC   GL153029   4.238  22.221   5.823
 4009POPC   GL253030   4.252  21.875   5.923
 4009POPC   C1A53031   4.376  22.241   6.274
 4009POPC   D2A53032   4.291  22.122   6.715
 4009POPC   C3A53033   4.589  22.126   7.090
 4009POPC   C4A53034   4.466  22.090   7.540
 4009POPC   C1B53035   3.971  21.883   6.311
 4009POPC   C2B53036   3.900  21.790   6.773
 4009POPC   C3B53037   3.990  21.906   7.230
 4009POPC   C4B53038   3.838  21.839   7.675
 4010POPC   NC353039   3.862  29.819   5.400
 4010POPC   PO453040   3.175  29.905   5.424
 4010POPC   GL153041   3.447  29.935   5.791
 4010POPC   GL253042   3.799  30.066   5.840
 4010POPC   C1A53043   3.391  30.132   6.213
 4010POPC   D2A53044   3.612  30.220   6.619
 4010POPC   C3A53045   3.366  30.113   7.007
 4010POPC   C4A53046   3.343  29.682   7.138
 4010POPC   C1B53047   3.746  29.752   6.187
 4010POPC   C2B53048   3.595  29.666   6.607
 4010POPC   C3B53049   3.810  29.823   6.963
 4010POPC   C4B53050   3.847  30.272   7.077
 4011POPC   NC353051  30.110   0.001   5.329
 4011POPC   PO453052  29.486  44.550   5.441
 4011POPC   GL153053  29.836  44.695   5.682
 4011POPC   GL253054  29.648  44.733   5.976
 4011POPC   C1A53055  30.084  44.491   6.018
 4011POPC   D2A53056  29.879  44.541   6.423
 4011POPC   C3A53057  30.105  44.605   6.834
 4011POPC   C4A53058  30.180  44.877   7.185
 4011POPC   C1B53059  29.476  44.932   6.320
 4011POPC   C2B53060  29.707  44.917   6.701
 4011POPC   C3B53061  29.674  44.806   7.109
 4011POPC   C4B53062  29.512  44.995   7.481
 4012POPC   NC353063  38.846  41.802   5.470
 4012POPC   PO453064  38.199  41.612   5.617
 4012POPC   GL153065  38.544  41.622   5.864
 4012POPC   GL253066  38.698  41.333   5.699
 4012POPC   C1A53067  38.458  41.547   6.288
 4012POPC   D2A53068  38.185  41.463   6.610
 4012POPC   C3A53069  38.447  41.585   6.880
 4012POPC   C4A53070  38.562  41.739   7.250
 4012POPC   C1B53071  38.890  41.301   6.141
 4012POPC   C2B53072  38.928  41.521   6.558
 4012POPC   C3B53073  38.923  41.445   6.989
 4012POPC   C4B53074  38.575  41.196   7.182
 4013POPC   NC353075  38.336  34.230   5.473
 4013POPC   PO453076  38.415  33.635   5.430
 4013POPC   GL153077  38.229  33.824   5.791
 4013POPC   GL253078  38.550  33.920   5.867
 4013POPC   C1A53079  38.115  33.897   6.215
 4013POPC   D2A53080  38.160  33.643   6.570
 4013POPC   C3A53081  38.249  33.717   6.961
 4013POPC   C4A53082  38.233  33.917   7.309
 4013POPC   C1B53083  38.556  33.612   6.229
 4013POPC   C2B53084  38.687  33.590   6.690
 4013POPC   C3B53085  38.732  33.922   7.015
 4013POPC   C4B53086  38.683  34.141   7.395
 4014POPC   NC353087  30.070   1.481   5.156
 4014POPC   PO453088  29.697   1.079   5.460
 4014POPC   GL153089  30.075   1.180   5.661
 4014POPC   GL253090  30.052   1.521   5.713
 4014POPC   C1A53091  30.200   1.208   6.098
 4014POPC   D2A53092  30.099   1.405   6.480
 4014POPC   C3A53093  30.018   1.229   6.863
 4014POPC   C4A53094  29.702   1.056   7.099
 4014POPC   C1B53095  29.748   1.471   6.101
 4014POPC   C2B53096  29.565   1.587   6.496
 4014POPC   C3B53097  29.474   1.535   6.914
 4014POPC   C4B53098  29.378   1.400   7.322
 4015POPC   NC353099   5.397  43.226   5.581
 4015POPC   PO453100   4.788  43.052   5.555
 4015POPC   GL153101   5.015  43.083   5.900
 4015POPC   GL253102   5.238  42.801   5.824
 4015POPC   C1A53103   5.034  43.245   6.321
 4015POPC   D2A53104   5.054  42.945   6.665
 4015POPC   C3A53105   4.889  43.164   7.004
 4015POPC   C4A53106   5.037  43.310   7.376
 4015POPC   C1B53107   5.382  42.879   6.236
 4015POPC   C2B53108   5.570  43.138   6.544
 4015POPC   C3B53109   5.396  43.240   6.930
 4015POPC   C4B53110   5.339  42.896   7.200
 4016POPC   NC353111  29.789  17.870   4.974
 4016POPC   PO453112  29.981  17.426   5.426
 4016POPC   GL153113  29.923  17.626   5.813
 4016POPC   GL253114  29.669  17.375   5.858
 4016POPC   C1A53115  29.737  17.770   6.221
 4016POPC   D2A53116  29.667  17.532   6.582
 4016POPC   C3A53117  29.871  17.706   6.943
 4016POPC   C4A53118  29.700  17.646   7.358
 4016POPC   C1B53119  29.968  17.299   6.227
 4016POPC   C2B53120  29.991  17.167   6.692
 4016POPC   C3B53121  29.890  17.217   7.123
 4016POPC   C4B53122  30.191  17.324   7.427
 4017POPC   NC353123   2.790  15.453   5.138
 4017POPC   PO453124   2.904  16.036   5.428
 4017POPC   GL153125   2.942  15.945   5.842
 4017POPC   GL253126   2.969  15.630   5.798
 4017POPC   C1A53127   2.745  16.005   6.243
 4017POPC   D2A53128   2.872  16.083   6.626
 4017POPC   C3A53129   2.564  16.106   6.934
 4017POPC   C4A53130   2.893  16.077   7.256
 4017POPC   C1B53131   2.854  15.487   6.205
 4017POPC   C2B53132   2.700  15.565   6.578
 4017POPC   C3B53133   2.845  15.673   6.934
 4017POPC   C4B53134   2.869  15.560   7.340
 4018POPC   NC353135  29.121   0.035   5.188
 4018POPC   PO453136  29.407   0.458   5.649
 4018POPC   GL153137  29.298   0.367   6.017
 4018POPC   GL253138  28.975   0.511   5.984
 4018POPC   C1A53139  29.272   0.681   6.335
 4018POPC   D2A53140  29.107   0.647   6.701
 4018POPC   C3A53141  29.380   0.664   7.003
 4018POPC   C4A53142  29.322   0.867   7.359
 4018POPC   C1B53143  28.735   0.593   6.359
 4018POPC   C2B53144  28.713   0.300   6.728
 4018POPC   C3B53145  29.075   0.214   6.993
 4018POPC   C4B53146  29.204   0.376   7.389
 4019POPC   NC353147   3.905  30.748   5.496
 4019POPC   PO453148   3.233  30.713   5.425
 4019POPC   GL153149   3.392  30.549   5.851
 4019POPC   GL253150   3.755  30.565   5.968
 4019POPC   C1A53151   3.299  30.635   6.291
 4019POPC   D2A53152   3.183  30.479   6.669
 4019POPC   C3A53153   3.404  30.637   7.029
 4019POPC   C4A53154   3.496  30.968   7.357
 4019POPC   C1B53155   4.114  30.609   6.277
 4019POPC   C2B53156   4.182  30.811   6.702
 4019POPC   C3B53157   3.960  30.795   7.112
 4019POPC   C4B53158   3.911  30.728   7.565
 4020POPC   NC353159  40.233  21.149   5.038
 4020POPC   PO453160  40.212  21.598   5.376
 4020POPC   GL153161  40.074  21.564   5.832
 4020POPC   GL253162  39.813  21.795   5.944
 4020POPC   C1A53163  40.003  21.213   6.149
 4020POPC   D2A53164  39.883  21.136   6.596
 4020POPC   C3A53165  40.014  21.486   6.879
 4020POPC   C4A53166  40.296  21.773   7.084
 4020POPC   C1B53167  39.845  21.644   6.379
 4020POPC   C2B53168  39.540  21.515   6.687
 4020POPC   C3B53169  39.542  21.563   7.134
 4020POPC   C4B53170  39.455  21.309   7.516
 4021POPC   NC353171  35.638  14.840   5.415
 4021POPC   PO453172  35.246  15.357   5.294
 4021POPC   GL153173  35.304  15.438   5.726
 4021POPC   GL253174  35.556  15.210   5.800
 4021POPC   C1A53175  35.240  15.361   6.207
 4021POPC   D2A53176  35.137  15.397   6.666
 4021POPC   C3A53177  35.405  15.302   7.042
 4021POPC   C4A53178  35.481  15.360   7.543
 4021POPC   C1B53179  35.645  14.853   6.105
 4021POPC   C2B53180  35.752  14.702   6.544
 4021POPC   C3B53181  35.696  14.622   6.995
 4021POPC   C4B53182  35.608  14.915   7.311
 4022POPC   NC353183  41.537  23.311   5.419
 4022POPC   PO453184  41.387  22.684   5.607
 4022POPC   GL153185  41.662  22.888   5.915
 4022POPC   GL253186  41.747  23.248   5.896
 4022POPC   C1A53187  41.567  23.054   6.330
 4022POPC   D2A53188  41.441  23.191   6.694
 4022POPC   C3A53189  41.623  23.168   7.034
 4022POPC   C4A53190  41.349  22.838   7.154
 4022POPC   C1B53191  42.045  23.210   6.239
 4022POPC   C2B53192  42.145  23.125   6.693
 4022POPC   C3B53193  42.117  23.242   7.147
 4022POPC   C4B53194  41.829  23.065   7.499
 4023POPC   NC353195   0.617  22.868   5.516
 4023POPC   PO453196   0.249  23.368   5.308
 4023POPC   GL153197   0.322  23.233   5.759
 4023POPC   GL253198   0.675  23.294   5.782
 4023POPC   C1A53199   0.351  22.974   6.218
 4023POPC   D2A53200   0.497  22.738   6.600
 4023POPC   C3A53201   0.462  22.896   6.999
 4023POPC   C4A53202   0.226  22.816   7.399
 4023POPC   C1B53203   0.562  23.422   6.165
 4023POPC   C2B53204   0.661  23.260   6.543
 4023POPC   C3B53205   0.664  23.399   6.921
 4023POPC   C4B53206   0.404  23.319   7.273
 4024POPC   NC353207  38.534  24.436   5.447
 4024POPC   PO453208  37.867  24.173   5.364
 4024POPC   GL153209  38.077  24.380   5.723
 4024POPC   GL253210  38.277  24.114   5.835
 4024POPC   C1A53211  38.278  24.582   6.091
 4024POPC   D2A53212  38.519  24.546   6.482
 4024POPC   C3A53213  38.290  24.615   6.864
 4024POPC   C4A53214  38.471  24.801   7.201
 4024POPC   C1B53215  38.643  24.175   6.127
 4024POPC   C2B53216  38.888  24.115   6.532
 4024POPC   C3B53217  38.796  24.306   6.940
 4024POPC   C4B53218  38.401  24.246   7.197
 4025POPC   NC353219  32.373  36.938   5.182
 4025POPC   PO453220  32.071  36.560   5.552
 4025POPC   GL153221  32.316  36.751   5.866
 4025POPC   GL253222  32.121  37.055   5.824
 4025POPC   C1A53223  32.471  36.673   6.309
 4025POPC   D2A53224  32.363  36.416   6.706
 4025POPC   C3A53225  32.127  36.633   7.010
 4025POPC   C4A53226  32.259  36.772   7.360
 4025POPC   C1B53227  32.335  37.177   6.215
 4025POPC   C2B53228  32.424  37.280   6.640
 4025POPC   C3B53229  32.199  37.204   7.043
 4025POPC   C4B53230  32.038  37.207   7.455
 4026POPC   NC353231   1.178  24.462   5.424
 4026POPC   PO453232   1.762  24.763   5.587
 4026POPC   GL153233   1.436  24.552   5.867
 4026POPC   GL253234   1.064  24.677   5.862
 4026POPC   C1A53235   1.221  24.453   6.282
 4026POPC   D2A53236   1.180  24.681   6.677
 4026POPC   C3A53237   1.031  24.400   7.003
 4026POPC   C4A53238   1.230  24.227   7.330
 4026POPC   C1B53239   0.934  24.950   6.185
 4026POPC   C2B53240   0.717  24.969   6.579
 4026POPC   C3B53241   0.775  24.847   7.002
 4026POPC   C4B53242   0.859  24.739   7.443
 4027POPC   NC353243   6.470  16.351   5.220
 4027POPC   PO453244   6.086  17.006   5.387
 4027POPC   GL153245   6.481  16.903   5.692
 4027POPC   GL253246   6.586  16.550   5.847
 4027POPC   C1A53247   6.579  16.946   6.174
 4027POPC   D2A53248   6.498  16.679   6.580
 4027POPC   C3A53249   6.665  16.775   7.002
 4027POPC   C4A53250   6.709  17.096   7.302
 4027POPC   C1B53251   6.873  16.506   6.254
 4027POPC   C2B53252   7.044  16.613   6.687
 4027POPC   C3B53253   6.995  16.380   7.086
 4027POPC   C4B53254   6.899  16.509   7.542
 4028POPC   NC353255  21.392  36.494   5.515
 4028POPC   PO453256  21.701  35.863   5.678
 4028POPC   GL153257  21.524  36.066   5.957
 4028POPC   GL253258  21.215  36.129   5.841
 4028POPC   C1A53259  21.571  36.020   6.366
 4028POPC   D2A53260  21.640  36.190   6.738
 4028POPC   C3A53261  21.640  35.894   7.060
 4028POPC   C4A53262  21.668  35.938   7.500
 4028POPC   C1B53263  21.094  35.896   6.195
 4028POPC   C2B53264  21.117  36.020   6.626
 4028POPC   C3B53265  20.916  36.074   7.002
 4028POPC   C4B53266  21.214  36.054   7.310
 4029POPC   NC353267  28.305  38.011   5.379
 4029POPC   PO453268  28.157  37.370   5.291
 4029POPC   GL153269  28.290  37.559   5.694
 4029POPC   GL253270  28.479  37.301   5.900
 4029POPC   C1A53271  28.363  37.733   6.128
 4029POPC   D2A53272  28.510  37.449   6.462
 4029POPC   C3A53273  28.449  37.540   6.888
 4029POPC   C4A53274  28.581  37.742   7.282
 4029POPC   C1B53275  28.090  37.297   6.194
 4029POPC   C2B53276  27.827  37.308   6.567
 4029POPC   C3B53277  27.974  37.402   6.981
 4029POPC   C4B53278  28.235  37.336   7.314
 4030POPC   NC353279  28.872  19.883   5.405
 4030POPC   PO453280  29.120  19.318   5.669
 4030POPC   GL153281  29.087  19.742   5.866
 4030POPC   GL253282  28.738  19.913   5.882
 4030POPC   C1A53283  29.260  20.007   6.230
 4030POPC   D2A53284  29.367  19.829   6.647
 4030POPC   C3A53285  29.390  20.066   7.052
 4030POPC   C4A53286  29.277  19.867   7.426
 4030POPC   C1B53287  28.799  19.824   6.290
 4030POPC   C2B53288  28.863  20.020   6.635
 4030POPC   C3B53289  28.925  19.880   7.027
 4030POPC   C4B53290  28.731  19.761   7.393
 4031POPC   NC353291   8.875  14.656   5.429
 4031POPC   PO453292   8.578  14.053   5.629
 4031POPC   GL153293   8.884  14.331   5.836
 4031POPC   GL253294   8.838  14.710   5.941
 4031POPC   C1A53295   9.030  14.310   6.249
 4031POPC   D2A53296   9.000  14.607   6.567
 4031POPC   C3A53297   8.754  14.490   6.906
 4031POPC   C4A53298   8.839  14.442   7.322
 4031POPC   C1B53299   9.238  14.806   6.123
 4031POPC   C2B53300   9.442  14.862   6.543
 4031POPC   C3B53301   9.434  14.675   6.945
 4031POPC   C4B53302   9.242  14.731   7.324
 4032POPC   NC353303   5.607  27.244   5.396
 4032POPC   PO453304   5.951  27.829   5.417
 4032POPC   GL153305   5.963  27.599   5.795
 4032POPC   GL253306   6.272  27.388   5.781
 4032POPC   C1A53307   5.676  27.524   6.156
 4032POPC   D2A53308   5.661  27.238   6.513
 4032POPC   C3A53309   5.645  27.406   6.921
 4032POPC   C4A53310   5.769  27.586   7.291
 4032POPC   C1B53311   6.161  27.434   6.256
 4032POPC   C2B53312   6.084  27.532   6.717
 4032POPC   C3B53313   6.251  27.666   7.160
 4032POPC   C4B53314   6.181  27.529   7.626
 4033POPC   NC353315  31.017   5.985   5.432
 4033POPC   PO453316  30.354   6.153   5.403
 4033POPC   GL153317  30.571   5.966   5.763
 4033POPC   GL253318  30.804   5.661   5.782
 4033POPC   C1A53319  30.505   5.911   6.207
 4033POPC   D2A53320  30.653   5.780   6.600
 4033POPC   C3A53321  30.414   5.760   6.982
 4033POPC   C4A53322  30.770   5.918   7.226
 4033POPC   C1B53323  31.007   5.784   6.185
 4033POPC   C2B53324  31.110   5.525   6.560
 4033POPC   C3B53325  31.321   5.489   6.959
 4033POPC   C4B53326  31.188   5.360   7.379
 4034POPC   NC353327   6.014  36.605   5.089
 4034POPC   PO453328   6.548  36.961   5.373
 4034POPC   GL153329   6.687  36.927   5.758
 4034POPC   GL253330   6.819  36.599   5.683
 4034POPC   C1A53331   6.490  37.033   6.147
 4034POPC   D2A53332   6.643  37.223   6.500
 4034POPC   C3A53333   6.499  37.118   6.862
 4034POPC   C4A53334   6.466  37.038   7.256
 4034POPC   C1B53335   6.750  36.585   6.128
 4034POPC   C2B53336   6.665  36.696   6.545
 4034POPC   C3B53337   6.615  36.634   6.983
 4034POPC   C4B53338   6.672  36.624   7.442
 4035POPC   NC353339   7.893  16.036   5.156
 4035POPC   PO453340   7.279  15.912   5.417
 4035POPC   GL153341   7.463  15.927   5.807
 4035POPC   GL253342   7.739  15.699   5.753
 4035POPC   C1A53343   7.366  16.070   6.243
 4035POPC   D2A53344   7.113  16.123   6.617
 4035POPC   C3A53345   7.352  16.008   6.971
 4035POPC   C4A53346   7.808  16.072   7.054
 4035POPC   C1B53347   7.728  15.664   6.195
 4035POPC   C2B53348   7.538  15.554   6.583
 4035POPC   C3B53349   7.610  15.559   7.019
 4035POPC   C4B53350   7.801  15.463   7.403
 4036POPC   NC353351  17.011  19.687   5.359
 4036POPC   PO453352  16.611  20.162   5.363
 4036POPC   GL153353  16.623  19.983   5.778
 4036POPC   GL253354  16.910  19.791   5.863
 4036POPC   C1A53355  16.535  19.842   6.220
 4036POPC   D2A53356  16.743  19.794   6.638
 4036POPC   C3A53357  16.648  19.468   6.914
 4036POPC   C4A53358  16.307  19.516   7.201
 4036POPC   C1B53359  16.970  20.130   6.175
 4036POPC   C2B53360  17.047  20.355   6.556
 4036POPC   C3B53361  16.933  20.168   6.939
 4036POPC   C4B53362  16.852  19.818   7.236
 4037POPC   NC353363  29.360  37.634   5.332
 4037POPC   PO453364  28.723  37.790   5.409
 4037POPC   GL153365  28.950  37.477   5.704
 4037POPC   GL253366  29.317  37.462   5.814
 4037POPC   C1A53367  28.933  37.501   6.160
 4037POPC   D2A53368  29.129  37.795   6.463
 4037POPC   C3A53369  29.190  37.668   6.875
 4037POPC   C4A53370  28.911  37.433   7.065
 4037POPC   C1B53371  29.459  37.479   6.216
 4037POPC   C2B53372  29.286  37.288   6.534
 4037POPC   C3B53373  29.415  37.179   6.897
 4037POPC   C4B53374  29.365  37.326   7.280
 4038POPC   NC353375   6.646   4.511   5.363
 4038POPC   PO453376   7.032   3.947   5.441
 4038POPC   GL153377   6.882   4.174   5.818
 4038POPC   GL253378   6.512   4.285   5.838
 4038POPC   C1A53379   6.820   4.201   6.277
 4038POPC   D2A53380   6.495   4.238   6.605
 4038POPC   C3A53381   6.524   4.052   7.046
 4038POPC   C4A53382   6.763   4.113   7.454
 4038POPC   C1B53383   6.469   4.594   6.193
 4038POPC   C2B53384   6.590   4.768   6.574
 4038POPC   C3B53385   6.363   4.644   6.916
 4038POPC   C4B53386   6.652   4.536   7.199
 4039POPC   NC353387   8.324   7.977   5.169
 4039POPC   PO453388   8.327   7.369   5.382
 4039POPC   GL153389   8.154   7.338   5.771
 4039POPC   GL253390   8.206   7.685   5.799
 4039POPC   C1A53391   8.004   7.314   6.187
 4039POPC   D2A53392   8.227   7.269   6.584
 4039POPC   C3A53393   7.964   7.337   6.941
 4039POPC   C4A53394   8.054   7.389   7.358
 4039POPC   C1B53395   8.498   7.518   6.126
 4039POPC   C2B53396   8.685   7.514   6.541
 4039POPC   C3B53397   8.450   7.612   6.924
 4039POPC   C4B53398   8.437   7.821   7.286
 4040POPC   NC353399  27.268  31.578   5.562
 4040POPC   PO453400  27.819  31.280   5.357
 4040POPC   GL153401  27.651  31.264   5.798
 4040POPC   GL253402  27.709  31.600   5.886
 4040POPC   C1A53403  27.413  31.347   6.226
 4040POPC   D2A53404  27.426  31.593   6.618
 4040POPC   C3A53405  27.505  31.423   7.041
 4040POPC   C4A53406  27.369  31.297   7.462
 4040POPC   C1B53407  27.879  31.561   6.322
 4040POPC   C2B53408  27.917  31.795   6.720
 4040POPC   C3B53409  27.943  31.759   7.172
 4040POPC   C4B53410  27.775  31.687   7.630
 4041POPC   NC353411   5.942  28.290   5.355
 4041POPC   PO453412   5.307  28.424   5.460
 4041POPC   GL153413   5.693  28.395   5.782
 4041POPC   GL253414   5.959  28.122   5.836
 4041POPC   C1A53415   5.899  28.472   6.197
 4041POPC   D2A53416   5.742  28.327   6.611
 4041POPC   C3A53417   5.923  28.489   6.997
 4041POPC   C4A53418   5.773  28.808   7.293
 4041POPC   C1B53419   5.970  27.942   6.254
 4041POPC   C2B53420   6.177  28.022   6.640
 4041POPC   C3B53421   5.895  27.975   6.979
 4041POPC   C4B53422   5.739  28.138   7.373
 4042POPC   NC353423  41.385  15.264   5.531
 4042POPC   PO453424  41.790  14.728   5.307
 4042POPC   GL153425  41.893  14.969   5.717
 4042POPC   GL253426  41.840  15.357   5.827
 4042POPC   C1A53427  41.665  14.988   6.118
 4042POPC   D2A53428  41.769  15.213   6.487
 4042POPC   C3A53429  41.488  15.051   6.774
 4042POPC   C4A53430  41.690  15.028   7.144
 4042POPC   C1B53431  41.471  15.465   6.142
 4042POPC   C2B53432  41.359  15.522   6.575
 4042POPC   C3B53433  41.529  15.517   6.992
 4042POPC   C4B53434  41.301  15.505   7.342
 4043POPC   NC353435  10.219  38.478   5.403
 4043POPC   PO453436   9.519  38.599   5.385
 4043POPC   GL153437   9.820  38.602   5.736
 4043POPC   GL253438   9.979  38.261   5.809
 4043POPC   C1A53439   9.702  38.512   6.150
 4043POPC   D2A53440   9.421  38.683   6.421
 4043POPC   C3A53441   9.461  38.577   6.842
 4043POPC   C4A53442   9.619  38.739   7.232
 4043POPC   C1B53443  10.167  38.315   6.245
 4043POPC   C2B53444   9.937  38.501   6.623
 4043POPC   C3B53445   9.927  38.376   7.057
 4043POPC   C4B53446   9.953  38.140   7.445
 4044POPC   NC353447  28.779  19.170   5.394
 4044POPC   PO453448  28.478  18.601   5.519
 4044POPC   GL153449  28.557  18.959   5.854
 4044POPC   GL253450  28.589  19.348   5.831
 4044POPC   C1A53451  28.308  19.109   6.229
 4044POPC   D2A53452  28.091  18.911   6.571
 4044POPC   C3A53453  28.310  19.010   6.963
 4044POPC   C4A53454  28.042  18.945   7.336
 4044POPC   C1B53455  28.781  19.305   6.234
 4044POPC   C2B53456  28.815  19.160   6.662
 4044POPC   C3B53457  28.677  19.384   7.031
 4044POPC   C4B53458  28.595  19.250   7.427
 4045POPC   NC353459  11.569   7.161   5.502
 4045POPC   PO453460  11.613   7.788   5.439
 4045POPC   GL153461  11.438   7.539   5.823
 4045POPC   GL253462  11.284   7.202   5.918
 4045POPC   C1A53463  11.216   7.581   6.233
 4045POPC   D2A53464  11.057   7.452   6.652
 4045POPC   C3A53465  11.256   7.593   7.044
 4045POPC   C4A53466  11.441   7.408   7.399
 4045POPC   C1B53467  11.539   7.155   6.237
 4045POPC   C2B53468  11.474   7.018   6.627
 4045POPC   C3B53469  11.315   7.091   7.008
 4045POPC   C4B53470  11.397   6.888   7.342
 4046POPC   NC353471  24.338   2.272   5.360
 4046POPC   PO453472  24.788   1.848   5.509
 4046POPC   GL153473  24.485   2.022   5.811
 4046POPC   GL253474  24.285   1.804   6.045
 4046POPC   C1A53475  24.433   2.316   6.136
 4046POPC   D2A53476  24.300   2.455   6.571
 4046POPC   C3A53477  24.395   2.188   6.900
 4046POPC   C4A53478  24.725   2.041   7.158
 4046POPC   C1B53479  24.451   1.923   6.466
 4046POPC   C2B53480  24.534   1.675   6.857
 4046POPC   C3B53481  24.708   1.542   7.283
 4046POPC   C4B53482  24.743   1.599   7.758
 4047POPC   NC353483   8.946  36.406   5.445
 4047POPC   PO453484   9.226  35.833   5.559
 4047POPC   GL153485   8.955  35.908   5.878
 4047POPC   GL253486   8.852  36.264   5.943
 4047POPC   C1A53487   8.880  35.872   6.309
 4047POPC   D2A53488   8.660  35.954   6.686
 4047POPC   C3A53489   8.917  35.935   6.986
 4047POPC   C4A53490   9.127  35.884   7.339
 4047POPC   C1B53491   8.676  36.385   6.369
 4047POPC   C2B53492   8.689  36.433   6.873
 4047POPC   C3B53493   8.789  36.299   7.321
 4047POPC   C4B53494   8.696  36.542   7.759
 4048POPC   NC353495  28.939  20.661   5.604
 4048POPC   PO453496  29.556  20.913   5.532
 4048POPC   GL153497  29.418  20.549   5.817
 4048POPC   GL253498  29.159  20.249   5.792
 4048POPC   C1A53499  29.337  20.529   6.251
 4048POPC   D2A53500  29.264  20.343   6.650
 4048POPC   C3A53501  29.262  20.612   7.023
 4048POPC   C4A53502  28.908  20.890   7.122
 4048POPC   C1B53503  28.863  20.336   6.164
 4048POPC   C2B53504  28.807  20.572   6.545
 4048POPC   C3B53505  28.804  20.421   6.950
 4048POPC   C4B53506  28.576  20.211   7.207
 4049POPC   NC353507  43.520  19.047   5.714
 4049POPC   PO453508  42.999  19.312   5.468
 4049POPC   GL153509  43.042  19.208   5.886
 4049POPC   GL253510  42.741  19.192   6.042
 4049POPC   C1A53511  43.192  19.370   6.267
 4049POPC   D2A53512  43.505  19.294   6.542
 4049POPC   C3A53513  43.342  18.967   6.736
 4049POPC   C4A53514  43.206  18.889   7.127
 4049POPC   C1B53515  42.974  18.916   6.366
 4049POPC   C2B53516  42.928  18.650   6.768
 4049POPC   C3B53517  42.770  18.664   7.219
 4049POPC   C4B53518  43.059  18.679   7.585
 4050POPC   NC353519   0.250  22.139   5.450
 4050POPC   PO453520   0.182  22.756   5.651
 4050POPC   GL153521   0.257  22.396   5.900
 4050POPC   GL253522   0.600  22.287   5.793
 4050POPC   C1A53523   0.408  22.101   6.219
 4050POPC   D2A53524   0.621  22.230   6.559
 4050POPC   C3A53525   0.362  22.207   6.901
 4050POPC   C4A53526   0.400  21.954   7.271
 4050POPC   C1B53527   0.689  22.569   6.146
 4050POPC   C2B53528   0.977  22.597   6.527
 4050POPC   C3B53529   0.853  22.489   6.941
 4050POPC   C4B53530   0.575  22.484   7.278
 4051POPC   NC353531  31.957  21.523   5.385
 4051POPC   PO453532  31.384  21.198   5.302
 4051POPC   GL153533  31.525  21.365   5.715
 4051POPC   GL253534  31.213  21.373   5.926
 4051POPC   C1A53535  31.658  21.252   6.152
 4051POPC   D2A53536  31.683  21.116   6.577
 4051POPC   C3A53537  31.372  21.170   6.903
 4051POPC   C4A53538  31.596  21.185   7.281
 4051POPC   C1B53539  31.363  21.667   6.257
 4051POPC   C2B53540  31.452  21.624   6.692
 4051POPC   C3B53541  31.349  21.613   7.135
 4051POPC   C4B53542  31.420  21.603   7.612
 4052POPC   NC353543  11.262  28.724   5.422
 4052POPC   PO453544  11.104  28.050   5.418
 4052POPC   GL153545  11.139  28.330   5.801
 4052POPC   GL253546  11.455  28.488   5.872
 4052POPC   C1A53547  11.129  28.448   6.263
 4052POPC   D2A53548  11.306  28.417   6.677
 4052POPC   C3A53549  10.965  28.500   6.962
 4052POPC   C4A53550  10.929  28.603   7.381
 4052POPC   C1B53551  11.456  28.833   6.210
 4052POPC   C2B53552  11.597  28.854   6.629
 4052POPC   C3B53553  11.402  28.784   7.036
 4052POPC   C4B53554  11.365  28.392   7.271
 4053POPC   NC353555   5.484  22.301   5.551
 4053POPC   PO453556   5.061  21.801   5.452
 4053POPC   GL153557   5.113  22.070   5.811
 4053POPC   GL253558   5.319  21.847   5.906
 4053POPC   C1A53559   5.369  22.212   6.225
 4053POPC   D2A53560   5.421  22.069   6.654
 4053POPC   C3A53561   5.141  22.340   6.884
 4053POPC   C4A53562   4.983  22.526   7.264
 4053POPC   C1B53563   4.969  21.815   6.232
 4053POPC   C2B53564   4.826  21.774   6.670
 4053POPC   C3B53565   5.059  21.847   7.051
 4053POPC   C4B53566   4.953  22.055   7.468
 4054POPC   NC353567  26.611  35.819   5.372
 4054POPC   PO453568  27.001  36.314   5.467
 4054POPC   GL153569  26.858  36.127   5.845
 4054POPC   GL253570  26.535  36.113   5.792
 4054POPC   C1A53571  26.964  36.161   6.304
 4054POPC   D2A53572  26.776  36.426   6.650
 4054POPC   C3A53573  26.671  36.208   7.042
 4054POPC   C4A53574  26.834  36.258   7.488
 4054POPC   C1B53575  26.516  35.918   6.213
 4054POPC   C2B53576  26.228  35.889   6.562
 4054POPC   C3B53577  26.229  35.798   7.005
 4054POPC   C4B53578  26.442  35.960   7.418
 4055POPC   NC353579   3.163  23.164   5.422
 4055POPC   PO453580   2.647  22.690   5.350
 4055POPC   GL153581   2.752  22.966   5.728
 4055POPC   GL253582   2.468  23.183   5.868
 4055POPC   C1A53583   2.939  22.851   6.156
 4055POPC   D2A53584   3.010  22.705   6.600
 4055POPC   C3A53585   2.890  23.035   6.879
 4055POPC   C4A53586   3.081  23.123   7.273
 4055POPC   C1B53587   2.405  22.772   6.081
 4055POPC   C2B53588   2.510  22.671   6.514
 4055POPC   C3B53589   2.391  22.753   6.943
 4055POPC   C4B53590   2.519  22.995   7.281
 4056POPC   NC353591  17.554  29.592   5.515
 4056POPC   PO453592  17.832  30.182   5.653
 4056POPC   GL153593  17.490  29.929   5.906
 4056POPC   GL253594  17.747  29.741   6.071
 4056POPC   C1A53595  17.316  29.790   6.349
 4056POPC   D2A53596  17.336  29.561   6.768
 4056POPC   C3A53597  17.476  29.819   7.108
 4056POPC   C4A53598  17.538  29.788   7.540
 4056POPC   C1B53599  17.718  30.144   6.318
 4056POPC   C2B53600  17.849  30.354   6.684
 4056POPC   C3B53601  17.796  30.236   7.152
 4056POPC   C4B53602  17.710  30.251   7.619
 4057POPC   NC353603  37.139   9.938   5.564
 4057POPC   PO453604  36.500   9.644   5.499
 4057POPC   GL153605  36.825   9.654   5.874
 4057POPC   GL253606  37.139   9.433   5.907
 4057POPC   C1A53607  36.847   9.911   6.284
 4057POPC   D2A53608  36.553   9.934   6.669
 4057POPC   C3A53609  36.791   9.963   7.073
 4057POPC   C4A53610  36.708   9.894   7.531
 4057POPC   C1B53611  37.035   9.434   6.318
 4057POPC   C2B53612  36.937   9.602   6.701
 4057POPC   C3B53613  36.597   9.517   6.978
 4057POPC   C4B53614  36.805   9.441   7.314
 4058POPC   NC353615  39.037  34.185   5.166
 4058POPC   PO453616  39.384  33.679   5.529
 4058POPC   GL153617  39.352  33.733   5.947
 4058POPC   GL253618  39.013  33.593   5.964
 4058POPC   C1A53619  39.504  33.685   6.361
 4058POPC   D2A53620  39.322  33.901   6.694
 4058POPC   C3A53621  39.172  33.645   6.974
 4058POPC   C4A53622  39.521  33.657   7.227
 4058POPC   C1B53623  38.970  33.879   6.331
 4058POPC   C2B53624  38.993  34.290   6.511
 4058POPC   C3B53625  39.215  34.361   6.877
 4058POPC   C4B53626  39.187  34.095   7.218
 4059POPC   NC353627  41.714   2.195   5.336
 4059POPC   PO453628  41.482   1.589   5.473
 4059POPC   GL153629  41.703   1.849   5.845
 4059POPC   GL253630  41.889   2.182   5.829
 4059POPC   C1A53631  41.650   1.896   6.319
 4059POPC   D2A53632  41.856   2.083   6.687
 4059POPC   C3A53633  41.678   1.875   7.054
 4059POPC   C4A53634  41.255   1.958   7.250
 4059POPC   C1B53635  41.799   2.387   6.225
 4059POPC   C2B53636  41.655   2.553   6.639
 4059POPC   C3B53637  41.681   2.398   7.071
 4059POPC   C4B53638  41.916   2.212   7.415
 4060POPC   NC353639  37.096  34.047   5.201
 4060POPC   PO453640  36.675  33.561   5.459
 4060POPC   GL153641  36.821  33.751   5.807
 4060POPC   GL253642  37.163  33.872   5.710
 4060POPC   C1A53643  36.742  33.853   6.236
 4060POPC   D2A53644  36.509  34.019   6.555
 4060POPC   C3A53645  36.731  34.246   6.832
 4060POPC   C4A53646  37.013  34.154   7.163
 4060POPC   C1B53647  37.221  33.749   6.141
 4060POPC   C2B53648  37.128  33.907   6.601
 4060POPC   C3B53649  37.349  33.828   6.994
 4060POPC   C4B53650  37.308  33.711   7.432
 4061POPC   NC353651   9.942  16.319   5.367
 4061POPC   PO453652   9.491  15.982   5.520
 4061POPC   GL153653   9.668  15.852   5.855
 4061POPC   GL253654   9.971  15.676   5.779
 4061POPC   C1A53655   9.539  15.854   6.253
 4061POPC   D2A53656   9.651  16.080   6.566
 4061POPC   C3A53657   9.641  15.888   6.935
 4061POPC   C4A53658   9.695  15.847   7.348
 4061POPC   C1B53659  10.051  15.930   6.211
 4061POPC   C2B53660  10.109  15.920   6.702
 4061POPC   C3B53661  10.104  16.088   7.139
 4061POPC   C4B53662  10.235  16.130   7.609
 4062POPC   NC353663  28.561  34.802   5.469
 4062POPC   PO453664  28.326  34.158   5.541
 4062POPC   GL153665  28.433  34.477   5.851
 4062POPC   GL253666  28.283  34.342   6.128
 4062POPC   C1A53667  28.703  34.597   6.231
 4062POPC   D2A53668  28.516  34.487   6.615
 4062POPC   C3A53669  28.637  34.609   6.988
 4062POPC   C4A53670  28.625  34.335   7.323
 4062POPC   C1B53671  28.219  34.777   6.325
 4062POPC   C2B53672  28.091  34.769   6.745
 4062POPC   C3B53673  28.150  34.422   7.004
 4062POPC   C4B53674  28.242  34.698   7.323
 4063POPC   NC353675   3.960  43.072   5.344
 4063POPC   PO453676   3.339  43.274   5.250
 4063POPC   GL153677   3.459  43.031   5.667
 4063POPC   GL253678   3.813  43.022   5.819
 4063POPC   C1A53679   3.372  43.003   6.144
 4063POPC   D2A53680   3.436  43.233   6.556
 4063POPC   C3A53681   3.436  42.995   6.950
 4063POPC   C4A53682   3.176  42.729   7.245
 4063POPC   C1B53683   3.880  43.118   6.246
 4063POPC   C2B53684   3.827  42.859   6.599
 4063POPC   C3B53685   4.004  42.812   6.974
 4063POPC   C4B53686   3.876  43.171   7.209
 4064POPC   NC353687  20.434  41.703   5.162
 4064POPC   PO453688  20.560  41.197   5.534
 4064POPC   GL153689  20.779  41.439   5.875
 4064POPC   GL253690  20.474  41.627   5.951
 4064POPC   C1A53691  20.869  41.657   6.293
 4064POPC   D2A53692  20.521  41.681   6.563
 4064POPC   C3A53693  20.504  41.688   7.021
 4064POPC   C4A53694  20.806  41.622   7.330
 4064POPC   C1B53695  20.319  41.269   6.187
 4064POPC   C2B53696  20.202  41.250   6.607
 4064POPC   C3B53697  20.444  41.172   6.941
 4064POPC   C4B53698  20.449  41.256   7.356
 4065POPC   NC353699  20.615  21.748   5.461
 4065POPC   PO453700  20.691  21.048   5.484
 4065POPC   GL153701  20.603  21.336   5.793
 4065POPC   GL253702  20.251  21.245   5.831
 4065POPC   C1A53703  20.747  21.434   6.201
 4065POPC   D2A53704  20.548  21.483   6.599
 4065POPC   C3A53705  20.685  21.630   7.026
 4065POPC   C4A53706  20.657  21.303   7.313
 4065POPC   C1B53707  20.371  20.990   6.216
 4065POPC   C2B53708  20.484  20.951   6.659
 4065POPC   C3B53709  20.303  21.215   6.941
 4065POPC   C4B53710  20.158  21.256   7.311
 4066POPC   NC353711   7.472   4.099   5.437
 4066POPC   PO453712   7.184   4.703   5.303
 4066POPC   GL153713   7.299   4.508   5.716
 4066POPC   GL253714   7.669   4.464   5.745
 4066POPC   C1A53715   7.332   4.263   6.116
 4066POPC   D2A53716   7.267   4.214   6.559
 4066POPC   C3A53717   7.394   3.856   6.795
 4066POPC   C4A53718   7.399   4.000   7.225
 4066POPC   C1B53719   7.587   4.724   6.125
 4066POPC   C2B53720   7.626   4.638   6.576
 4066POPC   C3B53721   7.527   4.467   6.991
 4066POPC   C4B53722   7.637   4.595   7.422
 4067POPC   NC353723   8.643  26.107   5.458
 4067POPC   PO453724   9.356  26.216   5.344
 4067POPC   GL153725   9.082  26.063   5.706
 4067POPC   GL253726   9.247  25.776   5.865
 4067POPC   C1A53727   8.765  25.954   6.099
 4067POPC   D2A53728   8.864  25.801   6.530
 4067POPC   C3A53729   8.727  25.889   6.941
 4067POPC   C4A53730   8.902  25.986   7.323
 4067POPC   C1B53731   9.226  26.134   6.176
 4067POPC   C2B53732   9.149  26.250   6.584
 4067POPC   C3B53733   9.309  26.096   6.962
 4067POPC   C4B53734   9.192  26.386   7.244
 4068POPC   NC353735   3.167  26.406   5.605
 4068POPC   PO453736   3.571  26.851   5.220
 4068POPC   GL153737   3.535  26.789   5.675
 4068POPC   GL253738   3.196  26.888   5.780
 4068POPC   C1A53739   3.625  26.876   6.122
 4068POPC   D2A53740   3.594  27.084   6.535
 4068POPC   C3A53741   3.665  26.825   6.895
 4068POPC   C4A53742   3.967  26.587   7.133
 4068POPC   C1B53743   3.189  27.161   6.123
 4068POPC   C2B53744   3.110  27.192   6.561
 4068POPC   C3B53745   3.284  27.177   6.997
 4068POPC   C4B53746   3.356  26.856   7.314
 4069POPC   NC353747  29.894  16.962   5.378
 4069POPC   PO453748  30.248  16.490   5.655
 4069POPC   GL153749  30.055  16.819   5.872
 4069POPC   GL253750  29.712  16.750   5.811
 4069POPC   C1A53751  30.007  16.796   6.313
 4069POPC   D2A53752  30.231  16.713   6.679
 4069POPC   C3A53753  29.919  16.726   6.981
 4069POPC   C4A53754  29.864  16.475   7.320
 4069POPC   C1B53755  29.546  16.982   6.159
 4069POPC   C2B53756  29.525  17.006   6.582
 4069POPC   C3B53757  29.400  16.818   6.957
 4069POPC   C4B53758  29.562  16.881   7.370
 4070POPC   NC353759   1.001  15.460   5.360
 4070POPC   PO453760   0.936  16.119   5.353
 4070POPC   GL153761   1.076  15.965   5.750
 4070POPC   GL253762   0.899  15.679   5.807
 4070POPC   C1A53763   1.189  16.085   6.185
 4070POPC   D2A53764   1.498  15.948   6.518
 4070POPC   C3A53765   1.405  15.850   6.962
 4070POPC   C4A53766   1.531  16.178   7.316
 4070POPC   C1B53767   0.785  15.746   6.212
 4070POPC   C2B53768   0.989  15.771   6.579
 4070POPC   C3B53769   0.844  15.757   6.969
 4070POPC   C4B53770   1.034  15.874   7.325
 4071POPC   NC353771   7.494   5.040   5.361
 4071POPC   PO453772   7.385   5.686   5.306
 4071POPC   GL153773   7.273   5.387   5.687
 4071POPC   GL253774   7.139   5.021   5.739
 4071POPC   C1A53775   7.472   5.249   6.070
 4071POPC   D2A53776   7.380   5.329   6.510
 4071POPC   C3A53777   7.520   5.090   6.823
 4071POPC   C4A53778   7.805   5.211   7.137
 4071POPC   C1B53779   6.948   4.821   6.108
 4071POPC   C2B53780   7.109   4.706   6.509
 4071POPC   C3B53781   7.104   4.788   6.951
 4071POPC   C4B53782   7.356   4.981   7.289
 4072POPC   NC353783  28.350  27.994   5.629
 4072POPC   PO453784  28.187  27.409   5.341
 4072POPC   GL153785  28.101  27.544   5.766
 4072POPC   GL253786  28.455  27.500   5.800
 4072POPC   C1A53787  28.123  27.686   6.210
 4072POPC   D2A53788  28.392  27.571   6.580
 4072POPC   C3A53789  28.268  27.600   7.004
 4072POPC   C4A53790  27.965  27.757   7.279
 4072POPC   C1B53791  28.394  27.246   6.174
 4072POPC   C2B53792  28.724  27.185   6.480
 4072POPC   C3B53793  28.732  27.328   6.914
 4072POPC   C4B53794  28.620  27.438   7.346
 4073POPC   NC353795  12.024  25.400   5.271
 4073POPC   PO453796  12.303  24.979   5.641
 4073POPC   GL153797  11.949  25.198   5.757
 4073POPC   GL253798  12.111  25.518   5.755
 4073POPC   C1A53799  11.845  25.340   6.158
 4073POPC   D2A53800  12.107  25.213   6.503
 4073POPC   C3A53801  11.992  25.349   6.884
 4073POPC   C4A53802  11.999  25.177   7.283
 4073POPC   C1B53803  12.306  25.571   6.174
 4073POPC   C2B53804  12.227  25.734   6.590
 4073POPC   C3B53805  12.442  25.627   6.964
 4073POPC   C4B53806  12.482  25.435   7.365
 4074POPC   NC353807   1.874  21.179   5.513
 4074POPC   PO453808   2.329  21.731   5.273
 4074POPC   GL153809   2.277  21.586   5.703
 4074POPC   GL253810   1.915  21.586   5.805
 4074POPC   C1A53811   2.248  21.454   6.167
 4074POPC   D2A53812   1.910  21.332   6.455
 4074POPC   C3A53813   1.937  21.235   6.903
 4074POPC   C4A53814   1.685  21.226   7.269
 4074POPC   C1B53815   1.936  21.863   6.130
 4074POPC   C2B53816   1.835  21.850   6.534
 4074POPC   C3B53817   2.080  21.739   6.846
 4074POPC   C4B53818   1.995  21.626   7.235
 4075POPC   NC353819  31.453  42.570   5.428
 4075POPC   PO453820  30.895  42.511   5.457
 4075POPC   GL153821  31.167  42.497   5.862
 4075POPC   GL253822  31.508  42.318   5.867
 4075POPC   C1A53823  31.372  42.604   6.290
 4075POPC   D2A53824  31.488  42.339   6.665
 4075POPC   C3A53825  31.565  42.485   7.086
 4075POPC   C4A53826  31.426  42.317   7.500
 4075POPC   C1B53827  31.802  42.323   6.218
 4075POPC   C2B53828  32.009  42.407   6.620
 4075POPC   C3B53829  31.934  42.139   6.961
 4075POPC   C4B53830  31.924  42.203   7.394
 4076POPC   NC353831  19.377  39.125   5.576
 4076POPC   PO453832  18.905  39.618   5.402
 4076POPC   GL153833  18.941  39.456   5.822
 4076POPC   GL253834  18.798  39.131   5.761
 4076POPC   C1A53835  19.157  39.560   6.226
 4076POPC   D2A53836  19.108  39.711   6.646
 4076POPC   C3A53837  19.192  39.335   6.889
 4076POPC   C4A53838  19.170  39.292   7.299
 4076POPC   C1B53839  18.827  38.869   6.141
 4076POPC   C2B53840  18.826  38.728   6.596
 4076POPC   C3B53841  18.819  38.945   7.021
 4076POPC   C4B53842  18.869  38.926   7.491
 4077POPC   NC353843  33.882  29.647   5.401
 4077POPC   PO453844  33.683  30.240   5.250
 4077POPC   GL153845  33.679  30.007   5.709
 4077POPC   GL253846  33.383  30.133   5.905
 4077POPC   C1A53847  33.882  29.897   6.133
 4077POPC   D2A53848  34.138  29.790   6.523
 4077POPC   C3A53849  33.910  29.705   6.919
 4077POPC   C4A53850  33.805  29.786   7.385
 4077POPC   C1B53851  33.510  30.189   6.327
 4077POPC   C2B53852  33.829  30.180   6.649
 4077POPC   C3B53853  33.962  30.189   7.072
 4077POPC   C4B53854  33.693  30.342   7.373
 4078POPC   NC353855  37.058  43.572   5.061
 4078POPC   PO453856  37.002  42.962   5.392
 4078POPC   GL153857  36.914  42.976   5.814
 4078POPC   GL253858  37.170  43.241   5.804
 4078POPC   C1A53859  36.678  43.027   6.212
 4078POPC   D2A53860  36.869  43.110   6.615
 4078POPC   C3A53861  36.663  43.215   6.957
 4078POPC   C4A53862  36.862  43.196   7.305
 4078POPC   C1B53863  37.205  43.191   6.244
 4078POPC   C2B53864  37.264  43.473   6.595
 4078POPC   C3B53865  37.151  43.491   7.012
 4078POPC   C4B53866  37.294  43.499   7.425
 4079POPC   NC353867  26.543   0.420   5.333
 4079POPC   PO453868  27.054  44.958   5.506
 4079POPC   GL153869  26.901   0.275   5.821
 4079POPC   GL253870  26.871   0.653   5.808
 4079POPC   C1A53871  26.980   0.433   6.258
 4079POPC   D2A53872  26.931   0.258   6.651
 4079POPC   C3A53873  27.043   0.432   7.042
 4079POPC   C4A53874  26.861   0.181   7.345
 4079POPC   C1B53875  26.630   0.804   6.215
 4079POPC   C2B53876  26.760   0.767   6.674
 4079POPC   C3B53877  26.589   0.635   7.080
 4079POPC   C4B53878  26.402   0.404   7.410
 4080POPC   NC353879  13.355  30.209   5.460
 4080POPC   PO453880  13.788  29.723   5.648
 4080POPC   GL153881  13.519  29.947   5.925
 4080POPC   GL253882  13.647  30.282   5.892
 4080POPC   C1A53883  13.388  29.792   6.348
 4080POPC   D2A53884  13.694  29.652   6.650
 4080POPC   C3A53885  13.638  29.762   7.084
 4080POPC   C4A53886  13.302  29.943   7.299
 4080POPC   C1B53887  13.565  30.294   6.352
 4080POPC   C2B53888  13.742  30.259   6.809
 4080POPC   C3B53889  13.717  30.286   7.278
 4080POPC   C4B53890  13.845  30.445   7.700
 4081POPC   NC353891  32.617  44.715   5.369
 4081POPC   PO453892  31.985  44.521   5.388
 4081POPC   GL153893  32.225  44.688   5.782
 4081POPC   GL253894  32.550  44.855   5.852
 4081POPC   C1A53895  32.179  44.751   6.248
 4081POPC   D2A53896  32.118  44.393   6.541
 4081POPC   C3A53897  32.067  44.494   6.979
 4081POPC   C4A53898  32.098  44.894   7.179
 4081POPC   C1B53899  32.602  44.480   6.117
 4081POPC   C2B53900  32.648  44.436   6.569
 4081POPC   C3B53901  32.553  44.704   6.957
 4081POPC   C4B53902  32.439  44.591   7.390
 4082POPC   NC353903  17.715  17.259   5.517
 4082POPC   PO453904  17.295  17.713   5.565
 4082POPC   GL153905  17.474  17.531   5.919
 4082POPC   GL253906  17.333  17.232   5.901
 4082POPC   C1A53907  17.551  17.684   6.343
 4082POPC   D2A53908  17.672  18.016   6.607
 4082POPC   C3A53909  17.425  17.900   6.955
 4082POPC   C4A53910  17.492  17.546   7.218
 4082POPC   C1B53911  17.245  17.248   6.326
 4082POPC   C2B53912  17.315  17.379   6.748
 4082POPC   C3B53913  17.111  17.235   7.150
 4082POPC   C4B53914  17.198  17.322   7.595
 4083POPC   NC353915   2.081  17.024   5.308
 4083POPC   PO453916   1.791  16.420   5.476
 4083POPC   GL153917   1.751  16.808   5.730
 4083POPC   GL253918   2.109  16.851   5.786
 4083POPC   C1A53919   1.626  17.043   6.125
 4083POPC   D2A53920   1.610  16.855   6.562
 4083POPC   C3A53921   1.772  16.949   6.979
 4083POPC   C4A53922   1.826  16.650   7.340
 4083POPC   C1B53923   2.010  16.700   6.202
 4083POPC   C2B53924   2.153  16.812   6.614
 4083POPC   C3B53925   2.212  16.612   6.992
 4083POPC   C4B53926   2.152  16.265   7.257
 4084POPC   NC353927  33.671  32.767   5.589
 4084POPC   PO453928  33.828  33.362   5.368
 4084POPC   GL153929  33.752  33.230   5.783
 4084POPC   GL253930  33.412  33.261   5.730
 4084POPC   C1A53931  33.808  33.001   6.184
 4084POPC   D2A53932  33.949  33.006   6.596
 4084POPC   C3A53933  34.031  32.714   6.947
 4084POPC   C4A53934  33.878  32.921   7.281
 4084POPC   C1B53935  33.364  33.430   6.146
 4084POPC   C2B53936  33.509  33.281   6.523
 4084POPC   C3B53937  33.297  33.350   6.888
 4084POPC   C4B53938  33.438  33.220   7.246
 4085POPC   NC353939   0.136  34.109   5.308
 4085POPC   PO453940   0.607  33.708   5.412
 4085POPC   GL153941   0.248  33.782   5.780
 4085POPC   GL253942   0.109  34.132   5.825
 4085POPC   C1A53943   0.208  33.716   6.272
 4085POPC   D2A53944   0.338  33.612   6.746
 4085POPC   C3A53945   0.530  33.893   7.076
 4085POPC   C4A53946   0.893  34.012   7.347
 4085POPC   C1B53947   0.062  34.228   6.267
 4085POPC   C2B53948   0.104  34.073   6.655
 4085POPC   C3B53949   0.151  34.249   7.034
 4085POPC   C4B53950   0.130  34.004   7.379
 4086POPC   NC353951  13.352  20.084   5.436
 4086POPC   PO453952  13.808  19.579   5.469
 4086POPC   GL153953  13.909  19.816   5.853
 4086POPC   GL253954  13.855  20.188   5.836
 4086POPC   C1A53955  13.900  19.690   6.293
 4086POPC   D2A53956  14.081  19.785   6.706
 4086POPC   C3A53957  13.744  19.792   7.003
 4086POPC   C4A53958  13.706  19.483   7.321
 4086POPC   C1B53959  13.523  20.038   6.136
 4086POPC   C2B53960  13.454  19.857   6.555
 4086POPC   C3B53961  13.242  19.937   6.952
 4086POPC   C4B53962  13.369  19.886   7.387
 4087POPC   NC353963  33.242  14.648   5.548
 4087POPC   PO453964  32.908  14.225   5.259
 4087POPC   GL153965  32.964  14.261   5.724
 4087POPC   GL253966  32.744  14.541   5.850
 4087POPC   C1A53967  33.115  14.466   6.147
 4087POPC   D2A53968  32.893  14.662   6.489
 4087POPC   C3A53969  32.957  14.523   6.912
 4087POPC   C4A53970  33.229  14.336   7.262
 4087POPC   C1B53971  32.695  14.163   6.152
 4087POPC   C2B53972  32.549  14.000   6.555
 4087POPC   C3B53973  32.678  14.098   6.944
 4087POPC   C4B53974  32.714  14.327   7.323
 4088POPC   NC353975   9.309  12.245   5.375
 4088POPC   PO453976   8.604  12.033   5.371
 4088POPC   GL153977   8.863  12.212   5.714
 4088POPC   GL253978   9.208  12.130   5.837
 4088POPC   C1A53979   8.752  12.259   6.158
 4088POPC   D2A53980   8.507  12.208   6.570
 4088POPC   C3A53981   8.760  12.183   6.976
 4088POPC   C4A53982   9.081  12.380   7.281
 4088POPC   C1B53983   9.126  11.876   6.163
 4088POPC   C2B53984   9.012  12.025   6.548
 4088POPC   C3B53985   9.261  12.190   6.871
 4088POPC   C4B53986   9.378  11.953   7.230
 4089POPC   NC353987   7.070  28.350   5.352
 4089POPC   PO453988   6.410  28.283   5.398
 4089POPC   GL153989   6.430  28.342   5.789
 4089POPC   GL253990   6.775  28.436   5.818
 4089POPC   C1A53991   6.433  28.138   6.167
 4089POPC   D2A53992   6.752  28.178   6.440
 4089POPC   C3A53993   6.702  28.174   6.873
 4089POPC   C4A53994   6.338  28.179   7.119
 4089POPC   C1B53995   7.022  28.628   6.177
 4089POPC   C2B53996   6.892  28.645   6.608
 4089POPC   C3B53997   7.056  28.656   7.006
 4089POPC   C4B53998   6.927  28.794   7.419
 4090POPC   NC353999  42.334  37.042   5.398
 4090POPC   PO454000  42.676  36.483   5.396
 4090POPC   GL154001  42.372  36.635   5.773
 4090POPC   GL254002  42.426  37.002   5.898
 4090POPC   C1A54003  42.258  36.663   6.238
 4090POPC   D2A54004  42.266  37.013   6.548
 4090POPC   C3A54005  42.356  36.914   6.991
 4090POPC   C4A54006  42.310  36.483   7.162
 4090POPC   C1B54007  42.177  37.345   6.101
 4090POPC   C2B54008  41.942  37.418   6.493
 4090POPC   C3B54009  42.153  37.413   6.871
 4090POPC   C4B54010  42.051  37.278   7.271
 4091POPC   NC354011  15.106  32.479   5.709
 4091POPC   PO454012  15.102  31.834   5.545
 4091POPC   GL154013  15.058  32.033   5.921
 4091POPC   GL254014  15.397  32.085   6.023
 4091POPC   C1A54015  14.996  32.253   6.329
 4091POPC   D2A54016  14.861  32.053   6.710
 4091POPC   C3A54017  14.849  32.298   7.095
 4091POPC   C4A54018  15.174  32.355   7.407
 4091POPC   C1B54019  15.479  32.159   6.479
 4091POPC   C2B54020  15.357  32.213   6.928
 4091POPC   C3B54021  15.566  31.948   7.249
 4091POPC   C4B54022  16.017  32.037   7.418
 4092POPC   NC354023  21.012   1.646   5.493
 4092POPC   PO454024  21.395   2.259   5.432
 4092POPC   GL154025  21.550   2.238   5.845
 4092POPC   GL254026  21.642   2.544   5.878
 4092POPC   C1A54027  21.504   2.102   6.259
 4092POPC   D2A54028  21.459   1.859   6.616
 4092POPC   C3A54029  21.103   1.846   6.882
 4092POPC   C4A54030  20.974   2.170   7.169
 4092POPC   C1B54031  21.409   2.585   6.273
 4092POPC   C2B54032  21.278   2.367   6.670
 4092POPC   C3B54033  21.458   2.177   7.052
 4092POPC   C4B54034  21.489   2.150   7.491
 4093POPC   NC354035  25.155   4.676   5.306
 4093POPC   PO454036  25.511   5.300   5.411
 4093POPC   GL154037  25.366   5.237   5.837
 4093POPC   GL254038  25.227   5.520   5.873
 4093POPC   C1A54039  25.399   5.131   6.300
 4093POPC   D2A54040  25.316   4.902   6.716
 4093POPC   C3A54041  25.414   5.108   7.098
 4093POPC   C4A54042  25.025   4.984   7.288
 4093POPC   C1B54043  24.929   5.345   6.164
 4093POPC   C2B54044  24.923   5.189   6.588
 4093POPC   C3B54045  24.970   5.394   6.987
 4093POPC   C4B54046  25.356   5.620   7.154
 4094POPC   NC354047  22.577  23.139   5.349
 4094POPC   PO454048  21.918  22.758   5.313
 4094POPC   GL154049  22.007  22.933   5.750
 4094POPC   GL254050  22.345  22.823   5.693
 4094POPC   C1A54051  21.909  23.149   6.184
 4094POPC   D2A54052  21.922  23.421   6.597
 4094POPC   C3A54053  22.105  23.222   6.959
 4094POPC   C4A54054  21.986  22.825   7.179
 4094POPC   C1B54055  22.393  22.918   6.138
 4094POPC   C2B54056  22.192  22.897   6.561
 4094POPC   C3B54057  22.448  22.839   6.928
 4094POPC   C4B54058  22.613  22.883   7.301
 4095POPC   NC354059   8.501  34.860   5.493
 4095POPC   PO454060   8.069  35.368   5.500
 4095POPC   GL154061   8.287  35.220   5.818
 4095POPC   GL254062   8.502  35.501   5.797
 4095POPC   C1A54063   8.217  35.000   6.205
 4095POPC   D2A54064   8.060  34.985   6.632
 4095POPC   C3A54065   8.219  35.188   6.993
 4095POPC   C4A54066   8.133  35.575   7.243
 4095POPC   C1B54067   8.512  35.431   6.244
 4095POPC   C2B54068   8.364  35.536   6.646
 4095POPC   C3B54069   8.584  35.576   7.039
 4095POPC   C4B54070   8.623  35.750   7.482
 4096POPC   NC354071  12.545  32.318   5.327
 4096POPC   PO454072  13.211  32.189   5.585
 4096POPC   GL154073  12.923  32.126   5.903
 4096POPC   GL254074  12.595  31.985   5.785
 4096POPC   C1A54075  12.911  32.297   6.280
 4096POPC   D2A54076  12.897  32.152   6.655
 4096POPC   C3A54077  13.132  32.370   6.918
 4096POPC   C4A54078  13.115  32.145   7.249
 4096POPC   C1B54079  12.544  31.964   6.254
 4096POPC   C2B54080  12.389  32.139   6.653
 4096POPC   C3B54081  12.571  32.254   7.061
 4096POPC   C4B54082  12.667  32.033   7.447
 4097POPC   NC354083  38.841   4.856   5.451
 4097POPC   PO454084  39.215   5.356   5.472
 4097POPC   GL154085  38.940   5.225   5.822
 4097POPC   GL254086  39.048   4.894   5.916
 4097POPC   C1A54087  38.956   5.284   6.277
 4097POPC   D2A54088  39.319   5.208   6.509
 4097POPC   C3A54089  39.236   5.223   6.899
 4097POPC   C4A54090  39.219   5.535   7.214
 4097POPC   C1B54091  38.850   4.778   6.271
 4097POPC   C2B54092  39.059   4.767   6.627
 4097POPC   C3B54093  39.106   4.758   7.065
 4097POPC   C4B54094  38.879   5.086   7.207
 4098POPC   NC354095  19.545  35.455   5.566
 4098POPC   PO454096  20.164  35.675   5.334
 4098POPC   GL154097  20.088  35.635   5.795
 4098POPC   GL254098  19.776  35.671   5.983
 4098POPC   C1A54099  20.110  35.291   6.135
 4098POPC   D2A54100  20.087  34.950   6.479
 4098POPC   C3A54101  19.828  35.076   6.833
 4098POPC   C4A54102  19.910  35.176   7.257
 4098POPC   C1B54103  19.679  35.489   6.419
 4098POPC   C2B54104  19.303  35.467   6.722
 4098POPC   C3B54105  19.195  35.666   7.144
 4098POPC   C4B54106  19.497  35.619   7.517
 4099POPC   NC354107  27.909  42.373   5.305
 4099POPC   PO454108  27.299  42.142   5.429
 4099POPC   GL154109  27.365  42.354   5.790
 4099POPC   GL254110  27.693  42.505   5.765
 4099POPC   C1A54111  27.309  42.470   6.205
 4099POPC   D2A54112  27.534  42.381   6.607
 4099POPC   C3A54113  27.503  42.643   6.956
 4099POPC   C4A54114  27.306  42.471   7.313
 4099POPC   C1B54115  27.836  42.499   6.201
 4099POPC   C2B54116  27.906  42.739   6.604
 4099POPC   C3B54117  28.003  42.584   7.028
 4099POPC   C4B54118  27.753  42.198   7.075
 4100POPC   NC354119  32.992  23.429   5.616
 4100POPC   PO454120  33.024  22.800   5.314
 4100POPC   GL154121  33.029  22.932   5.735
 4100POPC   GL254122  32.706  23.129   5.907
 4100POPC   C1A54123  33.169  23.023   6.153
 4100POPC   D2A54124  33.043  22.903   6.547
 4100POPC   C3A54125  33.122  22.958   6.983
 4100POPC   C4A54126  32.767  23.054   7.256
 4100POPC   C1B54127  32.750  22.731   6.097
 4100POPC   C2B54128  32.739  22.498   6.443
 4100POPC   C3B54129  32.831  22.550   6.854
 4100POPC   C4B54130  32.652  22.548   7.225
 4101POPC   NC354131  24.969  31.643   5.390
 4101POPC   PO454132  25.236  31.094   5.696
 4101POPC   GL154133  25.078  31.392   5.968
 4101POPC   GL254134  25.177  31.706   5.859
 4101POPC   C1A54135  24.939  31.301   6.367
 4101POPC   D2A54136  25.308  31.346   6.600
 4101POPC   C3A54137  25.220  31.260   7.017
 4101POPC   C4A54138  25.596  31.221   7.276
 4101POPC   C1B54139  25.086  31.788   6.307
 4101POPC   C2B54140  24.947  31.682   6.743
 4101POPC   C3B54141  25.034  31.732   7.191
 4101POPC   C4B54142  25.147  31.772   7.627
 4102POPC   NC354143  41.231  40.913   5.335
 4102POPC   PO454144  41.592  40.358   5.504
 4102POPC   GL154145  41.526  40.706   5.779
 4102POPC   GL254146  41.198  40.611   5.782
 4102POPC   C1A54147  41.718  40.875   6.170
 4102POPC   D2A54148  41.768  40.686   6.586
 4102POPC   C3A54149  41.767  40.924   6.985
 4102POPC   C4A54150  41.915  41.192   7.328
 4102POPC   C1B54151  41.177  40.830   6.165
 4102POPC   C2B54152  41.332  40.931   6.523
 4102POPC   C3B54153  41.259  40.852   6.919
 4102POPC   C4B54154  41.420  40.576   7.209
 4103POPC   NC354155  27.536  11.719   5.446
 4103POPC   PO454156  27.919  12.293   5.349
 4103POPC   GL154157  27.678  12.151   5.706
 4103POPC   GL254158  27.319  12.179   5.635
 4103POPC   C1A54159  27.764  11.927   6.107
 4103POPC   D2A54160  27.962  12.021   6.498
 4103POPC   C3A54161  27.838  12.241   6.856
 4103POPC   C4A54162  27.889  12.048   7.242
 4103POPC   C1B54163  27.314  12.149   6.112
 4103POPC   C2B54164  27.404  12.025   6.564
 4103POPC   C3B54165  27.426  11.941   6.996
 4103POPC   C4B54166  27.407  12.259   7.320
 4104POPC   NC354167  34.765  28.865   5.462
 4104POPC   PO454168  34.316  29.426   5.342
 4104POPC   GL154169  34.361  29.267   5.785
 4104POPC   GL254170  34.711  29.286   5.831
 4104POPC   C1A54171  34.445  29.095   6.227
 4104POPC   D2A54172  34.691  28.964   6.609
 4104POPC   C3A54173  34.478  29.008   7.022
 4104POPC   C4A54174  34.195  28.944   7.386
 4104POPC   C1B54175  34.994  29.382   6.179
 4104POPC   C2B54176  35.156  29.227   6.573
 4104POPC   C3B54177  35.001  29.232   6.984
 4104POPC   C4B54178  34.711  29.433   7.247
 4105POPC   NC354179  36.235  26.820   5.392
 4105POPC   PO454180  35.607  27.069   5.506
 4105POPC   GL154181  35.973  27.015   5.803
 4105POPC   GL254182  36.014  26.643   5.868
 4105POPC   C1A54183  36.144  26.929   6.245
 4105POPC   D2A54184  36.101  26.628   6.560
 4105POPC   C3A54185  36.112  26.913   6.899
 4105POPC   C4A54186  35.888  27.150   7.224
 4105POPC   C1B54187  36.375  26.435   6.143
 4105POPC   C2B54188  36.434  26.226   6.576
 4105POPC   C3B54189  36.253  26.368   6.993
 4105POPC   C4B54190  35.866  26.563   7.172
 4106POPC   NC354191  26.631  15.809   5.296
 4106POPC   PO454192  26.975  16.113   5.701
 4106POPC   GL154193  26.905  15.837   5.960
 4106POPC   GL254194  27.213  15.647   5.853
 4106POPC   C1A54195  26.721  16.005   6.334
 4106POPC   D2A54196  26.568  16.285   6.646
 4106POPC   C3A54197  26.599  15.975   7.007
 4106POPC   C4A54198  26.669  15.484   7.043
 4106POPC   C1B54199  27.206  15.642   6.303
 4106POPC   C2B54200  26.952  15.637   6.628
 4106POPC   C3B54201  27.173  15.519   6.958
 4106POPC   C4B54202  27.288  15.707   7.308
 4107POPC   NC354203  25.062   9.886   5.420
 4107POPC   PO454204  25.557  10.133   5.572
 4107POPC   GL154205  25.361   9.884   5.877
 4107POPC   GL254206  25.026   9.945   5.950
 4107POPC   C1A54207  25.535   9.668   6.251
 4107POPC   D2A54208  25.644   9.803   6.680
 4107POPC   C3A54209  25.477   9.601   7.074
 4107POPC   C4A54210  25.271   9.817   7.383
 4107POPC   C1B54211  25.140   9.938   6.406
 4107POPC   C2B54212  25.159   9.583   6.691
 4107POPC   C3B54213  24.964   9.516   7.104
 4107POPC   C4B54214  24.746   9.880   7.272
 4108POPC   NC354215  32.723  17.060   5.559
 4108POPC   PO454216  33.027  16.445   5.341
 4108POPC   GL154217  33.030  16.684   5.794
 4108POPC   GL254218  33.184  16.997   5.866
 4108POPC   C1A54219  32.854  16.802   6.253
 4108POPC   D2A54220  32.701  16.737   6.720
 4108POPC   C3A54221  32.999  16.603   7.060
 4108POPC   C4A54222  33.347  16.323   7.196
 4108POPC   C1B54223  33.199  17.190   6.272
 4108POPC   C2B54224  33.252  17.340   6.700
 4108POPC   C3B54225  33.217  17.236   7.151
 4108POPC   C4B54226  33.003  17.234   7.563
 4109POPC   NC354227   0.761   5.870   5.314
 4109POPC   PO454228   0.068   5.867   5.404
 4109POPC   GL154229   0.227   5.816   5.810
 4109POPC   GL254230   0.131   6.137   5.928
 4109POPC   C1A54231   0.572   5.903   6.122
 4109POPC   D2A54232   0.593   5.744   6.538
 4109POPC   C3A54233   0.505   5.916   6.930
 4109POPC   C4A54234   0.757   5.906   7.294
 4109POPC   C1B54235   0.102   5.955   6.316
 4109POPC   C2B54236  44.840   6.082   6.654
 4109POPC   C3B54237   0.028   6.136   7.000
 4109POPC   C4B54238   0.279   6.048   7.364
 4110POPC   NC354239  21.873  35.563   5.377
 4110POPC   PO454240  22.384  35.245   5.283
 4110POPC   GL154241  22.401  35.233   5.744
 4110POPC   GL254242  22.054  35.226   5.770
 4110POPC   C1A54243  22.318  35.391   6.201
 4110POPC   D2A54244  22.452  35.318   6.653
 4110POPC   C3A54245  22.283  35.424   7.071
 4110POPC   C4A54246  22.315  35.471   7.518
 4110POPC   C1B54247  21.814  35.383   6.123
 4110POPC   C2B54248  21.885  35.603   6.499
 4110POPC   C3B54249  21.786  35.424   6.904
 4110POPC   C4B54250  21.830  35.476   7.346
 4111POPC   NC354251  39.723  37.371   5.331
 4111POPC   PO454252  40.258  37.028   5.379
 4111POPC   GL154253  40.147  36.865   5.782
 4111POPC   GL254254  39.959  36.571   5.856
 4111POPC   C1A54255  40.294  36.796   6.213
 4111POPC   D2A54256  40.425  36.580   6.596
 4111POPC   C3A54257  40.335  36.890   6.925
 4111POPC   C4A54258  40.002  36.875   7.241
 4111POPC   C1B54259  39.811  36.986   6.143
 4111POPC   C2B54260  39.719  36.977   6.601
 4111POPC   C3B54261  39.597  37.165   7.014
 4111POPC   C4B54262  39.490  36.987   7.401
 4112POPC   NC354263  10.749  43.571   5.426
 4112POPC   PO454264  10.458  44.195   5.174
 4112POPC   GL154265  10.506  44.106   5.721
 4112POPC   GL254266  10.186  44.039   5.907
 4112POPC   C1A54267  10.595  43.747   6.159
 4112POPC   D2A54268  10.519  43.560   6.598
 4112POPC   C3A54269  10.797  43.722   6.912
 4112POPC   C4A54270  10.842  43.973   7.251
 4112POPC   C1B54271  10.403  44.177   6.296
 4112POPC   C2B54272  10.285  44.015   6.692
 4112POPC   C3B54273  10.348  44.053   7.119
 4112POPC   C4B54274  10.367  43.972   7.559
 4113POPC   NC354275  24.339  37.694   5.719
 4113POPC   PO454276  23.652  37.707   5.493
 4113POPC   GL154277  23.606  37.825   5.916
 4113POPC   GL254278  23.406  37.524   6.090
 4113POPC   C1A54279  23.678  37.875   6.326
 4113POPC   D2A54280  23.581  37.629   6.661
 4113POPC   C3A54281  23.578  37.986   6.920
 4113POPC   C4A54282  23.740  38.018   7.279
 4113POPC   C1B54283  23.866  37.420   6.195
 4113POPC   C2B54284  24.103  37.410   6.592
 4113POPC   C3B54285  23.903  37.407   7.010
 4113POPC   C4B54286  23.495  37.570   7.184
 4114POPC   NC354287   6.141  21.785   5.599
 4114POPC   PO454288   6.714  21.842   5.239
 4114POPC   GL154289   6.650  22.095   5.657
 4114POPC   GL254290   6.321  22.243   5.794
 4114POPC   C1A54291   6.755  22.200   6.108
 4114POPC   D2A54292   6.817  22.407   6.529
 4114POPC   C3A54293   6.825  22.130   6.896
 4114POPC   C4A54294   6.650  22.141   7.302
 4114POPC   C1B54295   6.257  22.018   6.193
 4114POPC   C2B54296   6.409  22.106   6.581
 4114POPC   C3B54297   6.251  22.174   6.987
 4114POPC   C4B54298   6.171  22.015   7.381
 4115POPC   NC354299   9.606  33.781   5.284
 4115POPC   PO454300  10.265  34.038   5.336
 4115POPC   GL154301   9.958  33.852   5.668
 4115POPC   GL254302   9.635  33.619   5.757
 4115POPC   C1A54303   9.940  33.823   6.110
 4115POPC   D2A54304   9.612  33.796   6.440
 4115POPC   C3A54305   9.735  33.851   6.878
 4115POPC   C4A54306   9.956  33.830   7.273
 4115POPC   C1B54307   9.281  33.458   6.016
 4115POPC   C2B54308   9.173  33.494   6.460
 4115POPC   C3B54309   9.440  33.442   6.809
 4115POPC   C4B54310   9.466  33.641   7.244
 4116POPC   NC354311  18.569  38.779   5.432
 4116POPC   PO454312  18.187  38.307   5.283
 4116POPC   GL154313  18.200  38.559   5.720
 4116POPC   GL254314  18.287  38.311   5.897
 4116POPC   C1A54315  18.319  38.727   6.162
 4116POPC   D2A54316  18.243  38.515   6.553
 4116POPC   C3A54317  18.486  38.546   6.935
 4116POPC   C4A54318  18.430  38.700   7.328
 4116POPC   C1B54319  17.962  38.243   6.203
 4116POPC   C2B54320  17.872  38.173   6.656
 4116POPC   C3B54321  18.083  38.224   7.061
 4116POPC   C4B54322  17.959  38.202   7.509
 4117POPC   NC354323  22.815   4.625   5.327
 4117POPC   PO454324  22.799   3.972   5.381
 4117POPC   GL154325  22.947   4.090   5.764
 4117POPC   GL254326  22.953   4.462   5.814
 4117POPC   C1A54327  23.053   4.075   6.177
 4117POPC   D2A54328  22.932   4.261   6.541
 4117POPC   C3A54329  23.056   4.201   6.950
 4117POPC   C4A54330  22.838   3.971   7.232
 4117POPC   C1B54331  22.848   4.646   6.220
 4117POPC   C2B54332  23.097   4.746   6.618
 4117POPC   C3B54333  23.082   4.716   7.073
 4117POPC   C4B54334  22.834   4.464   7.348
 4118POPC   NC354335  25.709  15.790   5.111
 4118POPC   PO454336  26.174  15.407   5.510
 4118POPC   GL154337  25.998  15.209   5.874
 4118POPC   GL254338  25.687  15.036   5.802
 4118POPC   C1A54339  26.082  15.275   6.304
 4118POPC   D2A54340  26.097  15.034   6.665
 4118POPC   C3A54341  26.238  15.208   7.026
 4118POPC   C4A54342  26.093  15.116   7.419
 4118POPC   C1B54343  25.580  15.098   6.221
 4118POPC   C2B54344  25.665  15.280   6.630
 4118POPC   C3B54345  25.744  15.098   7.055
 4118POPC   C4B54346  25.563  15.236   7.460
 4119POPC   NC354347  20.363  17.791   5.540
 4119POPC   PO454348  20.530  17.127   5.234
 4119POPC   GL154349  20.667  17.194   5.696
 4119POPC   GL254350  21.026  17.166   5.624
 4119POPC   C1A54351  20.561  17.372   6.164
 4119POPC   D2A54352  20.311  17.389   6.588
 4119POPC   C3A54353  20.473  17.347   7.010
 4119POPC   C4A54354  20.410  17.551   7.393
 4119POPC   C1B54355  21.050  17.188   6.070
 4119POPC   C2B54356  20.976  17.343   6.501
 4119POPC   C3B54357  20.970  17.420   6.941
 4119POPC   C4B54358  20.904  17.568   7.349
 4120POPC   NC354359  13.647   8.489   5.439
 4120POPC   PO454360  13.603   7.927   5.676
 4120POPC   GL154361  13.765   8.248   5.904
 4120POPC   GL254362  13.480   8.474   5.914
 4120POPC   C1A54363  13.990   8.134   6.294
 4120POPC   D2A54364  14.095   7.830   6.641
 4120POPC   C3A54365  13.798   7.715   6.941
 4120POPC   C4A54366  13.885   7.927   7.304
 4120POPC   C1B54367  13.445   8.228   6.298
 4120POPC   C2B54368  13.630   8.125   6.667
 4120POPC   C3B54369  13.759   8.335   7.012
 4120POPC   C4B54370  13.585   8.332   7.414
 4121POPC   NC354371  24.527  21.697   5.506
 4121POPC   PO454372  24.132  21.327   5.220
 4121POPC   GL154373  24.396  21.284   5.728
 4121POPC   GL254374  24.210  21.550   5.939
 4121POPC   C1A54375  24.582  21.353   6.182
 4121POPC   D2A54376  24.231  21.437   6.477
 4121POPC   C3A54377  24.306  21.483   6.906
 4121POPC   C4A54378  24.622  21.336   7.192
 4121POPC   C1B54379  24.445  21.854   6.167
 4121POPC   C2B54380  24.536  21.882   6.563
 4121POPC   C3B54381  24.591  21.920   6.973
 4121POPC   C4B54382  24.334  21.859   7.279
 4122POPC   NC354383  28.945   0.850   5.608
 4122POPC   PO454384  28.325   0.774   5.577
 4122POPC   GL154385  28.497   1.147   5.773
 4122POPC   GL254386  28.196   1.354   5.805
 4122POPC   C1A54387  28.732   1.235   6.155
 4122POPC   D2A54388  28.862   1.065   6.536
 4122POPC   C3A54389  28.654   1.260   6.885
 4122POPC   C4A54390  28.428   1.288   7.272
 4122POPC   C1B54391  28.201   1.127   6.225
 4122POPC   C2B54392  28.122   1.181   6.695
 4122POPC   C3B54393  27.949   1.275   7.124
 4122POPC   C4B54394  28.052   1.229   7.614
 4123POPC   NC354395  32.317  24.760   5.161
 4123POPC   PO454396  31.920  24.295   5.527
 4123POPC   GL154397  32.252  24.241   5.789
 4123POPC   GL254398  32.429  24.548   5.771
 4123POPC   C1A54399  32.153  24.343   6.198
 4123POPC   D2A54400  31.909  24.175   6.494
 4123POPC   C3A54401  32.029  24.388   6.871
 4123POPC   C4A54402  31.927  24.626   7.226
 4123POPC   C1B54403  32.370  24.806   6.163
 4123POPC   C2B54404  32.066  24.820   6.440
 4123POPC   C3B54405  32.087  24.920   6.851
 4123POPC   C4B54406  32.409  24.790   7.125
 4124POPC   NC354407  18.037  11.380   5.659
 4124POPC   PO454408  18.490  11.071   5.298
 4124POPC   GL154409  18.585  10.994   5.723
 4124POPC   GL254410  18.230  10.915   5.773
 4124POPC   C1A54411  18.515  11.216   6.134
 4124POPC   D2A54412  18.225  11.294   6.466
 4124POPC   C3A54413  18.342  11.309   6.885
 4124POPC   C4A54414  18.147  11.613   7.123
 4124POPC   C1B54415  17.995  10.940   6.163
 4124POPC   C2B54416  18.091  10.783   6.567
 4124POPC   C3B54417  18.101  10.856   7.014
 4124POPC   C4B54418  17.888  11.188   7.183
 4125POPC   NC354419   8.452   0.173   5.494
 4125POPC   PO454420   8.034   0.761   5.473
 4125POPC   GL154421   8.039   0.492   5.806
 4125POPC   GL254422   7.727   0.353   5.910
 4125POPC   C1A54423   8.112   0.537   6.229
 4125POPC   D2A54424   8.262   0.302   6.584
 4125POPC   C3A54425   8.091   0.461   6.932
 4125POPC   C4A54426   8.099   0.625   7.330
 4125POPC   C1B54427   7.975   0.061   6.170
 4125POPC   C2B54428   7.910  44.910   6.557
 4125POPC   C3B54429   7.879  44.978   6.974
 4125POPC   C4B54430   8.130   0.113   7.314
 4126POPC   NC354431  17.191  21.313   5.330
 4126POPC   PO454432  17.710  21.664   5.222
 4126POPC   GL154433  17.558  21.292   5.646
 4126POPC   GL254434  17.287  21.538   5.793
 4126POPC   C1A54435  17.623  21.247   6.126
 4126POPC   D2A54436  17.775  21.622   6.408
 4126POPC   C3A54437  17.883  21.580   6.861
 4126POPC   C4A54438  17.792  21.312   7.206
 4126POPC   C1B54439  17.263  21.601   6.237
 4126POPC   C2B54440  17.340  21.321   6.569
 4126POPC   C3B54441  17.356  21.363   6.993
 4126POPC   C4B54442  17.455  21.693   7.265
 4127POPC   NC354443  44.978   9.882   5.655
 4127POPC   PO454444  44.426  10.114   5.405
 4127POPC   GL154445  44.315   9.924   5.834
 4127POPC   GL254446  44.599   9.697   5.965
 4127POPC   C1A54447  44.244   9.853   6.301
 4127POPC   D2A54448  44.341   9.908   6.749
 4127POPC   C3A54449  44.506   9.581   6.976
 4127POPC   C4A54450  44.840   9.581   7.226
 4127POPC   C1B54451  44.772   9.838   6.396
 4127POPC   C2B54452   0.047   9.895   6.778
 4127POPC   C3B54453   0.125   9.994   7.236
 4127POPC   C4B54454  44.906   9.894   7.639
 4128POPC   NC354455  31.674  12.771   5.359
 4128POPC   PO454456  31.037  12.927   5.622
 4128POPC   GL154457  31.269  12.679   5.884
 4128POPC   GL254458  31.573  12.828   5.847
 4128POPC   C1A54459  31.372  12.620   6.330
 4128POPC   D2A54460  31.571  12.608   6.754
 4128POPC   C3A54461  31.407  12.943   7.017
 4128POPC   C4A54462  31.260  12.847   7.407
 4128POPC   C1B54463  31.651  13.030   6.217
 4128POPC   C2B54464  31.907  12.961   6.555
 4128POPC   C3B54465  31.913  13.001   6.988
 4128POPC   C4B54466  31.778  12.751   7.315
 4129POPC   NC354467  10.181  42.009   5.449
 4129POPC   PO454468   9.869  42.617   5.458
 4129POPC   GL154469  10.197  42.488   5.736
 4129POPC   GL254470   9.925  42.429   5.934
 4129POPC   C1A54471  10.339  42.217   6.131
 4129POPC   D2A54472  10.311  42.025   6.575
 4129POPC   C3A54473  10.568  42.234   6.901
 4129POPC   C4A54474  10.730  42.169   7.323
 4129POPC   C1B54475  10.153  42.722   6.193
 4129POPC   C2B54476  10.313  42.547   6.547
 4129POPC   C3B54477  10.245  42.627   6.947
 4129POPC   C4B54478  10.241  42.333   7.302
 4130POPC   NC354479  26.367  32.833   5.416
 4130POPC   PO454480  27.088  32.827   5.388
 4130POPC   GL154481  26.788  32.852   5.761
 4130POPC   GL254482  26.699  33.192   5.915
 4130POPC   C1A54483  26.723  32.773   6.219
 4130POPC   D2A54484  26.807  33.006   6.612
 4130POPC   C3A54485  26.980  32.810   6.973
 4130POPC   C4A54486  27.147  32.815   7.360
 4130POPC   C1B54487  26.427  33.222   6.286
 4130POPC   C2B54488  26.303  33.072   6.669
 4130POPC   C3B54489  26.471  32.829   6.982
 4130POPC   C4B54490  26.643  32.889   7.370
 4131POPC   NC354491  39.118   7.832   5.508
 4131POPC   PO454492  38.949   8.474   5.410
 4131POPC   GL154493  39.113   8.280   5.823
 4131POPC   GL254494  38.868   8.041   5.928
 4131POPC   C1A54495  39.276   8.262   6.275
 4131POPC   D2A54496  39.611   8.199   6.633
 4131POPC   C3A54497  39.602   8.031   7.028
 4131POPC   C4A54498  39.402   8.150   7.374
 4131POPC   C1B54499  38.990   7.841   6.316
 4131POPC   C2B54500  39.172   7.932   6.711
 4131POPC   C3B54501  39.137   7.793   7.134
 4131POPC   C4B54502  38.960   7.956   7.535
 4132POPC   NC354503   9.469  18.001   5.541
 4132POPC   PO454504   8.787  18.078   5.515
 4132POPC   GL154505   8.909  18.371   5.840
 4132POPC   GL254506   9.274  18.413   5.926
 4132POPC   C1A54507   8.729  18.613   6.193
 4132POPC   D2A54508   8.914  18.654   6.622
 4132POPC   C3A54509   8.657  18.534   6.984
 4132POPC   C4A54510   8.831  18.213   7.261
 4132POPC   C1B54511   9.068  18.240   6.317
 4132POPC   C2B54512   8.992  18.113   6.736
 4132POPC   C3B54513   9.226  18.362   6.996
 4132POPC   C4B54514   9.425  18.455   7.373
 4133POPC   NC354515  21.772  36.496   5.088
 4133POPC   PO454516  21.312  36.929   5.310
 4133POPC   GL154517  21.446  36.954   5.784
 4133POPC   GL254518  21.636  36.709   5.913
 4133POPC   C1A54519  21.563  37.113   6.237
 4133POPC   D2A54520  21.830  37.205   6.630
 4133POPC   C3A54521  21.576  37.089   6.977
 4133POPC   C4A54522  21.526  36.871   7.357
 4133POPC   C1B54523  21.357  36.494   6.159
 4133POPC   C2B54524  21.273  36.498   6.537
 4133POPC   C3B54525  21.304  36.634   6.925
 4133POPC   C4B54526  21.137  36.536   7.296
 4134POPC   NC354527  34.842  11.198   5.308
 4134POPC   PO454528  34.157  11.324   5.218
 4134POPC   GL154529  34.417  11.251   5.633
 4134POPC   GL254530  34.794  11.224   5.808
 4134POPC   C1A54531  34.357  11.252   6.085
 4134POPC   D2A54532  34.313  11.057   6.509
 4134POPC   C3A54533  34.551  11.197   6.834
 4134POPC   C4A54534  34.542  11.335   7.243
 4134POPC   C1B54535  34.953  11.167   6.243
 4134POPC   C2B54536  35.016  11.347   6.654
 4134POPC   C3B54537  35.020  11.226   7.085
 4134POPC   C4B54538  34.880  11.002   7.473
 4135POPC   NC354539  39.220   9.572   5.370
 4135POPC   PO454540  38.749  10.085   5.412
 4135POPC   GL154541  38.992   9.851   5.736
 4135POPC   GL254542  39.361   9.963   5.717
 4135POPC   C1A54543  39.219   9.631   6.100
 4135POPC   D2A54544  39.419   9.844   6.477
 4135POPC   C3A54545  39.242   9.798   6.891
 4135POPC   C4A54546  39.136   9.484   7.205
 4135POPC   C1B54547  39.190  10.169   6.112
 4135POPC   C2B54548  38.974  10.232   6.519
 4135POPC   C3B54549  38.977  10.222   6.984
 4135POPC   C4B54550  39.137   9.998   7.358
 4136POPC   NC354551  19.764  28.233   5.736
 4136POPC   PO454552  20.125  28.698   5.634
 4136POPC   GL154553  19.835  28.707   5.981
 4136POPC   GL254554  19.482  28.616   5.988
 4136POPC   C1A54555  19.878  28.459   6.373
 4136POPC   D2A54556  20.162  28.304   6.685
 4136POPC   C3A54557  20.054  28.414   7.116
 4136POPC   C4A54558  19.747  28.256   7.433
 4136POPC   C1B54559  19.508  28.784   6.427
 4136POPC   C2B54560  19.757  28.740   6.815
 4136POPC   C3B54561  19.704  28.770   7.274
 4136POPC   C4B54562  19.373  28.598   7.543
 4137POPC   NC354563  33.111  37.083   5.074
 4137POPC   PO454564  32.670  36.702   5.481
 4137POPC   GL154565  33.004  36.782   5.769
 4137POPC   GL254566  33.127  37.128   5.841
 4137POPC   C1A54567  33.029  36.784   6.224
 4137POPC   D2A54568  32.932  36.981   6.620
 4137POPC   C3A54569  33.074  36.740   6.974
 4137POPC   C4A54570  32.800  36.505   7.274
 4137POPC   C1B54571  33.362  37.183   6.258
 4137POPC   C2B54572  33.475  37.320   6.710
 4137POPC   C3B54573  33.240  37.230   7.114
 4137POPC   C4B54574  32.981  36.961   7.439
 4138POPC   NC354575  40.095  22.682   5.316
 4138POPC   PO454576  39.858  23.230   5.520
 4138POPC   GL154577  39.993  23.106   5.932
 4138POPC   GL254578  40.084  22.777   5.831
 4138POPC   C1A54579  40.285  22.992   6.291
 4138POPC   D2A54580  40.565  23.059   6.649
 4138POPC   C3A54581  40.371  23.174   7.044
 4138POPC   C4A54582  39.968  23.057   7.264
 4138POPC   C1B54583  39.872  22.706   6.240
 4138POPC   C2B54584  39.766  22.998   6.591
 4138POPC   C3B54585  39.542  22.929   7.000
 4138POPC   C4B54586  39.723  22.560   7.270
 4139POPC   NC354587   6.459  33.259   5.303
 4139POPC   PO454588   7.009  33.023   5.551
 4139POPC   GL154589   6.874  33.146   5.940
 4139POPC   GL254590   6.555  33.052   5.830
 4139POPC   C1A54591   6.742  33.054   6.387
 4139POPC   D2A54592   6.781  32.879   6.823
 4139POPC   C3A54593   6.893  33.175   7.139
 4139POPC   C4A54594   6.706  33.485   7.417
 4139POPC   C1B54595   6.418  32.722   6.116
 4139POPC   C2B54596   6.392  32.673   6.559
 4139POPC   C3B54597   6.345  32.709   7.029
 4139POPC   C4B54598   6.425  33.067   7.264
 4140POPC   NC354599  16.870   4.961   5.359
 4140POPC   PO454600  17.060   5.544   5.577
 4140POPC   GL154601  16.777   5.190   5.813
 4140POPC   GL254602  16.609   4.837   5.767
 4140POPC   C1A54603  16.835   5.023   6.246
 4140POPC   D2A54604  16.946   5.288   6.596
 4140POPC   C3A54605  17.018   5.143   6.998
 4140POPC   C4A54606  16.863   5.414   7.283
 4140POPC   C1B54607  16.561   4.605   6.120
 4140POPC   C2B54608  16.434   4.761   6.521
 4140POPC   C3B54609  16.511   5.065   6.825
 4140POPC   C4B54610  16.592   4.987   7.227
 4141POPC   NC354611  25.030  22.650   5.453
 4141POPC   PO454612  25.371  23.228   5.355
 4141POPC   GL154613  25.355  23.119   5.777
 4141POPC   GL254614  25.671  22.998   5.792
 4141POPC   C1A54615  25.156  23.097   6.191
 4141POPC   D2A54616  24.996  23.328   6.561
 4141POPC   C3A54617  25.145  23.099   6.927
 4141POPC   C4A54618  25.056  22.784   7.205
 4141POPC   C1B54619  25.699  23.190   6.181
 4141POPC   C2B54620  25.531  23.046   6.558
 4141POPC   C3B54621  25.676  23.135   6.948
 4141POPC   C4B54622  25.589  22.951   7.310
 4142POPC   NC354623  35.210  16.688   5.639
 4142POPC   PO454624  35.784  16.835   5.606
 4142POPC   GL154625  35.607  16.735   5.959
 4142POPC   GL254626  35.554  16.390   5.841
 4142POPC   C1A54627  35.341  16.647   6.297
 4142POPC   D2A54628  35.139  16.530   6.662
 4142POPC   C3A54629  35.369  16.691   6.999
 4142POPC   C4A54630  35.399  16.743   7.424
 4142POPC   C1B54631  35.486  16.160   6.188
 4142POPC   C2B54632  35.583  16.269   6.595
 4142POPC   C3B54633  35.761  16.127   6.949
 4142POPC   C4B54634  35.447  16.227   7.219
 4143POPC   NC354635  18.427   5.661   5.520
 4143POPC   PO454636  18.430   5.004   5.369
 4143POPC   GL154637  18.205   5.119   5.789
 4143POPC   GL254638  18.044   5.460   5.852
 4143POPC   C1A54639  18.253   5.215   6.257
 4143POPC   D2A54640  18.475   5.218   6.637
 4143POPC   C3A54641  18.496   4.833   6.864
 4143POPC   C4A54642  18.422   4.894   7.279
 4143POPC   C1B54643  17.785   5.443   6.223
 4143POPC   C2B54644  17.821   5.213   6.576
 4143POPC   C3B54645  18.056   5.194   6.953
 4143POPC   C4B54646  18.258   5.413   7.267
 4144POPC   NC354647  35.038   7.444   5.487
 4144POPC   PO454648  35.517   7.157   5.450
 4144POPC   GL154649  35.652   7.285   5.827
 4144POPC   GL254650  35.499   7.573   5.870
 4144POPC   C1A54651  35.770   7.325   6.243
 4144POPC   D2A54652  35.437   7.367   6.506
 4144POPC   C3A54653  35.471   7.224   6.899
 4144POPC   C4A54654  35.145   7.179   7.128
 4144POPC   C1B54655  35.194   7.685   6.138
 4144POPC   C2B54656  35.245   7.832   6.552
 4144POPC   C3B54657  35.202   7.654   6.903
 4144POPC   C4B54658  35.261   7.748   7.282
 4145POPC   NC354659  19.616  18.172   5.382
 4145POPC   PO454660  20.268  18.283   5.424
 4145POPC   GL154661  19.986  18.127   5.729
 4145POPC   GL254662  19.768  18.425   5.806
 4145POPC   C1A54663  19.858  18.070   6.148
 4145POPC   D2A54664  19.746  18.286   6.513
 4145POPC   C3A54665  20.022  18.267   6.860
 4145POPC   C4A54666  19.875  18.121   7.238
 4145POPC   C1B54667  19.530  18.606   6.166
 4145POPC   C2B54668  19.436  18.673   6.622
 4145POPC   C3B54669  19.505  18.383   6.974
 4145POPC   C4B54670  19.570  18.470   7.423
 4146POPC   NC354671  29.926  11.088   5.478
 4146POPC   PO454672  30.209  11.579   5.196
 4146POPC   GL154673  30.180  11.496   5.757
 4146POPC   GL254674  30.098  11.164   5.956
 4146POPC   C1A54675  29.823  11.531   6.157
 4146POPC   D2A54676  29.953  11.327   6.521
 4146POPC   C3A54677  30.058  11.482   6.949
 4146POPC   C4A54678  30.320  11.240   7.193
 4146POPC   C1B54679  29.675  11.034   6.095
 4146POPC   C2B54680  29.592  10.941   6.489
 4146POPC   C3B54681  29.722  11.059   6.878
 4146POPC   C4B54682  29.815  11.108   7.282
 4147POPC   NC354683  32.884  18.678   5.547
 4147POPC   PO454684  32.966  19.418   5.439
 4147POPC   GL154685  33.165  19.304   5.844
 4147POPC   GL254686  33.088  18.969   5.927
 4147POPC   C1A54687  32.962  19.328   6.266
 4147POPC   D2A54688  32.823  19.058   6.626
 4147POPC   C3A54689  32.865  19.230   7.045
 4147POPC   C4A54690  33.204  19.168   7.321
 4147POPC   C1B54691  33.318  18.913   6.296
 4147POPC   C2B54692  33.216  18.652   6.634
 4147POPC   C3B54693  33.083  18.752   7.028
 4147POPC   C4B54694  33.244  18.659   7.413
 4148POPC   NC354695  30.866  10.784   5.635
 4148POPC   PO454696  30.559  10.228   5.498
 4148POPC   GL154697  30.669  10.345   5.899
 4148POPC   GL254698  30.980  10.286   5.852
 4148POPC   C1A54699  30.591  10.602   6.255
 4148POPC   D2A54700  30.749  10.700   6.673
 4148POPC   C3A54701  30.718  10.350   6.999
 4148POPC   C4A54702  30.579  10.395   7.476
 4148POPC   C1B54703  31.091  10.448   6.229
 4148POPC   C2B54704  31.068  10.270   6.610
 4148POPC   C3B54705  31.211  10.423   6.975
 4148POPC   C4B54706  31.048  10.495   7.373
 4149POPC   NC354707   4.953   0.105   5.467
 4149POPC   PO454708   5.212   0.648   5.261
 4149POPC   GL154709   5.244   0.683   5.730
 4149POPC   GL254710   5.518   0.880   5.841
 4149POPC   C1A54711   5.046   0.530   6.134
 4149POPC   D2A54712   5.150   0.299   6.525
 4149POPC   C3A54713   4.936   0.411   6.903
 4149POPC   C4A54714   4.729   0.138   7.180
 4149POPC   C1B54715   5.320   0.949   6.236
 4149POPC   C2B54716   5.092   0.831   6.619
 4149POPC   C3B54717   5.285   0.778   7.055
 4149POPC   C4B54718   5.466   0.923   7.500
 4150POPC   NC354719  17.101  18.112   5.433
 4150POPC   PO454720  16.683  18.546   5.205
 4150POPC   GL154721  16.647  18.392   5.687
 4150POPC   GL254722  16.609  18.687   5.883
 4150POPC   C1A54723  16.556  18.313   6.194
 4150POPC   D2A54724  16.730  18.487   6.623
 4150POPC   C3A54725  16.746  18.157   6.978
 4150POPC   C4A54726  16.622  18.015   7.421
 4150POPC   C1B54727  16.387  18.816   6.293
 4150POPC   C2B54728  16.274  18.777   6.751
 4150POPC   C3B54729  16.399  18.515   7.119
 4150POPC   C4B54730  16.771  18.490   7.390
 4151POPC   NC354731  37.852  35.626   5.122
 4151POPC   PO454732  37.506  35.086   5.357
 4151POPC   GL154733  37.722  35.329   5.717
 4151POPC   GL254734  37.790  35.697   5.699
 4151POPC   C1A54735  37.490  35.437   6.131
 4151POPC   D2A54736  37.338  35.652   6.502
 4151POPC   C3A54737  37.378  35.445   6.889
 4151POPC   C4A54738  37.636  35.357   7.231
 4151POPC   C1B54739  37.983  35.567   6.101
 4151POPC   C2B54740  37.871  35.473   6.525
 4151POPC   C3B54741  37.939  35.662   6.922
 4151POPC   C4B54742  38.074  35.580   7.369
 4152POPC   NC354743  22.102  27.790   5.637
 4152POPC   PO454744  21.851  27.227   5.306
 4152POPC   GL154745  22.005  27.282   5.752
 4152POPC   GL254746  22.364  27.261   5.789
 4152POPC   C1A54747  22.005  27.415   6.214
 4152POPC   D2A54748  22.046  27.765   6.546
 4152POPC   C3A54749  22.132  27.665   6.995
 4152POPC   C4A54750  21.883  27.677   7.360
 4152POPC   C1B54751  22.521  27.308   6.212
 4152POPC   C2B54752  22.332  27.333   6.623
 4152POPC   C3B54753  22.527  27.359   7.008
 4152POPC   C4B54754  22.814  27.416   7.278
 4153POPC   NC354755  22.631  28.164   5.563
 4153POPC   PO454756  23.233  28.388   5.425
 4153POPC   GL154757  23.175  28.307   5.837
 4153POPC   GL254758  22.889  28.526   5.848
 4153POPC   C1A54759  23.244  28.471   6.260
 4153POPC   D2A54760  22.951  28.608   6.589
 4153POPC   C3A54761  23.115  28.706   6.974
 4153POPC   C4A54762  23.125  28.633   7.390
 4153POPC   C1B54763  22.771  28.295   6.208
 4153POPC   C2B54764  22.976  28.079   6.532
 4153POPC   C3B54765  22.944  28.217   6.931
 4153POPC   C4B54766  22.681  28.442   7.212
 4154POPC   NC354767  23.417  20.507   5.496
 4154POPC   PO454768  23.880  20.837   5.392
 4154POPC   GL154769  23.921  20.674   5.818
 4154POPC   GL254770  23.960  20.304   5.831
 4154POPC   C1A54771  23.656  20.823   6.168
 4154POPC   D2A54772  23.363  20.760   6.478
 4154POPC   C3A54773  23.440  20.977   6.861
 4154POPC   C4A54774  23.508  20.882   7.256
 4154POPC   C1B54775  23.805  20.372   6.296
 4154POPC   C2B54776  23.759  20.521   6.757
 4154POPC   C3B54777  23.814  20.464   7.221
 4154POPC   C4B54778  23.793  20.200   7.606
 4155POPC   NC354779  34.794   3.092   5.432
 4155POPC   PO454780  34.623   2.387   5.379
 4155POPC   GL154781  34.489   2.518   5.841
 4155POPC   GL254782  34.509   2.886   5.825
 4155POPC   C1A54783  34.469   2.697   6.307
 4155POPC   D2A54784  34.729   2.685   6.695
 4155POPC   C3A54785  34.564   2.608   7.128
 4155POPC   C4A54786  34.342   2.403   7.511
 4155POPC   C1B54787  34.402   3.180   6.130
 4155POPC   C2B54788  34.483   3.355   6.519
 4155POPC   C3B54789  34.298   3.295   6.895
 4155POPC   C4B54790  34.495   3.093   7.225
 4156POPC   NC354791  27.455   8.439   5.528
 4156POPC   PO454792  27.560   7.811   5.385
 4156POPC   GL154793  27.508   8.000   5.800
 4156POPC   GL254794  27.793   8.198   5.813
 4156POPC   C1A54795  27.424   8.208   6.222
 4156POPC   D2A54796  27.281   8.157   6.692
 4156POPC   C3A54797  27.518   8.129   7.086
 4156POPC   C4A54798  27.455   8.335   7.473
 4156POPC   C1B54799  27.972   8.313   6.175
 4156POPC   C2B54800  27.797   8.297   6.559
 4156POPC   C3B54801  27.747   8.531   6.888
 4156POPC   C4B54802  27.910   8.398   7.294
 4157POPC   NC354803  41.970  25.282   5.154
 4157POPC   PO454804  42.537  25.344   5.451
 4157POPC   GL154805  42.380  25.309   5.866
 4157POPC   GL254806  42.347  24.945   5.792
 4157POPC   C1A54807  42.332  25.090   6.284
 4157POPC   D2A54808  42.359  25.080   6.719
 4157POPC   C3A54809  42.153  25.355   7.013
 4157POPC   C4A54810  42.365  25.459   7.400
 4157POPC   C1B54811  42.744  24.856   6.077
 4157POPC   C2B54812  42.789  24.785   6.549
 4157POPC   C3B54813  42.794  25.002   6.976
 4157POPC   C4B54814  42.421  24.975   7.240
 4158POPC   NC354815   0.867  40.925   5.601
 4158POPC   PO454816   0.229  40.679   5.533
 4158POPC   GL154817   0.503  40.651   5.863
 4158POPC   GL254818   0.841  40.454   5.848
 4158POPC   C1A54819   0.277  40.721   6.237
 4158POPC   D2A54820   0.212  40.989   6.559
 4158POPC   C3A54821   0.205  40.756   6.920
 4158POPC   C4A54822   0.349  40.743   7.274
 4158POPC   C1B54823   0.716  40.455   6.279
 4158POPC   C2B54824   0.602  40.636   6.638
 4158POPC   C3B54825   0.752  40.581   7.026
 4158POPC   C4B54826   0.851  40.738   7.424
 4159POPC   NC354827  35.780  25.788   5.503
 4159POPC   PO454828  36.116  26.356   5.457
 4159POPC   GL154829  35.990  26.132   5.819
 4159POPC   GL254830  36.162  25.805   5.849
 4159POPC   C1A54831  36.010  26.110   6.266
 4159POPC   D2A54832  36.086  25.783   6.559
 4159POPC   C3A54833  35.926  25.791   6.971
 4159POPC   C4A54834  36.014  26.045   7.337
 4159POPC   C1B54835  36.461  25.852   6.197
 4159POPC   C2B54836  36.596  25.711   6.623
 4159POPC   C3B54837  36.437  25.872   7.003
 4159POPC   C4B54838  36.523  26.098   7.370
 4160POPC   NC354839  32.637  11.003   5.479
 4160POPC   PO454840  32.167  11.517   5.481
 4160POPC   GL154841  32.265  11.218   5.772
 4160POPC   GL254842  32.578  11.391   5.829
 4160POPC   C1A54843  32.229  11.146   6.207
 4160POPC   D2A54844  32.058  11.389   6.536
 4160POPC   C3A54845  32.127  11.215   6.933
 4160POPC   C4A54846  32.033  11.289   7.371
 4160POPC   C1B54847  32.601  11.570   6.252
 4160POPC   C2B54848  32.523  11.522   6.699
 4160POPC   C3B54849  32.401  11.606   7.096
 4160POPC   C4B54850  32.529  11.226   7.245
 4161POPC   NC354851  26.554   6.892   5.522
 4161POPC   PO454852  26.932   6.412   5.397
 4161POPC   GL154853  26.938   6.617   5.803
 4161POPC   GL254854  26.889   6.269   5.911
 4161POPC   C1A54855  26.932   6.859   6.210
 4161POPC   D2A54856  26.575   6.908   6.492
 4161POPC   C3A54857  26.618   6.778   6.920
 4161POPC   C4A54858  26.915   6.984   7.172
 4161POPC   C1B54859  26.639   6.462   6.228
 4161POPC   C2B54860  26.910   6.504   6.576
 4161POPC   C3B54861  27.054   6.276   6.914
 4161POPC   C4B54862  26.800   6.405   7.272
 4162POPC   NC354863  33.669  37.872   5.334
 4162POPC   PO454864  34.052  37.280   5.448
 4162POPC   GL154865  34.080  37.540   5.787
 4162POPC   GL254866  33.756  37.645   5.912
 4162POPC   C1A54867  34.191  37.693   6.181
 4162POPC   D2A54868  33.917  37.650   6.572
 4162POPC   C3A54869  34.138  37.774   6.944
 4162POPC   C4A54870  34.174  37.523   7.278
 4162POPC   C1B54871  33.816  38.008   6.201
 4162POPC   C2B54872  33.715  38.108   6.571
 4162POPC   C3B54873  33.637  37.891   6.958
 4162POPC   C4B54874  33.534  38.079   7.323
 4163POPC   NC354875  26.953  41.844   5.398
 4163POPC   PO454876  27.055  41.243   5.489
 4163POPC   GL154877  26.826  41.458   5.834
 4163POPC   GL254878  26.628  41.765   5.785
 4163POPC   C1A54879  26.939  41.600   6.279
 4163POPC   D2A54880  27.020  41.787   6.709
 4163POPC   C3A54881  27.034  41.529   7.095
 4163POPC   C4A54882  27.238  41.564   7.516
 4163POPC   C1B54883  26.440  41.597   6.170
 4163POPC   C2B54884  26.531  41.807   6.541
 4163POPC   C3B54885  26.598  41.962   6.944
 4163POPC   C4B54886  26.557  41.658   7.260
 4164POPC   NC354887  11.853  33.144   5.461
 4164POPC   PO454888  12.383  32.739   5.481
 4164POPC   GL154889  12.336  33.001   5.882
 4164POPC   GL254890  12.061  33.304   5.894
 4164POPC   C1A54891  12.194  33.058   6.325
 4164POPC   D2A54892  11.805  33.161   6.536
 4164POPC   C3A54893  11.808  32.968   6.928
 4164POPC   C4A54894  11.928  32.881   7.343
 4164POPC   C1B54895  12.419  33.489   6.096
 4164POPC   C2B54896  12.449  33.539   6.545
 4164POPC   C3B54897  12.249  33.248   6.838
 4164POPC   C4B54898  12.036  33.369   7.215
 4165POPC   NC354899  13.825   4.429   5.458
 4165POPC   PO454900  13.688   5.112   5.545
 4165POPC   GL154901  13.515   5.025   5.904
 4165POPC   GL254902  13.617   4.682   5.886
 4165POPC   C1A54903  13.534   5.195   6.321
 4165POPC   D2A54904  13.308   5.163   6.698
 4165POPC   C3A54905  13.476   5.326   7.067
 4165POPC   C4A54906  13.901   5.287   7.206
 4165POPC   C1B54907  13.694   4.686   6.353
 4165POPC   C2B54908  13.658   4.746   6.828
 4165POPC   C3B54909  13.602   4.801   7.300
 4165POPC   C4B54910  13.545   4.717   7.760
 4166POPC   NC354911   4.521  30.859   5.310
 4166POPC   PO454912   4.079  30.317   5.307
 4166POPC   GL154913   4.239  30.372   5.752
 4166POPC   GL254914   4.383  30.690   5.781
 4166POPC   C1A54915   4.539  30.332   6.144
 4166POPC   D2A54916   4.587  30.502   6.578
 4166POPC   C3A54917   4.324  30.386   6.929
 4166POPC   C4A54918   4.233  30.380   7.376
 4166POPC   C1B54919   4.608  30.838   6.157
 4166POPC   C2B54920   4.626  31.022   6.569
 4166POPC   C3B54921   4.603  30.911   7.015
 4166POPC   C4B54922   4.620  31.257   7.327
 4167POPC   NC354923  33.318  33.680   5.388
 4167POPC   PO454924  32.894  34.212   5.309
 4167POPC   GL154925  33.075  33.985   5.721
 4167POPC   GL254926  33.028  33.622   5.796
 4167POPC   C1A54927  33.097  33.969   6.206
 4167POPC   D2A54928  33.106  34.151   6.663
 4167POPC   C3A54929  33.111  33.912   7.067
 4167POPC   C4A54930  33.204  33.892   7.566
 4167POPC   C1B54931  32.853  33.504   6.174
 4167POPC   C2B54932  32.938  33.640   6.594
 4167POPC   C3B54933  32.760  33.551   6.977
 4167POPC   C4B54934  33.015  33.469   7.324
 4168POPC   NC354935  34.524  32.283   5.391
 4168POPC   PO454936  35.140  32.523   5.465
 4168POPC   GL154937  34.890  32.152   5.716
 4168POPC   GL254938  34.511  32.002   5.798
 4168POPC   C1A54939  34.828  32.110   6.171
 4168POPC   D2A54940  34.943  32.300   6.555
 4168POPC   C3A54941  34.836  32.162   6.944
 4168POPC   C4A54942  34.637  32.459   7.209
 4168POPC   C1B54943  34.236  32.093   6.144
 4168POPC   C2B54944  34.083  32.029   6.537
 4168POPC   C3B54945  34.289  32.214   6.890
 4168POPC   C4B54946  34.128  32.294   7.288
 4169POPC   NC354947  39.629  40.863   5.475
 4169POPC   PO454948  40.189  41.181   5.271
 4169POPC   GL154949  40.084  40.818   5.690
 4169POPC   GL254950  40.240  40.507   5.727
 4169POPC   C1A54951  39.904  40.740   6.130
 4169POPC   D2A54952  39.798  40.979   6.520
 4169POPC   C3A54953  39.921  40.833   6.916
 4169POPC   C4A54954  40.218  41.009   7.148
 4169POPC   C1B54955  40.380  40.532   6.153
 4169POPC   C2B54956  40.236  40.660   6.534
 4169POPC   C3B54957  40.418  40.578   6.912
 4169POPC   C4B54958  40.351  40.470   7.323
 4170POPC   NC354959  43.683  35.921   5.537
 4170POPC   PO454960  44.219  36.391   5.511
 4170POPC   GL154961  43.930  36.360   5.836
 4170POPC   GL254962  43.586  36.536   5.778
 4170POPC   C1A54963  43.956  36.110   6.218
 4170POPC   D2A54964  43.811  35.851   6.555
 4170POPC   C3A54965  44.119  35.866   6.911
 4170POPC   C4A54966  44.009  35.936   7.363
 4170POPC   C1B54967  43.491  36.215   6.098
 4170POPC   C2B54968  43.462  36.250   6.539
 4170POPC   C3B54969  43.613  36.150   6.939
 4170POPC   C4B54970  43.624  36.271   7.332
 4171POPC   NC354971  13.319  34.214   5.235
 4171POPC   PO454972  13.647  34.754   5.454
 4171POPC   GL154973  13.451  34.569   5.798
 4171POPC   GL254974  13.197  34.804   5.756
 4171POPC   C1A54975  13.527  34.453   6.247
 4171POPC   D2A54976  13.586  34.219   6.664
 4171POPC   C3A54977  13.499  34.485   6.999
 4171POPC   C4A54978  13.724  34.861   7.126
 4171POPC   C1B54979  13.256  34.957   6.190
 4171POPC   C2B54980  13.351  34.813   6.627
 4171POPC   C3B54981  13.227  34.929   7.066
 4171POPC   C4B54982  13.369  34.684   7.446
 4172POPC   NC354983  13.886  14.221   5.634
 4172POPC   PO454984  13.454  13.860   5.638
 4172POPC   GL154985  13.453  14.246   5.948
 4172POPC   GL254986  13.695  14.549   5.989
 4172POPC   C1A54987  13.330  14.330   6.390
 4172POPC   D2A54988  13.185  14.064   6.734
 4172POPC   C3A54989  13.233  14.230   7.130
 4172POPC   C4A54990  13.259  14.643   7.286
 4172POPC   C1B54991  13.865  14.302   6.342
 4172POPC   C2B54992  13.712  14.161   6.753
 4172POPC   C3B54993  13.734  14.379   7.169
 4172POPC   C4B54994  13.724  14.704   7.508
 4173POPC   NC354995   9.671   7.185   5.328
 4173POPC   PO454996  10.118   7.634   5.499
 4173POPC   GL154997   9.932   7.366   5.831
 4173POPC   GL254998   9.561   7.302   5.813
 4173POPC   C1A54999   9.756   7.467   6.255
 4173POPC   D2A55000   9.557   7.364   6.609
 4173POPC   C3A55001   9.787   7.253   6.973
 4173POPC   C4A55002   9.680   7.612   7.178
 4173POPC   C1B55003   9.362   7.125   6.166
 4173POPC   C2B55004   9.132   7.081   6.540
 4173POPC   C3B55005   9.311   7.044   6.932
 4173POPC   C4B55006   9.315   7.296   7.263
 4174POPC   NC355007   3.765   2.038   5.377
 4174POPC   PO455008   3.163   2.140   5.570
 4174POPC   GL155009   3.486   1.990   5.847
 4174POPC   GL255010   3.864   1.964   5.854
 4174POPC   C1A55011   3.479   1.925   6.277
 4174POPC   D2A55012   3.502   1.829   6.682
 4174POPC   C3A55013   3.313   2.029   7.022
 4174POPC   C4A55014   3.123   2.172   7.396
 4174POPC   C1B55015   3.874   2.255   6.132
 4174POPC   C2B55016   3.876   2.165   6.548
 4174POPC   C3B55017   3.768   2.263   6.944
 4174POPC   C4B55018   3.758   2.013   7.284
 4175POPC   NC355019  18.958   7.972   5.280
 4175POPC   PO455020  18.727   8.606   5.533
 4175POPC   GL155021  19.001   8.328   5.757
 4175POPC   GL255022  19.023   7.960   5.787
 4175POPC   C1A55023  19.062   8.396   6.191
 4175POPC   D2A55024  18.700   8.369   6.459
 4175POPC   C3A55025  18.818   8.279   6.877
 4175POPC   C4A55026  18.711   8.326   7.279
 4175POPC   C1B55027  19.009   7.895   6.236
 4175POPC   C2B55028  19.204   8.064   6.608
 4175POPC   C3B55029  19.163   7.915   7.037
 4175POPC   C4B55030  18.975   7.672   7.382
 4176POPC   NC355031   6.037   5.857   5.181
 4176POPC   PO455032   5.523   6.121   5.332
 4176POPC   GL155033   5.671   5.864   5.702
 4176POPC   GL255034   6.002   5.865   5.713
 4176POPC   C1A55035   5.842   5.593   6.101
 4176POPC   D2A55036   5.700   5.706   6.508
 4176POPC   C3A55037   5.910   5.582   6.867
 4176POPC   C4A55038   5.648   5.571   7.224
 4176POPC   C1B55039   5.813   6.083   6.141
 4176POPC   C2B55040   5.819   6.191   6.583
 4176POPC   C3B55041   5.735   6.068   7.011
 4176POPC   C4B55042   6.059   5.916   7.308
 4177POPC   NC355043  42.587  29.020   5.331
 4177POPC   PO455044  41.969  29.244   5.426
 4177POPC   GL155045  42.263  29.316   5.759
 4177POPC   GL255046  42.547  29.480   5.619
 4177POPC   C1A55047  42.292  29.055   6.143
 4177POPC   D2A55048  42.109  28.989   6.571
 4177POPC   C3A55049  42.205  29.242   6.960
 4177POPC   C4A55050  42.093  29.175   7.465
 4177POPC   C1B55051  42.698  29.402   6.041
 4177POPC   C2B55052  42.593  29.279   6.483
 4177POPC   C3B55053  42.752  29.166   6.880
 4177POPC   C4B55054  42.610  29.338   7.260
 4178POPC   NC355055  25.068   7.489   5.487
 4178POPC   PO455056  24.533   7.716   5.196
 4178POPC   GL155057  24.569   7.581   5.648
 4178POPC   GL255058  24.715   7.252   5.801
 4178POPC   C1A55059  24.538   7.613   6.110
 4178POPC   D2A55060  24.725   7.470   6.501
 4178POPC   C3A55061  24.464   7.631   6.781
 4178POPC   C4A55062  24.458   7.766   7.159
 4178POPC   C1B55063  24.502   7.101   6.205
 4178POPC   C2B55064  24.562   7.030   6.685
 4178POPC   C3B55065  24.724   6.872   7.088
 4178POPC   C4B55066  24.680   7.021   7.512
 4179POPC   NC355067  25.040   2.241   5.459
 4179POPC   PO455068  25.476   1.767   5.514
 4179POPC   GL155069  25.350   1.875   5.897
 4179POPC   GL255070  25.406   2.227   5.850
 4179POPC   C1A55071  25.286   1.790   6.336
 4179POPC   D2A55072  24.933   1.884   6.615
 4179POPC   C3A55073  25.088   1.736   6.988
 4179POPC   C4A55074  25.097   1.800   7.444
 4179POPC   C1B55075  25.362   2.294   6.284
 4179POPC   C2B55076  25.300   2.189   6.715
 4179POPC   C3B55077  25.223   2.211   7.170
 4179POPC   C4B55078  25.183   2.266   7.616
 4180POPC   NC355079  34.139  13.819   5.324
 4180POPC   PO455080  34.710  13.377   5.484
 4180POPC   GL155081  34.698  13.665   5.826
 4180POPC   GL255082  34.421  13.915   5.775
 4180POPC   C1A55083  34.659  13.789   6.254
 4180POPC   D2A55084  34.537  13.688   6.676
 4180POPC   C3A55085  34.885  13.734   6.937
 4180POPC   C4A55086  34.931  13.875   7.328
 4180POPC   C1B55087  34.328  14.191   6.146
 4180POPC   C2B55088  34.265  14.180   6.616
 4180POPC   C3B55089  34.437  14.077   7.033
 4180POPC   C4B55090  34.465  13.680   7.250
 4181POPC   NC355091  28.186  43.432   5.214
 4181POPC   PO455092  28.607  42.889   5.277
 4181POPC   GL155093  28.366  43.103   5.558
 4181POPC   GL255094  28.580  43.063   5.809
 4181POPC   C1A55095  28.101  43.233   5.908
 4181POPC   D2A55096  28.204  43.193   6.339
 4181POPC   C3A55097  28.217  43.465   6.730
 4181POPC   C4A55098  28.310  43.254   7.136
 4181POPC   C1B55099  28.698  43.010   6.239
 4181POPC   C2B55100  28.593  43.133   6.655
 4181POPC   C3B55101  28.789  43.231   6.994
 4181POPC   C4B55102  28.746  43.445   7.382
 4182POPC   NC355103  24.851  15.457   5.503
 4182POPC   PO455104  25.530  15.268   5.384
 4182POPC   GL155105  25.305  15.396   5.724
 4182POPC   GL255106  25.118  15.095   5.833
 4182POPC   C1A55107  25.297  15.522   6.145
 4182POPC   D2A55108  25.163  15.280   6.520
 4182POPC   C3A55109  25.278  15.082   6.897
 4182POPC   C4A55110  25.093  14.853   7.210
 4182POPC   C1B55111  24.830  15.303   6.143
 4182POPC   C2B55112  24.686  15.417   6.591
 4182POPC   C3B55113  24.904  15.402   7.009
 4182POPC   C4B55114  25.029  15.304   7.484
 4183POPC   NC355115  23.276  31.778   5.358
 4183POPC   PO455116  22.628  31.658   5.224
 4183POPC   GL155117  22.840  31.471   5.658
 4183POPC   GL255118  23.085  31.165   5.683
 4183POPC   C1A55119  23.096  31.558   6.068
 4183POPC   D2A55120  22.981  31.641   6.509
 4183POPC   C3A55121  23.147  31.657   6.920
 4183POPC   C4A55122  22.841  31.643   7.266
 4183POPC   C1B55123  22.868  31.108   6.091
 4183POPC   C2B55124  22.999  31.140   6.497
 4183POPC   C3B55125  22.813  31.257   6.870
 4183POPC   C4B55126  22.727  30.970   7.194
 4184POPC   NC355127  15.458  21.548   5.402
 4184POPC   PO455128  15.322  20.928   5.432
 4184POPC   GL155129  15.116  21.264   5.690
 4184POPC   GL255130  15.430  21.274   5.838
 4184POPC   C1A55131  15.050  21.382   6.151
 4184POPC   D2A55132  15.305  21.244   6.505
 4184POPC   C3A55133  15.137  21.417   6.893
 4184POPC   C4A55134  14.915  21.438   7.301
 4184POPC   C1B55135  15.501  21.638   6.115
 4184POPC   C2B55136  15.406  21.739   6.520
 4184POPC   C3B55137  15.554  21.720   6.912
 4184POPC   C4B55138  15.335  21.730   7.270
 4185POPC   NC355139  29.760  14.759   5.357
 4185POPC   PO455140  29.624  14.116   5.428
 4185POPC   GL155141  29.950  14.248   5.735
 4185POPC   GL255142  29.961  14.617   5.790
 4185POPC   C1A55143  29.874  14.310   6.183
 4185POPC   D2A55144  29.708  14.237   6.557
 4185POPC   C3A55145  29.923  14.288   6.922
 4185POPC   C4A55146  29.710  14.326   7.264
 4185POPC   C1B55147  30.131  14.740   6.188
 4185POPC   C2B55148  30.184  14.571   6.601
 4185POPC   C3B55149  30.228  14.763   7.026
 4185POPC   C4B55150  30.095  14.755   7.494
 4186POPC   NC355151  14.259   5.911   5.376
 4186POPC   PO455152  14.747   6.408   5.516
 4186POPC   GL155153  14.595   6.014   5.751
 4186POPC   GL255154  14.235   6.153   5.842
 4186POPC   C1A55155  14.383   5.733   6.089
 4186POPC   D2A55156  14.116   5.921   6.464
 4186POPC   C3A55157  14.273   5.943   6.921
 4186POPC   C4A55158  14.233   5.751   7.356
 4186POPC   C1B55159  14.534   6.193   6.232
 4186POPC   C2B55160  14.635   6.262   6.658
 4186POPC   C3B55161  14.724   6.147   7.052
 4186POPC   C4B55162  14.740   5.799   7.289
 4187POPC   NC355163  30.914  37.002   5.249
 4187POPC   PO455164  30.383  36.710   5.296
 4187POPC   GL155165  30.601  36.872   5.703
 4187POPC   GL255166  30.965  36.812   5.744
 4187POPC   C1A55167  30.538  36.820   6.173
 4187POPC   D2A55168  30.451  36.544   6.555
 4187POPC   C3A55169  30.604  36.613   7.013
 4187POPC   C4A55170  30.615  36.871   7.430
 4187POPC   C1B55171  31.025  36.703   6.187
 4187POPC   C2B55172  30.902  36.771   6.614
 4187POPC   C3B55173  30.901  37.015   6.966
 4187POPC   C4B55174  31.114  37.030   7.359
 4188POPC   NC355175  41.203  30.364   5.486
 4188POPC   PO455176  41.426  31.002   5.440
 4188POPC   GL155177  41.588  30.983   5.836
 4188POPC   GL255178  41.404  30.676   5.867
 4188POPC   C1A55179  41.631  30.852   6.280
 4188POPC   D2A55180  41.427  30.716   6.651
 4188POPC   C3A55181  41.620  30.857   7.020
 4188POPC   C4A55182  41.864  30.733   7.343
 4188POPC   C1B55183  41.169  30.504   6.247
 4188POPC   C2B55184  41.082  30.258   6.624
 4188POPC   C3B55185  41.177  30.432   7.018
 4188POPC   C4B55186  41.050  30.483   7.418
 4189POPC   NC355187  38.522  39.566   5.565
 4189POPC   PO455188  38.044  40.113   5.458
 4189POPC   GL155189  38.310  39.973   5.796
 4189POPC   GL255190  38.638  40.058   5.732
 4189POPC   C1A55191  38.207  39.883   6.239
 4189POPC   D2A55192  38.298  39.915   6.695
 4189POPC   C3A55193  38.563  39.696   6.989
 4189POPC   C4A55194  38.351  39.786   7.352
 4189POPC   C1B55195  38.709  39.989   6.198
 4189POPC   C2B55196  38.802  40.089   6.659
 4189POPC   C3B55197  38.581  40.199   7.061
 4189POPC   C4B55198  38.719  40.091   7.500
 4190POPC   NC355199   0.750  26.465   5.553
 4190POPC   PO455200   0.652  25.800   5.365
 4190POPC   GL155201   0.421  25.916   5.725
 4190POPC   GL255202   0.355  26.259   5.805
 4190POPC   C1A55203   0.463  25.808   6.151
 4190POPC   D2A55204   0.387  25.960   6.549
 4190POPC   C3A55205   0.394  25.769   6.907
 4190POPC   C4A55206   0.357  25.860   7.329
 4190POPC   C1B55207   0.461  26.480   6.203
 4190POPC   C2B55208   0.385  26.448   6.650
 4190POPC   C3B55209   0.551  26.281   7.014
 4190POPC   C4B55210   0.930  26.489   7.124
 4191POPC   NC355211  12.053  28.707   5.421
 4191POPC   PO455212  12.102  28.065   5.363
 4191POPC   GL155213  11.988  28.222   5.787
 4191POPC   GL255214  11.958  28.583   5.916
 4191POPC   C1A55215  12.222  28.217   6.187
 4191POPC   D2A55216  12.070  28.056   6.571
 4191POPC   C3A55217  12.328  28.141   6.944
 4191POPC   C4A55218  12.329  28.568   7.131
 4191POPC   C1B55219  11.789  28.453   6.343
 4191POPC   C2B55220  11.954  28.514   6.782
 4191POPC   C3B55221  11.834  28.592   7.232
 4191POPC   C4B55222  11.848  28.785   7.639
 4192POPC   NC355223  25.637   3.830   5.373
 4192POPC   PO455224  25.143   3.418   5.314
 4192POPC   GL155225  25.327   3.563   5.710
 4192POPC   GL255226  25.487   3.278   5.803
 4192POPC   C1A55227  25.101   3.657   6.133
 4192POPC   D2A55228  24.864   3.716   6.528
 4192POPC   C3A55229  25.063   3.532   6.906
 4192POPC   C4A55230  25.104   3.696   7.341
 4192POPC   C1B55231  25.444   3.298   6.266
 4192POPC   C2B55232  25.511   3.058   6.630
 4192POPC   C3B55233  25.535   3.097   7.045
 4192POPC   C4B55234  25.551   3.465   7.266
 4193POPC   NC355235  10.916   1.823   5.317
 4193POPC   PO455236  11.245   2.406   5.408
 4193POPC   GL155237  11.348   2.074   5.708
 4193POPC   GL255238  11.574   1.804   5.589
 4193POPC   C1A55239  11.239   2.035   6.146
 4193POPC   D2A55240  11.289   2.172   6.588
 4193POPC   C3A55241  11.168   1.983   6.992
 4193POPC   C4A55242  11.301   2.071   7.433
 4193POPC   C1B55243  11.569   1.669   6.036
 4193POPC   C2B55244  11.378   1.643   6.469
 4193POPC   C3B55245  11.501   1.611   6.899
 4193POPC   C4B55246  11.284   1.563   7.291
 4194POPC   NC355247  38.657  32.406   5.400
 4194POPC   PO455248  38.586  31.707   5.408
 4194POPC   GL155249  38.420  32.055   5.708
 4194POPC   GL255250  38.060  32.197   5.729
 4194POPC   C1A55251  38.579  32.280   6.119
 4194POPC   D2A55252  38.861  32.358   6.524
 4194POPC   C3A55253  38.663  32.288   6.947
 4194POPC   C4A55254  38.791  32.360   7.350
 4194POPC   C1B55255  37.934  32.053   6.160
 4194POPC   C2B55256  37.994  32.054   6.630
 4194POPC   C3B55257  38.117  32.137   7.072
 4194POPC   C4B55258  38.292  32.435   7.355
 4195POPC   NC355259  41.843  31.284   5.424
 4195POPC   PO455260  41.368  31.758   5.422
 4195POPC   GL155261  41.490  31.499   5.769
 4195POPC   GL255262  41.843  31.568   5.867
 4195POPC   C1A55263  41.507  31.360   6.201
 4195POPC   D2A55264  41.683  31.511   6.600
 4195POPC   C3A55265  41.533  31.351   7.009
 4195POPC   C4A55266  41.197  31.358   7.348
 4195POPC   C1B55267  41.982  31.211   6.191
 4195POPC   C2B55268  41.921  31.058   6.646
 4195POPC   C3B55269  42.029  31.191   7.067
 4195POPC   C4B55270  42.045  31.551   7.346
 4196POPC   NC355271  35.842   2.754   5.307
 4196POPC   PO455272  36.319   3.107   5.607
 4196POPC   GL155273  36.037   2.854   5.804
 4196POPC   GL255274  35.697   2.955   5.769
 4196POPC   C1A55275  36.067   2.589   6.161
 4196POPC   D2A55276  35.921   2.721   6.564
 4196POPC   C3A55277  36.240   2.811   6.863
 4196POPC   C4A55278  36.100   2.524   7.178
 4196POPC   C1B55279  35.808   3.097   6.198
 4196POPC   C2B55280  35.974   3.227   6.618
 4196POPC   C3B55281  35.835   3.044   7.033
 4196POPC   C4B55282  35.706   3.198   7.413
 4197POPC   NC355283  27.006  11.313   5.308
 4197POPC   PO455284  27.736  11.307   5.474
 4197POPC   GL155285  27.523  11.408   5.862
 4197POPC   GL255286  27.208  11.612   5.845
 4197POPC   C1A55287  27.725  11.342   6.269
 4197POPC   D2A55288  27.621  11.138   6.652
 4197POPC   C3A55289  27.860  11.289   6.978
 4197POPC   C4A55290  27.690  11.088   7.332
 4197POPC   C1B55291  27.309  11.629   6.273
 4197POPC   C2B55292  27.201  11.470   6.686
 4197POPC   C3B55293  27.342  11.405   7.106
 4197POPC   C4B55294  27.667  11.608   7.337
 4198POPC   NC355295  37.876   0.882   5.513
 4198POPC   PO455296  37.497   0.309   5.481
 4198POPC   GL155297  37.742   0.457   5.803
 4198POPC   GL255298  37.681   0.175   6.043
 4198POPC   C1A55299  37.918   0.619   6.190
 4198POPC   D2A55300  37.816   0.449   6.595
 4198POPC   C3A55301  37.660   0.637   6.977
 4198POPC   C4A55302  37.703   0.319   7.280
 4198POPC   C1B55303  37.391   0.541   6.150
 4198POPC   C2B55304  37.345   0.708   6.573
 4198POPC   C3B55305  37.113   0.691   6.967
 4198POPC   C4B55306  37.238   0.563   7.360
 4199POPC   NC355307  24.258  28.872   5.478
 4199POPC   PO455308  24.632  29.368   5.611
 4199POPC   GL155309  24.317  29.185   5.880
 4199POPC   GL255310  24.072  29.402   5.724
 4199POPC   C1A55311  24.340  29.114   6.330
 4199POPC   D2A55312  24.710  29.107   6.561
 4199POPC   C3A55313  24.691  29.113   6.989
 4199POPC   C4A55314  24.858  28.880   7.313
 4199POPC   C1B55315  24.171  29.581   6.157
 4199POPC   C2B55316  24.430  29.577   6.561
 4199POPC   C3B55317  24.548  29.589   6.999
 4199POPC   C4B55318  24.306  29.496   7.355
 4200POPC   NC355319  43.829   4.701   5.040
 4200POPC   PO455320  44.370   4.385   5.352
 4200POPC   GL155321  44.272   4.354   5.798
 4200POPC   GL255322  43.941   4.498   5.816
 4200POPC   C1A55323  44.188   4.189   6.224
 4200POPC   D2A55324  44.047   4.438   6.557
 4200POPC   C3A55325  44.167   4.395   6.959
 4200POPC   C4A55326  43.983   4.227   7.314
 4200POPC   C1B55327  43.687   4.378   6.177
 4200POPC   C2B55328  43.547   4.313   6.613
 4200POPC   C3B55329  43.585   4.433   7.044
 4200POPC   C4B55330  43.505   4.246   7.466
 4201POPC   NC355331   8.766  42.997   5.325
 4201POPC   PO455332   9.254  43.404   5.482
 4201POPC   GL155333   8.947  43.205   5.751
 4201POPC   GL255334   8.591  43.338   5.691
 4201POPC   C1A55335   8.899  43.289   6.182
 4201POPC   D2A55336   9.074  43.131   6.552
 4201POPC   C3A55337   8.809  43.256   6.887
 4201POPC   C4A55338   8.903  43.075   7.274
 4201POPC   C1B55339   8.500  43.018   6.026
 4201POPC   C2B55340   8.585  42.952   6.481
 4201POPC   C3B55341   8.638  42.776   6.937
 4201POPC   C4B55342   8.761  42.571   7.366
 4202POPC   NC355343  37.388   5.726   5.446
 4202POPC   PO455344  36.777   6.185   5.405
 4202POPC   GL155345  36.747   6.098   5.853
 4202POPC   GL255346  36.998   5.842   5.982
 4202POPC   C1A55347  36.632   6.199   6.277
 4202POPC   D2A55348  36.830   5.989   6.627
 4202POPC   C3A55349  36.800   6.218   7.006
 4202POPC   C4A55350  36.893   6.066   7.383
 4202POPC   C1B55351  37.087   5.487   6.292
 4202POPC   C2B55352  37.117   5.382   6.746
 4202POPC   C3B55353  37.026   5.652   7.134
 4202POPC   C4B55354  37.189   5.567   7.664
 4203POPC   NC355355  34.822  34.464   5.594
 4203POPC   PO455356  34.250  34.804   5.412
 4203POPC   GL155357  34.390  34.611   5.822
 4203POPC   GL255358  34.202  34.322   5.956
 4203POPC   C1A55359  34.636  34.742   6.227
 4203POPC   D2A55360  34.817  34.809   6.664
 4203POPC   C3A55361  34.772  34.565   7.045
 4203POPC   C4A55362  34.776  34.546   7.511
 4203POPC   C1B55363  34.575  34.241   6.183
 4203POPC   C2B55364  34.769  34.226   6.589
 4203POPC   C3B55365  34.498  34.146   6.919
 4203POPC   C4B55366  34.425  34.262   7.293
 4204POPC   NC355367  31.340  31.790   5.367
 4204POPC   PO455368  31.236  31.100   5.291
 4204POPC   GL155369  31.250  31.374   5.672
 4204POPC   GL255370  31.614  31.503   5.715
 4204POPC   C1A55371  31.284  31.566   6.099
 4204POPC   D2A55372  31.500  31.592   6.481
 4204POPC   C3A55373  31.541  31.748   6.882
 4204POPC   C4A55374  31.539  31.569   7.273
 4204POPC   C1B55375  31.759  31.328   6.117
 4204POPC   C2B55376  31.845  31.250   6.567
 4204POPC   C3B55377  31.931  31.301   7.030
 4204POPC   C4B55378  31.942  31.364   7.526
 4205POPC   NC355379  20.159  13.514   5.360
 4205POPC   PO455380  19.562  13.600   5.265
 4205POPC   GL155381  19.626  13.728   5.710
 4205POPC   GL255382  19.956  13.854   5.769
 4205POPC   C1A55383  19.754  13.585   6.160
 4205POPC   D2A55384  19.925  13.296   6.483
 4205POPC   C3A55385  19.875  13.339   6.921
 4205POPC   C4A55386  19.737  13.562   7.286
 4205POPC   C1B55387  20.166  13.860   6.194
 4205POPC   C2B55388  19.960  13.803   6.615
 4205POPC   C3B55389  20.130  13.777   7.025
 4205POPC   C4B55390  20.276  13.893   7.439
 4206POPC   NC355391  43.982   5.646   5.408
 4206POPC   PO455392  43.679   5.008   5.340
 4206POPC   GL155393  43.826   5.246   5.731
 4206POPC   GL255394  43.670   4.971   5.888
 4206POPC   C1A55395  43.956   5.358   6.181
 4206POPC   D2A55396  44.079   5.164   6.608
 4206POPC   C3A55397  44.000   5.352   7.006
 4206POPC   C4A55398  44.054   5.130   7.406
 4206POPC   C1B55399  43.897   4.845   6.243
 4206POPC   C2B55400  43.710   4.813   6.650
 4206POPC   C3B55401  43.918   4.828   7.024
 4206POPC   C4B55402  43.753   4.714   7.435
 4207POPC   NC355403   8.407   1.049   5.496
 4207POPC   PO455404   8.088   1.676   5.496
 4207POPC   GL155405   7.927   1.439   5.856
 4207POPC   GL255406   7.947   1.067   5.864
 4207POPC   C1A55407   7.973   1.326   6.305
 4207POPC   D2A55408   8.168   1.347   6.705
 4207POPC   C3A55409   7.990   1.365   7.116
 4207POPC   C4A55410   8.139   1.471   7.510
 4207POPC   C1B55411   8.329   0.993   6.147
 4207POPC   C2B55412   8.484   0.961   6.566
 4207POPC   C3B55413   8.322   0.946   6.978
 4207POPC   C4B55414   8.351   1.042   7.401
 4208POPC   NC355415  22.860  13.722   5.342
 4208POPC   PO455416  23.088  13.143   5.593
 4208POPC   GL155417  23.006  13.465   5.841
 4208POPC   GL255418  22.981  13.844   5.834
 4208POPC   C1A55419  23.285  13.379   6.174
 4208POPC   D2A55420  23.199  13.251   6.572
 4208POPC   C3A55421  23.043  13.589   6.798
 4208POPC   C4A55422  23.261  13.540   7.169
 4208POPC   C1B55423  22.864  13.690   6.280
 4208POPC   C2B55424  22.592  13.892   6.579
 4208POPC   C3B55425  22.555  13.891   7.015
 4208POPC   C4B55426  22.767  13.583   7.236
 4209POPC   NC355427  39.124  29.880   5.323
 4209POPC   PO455428  39.292  30.514   5.508
 4209POPC   GL155429  39.233  30.093   5.785
 4209POPC   GL255430  38.985  29.753   5.773
 4209POPC   C1A55431  39.473  29.799   6.083
 4209POPC   D2A55432  39.664  29.619   6.488
 4209POPC   C3A55433  39.509  29.716   6.929
 4209POPC   C4A55434  39.431  30.103   7.191
 4209POPC   C1B55435  38.956  29.864   6.160
 4209POPC   C2B55436  39.168  29.862   6.548
 4209POPC   C3B55437  38.993  29.844   6.956
 4209POPC   C4B55438  39.005  29.794   7.397
 4210POPC   NC355439  30.177  30.857   5.520
 4210POPC   PO455440  29.737  30.404   5.341
 4210POPC   GL155441  29.758  30.661   5.757
 4210POPC   GL255442  30.063  30.666   6.010
 4210POPC   C1A55443  29.654  30.870   6.156
 4210POPC   D2A55444  29.903  30.937   6.520
 4210POPC   C3A55445  29.674  30.721   6.842
 4210POPC   C4A55446  29.547  30.862   7.242
 4210POPC   C1B55447  30.129  30.487   6.433
 4210POPC   C2B55448  30.161  30.560   6.889
 4210POPC   C3B55449  30.062  30.774   7.304
 4210POPC   C4B55450  30.300  30.682   7.713
 4211POPC   NC355451  23.018  14.301   5.269
 4211POPC   PO455452  23.267  14.919   5.348
 4211POPC   GL155453  23.052  14.696   5.688
 4211POPC   GL255454  22.958  14.376   5.800
 4211POPC   C1A55455  23.075  14.804   6.154
 4211POPC   D2A55456  23.333  14.744   6.519
 4211POPC   C3A55457  23.131  14.801   6.935
 4211POPC   C4A55458  23.183  14.577   7.331
 4211POPC   C1B55459  22.920  14.205   6.230
 4211POPC   C2B55460  23.092  14.062   6.629
 4211POPC   C3B55461  23.072  14.042   7.082
 4211POPC   C4B55462  22.765  14.309   7.229
 4212POPC   NC355463  12.704  35.965   5.531
 4212POPC   PO455464  12.661  36.653   5.416
 4212POPC   GL155465  12.617  36.398   5.807
 4212POPC   GL255466  12.931  36.250   5.891
 4212POPC   C1A55467  12.609  36.356   6.293
 4212POPC   D2A55468  13.014  36.270   6.581
 4212POPC   C3A55469  13.047  36.332   7.046
 4212POPC   C4A55470  12.660  36.399   7.281
 4212POPC   C1B55471  12.823  35.912   6.217
 4212POPC   C2B55472  12.560  35.915   6.610
 4212POPC   C3B55473  12.799  35.880   6.990
 4212POPC   C4B55474  13.253  35.822   7.054
 4213POPC   NC355475   6.685  22.582   5.424
 4213POPC   PO455476   6.654  23.236   5.377
 4213POPC   GL155477   6.449  22.996   5.731
 4213POPC   GL255478   6.621  22.699   5.915
 4213POPC   C1A55479   6.397  23.061   6.199
 4213POPC   D2A55480   6.668  22.906   6.560
 4213POPC   C3A55481   6.781  23.092   6.982
 4213POPC   C4A55482   6.777  23.047   7.434
 4213POPC   C1B55483   6.369  22.527   6.262
 4213POPC   C2B55484   6.298  22.603   6.720
 4213POPC   C3B55485   6.586  22.604   7.086
 4213POPC   C4B55486   6.807  22.563   7.527
 4214POPC   NC355487  32.309  32.030   5.410
 4214POPC   PO455488  32.402  32.700   5.502
 4214POPC   GL155489  32.268  32.391   5.822
 4214POPC   GL255490  32.484  32.120   5.912
 4214POPC   C1A55491  32.137  32.325   6.280
 4214POPC   D2A55492  31.962  32.198   6.701
 4214POPC   C3A55493  32.213  32.290   7.107
 4214POPC   C4A55494  32.330  32.524   7.500
 4214POPC   C1B55495  32.431  31.913   6.315
 4214POPC   C2B55496  32.464  31.978   6.757
 4214POPC   C3B55497  32.572  31.699   7.074
 4214POPC   C4B55498  32.352  31.631   7.423
 4215POPC   NC355499  41.122  31.359   5.423
 4215POPC   PO455500  40.458  31.480   5.272
 4215POPC   GL155501  40.690  31.447   5.711
 4215POPC   GL255502  40.947  31.731   5.721
 4215POPC   C1A55503  40.759  31.337   6.177
 4215POPC   D2A55504  40.711  31.578   6.606
 4215POPC   C3A55505  40.784  31.368   7.022
 4215POPC   C4A55506  40.708  31.422   7.491
 4215POPC   C1B55507  40.916  31.819   6.136
 4215POPC   C2B55508  41.182  31.654   6.436
 4215POPC   C3B55509  41.167  31.672   6.868
 4215POPC   C4B55510  40.935  31.810   7.259
 4216POPC   NC355511  13.966   9.272   5.487
 4216POPC   PO455512  14.649   9.273   5.597
 4216POPC   GL155513  14.539   9.018   5.940
 4216POPC   GL255514  14.233   8.984   5.834
 4216POPC   C1A55515  14.453   8.805   6.346
 4216POPC   D2A55516  14.628   8.719   6.776
 4216POPC   C3A55517  14.570   8.958   7.122
 4216POPC   C4A55518  14.529   8.945   7.550
 4216POPC   C1B55519  13.971   9.156   6.150
 4216POPC   C2B55520  14.072   9.098   6.564
 4216POPC   C3B55521  14.168   9.255   6.945
 4216POPC   C4B55522  14.098   9.060   7.314
 4217POPC   NC355523  41.643  26.270   5.456
 4217POPC   PO455524  41.671  25.567   5.367
 4217POPC   GL155525  41.780  25.862   5.740
 4217POPC   GL255526  42.049  25.745   5.927
 4217POPC   C1A55527  41.599  26.012   6.155
 4217POPC   D2A55528  41.294  25.955   6.495
 4217POPC   C3A55529  41.328  26.224   6.856
 4217POPC   C4A55530  41.222  26.165   7.266
 4217POPC   C1B55531  42.089  26.057   6.295
 4217POPC   C2B55532  41.801  26.030   6.676
 4217POPC   C3B55533  41.669  25.933   7.101
 4217POPC   C4B55534  41.693  26.169   7.503
 4218POPC   NC355535  35.695  36.032   5.309
 4218POPC   PO455536  35.065  35.895   5.477
 4218POPC   GL155537  35.415  35.891   5.782
 4218POPC   GL255538  35.621  36.183   5.812
 4218POPC   C1A55539  35.351  35.938   6.232
 4218POPC   D2A55540  35.265  36.209   6.599
 4218POPC   C3A55541  35.334  35.924   6.952
 4218POPC   C4A55542  35.292  35.754   7.409
 4218POPC   C1B55543  35.535  36.433   6.183
 4218POPC   C2B55544  35.650  36.628   6.570
 4218POPC   C3B55545  35.526  36.486   6.971
 4218POPC   C4B55546  35.544  36.186   7.314
 4219POPC   NC355547   5.426  25.583   5.637
 4219POPC   PO455548   5.848  25.196   5.203
 4219POPC   GL155549   5.771  25.138   5.662
 4219POPC   GL255550   5.986  24.887   5.834
 4219POPC   C1A55551   5.825  25.301   6.087
 4219POPC   D2A55552   5.886  25.274   6.531
 4219POPC   C3A55553   5.661  25.493   6.845
 4219POPC   C4A55554   5.749  25.427   7.292
 4219POPC   C1B55555   6.170  24.911   6.264
 4219POPC   C2B55556   6.216  24.877   6.734
 4219POPC   C3B55557   6.196  24.786   7.168
 4219POPC   C4B55558   5.866  24.792   7.500
 4220POPC   NC355559  31.669  33.995   5.368
 4220POPC   PO455560  31.139  33.574   5.542
 4220POPC   GL155561  31.380  33.890   5.838
 4220POPC   GL255562  31.757  33.932   5.859
 4220POPC   C1A55563  31.504  34.068   6.259
 4220POPC   D2A55564  31.313  34.183   6.613
 4220POPC   C3A55565  31.448  34.091   7.007
 4220POPC   C4A55566  31.295  33.749   7.264
 4220POPC   C1B55567  31.755  33.620   6.199
 4220POPC   C2B55568  31.861  33.579   6.619
 4220POPC   C3B55569  31.767  33.708   7.032
 4220POPC   C4B55570  31.779  33.919   7.415
 4221POPC   NC355571   9.884  24.585   5.242
 4221POPC   PO455572   9.420  24.217   5.604
 4221POPC   GL155573   9.673  24.354   5.925
 4221POPC   GL255574   9.915  24.544   5.797
 4221POPC   C1A55575   9.936  24.311   6.312
 4221POPC   D2A55576   9.920  24.310   6.746
 4221POPC   C3A55577  10.168  24.180   7.086
 4221POPC   C4A55578   9.849  24.366   7.305
 4221POPC   C1B55579   9.721  24.769   6.177
 4221POPC   C2B55580   9.857  24.822   6.590
 4221POPC   C3B55581   9.686  24.798   6.998
 4221POPC   C4B55582   9.816  24.914   7.403
 4222POPC   NC355583  38.098  21.927   5.665
 4222POPC   PO455584  38.685  22.187   5.340
 4222POPC   GL155585  38.537  22.102   5.809
 4222POPC   GL255586  38.359  22.384   5.881
 4222POPC   C1A55587  38.297  22.076   6.276
 4222POPC   D2A55588  38.457  21.958   6.694
 4222POPC   C3A55589  38.300  21.846   7.136
 4222POPC   C4A55590  38.345  21.674   7.601
 4222POPC   C1B55591  38.210  22.588   6.242
 4222POPC   C2B55592  38.427  22.494   6.603
 4222POPC   C3B55593  38.428  22.352   7.022
 4222POPC   C4B55594  38.232  22.597   7.339
 4223POPC   NC355595  32.682   1.443   5.634
 4223POPC   PO455596  32.168   1.067   5.221
 4223POPC   GL155597  32.283   1.078   5.752
 4223POPC   GL255598  32.040   1.251   5.929
 4223POPC   C1A55599  32.469   1.181   6.205
 4223POPC   D2A55600  32.286   1.165   6.637
 4223POPC   C3A55601  32.454   1.346   7.020
 4223POPC   C4A55602  32.370   1.204   7.470
 4223POPC   C1B55603  32.001   1.457   6.307
 4223POPC   C2B55604  31.834   1.376   6.756
 4223POPC   C3B55605  31.955   1.527   7.155
 4223POPC   C4B55606  32.315   1.718   7.351
 4224POPC   NC355607   2.274  37.387   5.496
 4224POPC   PO455608   1.737  37.880   5.428
 4224POPC   GL155609   1.977  37.704   5.754
 4224POPC   GL255610   1.686  37.572   5.865
 4224POPC   C1A55611   2.119  37.671   6.186
 4224POPC   D2A55612   2.337  37.768   6.614
 4224POPC   C3A55613   2.200  37.703   7.047
 4224POPC   C4A55614   1.823  37.486   7.153
 4224POPC   C1B55615   1.636  37.868   6.189
 4224POPC   C2B55616   1.826  37.831   6.592
 4224POPC   C3B55617   1.809  38.012   6.989
 4224POPC   C4B55618   1.869  37.966   7.390
 4225POPC   NC355619  11.383  40.861   5.471
 4225POPC   PO455620  11.327  40.265   5.125
 4225POPC   GL155621  11.127  40.421   5.616
 4225POPC   GL255622  10.934  40.741   5.632
 4225POPC   C1A55623  11.296  40.457   6.105
 4225POPC   D2A55624  11.584  40.584   6.482
 4225POPC   C3A55625  11.388  40.483   6.877
 4225POPC   C4A55626  11.315  40.375   7.304
 4225POPC   C1B55627  10.983  40.866   6.059
 4225POPC   C2B55628  11.153  40.830   6.455
 4225POPC   C3B55629  11.246  41.049   6.793
 4225POPC   C4B55630  11.269  40.976   7.213
 4226POPC   NC355631   0.472  44.800   5.425
 4226POPC   PO455632   0.207  44.252   5.350
 4226POPC   GL155633   0.318  44.425   5.776
 4226POPC   GL255634   0.630  44.641   5.858
 4226POPC   C1A55635   0.145  44.529   6.196
 4226POPC   D2A55636   0.132  44.794   6.571
 4226POPC   C3A55637   0.007  44.542   6.902
 4226POPC   C4A55638   0.231  44.315   7.139
 4226POPC   C1B55639   0.556  44.833   6.223
 4226POPC   C2B55640   0.663  44.789   6.613
 4226POPC   C3B55641   0.503  44.748   7.005
 4226POPC   C4B55642   0.555  44.985   7.363
 4227POPC   NC355643  23.140  34.319   5.539
 4227POPC   PO455644  22.721  34.832   5.543
 4227POPC   GL155645  22.913  34.641   5.872
 4227POPC   GL255646  22.734  34.309   5.869
 4227POPC   C1A55647  23.099  34.751   6.279
 4227POPC   D2A55648  22.981  34.575   6.679
 4227POPC   C3A55649  23.082  34.802   7.047
 4227POPC   C4A55650  22.873  34.834   7.434
 4227POPC   C1B55651  22.635  34.538   6.266
 4227POPC   C2B55652  22.440  34.826   6.490
 4227POPC   C3B55653  22.568  34.814   6.895
 4227POPC   C4B55654  22.722  34.467   7.120
 4228POPC   NC355655  23.573   5.180   5.254
 4228POPC   PO455656  24.057   4.940   5.675
 4228POPC   GL155657  23.689   5.042   5.799
 4228POPC   GL255658  23.579   4.722   5.802
 4228POPC   C1A55659  23.663   5.162   6.208
 4228POPC   D2A55660  23.908   5.216   6.572
 4228POPC   C3A55661  23.730   5.434   6.908
 4228POPC   C4A55662  23.675   5.325   7.347
 4228POPC   C1B55663  23.803   4.655   6.201
 4228POPC   C2B55664  23.639   4.783   6.584
 4228POPC   C3B55665  23.706   4.928   6.985
 4228POPC   C4B55666  23.497   4.841   7.381
 4229POPC   NC355667  31.618  23.701   4.582
 4229POPC   PO455668  31.755  23.622   5.210
 4229POPC   GL155669  31.592  23.848   5.588
 4229POPC   GL255670  31.732  23.561   5.774
 4229POPC   C1A55671  31.527  23.979   6.062
 4229POPC   D2A55672  31.440  23.843   6.501
 4229POPC   C3A55673  31.656  23.984   6.876
 4229POPC   C4A55674  31.426  23.930   7.206
 4229POPC   C1B55675  31.980  23.742   6.123
 4229POPC   C2B55676  31.911  23.643   6.551
 4229POPC   C3B55677  31.692  23.474   6.905
 4229POPC   C4B55678  31.856  23.656   7.276
 4230POPC   NC355679  12.542  11.535   5.642
 4230POPC   PO455680  13.044  11.179   5.262
 4230POPC   GL155681  12.931  11.113   5.711
 4230POPC   GL255682  12.704  11.208   5.961
 4230POPC   C1A55683  13.100  10.963   6.134
 4230POPC   D2A55684  13.087  10.852   6.601
 4230POPC   C3A55685  12.879  11.047   6.973
 4230POPC   C4A55686  13.108  11.259   7.278
 4230POPC   C1B55687  12.834  11.330   6.391
 4230POPC   C2B55688  12.707  11.478   6.788
 4230POPC   C3B55689  12.714  11.543   7.216
 4230POPC   C4B55690  12.777  11.709   7.626
 4231POPC   NC355691   3.413  27.225   5.428
 4231POPC   PO455692   3.645  27.830   5.413
 4231POPC   GL155693   3.649  27.573   5.750
 4231POPC   GL255694   3.311  27.562   5.823
 4231POPC   C1A55695   3.685  27.403   6.147
 4231POPC   D2A55696   3.819  27.566   6.526
 4231POPC   C3A55697   3.776  27.385   6.921
 4231POPC   C4A55698   3.726  27.575   7.325
 4231POPC   C1B55699   3.242  27.639   6.294
 4231POPC   C2B55700   3.357  27.625   6.736
 4231POPC   C3B55701   3.252  27.676   7.169
 4231POPC   C4B55702   3.239  27.381   7.526
 4232POPC   NC355703  39.315  33.244   5.357
 4232POPC   PO455704  38.854  32.836   5.437
 4232POPC   GL155705  39.207  32.927   5.767
 4232POPC   GL255706  39.395  33.234   5.861
 4232POPC   C1A55707  39.488  32.762   6.106
 4232POPC   D2A55708  39.552  32.624   6.544
 4232POPC   C3A55709  39.233  32.799   6.797
 4232POPC   C4A55710  39.091  32.747   7.221
 4232POPC   C1B55711  39.310  33.214   6.306
 4232POPC   C2B55712  39.518  33.273   6.721
 4232POPC   C3B55713  39.346  33.185   7.117
 4232POPC   C4B55714  38.917  33.233   7.181
 4233POPC   NC355715  22.415  41.365   5.345
 4233POPC   PO455716  23.015  41.204   5.434
 4233POPC   GL155717  22.883  41.378   5.850
 4233POPC   GL255718  22.559  41.568   5.932
 4233POPC   C1A55719  23.035  41.624   6.221
 4233POPC   D2A55720  22.908  41.581   6.642
 4233POPC   C3A55721  22.788  41.831   7.005
 4233POPC   C4A55722  23.103  41.620   7.248
 4233POPC   C1B55723  22.654  41.289   6.304
 4233POPC   C2B55724  22.577  41.135   6.716
 4233POPC   C3B55725  22.743  41.327   7.038
 4233POPC   C4B55726  22.620  41.527   7.414
 4234POPC   NC355727   4.164   9.408   5.625
 4234POPC   PO455728   3.485   9.729   5.479
 4234POPC   GL155729   3.661   9.505   5.771
 4234POPC   GL255730   3.343   9.397   5.903
 4234POPC   C1A55731   3.785   9.495   6.203
 4234POPC   D2A55732   3.561   9.546   6.590
 4234POPC   C3A55733   3.795   9.569   6.960
 4234POPC   C4A55734   3.758   9.764   7.339
 4234POPC   C1B55735   3.389   9.807   6.153
 4234POPC   C2B55736   3.476  10.064   6.518
 4234POPC   C3B55737   3.428   9.940   6.944
 4234POPC   C4B55738   3.241   9.856   7.339
 4235POPC   NC355739   4.989   6.409   5.695
 4235POPC   PO455740   4.963   5.847   5.274
 4235POPC   GL155741   5.138   5.902   5.704
 4235POPC   GL255742   4.850   5.754   5.810
 4235POPC   C1A55743   5.335   5.759   6.126
 4235POPC   D2A55744   5.218   5.537   6.564
 4235POPC   C3A55745   5.194   5.720   7.017
 4235POPC   C4A55746   5.219   5.689   7.504
 4235POPC   C1B55747   4.834   5.902   6.211
 4235POPC   C2B55748   4.803   6.076   6.595
 4235POPC   C3B55749   4.683   5.794   6.900
 4235POPC   C4B55750   4.761   5.935   7.279
 4236POPC   NC355751  44.281  21.661   5.342
 4236POPC   PO455752  44.707  21.275   5.437
 4236POPC   GL155753  44.549  21.442   5.801
 4236POPC   GL255754  44.612  21.141   5.976
 4236POPC   C1A55755  44.743  21.563   6.210
 4236POPC   D2A55756  44.914  21.379   6.585
 4236POPC   C3A55757  44.957  21.641   6.959
 4236POPC   C4A55758  44.628  21.725   7.263
 4236POPC   C1B55759  44.998  21.011   6.203
 4236POPC   C2B55760   0.094  20.858   6.641
 4236POPC   C3B55761  44.970  21.114   7.028
 4236POPC   C4B55762  44.556  21.217   7.177
 4237POPC   NC355763   7.640  16.967   5.417
 4237POPC   PO455764   6.970  16.725   5.536
 4237POPC   GL155765   7.110  16.848   5.936
 4237POPC   GL255766   7.384  17.090   5.882
 4237POPC   C1A55767   7.385  16.634   6.276
 4237POPC   D2A55768   7.600  16.375   6.614
 4237POPC   C3A55769   7.476  16.511   7.010
 4237POPC   C4A55770   7.181  16.806   7.237
 4237POPC   C1B55771   7.733  17.023   6.189
 4237POPC   C2B55772   7.804  16.888   6.620
 4237POPC   C3B55773   7.631  16.985   7.021
 4237POPC   C4B55774   7.640  16.805   7.453
 4238POPC   NC355775  39.081  25.727   5.428
 4238POPC   PO455776  38.931  26.417   5.493
 4238POPC   GL155777  39.059  26.296   5.879
 4238POPC   GL255778  39.399  26.404   5.965
 4238POPC   C1A55779  39.010  26.238   6.320
 4238POPC   D2A55780  39.117  25.907   6.619
 4238POPC   C3A55781  39.081  26.112   6.990
 4238POPC   C4A55782  38.733  26.088   7.243
 4238POPC   C1B55783  39.502  26.097   6.308
 4238POPC   C2B55784  39.560  26.131   6.773
 4238POPC   C3B55785  39.551  26.077   7.201
 4238POPC   C4B55786  39.524  26.354   7.515
 4239POPC   NC355787  21.050   5.014   5.606
 4239POPC   PO455788  21.660   4.888   5.435
 4239POPC   GL155789  21.501   4.959   5.874
 4239POPC   GL255790  21.389   5.287   5.932
 4239POPC   C1A55791  21.240   4.895   6.264
 4239POPC   D2A55792  21.346   4.808   6.700
 4239POPC   C3A55793  21.511   5.105   6.995
 4239POPC   C4A55794  21.762   5.285   7.334
 4239POPC   C1B55795  21.043   5.365   6.236
 4239POPC   C2B55796  21.014   5.222   6.666
 4239POPC   C3B55797  21.071   5.377   7.086
 4239POPC   C4B55798  21.393   5.636   7.277
 4240POPC   NC355799  19.642  41.829   5.450
 4240POPC   PO455800  19.889  42.454   5.123
 4240POPC   GL155801  19.742  42.437   5.594
 4240POPC   GL255802  19.800  42.181   5.764
 4240POPC   C1A55803  19.656  42.555   6.074
 4240POPC   D2A55804  19.896  42.524   6.514
 4240POPC   C3A55805  19.776  42.417   6.960
 4240POPC   C4A55806  19.880  42.498   7.414
 4240POPC   C1B55807  19.878  42.112   6.183
 4240POPC   C2B55808  19.656  42.039   6.577
 4240POPC   C3B55809  19.670  41.926   7.034
 4240POPC   C4B55810  20.077  42.033   7.210
 4241POPC   NC355811  25.801   8.235   5.100
 4241POPC   PO455812  26.361   8.256   5.482
 4241POPC   GL155813  26.327   8.093   5.879
 4241POPC   GL255814  26.018   8.144   5.986
 4241POPC   C1A55815  26.306   7.865   6.261
 4241POPC   D2A55816  26.075   8.126   6.528
 4241POPC   C3A55817  26.331   8.092   6.852
 4241POPC   C4A55818  26.382   7.838   7.217
 4241POPC   C1B55819  25.722   7.882   6.213
 4241POPC   C2B55820  25.576   7.899   6.640
 4241POPC   C3B55821  25.830   8.013   6.983
 4241POPC   C4B55822  25.749   8.310   7.261
 4242POPC   NC355823  22.474  23.783   5.626
 4242POPC   PO455824  22.969  23.377   5.513
 4242POPC   GL155825  22.997  23.742   5.845
 4242POPC   GL255826  22.818  24.081   5.846
 4242POPC   C1A55827  23.095  23.773   6.284
 4242POPC   D2A55828  22.814  23.840   6.646
 4242POPC   C3A55829  22.889  23.614   7.022
 4242POPC   C4A55830  22.568  23.356   7.172
 4242POPC   C1B55831  22.938  24.236   6.225
 4242POPC   C2B55832  23.160  24.200   6.589
 4242POPC   C3B55833  23.055  24.146   7.014
 4242POPC   C4B55834  23.089  24.012   7.441
 4243POPC   NC355835  40.214  13.318   5.692
 4243POPC   PO455836  39.848  13.888   5.387
 4243POPC   GL155837  39.838  13.671   5.745
 4243POPC   GL255838  40.116  13.820   5.888
 4243POPC   C1A55839  39.725  13.637   6.185
 4243POPC   D2A55840  39.882  13.843   6.557
 4243POPC   C3A55841  40.191  13.597   6.758
 4243POPC   C4A55842  40.193  13.513   7.184
 4243POPC   C1B55843  40.331  13.745   6.269
 4243POPC   C2B55844  40.541  13.965   6.614
 4243POPC   C3B55845  40.309  14.052   6.970
 4243POPC   C4B55846  40.152  14.017   7.379
 4244POPC   NC355847   3.956  43.766   5.307
 4244POPC   PO455848   4.670  44.038   5.443
 4244POPC   GL155849   4.298  44.066   5.743
 4244POPC   GL255850   3.931  43.957   5.793
 4244POPC   C1A55851   4.325  44.114   6.191
 4244POPC   D2A55852   4.618  44.083   6.527
 4244POPC   C3A55853   4.495  44.152   6.947
 4244POPC   C4A55854   4.400  43.978   7.388
 4244POPC   C1B55855   4.035  43.690   6.162
 4244POPC   C2B55856   4.162  43.795   6.572
 4244POPC   C3B55857   4.221  43.726   6.971
 4244POPC   C4B55858   4.009  43.653   7.325
 4245POPC   NC355859   5.577  11.625   5.548
 4245POPC   PO455860   6.064  11.143   5.423
 4245POPC   GL155861   5.947  11.342   5.780
 4245POPC   GL255862   5.656  11.160   5.851
 4245POPC   C1A55863   6.065  11.437   6.203
 4245POPC   D2A55864   5.908  11.273   6.592
 4245POPC   C3A55865   5.899  11.409   7.030
 4245POPC   C4A55866   6.005  11.176   7.426
 4245POPC   C1B55867   5.470  11.204   6.291
 4245POPC   C2B55868   5.423  11.322   6.742
 4245POPC   C3B55869   5.325  11.610   7.108
 4245POPC   C4B55870   5.564  11.439   7.429
 4246POPC   NC355871  16.021   7.910   5.339
 4246POPC   PO455872  15.855   7.230   5.450
 4246POPC   GL155873  15.981   7.366   5.848
 4246POPC   GL255874  15.991   7.727   5.820
 4246POPC   C1A55875  15.900   7.473   6.293
 4246POPC   D2A55876  15.579   7.318   6.577
 4246POPC   C3A55877  15.714   7.187   6.965
 4246POPC   C4A55878  15.911   7.006   7.295
 4246POPC   C1B55879  16.328   7.702   6.106
 4246POPC   C2B55880  16.355   7.879   6.506
 4246POPC   C3B55881  16.067   7.905   6.862
 4246POPC   C4B55882  16.002   7.563   7.130
 4247POPC   NC355883   4.887  41.380   5.282
 4247POPC   PO455884   4.231  41.643   5.188
 4247POPC   GL155885   4.446  41.511   5.577
 4247POPC   GL255886   4.297  41.191   5.680
 4247POPC   C1A55887   4.441  41.572   6.044
 4247POPC   D2A55888   4.412  41.858   6.433
 4247POPC   C3A55889   4.319  41.689   6.874
 4247POPC   C4A55890   4.431  41.497   7.280
 4247POPC   C1B55891   4.096  41.198   6.136
 4247POPC   C2B55892   4.120  41.261   6.617
 4247POPC   C3B55893   4.117  41.112   7.075
 4247POPC   C4B55894   4.106  41.121   7.553
 4248POPC   NC355895  14.006   0.879   5.238
 4248POPC   PO455896  13.437   0.691   5.401
 4248POPC   GL155897  13.621   0.632   5.847
 4248POPC   GL255898  13.828   0.346   5.945
 4248POPC   C1A55899  13.665   0.704   6.317
 4248POPC   D2A55900  13.430   0.732   6.718
 4248POPC   C3A55901  13.650   0.751   7.105
 4248POPC   C4A55902  13.959   0.810   7.416
 4248POPC   C1B55903  13.988   0.303   6.388
 4248POPC   C2B55904  13.796   0.352   6.808
 4248POPC   C3B55905  13.959   0.326   7.242
 4248POPC   C4B55906  13.981   0.331   7.724
 4249POPC   NC355907  23.521   2.805   5.391
 4249POPC   PO455908  23.868   2.242   5.389
 4249POPC   GL155909  23.958   2.138   5.837
 4249POPC   GL255910  23.737   1.871   5.992
 4249POPC   C1A55911  23.983   2.151   6.318
 4249POPC   D2A55912  23.989   1.814   6.596
 4249POPC   C3A55913  24.060   1.802   7.027
 4249POPC   C4A55914  23.901   2.116   7.290
 4249POPC   C1B55915  23.521   1.916   6.407
 4249POPC   C2B55916  23.173   1.990   6.707
 4249POPC   C3B55917  23.130   1.998   7.169
 4249POPC   C4B55918  23.126   1.714   7.512
 4250POPC   NC355919  22.694  19.820   5.526
 4250POPC   PO455920  22.025  19.649   5.430
 4250POPC   GL155921  22.013  19.735   5.818
 4250POPC   GL255922  22.330  19.588   5.828
 4250POPC   C1A55923  22.007  19.942   6.200
 4250POPC   D2A55924  21.786  19.891   6.561
 4250POPC   C3A55925  21.980  19.924   6.954
 4250POPC   C4A55926  21.784  19.930   7.358
 4250POPC   C1B55927  22.479  19.789   6.182
 4250POPC   C2B55928  22.450  19.711   6.613
 4250POPC   C3B55929  22.488  19.898   7.002
 4250POPC   C4B55930  22.278  19.780   7.362
 4251POPC   NC355931  37.403  10.785   5.440
 4251POPC   PO455932  37.947  10.362   5.406
 4251POPC   GL155933  37.654  10.441   5.747
 4251POPC   GL255934  37.889  10.399   6.021
 4251POPC   C1A55935  37.486  10.676   6.131
 4251POPC   D2A55936  37.397  10.516   6.553
 4251POPC   C3A55937  37.676  10.562   6.875
 4251POPC   C4A55938  37.426  10.636   7.257
 4251POPC   C1B55939  37.485  10.146   6.169
 4251POPC   C2B55940  37.353   9.991   6.621
 4251POPC   C3B55941  37.530  10.120   7.055
 4251POPC   C4B55942  37.844  10.337   7.319
 4252POPC   NC355943  23.687   1.822   5.466
 4252POPC   PO455944  23.609   1.289   5.387
 4252POPC   GL155945  23.612   1.399   5.792
 4252POPC   GL255946  23.950   1.460   5.806
 4252POPC   C1A55947  23.536   1.297   6.217
 4252POPC   D2A55948  23.634   1.461   6.619
 4252POPC   C3A55949  23.681   1.268   7.025
 4252POPC   C4A55950  23.872   1.204   7.433
 4252POPC   C1B55951  24.022   1.425   6.271
 4252POPC   C2B55952  24.128   1.364   6.746
 4252POPC   C3B55953  24.279   1.318   7.153
 4252POPC   C4B55954  24.357   1.293   7.604
 4253POPC   NC355955  19.758   3.786   5.426
 4253POPC   PO455956  19.894   3.159   5.435
 4253POPC   GL155957  19.973   3.365   5.831
 4253POPC   GL255958  19.990   3.709   5.868
 4253POPC   C1A55959  19.798   3.402   6.258
 4253POPC   D2A55960  19.948   3.341   6.671
 4253POPC   C3A55961  19.688   3.473   7.024
 4253POPC   C4A55962  19.733   3.648   7.454
 4253POPC   C1B55963  20.027   3.864   6.287
 4253POPC   C2B55964  19.852   3.838   6.695
 4253POPC   C3B55965  20.079   3.784   7.092
 4253POPC   C4B55966  20.200   3.846   7.513
 4254POPC   NC355967  43.617  11.420   5.238
 4254POPC   PO455968  44.048  10.970   5.532
 4254POPC   GL155969  43.825  11.193   5.863
 4254POPC   GL255970  43.687  11.520   5.763
 4254POPC   C1A55971  43.836  11.208   6.312
 4254POPC   D2A55972  43.591  11.051   6.626
 4254POPC   C3A55973  43.752  11.028   7.004
 4254POPC   C4A55974  44.185  10.921   7.038
 4254POPC   C1B55975  43.558  11.624   6.193
 4254POPC   C2B55976  43.693  11.585   6.624
 4254POPC   C3B55977  44.029  11.420   6.876
 4254POPC   C4B55978  43.693  11.504   7.155
 4255POPC   NC355979  31.985  24.743   5.623
 4255POPC   PO455980  32.422  25.162   5.376
 4255POPC   GL155981  32.339  25.108   5.762
 4255POPC   GL255982  32.675  24.987   5.818
 4255POPC   C1A55983  32.098  25.262   6.140
 4255POPC   D2A55984  31.899  25.307   6.557
 4255POPC   C3A55985  32.129  25.435   6.938
 4255POPC   C4A55986  32.159  25.185   7.303
 4255POPC   C1B55987  32.620  25.282   6.156
 4255POPC   C2B55988  32.448  25.174   6.556
 4255POPC   C3B55989  32.605  25.227   6.959
 4255POPC   C4B55990  32.535  25.530   7.280
 4256POPC   NC355991  40.699  37.171   5.418
 4256POPC   PO455992  41.220  36.776   5.489
 4256POPC   GL155993  40.987  36.962   5.857
 4256POPC   GL255994  40.625  37.022   5.885
 4256POPC   C1A55995  40.825  36.785   6.276
 4256POPC   D2A55996  40.808  36.927   6.689
 4256POPC   C3A55997  40.757  36.591   6.997
 4256POPC   C4A55998  40.406  36.484   7.243
 4256POPC   C1B55999  40.658  37.280   6.266
 4256POPC   C2B56000  40.559  37.395   6.694
 4256POPC   C3B56001  40.787  37.292   7.049
 4256POPC   C4B56002  40.680  36.963   7.327
 4257POPC   NC356003  19.343  40.572   5.499
 4257POPC   PO456004  18.916  40.967   5.172
 4257POPC   GL156005  18.974  40.906   5.644
 4257POPC   GL256006  19.156  41.170   5.791
 4257POPC   C1A56007  19.047  40.684   6.072
 4257POPC   D2A56008  18.969  40.765   6.532
 4257POPC   C3A56009  18.992  40.645   6.989
 4257POPC   C4A56010  18.824  40.811   7.406
 4257POPC   C1B56011  19.259  41.110   6.259
 4257POPC   C2B56012  19.323  41.095   6.721
 4257POPC   C3B56013  19.204  41.077   7.162
 4257POPC   C4B56014  19.301  41.293   7.537
 4258POPC   NC356015  20.045  30.391   5.490
 4258POPC   PO456016  19.764  30.974   5.485
 4258POPC   GL156017  19.808  30.750   5.810
 4258POPC   GL256018  19.604  30.470   5.743
 4258POPC   C1A56019  19.722  30.872   6.211
 4258POPC   D2A56020  19.915  30.888   6.574
 4258POPC   C3A56021  19.707  30.978   6.931
 4258POPC   C4A56022  19.984  30.702   7.163
 4258POPC   C1B56023  19.801  30.355   6.149
 4258POPC   C2B56024  19.715  30.412   6.595
 4258POPC   C3B56025  19.603  30.440   7.025
 4258POPC   C4B56026  19.872  30.258   7.395
 4259POPC   NC356027  14.421  25.592   5.363
 4259POPC   PO456028  14.241  24.963   5.528
 4259POPC   GL156029  14.389  25.137   5.870
 4259POPC   GL256030  14.677  25.322   5.764
 4259POPC   C1A56031  14.269  25.194   6.305
 4259POPC   D2A56032  14.233  25.487   6.670
 4259POPC   C3A56033  14.258  25.260   7.053
 4259POPC   C4A56034  14.075  24.869   7.129
 4259POPC   C1B56035  14.778  25.127   6.194
 4259POPC   C2B56036  14.647  25.055   6.632
 4259POPC   C3B56037  14.810  25.010   7.026
 4259POPC   C4B56038  14.622  25.137   7.404
 4260POPC   NC356039  43.884  19.275   5.325
 4260POPC   PO456040  43.731  18.643   5.578
 4260POPC   GL156041  43.974  18.770   5.930
 4260POPC   GL256042  44.015  19.132   5.915
 4260POPC   C1A56043  43.788  18.904   6.341
 4260POPC   D2A56044  43.846  18.915   6.792
 4260POPC   C3A56045  43.662  19.179   7.076
 4260POPC   C4A56046  43.908  19.198   7.432
 4260POPC   C1B56047  43.960  19.404   6.282
 4260POPC   C2B56048  43.964  19.442   6.738
 4260POPC   C3B56049  44.085  19.568   7.147
 4260POPC   C4B56050  44.290  19.511   7.570
 4261POPC   NC356051  11.024  19.579   5.595
 4261POPC   PO456052  11.335  20.093   5.321
 4261POPC   GL156053  11.448  19.869   5.734
 4261POPC   GL256054  11.144  19.975   5.917
 4261POPC   C1A56055  11.473  19.729   6.191
 4261POPC   D2A56056  11.285  20.084   6.443
 4261POPC   C3A56057  11.351  20.059   6.882
 4261POPC   C4A56058  11.522  19.744   7.156
 4261POPC   C1B56059  10.984  19.678   6.250
 4261POPC   C2B56060  11.181  19.607   6.654
 4261POPC   C3B56061  11.020  19.674   7.047
 4261POPC   C4B56062  10.871  20.005   7.234
 4262POPC   NC356063   9.007  24.417   5.482
 4262POPC   PO456064   8.353  24.705   5.325
 4262POPC   GL156065   8.596  24.578   5.757
 4262POPC   GL256066   8.903  24.724   5.925
 4262POPC   C1A56067   8.789  24.251   6.113
 4262POPC   D2A56068   9.054  24.196   6.523
 4262POPC   C3A56069   9.003  24.579   6.822
 4262POPC   C4A56070   8.716  24.639   7.201
 4262POPC   C1B56071   9.245  24.534   6.167
 4262POPC   C2B56072   9.472  24.496   6.556
 4262POPC   C3B56073   9.436  24.364   6.987
 4262POPC   C4B56074   9.409  24.591   7.396
 4263POPC   NC356075   0.165  18.511   5.327
 4263POPC   PO456076   0.815  18.486   5.273
 4263POPC   GL156077   0.491  18.355   5.684
 4263POPC   GL256078   0.192  18.538   5.813
 4263POPC   C1A56079   0.319  18.140   6.114
 4263POPC   D2A56080   0.354  18.205   6.576
 4263POPC   C3A56081   0.493  18.037   6.974
 4263POPC   C4A56082   0.881  17.937   7.213
 4263POPC   C1B56083   0.042  18.616   6.170
 4263POPC   C2B56084   0.084  18.635   6.569
 4263POPC   C3B56085   0.049  18.438   6.966
 4263POPC   C4B56086   0.324  18.384   7.305
 4264POPC   NC356087  11.560   9.468   5.247
 4264POPC   PO456088  11.073   9.803   5.501
 4264POPC   GL156089  11.269   9.642   5.898
 4264POPC   GL256090  11.565   9.442   5.775
 4264POPC   C1A56091  11.217   9.864   6.322
 4264POPC   D2A56092  11.174   9.973   6.786
 4264POPC   C3A56093  11.218   9.570   7.052
 4264POPC   C4A56094  11.259   9.490   7.518
 4264POPC   C1B56095  11.724   9.634   6.165
 4264POPC   C2B56096  11.604   9.674   6.607
 4264POPC   C3B56097  11.623   9.900   6.999
 4264POPC   C4B56098  11.707   9.619   7.326
 4265POPC   NC356099  30.329  20.638   5.317
 4265POPC   PO456100  30.917  20.869   5.508
 4265POPC   GL156101  30.553  20.783   5.763
 4265POPC   GL256102  30.644  20.448   5.758
 4265POPC   C1A56103  30.361  20.720   6.177
 4265POPC   D2A56104  30.562  20.740   6.569
 4265POPC   C3A56105  30.460  20.886   6.981
 4265POPC   C4A56106  30.766  21.022   7.249
 4265POPC   C1B56107  30.868  20.556   6.150
 4265POPC   C2B56108  30.896  20.349   6.543
 4265POPC   C3B56109  30.740  20.424   6.930
 4265POPC   C4B56110  30.862  20.537   7.287
 4266POPC   NC356111  42.164  41.270   5.372
 4266POPC   PO456112  42.596  41.686   5.330
 4266POPC   GL156113  42.391  41.553   5.722
 4266POPC   GL256114  42.653  41.502   5.860
 4266POPC   C1A56115  42.253  41.331   6.133
 4266POPC   D2A56116  42.144  41.537   6.536
 4266POPC   C3A56117  42.205  41.450   6.974
 4266POPC   C4A56118  42.319  41.470   7.414
 4266POPC   C1B56119  42.625  41.723   6.206
 4266POPC   C2B56120  42.430  41.969   6.501
 4266POPC   C3B56121  42.518  41.869   6.887
 4266POPC   C4B56122  42.720  41.908   7.258
 4267POPC   NC356123  16.281   2.385   5.505
 4267POPC   PO456124  15.946   1.852   5.302
 4267POPC   GL156125  16.099   1.933   5.716
 4267POPC   GL256126  16.161   1.606   5.858
 4267POPC   C1A56127  15.937   2.064   6.097
 4267POPC   D2A56128  15.945   2.280   6.457
 4267POPC   C3A56129  15.835   2.188   6.865
 4267POPC   C4A56130  16.116   2.070   7.169
 4267POPC   C1B56131  16.230   1.673   6.301
 4267POPC   C2B56132  16.309   1.842   6.720
 4267POPC   C3B56133  16.384   1.663   7.139
 4267POPC   C4B56134  16.107   1.475   7.444
 4268POPC   NC356135   1.057   6.819   5.418
 4268POPC   PO456136   1.007   6.162   5.575
 4268POPC   GL156137   1.206   6.491   5.822
 4268POPC   GL256138   1.369   6.828   5.862
 4268POPC   C1A56139   1.424   6.441   6.205
 4268POPC   D2A56140   1.325   6.636   6.589
 4268POPC   C3A56141   1.240   6.436   7.001
 4268POPC   C4A56142   1.170   6.346   7.467
 4268POPC   C1B56143   1.269   7.074   6.223
 4268POPC   C2B56144   0.977   7.095   6.560
 4268POPC   C3B56145   1.183   6.961   6.945
 4268POPC   C4B56146   1.246   6.840   7.360
 4269POPC   NC356147  34.794   6.843   5.191
 4269POPC   PO456148  34.586   7.496   5.347
 4269POPC   GL156149  34.417   7.407   5.738
 4269POPC   GL256150  34.465   7.723   5.852
 4269POPC   C1A56151  34.586   7.288   6.156
 4269POPC   D2A56152  34.904   7.402   6.455
 4269POPC   C3A56153  34.732   7.298   6.830
 4269POPC   C4A56154  34.651   7.178   7.224
 4269POPC   C1B56155  34.645   7.828   6.264
 4269POPC   C2B56156  34.753   7.820   6.711
 4269POPC   C3B56157  34.748   7.685   7.158
 4269POPC   C4B56158  34.756   7.927   7.530
 4270POPC   NC356159  41.831  22.531   5.556
 4270POPC   PO456160  41.603  21.836   5.518
 4270POPC   GL156161  41.870  22.053   5.865
 4270POPC   GL256162  41.631  22.324   5.968
 4270POPC   C1A56163  41.832  22.060   6.362
 4270POPC   D2A56164  41.733  22.237   6.770
 4270POPC   C3A56165  41.716  22.019   7.174
 4270POPC   C4A56166  41.340  21.756   7.288
 4270POPC   C1B56167  41.685  22.561   6.347
 4270POPC   C2B56168  41.682  22.736   6.777
 4270POPC   C3B56169  41.795  22.567   7.214
 4270POPC   C4B56170  41.844  22.349   7.641
 4271POPC   NC356171  37.798  16.350   5.102
 4271POPC   PO456172  37.595  16.888   5.473
 4271POPC   GL156173  37.656  16.854   5.942
 4271POPC   GL256174  37.542  16.527   6.089
 4271POPC   C1A56175  37.713  16.961   6.390
 4271POPC   D2A56176  37.695  17.214   6.785
 4271POPC   C3A56177  37.540  16.956   7.127
 4271POPC   C4A56178  37.412  16.513   7.096
 4271POPC   C1B56179  37.994  16.535   6.181
 4271POPC   C2B56180  38.154  16.611   6.554
 4271POPC   C3B56181  37.912  16.636   6.930
 4271POPC   C4B56182  37.949  16.504   7.348
 4272POPC   NC356183  30.000  27.871   5.472
 4272POPC   PO456184  30.192  27.298   5.421
 4272POPC   GL156185  30.239  27.519   5.814
 4272POPC   GL256186  29.888  27.626   5.902
 4272POPC   C1A56187  30.178  27.448   6.263
 4272POPC   D2A56188  29.805  27.461   6.528
 4272POPC   C3A56189  30.006  27.290   6.886
 4272POPC   C4A56190  30.200  27.478   7.261
 4272POPC   C1B56191  29.712  27.944   6.185
 4272POPC   C2B56192  29.666  28.051   6.612
 4272POPC   C3B56193  29.861  27.961   6.992
 4272POPC   C4B56194  29.673  28.022   7.354
 4273POPC   NC356195  18.624  40.005   5.311
 4273POPC   PO456196  18.061  39.742   5.482
 4273POPC   GL156197  18.094  39.988   5.794
 4273POPC   GL256198  18.419  40.126   5.792
 4273POPC   C1A56199  18.240  39.790   6.167
 4273POPC   D2A56200  18.064  39.640   6.538
 4273POPC   C3A56201  18.278  39.678   6.917
 4273POPC   C4A56202  18.184  39.522   7.304
 4273POPC   C1B56203  18.182  40.297   6.178
 4273POPC   C2B56204  18.258  40.123   6.589
 4273POPC   C3B56205  18.213  40.186   7.041
 4273POPC   C4B56206  18.423  39.980   7.374
 4274POPC   NC356207  14.147   5.019   5.591
 4274POPC   PO456208  14.570   5.537   5.378
 4274POPC   GL156209  14.576   5.269   5.784
 4274POPC   GL256210  14.629   4.899   5.756
 4274POPC   C1A56211  14.540   5.249   6.253
 4274POPC   D2A56212  14.518   5.603   6.589
 4274POPC   C3A56213  14.376   5.431   6.983
 4274POPC   C4A56214  14.366   5.202   7.366
 4274POPC   C1B56215  14.516   4.700   6.166
 4274POPC   C2B56216  14.690   4.769   6.593
 4274POPC   C3B56217  14.516   4.898   6.983
 4274POPC   C4B56218  14.094   4.770   7.146
 4275POPC   NC356219  22.342  40.373   5.322
 4275POPC   PO456220  22.030  41.050   5.359
 4275POPC   GL156221  22.103  40.743   5.699
 4275POPC   GL256222  21.836  40.511   5.720
 4275POPC   C1A56223  22.154  40.644   6.153
 4275POPC   D2A56224  22.226  40.794   6.580
 4275POPC   C3A56225  22.311  40.701   7.020
 4275POPC   C4A56226  22.458  41.028   7.290
 4275POPC   C1B56227  21.634  40.476   6.112
 4275POPC   C2B56228  21.752  40.651   6.503
 4275POPC   C3B56229  21.835  40.513   6.936
 4275POPC   C4B56230  21.892  40.597   7.386
 4276POPC   NC356231  38.168  36.046   5.478
 4276POPC   PO456232  38.828  36.329   5.357
 4276POPC   GL156233  38.576  36.264   5.710
 4276POPC   GL256234  38.342  36.428   5.877
 4276POPC   C1A56235  38.676  36.197   6.152
 4276POPC   D2A56236  38.412  36.335   6.475
 4276POPC   C3A56237  38.476  36.073   6.805
 4276POPC   C4A56238  38.664  36.138   7.186
 4276POPC   C1B56239  38.204  36.032   6.110
 4276POPC   C2B56240  38.022  35.961   6.487
 4276POPC   C3B56241  37.978  36.212   6.836
 4276POPC   C4B56242  38.152  36.054   7.204
 4277POPC   NC356243  19.141   6.342   5.367
 4277POPC   PO456244  18.983   6.929   5.563
 4277POPC   GL156245  18.909   6.518   5.811
 4277POPC   GL256246  19.254   6.448   5.864
 4277POPC   C1A56247  18.850   6.333   6.251
 4277POPC   D2A56248  19.079   6.381   6.685
 4277POPC   C3A56249  18.883   6.520   7.094
 4277POPC   C4A56250  18.612   6.271   7.385
 4277POPC   C1B56251  19.202   6.708   6.243
 4277POPC   C2B56252  19.090   6.920   6.636
 4277POPC   C3B56253  19.285   6.831   7.013
 4277POPC   C4B56254  19.400   6.389   7.128
 4278POPC   NC356255  43.606  39.746   5.044
 4278POPC   PO456256  43.855  40.174   5.451
 4278POPC   GL156257  43.952  40.049   5.841
 4278POPC   GL256258  44.156  39.785   5.830
 4278POPC   C1A56259  43.742  40.053   6.237
 4278POPC   D2A56260  43.484  39.904   6.542
 4278POPC   C3A56261  43.619  40.115   6.916
 4278POPC   C4A56262  43.630  39.944   7.311
 4278POPC   C1B56263  44.241  39.998   6.255
 4278POPC   C2B56264  44.072  40.152   6.658
 4278POPC   C3B56265  44.106  39.959   7.090
 4278POPC   C4B56266  44.087  40.014   7.553
 4279POPC   NC356267  21.772  15.509   5.432
 4279POPC   PO456268  22.283  15.066   5.444
 4279POPC   GL156269  22.372  15.279   5.814
 4279POPC   GL256270  22.588  15.557   5.759
 4279POPC   C1A56271  22.167  15.290   6.228
 4279POPC   D2A56272  22.048  15.415   6.665
 4279POPC   C3A56273  22.191  15.134   6.988
 4279POPC   C4A56274  21.969  14.798   7.161
 4279POPC   C1B56275  22.562  15.631   6.226
 4279POPC   C2B56276  22.431  15.758   6.666
 4279POPC   C3B56277  22.495  15.541   7.069
 4279POPC   C4B56278  22.496  15.509   7.526
 4280POPC   NC356279  23.259  15.224   4.968
 4280POPC   PO456280  23.895  15.188   5.358
 4280POPC   GL156281  23.728  15.121   5.809
 4280POPC   GL256282  23.491  14.879   5.880
 4280POPC   C1A56283  23.563  15.217   6.248
 4280POPC   D2A56284  23.695  15.082   6.661
 4280POPC   C3A56285  23.548  15.326   7.008
 4280POPC   C4A56286  23.676  15.258   7.488
 4280POPC   C1B56287  23.803  14.714   6.201
 4280POPC   C2B56288  23.936  14.537   6.610
 4280POPC   C3B56289  23.962  14.767   6.984
 4280POPC   C4B56290  23.596  14.867   7.180
 4281POPC   NC356291   7.770  43.054   5.429
 4281POPC   PO456292   7.172  43.390   5.474
 4281POPC   GL156293   7.372  43.123   5.812
 4281POPC   GL256294   7.587  42.822   5.858
 4281POPC   C1A56295   7.548  43.177   6.234
 4281POPC   D2A56296   7.654  43.061   6.653
 4281POPC   C3A56297   7.371  43.176   6.971
 4281POPC   C4A56298   7.294  43.086   7.390
 4281POPC   C1B56299   7.597  42.653   6.286
 4281POPC   C2B56300   7.765  42.553   6.700
 4281POPC   C3B56301   7.594  42.717   7.072
 4281POPC   C4B56302   7.768  43.013   7.315
 4282POPC   NC356303   8.637  33.921   5.439
 4282POPC   PO456304   9.199  33.536   5.303
 4282POPC   GL156305   9.118  33.820   5.677
 4282POPC   GL256306   8.835  33.671   5.834
 4282POPC   C1A56307   9.119  33.932   6.160
 4282POPC   D2A56308   9.235  34.131   6.570
 4282POPC   C3A56309   9.132  33.928   6.967
 4282POPC   C4A56310   8.939  34.151   7.334
 4282POPC   C1B56311   8.723  33.468   6.210
 4282POPC   C2B56312   8.703  33.291   6.617
 4282POPC   C3B56313   8.519  33.465   6.933
 4282POPC   C4B56314   8.665  33.766   7.159
 4283POPC   NC356315  11.321  36.523   5.509
 4283POPC   PO456316  11.390  37.199   5.452
 4283POPC   GL156317  11.401  36.965   5.817
 4283POPC   GL256318  11.057  36.996   5.855
 4283POPC   C1A56319  11.312  36.773   6.238
 4283POPC   D2A56320  11.158  36.637   6.620
 4283POPC   C3A56321  11.398  36.725   6.978
 4283POPC   C4A56322  11.557  37.111   7.113
 4283POPC   C1B56323  10.853  37.090   6.245
 4283POPC   C2B56324  10.618  37.168   6.628
 4283POPC   C3B56325  10.713  36.984   7.026
 4283POPC   C4B56326  11.057  36.949   7.273
 4284POPC   NC356327  24.204  23.211   5.515
 4284POPC   PO456328  24.556  22.665   5.390
 4284POPC   GL156329  24.510  22.870   5.814
 4284POPC   GL256330  24.183  22.797   5.846
 4284POPC   C1A56331  24.652  22.956   6.267
 4284POPC   D2A56332  24.893  22.759   6.612
 4284POPC   C3A56333  24.623  22.686   6.969
 4284POPC   C4A56334  24.481  22.879   7.363
 4284POPC   C1B56335  24.145  22.924   6.276
 4284POPC   C2B56336  24.249  22.798   6.634
 4284POPC   C3B56337  24.173  22.956   6.981
 4284POPC   C4B56338  24.176  23.306   7.189
 4285POPC   NC356339   5.310   1.674   5.485
 4285POPC   PO456340   5.177   2.373   5.373
 4285POPC   GL156341   5.093   2.183   5.756
 4285POPC   GL256342   4.799   2.396   5.770
 4285POPC   C1A56343   5.191   1.963   6.167
 4285POPC   D2A56344   5.278   2.023   6.621
 4285POPC   C3A56345   5.191   1.787   6.985
 4285POPC   C4A56346   5.268   2.011   7.346
 4285POPC   C1B56347   4.706   2.226   6.197
 4285POPC   C2B56348   4.812   2.290   6.623
 4285POPC   C3B56349   5.005   2.317   7.025
 4285POPC   C4B56350   4.881   2.303   7.473
 4286POPC   NC356351  20.932   2.451   5.406
 4286POPC   PO456352  20.612   1.888   5.443
 4286POPC   GL156353  20.423   1.909   5.822
 4286POPC   GL256354  20.394   1.569   5.802
 4286POPC   C1A56355  20.493   2.080   6.224
 4286POPC   D2A56356  20.714   2.050   6.622
 4286POPC   C3A56357  20.524   2.009   7.040
 4286POPC   C4A56358  20.593   2.205   7.506
 4286POPC   C1B56359  20.608   1.579   6.216
 4286POPC   C2B56360  20.440   1.555   6.656
 4286POPC   C3B56361  20.410   1.514   7.112
 4286POPC   C4B56362  20.758   1.692   7.375
 4287POPC   NC356363   1.292   2.005   5.418
 4287POPC   PO456364   0.722   1.663   5.199
 4287POPC   GL156365   0.839   1.880   5.694
 4287POPC   GL256366   1.225   1.827   5.881
 4287POPC   C1A56367   0.881   1.914   6.207
 4287POPC   D2A56368   1.045   1.766   6.617
 4287POPC   C3A56369   0.983   2.007   7.005
 4287POPC   C4A56370   1.003   1.791   7.406
 4287POPC   C1B56371   1.292   2.206   6.118
 4287POPC   C2B56372   1.272   2.245   6.563
 4287POPC   C3B56373   1.471   2.002   6.878
 4287POPC   C4B56374   1.432   2.020   7.310
 4288POPC   NC356375  28.583   2.714   5.467
 4288POPC   PO456376  28.027   2.948   5.369
 4288POPC   GL156377  28.178   2.861   5.800
 4288POPC   GL256378  28.542   2.926   5.937
 4288POPC   C1A56379  28.135   2.676   6.205
 4288POPC   D2A56380  28.246   2.460   6.590
 4288POPC   C3A56381  28.471   2.664   6.899
 4288POPC   C4A56382  28.504   2.837   7.301
 4288POPC   C1B56383  28.518   2.967   6.407
 4288POPC   C2B56384  28.133   3.006   6.627
 4288POPC   C3B56385  28.051   2.932   7.040
 4288POPC   C4B56386  28.033   2.962   7.479
 4289POPC   NC356387  31.335  20.740   5.371
 4289POPC   PO456388  32.004  20.686   5.405
 4289POPC   GL156389  31.628  20.509   5.738
 4289POPC   GL256390  31.209  20.433   5.773
 4289POPC   C1A56391  31.458  20.678   6.141
 4289POPC   D2A56392  31.240  20.785   6.517
 4289POPC   C3A56393  31.509  20.698   6.870
 4289POPC   C4A56394  31.298  20.773   7.247
 4289POPC   C1B56395  31.252  20.194   6.171
 4289POPC   C2B56396  31.393  20.289   6.584
 4289POPC   C3B56397  31.245  20.290   7.014
 4289POPC   C4B56398  31.472  20.341   7.432
 4290POPC   NC356399  44.870  12.037   5.283
 4290POPC   PO456400  44.333  12.447   5.461
 4290POPC   GL156401  44.489  12.134   5.684
 4290POPC   GL256402  44.809  12.277   5.739
 4290POPC   C1A56403  44.521  12.016   6.124
 4290POPC   D2A56404  44.342  12.177   6.500
 4290POPC   C3A56405  44.567  12.147   6.934
 4290POPC   C4A56406  44.876  11.915   7.226
 4290POPC   C1B56407  44.952  12.332   6.161
 4290POPC   C2B56408   0.004  12.089   6.536
 4290POPC   C3B56409   0.111  12.245   6.947
 4290POPC   C4B56410   0.312  12.192   7.373
 4291POPC   NC356411  37.354  31.256   5.566
 4291POPC   PO456412  37.846  31.630   5.291
 4291POPC   GL156413  37.743  31.537   5.775
 4291POPC   GL256414  37.824  31.183   5.987
 4291POPC   C1A56415  37.457  31.464   6.156
 4291POPC   D2A56416  37.634  31.209   6.495
 4291POPC   C3A56417  37.533  31.351   6.912
 4291POPC   C4A56418  37.342  31.203   7.273
 4291POPC   C1B56419  37.968  31.521   6.235
 4291POPC   C2B56420  38.146  31.550   6.619
 4291POPC   C3B56421  38.058  31.408   7.022
 4291POPC   C4B56422  38.063  31.680   7.350
 4292POPC   NC356423   8.844  42.000   5.338
 4292POPC   PO456424   9.141  42.667   5.352
 4292POPC   GL156425   8.959  42.401   5.675
 4292POPC   GL256426   8.672  42.647   5.711
 4292POPC   C1A56427   8.908  42.251   6.118
 4292POPC   D2A56428   8.999  42.077   6.557
 4292POPC   C3A56429   8.890  42.289   6.955
 4292POPC   C4A56430   9.109  42.209   7.377
 4292POPC   C1B56431   8.934  42.761   6.091
 4292POPC   C2B56432   8.948  42.606   6.530
 4292POPC   C3B56433   9.154  42.769   6.916
 4292POPC   C4B56434   9.264  42.700   7.344
 4293POPC   NC356435  30.563   3.170   5.445
 4293POPC   PO456436  30.946   3.612   5.090
 4293POPC   GL156437  30.936   3.494   5.626
 4293POPC   GL256438  30.727   3.694   5.874
 4293POPC   C1A56439  30.949   3.317   6.111
 4293POPC   D2A56440  30.788   3.526   6.550
 4293POPC   C3A56441  30.869   3.328   7.027
 4293POPC   C4A56442  30.871   3.388   7.537
 4293POPC   C1B56443  30.434   3.401   6.102
 4293POPC   C2B56444  30.309   3.287   6.515
 4293POPC   C3B56445  30.372   3.452   6.932
 4293POPC   C4B56446  30.378   3.324   7.364
 4294POPC   NC356447  16.801  42.439   5.224
 4294POPC   PO456448  16.476  42.850   5.487
 4294POPC   GL156449  16.872  42.652   5.714
 4294POPC   GL256450  16.917  42.279   5.751
 4294POPC   C1A56451  16.954  42.555   6.196
 4294POPC   D2A56452  16.728  42.490   6.618
 4294POPC   C3A56453  16.862  42.698   7.003
 4294POPC   C4A56454  16.743  42.709   7.417
 4294POPC   C1B56455  16.911  42.038   6.179
 4294POPC   C2B56456  16.838  41.987   6.653
 4294POPC   C3B56457  16.778  42.113   7.119
 4294POPC   C4B56458  16.683  41.805   7.473
 4295POPC   NC356459  42.752  16.690   5.597
 4295POPC   PO456460  43.214  16.200   5.427
 4295POPC   GL156461  43.124  16.451   5.819
 4295POPC   GL256462  43.252  16.786   5.827
 4295POPC   C1A56463  42.998  16.647   6.248
 4295POPC   D2A56464  43.118  16.866   6.653
 4295POPC   C3A56465  42.807  16.764   6.991
 4295POPC   C4A56466  42.803  16.725   7.463
 4295POPC   C1B56467  43.483  16.813   6.217
 4295POPC   C2B56468  43.614  16.680   6.622
 4295POPC   C3B56469  43.469  16.684   7.021
 4295POPC   C4B56470  43.187  16.998   7.226
 4296POPC   NC356471  16.814   3.817   5.483
 4296POPC   PO456472  16.837   4.494   5.306
 4296POPC   GL156473  16.894   4.386   5.746
 4296POPC   GL256474  17.128   4.100   5.815
 4296POPC   C1A56475  17.052   4.486   6.168
 4296POPC   D2A56476  16.805   4.391   6.540
 4296POPC   C3A56477  16.803   4.621   6.920
 4296POPC   C4A56478  16.606   4.493   7.300
 4296POPC   C1B56479  16.777   4.039   6.126
 4296POPC   C2B56480  16.608   3.910   6.524
 4296POPC   C3B56481  16.658   4.099   6.958
 4296POPC   C4B56482  16.673   4.009   7.418
 4297POPC   NC356483  10.981  23.644   5.603
 4297POPC   PO456484  11.480  24.071   5.442
 4297POPC   GL156485  11.430  23.769   5.777
 4297POPC   GL256486  11.620  23.474   5.736
 4297POPC   C1A56487  11.217  23.662   6.195
 4297POPC   D2A56488  11.107  23.892   6.564
 4297POPC   C3A56489  11.104  23.638   6.926
 4297POPC   C4A56490  11.123  23.834   7.301
 4297POPC   C1B56491  11.726  23.642   6.161
 4297POPC   C2B56492  11.577  23.605   6.575
 4297POPC   C3B56493  11.726  23.510   6.966
 4297POPC   C4B56494  11.492  23.497   7.316
 4298POPC   NC356495  34.695  39.112   5.370
 4298POPC   PO456496  34.015  39.128   5.447
 4298POPC   GL156497  34.376  39.013   5.775
 4298POPC   GL256498  34.770  38.976   5.839
 4298POPC   C1A56499  34.454  39.244   6.160
 4298POPC   D2A56500  34.578  39.492   6.515
 4298POPC   C3A56501  34.417  39.335   6.931
 4298POPC   C4A56502  34.613  39.458   7.336
 4298POPC   C1B56503  34.649  38.774   6.213
 4298POPC   C2B56504  34.640  38.973   6.578
 4298POPC   C3B56505  34.655  38.820   6.960
 4298POPC   C4B56506  34.466  38.977   7.324
 4299POPC   NC356507  44.307  22.462   5.557
 4299POPC   PO456508  44.919  22.425   5.273
 4299POPC   GL156509  44.789  22.264   5.683
 4299POPC   GL256510  44.545  21.974   5.693
 4299POPC   C1A56511  44.904  22.042   6.073
 4299POPC   D2A56512  44.969  21.926   6.500
 4299POPC   C3A56513  44.783  22.153   6.792
 4299POPC   C4A56514  44.923  22.133   7.175
 4299POPC   C1B56515  44.329  21.834   6.079
 4299POPC   C2B56516  44.408  21.865   6.538
 4299POPC   C3B56517  44.317  22.040   6.976
 4299POPC   C4B56518  44.137  22.352   7.306
 4300POPC   NC356519  37.073   9.159   5.481
 4300POPC   PO456520  36.647   8.680   5.574
 4300POPC   GL156521  36.882   8.686   5.916
 4300POPC   GL256522  37.196   8.839   5.892
 4300POPC   C1A56523  36.866   8.936   6.295
 4300POPC   D2A56524  36.653   9.182   6.608
 4300POPC   C3A56525  36.685   9.017   7.048
 4300POPC   C4A56526  36.915   8.661   7.189
 4300POPC   C1B56527  37.395   9.066   6.268
 4300POPC   C2B56528  37.395   9.323   6.660
 4300POPC   C3B56529  37.169   9.213   7.015
 4300POPC   C4B56530  37.378   8.920   7.224
 4301POPC   NC356531   9.132  20.139   5.466
 4301POPC   PO456532   8.585  19.671   5.300
 4301POPC   GL156533   8.649  19.718   5.778
 4301POPC   GL256534   9.006  19.794   5.850
 4301POPC   C1A56535   8.696  19.582   6.233
 4301POPC   D2A56536   8.846  19.797   6.605
 4301POPC   C3A56537   8.692  19.800   7.038
 4301POPC   C4A56538   8.805  19.653   7.439
 4301POPC   C1B56539   9.246  19.980   6.191
 4301POPC   C2B56540   9.374  20.115   6.608
 4301POPC   C3B56541   9.188  19.996   6.996
 4301POPC   C4B56542   9.286  19.787   7.382
 4302POPC   NC356543  21.414   0.746   5.327
 4302POPC   PO456544  21.270   1.267   5.470
 4302POPC   GL156545  21.347   1.153   5.929
 4302POPC   GL256546  21.096   1.343   6.117
 4302POPC   C1A56547  21.242   0.914   6.335
 4302POPC   D2A56548  21.309   0.879   6.773
 4302POPC   C3A56549  21.440   1.264   7.003
 4302POPC   C4A56550  21.741   1.307   7.325
 4302POPC   C1B56551  21.399   1.367   6.498
 4302POPC   C2B56552  21.807   1.523   6.741
 4302POPC   C3B56553  21.712   1.757   7.111
 4302POPC   C4B56554  21.303   1.694   7.337
 4303POPC   NC356555  21.121  38.025   5.371
 4303POPC   PO456556  21.086  38.762   5.437
 4303POPC   GL156557  21.343  38.438   5.698
 4303POPC   GL256558  21.167  38.173   5.874
 4303POPC   C1A56559  21.608  38.321   6.091
 4303POPC   D2A56560  21.616  38.548   6.496
 4303POPC   C3A56561  21.483  38.402   6.901
 4303POPC   C4A56562  21.493  38.632   7.288
 4303POPC   C1B56563  21.141  38.452   6.261
 4303POPC   C2B56564  20.905  38.461   6.647
 4303POPC   C3B56565  20.984  38.441   7.087
 4303POPC   C4B56566  21.200  38.103   7.249
 4304POPC   NC356567  11.611  12.794   5.470
 4304POPC   PO456568  10.972  12.552   5.313
 4304POPC   GL156569  11.058  12.622   5.765
 4304POPC   GL256570  11.230  12.931   5.806
 4304POPC   C1A56571  11.004  12.715   6.252
 4304POPC   D2A56572  11.110  13.051   6.570
 4304POPC   C3A56573  11.038  12.932   7.005
 4304POPC   C4A56574  11.013  12.468   7.053
 4304POPC   C1B56575  11.481  12.665   6.101
 4304POPC   C2B56576  11.570  12.741   6.536
 4304POPC   C3B56577  11.595  12.933   6.932
 4304POPC   C4B56578  11.432  12.721   7.265
 4305POPC   NC356579  12.383  14.544   5.535
 4305POPC   PO456580  11.876  14.181   5.313
 4305POPC   GL156581  12.018  14.234   5.739
 4305POPC   GL256582  12.320  14.077   5.786
 4305POPC   C1A56583  12.086  14.351   6.197
 4305POPC   D2A56584  11.964  14.579   6.580
 4305POPC   C3A56585  12.182  14.517   6.971
 4305POPC   C4A56586  12.172  14.417   7.380
 4305POPC   C1B56587  12.373  13.924   6.216
 4305POPC   C2B56588  12.290  14.121   6.629
 4305POPC   C3B56589  12.276  14.026   7.062
 4305POPC   C4B56590  12.358  13.948   7.520
 4306POPC   NC356591  12.478  39.525   5.443
 4306POPC   PO456592  12.143  38.956   5.432
 4306POPC   GL156593  12.146  39.235   5.750
 4306POPC   GL256594  11.884  39.080   5.919
 4306POPC   C1A56595  12.326  39.340   6.154
 4306POPC   D2A56596  12.369  39.318   6.607
 4306POPC   C3A56597  12.028  39.281   6.879
 4306POPC   C4A56598  12.140  39.026   7.182
 4306POPC   C1B56599  11.920  39.121   6.372
 4306POPC   C2B56600  11.655  38.950   6.681
 4306POPC   C3B56601  11.594  39.080   7.095
 4306POPC   C4B56602  11.748  38.968   7.497
 4307POPC   NC356603   9.301   8.428   5.369
 4307POPC   PO456604   8.732   8.067   5.371
 4307POPC   GL156605   8.913   7.994   5.769
 4307POPC   GL256606   9.188   8.191   5.797
 4307POPC   C1A56607   8.818   7.995   6.192
 4307POPC   D2A56608   8.926   8.241   6.550
 4307POPC   C3A56609   8.956   8.037   6.909
 4307POPC   C4A56610   8.822   8.167   7.305
 4307POPC   C1B56611   9.318   8.131   6.199
 4307POPC   C2B56612   9.434   8.360   6.545
 4307POPC   C3B56613   9.420   8.277   6.952
 4307POPC   C4B56614   9.330   8.360   7.375
 4308POPC   NC356615  37.980  14.905   5.611
 4308POPC   PO456616  37.487  15.288   5.517
 4308POPC   GL156617  37.669  15.154   5.909
 4308POPC   GL256618  37.548  14.852   5.877
 4308POPC   C1A56619  37.525  15.169   6.359
 4308POPC   D2A56620  37.217  15.164   6.716
 4308POPC   C3A56621  37.387  15.164   7.172
 4308POPC   C4A56622  37.766  15.356   7.291
 4308POPC   C1B56623  37.831  14.768   6.228
 4308POPC   C2B56624  38.121  14.964   6.522
 4308POPC   C3B56625  37.953  14.952   6.936
 4308POPC   C4B56626  38.097  15.006   7.346
 4309POPC   NC356627  25.922   9.974   5.331
 4309POPC   PO456628  25.388   9.523   5.438
 4309POPC   GL156629  25.815   9.701   5.751
 4309POPC   GL256630  26.148   9.946   5.770
 4309POPC   C1A56631  26.038   9.608   6.154
 4309POPC   D2A56632  25.919   9.381   6.535
 4309POPC   C3A56633  25.984   9.536   6.959
 4309POPC   C4A56634  25.857   9.838   7.276
 4309POPC   C1B56635  26.357  10.008   6.195
 4309POPC   C2B56636  26.144  10.062   6.587
 4309POPC   C3B56637  26.213  10.114   7.024
 4309POPC   C4B56638  26.349   9.756   7.227
 4310POPC   NC356639  35.845   1.846   5.490
 4310POPC   PO456640  36.129   2.389   5.314
 4310POPC   GL156641  36.144   2.221   5.713
 4310POPC   GL256642  36.301   1.887   5.728
 4310POPC   C1A56643  35.906   2.098   6.078
 4310POPC   D2A56644  35.876   2.194   6.493
 4310POPC   C3A56645  36.012   1.828   6.728
 4310POPC   C4A56646  36.250   1.723   7.132
 4310POPC   C1B56647  36.434   2.101   6.126
 4310POPC   C2B56648  36.536   1.984   6.532
 4310POPC   C3B56649  36.364   2.153   6.897
 4310POPC   C4B56650  36.468   2.194   7.287
 4311POPC   NC356651  22.251  17.373   5.236
 4311POPC   PO456652  22.935  17.553   5.402
 4311POPC   GL156653  22.831  17.433   5.796
 4311POPC   GL256654  23.155  17.309   5.837
 4311POPC   C1A56655  22.645  17.388   6.207
 4311POPC   D2A56656  22.403  17.530   6.565
 4311POPC   C3A56657  22.666  17.436   6.893
 4311POPC   C4A56658  22.809  17.590   7.288
 4311POPC   C1B56659  23.100  17.641   6.168
 4311POPC   C2B56660  23.106  17.459   6.583
 4311POPC   C3B56661  23.161  17.339   7.010
 4311POPC   C4B56662  23.264  17.404   7.449
 4312POPC   NC356663  18.087   4.711   5.461
 4312POPC   PO456664  18.476   4.142   5.523
 4312POPC   GL156665  18.239   4.199   5.845
 4312POPC   GL256666  18.301   4.557   5.909
 4312POPC   C1A56667  18.440   4.081   6.220
 4312POPC   D2A56668  18.616   4.070   6.614
 4312POPC   C3A56669  18.333   4.333   6.790
 4312POPC   C4A56670  18.362   4.381   7.197
 4312POPC   C1B56671  18.372   4.651   6.339
 4312POPC   C2B56672  18.053   4.759   6.612
 4312POPC   C3B56673  17.999   4.705   7.035
 4312POPC   C4B56674  18.035   4.635   7.480
 4313POPC   NC356675  37.521  19.394   5.385
 4313POPC   PO456676  37.626  18.680   5.384
 4313POPC   GL156677  37.359  18.997   5.700
 4313POPC   GL256678  37.428  19.363   5.875
 4313POPC   C1A56679  37.232  19.002   6.161
 4313POPC   D2A56680  37.454  18.959   6.561
 4313POPC   C3A56681  37.529  18.846   6.998
 4313POPC   C4A56682  37.695  18.965   7.440
 4313POPC   C1B56683  37.436  19.475   6.314
 4313POPC   C2B56684  37.434  19.444   6.769
 4313POPC   C3B56685  37.666  19.360   7.125
 4313POPC   C4B56686  37.741  19.490   7.556
 4314POPC   NC356687  34.870   2.129   5.688
 4314POPC   PO456688  35.426   2.003   5.372
 4314POPC   GL156689  35.420   1.936   5.798
 4314POPC   GL256690  35.159   1.735   5.902
 4314POPC   C1A56691  35.391   2.079   6.224
 4314POPC   D2A56692  35.339   1.947   6.635
 4314POPC   C3A56693  35.588   2.142   6.901
 4314POPC   C4A56694  35.755   1.873   7.156
 4314POPC   C1B56695  34.930   1.827   6.295
 4314POPC   C2B56696  34.912   2.214   6.567
 4314POPC   C3B56697  35.086   2.347   6.957
 4314POPC   C4B56698  35.222   2.003   7.214
 4315POPC   NC356699  13.358  35.189   5.440
 4315POPC   PO456700  13.893  35.612   5.410
 4315POPC   GL156701  13.628  35.466   5.789
 4315POPC   GL256702  13.633  35.088   5.860
 4315POPC   C1A56703  13.560  35.448   6.247
 4315POPC   D2A56704  13.337  35.311   6.601
 4315POPC   C3A56705  13.487  35.367   6.986
 4315POPC   C4A56706  13.516  35.282   7.368
 4315POPC   C1B56707  13.748  34.952   6.291
 4315POPC   C2B56708  13.832  35.144   6.700
 4315POPC   C3B56709  14.002  35.283   7.123
 4315POPC   C4B56710  14.264  35.639   7.271
 4316POPC   NC356711  28.203  16.653   5.407
 4316POPC   PO456712  28.781  17.028   5.390
 4316POPC   GL156713  28.546  16.922   5.747
 4316POPC   GL256714  28.539  16.581   5.805
 4316POPC   C1A56715  28.383  16.883   6.186
 4316POPC   D2A56716  28.540  16.674   6.553
 4316POPC   C3A56717  28.350  16.788   6.915
 4316POPC   C4A56718  28.506  16.964   7.305
 4316POPC   C1B56719  28.347  16.380   6.160
 4316POPC   C2B56720  28.286  16.235   6.566
 4316POPC   C3B56721  28.517  16.247   6.922
 4316POPC   C4B56722  28.439  16.438   7.281
 4317POPC   NC356723   3.653  39.495   5.134
 4317POPC   PO456724   3.485  40.105   5.417
 4317POPC   GL156725   3.623  40.186   5.803
 4317POPC   GL256726   3.972  40.280   5.783
 4317POPC   C1A56727   3.526  39.994   6.178
 4317POPC   D2A56728   3.708  39.891   6.562
 4317POPC   C3A56729   3.490  39.880   6.947
 4317POPC   C4A56730   3.404  39.610   7.280
 4317POPC   C1B56731   4.022  40.141   6.210
 4317POPC   C2B56732   4.014  40.273   6.639
 4317POPC   C3B56733   3.949  40.110   7.062
 4317POPC   C4B56734   3.787  40.329   7.423
 4318POPC   NC356735  12.893  28.119   5.565
 4318POPC   PO456736  12.899  28.665   5.158
 4318POPC   GL156737  12.791  28.638   5.644
 4318POPC   GL256738  13.041  28.530   5.872
 4318POPC   C1A56739  12.618  28.639   6.136
 4318POPC   D2A56740  12.495  28.489   6.584
 4318POPC   C3A56741  12.791  28.451   6.972
 4318POPC   C4A56742  12.661  28.328   7.424
 4318POPC   C1B56743  12.921  28.224   6.214
 4318POPC   C2B56744  12.803  28.040   6.609
 4318POPC   C3B56745  13.051  28.006   6.958
 4318POPC   C4B56746  13.159  28.241   7.308
 4319POPC   NC356747  30.178  13.853   5.430
 4319POPC   PO456748  29.786  13.279   5.483
 4319POPC   GL156749  29.894  13.430   5.872
 4319POPC   GL256750  29.728  13.757   5.828
 4319POPC   C1A56751  29.833  13.430   6.335
 4319POPC   D2A56752  29.979  13.364   6.788
 4319POPC   C3A56753  29.693  13.358   7.142
 4319POPC   C4A56754  29.762  13.330   7.607
 4319POPC   C1B56755  30.079  13.841   6.128
 4319POPC   C2B56756  30.022  13.849   6.570
 4319POPC   C3B56757  29.752  13.811   6.907
 4319POPC   C4B56758  29.976  13.851   7.287
 4320POPC   NC356759  12.453   1.709   5.329
 4320POPC   PO456760  12.859   2.175   5.004
 4320POPC   GL156761  12.854   2.145   5.541
 4320POPC   GL256762  12.832   1.811   5.729
 4320POPC   C1A56763  12.855   2.200   6.055
 4320POPC   D2A56764  12.931   1.909   6.445
 4320POPC   C3A56765  12.931   2.026   6.888
 4320POPC   C4A56766  13.165   2.093   7.251
 4320POPC   C1B56767  12.568   1.767   6.122
 4320POPC   C2B56768  12.377   1.709   6.561
 4320POPC   C3B56769  12.461   1.762   7.010
 4320POPC   C4B56770  12.594   1.777   7.457
 4321POPC   NC356771  10.852  26.036   5.583
 4321POPC   PO456772  10.296  26.360   5.367
 4321POPC   GL156773  10.302  25.992   5.617
 4321POPC   GL256774  10.472  26.214   5.865
 4321POPC   C1A56775  10.186  25.829   6.047
 4321POPC   D2A56776  10.375  25.923   6.437
 4321POPC   C3A56777  10.292  25.866   6.871
 4321POPC   C4A56778  10.341  25.891   7.317
 4321POPC   C1B56779  10.692  26.299   6.252
 4321POPC   C2B56780  10.596  26.300   6.694
 4321POPC   C3B56781  10.732  26.137   7.063
 4321POPC   C4B56782  10.592  26.314   7.441
 4322POPC   NC356783   6.170  40.154   5.515
 4322POPC   PO456784   6.841  39.700   5.473
 4322POPC   GL156785   6.802  39.938   5.880
 4322POPC   GL256786   6.432  39.855   5.882
 4322POPC   C1A56787   6.785  40.121   6.317
 4322POPC   D2A56788   6.485  40.297   6.623
 4322POPC   C3A56789   6.496  40.192   7.060
 4322POPC   C4A56790   6.885  40.001   7.217
 4322POPC   C1B56791   6.502  39.715   6.311
 4322POPC   C2B56792   6.679  39.798   6.728
 4322POPC   C3B56793   6.497  39.680   7.115
 4322POPC   C4B56794   6.405  39.860   7.514
 4323POPC   NC356795  20.425   5.723   5.487
 4323POPC   PO456796  20.482   6.338   5.605
 4323POPC   GL156797  20.712   6.106   5.952
 4323POPC   GL256798  20.776   5.757   5.863
 4323POPC   C1A56799  20.838   5.839   6.362
 4323POPC   D2A56800  20.831   5.778   6.831
 4323POPC   C3A56801  20.551   6.063   7.103
 4323POPC   C4A56802  20.632   6.334   7.465
 4323POPC   C1B56803  20.545   5.469   6.138
 4323POPC   C2B56804  20.531   5.330   6.538
 4323POPC   C3B56805  20.483   5.425   6.948
 4323POPC   C4B56806  20.658   5.597   7.306
 4324POPC   NC356807  19.945   0.080   5.406
 4324POPC   PO456808  19.729   0.690   5.523
 4324POPC   GL156809  19.721   0.314   5.826
 4324POPC   GL256810  19.896   0.492   6.107
 4324POPC   C1A56811  19.558   0.165   6.272
 4324POPC   D2A56812  19.668  44.982   6.706
 4324POPC   C3A56813  19.915   0.210   7.020
 4324POPC   C4A56814  19.888   0.448   7.395
 4324POPC   C1B56815  20.088   0.237   6.466
 4324POPC   C2B56816  20.377   0.244   6.828
 4324POPC   C3B56817  20.362   0.455   7.242
 4324POPC   C4B56818  20.254   0.679   7.675
 4325POPC   NC356819  34.158  24.355   5.417
 4325POPC   PO456820  34.612  24.789   5.224
 4325POPC   GL156821  34.478  24.671   5.703
 4325POPC   GL256822  34.724  24.490   5.903
 4325POPC   C1A56823  34.350  24.573   6.200
 4325POPC   D2A56824  34.665  24.582   6.572
 4325POPC   C3A56825  34.502  24.691   6.988
 4325POPC   C4A56826  34.303  24.428   7.264
 4325POPC   C1B56827  34.901  24.173   6.176
 4325POPC   C2B56828  34.880  24.086   6.619
 4325POPC   C3B56829  34.848  24.309   6.998
 4325POPC   C4B56830  34.781  24.359   7.425
 4326POPC   NC356831  31.271  22.290   5.495
 4326POPC   PO456832  31.824  21.981   5.541
 4326POPC   GL156833  31.598  22.174   5.863
 4326POPC   GL256834  31.603  22.541   5.870
 4326POPC   C1A56835  31.339  22.257   6.206
 4326POPC   D2A56836  31.435  22.110   6.571
 4326POPC   C3A56837  31.249  22.208   6.928
 4326POPC   C4A56838  31.377  22.058   7.346
 4326POPC   C1B56839  31.764  22.710   6.274
 4326POPC   C2B56840  31.669  22.554   6.714
 4326POPC   C3B56841  31.589  22.495   7.157
 4326POPC   C4B56842  31.806  22.632   7.489
 4327POPC   NC356843  28.363   4.128   5.442
 4327POPC   PO456844  28.291   4.726   5.174
 4327POPC   GL156845  28.293   4.618   5.671
 4327POPC   GL256846  28.603   4.468   5.884
 4327POPC   C1A56847  28.142   4.412   6.082
 4327POPC   D2A56848  28.432   4.305   6.403
 4327POPC   C3A56849  28.248   4.359   6.787
 4327POPC   C4A56850  28.129   4.305   7.212
 4327POPC   C1B56851  28.911   4.306   6.233
 4327POPC   C2B56852  28.885   3.912   6.435
 4327POPC   C3B56853  28.630   3.969   6.756
 4327POPC   C4B56854  28.625   4.249   7.108
 4328POPC   NC356855   3.792  24.931   5.578
 4328POPC   PO456856   3.604  25.466   5.200
 4328POPC   GL156857   3.424  25.365   5.640
 4328POPC   GL256858   3.587  25.217   5.927
 4328POPC   C1A56859   3.276  25.561   6.073
 4328POPC   D2A56860   3.260  25.326   6.476
 4328POPC   C3A56861   3.316  25.520   6.854
 4328POPC   C4A56862   3.338  25.397   7.271
 4328POPC   C1B56863   3.745  25.174   6.323
 4328POPC   C2B56864   3.918  25.160   6.729
 4328POPC   C3B56865   3.817  25.357   7.109
 4328POPC   C4B56866   3.798  25.150   7.487
 4329POPC   NC356867  16.794  32.606   5.397
 4329POPC   PO456868  16.373  32.610   5.958
 4329POPC   GL156869  16.594  32.241   6.044
 4329POPC   GL256870  16.938  32.321   5.912
 4329POPC   C1A56871  16.637  32.035   6.446
 4329POPC   D2A56872  16.949  32.193   6.725
 4329POPC   C3A56873  16.759  32.344   7.097
 4329POPC   C4A56874  16.522  32.174   7.484
 4329POPC   C1B56875  17.098  31.971   6.213
 4329POPC   C2B56876  17.040  31.706   6.618
 4329POPC   C3B56877  17.079  31.851   7.091
 4329POPC   C4B56878  17.024  32.149   7.465
 4330POPC   NC356879  35.034  40.052   5.377
 4330POPC   PO456880  35.560  39.731   5.491
 4330POPC   GL156881  35.610  40.035   5.807
 4330POPC   GL256882  35.306  40.138   5.819
 4330POPC   C1A56883  35.669  40.146   6.262
 4330POPC   D2A56884  35.405  40.102   6.638
 4330POPC   C3A56885  35.497  40.055   7.061
 4330POPC   C4A56886  35.570  39.652   7.246
 4330POPC   C1B56887  35.268  39.833   6.150
 4330POPC   C2B56888  35.044  39.779   6.507
 4330POPC   C3B56889  35.205  39.673   6.881
 4330POPC   C4B56890  35.099  39.817   7.274
 4331POPC   NC356891  44.456   8.459   5.279
 4331POPC   PO456892  44.422   7.825   5.667
 4331POPC   GL156893  44.486   8.078   5.981
 4331POPC   GL256894  44.717   8.238   5.815
 4331POPC   C1A56895  44.523   8.176   6.401
 4331POPC   D2A56896  44.475   7.947   6.741
 4331POPC   C3A56897  44.852   7.763   6.876
 4331POPC   C4A56898  44.794   7.872   7.290
 4331POPC   C1B56899  44.989   8.266   6.140
 4331POPC   C2B56900   0.019   8.196   6.558
 4331POPC   C3B56901  44.865   8.274   6.963
 4331POPC   C4B56902   0.090   8.278   7.326
 4332POPC   NC356903   9.056   4.563   5.374
 4332POPC   PO456904   9.402   4.019   5.370
 4332POPC   GL156905   9.185   4.204   5.700
 4332POPC   GL256906   8.894   4.109   5.857
 4332POPC   C1A56907   9.190   4.505   6.050
 4332POPC   D2A56908   9.357   4.545   6.481
 4332POPC   C3A56909   9.127   4.363   6.862
 4332POPC   C4A56910   8.721   4.394   7.030
 4332POPC   C1B56911   9.226   3.987   6.153
 4332POPC   C2B56912   9.391   4.016   6.572
 4332POPC   C3B56913   9.230   3.851   6.970
 4332POPC   C4B56914   8.997   4.047   7.323
 4333POPC   NC356915  32.408   5.630   5.498
 4333POPC   PO456916  32.103   6.280   5.433
 4333POPC   GL156917  32.248   6.039   5.773
 4333POPC   GL256918  32.096   5.718   5.927
 4333POPC   C1A56919  32.365   6.061   6.174
 4333POPC   D2A56920  32.275   5.824   6.522
 4333POPC   C3A56921  32.382   6.023   6.885
 4333POPC   C4A56922  32.101   6.085   7.213
 4333POPC   C1B56923  32.515   5.581   6.134
 4333POPC   C2B56924  32.667   5.473   6.541
 4333POPC   C3B56925  32.413   5.471   6.886
 4333POPC   C4B56926  32.419   5.676   7.259
 4334POPC   NC356927   0.947   4.033   5.645
 4334POPC   PO456928   0.989   3.398   5.474
 4334POPC   GL156929   1.086   3.462   5.860
 4334POPC   GL256930   1.211   3.109   5.879
 4334POPC   C1A56931   1.263   3.672   6.232
 4334POPC   D2A56932   1.283   3.945   6.588
 4334POPC   C3A56933   1.240   3.739   6.959
 4334POPC   C4A56934   1.582   3.618   7.132
 4334POPC   C1B56935   1.004   3.168   6.265
 4334POPC   C2B56936   1.112   3.248   6.661
 4334POPC   C3B56937   0.889   3.360   7.015
 4334POPC   C4B56938   1.209   3.290   7.267
 4335POPC   NC356939  11.955  15.372   5.451
 4335POPC   PO456940  12.018  14.750   5.697
 4335POPC   GL156941  12.211  15.117   5.909
 4335POPC   GL256942  11.889  15.256   5.944
 4335POPC   C1A56943  12.544  15.048   6.246
 4335POPC   D2A56944  12.471  14.768   6.631
 4335POPC   C3A56945  12.277  15.003   6.999
 4335POPC   C4A56946  12.394  15.365   7.239
 4335POPC   C1B56947  11.810  15.492   6.287
 4335POPC   C2B56948  11.851  15.583   6.673
 4335POPC   C3B56949  11.856  15.306   6.978
 4335POPC   C4B56950  11.895  15.358   7.397
 4336POPC   NC356951   0.558  12.702   5.570
 4336POPC   PO456952  44.977  13.014   5.567
 4336POPC   GL156953   0.109  12.785   5.888
 4336POPC   GL256954   0.408  13.009   5.944
 4336POPC   C1A56955   0.147  12.780   6.342
 4336POPC   D2A56956   0.383  12.477   6.549
 4336POPC   C3A56957   0.520  12.525   6.965
 4336POPC   C4A56958   0.451  12.711   7.325
 4336POPC   C1B56959   0.683  12.893   6.280
 4336POPC   C2B56960   0.633  12.960   6.691
 4336POPC   C3B56961   0.452  13.120   7.051
 4336POPC   C4B56962   0.697  13.177   7.442
 4337POPC   NC356963   7.060  23.509   5.409
 4337POPC   PO456964   7.724  23.807   5.626
 4337POPC   GL156965   7.415  23.558   5.783
 4337POPC   GL256966   7.110  23.751   5.844
 4337POPC   C1A56967   7.330  23.434   6.181
 4337POPC   D2A56968   7.275  23.635   6.542
 4337POPC   C3A56969   7.569  23.570   6.793
 4337POPC   C4A56970   7.530  23.632   7.172
 4337POPC   C1B56971   7.293  23.975   6.148
 4337POPC   C2B56972   7.208  24.140   6.537
 4337POPC   C3B56973   7.301  24.029   6.940
 4337POPC   C4B56974   7.131  23.941   7.322
 4338POPC   NC356975  30.502  29.382   5.746
 4338POPC   PO456976  30.974  29.805   5.585
 4338POPC   GL156977  30.817  29.927   5.956
 4338POPC   GL256978  30.506  30.033   5.855
 4338POPC   C1A56979  30.779  29.684   6.347
 4338POPC   D2A56980  30.805  29.486   6.771
 4338POPC   C3A56981  30.952  29.816   7.059
 4338POPC   C4A56982  30.869  29.927   7.503
 4338POPC   C1B56983  30.413  30.064   6.294
 4338POPC   C2B56984  30.568  29.958   6.729
 4338POPC   C3B56985  30.501  30.036   7.152
 4338POPC   C4B56986  30.287  30.325   7.335
 4339POPC   NC356987  29.921  35.319   5.218
 4339POPC   PO456988  29.546  35.645   5.688
 4339POPC   GL156989  29.768  35.330   5.882
 4339POPC   GL256990  30.073  35.254   5.750
 4339POPC   C1A56991  29.924  35.404   6.286
 4339POPC   D2A56992  29.766  35.338   6.712
 4339POPC   C3A56993  29.955  35.545   7.042
 4339POPC   C4A56994  29.835  35.600   7.471
 4339POPC   C1B56995  30.314  35.120   6.115
 4339POPC   C2B56996  30.207  35.104   6.570
 4339POPC   C3B56997  30.332  35.185   7.013
 4339POPC   C4B56998  30.226  35.023   7.447
 4340POPC   NC356999  44.797  10.224   5.153
 4340POPC   PO457000  44.648  10.852   5.372
 4340POPC   GL157001  44.658  10.525   5.704
 4340POPC   GL257002  44.862  10.735   5.888
 4340POPC   C1A57003  44.675  10.285   6.126
 4340POPC   D2A57004  44.900  10.353   6.553
 4340POPC   C3A57005  44.726  10.249   6.973
 4340POPC   C4A57006  44.812  10.341   7.409
 4340POPC   C1B57007  44.803  10.947   6.274
 4340POPC   C2B57008   0.061  10.858   6.630
 4340POPC   C3B57009   0.001  10.707   7.042
 4340POPC   C4B57010  44.885  10.821   7.474
 4341POPC   NC357011  21.619  19.413   5.398
 4341POPC   PO457012  21.180  18.978   5.581
 4341POPC   GL157013  21.453  19.138   5.818
 4341POPC   GL257014  21.237  19.419   5.848
 4341POPC   C1A57015  21.379  19.097   6.246
 4341POPC   D2A57016  21.160  19.234   6.602
 4341POPC   C3A57017  21.371  19.080   6.965
 4341POPC   C4A57018  21.123  18.900   7.295
 4341POPC   C1B57019  21.619  19.542   6.120
 4341POPC   C2B57020  21.682  19.386   6.556
 4341POPC   C3B57021  21.638  19.532   6.959
 4341POPC   C4B57022  21.909  19.436   7.293
 4342POPC   NC357023   2.985  27.829   5.471
 4342POPC   PO457024   2.960  27.102   5.387
 4342POPC   GL157025   2.825  27.403   5.798
 4342POPC   GL257026   2.868  27.768   5.970
 4342POPC   C1A57027   2.737  27.401   6.277
 4342POPC   D2A57028   2.864  27.627   6.648
 4342POPC   C3A57029   2.761  27.558   7.068
 4342POPC   C4A57030   2.456  27.788   7.256
 4342POPC   C1B57031   2.586  27.929   6.320
 4342POPC   C2B57032   2.630  28.067   6.755
 4342POPC   C3B57033   3.011  28.065   6.919
 4342POPC   C4B57034   3.194  28.200   7.278
 4343POPC   NC357035  23.252  30.694   5.453
 4343POPC   PO457036  22.681  30.872   5.524
 4343POPC   GL157037  22.816  30.614   5.855
 4343POPC   GL257038  23.148  30.692   5.934
 4343POPC   C1A57039  22.834  30.659   6.317
 4343POPC   D2A57040  22.637  30.812   6.653
 4343POPC   C3A57041  22.616  30.495   6.925
 4343POPC   C4A57042  22.842  30.484   7.299
 4343POPC   C1B57043  23.365  31.039   6.134
 4343POPC   C2B57044  23.489  31.012   6.571
 4343POPC   C3B57045  23.251  30.964   6.951
 4343POPC   C4B57046  23.158  31.248   7.242
 4344POPC   NC357047  19.725  14.038   5.277
 4344POPC   PO457048  19.942  14.691   5.382
 4344POPC   GL157049  19.932  14.360   5.654
 4344POPC   GL257050  19.612  14.267   5.722
 4344POPC   C1A57051  20.002  14.332   6.101
 4344POPC   D2A57052  20.108  14.555   6.496
 4344POPC   C3A57053  19.820  14.443   6.816
 4344POPC   C4A57054  20.066  14.265   7.148
 4344POPC   C1B57055  19.480  14.036   6.106
 4344POPC   C2B57056  19.526  14.067   6.568
 4344POPC   C3B57057  19.611  14.025   7.028
 4344POPC   C4B57058  19.451  14.347   7.360
 4345POPC   NC357059   8.058  16.087   5.640
 4345POPC   PO457060   8.543  16.435   5.313
 4345POPC   GL157061   8.617  16.178   5.699
 4345POPC   GL257062   8.469  15.836   5.805
 4345POPC   C1A57063   8.463  16.238   6.136
 4345POPC   D2A57064   8.122  16.209   6.468
 4345POPC   C3A57065   8.296  16.171   6.867
 4345POPC   C4A57066   8.371  16.169   7.293
 4345POPC   C1B57067   8.235  15.779   6.203
 4345POPC   C2B57068   8.054  15.700   6.623
 4345POPC   C3B57069   8.154  15.686   7.056
 4345POPC   C4B57070   8.491  15.662   7.342
 4346POPC   NC357071  25.813   5.490   5.699
 4346POPC   PO457072  26.252   5.965   5.506
 4346POPC   GL157073  26.073   5.924   5.883
 4346POPC   GL257074  26.397   6.095   5.967
 4346POPC   C1A57075  25.939   5.826   6.322
 4346POPC   D2A57076  26.109   5.987   6.697
 4346POPC   C3A57077  25.912   5.911   7.058
 4346POPC   C4A57078  25.964   5.658   7.396
 4346POPC   C1B57079  26.165   6.285   6.270
 4346POPC   C2B57080  26.272   6.510   6.625
 4346POPC   C3B57081  26.242   6.386   7.020
 4346POPC   C4B57082  26.340   6.091   7.258
 4347POPC   NC357083   2.291   2.065   5.417
 4347POPC   PO457084   1.714   1.803   5.457
 4347POPC   GL157085   2.034   1.832   5.800
 4347POPC   GL257086   1.982   2.195   5.817
 4347POPC   C1A57087   2.312   1.995   6.159
 4347POPC   D2A57088   2.575   1.913   6.533
 4347POPC   C3A57089   2.311   2.019   6.888
 4347POPC   C4A57090   1.930   1.983   7.118
 4347POPC   C1B57091   1.775   2.008   6.190
 4347POPC   C2B57092   1.897   2.077   6.588
 4347POPC   C3B57093   1.797   2.421   6.861
 4347POPC   C4B57094   1.845   2.454   7.305
 4348POPC   NC357095  25.082  17.464   5.408
 4348POPC   PO457096  25.674  16.953   5.404
 4348POPC   GL157097  25.416  17.200   5.703
 4348POPC   GL257098  25.502  17.547   5.793
 4348POPC   C1A57099  25.120  17.229   6.069
 4348POPC   D2A57100  25.067  17.507   6.419
 4348POPC   C3A57101  25.100  17.458   6.875
 4348POPC   C4A57102  25.429  17.558   7.188
 4348POPC   C1B57103  25.458  17.746   6.214
 4348POPC   C2B57104  25.436  17.802   6.674
 4348POPC   C3B57105  25.272  18.016   7.035
 4348POPC   C4B57106  25.258  17.942   7.497
 4349POPC   NC357107  12.455  33.923   5.285
 4349POPC   PO457108  12.975  33.439   5.328
 4349POPC   GL157109  12.839  33.679   5.727
 4349POPC   GL257110  12.621  33.954   5.752
 4349POPC   C1A57111  12.917  33.605   6.180
 4349POPC   D2A57112  13.105  33.377   6.540
 4349POPC   C3A57113  12.929  33.617   6.844
 4349POPC   C4A57114  12.846  33.738   7.229
 4349POPC   C1B57115  12.735  34.093   6.107
 4349POPC   C2B57116  12.739  33.979   6.514
 4349POPC   C3B57117  12.674  34.102   6.899
 4349POPC   C4B57118  12.662  34.203   7.316
 4350POPC   NC357119  30.725   1.705   5.095
 4350POPC   PO457120  31.078   2.242   5.329
 4350POPC   GL157121  30.832   1.978   5.585
 4350POPC   GL257122  31.117   1.966   5.799
 4350POPC   C1A57123  30.633   1.956   6.003
 4350POPC   D2A57124  30.760   2.038   6.467
 4350POPC   C3A57125  30.619   1.980   6.900
 4350POPC   C4A57126  30.261   2.042   7.165
 4350POPC   C1B57127  31.085   1.769   6.205
 4350POPC   C2B57128  31.087   1.715   6.679
 4350POPC   C3B57129  31.086   1.917   7.101
 4350POPC   C4B57130  30.968   1.981   7.556
 4351POPC   NC357131  22.356   3.024   5.457
 4351POPC   PO457132  21.972   2.584   5.479
 4351POPC   GL157133  22.098   2.798   5.849
 4351POPC   GL257134  22.454   2.724   5.873
 4351POPC   C1A57135  22.174   2.844   6.279
 4351POPC   D2A57136  22.240   3.026   6.655
 4351POPC   C3A57137  22.104   2.807   6.995
 4351POPC   C4A57138  22.271   2.746   7.383
 4351POPC   C1B57139  22.442   2.427   6.232
 4351POPC   C2B57140  22.250   2.473   6.643
 4351POPC   C3B57141  22.467   2.448   7.031
 4351POPC   C4B57142  22.476   2.286   7.440
 4352POPC   NC357143  22.116  33.017   5.138
 4352POPC   PO457144  22.021  32.778   5.766
 4352POPC   GL157145  21.912  32.988   6.113
 4352POPC   GL257146  21.667  32.748   6.157
 4352POPC   C1A57147  22.188  33.141   6.411
 4352POPC   D2A57148  22.321  33.423   6.717
 4352POPC   C3A57149  22.075  33.248   7.046
 4352POPC   C4A57150  22.315  32.918   7.226
 4352POPC   C1B57151  21.993  32.591   6.419
 4352POPC   C2B57152  21.978  32.790   6.779
 4352POPC   C3B57153  21.886  32.648   7.139
 4352POPC   C4B57154  21.857  32.894   7.452
 4353POPC   NC357155  26.128  10.841   5.395
 4353POPC   PO457156  25.769  10.374   5.115
 4353POPC   GL157157  25.932  10.427   5.642
 4353POPC   GL257158  26.107  10.675   5.886
 4353POPC   C1A57159  25.900  10.235   6.092
 4353POPC   D2A57160  25.795  10.402   6.460
 4353POPC   C3A57161  25.744  10.265   6.876
 4353POPC   C4A57162  25.567  10.240   7.264
 4353POPC   C1B57163  26.275  10.527   6.297
 4353POPC   C2B57164  26.175  10.561   6.757
 4353POPC   C3B57165  26.016  10.608   7.170
 4353POPC   C4B57166  26.286  10.651   7.524
 4354POPC   NC357167  41.291  25.381   5.163
 4354POPC   PO457168  40.737  25.209   5.343
 4354POPC   GL157169  40.771  25.233   5.786
 4354POPC   GL257170  40.916  24.919   5.843
 4354POPC   C1A57171  40.646  25.464   6.189
 4354POPC   D2A57172  40.495  25.327   6.616
 4354POPC   C3A57173  40.420  25.579   7.008
 4354POPC   C4A57174  40.454  25.402   7.431
 4354POPC   C1B57175  40.946  25.029   6.260
 4354POPC   C2B57176  40.956  25.054   6.702
 4354POPC   C3B57177  40.785  25.227   7.085
 4354POPC   C4B57178  40.916  25.191   7.529
 4355POPC   NC357179  25.375  21.878   5.000
 4355POPC   PO457180  24.875  21.978   5.380
 4355POPC   GL157181  25.147  22.170   5.736
 4355POPC   GL257182  25.296  21.930   5.945
 4355POPC   C1A57183  25.385  22.394   6.098
 4355POPC   D2A57184  25.425  22.539   6.533
 4355POPC   C3A57185  25.374  22.310   6.915
 4355POPC   C4A57186  25.429  22.459   7.298
 4355POPC   C1B57187  25.489  21.897   6.296
 4355POPC   C2B57188  25.334  21.828   6.692
 4355POPC   C3B57189  25.500  21.835   7.075
 4355POPC   C4B57190  25.254  21.992   7.376
 4356POPC   NC357191  18.029  43.502   5.382
 4356POPC   PO457192  18.239  44.210   5.344
 4356POPC   GL157193  18.271  43.843   5.716
 4356POPC   GL257194  18.212  44.088   5.877
 4356POPC   C1A57195  18.466  43.768   6.184
 4356POPC   D2A57196  18.514  43.948   6.648
 4356POPC   C3A57197  18.396  43.810   7.118
 4356POPC   C4A57198  18.477  44.128   7.469
 4356POPC   C1B57199  17.991  44.043   6.251
 4356POPC   C2B57200  17.742  44.107   6.614
 4356POPC   C3B57201  17.991  44.052   6.944
 4356POPC   C4B57202  17.987  44.175   7.352
 4357POPC   NC357203  23.208  37.679   5.648
 4357POPC   PO457204  22.535  37.986   5.508
 4357POPC   GL157205  22.740  37.781   5.823
 4357POPC   GL257206  22.697  37.446   5.752
 4357POPC   C1A57207  22.973  37.845   6.221
 4357POPC   D2A57208  23.221  37.997   6.551
 4357POPC   C3A57209  23.081  37.858   6.950
 4357POPC   C4A57210  23.039  37.724   7.349
 4357POPC   C1B57211  22.861  37.331   6.172
 4357POPC   C2B57212  23.138  37.338   6.540
 4357POPC   C3B57213  22.981  37.332   6.972
 4357POPC   C4B57214  23.151  37.230   7.353
 4358POPC   NC357215   9.181  17.217   5.651
 4358POPC   PO457216   9.522  17.517   5.142
 4358POPC   GL157217   9.102  17.678   5.513
 4358POPC   GL257218   8.759  17.531   5.678
 4358POPC   C1A57219   9.048  17.767   6.040
 4358POPC   D2A57220   9.181  17.499   6.434
 4358POPC   C3A57221   9.358  17.690   6.816
 4358POPC   C4A57222   9.208  17.844   7.216
 4358POPC   C1B57223   8.550  17.568   6.116
 4358POPC   C2B57224   8.684  17.532   6.576
 4358POPC   C3B57225   8.748  17.630   7.022
 4358POPC   C4B57226   8.428  17.483   7.292
 4359POPC   NC357227  29.346  10.398   5.412
 4359POPC   PO457228  28.996  11.003   5.380
 4359POPC   GL157229  29.070  10.713   5.727
 4359POPC   GL257230  28.725  10.650   5.772
 4359POPC   C1A57231  29.377  10.556   6.053
 4359POPC   D2A57232  29.282  10.525   6.492
 4359POPC   C3A57233  29.393  10.668   6.892
 4359POPC   C4A57234  29.346  10.418   7.242
 4359POPC   C1B57235  28.843  10.526   6.201
 4359POPC   C2B57236  28.808  10.636   6.661
 4359POPC   C3B57237  28.916  10.778   7.084
 4359POPC   C4B57238  28.621  10.817   7.427
 4360POPC   NC357239  12.079  13.185   5.482
 4360POPC   PO457240  12.549  13.647   5.500
 4360POPC   GL157241  12.225  13.571   5.788
 4360POPC   GL257242  11.967  13.720   5.620
 4360POPC   C1A57243  12.137  13.440   6.208
 4360POPC   D2A57244  12.246  13.590   6.619
 4360POPC   C3A57245  11.909  13.716   6.848
 4360POPC   C4A57246  11.837  13.838   7.251
 4360POPC   C1B57247  11.890  13.876   6.076
 4360POPC   C2B57248  11.784  14.065   6.493
 4360POPC   C3B57249  11.781  14.211   6.909
 4360POPC   C4B57250  11.695  14.388   7.290
 4361POPC   NC357251  24.806  42.355   5.304
 4361POPC   PO457252  24.165  42.181   5.146
 4361POPC   GL157253  24.373  42.233   5.627
 4361POPC   GL257254  24.753  42.235   5.802
 4361POPC   C1A57255  24.371  42.275   6.114
 4361POPC   D2A57256  24.561  42.292   6.559
 4361POPC   C3A57257  24.402  42.561   6.895
 4361POPC   C4A57258  24.550  42.518   7.330
 4361POPC   C1B57259  24.867  42.056   6.221
 4361POPC   C2B57260  25.057  42.121   6.616
 4361POPC   C3B57261  24.849  42.262   6.997
 4361POPC   C4B57262  24.885  42.007   7.362
 4362POPC   NC357263  33.282  13.915   5.350
 4362POPC   PO457264  32.919  13.345   5.446
 4362POPC   GL157265  32.965  13.399   5.853
 4362POPC   GL257266  33.126  13.708   5.801
 4362POPC   C1A57267  32.761  13.617   6.181
 4362POPC   D2A57268  32.965  13.712   6.544
 4362POPC   C3A57269  32.794  13.589   6.886
 4362POPC   C4A57270  33.147  13.396   7.106
 4362POPC   C1B57271  33.195  13.962   6.152
 4362POPC   C2B57272  33.175  14.173   6.550
 4362POPC   C3B57273  33.286  13.971   6.913
 4362POPC   C4B57274  33.013  13.871   7.235
 4363POPC   NC357275   7.589  30.304   5.626
 4363POPC   PO457276   7.439  29.724   5.420
 4363POPC   GL157277   7.288  29.889   5.744
 4363POPC   GL257278   7.021  30.065   5.598
 4363POPC   C1A57279   7.402  29.812   6.146
 4363POPC   D2A57280   7.449  29.700   6.565
 4363POPC   C3A57281   7.707  29.973   6.857
 4363POPC   C4A57282   7.558  30.000   7.291
 4363POPC   C1B57283   6.853  29.884   6.016
 4363POPC   C2B57284   6.891  29.722   6.423
 4363POPC   C3B57285   7.022  29.545   6.801
 4363POPC   C4B57286   7.142  29.682   7.236
 4364POPC   NC357287   3.526  38.683   5.522
 4364POPC   PO457288   3.349  38.049   5.533
 4364POPC   GL157289   3.559  38.197   5.884
 4364POPC   GL257290   3.371  38.490   5.974
 4364POPC   C1A57291   3.749  38.304   6.271
 4364POPC   D2A57292   3.524  38.526   6.604
 4364POPC   C3A57293   3.397  38.264   6.934
 4364POPC   C4A57294   3.565  38.174   7.360
 4364POPC   C1B57295   3.657  38.813   6.151
 4364POPC   C2B57296   3.594  39.044   6.502
 4364POPC   C3B57297   3.678  38.938   6.894
 4364POPC   C4B57298   3.601  38.660   7.179
 4365POPC   NC357299  36.728  39.193   5.332
 4365POPC   PO457300  36.391  39.701   5.478
 4365POPC   GL157301  36.741  39.532   5.704
 4365POPC   GL257302  37.013  39.209   5.756
 4365POPC   C1A57303  36.816  39.496   6.104
 4365POPC   D2A57304  36.703  39.324   6.463
 4365POPC   C3A57305  36.939  39.394   6.848
 4365POPC   C4A57306  36.804  39.265   7.249
 4365POPC   C1B57307  37.138  39.155   6.234
 4365POPC   C2B57308  36.968  38.898   6.610
 4365POPC   C3B57309  37.156  38.952   7.036
 4365POPC   C4B57310  37.311  39.330   7.289
 4366POPC   NC357311  36.034  42.226   5.578
 4366POPC   PO457312  36.397  42.721   5.671
 4366POPC   GL157313  36.371  42.439   5.935
 4366POPC   GL257314  36.553  42.191   5.754
 4366POPC   C1A57315  36.089  42.255   6.230
 4366POPC   D2A57316  35.935  42.408   6.599
 4366POPC   C3A57317  35.906  42.144   6.935
 4366POPC   C4A57318  35.814  42.437   7.217
 4366POPC   C1B57319  36.589  42.069   6.186
 4366POPC   C2B57320  36.410  42.113   6.604
 4366POPC   C3B57321  36.363  42.391   6.948
 4366POPC   C4B57322  36.617  42.429   7.291
 4367POPC   NC357323  12.656   2.632   5.534
 4367POPC   PO457324  12.811   3.295   5.528
 4367POPC   GL157325  12.708   3.015   5.888
 4367POPC   GL257326  12.334   2.906   5.847
 4367POPC   C1A57327  12.976   2.756   6.222
 4367POPC   D2A57328  12.926   2.442   6.530
 4367POPC   C3A57329  12.937   2.604   6.924
 4367POPC   C4A57330  13.093   2.589   7.297
 4367POPC   C1B57331  12.474   2.698   6.214
 4367POPC   C2B57332  12.615   2.858   6.595
 4367POPC   C3B57333  12.463   2.807   7.001
 4367POPC   C4B57334  12.611   2.721   7.397
 4368POPC   NC357335  10.675  12.525   4.962
 4368POPC   PO457336  10.672  12.038   5.382
 4368POPC   GL157337  10.449  12.025   5.752
 4368POPC   GL257338  10.546  11.701   5.799
 4368POPC   C1A57339  10.476  12.003   6.219
 4368POPC   D2A57340  10.761  12.168   6.520
 4368POPC   C3A57341  10.537  12.231   6.894
 4368POPC   C4A57342  10.637  12.261   7.325
 4368POPC   C1B57343  10.112  11.720   6.011
 4368POPC   C2B57344  10.033  11.856   6.448
 4368POPC   C3B57345  10.066  11.715   6.887
 4368POPC   C4B57346  10.337  11.864   7.230
 4369POPC   NC357347  25.166  19.505   5.223
 4369POPC   PO457348  24.941  18.867   5.298
 4369POPC   GL157349  25.216  18.971   5.702
 4369POPC   GL257350  25.499  19.221   5.720
 4369POPC   C1A57351  25.075  19.051   6.162
 4369POPC   D2A57352  24.955  19.251   6.541
 4369POPC   C3A57353  24.987  19.002   6.871
 4369POPC   C4A57354  25.062  19.087   7.276
 4369POPC   C1B57355  25.558  18.913   6.097
 4369POPC   C2B57356  25.420  18.999   6.563
 4369POPC   C3B57357  25.470  18.887   7.033
 4369POPC   C4B57358  25.533  18.861   7.525
 4370POPC   NC357359  20.293  36.112   5.466
 4370POPC   PO457360  20.956  36.323   5.452
 4370POPC   GL157361  20.705  36.164   5.763
 4370POPC   GL257362  20.468  36.380   5.904
 4370POPC   C1A57363  20.551  35.887   6.070
 4370POPC   D2A57364  20.666  35.858   6.477
 4370POPC   C3A57365  20.455  36.096   6.743
 4370POPC   C4A57366  20.405  36.014   7.147
 4370POPC   C1B57367  20.822  36.356   6.223
 4370POPC   C2B57368  20.784  36.478   6.650
 4370POPC   C3B57369  20.607  36.515   7.052
 4370POPC   C4B57370  20.685  36.304   7.439
 4371POPC   NC357371  32.787  40.766   5.540
 4371POPC   PO457372  33.344  40.921   5.388
 4371POPC   GL157373  33.311  40.814   5.819
 4371POPC   GL257374  33.084  41.072   5.870
 4371POPC   C1A57375  33.010  40.640   6.169
 4371POPC   D2A57376  32.980  40.631   6.631
 4371POPC   C3A57377  33.079  40.922   6.972
 4371POPC   C4A57378  33.171  40.786   7.406
 4371POPC   C1B57379  33.270  41.046   6.289
 4371POPC   C2B57380  33.258  41.274   6.629
 4371POPC   C3B57381  33.216  41.493   6.981
 4371POPC   C4B57382  33.121  41.286   7.321
 4372POPC   NC357383  33.349  13.245   5.543
 4372POPC   PO457384  32.984  12.647   5.483
 4372POPC   GL157385  33.152  12.859   5.804
 4372POPC   GL257386  33.353  12.587   5.906
 4372POPC   C1A57387  33.209  13.087   6.189
 4372POPC   D2A57388  33.174  13.217   6.598
 4372POPC   C3A57389  33.231  12.857   6.825
 4372POPC   C4A57390  33.135  12.877   7.250
 4372POPC   C1B57391  32.970  12.594   6.193
 4372POPC   C2B57392  32.834  12.761   6.548
 4372POPC   C3B57393  32.777  12.602   6.968
 4372POPC   C4B57394  32.938  12.400   7.279
 4373POPC   NC357395   0.126  42.549   5.580
 4373POPC   PO457396   0.546  42.169   5.195
 4373POPC   GL157397   0.588  42.306   5.716
 4373POPC   GL257398   0.871  42.509   5.698
 4373POPC   C1A57399   0.412  42.355   6.235
 4373POPC   D2A57400   0.103  42.610   6.558
 4373POPC   C3A57401   0.190  42.507   7.026
 4373POPC   C4A57402   0.467  42.164   7.223
 4373POPC   C1B57403   0.913  42.447   6.142
 4373POPC   C2B57404   0.830  42.579   6.556
 4373POPC   C3B57405   0.929  42.440   6.968
 4373POPC   C4B57406   0.888  42.484   7.411
 4374POPC   NC357407  35.001  12.182   5.380
 4374POPC   PO457408  35.647  11.974   5.282
 4374POPC   GL157409  35.393  12.055   5.713
 4374POPC   GL257410  35.092  11.829   5.753
 4374POPC   C1A57411  35.315  12.359   6.097
 4374POPC   D2A57412  35.216  12.425   6.558
 4374POPC   C3A57413  35.513  12.128   6.793
 4374POPC   C4A57414  35.618  12.105   7.249
 4374POPC   C1B57415  34.967  11.978   6.175
 4374POPC   C2B57416  35.068  11.919   6.619
 4374POPC   C3B57417  35.059  12.090   7.038
 4374POPC   C4B57418  34.942  11.882   7.415
 4375POPC   NC357419  20.143  40.211   5.550
 4375POPC   PO457420  20.524  39.589   5.412
 4375POPC   GL157421  20.750  39.678   5.768
 4375POPC   GL257422  20.633  40.021   5.776
 4375POPC   C1A57423  20.810  39.851   6.217
 4375POPC   D2A57424  20.649  40.046   6.587
 4375POPC   C3A57425  20.549  39.752   6.943
 4375POPC   C4A57426  20.751  39.832   7.407
 4375POPC   C1B57427  20.317  39.930   6.119
 4375POPC   C2B57428  20.120  39.939   6.514
 4375POPC   C3B57429  20.248  40.177   6.883
 4375POPC   C4B57430  20.625  40.230   7.113
 4376POPC   NC357431  15.819  19.088   5.477
 4376POPC   PO457432  16.474  18.958   5.482
 4376POPC   GL157433  16.208  19.019   5.839
 4376POPC   GL257434  16.031  19.333   5.886
 4376POPC   C1A57435  15.902  18.950   6.183
 4376POPC   D2A57436  15.740  19.187   6.522
 4376POPC   C3A57437  15.793  18.988   6.916
 4376POPC   C4A57438  15.950  18.759   7.266
 4376POPC   C1B57439  16.283  19.329   6.265
 4376POPC   C2B57440  16.218  19.317   6.683
 4376POPC   C3B57441  15.886  19.517   6.895
 4376POPC   C4B57442  15.819  19.338   7.271
 4377POPC   NC357443  19.111  44.511   5.384
 4377POPC   PO457444  19.483   0.046   5.411
 4377POPC   GL157445  19.211  44.829   5.786
 4377POPC   GL257446  19.326  44.463   5.847
 4377POPC   C1A57447  19.001  44.649   6.199
 4377POPC   D2A57448  19.205  44.776   6.584
 4377POPC   C3A57449  19.020  44.845   6.974
 4377POPC   C4A57450  18.823  44.533   7.191
 4377POPC   C1B57451  19.381  44.318   6.282
 4377POPC   C2B57452  19.521  44.394   6.715
 4377POPC   C3B57453  19.454  44.625   7.113
 4377POPC   C4B57454  19.432  44.434   7.533
 4378POPC   NC357455  36.390  33.197   5.399
 4378POPC   PO457456  35.762  33.155   5.485
 4378POPC   GL157457  36.037  32.917   5.772
 4378POPC   GL257458  36.385  32.779   5.751
 4378POPC   C1A57459  36.023  32.708   6.169
 4378POPC   D2A57460  36.207  32.666   6.583
 4378POPC   C3A57461  35.950  32.789   6.902
 4378POPC   C4A57462  35.949  33.005   7.274
 4378POPC   C1B57463  36.408  33.033   6.146
 4378POPC   C2B57464  36.571  33.027   6.569
 4378POPC   C3B57465  36.459  32.938   6.999
 4378POPC   C4B57466  36.413  33.279   7.293
 4379POPC   NC357467   2.917  44.912   5.459
 4379POPC   PO457468   2.678  44.271   5.388
 4379POPC   GL157469   2.708  44.489   5.796
 4379POPC   GL257470   2.549  44.833   5.843
 4379POPC   C1A57471   2.950  44.609   6.167
 4379POPC   D2A57472   3.029  44.798   6.573
 4379POPC   C3A57473   2.761  44.660   6.891
 4379POPC   C4A57474   2.777  44.565   7.322
 4379POPC   C1B57475   2.408   0.024   6.243
 4379POPC   C2B57476   2.356  44.901   6.689
 4379POPC   C3B57477   2.434  44.981   7.137
 4379POPC   C4B57478   2.431   0.169   7.550
 4380POPC   NC357479   4.597   7.807   5.376
 4380POPC   PO457480   4.335   8.411   5.295
 4380POPC   GL157481   4.379   8.146   5.707
 4380POPC   GL257482   4.446   7.767   5.851
 4380POPC   C1A57483   4.260   8.144   6.147
 4380POPC   D2A57484   4.113   8.215   6.579
 4380POPC   C3A57485   4.307   8.249   7.002
 4380POPC   C4A57486   4.141   8.295   7.462
 4380POPC   C1B57487   4.656   7.828   6.239
 4380POPC   C2B57488   4.581   7.970   6.653
 4380POPC   C3B57489   4.643   7.855   7.091
 4380POPC   C4B57490   4.648   8.184   7.393
 4381POPC   NC357491  27.478  38.743   5.360
 4381POPC   PO457492  27.910  38.269   5.359
 4381POPC   GL157493  27.713  38.472   5.735
 4381POPC   GL257494  27.392  38.314   5.780
 4381POPC   C1A57495  27.640  38.473   6.199
 4381POPC   D2A57496  27.612  38.142   6.521
 4381POPC   C3A57497  27.770  38.247   6.916
 4381POPC   C4A57498  27.567  38.150   7.257
 4381POPC   C1B57499  27.181  38.657   5.998
 4381POPC   C2B57500  27.180  38.606   6.417
 4381POPC   C3B57501  27.261  38.438   6.821
 4381POPC   C4B57502  27.451  38.628   7.163
 4382POPC   NC357503  19.181  37.994   5.521
 4382POPC   PO457504  19.355  38.663   5.520
 4382POPC   GL157505  19.141  38.451   5.865
 4382POPC   GL257506  18.791  38.338   5.746
 4382POPC   C1A57507  19.239  38.576   6.301
 4382POPC   D2A57508  19.389  38.661   6.738
 4382POPC   C3A57509  19.115  38.539   7.079
 4382POPC   C4A57510  19.196  38.550   7.548
 4382POPC   C1B57511  18.734  38.368   6.196
 4382POPC   C2B57512  18.659  38.202   6.592
 4382POPC   C3B57513  18.779  38.078   7.010
 4382POPC   C4B57514  18.765  38.338   7.370
 4383POPC   NC357515  23.583  13.280   5.460
 4383POPC   PO457516  23.897  12.667   5.297
 4383POPC   GL157517  23.842  12.857   5.691
 4383POPC   GL257518  23.482  12.837   5.741
 4383POPC   C1A57519  23.858  12.995   6.137
 4383POPC   D2A57520  24.073  12.880   6.536
 4383POPC   C3A57521  23.854  12.976   6.942
 4383POPC   C4A57522  23.998  12.912   7.369
 4383POPC   C1B57523  23.441  12.679   6.145
 4383POPC   C2B57524  23.536  12.836   6.538
 4383POPC   C3B57525  23.409  12.732   6.930
 4383POPC   C4B57526  23.310  13.007   7.227
 4384POPC   NC357527  29.693  11.927   5.280
 4384POPC   PO457528  30.229  12.388   5.385
 4384POPC   GL157529  30.051  12.326   5.777
 4384POPC   GL257530  30.304  12.149   5.923
 4384POPC   C1A57531  29.866  12.174   6.179
 4384POPC   D2A57532  29.626  12.242   6.553
 4384POPC   C3A57533  29.542  12.081   6.945
 4384POPC   C4A57534  29.622  12.336   7.312
 4384POPC   C1B57535  30.233  11.794   6.202
 4384POPC   C2B57536  30.004  11.861   6.580
 4384POPC   C3B57537  30.050  12.124   6.929
 4384POPC   C4B57538  29.953  11.943   7.283
 4385POPC   NC357539  27.869  19.234   5.431
 4385POPC   PO457540  27.718  18.610   5.358
 4385POPC   GL157541  27.683  18.853   5.740
 4385POPC   GL257542  27.367  19.045   5.795
 4385POPC   C1A57543  27.699  18.831   6.190
 4385POPC   D2A57544  27.625  18.623   6.588
 4385POPC   C3A57545  27.677  18.904   6.920
 4385POPC   C4A57546  27.512  18.943   7.319
 4385POPC   C1B57547  27.352  19.344   6.148
 4385POPC   C2B57548  27.105  19.384   6.538
 4385POPC   C3B57549  27.236  19.280   6.961
 4385POPC   C4B57550  27.654  19.388   7.113
 4386POPC   NC357551  29.216   9.634   5.493
 4386POPC   PO457552  28.884  10.237   5.488
 4386POPC   GL157553  29.156  10.062   5.841
 4386POPC   GL257554  29.161   9.675   5.981
 4386POPC   C1A57555  29.202  10.043   6.310
 4386POPC   D2A57556  29.217   9.679   6.623
 4386POPC   C3A57557  29.129   9.805   7.048
 4386POPC   C4A57558  29.192  10.003   7.469
 4386POPC   C1B57559  28.856   9.552   6.271
 4386POPC   C2B57560  28.713   9.503   6.690
 4386POPC   C3B57561  28.838   9.381   7.119
 4386POPC   C4B57562  29.143   9.492   7.465
 4387POPC   NC357563  43.942   3.005   5.400
 4387POPC   PO457564  43.912   2.321   5.440
 4387POPC   GL157565  43.932   2.611   5.831
 4387POPC   GL257566  44.145   2.911   5.854
 4387POPC   C1A57567  43.802   2.662   6.288
 4387POPC   D2A57568  43.900   2.548   6.726
 4387POPC   C3A57569  43.724   2.751   7.108
 4387POPC   C4A57570  43.390   2.539   7.362
 4387POPC   C1B57571  43.991   3.151   6.218
 4387POPC   C2B57572  43.894   3.075   6.660
 4387POPC   C3B57573  44.065   3.134   7.082
 4387POPC   C4B57574  43.925   3.313   7.470
 4388POPC   NC357575   9.739  39.012   5.389
 4388POPC   PO457576  10.084  39.598   5.432
 4388POPC   GL157577   9.982  39.250   5.763
 4388POPC   GL257578   9.640  39.303   5.785
 4388POPC   C1A57579   9.769  39.026   6.166
 4388POPC   D2A57580   9.547  39.156   6.549
 4388POPC   C3A57581   9.831  39.033   6.871
 4388POPC   C4A57582  10.062  39.129   7.245
 4388POPC   C1B57583   9.607  39.520   6.182
 4388POPC   C2B57584   9.493  39.718   6.570
 4388POPC   C3B57585   9.567  39.495   6.936
 4388POPC   C4B57586   9.483  39.232   7.259
 4389POPC   NC357587  37.780   8.476   5.299
 4389POPC   PO457588  37.309   8.095   5.277
 4389POPC   GL157589  37.429   8.316   5.681
 4389POPC   GL257590  37.805   8.279   5.785
 4389POPC   C1A57591  37.422   8.128   6.102
 4389POPC   D2A57592  37.503   8.272   6.507
 4389POPC   C3A57593  37.496   8.019   6.869
 4389POPC   C4A57594  37.691   8.223   7.202
 4389POPC   C1B57595  37.924   8.031   6.184
 4389POPC   C2B57596  37.971   8.090   6.642
 4389POPC   C3B57597  38.105   7.975   7.049
 4389POPC   C4B57598  38.023   7.971   7.531
 4390POPC   NC357599  35.743   9.209   5.349
 4390POPC   PO457600  36.345   8.800   5.152
 4390POPC   GL157601  36.181   8.884   5.604
 4390POPC   GL257602  35.923   8.849   5.838
 4390POPC   C1A57603  36.353   9.016   6.054
 4390POPC   D2A57604  36.219   8.932   6.470
 4390POPC   C3A57605  36.205   9.178   6.888
 4390POPC   C4A57606  36.288   9.264   7.343
 4390POPC   C1B57607  35.737   8.727   6.234
 4390POPC   C2B57608  35.871   8.620   6.650
 4390POPC   C3B57609  35.765   8.744   7.035
 4390POPC   C4B57610  35.744   9.048   7.345
 4391POPC   NC357611   3.481  28.714   5.507
 4391POPC   PO457612   3.785  29.374   5.466
 4391POPC   GL157613   3.568  29.402   5.840
 4391POPC   GL257614   3.372  29.090   5.846
 4391POPC   C1A57615   3.635  29.241   6.265
 4391POPC   D2A57616   3.625  28.982   6.642
 4391POPC   C3A57617   3.608  29.278   6.964
 4391POPC   C4A57618   3.778  29.426   7.348
 4391POPC   C1B57619   3.132  29.139   6.241
 4391POPC   C2B57620   3.103  28.946   6.662
 4391POPC   C3B57621   3.114  29.079   7.088
 4391POPC   C4B57622   3.439  29.062   7.403
 4392POPC   NC357623   2.809   5.426   5.508
 4392POPC   PO457624   3.005   4.793   5.396
 4392POPC   GL157625   2.662   4.839   5.726
 4392POPC   GL257626   2.428   5.147   5.719
 4392POPC   C1A57627   2.712   4.987   6.157
 4392POPC   D2A57628   2.650   5.188   6.560
 4392POPC   C3A57629   2.814   4.967   6.935
 4392POPC   C4A57630   2.759   4.878   7.362
 4392POPC   C1B57631   2.445   5.445   6.081
 4392POPC   C2B57632   2.383   5.649   6.484
 4392POPC   C3B57633   2.630   5.623   6.857
 4392POPC   C4B57634   2.674   5.361   7.202
 4393POPC   NC357635  11.663   1.436   5.197
 4393POPC   PO457636  11.826   0.861   5.447
 4393POPC   GL157637  12.163   1.180   5.639
 4393POPC   GL257638  12.113   1.529   5.707
 4393POPC   C1A57639  12.379   1.296   6.061
 4393POPC   D2A57640  12.211   1.227   6.510
 4393POPC   C3A57641  12.436   1.226   6.918
 4393POPC   C4A57642  12.318   1.315   7.365
 4393POPC   C1B57643  12.069   1.718   6.111
 4393POPC   C2B57644  11.879   1.711   6.509
 4393POPC   C3B57645  12.004   1.528   6.921
 4393POPC   C4B57646  11.812   1.435   7.317
 4394POPC   NC357647   6.285  23.499   5.439
 4394POPC   PO457648   6.809  23.915   5.438
 4394POPC   GL157649   6.589  23.706   5.792
 4394POPC   GL257650   6.751  23.394   5.841
 4394POPC   C1A57651   6.471  23.591   6.248
 4394POPC   D2A57652   6.494  23.778   6.698
 4394POPC   C3A57653   6.461  23.507   7.065
 4394POPC   C4A57654   6.611  23.501   7.478
 4394POPC   C1B57655   6.893  23.180   6.181
 4394POPC   C2B57656   6.828  23.400   6.577
 4394POPC   C3B57657   6.971  23.596   6.969
 4394POPC   C4B57658   7.107  23.433   7.370
 4395POPC   NC357659  21.291  34.932   5.450
 4395POPC   PO457660  21.190  34.263   5.353
 4395POPC   GL157661  21.358  34.465   5.728
 4395POPC   GL257662  21.037  34.599   5.773
 4395POPC   C1A57663  21.619  34.491   6.144
 4395POPC   D2A57664  21.466  34.476   6.601
 4395POPC   C3A57665  21.525  34.537   7.076
 4395POPC   C4A57666  21.330  34.301   7.439
 4395POPC   C1B57667  21.110  34.438   6.205
 4395POPC   C2B57668  20.967  34.572   6.621
 4395POPC   C3B57669  21.016  34.538   7.063
 4395POPC   C4B57670  21.161  34.801   7.413
 4396POPC   NC357671  33.106  37.971   5.535
 4396POPC   PO457672  33.521  38.328   5.306
 4396POPC   GL157673  33.337  38.393   5.751
 4396POPC   GL257674  33.506  38.074   5.809
 4396POPC   C1A57675  32.956  38.453   6.134
 4396POPC   D2A57676  32.817  38.265   6.606
 4396POPC   C3A57677  32.703  38.399   7.075
 4396POPC   C4A57678  32.679  38.349   7.574
 4396POPC   C1B57679  33.331  38.141   6.196
 4396POPC   C2B57680  33.308  38.412   6.551
 4396POPC   C3B57681  33.219  38.295   6.972
 4396POPC   C4B57682  33.128  38.400   7.369
 4397POPC   NC357683  41.583  28.945   5.412
 4397POPC   PO457684  40.982  29.306   5.434
 4397POPC   GL157685  41.205  29.374   5.837
 4397POPC   GL257686  41.456  29.049   5.924
 4397POPC   C1A57687  41.283  29.377   6.274
 4397POPC   D2A57688  41.594  29.176   6.517
 4397POPC   C3A57689  41.517  29.351   6.894
 4397POPC   C4A57690  41.819  29.479   7.183
 4397POPC   C1B57691  41.770  28.770   6.197
 4397POPC   C2B57692  41.812  28.565   6.624
 4397POPC   C3B57693  41.829  28.857   6.987
 4397POPC   C4B57694  41.446  28.947   7.153
 4398POPC   NC357695   8.500  16.788   5.614
 4398POPC   PO457696   7.908  16.482   5.420
 4398POPC   GL157697   8.064  16.659   5.871
 4398POPC   GL257698   8.215  17.014   5.957
 4398POPC   C1A57699   8.230  16.694   6.334
 4398POPC   D2A57700   8.288  16.782   6.779
 4398POPC   C3A57701   7.982  16.571   7.065
 4398POPC   C4A57702   7.900  16.366   7.481
 4398POPC   C1B57703   8.632  17.046   6.211
 4398POPC   C2B57704   8.771  17.018   6.657
 4398POPC   C3B57705   8.643  17.086   7.078
 4398POPC   C4B57706   8.512  17.059   7.569
 4399POPC   NC357707  39.111  13.034   5.381
 4399POPC   PO457708  39.796  12.913   5.239
 4399POPC   GL157709  39.559  12.922   5.687
 4399POPC   GL257710  39.510  13.264   5.756
 4399POPC   C1A57711  39.360  12.797   6.118
 4399POPC   D2A57712  39.442  12.906   6.572
 4399POPC   C3A57713  39.174  12.771   6.933
 4399POPC   C4A57714  39.327  12.525   7.276
 4399POPC   C1B57715  39.326  13.304   6.154
 4399POPC   C2B57716  39.364  13.443   6.555
 4399POPC   C3B57717  39.353  13.271   6.965
 4399POPC   C4B57718  39.582  12.959   7.189
 4400POPC   NC357719  27.775  27.670   5.383
 4400POPC   PO457720  27.348  27.145   5.384
 4400POPC   GL157721  27.410  27.483   5.740
 4400POPC   GL257722  27.440  27.884   5.743
 4400POPC   C1A57723  27.643  27.417   6.139
 4400POPC   D2A57724  27.883  27.344   6.540
 4400POPC   C3A57725  27.638  27.212   6.918
 4400POPC   C4A57726  27.723  27.283   7.353
 4400POPC   C1B57727  27.649  27.922   6.130
 4400POPC   C2B57728  27.475  27.765   6.499
 4400POPC   C3B57729  27.658  27.751   6.874
 4400POPC   C4B57730  27.455  27.701   7.262
 4401POPC   NC357731  44.418   9.393   5.560
 4401POPC   PO457732  44.683   8.887   5.172
 4401POPC   GL157733  44.644   8.939   5.682
 4401POPC   GL257734  44.853   8.715   5.840
 4401POPC   C1A57735  44.808   9.112   6.139
 4401POPC   D2A57736  44.595   9.142   6.537
 4401POPC   C3A57737  44.764   9.123   6.947
 4401POPC   C4A57738  44.536   9.109   7.316
 4401POPC   C1B57739  44.630   8.636   6.204
 4401POPC   C2B57740  44.716   8.643   6.637
 4401POPC   C3B57741  44.522   8.661   7.043
 4401POPC   C4B57742  44.660   8.543   7.466
 4402POPC   NC357743  34.894  16.382   5.195
 4402POPC   PO457744  34.515  15.802   5.507
 4402POPC   GL157745  34.652  16.057   5.857
 4402POPC   GL257746  34.955  16.249   5.752
 4402POPC   C1A57747  34.647  15.881   6.269
 4402POPC   D2A57748  34.608  15.526   6.533
 4402POPC   C3A57749  34.740  15.700   6.906
 4402POPC   C4A57750  34.593  16.013   7.216
 4402POPC   C1B57751  34.952  16.286   6.228
 4402POPC   C2B57752  34.764  16.187   6.690
 4402POPC   C3B57753  34.927  16.382   7.116
 4402POPC   C4B57754  35.103  16.329   7.556
 4403POPC   NC357755  32.532  14.465   5.380
 4403POPC   PO457756  32.046  14.029   5.437
 4403POPC   GL157757  32.287  14.212   5.816
 4403POPC   GL257758  32.247  14.564   5.857
 4403POPC   C1A57759  32.218  14.302   6.286
 4403POPC   D2A57760  32.424  14.513   6.654
 4403POPC   C3A57761  32.227  14.364   7.029
 4403POPC   C4A57762  31.836  14.118   7.116
 4403POPC   C1B57763  32.337  14.815   6.220
 4403POPC   C2B57764  32.129  15.003   6.566
 4403POPC   C3B57765  32.243  14.889   6.976
 4403POPC   C4B57766  32.436  14.746   7.336
 4404POPC   NC357767  15.220   7.908   5.314
 4404POPC   PO457768  15.047   7.362   5.544
 4404POPC   GL157769  15.193   7.544   5.843
 4404POPC   GL257770  15.501   7.674   5.675
 4404POPC   C1A57771  15.179   7.429   6.253
 4404POPC   D2A57772  15.115   7.540   6.657
 4404POPC   C3A57773  15.212   7.291   7.000
 4404POPC   C4A57774  15.104   7.070   7.348
 4404POPC   C1B57775  15.538   7.776   6.116
 4404POPC   C2B57776  15.581   7.840   6.559
 4404POPC   C3B57777  15.538   7.679   6.987
 4404POPC   C4B57778  15.427   7.875   7.413
 4405POPC   NC357779  13.340   9.208   5.320
 4405POPC   PO457780  13.984   8.815   5.419
 4405POPC   GL157781  13.728   8.904   5.787
 4405POPC   GL257782  13.545   9.222   5.796
 4405POPC   C1A57783  13.528   8.864   6.209
 4405POPC   D2A57784  13.465   8.671   6.600
 4405POPC   C3A57785  13.684   8.919   6.878
 4405POPC   C4A57786  13.699   8.780   7.269
 4405POPC   C1B57787  13.274   9.302   6.156
 4405POPC   C2B57788  13.219   9.128   6.593
 4405POPC   C3B57789  13.187   9.355   6.964
 4405POPC   C4B57790  13.461   9.213   7.234
 4406POPC   NC357791   2.367  26.341   5.502
 4406POPC   PO457792   2.929  26.080   5.368
 4406POPC   GL157793   2.748  26.130   5.789
 4406POPC   GL257794   2.489  25.883   5.752
 4406POPC   C1A57795   2.842  26.129   6.238
 4406POPC   D2A57796   3.115  25.863   6.515
 4406POPC   C3A57797   3.112  26.010   6.945
 4406POPC   C4A57798   2.799  26.118   7.279
 4406POPC   C1B57799   2.365  25.884   6.194
 4406POPC   C2B57800   2.573  25.897   6.628
 4406POPC   C3B57801   2.396  25.817   7.055
 4406POPC   C4B57802   2.511  25.763   7.513
 4407POPC   NC357803  24.004  31.095   5.301
 4407POPC   PO457804  23.664  30.484   5.375
 4407POPC   GL157805  23.633  30.546   5.810
 4407POPC   GL257806  23.871  30.784   5.779
 4407POPC   C1A57807  23.502  30.579   6.280
 4407POPC   D2A57808  23.209  30.543   6.633
 4407POPC   C3A57809  23.411  30.468   7.016
 4407POPC   C4A57810  23.743  30.413   7.313
 4407POPC   C1B57811  24.012  30.573   6.181
 4407POPC   C2B57812  23.876  30.401   6.594
 4407POPC   C3B57813  24.103  30.465   6.969
 4407POPC   C4B57814  24.240  30.812   7.203
 4408POPC   NC357815   4.573  44.539   5.456
 4408POPC   PO457816   3.920  44.470   5.607
 4408POPC   GL157817   4.202  44.652   5.887
 4408POPC   GL257818   4.514  44.508   5.956
 4408POPC   C1A57819   4.155  44.704   6.328
 4408POPC   D2A57820   4.175  44.965   6.698
 4408POPC   C3A57821   4.060  44.749   7.088
 4408POPC   C4A57822   4.116  44.365   7.237
 4408POPC   C1B57823   4.631  44.892   6.184
 4408POPC   C2B57824   4.677   0.028   6.626
 4408POPC   C3B57825   4.568  44.712   6.965
 4408POPC   C4B57826   4.622  44.460   7.337
 4409POPC   NC357827  36.370   5.976   5.479
 4409POPC   PO457828  35.810   5.858   5.144
 4409POPC   GL157829  35.929   5.799   5.666
 4409POPC   GL257830  36.213   5.611   5.823
 4409POPC   C1A57831  36.085   6.034   6.110
 4409POPC   D2A57832  35.923   6.161   6.548
 4409POPC   C3A57833  36.036   6.011   6.980
 4409POPC   C4A57834  35.808   5.809   7.304
 4409POPC   C1B57835  36.485   5.716   6.169
 4409POPC   C2B57836  36.345   5.845   6.580
 4409POPC   C3B57837  36.511   5.799   7.005
 4409POPC   C4B57838  36.397   5.838   7.436
 4410POPC   NC357839   4.110  21.219   4.947
 4410POPC   PO457840   4.645  21.430   5.260
 4410POPC   GL157841   4.361  21.395   5.654
 4410POPC   GL257842   4.581  21.157   5.808
 4410POPC   C1A57843   4.067  21.426   6.055
 4410POPC   D2A57844   4.219  21.462   6.500
 4410POPC   C3A57845   4.041  21.301   6.878
 4410POPC   C4A57846   4.180  21.406   7.281
 4410POPC   C1B57847   4.603  21.448   6.130
 4410POPC   C2B57848   4.699  21.270   6.516
 4410POPC   C3B57849   4.593  21.302   6.965
 4410POPC   C4B57850   4.672  21.626   7.304
 4411POPC   NC357851  25.132  23.643   5.389
 4411POPC   PO457852  25.665  24.085   5.521
 4411POPC   GL157853  25.454  23.666   5.793
 4411POPC   GL257854  25.071  23.548   5.871
 4411POPC   C1A57855  25.376  23.557   6.257
 4411POPC   D2A57856  25.625  23.542   6.608
 4411POPC   C3A57857  25.330  23.575   6.925
 4411POPC   C4A57858  25.136  23.465   7.295
 4411POPC   C1B57859  24.876  23.820   6.171
 4411POPC   C2B57860  24.713  23.808   6.595
 4411POPC   C3B57861  24.871  23.818   7.010
 4411POPC   C4B57862  24.942  23.918   7.454
 4412POPC   NC357863  10.090  34.534   5.404
 4412POPC   PO457864   9.468  34.295   5.299
 4412POPC   GL157865   9.652  34.524   5.698
 4412POPC   GL257866   9.942  34.345   5.857
 4412POPC   C1A57867   9.720  34.747   6.134
 4412POPC   D2A57868   9.560  34.627   6.569
 4412POPC   C3A57869   9.757  34.780   6.941
 4412POPC   C4A57870   9.569  34.652   7.303
 4412POPC   C1B57871   9.855  34.281   6.299
 4412POPC   C2B57872   9.974  34.247   6.711
 4412POPC   C3B57873   9.919  34.319   7.142
 4412POPC   C4B57874  10.061  34.665   7.417
 4413POPC   NC357875  20.014  29.114   5.474
 4413POPC   PO457876  19.706  29.578   5.408
 4413POPC   GL157877  19.769  29.391   5.824
 4413POPC   GL257878  19.550  29.104   5.793
 4413POPC   C1A57879  19.930  29.313   6.252
 4413POPC   D2A57880  20.174  29.291   6.640
 4413POPC   C3A57881  19.974  29.164   7.021
 4413POPC   C4A57882  19.752  29.286   7.367
 4413POPC   C1B57883  19.434  29.252   6.231
 4413POPC   C2B57884  19.603  29.217   6.682
 4413POPC   C3B57885  19.362  29.144   7.100
 4413POPC   C4B57886  19.258  29.090   7.577
 4414POPC   NC357887  37.365  23.849   5.385
 4414POPC   PO457888  37.723  23.342   5.502
 4414POPC   GL157889  37.646  23.606   5.824
 4414POPC   GL257890  37.728  23.961   5.815
 4414POPC   C1A57891  37.666  23.443   6.211
 4414POPC   D2A57892  37.474  23.322   6.555
 4414POPC   C3A57893  37.632  23.477   6.882
 4414POPC   C4A57894  37.714  23.410   7.289
 4414POPC   C1B57895  37.541  23.943   6.245
 4414POPC   C2B57896  37.345  23.858   6.669
 4414POPC   C3B57897  37.491  23.895   7.128
 4414POPC   C4B57898  37.522  24.074   7.531
 4415POPC   NC357899  33.102   0.408   5.445
 4415POPC   PO457900  32.685   0.973   5.475
 4415POPC   GL157901  32.954   0.760   5.832
 4415POPC   GL257902  33.310   0.620   5.878
 4415POPC   C1A57903  32.982   0.548   6.268
 4415POPC   D2A57904  33.089   0.723   6.674
 4415POPC   C3A57905  32.861   0.562   7.040
 4415POPC   C4A57906  33.038   0.453   7.444
 4415POPC   C1B57907  33.262   0.163   6.074
 4415POPC   C2B57908  33.144   0.095   6.519
 4415POPC   C3B57909  33.277   0.278   6.922
 4415POPC   C4B57910  33.332   0.066   7.307
 4416POPC   NC357911   7.822  23.345   5.521
 4416POPC   PO457912   8.098  23.930   5.251
 4416POPC   GL157913   8.157  24.022   5.748
 4416POPC   GL257914   8.149  23.647   5.867
 4416POPC   C1A57915   8.218  23.973   6.239
 4416POPC   D2A57916   8.213  23.656   6.602
 4416POPC   C3A57917   7.987  23.826   6.952
 4416POPC   C4A57918   8.162  24.070   7.251
 4416POPC   C1B57919   7.840  23.582   6.243
 4416POPC   C2B57920   7.870  23.239   6.562
 4416POPC   C3B57921   8.016  23.328   6.987
 4416POPC   C4B57922   8.344  23.584   7.196
 4417POPC   NC357923   3.433  12.185   5.313
 4417POPC   PO457924   3.637  11.689   5.577
 4417POPC   GL157925   3.468  11.935   5.875
 4417POPC   GL257926   3.140  11.814   5.833
 4417POPC   C1A57927   3.387  12.046   6.314
 4417POPC   D2A57928   3.548  12.365   6.602
 4417POPC   C3A57929   3.910  12.266   6.864
 4417POPC   C4A57930   3.845  12.225   7.279
 4417POPC   C1B57931   3.291  11.504   6.148
 4417POPC   C2B57932   3.565  11.566   6.477
 4417POPC   C3B57933   3.555  11.863   6.814
 4417POPC   C4B57934   3.544  11.763   7.239
 4418POPC   NC357935  41.821  27.979   5.515
 4418POPC   PO457936  41.449  28.492   5.399
 4418POPC   GL157937  41.487  28.497   5.828
 4418POPC   GL257938  41.442  28.134   5.869
 4418POPC   C1A57939  41.337  28.484   6.250
 4418POPC   D2A57940  41.379  28.217   6.579
 4418POPC   C3A57941  41.388  28.428   6.976
 4418POPC   C4A57942  41.781  28.400   7.198
 4418POPC   C1B57943  41.796  28.226   6.178
 4418POPC   C2B57944  41.880  27.997   6.550
 4418POPC   C3B57945  41.685  27.972   6.926
 4418POPC   C4B57946  41.845  27.897   7.308
 4419POPC   NC357947  13.814  21.639   5.455
 4419POPC   PO457948  13.202  21.341   5.459
 4419POPC   GL157949  13.499  21.157   5.720
 4419POPC   GL257950  13.790  21.004   5.556
 4419POPC   C1A57951  13.562  21.347   6.119
 4419POPC   D2A57952  13.403  21.343   6.520
 4419POPC   C3A57953  13.505  21.639   6.816
 4419POPC   C4A57954  13.565  21.539   7.245
 4419POPC   C1B57955  13.874  20.966   6.023
 4419POPC   C2B57956  13.920  21.163   6.449
 4419POPC   C3B57957  13.758  21.200   6.870
 4419POPC   C4B57958  13.924  21.186   7.301
 4420POPC   NC357959  23.419  32.621   5.448
 4420POPC   PO457960  23.951  32.188   5.472
 4420POPC   GL157961  23.943  32.255   5.887
 4420POPC   GL257962  23.599  32.381   5.859
 4420POPC   C1A57963  23.727  32.063   6.242
 4420POPC   D2A57964  23.637  32.246   6.627
 4420POPC   C3A57965  23.664  31.978   6.983
 4420POPC   C4A57966  23.999  31.730   7.056
 4420POPC   C1B57967  23.633  32.598   6.234
 4420POPC   C2B57968  23.879  32.698   6.567
 4420POPC   C3B57969  23.831  32.561   6.974
 4420POPC   C4B57970  23.494  32.785   7.103
 4421POPC   NC357971  23.397  33.712   5.476
 4421POPC   PO457972  23.947  34.051   5.160
 4421POPC   GL157973  23.889  33.722   5.596
 4421POPC   GL257974  23.868  33.929   5.942
 4421POPC   C1A57975  23.872  33.445   6.002
 4421POPC   D2A57976  23.697  33.572   6.414
 4421POPC   C3A57977  23.885  33.548   6.825
 4421POPC   C4A57978  23.838  33.591   7.267
 4421POPC   C1B57979  23.550  34.030   6.235
 4421POPC   C2B57980  23.421  34.028   6.630
 4421POPC   C3B57981  23.471  33.830   6.995
 4421POPC   C4B57982  23.700  34.086   7.244
 4422POPC   NC357983   8.657  38.747   5.608
 4422POPC   PO457984   8.137  38.312   5.405
 4422POPC   GL157985   8.272  38.308   5.798
 4422POPC   GL257986   8.172  38.658   5.843
 4422POPC   C1A57987   8.092  38.206   6.220
 4422POPC   D2A57988   8.160  38.423   6.618
 4422POPC   C3A57989   7.897  38.533   6.974
 4422POPC   C4A57990   7.939  38.334   7.363
 4422POPC   C1B57991   8.450  38.578   6.191
 4422POPC   C2B57992   8.556  38.768   6.530
 4422POPC   C3B57993   8.322  38.845   6.872
 4422POPC   C4B57994   8.328  38.689   7.269
 4423POPC   NC357995  16.541  11.330   5.198
 4423POPC   PO457996  17.095  11.482   5.601
 4423POPC   GL157997  16.795  11.223   5.831
 4423POPC   GL257998  16.934  10.921   5.965
 4423POPC   C1A57999  16.516  11.291   6.175
 4423POPC   D2A58000  16.428  11.565   6.523
 4423POPC   C3A58001  16.370  11.390   6.944
 4423POPC   C4A58002  16.655  11.218   7.274
 4423POPC   C1B58003  16.976  11.028   6.384
 4423POPC   C2B58004  17.087  11.142   6.801
 4423POPC   C3B58005  17.002  11.507   7.025
 4423POPC   C4B58006  16.911  11.653   7.439
 4424POPC   NC358007   4.634  23.521   5.453
 4424POPC   PO458008   4.103  23.833   5.394
 4424POPC   GL158009   4.201  23.982   5.806
 4424POPC   GL258010   4.552  23.868   5.828
 4424POPC   C1A58011   4.246  23.814   6.243
 4424POPC   D2A58012   4.442  23.921   6.643
 4424POPC   C3A58013   4.128  24.032   6.937
 4424POPC   C4A58014   4.062  23.852   7.358
 4424POPC   C1B58015   4.717  24.030   6.216
 4424POPC   C2B58016   4.952  24.182   6.555
 4424POPC   C3B58017   4.788  24.220   6.960
 4424POPC   C4B58018   4.577  23.917   7.155
 4425POPC   NC358019  28.284  40.591   5.470
 4425POPC   PO458020  28.159  39.993   5.522
 4425POPC   GL158021  28.307  40.133   5.946
 4425POPC   GL258022  28.595  40.338   5.915
 4425POPC   C1A58023  28.207  40.242   6.399
 4425POPC   D2A58024  27.992  39.984   6.726
 4425POPC   C3A58025  28.198  39.577   6.843
 4425POPC   C4A58026  28.635  39.452   6.841
 4425POPC   C1B58027  28.690  40.074   6.319
 4425POPC   C2B58028  28.521  39.981   6.745
 4425POPC   C3B58029  28.290  40.297   7.010
 4425POPC   C4B58030  28.161  40.565   7.346
 4426POPC   NC358031  37.200  25.322   5.416
 4426POPC   PO458032  36.561  25.531   5.601
 4426POPC   GL158033  36.802  25.227   5.897
 4426POPC   GL258034  37.181  25.074   5.861
 4426POPC   C1A58035  36.998  25.184   6.315
 4426POPC   D2A58036  37.222  25.407   6.603
 4426POPC   C3A58037  36.932  25.374   6.896
 4426POPC   C4A58038  36.942  25.193   7.250
 4426POPC   C1B58039  37.322  24.804   6.237
 4426POPC   C2B58040  37.326  24.898   6.682
 4426POPC   C3B58041  37.313  24.845   7.142
 4426POPC   C4B58042  37.214  24.928   7.615
 4427POPC   NC358043   9.487  13.982   5.544
 4427POPC   PO458044   9.804  13.544   5.057
 4427POPC   GL158045   9.925  13.491   5.575
 4427POPC   GL258046   9.982  13.202   5.822
 4427POPC   C1A58047   9.930  13.719   5.985
 4427POPC   D2A58048   9.834  13.975   6.373
 4427POPC   C3A58049   9.969  13.788   6.784
 4427POPC   C4A58050   9.716  13.812   7.172
 4427POPC   C1B58051   9.630  13.315   6.103
 4427POPC   C2B58052   9.399  13.400   6.455
 4427POPC   C3B58053   9.485  13.463   6.886
 4427POPC   C4B58054   9.771  13.298   7.218
 4428POPC   NC358055  22.545  30.424   5.442
 4428POPC   PO458056  22.018  30.885   5.397
 4428POPC   GL158057  22.252  30.720   5.767
 4428POPC   GL258058  22.046  30.459   5.921
 4428POPC   C1A58059  22.363  30.803   6.196
 4428POPC   D2A58060  22.126  30.870   6.564
 4428POPC   C3A58061  22.254  30.851   6.999
 4428POPC   C4A58062  22.134  30.446   7.189
 4428POPC   C1B58063  21.861  30.903   6.079
 4428POPC   C2B58064  21.660  31.045   6.497
 4428POPC   C3B58065  21.773  31.003   6.937
 4428POPC   C4B58066  21.893  30.884   7.359
 4429POPC   NC358067  27.402  20.118   5.436
 4429POPC   PO458068  27.452  19.443   5.451
 4429POPC   GL158069  27.548  19.735   5.777
 4429POPC   GL258070  27.793  19.999   5.758
 4429POPC   C1A58071  27.474  19.851   6.199
 4429POPC   D2A58072  27.579  19.666   6.573
 4429POPC   C3A58073  27.327  19.786   6.839
 4429POPC   C4A58074  27.386  19.839   7.225
 4429POPC   C1B58075  27.956  19.931   6.146
 4429POPC   C2B58076  28.059  19.863   6.572
 4429POPC   C3B58077  27.886  19.830   6.996
 4429POPC   C4B58078  27.800  20.135   7.315
 4430POPC   NC358079  38.564  22.629   5.458
 4430POPC   PO458080  38.323  23.286   5.431
 4430POPC   GL158081  38.483  23.132   5.775
 4430POPC   GL258082  38.284  22.886   5.839
 4430POPC   C1A58083  38.556  23.225   6.237
 4430POPC   D2A58084  38.416  23.014   6.644
 4430POPC   C3A58085  38.557  23.160   7.103
 4430POPC   C4A58086  38.623  23.119   7.556
 4430POPC   C1B58087  38.662  22.770   6.085
 4430POPC   C2B58088  38.897  22.780   6.469
 4430POPC   C3B58089  38.782  22.749   6.896
 4430POPC   C4B58090  38.733  22.646   7.315
 4431POPC   NC358091  33.629  24.919   5.541
 4431POPC   PO458092  33.699  24.261   5.364
 4431POPC   GL158093  33.770  24.367   5.756
 4431POPC   GL258094  33.463  24.506   5.790
 4431POPC   C1A58095  33.994  24.206   6.095
 4431POPC   D2A58096  33.962  24.163   6.535
 4431POPC   C3A58097  33.967  24.499   6.838
 4431POPC   C4A58098  33.749  24.334   7.183
 4431POPC   C1B58099  33.696  24.661   6.177
 4431POPC   C2B58100  33.619  24.837   6.599
 4431POPC   C3B58101  33.498  24.754   7.008
 4431POPC   C4B58102  33.710  24.789   7.405
 4432POPC   NC358103  13.395  19.325   5.474
 4432POPC   PO458104  13.834  18.817   5.465
 4432POPC   GL158105  13.639  19.013   5.855
 4432POPC   GL258106  13.752  19.328   5.882
 4432POPC   C1A58107  13.688  19.159   6.329
 4432POPC   D2A58108  13.719  19.383   6.669
 4432POPC   C3A58109  13.548  19.019   6.843
 4432POPC   C4A58110  13.548  19.004   7.243
 4432POPC   C1B58111  13.406  19.531   6.137
 4432POPC   C2B58112  13.223  19.395   6.548
 4432POPC   C3B58113  13.326  19.447   7.013
 4432POPC   C4B58114  13.253  19.330   7.497
 4433POPC   NC358115  26.867  21.605   5.400
 4433POPC   PO458116  26.446  21.127   5.375
 4433POPC   GL158117  26.681  21.298   5.789
 4433POPC   GL258118  26.929  21.581   5.886
 4433POPC   C1A58119  26.863  21.218   6.219
 4433POPC   D2A58120  26.773  21.312   6.647
 4433POPC   C3A58121  26.668  20.967   6.945
 4433POPC   C4A58122  26.569  20.936   7.411
 4433POPC   C1B58123  26.615  21.703   6.184
 4433POPC   C2B58124  26.787  21.864   6.561
 4433POPC   C3B58125  26.988  21.707   6.928
 4433POPC   C4B58126  26.857  21.845   7.320
 4434POPC   NC358127  10.916   6.823   5.413
 4434POPC   PO458128  11.589   6.716   5.386
 4434POPC   GL158129  11.504   6.747   5.817
 4434POPC   GL258130  11.156   6.698   5.858
 4434POPC   C1A58131  11.480   6.600   6.236
 4434POPC   D2A58132  11.216   6.532   6.589
 4434POPC   C3A58133  11.451   6.576   6.945
 4434POPC   C4A58134  11.463   6.325   7.311
 4434POPC   C1B58135  11.065   6.916   6.266
 4434POPC   C2B58136  10.953   6.954   6.691
 4434POPC   C3B58137  10.940   6.732   7.068
 4434POPC   C4B58138  10.895   6.954   7.433
 4435POPC   NC358139  18.429  20.315   5.451
 4435POPC   PO458140  17.889  20.779   5.427
 4435POPC   GL158141  18.206  20.636   5.793
 4435POPC   GL258142  18.473  20.382   5.941
 4435POPC   C1A58143  18.367  20.791   6.202
 4435POPC   D2A58144  18.156  20.744   6.576
 4435POPC   C3A58145  18.449  20.680   6.907
 4435POPC   C4A58146  18.366  20.577   7.319
 4435POPC   C1B58147  18.076  20.343   6.212
 4435POPC   C2B58148  18.044  20.228   6.658
 4435POPC   C3B58149  18.277  20.104   7.047
 4435POPC   C4B58150  18.237  20.139   7.523
 4436POPC   NC358151  25.928  37.003   5.200
 4436POPC   PO458152  26.210  36.843   5.773
 4436POPC   GL158153  25.838  36.852   5.937
 4436POPC   GL258154  25.662  37.131   5.801
 4436POPC   C1A58155  25.850  36.798   6.364
 4436POPC   D2A58156  25.747  36.937   6.741
 4436POPC   C3A58157  26.013  36.829   7.079
 4436POPC   C4A58158  26.340  36.535   7.228
 4436POPC   C1B58159  25.696  37.303   6.232
 4436POPC   C2B58160  25.471  37.343   6.638
 4436POPC   C3B58161  25.692  37.354   7.040
 4436POPC   C4B58162  26.004  37.296   7.355
 4437POPC   NC358163  12.986  31.793   5.526
 4437POPC   PO458164  12.686  31.218   5.522
 4437POPC   GL158165  13.023  31.348   5.803
 4437POPC   GL258166  12.934  31.635   5.990
 4437POPC   C1A58167  13.228  31.345   6.240
 4437POPC   D2A58168  13.049  31.692   6.505
 4437POPC   C3A58169  13.212  31.750   6.917
 4437POPC   C4A58170  13.141  31.417   7.173
 4437POPC   C1B58171  12.643  31.472   6.243
 4437POPC   C2B58172  12.498  31.599   6.628
 4437POPC   C3B58173  12.688  31.771   6.951
 4437POPC   C4B58174  12.676  31.543   7.284
 4438POPC   NC358175  12.984  25.452   5.543
 4438POPC   PO458176  12.751  24.959   5.211
 4438POPC   GL158177  12.804  25.032   5.763
 4438POPC   GL258178  12.601  25.316   5.850
 4438POPC   C1A58179  13.024  25.328   6.182
 4438POPC   D2A58180  13.172  25.465   6.640
 4438POPC   C3A58181  12.917  25.358   7.041
 4438POPC   C4A58182  12.998  25.118   7.453
 4438POPC   C1B58183  12.579  25.110   6.244
 4438POPC   C2B58184  12.608  25.280   6.632
 4438POPC   C3B58185  12.492  25.085   7.018
 4438POPC   C4B58186  12.584  24.851   7.402
 4439POPC   NC358187  31.309  25.285   5.391
 4439POPC   PO458188  31.783  24.767   5.209
 4439POPC   GL158189  31.625  25.053   5.693
 4439POPC   GL258190  31.379  25.307   5.884
 4439POPC   C1A58191  31.634  25.011   6.184
 4439POPC   D2A58192  31.384  25.248   6.492
 4439POPC   C3A58193  31.350  25.038   6.880
 4439POPC   C4A58194  31.666  25.036   7.178
 4439POPC   C1B58195  31.644  25.564   6.183
 4439POPC   C2B58196  31.580  25.749   6.572
 4439POPC   C3B58197  31.622  25.499   6.948
 4439POPC   C4B58198  31.748  25.475   7.392
 4440POPC   NC358199  36.784  42.573   5.481
 4440POPC   PO458200  36.749  42.031   5.064
 4440POPC   GL158201  37.022  42.099   5.537
 4440POPC   GL258202  37.168  42.414   5.725
 4440POPC   C1A58203  37.096  42.023   6.032
 4440POPC   D2A58204  36.974  42.051   6.501
 4440POPC   C3A58205  37.192  41.995   6.888
 4440POPC   C4A58206  37.118  42.222   7.258
 4440POPC   C1B58207  36.926  42.519   6.129
 4440POPC   C2B58208  36.840  42.548   6.592
 4440POPC   C3B58209  36.872  42.752   7.005
 4440POPC   C4B58210  37.037  42.712   7.433
 4441POPC   NC358211  28.636  17.514   5.382
 4441POPC   PO458212  28.040  17.105   5.460
 4441POPC   GL158213  28.284  17.359   5.782
 4441POPC   GL258214  28.396  17.698   5.790
 4441POPC   C1A58215  28.482  17.367   6.195
 4441POPC   D2A58216  28.567  17.183   6.601
 4441POPC   C3A58217  28.652  17.355   7.006
 4441POPC   C4A58218  28.389  17.515   7.351
 4441POPC   C1B58219  28.148  17.794   6.133
 4441POPC   C2B58220  28.212  17.632   6.524
 4441POPC   C3B58221  28.301  17.707   6.885
 4441POPC   C4B58222  27.980  17.738   7.129
 4442POPC   NC358223  37.053   0.343   5.339
 4442POPC   PO458224  36.589   0.798   5.561
 4442POPC   GL158225  36.894   0.740   5.848
 4442POPC   GL258226  36.947   0.380   5.832
 4442POPC   C1A58227  36.902   0.666   6.293
 4442POPC   D2A58228  36.938   0.360   6.616
 4442POPC   C3A58229  36.682   0.312   6.986
 4442POPC   C4A58230  36.702   0.587   7.355
 4442POPC   C1B58231  37.099   0.123   6.164
 4442POPC   C2B58232  37.395   0.172   6.490
 4442POPC   C3B58233  37.362   0.211   6.915
 4442POPC   C4B58234  37.088   0.111   7.239
 4443POPC   NC358235  11.573  24.522   5.393
 4443POPC   PO458236  11.028  24.883   5.348
 4443POPC   GL158237  11.213  24.702   5.755
 4443POPC   GL258238  11.259  24.351   5.796
 4443POPC   C1A58239  11.167  24.635   6.214
 4443POPC   D2A58240  11.338  24.810   6.604
 4443POPC   C3A58241  11.056  24.719   6.937
 4443POPC   C4A58242  11.059  24.270   7.063
 4443POPC   C1B58243  11.449  24.121   6.142
 4443POPC   C2B58244  11.597  24.104   6.551
 4443POPC   C3B58245  11.482  23.980   6.957
 4443POPC   C4B58246  11.492  24.254   7.335
 4444POPC   NC358247   3.034  43.441   5.537
 4444POPC   PO458248   3.402  43.977   5.304
 4444POPC   GL158249   3.431  43.808   5.700
 4444POPC   GL258250   3.647  43.511   5.644
 4444POPC   C1A58251   3.389  43.986   6.133
 4444POPC   D2A58252   3.267  44.206   6.529
 4444POPC   C3A58253   3.419  43.982   6.889
 4444POPC   C4A58254   3.793  44.009   7.079
 4444POPC   C1B58255   3.552  43.496   6.091
 4444POPC   C2B58256   3.646  43.717   6.487
 4444POPC   C3B58257   3.755  43.544   6.855
 4444POPC   C4B58258   3.449  43.485   7.127
 4445POPC   NC358259  29.316  22.165   5.515
 4445POPC   PO458260  29.835  22.380   5.122
 4445POPC   GL158261  29.904  22.346   5.593
 4445POPC   GL258262  29.828  22.036   5.731
 4445POPC   C1A58263  29.940  22.329   6.114
 4445POPC   D2A58264  29.700  22.227   6.521
 4445POPC   C3A58265  29.971  22.146   6.878
 4445POPC   C4A58266  29.968  22.482   7.190
 4445POPC   C1B58267  29.529  21.995   6.093
 4445POPC   C2B58268  29.265  21.920   6.456
 4445POPC   C3B58269  29.329  21.984   6.919
 4445POPC   C4B58270  29.644  22.078   7.263
 4446POPC   NC358271  23.833  22.955   5.014
 4446POPC   PO458272  23.749  23.212   5.614
 4446POPC   GL158273  23.790  23.091   5.969
 4446POPC   GL258274  24.081  23.343   5.999
 4446POPC   C1A58275  23.536  22.909   6.287
 4446POPC   D2A58276  23.267  22.827   6.613
 4446POPC   C3A58277  23.460  22.698   6.976
 4446POPC   C4A58278  23.858  22.641   7.192
 4446POPC   C1B58279  23.875  23.367   6.392
 4446POPC   C2B58280  23.746  23.092   6.717
 4446POPC   C3B58281  23.694  23.119   7.140
 4446POPC   C4B58282  23.717  23.447   7.388
 4447POPC   NC358283  36.154   4.749   5.564
 4447POPC   PO458284  35.754   4.146   5.484
 4447POPC   GL158285  36.186   4.234   5.715
 4447POPC   GL258286  35.953   4.420   5.889
 4447POPC   C1A58287  36.407   4.404   6.116
 4447POPC   D2A58288  36.256   4.608   6.500
 4447POPC   C3A58289  36.299   4.327   6.861
 4447POPC   C4A58290  36.167   4.425   7.247
 4447POPC   C1B58291  35.789   4.142   6.171
 4447POPC   C2B58292  35.896   4.220   6.569
 4447POPC   C3B58293  35.869   4.063   6.959
 4447POPC   C4B58294  35.505   3.991   7.088
 4448POPC   NC358295  32.527   6.430   5.573
 4448POPC   PO458296  31.949   6.647   5.131
 4448POPC   GL158297  32.122   6.742   5.623
 4448POPC   GL258298  32.002   6.977   5.875
 4448POPC   C1A58299  32.134   6.533   6.083
 4448POPC   D2A58300  32.254   6.403   6.520
 4448POPC   C3A58301  32.143   6.512   6.927
 4448POPC   C4A58302  32.481   6.445   7.194
 4448POPC   C1B58303  32.209   6.978   6.332
 4448POPC   C2B58304  32.250   7.004   6.816
 4448POPC   C3B58305  32.243   6.896   7.283
 4448POPC   C4B58306  31.906   6.883   7.604
 4449POPC   NC358307   6.869  37.299   5.414
 4449POPC   PO458308   6.525  37.945   5.172
 4449POPC   GL158309   6.547  37.649   5.618
 4449POPC   GL258310   6.358  37.343   5.734
 4449POPC   C1A58311   6.747  37.504   6.064
 4449POPC   D2A58312   6.805  37.694   6.514
 4449POPC   C3A58313   6.841  37.492   6.941
 4449POPC   C4A58314   6.578  37.517   7.333
 4449POPC   C1B58315   6.271  37.679   6.062
 4449POPC   C2B58316   6.308  37.854   6.473
 4449POPC   C3B58317   6.340  37.670   6.892
 4449POPC   C4B58318   6.093  37.735   7.263
 4450POPC   NC358319  28.485  28.478   5.348
 4450POPC   PO458320  27.901  28.096   5.546
 4450POPC   GL158321  28.206  28.440   5.810
 4450POPC   GL258322  28.495  28.713   5.809
 4450POPC   C1A58323  28.340  28.331   6.234
 4450POPC   D2A58324  28.147  28.075   6.570
 4450POPC   C3A58325  28.319  28.125   6.981
 4450POPC   C4A58326  28.142  28.250   7.387
 4450POPC   C1B58327  28.658  28.743   6.253
 4450POPC   C2B58328  28.615  28.469   6.634
 4450POPC   C3B58329  28.841  28.414   6.995
 4450POPC   C4B58330  28.680  28.215   7.333
 4451POPC   NC358331  11.046  38.035   5.328
 4451POPC   PO458332  11.409  38.652   5.351
 4451POPC   GL158333  11.308  38.477   5.762
 4451POPC   GL258334  10.953  38.495   5.739
 4451POPC   C1A58335  11.189  38.389   6.224
 4451POPC   D2A58336  11.329  38.150   6.611
 4451POPC   C3A58337  11.185  38.288   7.014
 4451POPC   C4A58338  11.407  38.630   7.278
 4451POPC   C1B58339  10.894  38.814   6.063
 4451POPC   C2B58340  10.899  38.811   6.503
 4451POPC   C3B58341  10.783  38.637   6.895
 4451POPC   C4B58342  10.887  38.586   7.286
 4452POPC   NC358343   6.409  27.816   5.485
 4452POPC   PO458344   6.698  27.226   5.364
 4452POPC   GL158345   6.805  27.530   5.694
 4452POPC   GL258346   6.888  27.925   5.641
 4452POPC   C1A58347   6.664  27.413   6.120
 4452POPC   D2A58348   6.564  27.569   6.534
 4452POPC   C3A58349   6.505  27.291   6.910
 4452POPC   C4A58350   6.610  27.380   7.365
 4452POPC   C1B58351   6.919  27.852   6.082
 4452POPC   C2B58352   7.050  27.727   6.511
 4452POPC   C3B58353   6.864  27.656   6.931
 4452POPC   C4B58354   6.730  27.877   7.290
 4453POPC   NC358355  23.392  22.943   5.515
 4453POPC   PO458356  22.880  22.728   5.179
 4453POPC   GL158357  22.894  22.852   5.653
 4453POPC   GL258358  22.779  22.589   5.884
 4453POPC   C1A58359  22.942  23.023   6.110
 4453POPC   D2A58360  22.732  23.003   6.532
 4453POPC   C3A58361  22.936  23.059   6.935
 4453POPC   C4A58362  23.041  23.194   7.351
 4453POPC   C1B58363  22.919  22.559   6.327
 4453POPC   C2B58364  22.872  22.548   6.788
 4453POPC   C3B58365  23.034  22.638   7.222
 4453POPC   C4B58366  22.917  22.666   7.650
 4454POPC   NC358367   9.572  29.729   5.317
 4454POPC   PO458368  10.052  30.176   5.294
 4454POPC   GL158369   9.946  29.874   5.653
 4454POPC   GL258370   9.563  29.936   5.778
 4454POPC   C1A58371   9.916  29.742   6.107
 4454POPC   D2A58372   9.680  29.955   6.450
 4454POPC   C3A58373   9.782  29.833   6.870
 4454POPC   C4A58374  10.029  30.028   7.204
 4454POPC   C1B58375   9.290  30.099   6.123
 4454POPC   C2B58376   9.159  29.962   6.525
 4454POPC   C3B58377   9.275  29.813   6.932
 4454POPC   C4B58378   9.492  29.973   7.284
 4455POPC   NC358379  19.153  12.084   5.167
 4455POPC   PO458380  18.586  12.345   5.355
 4455POPC   GL158381  18.923  12.115   5.639
 4455POPC   GL258382  19.245  12.275   5.754
 4455POPC   C1A58383  19.028  11.926   6.063
 4455POPC   D2A58384  18.957  11.882   6.518
 4455POPC   C3A58385  18.923  12.031   6.960
 4455POPC   C4A58386  18.923  12.015   7.403
 4455POPC   C1B58387  19.342  12.379   6.222
 4455POPC   C2B58388  19.230  12.377   6.684
 4455POPC   C3B58389  19.324  12.550   7.119
 4455POPC   C4B58390  19.262  12.382   7.535
 4456POPC   NC358391  29.170  17.109   5.170
 4456POPC   PO458392  29.123  17.790   5.322
 4456POPC   GL158393  29.168  17.521   5.702
 4456POPC   GL258394  28.856  17.363   5.803
 4456POPC   C1A58395  29.261  17.419   6.149
 4456POPC   D2A58396  29.039  17.301   6.505
 4456POPC   C3A58397  29.223  17.304   6.879
 4456POPC   C4A58398  29.245  17.427   7.274
 4456POPC   C1B58399  28.830  17.701   6.104
 4456POPC   C2B58400  28.721  17.724   6.561
 4456POPC   C3B58401  28.890  17.797   6.995
 4456POPC   C4B58402  28.819  17.810   7.450
 4457POPC   NC358403  37.974  22.955   5.439
 4457POPC   PO458404  37.295  22.682   5.474
 4457POPC   GL158405  37.503  22.798   5.881
 4457POPC   GL258406  37.774  23.035   5.900
 4457POPC   C1A58407  37.610  22.823   6.332
 4457POPC   D2A58408  37.786  22.946   6.717
 4457POPC   C3A58409  37.442  23.024   7.029
 4457POPC   C4A58410  37.238  22.837   7.376
 4457POPC   C1B58411  38.049  23.097   6.243
 4457POPC   C2B58412  38.064  23.400   6.555
 4457POPC   C3B58413  38.096  23.287   6.968
 4457POPC   C4B58414  37.910  22.955   7.222
 4458POPC   NC358415   7.643   6.015   5.528
 4458POPC   PO458416   8.301   5.767   5.562
 4458POPC   GL158417   8.131   5.999   5.817
 4458POPC   GL258418   8.441   6.041   6.011
 4458POPC   C1A58419   8.003   5.871   6.202
 4458POPC   D2A58420   8.273   6.063   6.490
 4458POPC   C3A58421   8.185   5.923   6.857
 4458POPC   C4A58422   7.943   5.715   7.160
 4458POPC   C1B58423   8.447   5.622   6.248
 4458POPC   C2B58424   8.307   5.451   6.667
 4458POPC   C3B58425   8.461   5.600   7.115
 4458POPC   C4B58426   8.690   5.681   7.475
 4459POPC   NC358427  29.910  44.425   5.265
 4459POPC   PO458428  30.170  43.821   5.395
 4459POPC   GL158429  29.918  43.866   5.779
 4459POPC   GL258430  29.746  44.190   5.736
 4459POPC   C1A58431  30.014  44.002   6.196
 4459POPC   D2A58432  30.192  44.181   6.556
 4459POPC   C3A58433  30.098  44.044   6.954
 4459POPC   C4A58434  30.322  43.807   7.248
 4459POPC   C1B58435  29.564  44.245   6.148
 4459POPC   C2B58436  29.661  44.104   6.589
 4459POPC   C3B58437  29.616  44.247   7.014
 4459POPC   C4B58438  29.521  43.933   7.322
 4460POPC   NC358439   7.832   7.573   5.457
 4460POPC   PO458440   7.235   7.239   5.229
 4460POPC   GL158441   7.311   7.309   5.687
 4460POPC   GL258442   7.638   7.190   5.772
 4460POPC   C1A58443   7.476   7.553   6.116
 4460POPC   D2A58444   7.600   7.439   6.577
 4460POPC   C3A58445   7.452   7.542   7.045
 4460POPC   C4A58446   7.587   7.613   7.518
 4460POPC   C1B58447   7.318   7.080   6.136
 4460POPC   C2B58448   7.178   7.022   6.577
 4460POPC   C3B58449   7.466   7.040   6.906
 4460POPC   C4B58450   7.617   7.125   7.305
 4461POPC   NC358451  41.917  24.810   5.505
 4461POPC   PO458452  41.328  24.451   5.295
 4461POPC   GL158453  41.490  24.586   5.696
 4461POPC   GL258454  41.583  24.227   5.671
 4461POPC   C1A58455  41.292  24.643   6.129
 4461POPC   D2A58456  41.236  24.412   6.511
 4461POPC   C3A58457  41.596  24.435   6.767
 4461POPC   C4A58458  41.453  24.508   7.169
 4461POPC   C1B58459  41.553  24.194   6.095
 4461POPC   C2B58460  41.423  23.930   6.418
 4461POPC   C3B58461  41.355  23.970   6.845
 4461POPC   C4B58462  41.621  24.031   7.201
 4462POPC   NC358463  36.744  38.235   5.045
 4462POPC   PO458464  36.896  38.772   5.387
 4462POPC   GL158465  36.981  38.602   5.817
 4462POPC   GL258466  36.821  38.818   6.067
 4462POPC   C1A58467  36.876  38.349   6.241
 4462POPC   D2A58468  36.555  38.434   6.602
 4462POPC   C3A58469  36.607  38.304   7.063
 4462POPC   C4A58470  36.616  38.339   7.561
 4462POPC   C1B58471  37.268  38.676   6.224
 4462POPC   C2B58472  37.423  38.451   6.564
 4462POPC   C3B58473  37.075  38.441   6.866
 4462POPC   C4B58474  37.002  38.542   7.300
 4463POPC   NC358475  29.287  27.882   5.298
 4463POPC   PO458476  28.650  27.980   5.261
 4463POPC   GL158477  28.903  27.804   5.666
 4463POPC   GL258478  29.191  28.080   5.746
 4463POPC   C1A58479  28.794  27.714   6.136
 4463POPC   D2A58480  28.682  27.988   6.500
 4463POPC   C3A58481  28.771  27.863   6.940
 4463POPC   C4A58482  29.064  27.672   7.227
 4463POPC   C1B58483  29.201  28.049   6.166
 4463POPC   C2B58484  29.295  27.719   6.438
 4463POPC   C3B58485  29.416  27.698   6.870
 4463POPC   C4B58486  29.663  27.531   7.189
 4464POPC   NC358487  26.364  35.356   5.419
 4464POPC   PO458488  25.734  35.101   5.444
 4464POPC   GL158489  25.999  35.333   5.784
 4464POPC   GL258490  25.799  35.550   5.956
 4464POPC   C1A58491  26.267  35.460   6.199
 4464POPC   D2A58492  26.519  35.457   6.622
 4464POPC   C3A58493  26.344  35.296   7.050
 4464POPC   C4A58494  26.209  35.501   7.440
 4464POPC   C1B58495  25.803  35.441   6.380
 4464POPC   C2B58496  25.982  35.273   6.705
 4464POPC   C3B58497  25.849  35.444   7.088
 4464POPC   C4B58498  25.600  35.636   7.393
 4465POPC   NC358499  33.009   4.744   5.205
 4465POPC   PO458500  32.729   5.348   5.291
 4465POPC   GL158501  32.817   5.386   5.761
 4465POPC   GL258502  33.140   5.205   5.836
 4465POPC   C1A58503  32.703   5.114   6.137
 4465POPC   D2A58504  32.812   4.979   6.560
 4465POPC   C3A58505  32.693   5.062   7.003
 4465POPC   C4A58506  32.814   5.358   7.335
 4465POPC   C1B58507  33.158   4.870   6.148
 4465POPC   C2B58508  33.213   4.669   6.551
 4465POPC   C3B58509  33.157   4.846   6.977
 4465POPC   C4B58510  33.155   4.885   7.438
 4466POPC   NC358511   4.893  15.305   5.610
 4466POPC   PO458512   5.358  14.744   5.621
 4466POPC   GL158513   5.172  15.004   5.951
 4466POPC   GL258514   4.793  14.916   5.963
 4466POPC   C1A58515   5.292  15.388   6.219
 4466POPC   D2A58516   5.463  15.637   6.580
 4466POPC   C3A58517   5.465  15.366   6.983
 4466POPC   C4A58518   5.346  14.955   7.189
 4466POPC   C1B58519   4.926  15.043   6.395
 4466POPC   C2B58520   4.971  15.441   6.641
 4466POPC   C3B58521   4.950  15.372   7.067
 4466POPC   C4B58522   4.818  14.974   7.202
 4467POPC   NC358523  18.613   9.072   5.455
 4467POPC   PO458524  17.940   8.724   5.335
 4467POPC   GL158525  18.178   8.940   5.695
 4467POPC   GL258526  18.355   9.286   5.820
 4467POPC   C1A58527  18.347   8.822   6.094
 4467POPC   D2A58528  18.253   8.629   6.484
 4467POPC   C3A58529  18.452   8.831   6.827
 4467POPC   C4A58530  18.355   8.681   7.213
 4467POPC   C1B58531  18.575   9.299   6.214
 4467POPC   C2B58532  18.251   9.188   6.488
 4467POPC   C3B58533  17.970   9.346   6.807
 4467POPC   C4B58534  18.038   9.100   7.154
 4468POPC   NC358535  37.767  20.234   5.529
 4468POPC   PO458536  37.431  19.798   5.162
 4468POPC   GL158537  37.380  19.861   5.710
 4468POPC   GL258538  37.667  19.913   5.985
 4468POPC   C1A58539  37.209  19.936   6.148
 4468POPC   D2A58540  37.080  19.777   6.530
 4468POPC   C3A58541  37.265  19.917   6.861
 4468POPC   C4A58542  37.554  19.862   7.129
 4468POPC   C1B58543  37.621  19.944   6.456
 4468POPC   C2B58544  37.871  19.737   6.749
 4468POPC   C3B58545  38.079  19.687   7.127
 4468POPC   C4B58546  38.258  19.662   7.533
 4469POPC   NC358547  25.496  26.509   5.546
 4469POPC   PO458548  25.043  26.994   5.470
 4469POPC   GL158549  25.107  26.775   5.825
 4469POPC   GL258550  25.000  26.441   5.745
 4469POPC   C1A58551  25.256  26.944   6.237
 4469POPC   D2A58552  25.519  27.100   6.588
 4469POPC   C3A58553  25.307  26.900   6.907
 4469POPC   C4A58554  24.955  27.062   7.155
 4469POPC   C1B58555  25.174  26.386   6.152
 4469POPC   C2B58556  25.043  26.513   6.525
 4469POPC   C3B58557  25.160  26.395   6.944
 4469POPC   C4B58558  25.580  26.428   7.149
 4470POPC   NC358559   7.433  44.827   5.560
 4470POPC   PO458560   7.137  44.276   5.570
 4470POPC   GL158561   7.081  44.494   5.912
 4470POPC   GL258562   7.089  44.865   5.932
 4470POPC   C1A58563   7.175  44.513   6.338
 4470POPC   D2A58564   7.535  44.510   6.565
 4470POPC   C3A58565   7.430  44.566   6.967
 4470POPC   C4A58566   7.775  44.488   7.132
 4470POPC   C1B58567   7.466  44.916   6.233
 4470POPC   C2B58568   7.423   0.000   6.691
 4470POPC   C3B58569   7.318   0.021   7.149
 4470POPC   C4B58570   7.181   0.132   7.574
 4471POPC   NC358571  33.161   5.472   5.380
 4471POPC   PO458572  32.750   5.932   5.626
 4471POPC   GL158573  32.965   5.915   5.949
 4471POPC   GL258574  33.241   5.721   5.862
 4471POPC   C1A58575  32.853   5.926   6.347
 4471POPC   D2A58576  33.077   5.825   6.686
 4471POPC   C3A58577  32.838   5.745   6.975
 4471POPC   C4A58578  32.785   6.051   7.258
 4471POPC   C1B58579  33.093   5.485   6.246
 4471POPC   C2B58580  33.158   5.319   6.659
 4471POPC   C3B58581  33.271   5.457   7.023
 4471POPC   C4B58582  33.231   5.775   7.302
 4472POPC   NC358583  12.754  29.136   5.188
 4472POPC   PO458584  12.080  29.133   5.241
 4472POPC   GL158585  12.030  29.159   5.747
 4472POPC   GL258586  11.729  29.361   5.862
 4472POPC   C1A58587  11.941  29.012   6.205
 4472POPC   D2A58588  12.126  28.955   6.615
 4472POPC   C3A58589  11.885  29.055   7.000
 4472POPC   C4A58590  12.184  29.006   7.343
 4472POPC   C1B58591  12.010  29.520   6.203
 4472POPC   C2B58592  12.043  29.450   6.651
 4472POPC   C3B58593  12.193  29.449   7.079
 4472POPC   C4B58594  12.041  29.483   7.510
 4473POPC   NC358595  38.200   4.402   5.356
 4473POPC   PO458596  38.830   4.454   5.671
 4473POPC   GL158597  38.469   4.323   5.851
 4473POPC   GL258598  38.191   4.538   5.826
 4473POPC   C1A58599  38.497   4.392   6.281
 4473POPC   D2A58600  38.374   4.673   6.613
 4473POPC   C3A58601  38.641   4.572   6.961
 4473POPC   C4A58602  38.685   4.197   7.247
 4473POPC   C1B58603  38.007   4.302   6.128
 4473POPC   C2B58604  38.104   4.211   6.541
 4473POPC   C3B58605  38.251   4.211   6.957
 4473POPC   C4B58606  38.201   4.106   7.384
 4474POPC   NC358607   8.818  31.435   5.277
 4474POPC   PO458608   9.339  31.757   5.072
 4474POPC   GL158609   9.213  31.696   5.588
 4474POPC   GL258610   8.923  31.495   5.760
 4474POPC   C1A58611   9.310  31.556   6.065
 4474POPC   D2A58612   9.441  31.423   6.473
 4474POPC   C3A58613   9.175  31.498   6.830
 4474POPC   C4A58614   9.258  31.442   7.259
 4474POPC   C1B58615   8.803  31.525   6.208
 4474POPC   C2B58616   8.788  31.755   6.569
 4474POPC   C3B58617   8.678  31.652   6.956
 4474POPC   C4B58618   8.735  31.383   7.288
 4475POPC   NC358619  13.914  25.281   5.637
 4475POPC   PO458620  13.267  25.080   5.569
 4475POPC   GL158621  13.461  25.184   5.931
 4475POPC   GL258622  13.522  25.531   5.889
 4475POPC   C1A58623  13.521  25.138   6.370
 4475POPC   D2A58624  13.885  25.094   6.627
 4475POPC   C3A58625  13.759  25.253   6.974
 4475POPC   C4A58626  13.380  25.187   7.122
 4475POPC   C1B58627  13.842  25.528   6.228
 4475POPC   C2B58628  13.705  25.623   6.616
 4475POPC   C3B58629  13.885  25.754   6.962
 4475POPC   C4B58630  13.791  25.588   7.344
 4476POPC   NC358631  21.639   3.494   5.520
 4476POPC   PO458632  21.143   3.862   5.278
 4476POPC   GL158633  21.288   3.754   5.768
 4476POPC   GL258634  21.378   3.430   5.958
 4476POPC   C1A58635  21.273   3.810   6.256
 4476POPC   D2A58636  21.290   3.437   6.532
 4476POPC   C3A58637  21.356   3.529   6.953
 4476POPC   C4A58638  21.768   3.596   7.108
 4476POPC   C1B58639  21.705   3.500   6.233
 4476POPC   C2B58640  21.820   3.318   6.624
 4476POPC   C3B58641  21.677   3.117   6.991
 4476POPC   C4B58642  21.858   3.015   7.391
 4477POPC   NC358643   7.699  34.267   5.416
 4477POPC   PO458644   7.364  34.824   5.224
 4477POPC   GL158645   7.486  34.722   5.688
 4477POPC   GL258646   7.382  34.424   5.797
 4477POPC   C1A58647   7.509  34.805   6.169
 4477POPC   D2A58648   7.548  35.053   6.580
 4477POPC   C3A58649   7.443  34.829   6.973
 4477POPC   C4A58650   7.199  34.629   7.370
 4477POPC   C1B58651   7.248  34.358   6.196
 4477POPC   C2B58652   7.417  34.342   6.598
 4477POPC   C3B58653   7.434  34.327   7.008
 4477POPC   C4B58654   7.269  34.122   7.330
 4478POPC   NC358655  32.468  34.191   5.517
 4478POPC   PO458656  32.055  33.636   5.555
 4478POPC   GL158657  32.231  33.770   5.949
 4478POPC   GL258658  32.579  33.876   5.899
 4478POPC   C1A58659  32.069  33.986   6.354
 4478POPC   D2A58660  32.101  34.041   6.814
 4478POPC   C3A58661  32.279  33.747   7.098
 4478POPC   C4A58662  32.268  33.811   7.544
 4478POPC   C1B58663  32.566  33.893   6.330
 4478POPC   C2B58664  32.606  34.051   6.715
 4478POPC   C3B58665  32.638  34.135   7.097
 4478POPC   C4B58666  32.728  33.890   7.410
 4479POPC   NC358667  15.588   2.135   5.348
 4479POPC   PO458668  14.899   2.119   5.309
 4479POPC   GL158669  14.919   2.048   5.756
 4479POPC   GL258670  15.281   1.963   5.854
 4479POPC   C1A58671  14.897   1.925   6.193
 4479POPC   D2A58672  15.310   1.904   6.442
 4479POPC   C3A58673  15.271   1.893   6.902
 4479POPC   C4A58674  14.892   1.899   7.190
 4479POPC   C1B58675  15.460   2.298   6.139
 4479POPC   C2B58676  15.464   2.417   6.583
 4479POPC   C3B58677  15.319   2.406   6.993
 4479POPC   C4B58678  15.258   2.196   7.367
 4480POPC   NC358679   2.822   2.366   5.331
 4480POPC   PO458680   2.830   3.011   5.269
 4480POPC   GL158681   2.707   2.769   5.726
 4480POPC   GL258682   2.587   2.376   5.828
 4480POPC   C1A58683   2.519   2.842   6.201
 4480POPC   D2A58684   2.321   2.953   6.650
 4480POPC   C3A58685   2.533   2.984   7.096
 4480POPC   C4A58686   3.004   2.994   7.183
 4480POPC   C1B58687   2.881   2.498   6.127
 4480POPC   C2B58688   3.012   2.708   6.465
 4480POPC   C3B58689   2.815   2.671   6.825
 4480POPC   C4B58690   2.760   2.530   7.241
 4481POPC   NC358691   9.429  27.410   5.610
 4481POPC   PO458692  10.077  27.584   5.456
 4481POPC   GL158693   9.849  27.610   5.846
 4481POPC   GL258694   9.841  27.227   5.852
 4481POPC   C1A58695   9.655  27.744   6.262
 4481POPC   D2A58696   9.478  27.796   6.686
 4481POPC   C3A58697   9.432  27.373   6.858
 4481POPC   C4A58698   9.390  27.314   7.306
 4481POPC   C1B58699   9.953  27.298   6.253
 4481POPC   C2B58700   9.898  27.485   6.662
 4481POPC   C3B58701   9.886  27.394   7.094
 4481POPC   C4B58702  10.165  27.198   7.363
 4482POPC   NC358703  29.403  30.207   5.048
 4482POPC   PO458704  29.045  29.953   5.579
 4482POPC   GL158705  28.984  30.155   5.926
 4482POPC   GL258706  28.973  29.873   6.099
 4482POPC   C1A58707  29.215  30.272   6.306
 4482POPC   D2A58708  28.922  30.075   6.554
 4482POPC   C3A58709  29.030  29.876   6.933
 4482POPC   C4A58710  28.901  30.088   7.295
 4482POPC   C1B58711  29.400  29.778   6.283
 4482POPC   C2B58712  29.635  29.680   6.679
 4482POPC   C3B58713  29.503  29.680   7.106
 4482POPC   C4B58714  29.155  29.662   7.419
 4483POPC   NC358715   1.800   3.922   5.338
 4483POPC   PO458716   2.156   4.473   5.398
 4483POPC   GL158717   1.996   4.396   5.810
 4483POPC   GL258718   1.769   4.111   5.839
 4483POPC   C1A58719   1.969   4.529   6.230
 4483POPC   D2A58720   2.162   4.405   6.611
 4483POPC   C3A58721   1.957   4.467   7.029
 4483POPC   C4A58722   1.862   4.411   7.491
 4483POPC   C1B58723   1.641   4.127   6.267
 4483POPC   C2B58724   1.708   4.172   6.707
 4483POPC   C3B58725   1.563   4.134   7.133
 4483POPC   C4B58726   1.387   4.241   7.541
 4484POPC   NC358727  19.366  39.820   5.361
 4484POPC   PO458728  18.912  40.318   5.477
 4484POPC   GL158729  18.928  39.994   5.756
 4484POPC   GL258730  19.240  39.875   5.846
 4484POPC   C1A58731  18.761  39.881   6.138
 4484POPC   D2A58732  18.603  39.748   6.516
 4484POPC   C3A58733  18.703  39.976   6.893
 4484POPC   C4A58734  18.932  39.778   7.203
 4484POPC   C1B58735  19.200  40.168   6.198
 4484POPC   C2B58736  19.050  40.245   6.595
 4484POPC   C3B58737  19.222  40.147   6.977
 4484POPC   C4B58738  19.417  39.752   7.060
 4485POPC   NC358739  10.236  27.119   5.520
 4485POPC   PO458740   9.521  26.968   5.533
 4485POPC   GL158741   9.687  26.699   5.789
 4485POPC   GL258742   9.467  26.423   5.826
 4485POPC   C1A58743   9.905  26.787   6.173
 4485POPC   D2A58744   9.772  26.969   6.584
 4485POPC   C3A58745   9.936  26.888   6.966
 4485POPC   C4A58746   9.722  26.948   7.324
 4485POPC   C1B58747   9.456  26.578   6.267
 4485POPC   C2B58748   9.593  26.495   6.695
 4485POPC   C3B58749   9.696  26.466   7.140
 4485POPC   C4B58750   9.534  26.561   7.577
 4486POPC   NC358751   4.960  32.141   5.333
 4486POPC   PO458752   5.434  31.735   5.362
 4486POPC   GL158753   5.337  31.950   5.821
 4486POPC   GL258754   5.610  32.059   6.036
 4486POPC   C1A58755   5.145  32.191   6.233
 4486POPC   D2A58756   5.203  32.402   6.645
 4486POPC   C3A58757   5.017  32.303   7.054
 4486POPC   C4A58758   4.864  32.155   7.462
 4486POPC   C1B58759   5.380  31.779   6.377
 4486POPC   C2B58760   5.144  31.858   6.784
 4486POPC   C3B58761   5.212  31.792   7.261
 4486POPC   C4B58762   5.240  31.939   7.740
 4487POPC   NC358763  10.895  28.423   5.204
 4487POPC   PO458764  10.437  27.968   5.327
 4487POPC   GL158765  10.666  28.205   5.650
 4487POPC   GL258766  10.642  28.558   5.766
 4487POPC   C1A58767  10.706  28.193   6.111
 4487POPC   D2A58768  10.441  28.173   6.485
 4487POPC   C3A58769  10.611  28.128   6.909
 4487POPC   C4A58770  10.475  28.345   7.273
 4487POPC   C1B58771  10.456  28.644   6.198
 4487POPC   C2B58772  10.599  28.667   6.632
 4487POPC   C3B58773  10.513  28.778   7.065
 4487POPC   C4B58774  10.534  28.835   7.552
 4488POPC   NC358775  35.069   9.727   5.216
 4488POPC   PO458776  34.404   9.795   5.414
 4488POPC   GL158777  34.579   9.961   5.776
 4488POPC   GL258778  34.787  10.265   5.693
 4488POPC   C1A58779  34.645   9.776   6.208
 4488POPC   D2A58780  34.649   9.509   6.580
 4488POPC   C3A58781  34.458   9.687   6.915
 4488POPC   C4A58782  34.484   9.562   7.326
 4488POPC   C1B58783  34.604  10.291   6.148
 4488POPC   C2B58784  34.420  10.097   6.563
 4488POPC   C3B58785  34.655  10.156   6.963
 4488POPC   C4B58786  34.965   9.960   7.180
 4489POPC   NC358787   6.966  13.069   5.459
 4489POPC   PO458788   6.681  12.538   5.743
 4489POPC   GL158789   6.673  12.956   5.890
 4489POPC   GL258790   6.402  13.183   5.763
 4489POPC   C1A58791   6.793  13.101   6.300
 4489POPC   D2A58792   6.938  13.125   6.714
 4489POPC   C3A58793   6.983  12.724   6.927
 4489POPC   C4A58794   6.852  12.715   7.350
 4489POPC   C1B58795   6.261  13.059   6.194
 4489POPC   C2B58796   6.322  12.880   6.608
 4489POPC   C3B58797   6.512  12.913   7.007
 4489POPC   C4B58798   6.392  12.999   7.428
 4490POPC   NC358799  32.965  43.445   5.437
 4490POPC   PO458800  32.846  44.207   5.397
 4490POPC   GL158801  32.823  44.111   5.845
 4490POPC   GL258802  32.868  43.745   5.867
 4490POPC   C1A58803  33.014  44.124   6.287
 4490POPC   D2A58804  33.259  43.854   6.596
 4490POPC   C3A58805  33.079  43.866   7.024
 4490POPC   C4A58806  33.366  43.920   7.359
 4490POPC   C1B58807  32.740  43.510   6.239
 4490POPC   C2B58808  32.807  43.611   6.650
 4490POPC   C3B58809  32.706  43.446   7.031
 4490POPC   C4B58810  32.593  43.748   7.280
 4491POPC   NC358811  16.260  30.947   5.546
 4491POPC   PO458812  15.813  30.573   5.370
 4491POPC   GL158813  15.848  30.738   5.775
 4491POPC   GL258814  16.075  30.461   5.826
 4491POPC   C1A58815  15.979  30.869   6.194
 4491POPC   D2A58816  16.180  30.909   6.613
 4491POPC   C3A58817  16.021  31.056   7.012
 4491POPC   C4A58818  15.673  30.892   7.189
 4491POPC   C1B58819  15.775  30.404   6.161
 4491POPC   C2B58820  15.852  30.442   6.593
 4491POPC   C3B58821  16.093  30.468   6.956
 4491POPC   C4B58822  16.121  30.670   7.332
 4492POPC   NC358823   0.456  16.101   5.374
 4492POPC   PO458824   0.561  15.465   5.487
 4492POPC   GL158825   0.386  15.784   5.797
 4492POPC   GL258826   0.586  16.100   5.878
 4492POPC   C1A58827   0.286  15.862   6.245
 4492POPC   D2A58828   0.465  15.972   6.637
 4492POPC   C3A58829   0.321  15.792   7.023
 4492POPC   C4A58830   0.545  15.744   7.405
 4492POPC   C1B58831   0.428  16.374   6.223
 4492POPC   C2B58832   0.457  16.499   6.675
 4492POPC   C3B58833   0.577  16.254   7.074
 4492POPC   C4B58834   0.269  16.185   7.407
 4493POPC   NC358835  16.834  40.583   5.271
 4493POPC   PO458836  16.313  40.617   5.638
 4493POPC   GL158837  16.787  40.659   5.769
 4493POPC   GL258838  16.961  40.358   5.851
 4493POPC   C1A58839  17.096  40.743   6.154
 4493POPC   D2A58840  17.197  40.981   6.559
 4493POPC   C3A58841  17.058  40.840   6.979
 4493POPC   C4A58842  16.816  40.943   7.343
 4493POPC   C1B58843  16.681  40.451   6.201
 4493POPC   C2B58844  16.845  40.566   6.587
 4493POPC   C3B58845  16.911  40.330   6.951
 4493POPC   C4B58846  17.067  40.218   7.320
 4494POPC   NC358847  20.620   4.184   5.491
 4494POPC   PO458848  20.112   4.625   5.397
 4494POPC   GL158849  20.323   4.474   5.804
 4494POPC   GL258850  20.313   4.101   5.896
 4494POPC   C1A58851  20.364   4.484   6.268
 4494POPC   D2A58852  20.184   4.264   6.629
 4494POPC   C3A58853  20.299   4.481   7.014
 4494POPC   C4A58854  20.708   4.491   7.194
 4494POPC   C1B58855  20.574   3.951   6.254
 4494POPC   C2B58856  20.691   4.073   6.699
 4494POPC   C3B58857  20.539   4.009   7.123
 4494POPC   C4B58858  20.694   3.914   7.528
 4495POPC   NC358859  10.099  32.081   5.385
 4495POPC   PO458860  10.765  32.218   5.427
 4495POPC   GL158861  10.709  32.429   5.799
 4495POPC   GL258862  10.355  32.403   5.735
 4495POPC   C1A58863  10.811  32.275   6.219
 4495POPC   D2A58864  10.550  32.188   6.611
 4495POPC   C3A58865  10.623  31.953   7.000
 4495POPC   C4A58866  10.774  32.309   7.183
 4495POPC   C1B58867  10.298  32.286   6.174
 4495POPC   C2B58868  10.034  32.250   6.571
 4495POPC   C3B58869  10.106  32.132   7.029
 4495POPC   C4B58870  10.325  32.246   7.425
 4496POPC   NC358871  20.710  18.422   5.312
 4496POPC   PO458872  20.766  17.883   5.758
 4496POPC   GL158873  20.714  18.326   5.830
 4496POPC   GL258874  20.358  18.427   5.911
 4496POPC   C1A58875  20.742  18.529   6.231
 4496POPC   D2A58876  20.419  18.537   6.548
 4496POPC   C3A58877  20.535  18.335   6.930
 4496POPC   C4A58878  20.836  18.217   7.269
 4496POPC   C1B58879  20.368  18.098   6.256
 4496POPC   C2B58880  20.627  17.817   6.543
 4496POPC   C3B58881  20.635  17.831   6.994
 4496POPC   C4B58882  20.360  18.039   7.312
 4497POPC   NC358883  22.483  26.118   5.491
 4497POPC   PO458884  21.915  26.241   5.423
 4497POPC   GL158885  21.913  25.813   5.664
 4497POPC   GL258886  22.268  25.740   5.777
 4497POPC   C1A58887  21.893  25.658   6.119
 4497POPC   D2A58888  22.090  25.908   6.426
 4497POPC   C3A58889  22.170  25.889   6.875
 4497POPC   C4A58890  21.986  25.935   7.288
 4497POPC   C1B58891  22.480  25.975   6.129
 4497POPC   C2B58892  22.496  26.214   6.528
 4497POPC   C3B58893  22.478  26.294   6.963
 4497POPC   C4B58894  22.501  25.985   7.269
 4498POPC   NC358895   0.027  25.819   5.322
 4498POPC   PO458896  44.441  26.270   5.333
 4498POPC   GL158897  44.551  26.075   5.753
 4498POPC   GL258898  44.907  25.969   5.813
 4498POPC   C1A58899  44.581  26.233   6.190
 4498POPC   D2A58900  44.462  26.007   6.551
 4498POPC   C3A58901  44.525  26.208   6.952
 4498POPC   C4A58902  44.372  25.989   7.296
 4498POPC   C1B58903   0.067  26.139   6.204
 4498POPC   C2B58904  44.929  26.210   6.628
 4498POPC   C3B58905   0.038  26.171   7.066
 4498POPC   C4B58906  44.942  26.120   7.527
 4499POPC   NC358907  31.217   9.052   5.437
 4499POPC   PO458908  30.574   8.663   5.431
 4499POPC   GL158909  30.652   8.987   5.780
 4499POPC   GL258910  30.547   9.341   5.682
 4499POPC   C1A58911  30.752   8.950   6.244
 4499POPC   D2A58912  30.594   8.966   6.666
 4499POPC   C3A58913  30.800   8.824   7.071
 4499POPC   C4A58914  30.894   8.797   7.574
 4499POPC   C1B58915  30.791   9.417   6.074
 4499POPC   C2B58916  30.749   9.486   6.542
 4499POPC   C3B58917  30.648   9.368   6.971
 4499POPC   C4B58918  30.672   9.191   7.383
 4500POPC   NC358919   7.152  21.775   5.063
 4500POPC   PO458920   7.107  22.333   5.476
 4500POPC   GL158921   7.415  22.188   5.807
 4500POPC   GL258922   7.502  21.832   5.800
 4500POPC   C1A58923   7.555  22.188   6.250
 4500POPC   D2A58924   7.276  22.135   6.616
 4500POPC   C3A58925   7.363  22.224   7.065
 4500POPC   C4A58926   7.738  22.250   7.356
 4500POPC   C1B58927   7.174  21.864   6.165
 4500POPC   C2B58928   7.112  21.638   6.530
 4500POPC   C3B58929   7.267  21.722   6.929
 4500POPC   C4B58930   7.060  21.847   7.279
 4501POPC   NC358931   3.017  30.939   5.098
 4501POPC   PO458932   2.622  30.435   5.357
 4501POPC   GL158933   2.649  30.561   5.835
 4501POPC   GL258934   2.559  30.917   5.929
 4501POPC   C1A58935   2.796  30.466   6.270
 4501POPC   D2A58936   2.661  30.573   6.690
 4501POPC   C3A58937   2.864  30.458   7.052
 4501POPC   C4A58938   3.071  30.541   7.419
 4501POPC   C1B58939   2.684  30.987   6.376
 4501POPC   C2B58940   3.002  30.954   6.706
 4501POPC   C3B58941   3.024  30.986   7.140
 4501POPC   C4B58942   2.852  31.326   7.416
 4502POPC   NC358943  35.497   3.292   5.427
 4502POPC   PO458944  34.916   3.608   5.395
 4502POPC   GL158945  35.165   3.470   5.787
 4502POPC   GL258946  35.494   3.628   5.839
 4502POPC   C1A58947  35.314   3.304   6.226
 4502POPC   D2A58948  35.487   3.084   6.622
 4502POPC   C3A58949  35.362   3.275   7.024
 4502POPC   C4A58950  35.193   3.641   7.218
 4502POPC   C1B58951  35.723   3.622   6.248
 4502POPC   C2B58952  35.613   3.622   6.666
 4502POPC   C3B58953  35.828   3.553   7.017
 4502POPC   C4B58954  35.765   3.696   7.389
 4503POPC   NC358955  10.363  35.046   5.561
 4503POPC   PO458956  10.580  35.647   5.493
 4503POPC   GL158957  10.804  35.410   5.821
 4503POPC   GL258958  10.774  35.063   5.858
 4503POPC   C1A58959  10.546  35.333   6.222
 4503POPC   D2A58960  10.311  35.625   6.482
 4503POPC   C3A58961  10.426  35.615   6.914
 4503POPC   C4A58962  10.434  35.489   7.330
 4503POPC   C1B58963  10.749  34.854   6.242
 4503POPC   C2B58964  10.565  34.928   6.636
 4503POPC   C3B58965  10.768  34.803   7.028
 4503POPC   C4B58966  10.706  35.049   7.412
 4504POPC   NC358967  11.786  20.124   5.436
 4504POPC   PO458968  12.259  19.666   5.376
 4504POPC   GL158969  12.089  19.760   5.746
 4504POPC   GL258970  12.267  20.064   5.896
 4504POPC   C1A58971  12.180  19.600   6.160
 4504POPC   D2A58972  12.233  19.425   6.580
 4504POPC   C3A58973  12.237  19.760   6.853
 4504POPC   C4A58974  12.013  19.872   7.179
 4504POPC   C1B58975  11.870  20.027   6.121
 4504POPC   C2B58976  11.792  19.914   6.552
 4504POPC   C3B58977  11.872  20.221   6.833
 4504POPC   C4B58978  11.880  20.353   7.236
 4505POPC   NC358979   1.480  39.314   5.506
 4505POPC   PO458980   0.889  38.981   5.308
 4505POPC   GL158981   1.104  38.934   5.789
 4505POPC   GL258982   1.442  38.986   5.872
 4505POPC   C1A58983   1.221  38.860   6.285
 4505POPC   D2A58984   1.144  39.180   6.584
 4505POPC   C3A58985   1.052  39.154   6.971
 4505POPC   C4A58986   1.064  39.381   7.335
 4505POPC   C1B58987   1.452  39.355   6.204
 4505POPC   C2B58988   1.468  39.604   6.616
 4505POPC   C3B58989   1.492  39.472   7.062
 4505POPC   C4B58990   1.501  39.531   7.551
 4506POPC   NC358991  29.880  43.446   5.414
 4506POPC   PO458992  30.017  42.808   5.425
 4506POPC   GL158993  29.751  43.041   5.789
 4506POPC   GL258994  29.672  43.403   5.870
 4506POPC   C1A58995  29.663  43.067   6.262
 4506POPC   D2A58996  29.760  43.200   6.694
 4506POPC   C3A58997  30.114  43.032   6.992
 4506POPC   C4A58998  30.302  42.814   7.386
 4506POPC   C1B58999  30.008  43.479   6.184
 4506POPC   C2B59000  29.967  43.680   6.593
 4506POPC   C3B59001  29.973  43.537   6.996
 4506POPC   C4B59002  29.601  43.358   7.191
 4507POPC   NC359003  21.572  31.026   5.374
 4507POPC   PO459004  21.267  30.410   5.458
 4507POPC   GL159005  21.264  30.759   5.715
 4507POPC   GL259006  21.530  30.567   5.885
 4507POPC   C1A59007  21.273  30.941   6.138
 4507POPC   D2A59008  21.258  30.732   6.543
 4507POPC   C3A59009  21.255  31.040   6.871
 4507POPC   C4A59010  21.086  31.065   7.269
 4507POPC   C1B59011  21.679  30.501   6.321
 4507POPC   C2B59012  21.763  30.526   6.761
 4507POPC   C3B59013  21.485  30.635   7.112
 4507POPC   C4B59014  21.229  30.404   7.350
 4508POPC   NC359015   7.571   0.616   5.492
 4508POPC   PO459016   7.076   0.153   5.485
 4508POPC   GL159017   7.191   0.416   5.830
 4508POPC   GL259018   6.969   0.696   5.758
 4508POPC   C1A59019   7.369   0.408   6.254
 4508POPC   D2A59020   7.723   0.396   6.531
 4508POPC   C3A59021   7.577   0.430   6.940
 4508POPC   C4A59022   7.657   0.381   7.363
 4508POPC   C1B59023   6.959   0.705   6.215
 4508POPC   C2B59024   7.280   0.809   6.557
 4508POPC   C3B59025   7.300   0.862   6.992
 4508POPC   C4B59026   7.151   0.521   7.251
 4509POPC   NC359027  34.220  11.741   5.572
 4509POPC   PO459028  33.803  12.250   5.349
 4509POPC   GL159029  33.716  12.201   5.827
 4509POPC   GL259030  33.879  11.885   5.911
 4509POPC   C1A59031  33.857  12.247   6.286
 4509POPC   D2A59032  34.042  12.044   6.684
 4509POPC   C3A59033  33.996  12.306   7.080
 4509POPC   C4A59034  33.714  12.338   7.470
 4509POPC   C1B59035  33.606  11.792   6.218
 4509POPC   C2B59036  33.495  11.949   6.627
 4509POPC   C3B59037  33.656  11.928   7.021
 4509POPC   C4B59038  33.979  11.739   7.187
 4510POPC   NC359039  24.207  12.347   5.471
 4510POPC   PO459040  24.704  11.835   5.468
 4510POPC   GL159041  24.470  12.002   5.833
 4510POPC   GL259042  24.602  12.312   5.787
 4510POPC   C1A59043  24.168  12.041   6.214
 4510POPC   D2A59044  23.979  11.941   6.607
 4510POPC   C3A59045  24.165  12.120   6.994
 4510POPC   C4A59046  24.437  12.034   7.367
 4510POPC   C1B59047  24.384  12.487   6.142
 4510POPC   C2B59048  24.373  12.384   6.587
 4510POPC   C3B59049  24.640  12.306   6.969
 4510POPC   C4B59050  24.936  12.193   7.296
 4511POPC   NC359051  18.889   1.457   5.633
 4511POPC   PO459052  19.096   0.885   5.320
 4511POPC   GL159053  19.087   1.030   5.823
 4511POPC   GL259054  19.214   1.330   6.003
 4511POPC   C1A59055  18.982   1.037   6.334
 4511POPC   D2A59056  18.698   1.132   6.731
 4511POPC   C3A59057  18.751   1.123   7.203
 4511POPC   C4A59058  18.822   0.846   7.587
 4511POPC   C1B59059  19.508   1.073   6.250
 4511POPC   C2B59060  19.513   1.020   6.680
 4511POPC   C3B59061  19.228   1.204   6.971
 4511POPC   C4B59062  19.254   1.584   7.251
 4512POPC   NC359063  35.009  32.973   5.392
 4512POPC   PO459064  35.184  33.519   5.541
 4512POPC   GL159065  35.330  33.174   5.786
 4512POPC   GL259066  35.170  32.845   5.890
 4512POPC   C1A59067  35.563  33.083   6.150
 4512POPC   D2A59068  35.473  33.022   6.564
 4512POPC   C3A59069  35.597  33.179   6.950
 4512POPC   C4A59070  35.256  33.039   7.188
 4512POPC   C1B59071  35.499  32.581   6.141
 4512POPC   C2B59072  35.690  32.559   6.526
 4512POPC   C3B59073  35.448  32.602   6.873
 4512POPC   C4B59074  35.589  32.648   7.251
 4513POPC   NC359075  44.714  43.012   5.223
 4513POPC   PO459076  44.413  43.527   5.621
 4513POPC   GL159077  44.543  43.131   5.804
 4513POPC   GL259078  44.867  42.987   5.756
 4513POPC   C1A59079  44.643  43.224   6.239
 4513POPC   D2A59080  44.623  43.515   6.587
 4513POPC   C3A59081  44.346  43.402   6.875
 4513POPC   C4A59082  44.206  43.072   7.097
 4513POPC   C1B59083   0.102  43.048   6.181
 4513POPC   C2B59084   0.019  43.177   6.634
 4513POPC   C3B59085  44.787  43.177   7.041
 4513POPC   C4B59086  44.871  42.905   7.407
 4514POPC   NC359087   7.906  15.035   5.317
 4514POPC   PO459088   8.112  15.682   5.411
 4514POPC   GL159089   8.155  15.369   5.739
 4514POPC   GL259090   8.134  14.980   5.763
 4514POPC   C1A59091   8.221  15.280   6.169
 4514POPC   D2A59092   8.010  15.183   6.524
 4514POPC   C3A59093   8.298  15.235   6.834
 4514POPC   C4A59094   8.137  15.178   7.204
 4514POPC   C1B59095   8.124  14.785   6.183
 4514POPC   C2B59096   8.387  14.791   6.577
 4514POPC   C3B59097   8.329  14.745   7.033
 4514POPC   C4B59098   8.373  14.783   7.507
 4515POPC   NC359099  30.742  14.675   5.509
 4515POPC   PO459100  30.592  14.009   5.657
 4515POPC   GL159101  30.777  14.328   5.889
 4515POPC   GL259102  30.450  14.489   5.876
 4515POPC   C1A59103  30.903  14.389   6.305
 4515POPC   D2A59104  30.673  14.428   6.691
 4515POPC   C3A59105  30.801  14.300   7.095
 4515POPC   C4A59106  30.741  14.166   7.528
 4515POPC   C1B59107  30.394  14.260   6.246
 4515POPC   C2B59108  30.509  13.967   6.541
 4515POPC   C3B59109  30.370  14.039   6.954
 4515POPC   C4B59110  30.290  14.326   7.293
 4516POPC   NC359111  13.814  28.577   5.189
 4516POPC   PO459112  13.325  28.257   5.441
 4516POPC   GL159113  13.537  28.427   5.796
 4516POPC   GL259114  13.881  28.517   5.707
 4516POPC   C1A59115  13.399  28.476   6.233
 4516POPC   D2A59116  13.156  28.468   6.605
 4516POPC   C3A59117  13.449  28.354   6.918
 4516POPC   C4A59118  13.672  28.162   7.300
 4516POPC   C1B59119  13.894  28.323   6.144
 4516POPC   C2B59120  13.966  28.478   6.559
 4516POPC   C3B59121  13.936  28.442   6.990
 4516POPC   C4B59122  13.846  28.636   7.438
 4517POPC   NC359123   9.532  37.213   5.370
 4517POPC   PO459124  10.001  36.686   5.143
 4517POPC   GL159125   9.900  36.887   5.559
 4517POPC   GL259126   9.592  36.766   5.734
 4517POPC   C1A59127   9.959  36.977   6.020
 4517POPC   D2A59128   9.729  36.722   6.369
 4517POPC   C3A59129   9.754  36.825   6.829
 4517POPC   C4A59130   9.808  36.967   7.295
 4517POPC   C1B59131   9.467  37.085   6.043
 4517POPC   C2B59132   9.482  37.153   6.480
 4517POPC   C3B59133   9.397  37.180   6.915
 4517POPC   C4B59134   9.317  37.095   7.355
 4518POPC   NC359135   8.656  21.005   5.398
 4518POPC   PO459136   9.126  21.488   5.345
 4518POPC   GL159137   8.898  21.383   5.711
 4518POPC   GL259138   9.010  21.035   5.758
 4518POPC   C1A59139   9.042  21.495   6.146
 4518POPC   D2A59140   9.045  21.303   6.575
 4518POPC   C3A59141   8.811  21.557   6.883
 4518POPC   C4A59142   8.792  21.628   7.333
 4518POPC   C1B59143   8.807  21.039   6.139
 4518POPC   C2B59144   8.605  21.032   6.526
 4518POPC   C3B59145   8.742  21.040   6.934
 4518POPC   C4B59146   8.460  21.239   7.178
 4519POPC   NC359147  20.792  29.735   5.377
 4519POPC   PO459148  20.418  30.221   5.691
 4519POPC   GL159149  20.647  29.941   5.883
 4519POPC   GL259150  20.986  30.024   5.774
 4519POPC   C1A59151  20.686  30.053   6.330
 4519POPC   D2A59152  20.618  30.183   6.767
 4519POPC   C3A59153  20.651  29.944   7.139
 4519POPC   C4A59154  20.801  30.179   7.498
 4519POPC   C1B59155  21.035  29.717   6.137
 4519POPC   C2B59156  20.782  29.572   6.478
 4519POPC   C3B59157  20.641  29.433   6.861
 4519POPC   C4B59158  20.848  29.478   7.203
 4520POPC   NC359159  26.850  14.860   5.523
 4520POPC   PO459160  26.897  15.437   5.180
 4520POPC   GL159161  26.732  15.419   5.661
 4520POPC   GL259162  26.507  15.136   5.786
 4520POPC   C1A59163  26.838  15.339   6.135
 4520POPC   D2A59164  27.098  15.162   6.485
 4520POPC   C3A59165  26.990  15.050   6.947
 4520POPC   C4A59166  27.055  15.239   7.387
 4520POPC   C1B59167  26.495  14.973   6.203
 4520POPC   C2B59168  26.591  15.104   6.606
 4520POPC   C3B59169  26.538  14.810   6.943
 4520POPC   C4B59170  26.599  14.986   7.320
 4521POPC   NC359171   8.618  18.515   5.439
 4521POPC   PO459172   8.028  18.115   5.417
 4521POPC   GL159173   8.083  18.306   5.800
 4521POPC   GL259174   8.399  18.207   5.810
 4521POPC   C1A59175   8.209  18.573   6.149
 4521POPC   D2A59176   8.129  18.693   6.574
 4521POPC   C3A59177   8.090  18.380   6.910
 4521POPC   C4A59178   7.798  18.396   7.272
 4521POPC   C1B59179   8.603  18.099   6.168
 4521POPC   C2B59180   8.507  18.283   6.542
 4521POPC   C3B59181   8.502  18.058   6.894
 4521POPC   C4B59182   8.392  17.990   7.293
 4522POPC   NC359183   2.583  42.872   5.377
 4522POPC   PO459184   2.664  43.364   5.810
 4522POPC   GL159185   2.783  42.965   5.970
 4522POPC   GL259186   2.620  42.622   5.865
 4522POPC   C1A59187   2.879  43.077   6.405
 4522POPC   D2A59188   2.727  43.327   6.766
 4522POPC   C3A59189   2.991  43.209   7.109
 4522POPC   C4A59190   2.898  43.062   7.530
 4522POPC   C1B59191   2.775  42.570   6.326
 4522POPC   C2B59192   2.931  42.712   6.758
 4522POPC   C3B59193   2.692  42.791   7.126
 4522POPC   C4B59194   2.470  42.788   7.503
 4523POPC   NC359195   4.629  10.893   5.351
 4523POPC   PO459196   4.094  10.504   5.308
 4523POPC   GL159197   4.126  10.447   5.741
 4523POPC   GL259198   4.503  10.408   5.771
 4523POPC   C1A59199   4.108  10.693   6.127
 4523POPC   D2A59200   4.423  10.694   6.471
 4523POPC   C3A59201   4.297  10.480   6.846
 4523POPC   C4A59202   4.024  10.494   7.213
 4523POPC   C1B59203   4.356  10.255   6.191
 4523POPC   C2B59204   4.085  10.069   6.534
 4523POPC   C3B59205   4.011  10.038   6.969
 4523POPC   C4B59206   4.379  10.102   7.204
 4524POPC   NC359207  25.971  44.623   5.145
 4524POPC   PO459208  26.305   0.020   5.437
 4524POPC   GL159209  26.188  44.811   5.858
 4524POPC   GL259210  26.059  44.496   5.767
 4524POPC   C1A59211  26.215  44.872   6.344
 4524POPC   D2A59212  26.384  44.946   6.790
 4524POPC   C3A59213  26.148  44.928   7.200
 4524POPC   C4A59214  25.916   0.246   7.471
 4524POPC   C1B59215  25.921  44.465   6.219
 4524POPC   C2B59216  26.061  44.491   6.666
 4524POPC   C3B59217  25.905  44.489   7.089
 4524POPC   C4B59218  25.864  44.296   7.484
 4525POPC   NC359219  40.350  15.137   5.465
 4525POPC   PO459220  41.013  14.981   5.519
 4525POPC   GL159221  40.680  14.993   5.865
 4525POPC   GL259222  40.618  15.352   5.842
 4525POPC   C1A59223  40.439  15.142   6.267
 4525POPC   D2A59224  40.296  15.469   6.592
 4525POPC   C3A59225  40.551  15.514   6.965
 4525POPC   C4A59226  40.795  15.540   7.362
 4525POPC   C1B59227  40.956  15.267   6.179
 4525POPC   C2B59228  40.852  15.257   6.608
 4525POPC   C3B59229  41.039  15.238   6.995
 4525POPC   C4B59230  41.031  15.042   7.399
 4526POPC   NC359231   0.881  18.940   5.422
 4526POPC   PO459232   0.205  19.074   5.358
 4526POPC   GL159233   0.451  19.098   5.740
 4526POPC   GL259234   0.644  18.815   5.849
 4526POPC   C1A59235   0.487  19.202   6.166
 4526POPC   D2A59236   0.408  19.041   6.531
 4526POPC   C3A59237   0.201  19.360   6.730
 4526POPC   C4A59238   0.126  19.367   7.173
 4526POPC   C1B59239   0.569  18.586   6.206
 4526POPC   C2B59240   0.672  18.593   6.613
 4526POPC   C3B59241   0.467  18.762   6.950
 4526POPC   C4B59242   0.596  18.848   7.342
 4527POPC   NC359243  20.104   6.584   5.487
 4527POPC   PO459244  19.553   6.120   5.445
 4527POPC   GL159245  19.760   6.324   5.813
 4527POPC   GL259246  20.091   6.244   5.895
 4527POPC   C1A59247  19.798   6.479   6.256
 4527POPC   D2A59248  19.565   6.618   6.623
 4527POPC   C3A59249  19.797   6.701   7.008
 4527POPC   C4A59250  19.869   6.757   7.455
 4527POPC   C1B59251  20.310   6.457   6.239
 4527POPC   C2B59252  20.156   6.639   6.626
 4527POPC   C3B59253  20.297   6.537   7.043
 4527POPC   C4B59254  20.413   6.809   7.362
 4528POPC   NC359255  29.855  16.236   5.619
 4528POPC   PO459256  29.944  15.553   5.484
 4528POPC   GL159257  29.716  15.774   5.801
 4528POPC   GL259258  29.634  15.527   5.955
 4528POPC   C1A59259  29.744  15.975   6.244
 4528POPC   D2A59260  29.991  16.304   6.493
 4528POPC   C3A59261  30.097  16.231   6.927
 4528POPC   C4A59262  29.799  15.993   7.178
 4528POPC   C1B59263  30.096  15.608   6.114
 4528POPC   C2B59264  30.230  15.846   6.472
 4528POPC   C3B59265  30.040  15.727   6.832
 4528POPC   C4B59266  30.156  15.649   7.267
 4529POPC   NC359267  14.228  29.728   5.543
 4529POPC   PO459268  14.531  30.359   5.442
 4529POPC   GL159269  14.489  30.082   5.843
 4529POPC   GL259270  14.587  29.715   5.897
 4529POPC   C1A59271  14.548  30.105   6.291
 4529POPC   D2A59272  14.785  30.359   6.565
 4529POPC   C3A59273  14.681  30.213   6.941
 4529POPC   C4A59274  14.566  30.055   7.301
 4529POPC   C1B59275  14.236  29.731   6.185
 4529POPC   C2B59276  14.206  29.678   6.600
 4529POPC   C3B59277  14.258  29.885   6.934
 4529POPC   C4B59278  14.077  29.906   7.311
 4530POPC   NC359279  30.788  22.670   5.460
 4530POPC   PO459280  30.333  23.209   5.376
 4530POPC   GL159281  30.553  23.011   5.785
 4530POPC   GL259282  30.922  22.939   5.888
 4530POPC   C1A59283  30.566  22.890   6.245
 4530POPC   D2A59284  30.780  22.935   6.643
 4530POPC   C3A59285  30.481  23.038   6.969
 4530POPC   C4A59286  30.409  22.711   7.212
 4530POPC   C1B59287  30.920  23.282   6.235
 4530POPC   C2B59288  31.076  23.353   6.683
 4530POPC   C3B59289  30.944  23.204   7.105
 4530POPC   C4B59290  30.945  23.289   7.541
 4531POPC   NC359291  27.002   3.452   5.684
 4531POPC   PO459292  27.532   3.722   5.193
 4531POPC   GL159293  27.501   3.659   5.655
 4531POPC   GL259294  27.709   3.376   5.818
 4531POPC   C1A59295  27.425   3.902   6.046
 4531POPC   D2A59296  27.527   3.917   6.516
 4531POPC   C3A59297  27.497   3.643   6.887
 4531POPC   C4A59298  27.303   3.749   7.295
 4531POPC   C1B59299  27.774   3.566   6.213
 4531POPC   C2B59300  27.931   3.489   6.622
 4531POPC   C3B59301  27.984   3.426   7.056
 4531POPC   C4B59302  27.668   3.401   7.357
 4532POPC   NC359303   9.759  12.923   4.992
 4532POPC   PO459304  10.033  12.738   5.604
 4532POPC   GL159305   9.707  12.749   5.955
 4532POPC   GL259306   9.379  12.649   5.808
 4532POPC   C1A59307   9.767  12.904   6.371
 4532POPC   D2A59308  10.189  12.991   6.522
 4532POPC   C3A59309  10.186  13.086   6.958
 4532POPC   C4A59310   9.997  12.821   7.241
 4532POPC   C1B59311   9.226  12.494   6.191
 4532POPC   C2B59312   9.449  12.529   6.544
 4532POPC   C3B59313   9.658  12.624   6.905
 4532POPC   C4B59314   9.600  12.437   7.303
 4533POPC   NC359315  13.011   0.878   5.333
 4533POPC   PO459316  12.873   1.513   5.317
 4533POPC   GL159317  12.868   1.272   5.702
 4533POPC   GL259318  12.633   0.986   5.709
 4533POPC   C1A59319  12.950   1.430   6.114
 4533POPC   D2A59320  12.703   1.355   6.458
 4533POPC   C3A59321  12.867   1.513   6.792
 4533POPC   C4A59322  12.821   1.417   7.204
 4533POPC   C1B59323  12.785   0.952   6.138
 4533POPC   C2B59324  13.056   1.013   6.488
 4533POPC   C3B59325  12.961   1.004   6.904
 4533POPC   C4B59326  13.254   1.056   7.203
 4534POPC   NC359327  43.235  44.208   5.476
 4534POPC   PO459328  43.111  43.561   5.502
 4534POPC   GL159329  43.040  43.883   5.832
 4534POPC   GL259330  42.720  44.049   5.896
 4534POPC   C1A59331  43.124  44.128   6.228
 4534POPC   D2A59332  43.293  43.991   6.619
 4534POPC   C3A59333  43.147  44.001   7.068
 4534POPC   C4A59334  43.353  43.811   7.453
 4534POPC   C1B59335  42.753  43.789   6.245
 4534POPC   C2B59336  42.900  43.659   6.618
 4534POPC   C3B59337  42.751  43.702   7.002
 4534POPC   C4B59338  42.467  43.617   7.286
 4535POPC   NC359339  24.102  27.606   5.601
 4535POPC   PO459340  24.754  27.757   5.485
 4535POPC   GL159341  24.582  27.495   5.875
 4535POPC   GL259342  24.235  27.377   6.024
 4535POPC   C1A59343  24.641  27.451   6.352
 4535POPC   D2A59344  24.429  27.370   6.746
 4535POPC   C3A59345  24.644  27.467   7.117
 4535POPC   C4A59346  24.731  27.903   7.178
 4535POPC   C1B59347  24.293  27.816   6.217
 4535POPC   C2B59348  24.398  27.889   6.641
 4535POPC   C3B59349  24.247  27.774   7.044
 4535POPC   C4B59350  24.157  27.376   7.206
 4536POPC   NC359351  38.423  40.329   5.343
 4536POPC   PO459352  38.396  41.019   5.223
 4536POPC   GL159353  38.431  40.889   5.674
 4536POPC   GL259354  38.690  40.599   5.711
 4536POPC   C1A59355  38.413  41.060   6.133
 4536POPC   D2A59356  38.580  41.127   6.593
 4536POPC   C3A59357  38.552  40.759   6.880
 4536POPC   C4A59358  38.438  40.654   7.307
 4536POPC   C1B59359  38.422  40.413   6.061
 4536POPC   C2B59360  38.370  40.397   6.524
 4536POPC   C3B59361  38.131  40.460   6.916
 4536POPC   C4B59362  38.140  40.244   7.324
 4537POPC   NC359363  16.286  18.239   5.350
 4537POPC   PO459364  15.718  18.593   5.464
 4537POPC   GL159365  15.863  18.320   5.762
 4537POPC   GL259366  16.127  18.503   5.906
 4537POPC   C1A59367  15.702  18.144   6.138
 4537POPC   D2A59368  15.704  18.161   6.606
 4537POPC   C3A59369  15.781  18.235   7.053
 4537POPC   C4A59370  15.628  18.001   7.424
 4537POPC   C1B59371  16.035  18.466   6.358
 4537POPC   C2B59372  16.259  18.246   6.694
 4537POPC   C3B59373  16.243  18.013   7.091
 4537POPC   C4B59374  16.106  18.222   7.484
 4538POPC   NC359375  39.475  15.943   5.515
 4538POPC   PO459376  38.797  15.767   5.311
 4538POPC   GL159377  39.024  15.806   5.730
 4538POPC   GL259378  39.281  15.605   5.815
 4538POPC   C1A59379  39.153  15.986   6.145
 4538POPC   D2A59380  38.887  15.995   6.510
 4538POPC   C3A59381  39.100  16.096   6.835
 4538POPC   C4A59382  39.162  15.998   7.217
 4538POPC   C1B59383  39.402  15.528   6.228
 4538POPC   C2B59384  39.406  15.777   6.581
 4538POPC   C3B59385  39.624  15.762   6.964
 4538POPC   C4B59386  39.625  15.606   7.309
 4539POPC   NC359387  32.723  16.085   5.349
 4539POPC   PO459388  32.075  16.139   5.343
 4539POPC   GL159389  32.293  15.888   5.657
 4539POPC   GL259390  32.486  15.590   5.562
 4539POPC   C1A59391  32.373  15.940   6.096
 4539POPC   D2A59392  32.501  16.107   6.448
 4539POPC   C3A59393  32.326  15.903   6.772
 4539POPC   C4A59394  32.281  15.955   7.179
 4539POPC   C1B59395  32.617  15.529   5.981
 4539POPC   C2B59396  32.556  15.567   6.457
 4539POPC   C3B59397  32.726  15.613   6.914
 4539POPC   C4B59398  32.638  15.649   7.357
 4540POPC   NC359399  37.719  16.459   5.598
 4540POPC   PO459400  38.019  15.951   5.156
 4540POPC   GL159401  37.732  15.779   5.577
 4540POPC   GL259402  37.514  16.013   5.780
 4540POPC   C1A59403  37.638  15.620   6.068
 4540POPC   D2A59404  37.508  15.808   6.494
 4540POPC   C3A59405  37.511  15.608   6.911
 4540POPC   C4A59406  37.424  15.703   7.346
 4540POPC   C1B59407  37.775  16.089   6.160
 4540POPC   C2B59408  37.734  16.292   6.568
 4540POPC   C3B59409  37.717  16.122   6.973
 4540POPC   C4B59410  37.947  15.841   7.196
 4541POPC   NC359411  33.150  18.045   5.439
 4541POPC   PO459412  33.382  18.667   5.660
 4541POPC   GL159413  33.148  18.399   5.967
 4541POPC   GL259414  33.019  18.033   5.960
 4541POPC   C1A59415  33.241  18.166   6.389
 4541POPC   D2A59416  33.523  18.231   6.724
 4541POPC   C3A59417  33.238  18.274   7.065
 4541POPC   C4A59418  33.140  18.168   7.516
 4541POPC   C1B59419  32.756  18.298   6.278
 4541POPC   C2B59420  32.819  18.309   6.738
 4541POPC   C3B59421  32.752  18.150   7.157
 4541POPC   C4B59422  32.690  18.414   7.506
 4542POPC   NC359423  21.400  22.368   5.462
 4542POPC   PO459424  20.888  21.971   5.155
 4542POPC   GL159425  21.094  21.877   5.615
 4542POPC   GL259426  21.344  22.078   5.849
 4542POPC   C1A59427  20.966  21.903   6.096
 4542POPC   D2A59428  21.247  22.208   6.353
 4542POPC   C3A59429  21.262  22.312   6.820
 4542POPC   C4A59430  21.255  21.982   7.177
 4542POPC   C1B59431  21.680  22.016   6.134
 4542POPC   C2B59432  21.882  22.227   6.466
 4542POPC   C3B59433  21.742  22.131   6.857
 4542POPC   C4B59434  21.613  22.330   7.203
 4543POPC   NC359435  28.523  21.559   5.457
 4543POPC   PO459436  28.591  20.951   5.622
 4543POPC   GL159437  28.317  21.105   5.934
 4543POPC   GL259438  28.234  21.446   5.929
 4543POPC   C1A59439  28.502  21.250   6.330
 4543POPC   D2A59440  28.644  21.072   6.709
 4543POPC   C3A59441  28.405  21.252   7.041
 4543POPC   C4A59442  28.371  21.369   7.465
 4543POPC   C1B59443  27.990  21.248   6.327
 4543POPC   C2B59444  27.906  21.207   6.794
 4543POPC   C3B59445  27.923  21.450   7.198
 4543POPC   C4B59446  27.956  21.604   7.653
 4544POPC   NC359447  44.937  30.864   5.456
 4544POPC   PO459448  44.562  30.280   5.426
 4544POPC   GL159449  44.570  30.608   5.757
 4544POPC   GL259450  44.197  30.659   5.800
 4544POPC   C1A59451  44.866  30.777   6.120
 4544POPC   D2A59452  44.978  30.970   6.526
 4544POPC   C3A59453  44.961  30.764   6.899
 4544POPC   C4A59454  44.661  30.813   7.195
 4544POPC   C1B59455  44.365  30.656   6.242
 4544POPC   C2B59456  44.452  30.761   6.687
 4544POPC   C3B59457  44.233  30.584   7.048
 4544POPC   C4B59458  44.254  30.674   7.476
 4545POPC   NC359459  38.194  12.758   5.243
 4545POPC   PO459460  38.672  13.184   5.210
 4545POPC   GL159461  38.534  12.956   5.611
 4545POPC   GL259462  38.716  12.639   5.726
 4545POPC   C1A59463  38.362  12.839   6.038
 4545POPC   D2A59464  38.413  12.972   6.471
 4545POPC   C3A59465  38.555  12.649   6.775
 4545POPC   C4A59466  38.608  12.768   7.201
 4545POPC   C1B59467  38.866  12.983   6.033
 4545POPC   C2B59468  38.963  13.094   6.455
 4545POPC   C3B59469  38.784  13.084   6.823
 4545POPC   C4B59470  38.890  13.182   7.191
 4546POPC   NC359471  25.122   4.772   5.775
 4546POPC   PO459472  25.361   4.215   5.372
 4546POPC   GL159473  25.431   4.337   5.799
 4546POPC   GL259474  25.733   4.496   5.988
 4546POPC   C1A59475  25.314   4.133   6.176
 4546POPC   D2A59476  25.456   3.999   6.589
 4546POPC   C3A59477  25.170   4.042   6.935
 4546POPC   C4A59478  25.252   4.181   7.349
 4546POPC   C1B59479  25.438   4.611   6.310
 4546POPC   C2B59480  25.131   4.425   6.584
 4546POPC   C3B59481  25.069   4.552   7.015
 4546POPC   C4B59482  25.407   4.659   7.325
 4547POPC   NC359483  43.659  12.964   5.296
 4547POPC   PO459484  43.011  13.119   5.315
 4547POPC   GL159485  43.070  12.834   5.673
 4547POPC   GL259486  43.419  12.753   5.744
 4547POPC   C1A59487  43.056  12.767   6.128
 4547POPC   D2A59488  42.863  12.646   6.516
 4547POPC   C3A59489  42.950  12.970   6.814
 4547POPC   C4A59490  43.052  12.987   7.218
 4547POPC   C1B59491  43.571  12.855   6.195
 4547POPC   C2B59492  43.390  12.824   6.589
 4547POPC   C3B59493  43.459  12.729   7.017
 4547POPC   C4B59494  43.553  13.089   7.261
 4548POPC   NC359495   4.442  18.983   5.177
 4548POPC   PO459496   4.100  19.449   5.510
 4548POPC   GL159497   4.373  19.313   5.829
 4548POPC   GL259498   4.567  19.003   5.778
 4548POPC   C1A59499   4.550  19.425   6.226
 4548POPC   D2A59500   4.412  19.241   6.583
 4548POPC   C3A59501   4.387  19.257   7.018
 4548POPC   C4A59502   4.058  19.506   7.175
 4548POPC   C1B59503   4.297  18.943   6.170
 4548POPC   C2B59504   4.310  18.713   6.564
 4548POPC   C3B59505   4.181  18.582   6.965
 4548POPC   C4B59506   4.370  18.793   7.301
 4549POPC   NC359507  44.599   2.447   4.955
 4549POPC   PO459508  44.647   2.887   5.452
 4549POPC   GL159509  44.657   2.745   5.854
 4549POPC   GL259510  44.429   2.483   5.898
 4549POPC   C1A59511  44.819   2.787   6.266
 4549POPC   D2A59512  44.921   2.950   6.664
 4549POPC   C3A59513  44.769   2.641   6.925
 4549POPC   C4A59514  44.688   2.701   7.334
 4549POPC   C1B59515  44.312   2.728   6.285
 4549POPC   C2B59516  44.340   2.834   6.714
 4549POPC   C3B59517  44.250   2.627   7.090
 4549POPC   C4B59518  44.312   2.373   7.468
 4550POPC   NC359519  42.919  29.780   5.410
 4550POPC   PO459520  43.007  30.432   5.238
 4550POPC   GL159521  43.025  30.190   5.695
 4550POPC   GL259522  43.305  29.981   5.738
 4550POPC   C1A59523  42.854  30.049   6.136
 4550POPC   D2A59524  43.069  29.949   6.553
 4550POPC   C3A59525  43.008  30.123   6.967
 4550POPC   C4A59526  42.925  29.854   7.290
 4550POPC   C1B59527  43.333  29.758   6.146
 4550POPC   C2B59528  43.511  29.692   6.578
 4550POPC   C3B59529  43.369  29.758   7.024
 4550POPC   C4B59530  43.351  29.723   7.523
 4551POPC   NC359531  44.383  25.082   5.621
 4551POPC   PO459532  44.688  25.596   5.535
 4551POPC   GL159533  44.845  25.200   5.734
 4551POPC   GL259534  44.645  25.338   5.991
 4551POPC   C1A59535  44.894  24.946   6.156
 4551POPC   D2A59536  44.838  25.201   6.555
 4551POPC   C3A59537  44.732  25.209   7.035
 4551POPC   C4A59538  44.295  25.246   7.228
 4551POPC   C1B59539  44.768  25.704   6.227
 4551POPC   C2B59540  44.941  25.707   6.614
 4551POPC   C3B59541  44.732  25.738   6.980
 4551POPC   C4B59542  44.879  25.623   7.361
 4552POPC   NC359543  19.101  42.413   4.974
 4552POPC   PO459544  19.124  41.880   5.348
 4552POPC   GL159545  19.298  42.112   5.683
 4552POPC   GL259546  19.236  42.436   5.691
 4552POPC   C1A59547  19.379  42.095   6.099
 4552POPC   D2A59548  19.127  42.107   6.451
 4552POPC   C3A59549  19.245  42.230   6.861
 4552POPC   C4A59550  18.954  42.368   7.175
 4552POPC   C1B59551  19.131  42.548   6.123
 4552POPC   C2B59552  19.208  42.722   6.540
 4552POPC   C3B59553  18.905  42.821   6.882
 4552POPC   C4B59554  18.707  42.809   7.271
 4553POPC   NC359555  41.029   0.488   5.492
 4553POPC   PO459556  40.459   0.098   5.584
 4553POPC   GL159557  40.640   0.445   5.852
 4553POPC   GL259558  40.397   0.680   5.889
 4553POPC   C1A59559  40.947   0.514   6.203
 4553POPC   D2A59560  41.155   0.464   6.618
 4553POPC   C3A59561  40.863   0.193   6.809
 4553POPC   C4A59562  40.628   0.097   7.157
 4553POPC   C1B59563  40.538   0.796   6.264
 4553POPC   C2B59564  40.721   0.765   6.655
 4553POPC   C3B59565  40.541   0.578   7.003
 4553POPC   C4B59566  40.322   0.609   7.373
 4554POPC   NC359567  19.876  35.933   5.065
 4554POPC   PO459568  19.421  35.938   5.520
 4554POPC   GL159569  19.812  36.093   5.666
 4554POPC   GL259570  19.685  36.366   5.832
 4554POPC   C1A59571  20.041  36.102   6.086
 4554POPC   D2A59572  20.031  35.899   6.498
 4554POPC   C3A59573  19.967  36.120   6.914
 4554POPC   C4A59574  19.884  35.965   7.328
 4554POPC   C1B59575  19.566  36.538   6.197
 4554POPC   C2B59576  19.722  36.408   6.583
 4554POPC   C3B59577  19.636  36.544   7.017
 4554POPC   C4B59578  19.671  36.444   7.454
 4555POPC   NC359579  39.706   1.958   5.461
 4555POPC   PO459580  40.206   2.314   5.273
 4555POPC   GL159581  40.060   2.210   5.766
 4555POPC   GL259582  39.712   2.138   5.933
 4555POPC   C1A59583  40.117   1.929   6.178
 4555POPC   D2A59584  40.077   2.030   6.653
 4555POPC   C3A59585  40.379   1.967   7.017
 4555POPC   C4A59586  40.335   1.801   7.467
 4555POPC   C1B59587  39.636   1.966   6.356
 4555POPC   C2B59588  39.582   1.979   6.795
 4555POPC   C3B59589  39.894   1.896   7.122
 4555POPC   C4B59590  39.922   2.072   7.554
 4556POPC   NC359591   6.449  10.910   5.514
 4556POPC   PO459592   6.746  10.325   5.447
 4556POPC   GL159593   6.516  10.481   5.786
 4556POPC   GL259594   6.757  10.725   5.902
 4556POPC   C1A59595   6.254  10.502   6.146
 4556POPC   D2A59596   6.099  10.382   6.533
 4556POPC   C3A59597   6.381  10.500   6.836
 4556POPC   C4A59598   6.501  10.583   7.244
 4556POPC   C1B59599   6.685  10.659   6.362
 4556POPC   C2B59600   6.730  10.890   6.745
 4556POPC   C3B59601   6.934  10.857   7.146
 4556POPC   C4B59602   6.981  10.776   7.582
 4557POPC   NC359603  36.510   7.448   5.426
 4557POPC   PO459604  37.131   7.117   5.333
 4557POPC   GL159605  36.958   7.365   5.735
 4557POPC   GL259606  36.682   7.600   5.866
 4557POPC   C1A59607  36.838   7.237   6.198
 4557POPC   D2A59608  36.907   7.444   6.562
 4557POPC   C3A59609  36.670   7.330   6.925
 4557POPC   C4A59610  36.765   7.533   7.308
 4557POPC   C1B59611  37.042   7.721   6.122
 4557POPC   C2B59612  37.108   7.930   6.513
 4557POPC   C3B59613  37.011   7.785   6.924
 4557POPC   C4B59614  37.251   7.688   7.266
 4558POPC   NC359615  17.198  37.637   5.430
 4558POPC   PO459616  16.685  38.021   5.547
 4558POPC   GL159617  16.729  37.852   5.986
 4558POPC   GL259618  17.066  37.775   6.024
 4558POPC   C1A59619  16.782  38.000   6.460
 4558POPC   D2A59620  16.454  37.939   6.810
 4558POPC   C3A59621  16.411  37.599   7.144
 4558POPC   C4A59622  16.499  37.611   7.610
 4558POPC   C1B59623  16.862  37.510   6.387
 4558POPC   C2B59624  16.837  37.618   6.852
 4558POPC   C3B59625  17.154  37.638   7.201
 4558POPC   C4B59626  17.478  37.476   7.510
 4559POPC   NC359627  40.063   0.161   5.356
 4559POPC   PO459628  39.725   0.787   5.399
 4559POPC   GL159629  39.871   0.647   5.803
 4559POPC   GL259630  40.048   0.317   5.829
 4559POPC   C1A59631  40.002   0.806   6.219
 4559POPC   D2A59632  40.196   0.667   6.606
 4559POPC   C3A59633  40.040   0.835   6.952
 4559POPC   C4A59634  39.846   0.724   7.322
 4559POPC   C1B59635  40.213   0.294   6.233
 4559POPC   C2B59636  39.979   0.218   6.606
 4559POPC   C3B59637  40.079   0.328   7.006
 4559POPC   C4B59638  40.154   0.118   7.352
 4560POPC   NC359639   1.456   3.390   5.507
 4560POPC   PO459640   2.104   3.477   5.326
 4560POPC   GL159641   1.965   3.619   5.727
 4560POPC   GL259642   2.202   3.895   5.718
 4560POPC   C1A59643   1.798   3.654   6.158
 4560POPC   D2A59644   1.670   3.596   6.604
 4560POPC   C3A59645   2.008   3.421   6.867
 4560POPC   C4A59646   1.926   3.295   7.277
 4560POPC   C1B59647   2.186   4.051   6.165
 4560POPC   C2B59648   2.107   3.887   6.582
 4560POPC   C3B59649   2.008   3.907   7.035
 4560POPC   C4B59650   2.191   3.713   7.378
 4561POPC   NC359651  33.957  27.123   5.602
 4561POPC   PO459652  33.425  26.815   5.391
 4561POPC   GL159653  33.608  26.813   5.896
 4561POPC   GL259654  33.975  26.711   5.931
 4561POPC   C1A59655  33.744  26.907   6.318
 4561POPC   D2A59656  33.970  26.640   6.572
 4561POPC   C3A59657  33.942  26.828   6.963
 4561POPC   C4A59658  34.146  27.050   7.276
 4561POPC   C1B59659  33.691  26.393   6.157
 4561POPC   C2B59660  33.522  26.283   6.525
 4561POPC   C3B59661  33.679  26.350   6.914
 4561POPC   C4B59662  33.610  26.583   7.251
 4562POPC   NC359663  36.200   3.804   5.407
 4562POPC   PO459664  35.908   3.208   5.256
 4562POPC   GL159665  35.954   3.410   5.752
 4562POPC   GL259666  36.003   3.771   5.858
 4562POPC   C1A59667  36.203   3.417   6.196
 4562POPC   D2A59668  36.484   3.366   6.618
 4562POPC   C3A59669  36.283   3.308   7.020
 4562POPC   C4A59670  36.188   3.421   7.450
 4562POPC   C1B59671  36.243   3.921   6.212
 4562POPC   C2B59672  36.136   3.754   6.619
 4562POPC   C3B59673  36.296   3.816   7.026
 4562POPC   C4B59674  36.199   3.935   7.416
 4563POPC   NC359675  10.835   2.790   5.681
 4563POPC   PO459676  11.321   3.006   5.231
 4563POPC   GL159677  11.348   2.923   5.720
 4563POPC   GL259678  11.272   2.589   5.872
 4563POPC   C1A59679  11.322   3.012   6.223
 4563POPC   D2A59680  11.174   3.101   6.695
 4563POPC   C3A59681  11.361   2.861   7.067
 4563POPC   C4A59682  11.333   2.953   7.513
 4563POPC   C1B59683  11.461   2.515   6.232
 4563POPC   C2B59684  11.561   2.665   6.633
 4563POPC   C3B59685  11.535   2.374   7.002
 4563POPC   C4B59686  11.588   2.514   7.416
 4564POPC   NC359687   8.516  27.802   5.498
 4564POPC   PO459688   9.164  27.790   5.595
 4564POPC   GL159689   9.063  27.594   5.935
 4564POPC   GL259690   8.936  27.290   5.754
 4564POPC   C1A59691   9.117  27.808   6.323
 4564POPC   D2A59692   8.891  28.073   6.635
 4564POPC   C3A59693   8.767  27.784   6.969
 4564POPC   C4A59694   9.168  27.709   7.125
 4564POPC   C1B59695   8.920  27.188   6.199
 4564POPC   C2B59696   8.958  27.396   6.598
 4564POPC   C3B59697   8.951  27.224   6.989
 4564POPC   C4B59698   8.831  27.338   7.364
 4565POPC   NC359699  27.189  30.788   5.393
 4565POPC   PO459700  27.867  30.566   5.245
 4565POPC   GL159701  27.744  30.590   5.677
 4565POPC   GL259702  27.974  30.825   5.826
 4565POPC   C1A59703  27.730  30.427   6.129
 4565POPC   D2A59704  27.515  30.543   6.533
 4565POPC   C3A59705  27.754  30.467   6.934
 4565POPC   C4A59706  27.635  30.406   7.366
 4565POPC   C1B59707  27.745  30.940   6.239
 4565POPC   C2B59708  27.654  31.014   6.702
 4565POPC   C3B59709  27.625  30.908   7.167
 4565POPC   C4B59710  27.901  30.832   7.562
 4566POPC   NC359711  27.427  44.189   5.582
 4566POPC   PO459712  27.844  43.713   5.357
 4566POPC   GL159713  27.723  43.828   5.782
 4566POPC   GL259714  27.452  43.599   5.790
 4566POPC   C1A59715  27.598  44.054   6.191
 4566POPC   D2A59716  27.370  44.250   6.554
 4566POPC   C3A59717  27.636  44.200   6.896
 4566POPC   C4A59718  27.801  44.176   7.279
 4566POPC   C1B59719  27.723  43.507   6.160
 4566POPC   C2B59720  27.807  43.737   6.534
 4566POPC   C3B59721  27.500  43.721   6.840
 4566POPC   C4B59722  27.521  43.546   7.227
 4567POPC   NC359723  28.245  41.393   5.367
 4567POPC   PO459724  28.627  40.876   5.529
 4567POPC   GL159725  28.269  40.943   5.836
 4567POPC   GL259726  28.152  40.618   5.976
 4567POPC   C1A59727  28.110  41.021   6.270
 4567POPC   D2A59728  28.094  40.713   6.607
 4567POPC   C3A59729  28.335  40.812   6.946
 4567POPC   C4A59730  28.253  41.085   7.277
 4567POPC   C1B59731  28.495  40.664   6.292
 4567POPC   C2B59732  28.642  40.465   6.676
 4567POPC   C3B59733  28.742  40.558   7.111
 4567POPC   C4B59734  28.776  41.013   7.193
 4568POPC   NC359735  28.223   0.378   5.353
 4568POPC   PO459736  28.932   0.446   5.346
 4568POPC   GL159737  28.566   0.359   5.743
 4568POPC   GL259738  28.171   0.379   5.855
 4568POPC   C1A59739  28.451   0.208   6.224
 4568POPC   D2A59740  28.248   0.497   6.563
 4568POPC   C3A59741  28.516   0.771   6.827
 4568POPC   C4A59742  28.854   0.697   7.129
 4568POPC   C1B59743  27.957   0.663   6.163
 4568POPC   C2B59744  27.792   0.795   6.575
 4568POPC   C3B59745  28.005   0.743   6.985
 4568POPC   C4B59746  28.280   0.384   7.081
 4569POPC   NC359747  29.089  44.276   5.485
 4569POPC   PO459748  28.555  44.067   5.716
 4569POPC   GL159749  28.993  43.969   5.921
 4569POPC   GL259750  29.358  43.853   5.845
 4569POPC   C1A59751  29.145  44.022   6.350
 4569POPC   D2A59752  28.964  44.250   6.680
 4569POPC   C3A59753  29.098  44.088   7.074
 4569POPC   C4A59754  29.100  44.085   7.555
 4569POPC   C1B59755  29.565  43.728   6.254
 4569POPC   C2B59756  29.428  43.623   6.695
 4569POPC   C3B59757  29.153  43.591   7.074
 4569POPC   C4B59758  29.220  43.587   7.547
 4570POPC   NC359759  19.306  36.424   5.507
 4570POPC   PO459760  18.683  36.654   5.537
 4570POPC   GL159761  18.868  36.357   5.876
 4570POPC   GL259762  19.205  36.192   5.940
 4570POPC   C1A59763  19.037  36.512   6.301
 4570POPC   D2A59764  19.225  36.345   6.696
 4570POPC   C3A59765  18.974  36.164   7.058
 4570POPC   C4A59766  18.865  36.178   7.527
 4570POPC   C1B59767  19.526  36.035   6.236
 4570POPC   C2B59768  19.540  35.925   6.662
 4570POPC   C3B59769  19.481  36.071   7.043
 4570POPC   C4B59770  19.343  36.074   7.410
 4571POPC   NC359771  39.552   7.291   5.634
 4571POPC   PO459772  38.863   7.432   5.463
 4571POPC   GL159773  38.921   7.506   5.894
 4571POPC   GL259774  39.247   7.598   5.954
 4571POPC   C1A59775  38.862   7.323   6.298
 4571POPC   D2A59776  39.007   7.453   6.728
 4571POPC   C3A59777  39.145   7.284   7.131
 4571POPC   C4A59778  39.139   7.468   7.568
 4571POPC   C1B59779  39.369   7.418   6.353
 4571POPC   C2B59780  39.533   7.581   6.757
 4571POPC   C3B59781  39.575   7.546   7.220
 4571POPC   C4B59782  39.614   7.273   7.593
 4572POPC   NC359783  34.018  11.760   5.103
 4572POPC   PO459784  34.669  11.800   5.396
 4572POPC   GL159785  34.600  12.013   5.782
 4572POPC   GL259786  34.614  11.690   5.913
 4572POPC   C1A59787  34.362  12.056   6.190
 4572POPC   D2A59788  34.579  12.039   6.570
 4572POPC   C3A59789  34.519  12.207   6.969
 4572POPC   C4A59790  34.404  12.320   7.373
 4572POPC   C1B59791  34.664  11.585   6.319
 4572POPC   C2B59792  34.306  11.583   6.534
 4572POPC   C3B59793  34.394  11.703   6.916
 4572POPC   C4B59794  34.449  11.826   7.330
 4573POPC   NC359795  36.184  43.999   5.314
 4573POPC   PO459796  36.721  43.603   5.374
 4573POPC   GL159797  36.313  43.642   5.644
 4573POPC   GL259798  35.953  43.604   5.681
 4573POPC   C1A59799  36.292  43.739   6.099
 4573POPC   D2A59800  36.120  43.855   6.501
 4573POPC   C3A59801  36.320  43.947   6.883
 4573POPC   C4A59802  36.183  43.860   7.306
 4573POPC   C1B59803  35.765  43.713   6.091
 4573POPC   C2B59804  35.684  43.609   6.525
 4573POPC   C3B59805  35.833  43.768   6.930
 4573POPC   C4B59806  35.806  43.535   7.344
 4574POPC   NC359807  15.382   4.549   5.321
 4574POPC   PO459808  14.991   3.964   5.437
 4574POPC   GL159809  15.164   4.164   5.819
 4574POPC   GL259810  15.527   4.213   5.775
 4574POPC   C1A59811  15.276   4.375   6.260
 4574POPC   D2A59812  15.333   4.652   6.669
 4574POPC   C3A59813  15.009   4.610   7.033
 4574POPC   C4A59814  15.017   4.567   7.514
 4574POPC   C1B59815  15.484   3.907   6.115
 4574POPC   C2B59816  15.315   3.903   6.507
 4574POPC   C3B59817  15.297   4.177   6.848
 4574POPC   C4B59818  15.202   4.182   7.258
 4575POPC   NC359819  18.921  20.997   5.356
 4575POPC   PO459820  19.309  21.456   5.499
 4575POPC   GL159821  19.040  21.354   5.792
 4575POPC   GL259822  19.202  21.045   5.812
 4575POPC   C1A59823  19.033  21.564   6.192
 4575POPC   D2A59824  18.877  21.419   6.585
 4575POPC   C3A59825  19.077  21.553   6.938
 4575POPC   C4A59826  19.027  21.396   7.347
 4575POPC   C1B59827  19.369  21.179   6.211
 4575POPC   C2B59828  19.351  21.184   6.660
 4575POPC   C3B59829  19.320  21.091   7.085
 4575POPC   C4B59830  19.261  20.968   7.558
 4576POPC   NC359831   2.116  41.370   5.205
 4576POPC   PO459832   1.802  41.911   5.322
 4576POPC   GL159833   1.956  41.707   5.742
 4576POPC   GL259834   2.123  41.354   5.778
 4576POPC   C1A59835   2.008  41.669   6.214
 4576POPC   D2A59836   1.808  41.429   6.566
 4576POPC   C3A59837   1.990  41.345   6.962
 4576POPC   C4A59838   1.818  41.534   7.317
 4576POPC   C1B59839   2.037  41.148   6.195
 4576POPC   C2B59840   2.158  40.971   6.604
 4576POPC   C3B59841   2.386  41.014   7.001
 4576POPC   C4B59842   2.428  41.370   7.279
 4577POPC   NC359843  21.728  37.234   5.441
 4577POPC   PO459844  21.559  37.882   5.485
 4577POPC   GL159845  21.254  37.686   5.739
 4577POPC   GL259846  21.457  37.462   5.870
 4577POPC   C1A59847  21.031  37.762   6.139
 4577POPC   D2A59848  21.051  37.971   6.554
 4577POPC   C3A59849  21.117  37.680   6.902
 4577POPC   C4A59850  21.326  37.470   7.235
 4577POPC   C1B59851  21.524  37.802   6.191
 4577POPC   C2B59852  21.550  37.668   6.606
 4577POPC   C3B59853  21.592  37.863   6.983
 4577POPC   C4B59854  21.703  38.113   7.306
 4578POPC   NC359855   6.176  38.920   5.590
 4578POPC   PO459856   6.048  39.641   5.444
 4578POPC   GL159857   5.948  39.352   5.779
 4578POPC   GL259858   6.273  39.293   5.934
 4578POPC   C1A59859   5.865  39.359   6.244
 4578POPC   D2A59860   5.919  39.412   6.688
 4578POPC   C3A59861   5.578  39.467   6.913
 4578POPC   C4A59862   5.485  39.619   7.299
 4578POPC   C1B59863   6.233  38.935   6.239
 4578POPC   C2B59864   6.337  38.850   6.675
 4578POPC   C3B59865   6.181  38.961   7.089
 4578POPC   C4B59866   5.884  39.266   7.262
 4579POPC   NC359867  23.561  38.166   5.370
 4579POPC   PO459868  23.706  38.822   5.377
 4579POPC   GL159869  23.648  38.539   5.731
 4579POPC   GL259870  24.009  38.486   5.714
 4579POPC   C1A59871  23.491  38.312   6.112
 4579POPC   D2A59872  23.672  38.344   6.541
 4579POPC   C3A59873  23.452  38.489   6.909
 4579POPC   C4A59874  23.228  38.254   7.248
 4579POPC   C1B59875  24.019  38.303   6.121
 4579POPC   C2B59876  24.179  38.403   6.538
 4579POPC   C3B59877  24.000  38.346   6.969
 4579POPC   C4B59878  23.999  38.426   7.437
 4580POPC   NC359879  44.725  35.539   5.164
 4580POPC   PO459880  44.147  35.470   5.322
 4580POPC   GL159881  44.489  35.589   5.803
 4580POPC   GL259882  44.809  35.658   5.686
 4580POPC   C1A59883  44.609  35.328   6.202
 4580POPC   D2A59884  44.523  35.132   6.584
 4580POPC   C3A59885  44.461  35.348   6.986
 4580POPC   C4A59886  44.664  35.222   7.375
 4580POPC   C1B59887  44.801  35.785   6.148
 4580POPC   C2B59888   0.011  35.637   6.560
 4580POPC   C3B59889  44.945  35.463   6.988
 4580POPC   C4B59890  44.983  35.626   7.396
 4581POPC   NC359891  21.797  32.034   5.477
 4581POPC   PO459892  22.191  32.557   5.243
 4581POPC   GL159893  22.187  32.329   5.682
 4581POPC   GL259894  21.852  32.317   5.899
 4581POPC   C1A59895  22.299  32.231   6.126
 4581POPC   D2A59896  22.134  31.987   6.481
 4581POPC   C3A59897  22.296  32.154   6.872
 4581POPC   C4A59898  22.406  31.931   7.254
 4581POPC   C1B59899  21.685  32.209   6.319
 4581POPC   C2B59900  21.772  32.199   6.799
 4581POPC   C3B59901  21.944  32.166   7.241
 4581POPC   C4B59902  21.937  32.431   7.615
 4582POPC   NC359903  34.135  16.839   5.139
 4582POPC   PO459904  34.792  16.762   5.462
 4582POPC   GL159905  34.694  16.667   5.866
 4582POPC   GL259906  34.337  16.617   5.839
 4582POPC   C1A59907  34.808  16.767   6.288
 4582POPC   D2A59908  34.628  16.681   6.672
 4582POPC   C3A59909  34.889  16.889   6.956
 4582POPC   C4A59910  34.924  16.834   7.398
 4582POPC   C1B59911  34.441  16.402   6.236
 4582POPC   C2B59912  34.204  16.362   6.610
 4582POPC   C3B59913  34.337  16.373   6.990
 4582POPC   C4B59914  34.498  16.674   7.205
 4583POPC   NC359915  24.060  23.896   5.264
 4583POPC   PO459916  24.704  23.818   5.452
 4583POPC   GL159917  24.536  23.613   5.814
 4583POPC   GL259918  24.279  23.827   5.849
 4583POPC   C1A59919  24.493  23.475   6.257
 4583POPC   D2A59920  24.340  23.305   6.640
 4583POPC   C3A59921  24.647  23.271   6.984
 4583POPC   C4A59922  24.632  23.524   7.369
 4583POPC   C1B59923  24.354  23.986   6.241
 4583POPC   C2B59924  24.179  23.805   6.592
 4583POPC   C3B59925  24.348  23.725   6.969
 4583POPC   C4B59926  24.449  24.009   7.267
 4584POPC   NC359927  18.036  17.848   5.225
 4584POPC   PO459928  18.180  17.250   5.527
 4584POPC   GL159929  18.398  17.392   5.882
 4584POPC   GL259930  18.300  17.750   5.889
 4584POPC   C1A59931  18.552  17.553   6.286
 4584POPC   D2A59932  18.342  17.812   6.620
 4584POPC   C3A59933  18.417  17.643   7.054
 4584POPC   C4A59934  18.623  17.246   7.221
 4584POPC   C1B59935  17.976  17.477   6.139
 4584POPC   C2B59936  17.830  17.301   6.540
 4584POPC   C3B59937  17.869  17.598   6.866
 4584POPC   C4B59938  17.980  17.662   7.287
 4585POPC   NC359939  27.763  24.540   4.818
 4585POPC   PO459940  27.616  24.701   5.466
 4585POPC   GL159941  27.732  24.541   5.839
 4585POPC   GL259942  27.774  24.206   5.788
 4585POPC   C1A59943  27.584  24.669   6.221
 4585POPC   D2A59944  27.665  24.889   6.550
 4585POPC   C3A59945  27.546  24.647   6.876
 4585POPC   C4A59946  27.510  24.795   7.260
 4585POPC   C1B59947  27.521  24.159   6.153
 4585POPC   C2B59948  27.657  24.245   6.555
 4585POPC   C3B59949  27.428  24.130   6.873
 4585POPC   C4B59950  27.248  24.016   7.240
 4586POPC   NC359951   3.153  19.900   5.266
 4586POPC   PO459952   2.511  20.106   5.360
 4586POPC   GL159953   2.660  19.865   5.729
 4586POPC   GL259954   2.998  19.923   5.753
 4586POPC   C1A59955   2.534  19.683   6.145
 4586POPC   D2A59956   2.425  19.906   6.520
 4586POPC   C3A59957   2.592  19.907   6.919
 4586POPC   C4A59958   2.463  19.570   7.220
 4586POPC   C1B59959   3.052  19.695   6.135
 4586POPC   C2B59960   2.889  19.634   6.555
 4586POPC   C3B59961   2.920  19.527   6.993
 4586POPC   C4B59962   2.852  19.863   7.357
 4587POPC   NC359963  38.119  14.456   5.290
 4587POPC   PO459964  38.356  14.767   5.824
 4587POPC   GL159965  38.343  14.375   5.927
 4587POPC   GL259966  38.523  14.187   5.685
 4587POPC   C1A59967  38.423  14.322   6.354
 4587POPC   D2A59968  38.485  14.338   6.766
 4587POPC   C3A59969  38.402  14.699   6.930
 4587POPC   C4A59970  38.363  14.602   7.308
 4587POPC   C1B59971  38.768  14.090   6.076
 4587POPC   C2B59972  38.783  13.994   6.526
 4587POPC   C3B59973  38.807  14.010   6.960
 4587POPC   C4B59974  38.711  14.267   7.241
 4588POPC   NC359975  33.964  39.609   5.467
 4588POPC   PO459976  34.577  39.948   5.343
 4588POPC   GL159977  34.676  40.104   5.755
 4588POPC   GL259978  34.866  40.407   5.723
 4588POPC   C1A59979  34.685  39.897   6.154
 4588POPC   D2A59980  34.613  40.023   6.574
 4588POPC   C3A59981  34.697  39.768   6.920
 4588POPC   C4A59982  34.638  39.964   7.274
 4588POPC   C1B59983  35.005  40.302   6.165
 4588POPC   C2B59984  34.925  40.411   6.567
 4588POPC   C3B59985  34.977  40.192   6.923
 4588POPC   C4B59986  34.894  40.396   7.271
 4589POPC   NC359987  15.424  38.541   5.451
 4589POPC   PO459988  14.959  38.929   5.398
 4589POPC   GL159989  14.959  38.613   5.749
 4589POPC   GL259990  15.283  38.463   5.916
 4589POPC   C1A59991  14.854  38.453   6.172
 4589POPC   D2A59992  15.122  38.425   6.514
 4589POPC   C3A59993  15.120  38.262   6.921
 4589POPC   C4A59994  14.931  38.503   7.253
 4589POPC   C1B59995  15.547  38.607   6.239
 4589POPC   C2B59996  15.616  38.455   6.622
 4589POPC   C3B59997  15.651  38.285   7.011
 4589POPC   C4B59998  15.374  38.265   7.354
 4590POPC   NC359999   0.413  19.496   5.417
 4590POPC   PO460000   0.730  20.041   5.518
 4590POPC   GL160001   0.404  19.895   5.775
 4590POPC   GL260002   0.572  19.610   5.870
 4590POPC   C1A60003   0.294  19.923   6.217
 4590POPC   D2A60004   0.524  19.920   6.604
 4590POPC   C3A60005   0.389  19.769   6.958
 4590POPC   C4A60006   0.134  19.841   7.310
 4590POPC   C1B60007   0.772  19.671   6.234
 4590POPC   C2B60008   0.731  19.441   6.611
 4590POPC   C3B60009   0.621  19.325   7.045
 4590POPC   C4B60010   0.693  19.700   7.345
 4591POPC   NC360011  36.650  17.552   5.390
 4591POPC   PO460012  37.274  17.799   5.216
 4591POPC   GL160013  37.077  17.704   5.681
 4591POPC   GL260014  37.098  17.970   5.918
 4591POPC   C1A60015  36.883  17.432   6.084
 4591POPC   D2A60016  36.862  17.246   6.533
 4591POPC   C3A60017  36.777  17.560   6.883
 4591POPC   C4A60018  36.539  17.632   7.258
 4591POPC   C1B60019  37.034  17.835   6.356
 4591POPC   C2B60020  37.065  18.007   6.753
 4591POPC   C3B60021  37.349  17.894   7.092
 4591POPC   C4B60022  37.248  17.697   7.484
 4592POPC   NC360023  11.890  42.392   5.353
 4592POPC   PO460024  12.398  42.463   5.653
 4592POPC   GL160025  12.016  42.446   5.886
 4592POPC   GL260026  11.648  42.504   5.904
 4592POPC   C1A60027  11.948  42.266   6.300
 4592POPC   D2A60028  11.960  41.933   6.609
 4592POPC   C3A60029  12.079  42.088   7.020
 4592POPC   C4A60030  11.968  42.147   7.460
 4592POPC   C1B60031  11.481  42.414   6.359
 4592POPC   C2B60032  11.699  42.345   6.776
 4592POPC   C3B60033  11.920  42.585   7.081
 4592POPC   C4B60034  11.829  42.993   7.246
 4593POPC   NC360035  18.900   5.915   5.023
 4593POPC   PO460036  18.881   5.607   5.624
 4593POPC   GL160037  19.057   5.960   5.826
 4593POPC   GL260038  19.403   5.967   5.926
 4593POPC   C1A60039  19.040   5.861   6.269
 4593POPC   D2A60040  19.126   5.800   6.700
 4593POPC   C3A60041  18.973   6.012   7.061
 4593POPC   C4A60042  18.828   5.797   7.423
 4593POPC   C1B60043  19.380   6.217   6.298
 4593POPC   C2B60044  19.526   6.113   6.696
 4593POPC   C3B60045  19.487   5.879   7.058
 4593POPC   C4B60046  19.324   5.895   7.456
 4594POPC   NC360047  22.444  29.443   5.608
 4594POPC   PO460048  22.157  30.021   5.548
 4594POPC   GL160049  22.408  29.893   5.869
 4594POPC   GL260050  22.708  30.076   5.796
 4594POPC   C1A60051  22.388  29.748   6.294
 4594POPC   D2A60052  22.025  29.708   6.582
 4594POPC   C3A60053  21.992  30.033   6.905
 4594POPC   C4A60054  22.128  29.798   7.234
 4594POPC   C1B60055  22.499  30.307   6.140
 4594POPC   C2B60056  22.293  30.206   6.521
 4594POPC   C3B60057  22.472  29.899   6.824
 4594POPC   C4B60058  22.538  30.087   7.215
 4595POPC   NC360059  23.488  11.413   5.357
 4595POPC   PO460060  22.908  11.748   5.473
 4595POPC   GL160061  23.023  11.498   5.859
 4595POPC   GL260062  23.374  11.555   5.946
 4595POPC   C1A60063  22.828  11.110   6.080
 4595POPC   D2A60064  22.611  10.994   6.500
 4595POPC   C3A60065  22.816  11.159   6.909
 4595POPC   C4A60066  23.049  11.293   7.289
 4595POPC   C1B60067  23.404  11.470   6.398
 4595POPC   C2B60068  23.273  11.443   6.820
 4595POPC   C3B60069  23.232  11.758   7.106
 4595POPC   C4B60070  23.433  12.034   7.406
 4596POPC   NC360071   7.201  11.496   5.367
 4596POPC   PO460072   7.549  10.913   5.356
 4596POPC   GL160073   7.460  11.202   5.695
 4596POPC   GL260074   7.217  10.993   5.837
 4596POPC   C1A60075   7.308  11.419   6.096
 4596POPC   D2A60076   7.439  11.261   6.516
 4596POPC   C3A60077   7.423  11.537   6.882
 4596POPC   C4A60078   7.249  11.558   7.293
 4596POPC   C1B60079   7.612  10.950   6.111
 4596POPC   C2B60080   7.896  11.013   6.472
 4596POPC   C3B60081   7.843  10.968   6.922
 4596POPC   C4B60082   7.857  11.000   7.364
 4597POPC   NC360083  27.278  26.665   5.431
 4597POPC   PO460084  26.635  26.896   5.380
 4597POPC   GL160085  26.820  26.900   5.818
 4597POPC   GL260086  27.080  26.639   5.901
 4597POPC   C1A60087  26.842  26.860   6.303
 4597POPC   D2A60088  27.021  26.536   6.591
 4597POPC   C3A60089  26.858  26.611   7.014
 4597POPC   C4A60090  26.751  26.981   7.255
 4597POPC   C1B60091  27.248  27.074   6.056
 4597POPC   C2B60092  27.215  27.297   6.471
 4597POPC   C3B60093  27.101  27.122   6.886
 4597POPC   C4B60094  27.275  26.993   7.282
 4598POPC   NC360095   4.173   6.867   5.443
 4598POPC   PO460096   4.383   7.423   5.440
 4598POPC   GL160097   4.517   7.220   5.827
 4598POPC   GL260098   4.182   7.127   5.882
 4598POPC   C1A60099   4.480   7.348   6.277
 4598POPC   D2A60100   4.290   7.265   6.689
 4598POPC   C3A60101   4.370   7.406   7.140
 4598POPC   C4A60102   4.063   7.423   7.535
 4598POPC   C1B60103   4.028   7.496   6.056
 4598POPC   C2B60104   4.143   7.727   6.410
 4598POPC   C3B60105   4.154   7.760   6.834
 4598POPC   C4B60106   4.088   7.831   7.235
 4599POPC   NC360107  14.780  31.500   5.453
 4599POPC   PO460108  14.148  31.853   5.485
 4599POPC   GL160109  14.434  31.621   5.806
 4599POPC   GL260110  14.370  31.264   5.901
 4599POPC   C1A60111  14.698  31.501   6.196
 4599POPC   D2A60112  14.528  31.667   6.586
 4599POPC   C3A60113  14.521  31.382   6.932
 4599POPC   C4A60114  14.733  31.471   7.288
 4599POPC   C1B60115  14.180  31.416   6.266
 4599POPC   C2B60116  14.077  31.232   6.661
 4599POPC   C3B60117  14.070  31.264   7.106
 4599POPC   C4B60118  14.111  31.654   7.288
 4600POPC   NC360119   7.771  37.970   5.440
 4600POPC   PO460120   7.322  37.422   5.473
 4600POPC   GL160121   7.585  37.621   5.761
 4600POPC   GL260122   7.359  37.899   5.758
 4600POPC   C1A60123   7.771  37.604   6.170
 4600POPC   D2A60124   7.555  37.622   6.558
 4600POPC   C3A60125   7.674  37.456   6.938
 4600POPC   C4A60126   7.441  37.637   7.230
 4600POPC   C1B60127   7.214  37.744   6.145
 4600POPC   C2B60128   7.208  37.992   6.500
 4600POPC   C3B60129   7.178  37.980   6.927
 4600POPC   C4B60130   6.985  37.832   7.302
 4601POPC   NC360131  26.048  19.181   5.412
 4601POPC   PO460132  26.600  19.486   5.591
 4601POPC   GL160133  26.349  19.155   5.842
 4601POPC   GL260134  25.984  19.223   5.902
 4601POPC   C1A60135  26.198  18.937   6.248
 4601POPC   D2A60136  26.405  18.879   6.643
 4601POPC   C3A60137  26.099  18.752   6.930
 4601POPC   C4A60138  25.916  19.012   7.231
 4601POPC   C1B60139  25.790  19.300   6.309
 4601POPC   C2B60140  25.877  19.171   6.713
 4601POPC   C3B60141  26.223  19.268   6.941
 4601POPC   C4B60142  26.271  19.423   7.338
 4602POPC   NC360143   4.563  17.472   5.426
 4602POPC   PO460144   3.962  17.862   5.414
 4602POPC   GL160145   4.199  17.795   5.761
 4602POPC   GL260146   4.500  17.955   5.676
 4602POPC   C1A60147   4.129  17.608   6.168
 4602POPC   D2A60148   3.966  17.641   6.601
 4602POPC   C3A60149   4.176  17.483   6.978
 4602POPC   C4A60150   4.335  17.116   7.209
 4602POPC   C1B60151   4.581  17.873   6.132
 4602POPC   C2B60152   4.490  17.670   6.540
 4602POPC   C3B60153   4.603  17.789   6.957
 4602POPC   C4B60154   4.560  17.580   7.336
 4603POPC   NC360155  31.682   6.880   5.442
 4603POPC   PO460156  31.121   6.432   5.425
 4603POPC   GL160157  31.339   6.627   5.793
 4603POPC   GL260158  31.690   6.505   5.800
 4603POPC   C1A60159  31.203   6.739   6.231
 4603POPC   D2A60160  31.206   6.529   6.660
 4603POPC   C3A60161  31.349   6.727   7.009
 4603POPC   C4A60162  31.783   6.909   7.079
 4603POPC   C1B60163  31.812   6.138   6.053
 4603POPC   C2B60164  31.823   6.103   6.509
 4603POPC   C3B60165  31.660   6.325   6.886
 4603POPC   C4B60166  31.766   6.461   7.309
 4604POPC   NC360167  39.311  44.802   5.353
 4604POPC   PO460168  38.929   0.210   5.703
 4604POPC   GL160169  39.060  44.786   5.805
 4604POPC   GL260170  39.417  44.691   5.846
 4604POPC   C1A60171  39.065  44.551   6.185
 4604POPC   D2A60172  39.474  44.537   6.412
 4604POPC   C3A60173  39.452  44.572   6.865
 4604POPC   C4A60174  39.090  44.497   7.147
 4604POPC   C1B60175  39.342  44.985   6.198
 4604POPC   C2B60176  39.493   0.052   6.623
 4604POPC   C3B60177  39.304   0.040   7.029
 4604POPC   C4B60178  39.435  44.787   7.371
 4605POPC   NC360179  42.194   7.332   5.571
 4605POPC   PO460180  42.006   7.838   5.499
 4605POPC   GL160181  42.228   7.816   5.893
 4605POPC   GL260182  42.576   7.750   5.799
 4605POPC   C1A60183  42.179   7.668   6.344
 4605POPC   D2A60184  42.364   7.332   6.617
 4605POPC   C3A60185  42.236   7.291   7.043
 4605POPC   C4A60186  41.988   7.497   7.323
 4605POPC   C1B60187  42.697   7.661   6.239
 4605POPC   C2B60188  42.566   7.796   6.657
 4605POPC   C3B60189  42.512   7.730   7.092
 4605POPC   C4B60190  42.890   7.570   7.318
 4606POPC   NC360191  28.800  26.388   5.610
 4606POPC   PO460192  28.421  25.794   5.561
 4606POPC   GL160193  28.346  26.078   5.899
 4606POPC   GL260194  28.079  25.906   6.024
 4606POPC   C1A60195  28.443  26.123   6.348
 4606POPC   D2A60196  28.665  26.023   6.739
 4606POPC   C3A60197  28.414  26.047   7.102
 4606POPC   C4A60198  28.166  26.369   7.289
 4606POPC   C1B60199  28.113  25.704   6.390
 4606POPC   C2B60200  28.241  25.668   6.786
 4606POPC   C3B60201  28.010  25.624   7.145
 4606POPC   C4B60202  28.068  25.909   7.475
 4607POPC   NC360203   7.772  40.474   5.635
 4607POPC   PO460204   7.315  40.906   5.461
 4607POPC   GL160205   7.444  41.038   5.850
 4607POPC   GL260206   7.785  40.927   5.894
 4607POPC   C1A60207   7.361  40.843   6.217
 4607POPC   D2A60208   7.509  40.819   6.602
 4607POPC   C3A60209   7.216  40.789   6.886
 4607POPC   C4A60210   7.200  40.891   7.275
 4607POPC   C1B60211   7.774  41.177   6.274
 4607POPC   C2B60212   7.919  41.094   6.708
 4607POPC   C3B60213   7.699  40.882   7.072
 4607POPC   C4B60214   7.597  41.159   7.416
 4608POPC   NC360215  29.529   5.271   5.508
 4608POPC   PO460216  30.165   5.205   5.393
 4608POPC   GL160217  29.929   5.089   5.785
 4608POPC   GL260218  29.804   5.399   5.936
 4608POPC   C1A60219  29.739   4.925   6.190
 4608POPC   D2A60220  29.643   5.008   6.624
 4608POPC   C3A60221  29.941   4.863   6.940
 4608POPC   C4A60222  29.832   4.930   7.367
 4608POPC   C1B60223  30.140   5.255   6.244
 4608POPC   C2B60224  30.097   5.306   6.705
 4608POPC   C3B60225  30.293   5.267   7.110
 4608POPC   C4B60226  30.152   5.347   7.516
 4609POPC   NC360227  15.931  29.402   5.417
 4609POPC   PO460228  15.971  28.757   5.557
 4609POPC   GL160229  15.741  29.029   5.847
 4609POPC   GL260230  15.593  29.372   5.817
 4609POPC   C1A60231  15.796  29.142   6.273
 4609POPC   D2A60232  16.095  28.973   6.529
 4609POPC   C3A60233  16.149  29.093   6.955
 4609POPC   C4A60234  16.569  29.084   7.147
 4609POPC   C1B60235  15.480  29.562   6.213
 4609POPC   C2B60236  15.571  29.452   6.647
 4609POPC   C3B60237  15.827  29.572   7.009
 4609POPC   C4B60238  16.141  29.469   7.338
 4610POPC   NC360239  37.650   5.082   5.216
 4610POPC   PO460240  37.615   5.455   5.765
 4610POPC   GL160241  37.599   5.066   5.924
 4610POPC   GL260242  37.839   4.901   5.712
 4610POPC   C1A60243  37.553   5.079   6.367
 4610POPC   D2A60244  37.649   5.438   6.617
 4610POPC   C3A60245  37.526   5.500   7.023
 4610POPC   C4A60246  37.278   5.264   7.275
 4610POPC   C1B60247  37.975   4.804   6.177
 4610POPC   C2B60248  37.810   4.645   6.550
 4610POPC   C3B60249  37.593   4.897   6.845
 4610POPC   C4B60250  37.725   5.041   7.199
 4611POPC   NC360251  34.300  21.151   5.460
 4611POPC   PO460252  34.925  21.448   5.430
 4611POPC   GL160253  34.701  21.278   5.781
 4611POPC   GL260254  34.388  21.452   5.878
 4611POPC   C1A60255  34.759  21.265   6.220
 4611POPC   D2A60256  34.799  21.490   6.595
 4611POPC   C3A60257  34.877  21.281   6.976
 4611POPC   C4A60258  34.759  21.495   7.338
 4611POPC   C1B60259  34.247  21.255   6.282
 4611POPC   C2B60260  34.454  21.125   6.660
 4611POPC   C3B60261  34.370  21.316   7.039
 4611POPC   C4B60262  34.115  21.148   7.309
 4612POPC   NC360263  33.883  42.754   5.175
 4612POPC   PO460264  33.623  42.195   5.226
 4612POPC   GL160265  33.630  42.224   5.703
 4612POPC   GL260266  33.718  42.553   5.838
 4612POPC   C1A60267  33.580  42.184   6.173
 4612POPC   D2A60268  33.767  42.142   6.569
 4612POPC   C3A60269  33.691  42.367   6.927
 4612POPC   C4A60270  33.729  42.162   7.318
 4612POPC   C1B60271  34.043  42.383   6.157
 4612POPC   C2B60272  34.152  42.456   6.578
 4612POPC   C3B60273  34.162  42.211   6.939
 4612POPC   C4B60274  34.155  42.438   7.281
 4613POPC   NC360275  38.359  27.829   5.397
 4613POPC   PO460276  38.316  27.226   5.603
 4613POPC   GL160277  38.332  27.560   5.848
 4613POPC   GL260278  38.087  27.433   6.072
 4613POPC   C1A60279  38.524  27.749   6.197
 4613POPC   D2A60280  38.657  27.610   6.613
 4613POPC   C3A60281  38.386  27.735   6.950
 4613POPC   C4A60282  38.483  27.762   7.370
 4613POPC   C1B60283  38.438  27.198   6.264
 4613POPC   C2B60284  38.652  27.086   6.657
 4613POPC   C3B60285  38.648  27.290   7.058
 4613POPC   C4B60286  38.270  27.302   7.279
 4614POPC   NC360287  30.191  26.833   5.386
 4614POPC   PO460288  29.596  26.538   5.468
 4614POPC   GL160289  29.624  26.888   5.788
 4614POPC   GL260290  29.910  27.097   5.781
 4614POPC   C1A60291  29.706  27.006   6.239
 4614POPC   D2A60292  29.874  26.728   6.542
 4614POPC   C3A60293  29.800  26.797   6.956
 4614POPC   C4A60294  30.031  26.519   7.183
 4614POPC   C1B60295  30.283  27.012   6.032
 4614POPC   C2B60296  30.312  26.986   6.477
 4614POPC   C3B60297  30.336  26.825   6.870
 4614POPC   C4B60298  30.199  26.978   7.256
 4615POPC   NC360299  32.887  25.114   5.376
 4615POPC   PO460300  32.739  25.729   5.570
 4615POPC   GL160301  33.008  25.379   5.806
 4615POPC   GL260302  33.183  25.011   5.810
 4615POPC   C1A60303  33.125  25.481   6.192
 4615POPC   D2A60304  32.873  25.554   6.562
 4615POPC   C3A60305  33.073  25.520   6.952
 4615POPC   C4A60306  32.986  25.281   7.291
 4615POPC   C1B60307  33.027  24.983   6.229
 4615POPC   C2B60308  33.119  25.073   6.665
 4615POPC   C3B60309  32.976  24.837   7.030
 4615POPC   C4B60310  33.187  24.817   7.414
 4616POPC   NC360311  28.782  34.061   5.571
 4616POPC   PO460312  29.312  33.676   5.432
 4616POPC   GL160313  29.261  33.757   5.841
 4616POPC   GL260314  28.931  33.630   5.836
 4616POPC   C1A60315  29.284  33.988   6.242
 4616POPC   D2A60316  29.491  34.119   6.647
 4616POPC   C3A60317  29.279  33.920   7.010
 4616POPC   C4A60318  29.278  33.843   7.462
 4616POPC   C1B60319  29.019  33.562   6.268
 4616POPC   C2B60320  28.916  33.740   6.649
 4616POPC   C3B60321  28.889  33.502   7.014
 4616POPC   C4B60322  28.944  33.479   7.430
 4617POPC   NC360323  31.548  27.325   5.735
 4617POPC   PO460324  31.264  26.770   5.448
 4617POPC   GL160325  31.481  26.810   5.824
 4617POPC   GL260326  31.807  26.758   5.679
 4617POPC   C1A60327  31.433  26.688   6.272
 4617POPC   D2A60328  31.173  26.513   6.605
 4617POPC   C3A60329  31.361  26.647   6.988
 4617POPC   C4A60330  31.584  26.947   7.183
 4617POPC   C1B60331  31.905  26.562   6.096
 4617POPC   C2B60332  31.944  26.758   6.507
 4617POPC   C3B60333  31.901  26.634   6.933
 4617POPC   C4B60334  31.796  26.338   7.227
 4618POPC   NC360335  15.227  27.809   5.563
 4618POPC   PO460336  15.400  27.198   5.519
 4618POPC   GL160337  15.297  27.372   5.911
 4618POPC   GL260338  14.975  27.444   5.855
 4618POPC   C1A60339  15.280  27.440   6.389
 4618POPC   D2A60340  15.409  27.244   6.806
 4618POPC   C3A60341  15.475  27.526   7.162
 4618POPC   C4A60342  15.276  27.909   7.248
 4618POPC   C1B60343  14.793  27.330   6.225
 4618POPC   C2B60344  14.845  27.350   6.678
 4618POPC   C3B60345  14.967  27.532   7.071
 4618POPC   C4B60346  14.837  27.556   7.497
 4619POPC   NC360347  21.377  10.796   5.463
 4619POPC   PO460348  21.668  10.328   5.456
 4619POPC   GL160349  21.369  10.435   5.858
 4619POPC   GL260350  21.102  10.713   5.903
 4619POPC   C1A60351  21.242  10.468   6.334
 4619POPC   D2A60352  21.348  10.659   6.740
 4619POPC   C3A60353  21.302  10.495   7.192
 4619POPC   C4A60354  21.630  10.574   7.534
 4619POPC   C1B60355  20.870  10.836   6.298
 4619POPC   C2B60356  20.826  10.625   6.699
 4619POPC   C3B60357  20.759  10.561   7.140
 4619POPC   C4B60358  20.883  10.545   7.563
 4620POPC   NC360359  10.781  14.513   5.510
 4620POPC   PO460360  10.109  14.250   5.414
 4620POPC   GL160361  10.363  14.396   5.749
 4620POPC   GL260362  10.601  14.101   5.757
 4620POPC   C1A60363  10.584  14.499   6.178
 4620POPC   D2A60364  10.695  14.719   6.594
 4620POPC   C3A60365  10.711  14.492   7.010
 4620POPC   C4A60366  10.523  14.379   7.417
 4620POPC   C1B60367  10.308  14.047   6.100
 4620POPC   C2B60368  10.264  14.239   6.508
 4620POPC   C3B60369  10.346  14.144   6.915
 4620POPC   C4B60370  10.131  14.082   7.257
 4621POPC   NC360371  29.602   7.883   5.483
 4621POPC   PO460372  30.258   8.113   5.335
 4621POPC   GL160373  29.987   8.173   5.688
 4621POPC   GL260374  29.841   8.521   5.737
 4621POPC   C1A60375  29.933   7.897   6.041
 4621POPC   D2A60376  30.029   7.948   6.438
 4621POPC   C3A60377  29.807   7.895   6.798
 4621POPC   C4A60378  29.857   8.027   7.201
 4621POPC   C1B60379  29.929   8.391   6.171
 4621POPC   C2B60380  29.682   8.332   6.536
 4621POPC   C3B60381  29.836   8.474   6.923
 4621POPC   C4B60382  30.008   8.482   7.351
 4622POPC   NC360383  11.061  35.033   5.456
 4622POPC   PO460384  11.397  34.449   5.366
 4622POPC   GL160385  11.422  34.643   5.739
 4622POPC   GL260386  11.699  34.848   5.746
 4622POPC   C1A60387  11.294  34.639   6.168
 4622POPC   D2A60388  11.280  34.378   6.517
 4622POPC   C3A60389  11.263  34.593   6.896
 4622POPC   C4A60390  11.182  34.498   7.310
 4622POPC   C1B60391  11.728  34.949   6.165
 4622POPC   C2B60392  11.519  34.915   6.559
 4622POPC   C3B60393  11.576  35.001   6.996
 4622POPC   C4B60394  11.199  35.020   7.217
 4623POPC   NC360395  40.598  33.659   5.263
 4623POPC   PO460396  41.194  33.551   5.291
 4623POPC   GL160397  40.857  33.555   5.688
 4623POPC   GL260398  40.454  33.594   5.746
 4623POPC   C1A60399  40.924  33.742   6.113
 4623POPC   D2A60400  41.051  34.019   6.487
 4623POPC   C3A60401  40.919  33.870   6.908
 4623POPC   C4A60402  41.043  33.999   7.322
 4623POPC   C1B60403  40.465  33.452   6.160
 4623POPC   C2B60404  40.718  33.523   6.535
 4623POPC   C3B60405  40.869  33.358   6.902
 4623POPC   C4B60406  40.778  33.513   7.304
 4624POPC   NC360407  26.902  33.267   5.461
 4624POPC   PO460408  26.800  33.959   5.301
 4624POPC   GL160409  26.864  33.791   5.737
 4624POPC   GL260410  27.146  33.581   5.805
 4624POPC   C1A60411  26.770  33.619   6.186
 4624POPC   D2A60412  26.692  33.509   6.644
 4624POPC   C3A60413  26.591  33.788   7.004
 4624POPC   C4A60414  26.758  33.782   7.437
 4624POPC   C1B60415  27.162  33.922   6.138
 4624POPC   C2B60416  27.192  33.787   6.576
 4624POPC   C3B60417  27.104  33.648   7.001
 4624POPC   C4B60418  26.850  33.288   7.107
 4625POPC   NC360419  30.913  13.270   5.326
 4625POPC   PO460420  30.535  13.839   5.128
 4625POPC   GL160421  30.545  13.523   5.542
 4625POPC   GL260422  30.871  13.577   5.779
 4625POPC   C1A60423  30.423  13.446   5.992
 4625POPC   D2A60424  30.343  13.455   6.451
 4625POPC   C3A60425  30.542  13.556   6.874
 4625POPC   C4A60426  30.548  13.728   7.315
 4625POPC   C1B60427  30.904  13.845   6.216
 4625POPC   C2B60428  31.009  14.021   6.659
 4625POPC   C3B60429  30.998  13.809   7.065
 4625POPC   C4B60430  31.149  13.366   7.214
 4626POPC   NC360431  28.802  31.697   5.401
 4626POPC   PO460432  29.088  32.261   5.138
 4626POPC   GL160433  29.005  32.173   5.643
 4626POPC   GL260434  29.075  31.864   5.835
 4626POPC   C1A60435  29.173  32.314   6.104
 4626POPC   D2A60436  29.356  32.296   6.566
 4626POPC   C3A60437  29.100  32.423   6.963
 4626POPC   C4A60438  29.005  32.598   7.404
 4626POPC   C1B60439  29.434  31.859   6.147
 4626POPC   C2B60440  29.591  31.769   6.576
 4626POPC   C3B60441  29.379  31.943   6.950
 4626POPC   C4B60442  29.470  32.263   7.286
 4627POPC   NC360443  27.509  44.707   5.151
 4627POPC   PO460444  27.857  44.375   5.632
 4627POPC   GL160445  27.633  44.653   5.872
 4627POPC   GL260446  27.302  44.650   5.829
 4627POPC   C1A60447  27.579  44.673   6.300
 4627POPC   D2A60448  27.667  44.709   6.714
 4627POPC   C3A60449  27.353  44.588   7.018
 4627POPC   C4A60450  27.529  44.591   7.409
 4627POPC   C1B60451  27.220  44.991   6.137
 4627POPC   C2B60452  27.427   0.185   6.474
 4627POPC   C3B60453  27.359   0.072   6.875
 4627POPC   C4B60454  27.319   0.027   7.284
 4628POPC   NC360455  27.923   0.991   5.520
 4628POPC   PO460456  27.907   1.626   5.435
 4628POPC   GL160457  27.680   1.376   5.788
 4628POPC   GL260458  27.451   1.571   5.958
 4628POPC   C1A60459  27.600   1.142   6.206
 4628POPC   D2A60460  27.391   1.183   6.627
 4628POPC   C3A60461  27.542   1.015   6.992
 4628POPC   C4A60462  27.675   0.952   7.422
 4628POPC   C1B60463  27.202   1.526   6.298
 4628POPC   C2B60464  27.155   1.643   6.711
 4628POPC   C3B60465  27.372   1.493   7.050
 4628POPC   C4B60466  27.366   1.336   7.449
 4629POPC   NC360467  37.228  14.881   5.451
 4629POPC   PO460468  36.787  15.434   5.477
 4629POPC   GL160469  36.897  15.136   5.781
 4629POPC   GL260470  37.177  15.225   5.907
 4629POPC   C1A60471  36.862  15.041   6.245
 4629POPC   D2A60472  36.723  15.288   6.589
 4629POPC   C3A60473  36.745  15.035   6.923
 4629POPC   C4A60474  36.902  14.999   7.287
 4629POPC   C1B60475  37.128  15.506   6.252
 4629POPC   C2B60476  37.054  15.660   6.668
 4629POPC   C3B60477  36.996  15.484   7.080
 4629POPC   C4B60478  37.012  15.425   7.541
 4630POPC   NC360479   2.741  29.993   5.250
 4630POPC   PO460480   2.017  29.917   5.328
 4630POPC   GL160481   2.211  29.843   5.747
 4630POPC   GL260482   2.472  30.084   5.723
 4630POPC   C1A60483   1.997  29.742   6.161
 4630POPC   D2A60484   1.938  29.616   6.591
 4630POPC   C3A60485   2.045  29.773   6.976
 4630POPC   C4A60486   1.915  29.786   7.422
 4630POPC   C1B60487   2.141  30.213   6.089
 4630POPC   C2B60488   1.899  30.136   6.514
 4630POPC   C3B60489   1.868  30.241   6.979
 4630POPC   C4B60490   2.111  30.232   7.362
 4631POPC   NC360491  20.479  35.181   5.331
 4631POPC   PO460492  21.104  35.336   5.379
 4631POPC   GL160493  20.978  35.240   5.777
 4631POPC   GL260494  20.708  34.987   5.806
 4631POPC   C1A60495  20.785  35.403   6.183
 4631POPC   D2A60496  20.463  35.395   6.511
 4631POPC   C3A60497  20.577  35.582   6.914
 4631POPC   C4A60498  20.293  35.532   7.267
 4631POPC   C1B60499  21.028  34.939   6.168
 4631POPC   C2B60500  21.098  35.118   6.565
 4631POPC   C3B60501  20.909  35.055   6.946
 4631POPC   C4B60502  20.752  35.279   7.297
 4632POPC   NC360503   0.384  41.714   5.223
 4632POPC   PO460504   0.124  42.095   5.735
 4632POPC   GL160505   0.509  41.790   5.829
 4632POPC   GL260506   0.558  41.405   5.744
 4632POPC   C1A60507   0.609  41.636   6.261
 4632POPC   D2A60508   0.329  41.470   6.599
 4632POPC   C3A60509   0.319  41.631   7.023
 4632POPC   C4A60510   0.255  41.688   7.453
 4632POPC   C1B60511   0.574  41.137   6.144
 4632POPC   C2B60512   0.746  41.135   6.554
 4632POPC   C3B60513   0.585  41.116   6.975
 4632POPC   C4B60514   0.660  41.377   7.334
 4633POPC   NC360515  13.818  36.046   5.209
 4633POPC   PO460516  13.135  35.993   5.411
 4633POPC   GL160517  13.403  36.091   5.760
 4633POPC   GL260518  13.286  35.836   5.984
 4633POPC   C1A60519  13.353  36.338   6.149
 4633POPC   D2A60520  13.496  36.514   6.517
 4633POPC   C3A60521  13.508  36.227   6.856
 4633POPC   C4A60522  13.534  36.188   7.315
 4633POPC   C1B60523  13.689  35.962   6.210
 4633POPC   C2B60524  13.923  36.183   6.561
 4633POPC   C3B60525  13.976  36.069   7.012
 4633POPC   C4B60526  13.762  35.734   7.216
 4634POPC   NC360527  12.512  26.990   5.518
 4634POPC   PO460528  13.166  26.719   5.566
 4634POPC   GL160529  12.861  26.785   5.852
 4634POPC   GL260530  12.602  26.518   5.826
 4634POPC   C1A60531  13.020  26.934   6.224
 4634POPC   D2A60532  13.184  26.782   6.590
 4634POPC   C3A60533  13.040  27.043   6.929
 4634POPC   C4A60534  12.906  26.776   7.245
 4634POPC   C1B60535  12.663  26.519   6.266
 4634POPC   C2B60536  12.452  26.496   6.667
 4634POPC   C3B60537  12.604  26.386   7.092
 4634POPC   C4B60538  12.647  26.430   7.537
 4635POPC   NC360539  39.615  41.681   5.601
 4635POPC   PO460540  39.123  41.456   5.290
 4635POPC   GL160541  39.169  41.509   5.751
 4635POPC   GL260542  39.364  41.214   5.755
 4635POPC   C1A60543  39.175  41.736   6.160
 4635POPC   D2A60544  39.277  41.892   6.574
 4635POPC   C3A60545  39.426  41.727   6.966
 4635POPC   C4A60546  39.475  41.824   7.414
 4635POPC   C1B60547  39.429  41.284   6.180
 4635POPC   C2B60548  39.481  41.389   6.582
 4635POPC   C3B60549  39.482  41.160   6.935
 4635POPC   C4B60550  39.309  41.332   7.304
 4636POPC   NC360551   1.279  44.964   5.621
 4636POPC   PO460552   0.866  44.468   5.435
 4636POPC   GL160553   1.125  44.489   5.846
 4636POPC   GL260554   1.456  44.284   5.918
 4636POPC   C1A60555   1.031  44.658   6.240
 4636POPC   D2A60556   1.004  44.419   6.610
 4636POPC   C3A60557   1.041  44.649   6.978
 4636POPC   C4A60558   0.873  44.602   7.365
 4636POPC   C1B60559   1.517  44.541   6.270
 4636POPC   C2B60560   1.402  44.764   6.625
 4636POPC   C3B60561   1.466  44.929   7.037
 4636POPC   C4B60562   1.379  44.661   7.391
 4637POPC   NC360563   3.623  22.008   5.323
 4637POPC   PO460564   3.587  22.691   5.348
 4637POPC   GL160565   3.752  22.399   5.769
 4637POPC   GL260566   3.742  22.043   5.837
 4637POPC   C1A60567   3.893  22.417   6.190
 4637POPC   D2A60568   3.773  22.276   6.616
 4637POPC   C3A60569   3.324  22.280   6.736
 4637POPC   C4A60570   3.155  22.248   7.121
 4637POPC   C1B60571   3.490  22.053   6.230
 4637POPC   C2B60572   3.378  21.792   6.572
 4637POPC   C3B60573   3.452  21.853   7.001
 4637POPC   C4B60574   3.204  21.790   7.340
 4638POPC   NC360575  26.117  37.277   5.655
 4638POPC   PO460576  26.289  37.855   5.343
 4638POPC   GL160577  26.139  37.783   5.743
 4638POPC   GL260578  26.503  37.711   5.800
 4638POPC   C1A60579  25.937  37.787   6.155
 4638POPC   D2A60580  25.871  37.653   6.576
 4638POPC   C3A60581  26.144  37.769   6.883
 4638POPC   C4A60582  25.921  37.806   7.226
 4638POPC   C1B60583  26.420  37.657   6.236
 4638POPC   C2B60584  26.217  37.287   6.403
 4638POPC   C3B60585  26.154  37.253   6.828
 4638POPC   C4B60586  26.446  37.405   7.128
 4639POPC   NC360587  42.767  40.584   5.570
 4639POPC   PO460588  43.306  41.009   5.489
 4639POPC   GL160589  43.282  40.781   5.896
 4639POPC   GL260590  42.983  40.634   6.039
 4639POPC   C1A60591  43.323  40.943   6.327
 4639POPC   D2A60592  43.052  41.142   6.644
 4639POPC   C3A60593  43.112  41.103   7.069
 4639POPC   C4A60594  43.053  40.724   7.267
 4639POPC   C1B60595  42.962  40.649   6.511
 4639POPC   C2B60596  43.355  40.707   6.827
 4639POPC   C3B60597  43.501  40.508   7.255
 4639POPC   C4B60598  43.276  40.568   7.703
 4640POPC   NC360599   3.815  23.443   5.472
 4640POPC   PO460600   3.215  23.623   5.304
 4640POPC   GL160601   3.413  23.694   5.699
 4640POPC   GL260602   3.489  24.044   5.730
 4640POPC   C1A60603   3.631  23.689   6.127
 4640POPC   D2A60604   3.790  23.919   6.509
 4640POPC   C3A60605   3.778  23.666   6.887
 4640POPC   C4A60606   3.629  23.590   7.283
 4640POPC   C1B60607   3.218  24.030   6.107
 4640POPC   C2B60608   3.269  23.833   6.526
 4640POPC   C3B60609   3.347  23.955   6.975
 4640POPC   C4B60610   3.219  24.072   7.401
 4641POPC   NC360611  22.833  35.269   5.435
 4641POPC   PO460612  22.700  35.881   5.634
 4641POPC   GL160613  22.829  35.530   5.900
 4641POPC   GL260614  23.134  35.660   6.031
 4641POPC   C1A60615  22.771  35.168   6.213
 4641POPC   D2A60616  22.934  35.095   6.640
 4641POPC   C3A60617  22.789  35.255   7.055
 4641POPC   C4A60618  22.789  35.317   7.501
 4641POPC   C1B60619  23.280  35.257   6.216
 4641POPC   C2B60620  23.449  35.080   6.602
 4641POPC   C3B60621  23.325  35.236   7.007
 4641POPC   C4B60622  23.264  35.126   7.439
 4642POPC   NC360623  34.688  27.036   5.259
 4642POPC   PO460624  34.185  26.585   5.435
 4642POPC   GL160625  34.411  26.857   5.708
 4642POPC   GL260626  34.753  26.855   5.787
 4642POPC   C1A60627  34.403  26.859   6.176
 4642POPC   D2A60628  34.630  26.870   6.557
 4642POPC   C3A60629  34.459  26.808   6.957
 4642POPC   C4A60630  34.589  26.816   7.391
 4642POPC   C1B60631  34.993  26.859   6.191
 4642POPC   C2B60632  35.133  26.866   6.634
 4642POPC   C3B60633  34.942  26.919   7.022
 4642POPC   C4B60634  35.026  27.067   7.434
 4643POPC   NC360635  20.827  33.413   5.447
 4643POPC   PO460636  20.534  32.815   5.255
 4643POPC   GL160637  20.542  33.082   5.763
 4643POPC   GL260638  20.834  33.243   5.942
 4643POPC   C1A60639  20.467  33.249   6.259
 4643POPC   D2A60640  20.729  33.311   6.655
 4643POPC   C3A60641  20.595  33.149   7.082
 4643POPC   C4A60642  20.520  32.807   7.413
 4643POPC   C1B60643  20.748  32.825   6.164
 4643POPC   C2B60644  20.694  32.782   6.599
 4643POPC   C3B60645  21.023  32.887   6.894
 4643POPC   C4B60646  20.993  32.699   7.270
 4644POPC   NC360647   8.771  36.689   4.947
 4644POPC   PO460648   9.274  36.810   5.348
 4644POPC   GL160649   9.112  37.037   5.679
 4644POPC   GL260650   9.078  36.727   5.854
 4644POPC   C1A60651   8.973  37.176   6.105
 4644POPC   D2A60652   8.984  37.169   6.575
 4644POPC   C3A60653   8.613  37.034   6.819
 4644POPC   C4A60654   8.576  37.148   7.247
 4644POPC   C1B60655   9.186  36.719   6.286
 4644POPC   C2B60656   9.266  36.727   6.704
 4644POPC   C3B60657   9.018  36.818   7.043
 4644POPC   C4B60658   9.042  36.699   7.450
 4645POPC   NC360659  27.041  39.346   5.410
 4645POPC   PO460660  26.534  38.957   5.435
 4645POPC   GL160661  26.613  39.252   5.762
 4645POPC   GL260662  26.889  39.109   5.885
 4645POPC   C1A60663  26.504  39.236   6.204
 4645POPC   D2A60664  26.614  39.317   6.620
 4645POPC   C3A60665  26.626  39.143   7.042
 4645POPC   C4A60666  26.854  39.213   7.426
 4645POPC   C1B60667  27.027  39.113   6.327
 4645POPC   C2B60668  26.917  38.912   6.710
 4645POPC   C3B60669  26.960  38.755   7.118
 4645POPC   C4B60670  27.084  38.763   7.539
 4646POPC   NC360671  30.604   5.086   5.287
 4646POPC   PO460672  31.139   5.309   5.552
 4646POPC   GL160673  30.816   5.062   5.795
 4646POPC   GL260674  30.478   5.222   5.805
 4646POPC   C1A60675  30.595   4.882   6.175
 4646POPC   D2A60676  30.353   4.875   6.567
 4646POPC   C3A60677  30.601   4.877   6.952
 4646POPC   C4A60678  30.781   5.029   7.337
 4646POPC   C1B60679  30.666   5.384   6.218
 4646POPC   C2B60680  30.606   5.302   6.667
 4646POPC   C3B60681  30.802   5.434   7.036
 4646POPC   C4B60682  30.690   5.500   7.495
 4647POPC   NC360683  42.791  15.154   5.461
 4647POPC   PO460684  43.285  14.733   5.297
 4647POPC   GL160685  43.340  14.936   5.726
 4647POPC   GL260686  43.004  15.005   5.891
 4647POPC   C1A60687  43.445  15.176   6.123
 4647POPC   D2A60688  43.216  15.167   6.515
 4647POPC   C3A60689  43.074  15.310   6.893
 4647POPC   C4A60690  43.412  15.144   7.143
 4647POPC   C1B60691  43.117  14.757   6.238
 4647POPC   C2B60692  42.956  14.723   6.685
 4647POPC   C3B60693  43.003  14.815   7.143
 4647POPC   C4B60694  42.944  14.612   7.558
 4648POPC   NC360695  27.358  40.930   5.357
 4648POPC   PO460696  28.010  40.970   5.371
 4648POPC   GL160697  27.743  40.840   5.743
 4648POPC   GL260698  27.432  41.032   5.861
 4648POPC   C1A60699  27.690  40.737   6.211
 4648POPC   D2A60700  27.611  40.914   6.634
 4648POPC   C3A60701  27.820  40.782   7.049
 4648POPC   C4A60702  27.682  40.679   7.489
 4648POPC   C1B60703  27.220  41.101   6.288
 4648POPC   C2B60704  27.111  41.053   6.736
 4648POPC   C3B60705  27.329  40.845   7.073
 4648POPC   C4B60706  27.544  41.142   7.383
 4649POPC   NC360707  12.243   0.665   5.484
 4649POPC   PO460708  11.836   0.095   5.479
 4649POPC   GL160709  11.741   0.471   5.800
 4649POPC   GL260710  11.980   0.784   5.904
 4649POPC   C1A60711  11.700   0.620   6.255
 4649POPC   D2A60712  12.047   0.577   6.555
 4649POPC   C3A60713  12.012   0.394   6.940
 4649POPC   C4A60714  12.255   0.222   7.267
 4649POPC   C1B60715  12.303   0.826   6.197
 4649POPC   C2B60716  12.552   0.834   6.588
 4649POPC   C3B60717  12.442   0.689   6.985
 4649POPC   C4B60718  12.053   0.887   7.098
 4650POPC   NC360719  41.843  32.790   5.589
 4650POPC   PO460720  42.319  33.118   5.237
 4650POPC   GL160721  42.363  32.880   5.649
 4650POPC   GL260722  42.159  33.105   5.849
 4650POPC   C1A60723  42.254  32.641   6.066
 4650POPC   D2A60724  42.359  32.614   6.511
 4650POPC   C3A60725  42.117  32.799   6.841
 4650POPC   C4A60726  42.313  32.750   7.226
 4650POPC   C1B60727  42.257  33.094   6.297
 4650POPC   C2B60728  42.224  33.323   6.688
 4650POPC   C3B60729  42.334  33.246   7.112
 4650POPC   C4B60730  42.105  33.106   7.531
 4651POPC   NC360731  42.992  34.731   5.510
 4651POPC   PO460732  43.300  34.198   5.628
 4651POPC   GL160733  43.005  34.367   5.896
 4651POPC   GL260734  42.666  34.390   5.739
 4651POPC   C1A60735  43.172  34.661   6.200
 4651POPC   D2A60736  43.294  34.559   6.616
 4651POPC   C3A60737  43.314  34.914   6.863
 4651POPC   C4A60738  43.136  34.949   7.205
 4651POPC   C1B60739  42.654  34.679   6.098
 4651POPC   C2B60740  42.765  34.535   6.482
 4651POPC   C3B60741  42.834  34.680   6.872
 4651POPC   C4B60742  42.753  34.625   7.294
 4652POPC   NC360743  14.985  20.584   5.474
 4652POPC   PO460744  15.624  20.227   5.487
 4652POPC   GL160745  15.338  20.423   5.801
 4652POPC   GL260746  15.254  20.775   5.902
 4652POPC   C1A60747  15.135  20.400   6.213
 4652POPC   D2A60748  15.038  20.565   6.617
 4652POPC   C3A60749  15.231  20.394   6.999
 4652POPC   C4A60750  15.123  20.483   7.401
 4652POPC   C1B60751  14.888  20.884   6.184
 4652POPC   C2B60752  14.843  21.054   6.612
 4652POPC   C3B60753  15.045  20.918   7.006
 4652POPC   C4B60754  14.870  20.945   7.392
 4653POPC   NC360755   3.398   4.090   5.538
 4653POPC   PO460756   3.777   4.677   5.411
 4653POPC   GL160757   3.691   4.438   5.783
 4653POPC   GL260758   3.960   4.222   5.892
 4653POPC   C1A60759   3.641   4.469   6.231
 4653POPC   D2A60760   3.921   4.337   6.590
 4653POPC   C3A60761   3.693   4.397   6.975
 4653POPC   C4A60762   3.620   4.230   7.423
 4653POPC   C1B60763   3.778   3.975   6.202
 4653POPC   C2B60764   3.498   4.042   6.524
 4653POPC   C3B60765   3.395   3.989   6.937
 4653POPC   C4B60766   3.648   3.785   7.191
 4654POPC   NC360767  41.936  40.693   5.487
 4654POPC   PO460768  42.536  41.041   5.537
 4654POPC   GL160769  42.341  40.744   5.881
 4654POPC   GL260770  42.015  40.487   5.945
 4654POPC   C1A60771  42.233  40.789   6.309
 4654POPC   D2A60772  42.172  41.034   6.670
 4654POPC   C3A60773  42.289  40.914   7.092
 4654POPC   C4A60774  42.652  41.016   7.335
 4654POPC   C1B60775  42.100  40.277   6.344
 4654POPC   C2B60776  42.197  40.488   6.736
 4654POPC   C3B60777  41.980  40.482   7.107
 4654POPC   C4B60778  42.247  40.476   7.449
 4655POPC   NC360779  12.402  35.444   5.298
 4655POPC   PO460780  12.887  35.068   5.392
 4655POPC   GL160781  12.942  35.273   5.790
 4655POPC   GL260782  12.722  35.574   5.843
 4655POPC   C1A60783  13.042  35.426   6.206
 4655POPC   D2A60784  12.889  35.541   6.605
 4655POPC   C3A60785  12.975  35.380   6.996
 4655POPC   C4A60786  12.942  35.539   7.396
 4655POPC   C1B60787  12.518  35.470   6.258
 4655POPC   C2B60788  12.421  35.380   6.709
 4655POPC   C3B60789  12.468  35.483   7.135
 4655POPC   C4B60790  12.514  35.845   7.404
 4656POPC   NC360791  38.024   5.424   5.554
 4656POPC   PO460792  38.365   4.844   5.423
 4656POPC   GL160793  38.519   4.916   5.866
 4656POPC   GL260794  38.252   5.137   5.892
 4656POPC   C1A60795  38.475   5.092   6.322
 4656POPC   D2A60796  38.683   5.085   6.709
 4656POPC   C3A60797  38.410   5.041   7.040
 4656POPC   C4A60798  38.510   5.426   7.208
 4656POPC   C1B60799  38.011   5.291   6.259
 4656POPC   C2B60800  38.040   5.107   6.663
 4656POPC   C3B60801  38.039   5.394   7.006
 4656POPC   C4B60802  38.108   5.242   7.443
 4657POPC   NC360803  19.426   5.684   5.525
 4657POPC   PO460804  20.061   5.685   5.213
 4657POPC   GL160805  19.913   5.802   5.696
 4657POPC   GL260806  19.760   5.539   5.876
 4657POPC   C1A60807  19.820   5.953   6.197
 4657POPC   D2A60808  20.013   6.158   6.588
 4657POPC   C3A60809  19.907   6.186   7.052
 4657POPC   C4A60810  19.841   5.930   7.433
 4657POPC   C1B60811  20.039   5.503   6.224
 4657POPC   C2B60812  20.148   5.667   6.610
 4657POPC   C3B60813  19.938   5.660   6.967
 4657POPC   C4B60814  20.120   5.510   7.292
 4658POPC   NC360815  12.585  38.069   5.666
 4658POPC   PO460816  13.025  37.672   5.273
 4658POPC   GL160817  12.977  37.527   5.733
 4658POPC   GL260818  12.640  37.412   5.856
 4658POPC   C1A60819  12.919  37.693   6.173
 4658POPC   D2A60820  12.885  37.976   6.501
 4658POPC   C3A60821  12.931  37.790   6.876
 4658POPC   C4A60822  13.232  37.719   7.161
 4658POPC   C1B60823  12.409  37.558   6.205
 4658POPC   C2B60824  12.399  37.788   6.588
 4658POPC   C3B60825  12.447  37.620   6.994
 4658POPC   C4B60826  12.542  37.853   7.354
 4659POPC   NC360827   5.908   7.691   5.228
 4659POPC   PO460828   5.607   7.116   5.282
 4659POPC   GL160829   5.657   7.245   5.719
 4659POPC   GL260830   5.538   6.987   5.906
 4659POPC   C1A60831   5.599   7.408   6.188
 4659POPC   D2A60832   5.884   7.358   6.590
 4659POPC   C3A60833   5.826   7.493   7.049
 4659POPC   C4A60834   5.678   7.795   7.385
 4659POPC   C1B60835   5.908   7.002   6.171
 4659POPC   C2B60836   6.044   6.863   6.575
 4659POPC   C3B60837   6.033   6.969   7.011
 4659POPC   C4B60838   5.620   7.034   7.166
 4660POPC   NC360839  12.681   8.737   5.370
 4660POPC   PO460840  13.316   8.797   5.526
 4660POPC   GL160841  13.075   8.885   5.880
 4660POPC   GL260842  12.705   8.765   5.863
 4660POPC   C1A60843  12.860   8.977   6.282
 4660POPC   D2A60844  12.552   9.173   6.553
 4660POPC   C3A60845  12.754   9.100   6.955
 4660POPC   C4A60846  13.174   8.831   7.044
 4660POPC   C1B60847  12.529   8.589   6.240
 4660POPC   C2B60848  12.602   8.670   6.677
 4660POPC   C3B60849  12.715   8.639   7.136
 4660POPC   C4B60850  12.492   8.937   7.393
 4661POPC   NC360851   8.698  29.524   5.036
 4661POPC   PO460852   8.910  29.069   5.427
 4661POPC   GL160853   8.869  29.222   5.831
 4661POPC   GL260854   8.521  29.235   5.733
 4661POPC   C1A60855   9.135  29.216   6.218
 4661POPC   D2A60856   9.257  29.015   6.606
 4661POPC   C3A60857   9.144  29.093   7.047
 4661POPC   C4A60858   9.190  29.107   7.543
 4661POPC   C1B60859   8.469  29.193   6.171
 4661POPC   C2B60860   8.738  29.064   6.506
 4661POPC   C3B60861   8.647  29.125   6.930
 4661POPC   C4B60862   8.718  29.041   7.366
 4662POPC   NC360863  30.978   1.493   5.573
 4662POPC   PO460864  30.491   1.298   5.165
 4662POPC   GL160865  30.597   1.152   5.640
 4662POPC   GL260866  30.542   1.471   5.822
 4662POPC   C1A60867  30.689   1.055   6.128
 4662POPC   D2A60868  30.413   0.994   6.535
 4662POPC   C3A60869  30.525   1.057   6.978
 4662POPC   C4A60870  30.918   1.057   7.184
 4662POPC   C1B60871  30.584   1.534   6.265
 4662POPC   C2B60872  30.657   1.449   6.647
 4662POPC   C3B60873  30.757   1.515   7.044
 4662POPC   C4B60874  30.342   1.542   7.098
 4663POPC   NC360875  42.462  25.805   5.534
 4663POPC   PO460876  42.128  26.422   5.556
 4663POPC   GL160877  42.453  26.204   5.874
 4663POPC   GL260878  42.535  25.844   6.027
 4663POPC   C1A60879  42.704  26.256   6.277
 4663POPC   D2A60880  42.593  26.344   6.735
 4663POPC   C3A60881  42.189  26.202   6.981
 4663POPC   C4A60882  42.109  25.895   7.339
 4663POPC   C1B60883  42.331  25.599   6.334
 4663POPC   C2B60884  42.244  25.754   6.719
 4663POPC   C3B60885  42.523  25.833   7.050
 4663POPC   C4B60886  42.622  25.875   7.514
 4664POPC   NC360887  15.508  31.605   5.573
 4664POPC   PO460888  15.110  31.137   5.428
 4664POPC   GL160889  15.069  31.365   5.855
 4664POPC   GL260890  15.278  31.584   5.998
 4664POPC   C1A60891  15.152  31.251   6.326
 4664POPC   D2A60892  14.969  31.380   6.703
 4664POPC   C3A60893  15.249  31.333   7.058
 4664POPC   C4A60894  15.212  31.431   7.471
 4664POPC   C1B60895  15.124  31.762   6.360
 4664POPC   C2B60896  15.303  31.750   6.760
 4664POPC   C3B60897  15.073  31.819   7.125
 4664POPC   C4B60898  15.002  31.896   7.541
 4665POPC   NC360899   8.930   3.783   5.450
 4665POPC   PO460900   9.368   3.184   5.505
 4665POPC   GL160901   9.106   3.386   5.844
 4665POPC   GL260902   8.777   3.592   5.902
 4665POPC   C1A60903   9.081   3.514   6.289
 4665POPC   D2A60904   9.086   3.349   6.655
 4665POPC   C3A60905   8.835   3.493   6.977
 4665POPC   C4A60906   9.041   3.531   7.344
 4665POPC   C1B60907   8.705   3.866   6.262
 4665POPC   C2B60908   8.802   3.966   6.697
 4665POPC   C3B60909   8.579   3.916   7.081
 4665POPC   C4B60910   8.482   3.599   7.395
 4666POPC   NC360911   7.990  41.975   5.401
 4666POPC   PO460912   8.208  41.352   5.400
 4666POPC   GL160913   8.154  41.367   5.824
 4666POPC   GL260914   8.083  41.711   5.840
 4666POPC   C1A60915   8.386  41.443   6.205
 4666POPC   D2A60916   8.207  41.592   6.557
 4666POPC   C3A60917   8.340  41.373   6.872
 4666POPC   C4A60918   8.256  41.566   7.226
 4666POPC   C1B60919   8.266  41.938   6.186
 4666POPC   C2B60920   8.484  42.080   6.520
 4666POPC   C3B60921   8.475  41.928   6.926
 4666POPC   C4B60922   8.864  41.794   7.092
 4667POPC   NC360923  41.164  12.028   5.141
 4667POPC   PO460924  41.772  12.051   5.527
 4667POPC   GL160925  41.497  12.159   5.889
 4667POPC   GL260926  41.239  12.450   5.823
 4667POPC   C1A60927  41.603  12.126   6.364
 4667POPC   D2A60928  41.705  12.183   6.815
 4667POPC   C3A60929  41.640  11.870   7.164
 4667POPC   C4A60930  41.794  11.765   7.593
 4667POPC   C1B60931  41.149  12.310   6.235
 4667POPC   C2B60932  41.295  12.502   6.626
 4667POPC   C3B60933  41.338  12.414   7.078
 4667POPC   C4B60934  41.131  12.032   7.107
 4668POPC   NC360935  39.226  39.420   5.436
 4668POPC   PO460936  39.565  38.835   5.349
 4668POPC   GL160937  39.361  39.070   5.783
 4668POPC   GL260938  39.412  39.427   5.913
 4668POPC   C1A60939  39.016  39.166   6.150
 4668POPC   D2A60940  38.875  39.413   6.522
 4668POPC   C3A60941  39.118  39.338   6.904
 4668POPC   C4A60942  39.461  39.066   7.094
 4668POPC   C1B60943  39.445  39.299   6.372
 4668POPC   C2B60944  39.606  39.435   6.769
 4668POPC   C3B60945  39.460  39.588   7.190
 4668POPC   C4B60946  39.456  39.416   7.588
 4669POPC   NC360947   4.738  12.368   5.605
 4669POPC   PO460948   5.272  11.950   5.357
 4669POPC   GL160949   5.139  11.846   5.780
 4669POPC   GL260950   5.386  12.080   5.882
 4669POPC   C1A60951   4.952  12.084   6.168
 4669POPC   D2A60952   5.117  12.239   6.557
 4669POPC   C3A60953   4.965  11.955   6.853
 4669POPC   C4A60954   4.831  11.911   7.258
 4669POPC   C1B60955   5.591  12.233   6.269
 4669POPC   C2B60956   5.627  12.329   6.709
 4669POPC   C3B60957   5.350  12.260   7.051
 4669POPC   C4B60958   5.338  12.576   7.343
 4670POPC   NC360959   3.101   7.937   5.537
 4670POPC   PO460960   2.601   8.361   5.391
 4670POPC   GL160961   2.763   8.255   5.812
 4670POPC   GL260962   2.703   8.625   5.855
 4670POPC   C1A60963   3.077   8.080   6.159
 4670POPC   D2A60964   3.293   8.206   6.545
 4670POPC   C3A60965   3.166   7.945   6.891
 4670POPC   C4A60966   3.178   7.909   7.336
 4670POPC   C1B60967   2.875   8.529   6.253
 4670POPC   C2B60968   2.785   8.256   6.591
 4670POPC   C3B60969   2.630   8.100   6.974
 4670POPC   C4B60970   2.327   7.845   7.158
 4671POPC   NC360971   3.025  24.051   5.394
 4671POPC   PO460972   2.638  23.404   5.423
 4671POPC   GL160973   2.881  23.625   5.702
 4671POPC   GL260974   2.616  23.691   5.894
 4671POPC   C1A60975   3.110  23.528   6.086
 4671POPC   D2A60976   3.065  23.296   6.479
 4671POPC   C3A60977   3.102  23.508   6.897
 4671POPC   C4A60978   2.891  23.758   7.207
 4671POPC   C1B60979   2.672  23.658   6.336
 4671POPC   C2B60980   2.778  23.898   6.704
 4671POPC   C3B60981   2.487  24.009   7.028
 4671POPC   C4B60982   2.403  23.790   7.419
 4672POPC   NC360983  24.126  34.156   5.564
 4672POPC   PO460984  24.168  34.805   5.289
 4672POPC   GL160985  24.446  34.571   5.659
 4672POPC   GL260986  24.234  34.521   5.947
 4672POPC   C1A60987  24.690  34.444   6.098
 4672POPC   D2A60988  24.483  34.519   6.541
 4672POPC   C3A60989  24.699  34.757   6.896
 4672POPC   C4A60990  24.648  34.739   7.372
 4672POPC   C1B60991  24.264  34.146   6.218
 4672POPC   C2B60992  23.982  33.994   6.541
 4672POPC   C3B60993  23.984  34.283   6.866
 4672POPC   C4B60994  24.369  34.414   7.096
 4673POPC   NC360995  19.498  10.387   5.536
 4673POPC   PO460996  18.896  10.615   5.314
 4673POPC   GL160997  19.056  10.589   5.726
 4673POPC   GL260998  19.028  10.212   5.738
 4673POPC   C1A60999  19.352  10.688   6.100
 4673POPC   D2A61000  19.396  10.507   6.527
 4673POPC   C3A61001  19.376  10.582   6.986
 4673POPC   C4A61002  19.090  10.711   7.329
 4673POPC   C1B61003  18.878  10.363   6.156
 4673POPC   C2B61004  18.858  10.541   6.566
 4673POPC   C3B61005  18.897  10.398   6.974
 4673POPC   C4B61006  18.778  10.312   7.393
 4674POPC   NC361007   7.657   8.480   5.503
 4674POPC   PO461008   7.420   7.773   5.499
 4674POPC   GL161009   7.403   8.108   5.759
 4674POPC   GL261010   7.190   8.414   5.764
 4674POPC   C1A61011   7.654   8.061   6.101
 4674POPC   D2A61012   7.398   7.957   6.438
 4674POPC   C3A61013   7.555   7.979   6.808
 4674POPC   C4A61014   7.487   8.032   7.224
 4674POPC   C1B61015   7.342   8.449   6.172
 4674POPC   C2B61016   7.554   8.462   6.542
 4674POPC   C3B61017   7.397   8.458   6.941
 4674POPC   C4B61018   7.330   8.584   7.336
 4675POPC   NC361019  33.168   6.126   5.496
 4675POPC   PO461020  33.680   5.638   5.404
 4675POPC   GL161021  33.651   5.988   5.688
 4675POPC   GL261022  33.965   6.094   5.793
 4675POPC   C1A61023  33.611   5.984   6.158
 4675POPC   D2A61024  33.524   5.676   6.504
 4675POPC   C3A61025  33.579   5.862   6.923
 4675POPC   C4A61026  33.735   5.766   7.329
 4675POPC   C1B61027  34.120   5.846   6.178
 4675POPC   C2B61028  33.970   5.917   6.575
 4675POPC   C3B61029  34.103   5.910   6.976
 4675POPC   C4B61030  34.215   6.012   7.364
 4676POPC   NC361031   1.497  37.441   5.367
 4676POPC   PO461032   0.827  37.465   5.400
 4676POPC   GL161033   1.181  37.548   5.760
 4676POPC   GL261034   1.299  37.909   5.735
 4676POPC   C1A61035   1.258  37.489   6.231
 4676POPC   D2A61036   0.961  37.489   6.633
 4676POPC   C3A61037   1.008  37.477   7.092
 4676POPC   C4A61038   0.914  37.770   7.411
 4676POPC   C1B61039   1.129  37.991   6.136
 4676POPC   C2B61040   1.254  37.902   6.546
 4676POPC   C3B61041   1.418  37.674   6.851
 4676POPC   C4B61042   1.409  37.742   7.261
 4677POPC   NC361043  44.902  40.942   5.341
 4677POPC   PO461044  44.243  40.772   5.381
 4677POPC   GL161045  44.563  40.848   5.738
 4677POPC   GL261046  44.781  40.577   5.735
 4677POPC   C1A61047  44.768  40.818   6.199
 4677POPC   D2A61048  44.775  40.761   6.668
 4677POPC   C3A61049  44.804  41.110   6.973
 4677POPC   C4A61050  44.692  41.123   7.439
 4677POPC   C1B61051  44.949  40.333   6.085
 4677POPC   C2B61052   0.091  40.295   6.526
 4677POPC   C3B61053  44.910  40.301   6.944
 4677POPC   C4B61054  44.787  40.659   7.195
 4678POPC   NC361055  10.276  37.644   5.472
 4678POPC   PO461056  10.876  37.632   5.206
 4678POPC   GL161057  10.707  37.809   5.706
 4678POPC   GL261058  10.770  37.516   6.002
 4678POPC   C1A61059  10.541  37.908   6.171
 4678POPC   D2A61060  10.744  37.667   6.530
 4678POPC   C3A61061  10.743  37.831   6.956
 4678POPC   C4A61062  10.377  37.863   7.265
 4678POPC   C1B61063  10.392  37.367   6.163
 4678POPC   C2B61064  10.245  37.582   6.438
 4678POPC   C3B61065  10.303  37.583   6.844
 4678POPC   C4B61066  10.371  37.347   7.210
 4679POPC   NC361067  37.939  27.188   5.335
 4679POPC   PO461068  37.495  26.741   5.335
 4679POPC   GL161069  37.822  26.755   5.650
 4679POPC   GL261070  37.827  27.084   5.820
 4679POPC   C1A61071  37.845  26.677   6.117
 4679POPC   D2A61072  37.839  26.832   6.544
 4679POPC   C3A61073  37.493  26.720   6.818
 4679POPC   C4A61074  37.527  26.570   7.251
 4679POPC   C1B61075  37.611  27.206   6.238
 4679POPC   C2B61076  37.542  27.253   6.723
 4679POPC   C3B61077  37.444  27.100   7.161
 4679POPC   C4B61078  37.476  27.240   7.603
 4680POPC   NC361079   1.156  17.391   5.405
 4680POPC   PO461080   0.740  17.925   5.645
 4680POPC   GL161081   1.111  17.760   5.882
 4680POPC   GL261082   1.280  17.426   5.876
 4680POPC   C1A61083   1.247  17.744   6.320
 4680POPC   D2A61084   1.085  17.689   6.745
 4680POPC   C3A61085   1.324  17.711   7.128
 4680POPC   C4A61086   1.266  17.642   7.587
 4680POPC   C1B61087   1.163  17.240   6.216
 4680POPC   C2B61088   1.361  17.291   6.582
 4680POPC   C3B61089   1.274  17.134   6.976
 4680POPC   C4B61090   1.489  17.258   7.320
 4681POPC   NC361091  18.153   3.063   5.297
 4681POPC   PO461092  18.344   2.464   5.343
 4681POPC   GL161093  18.144   2.630   5.687
 4681POPC   GL261094  18.405   2.723   5.863
 4681POPC   C1A61095  17.959   2.583   6.109
 4681POPC   D2A61096  17.854   2.842   6.449
 4681POPC   C3A61097  18.058   2.858   6.835
 4681POPC   C4A61098  18.116   2.940   7.253
 4681POPC   C1B61099  18.601   2.795   6.234
 4681POPC   C2B61100  18.522   2.677   6.630
 4681POPC   C3B61101  18.552   2.853   7.000
 4681POPC   C4B61102  18.525   2.694   7.420
 4682POPC   NC361103  28.118  35.522   5.634
 4682POPC   PO461104  28.198  35.000   5.243
 4682POPC   GL161105  28.348  35.095   5.796
 4682POPC   GL261106  28.129  35.236   6.078
 4682POPC   C1A61107  28.592  35.111   6.224
 4682POPC   D2A61108  28.526  35.019   6.670
 4682POPC   C3A61109  28.324  35.154   7.044
 4682POPC   C4A61110  28.498  35.540   7.200
 4682POPC   C1B61111  28.356  35.556   6.337
 4682POPC   C2B61112  28.249  35.731   6.737
 4682POPC   C3B61113  28.014  35.571   7.073
 4682POPC   C4B61114  28.023  35.571   7.544
 4683POPC   NC361115   3.296  22.443   5.602
 4683POPC   PO461116   3.563  23.105   5.659
 4683POPC   GL161117   3.769  22.880   5.911
 4683POPC   GL261118   3.438  22.741   5.981
 4683POPC   C1A61119   3.776  22.969   6.330
 4683POPC   D2A61120   3.573  23.331   6.539
 4683POPC   C3A61121   3.512  23.213   6.962
 4683POPC   C4A61122   3.589  23.071   7.383
 4683POPC   C1B61123   3.425  22.567   6.329
 4683POPC   C2B61124   3.537  22.748   6.709
 4683POPC   C3B61125   3.325  22.743   7.033
 4683POPC   C4B61126   3.280  22.650   7.435
 4684POPC   NC361127  24.230  40.608   5.327
 4684POPC   PO461128  23.688  41.038   5.551
 4684POPC   GL161129  23.938  40.763   5.798
 4684POPC   GL261130  23.805  40.445   5.684
 4684POPC   C1A61131  23.845  40.776   6.244
 4684POPC   D2A61132  23.538  40.916   6.551
 4684POPC   C3A61133  23.710  40.977   6.952
 4684POPC   C4A61134  23.962  41.190   7.196
 4684POPC   C1B61135  23.560  40.394   6.062
 4684POPC   C2B61136  23.612  40.396   6.513
 4684POPC   C3B61137  23.654  40.468   6.957
 4684POPC   C4B61138  23.958  40.585   7.208
 4685POPC   NC361139  32.284  33.210   5.445
 4685POPC   PO461140  31.588  33.175   5.284
 4685POPC   GL161141  31.890  33.029   5.661
 4685POPC   GL261142  32.017  33.285   5.908
 4685POPC   C1A61143  32.027  32.811   6.077
 4685POPC   D2A61144  31.977  32.946   6.521
 4685POPC   C3A61145  32.212  32.766   6.862
 4685POPC   C4A61146  32.282  32.961   7.244
 4685POPC   C1B61147  32.268  33.400   6.292
 4685POPC   C2B61148  32.303  33.310   6.738
 4685POPC   C3B61149  31.953  33.239   6.996
 4685POPC   C4B61150  31.957  33.420   7.413
 4686POPC   NC361151   3.852  41.406   5.311
 4686POPC   PO461152   3.413  41.874   5.468
 4686POPC   GL161153   3.622  41.570   5.757
 4686POPC   GL261154   3.978  41.593   5.763
 4686POPC   C1A61155   3.585  41.365   6.169
 4686POPC   D2A61156   3.408  41.616   6.492
 4686POPC   C3A61157   3.286  41.463   6.891
 4686POPC   C4A61158   3.428  41.554   7.286
 4686POPC   C1B61159   3.967  41.721   6.164
 4686POPC   C2B61160   3.898  41.827   6.558
 4686POPC   C3B61161   3.776  41.616   6.892
 4686POPC   C4B61162   3.930  41.533   7.262
 4687POPC   NC361163  36.283   8.421   5.405
 4687POPC   PO461164  36.073   7.865   5.501
 4687POPC   GL161165  36.037   8.205   5.831
 4687POPC   GL261166  36.290   8.485   5.906
 4687POPC   C1A61167  36.033   8.285   6.286
 4687POPC   D2A61168  36.274   8.271   6.651
 4687POPC   C3A61169  36.003   8.239   6.987
 4687POPC   C4A61170  36.128   7.989   7.298
 4687POPC   C1B61171  36.530   8.522   6.265
 4687POPC   C2B61172  36.596   8.676   6.672
 4687POPC   C3B61173  36.291   8.694   6.966
 4687POPC   C4B61174  36.428   8.442   7.216
 4688POPC   NC361175  19.475   1.901   5.317
 4688POPC   PO461176  18.744   1.820   5.363
 4688POPC   GL161177  18.914   1.957   5.779
 4688POPC   GL261178  19.215   2.168   5.697
 4688POPC   C1A61179  18.766   1.980   6.238
 4688POPC   D2A61180  18.608   2.071   6.655
 4688POPC   C3A61181  18.736   1.765   6.965
 4688POPC   C4A61182  18.852   1.844   7.413
 4688POPC   C1B61183  19.265   2.012   6.149
 4688POPC   C2B61184  19.168   1.958   6.605
 4688POPC   C3B61185  19.127   2.073   7.047
 4688POPC   C4B61186  19.294   2.157   7.442
 4689POPC   NC361187  27.378  13.448   5.586
 4689POPC   PO461188  26.658  13.674   5.484
 4689POPC   GL161189  26.803  13.810   5.890
 4689POPC   GL261190  26.984  13.528   5.893
 4689POPC   C1A61191  26.933  13.722   6.362
 4689POPC   D2A61192  26.954  13.884   6.775
 4689POPC   C3A61193  26.776  13.569   7.023
 4689POPC   C4A61194  26.684  13.550   7.435
 4689POPC   C1B61195  27.213  13.299   6.195
 4689POPC   C2B61196  27.431  13.385   6.549
 4689POPC   C3B61197  27.284  13.519   6.918
 4689POPC   C4B61198  27.166  13.395   7.314
 4690POPC   NC361199  43.246  26.418   5.464
 4690POPC   PO461200  42.907  26.966   5.244
 4690POPC   GL161201  42.872  26.923   5.696
 4690POPC   GL261202  43.069  26.657   5.878
 4690POPC   C1A61203  42.774  26.927   6.165
 4690POPC   D2A61204  42.949  26.665   6.512
 4690POPC   C3A61205  42.874  26.776   6.968
 4690POPC   C4A61206  43.100  26.643   7.362
 4690POPC   C1B61207  43.422  26.754   6.190
 4690POPC   C2B61208  43.438  26.789   6.633
 4690POPC   C3B61209  43.448  26.873   7.030
 4690POPC   C4B61210  43.648  26.697   7.338
 4691POPC   NC361211  26.278  39.334   5.367
 4691POPC   PO461212  25.565  39.201   5.380
 4691POPC   GL161213  25.937  39.141   5.696
 4691POPC   GL261214  26.135  39.457   5.841
 4691POPC   C1A61215  26.043  39.034   6.122
 4691POPC   D2A61216  26.101  39.252   6.544
 4691POPC   C3A61217  26.102  39.022   6.944
 4691POPC   C4A61218  26.236  39.108   7.348
 4691POPC   C1B61219  26.326  39.710   6.185
 4691POPC   C2B61220  26.419  39.785   6.618
 4691POPC   C3B61221  26.290  39.518   6.974
 4691POPC   C4B61222  26.437  39.567   7.402
 4692POPC   NC361223  40.730   9.515   5.612
 4692POPC   PO461224  40.790   8.991   5.246
 4692POPC   GL161225  40.798   8.990   5.720
 4692POPC   GL261226  41.009   9.204   5.887
 4692POPC   C1A61227  40.668   9.010   6.188
 4692POPC   D2A61228  40.783   9.232   6.565
 4692POPC   C3A61229  40.751   8.928   6.911
 4692POPC   C4A61230  40.991   8.725   7.241
 4692POPC   C1B61231  41.114   9.472   6.211
 4692POPC   C2B61232  41.324   9.441   6.567
 4692POPC   C3B61233  41.203   9.205   6.897
 4692POPC   C4B61234  40.945   9.262   7.229
 4693POPC   NC361235  39.218  43.080   5.188
 4693POPC   PO461236  39.396  43.671   5.500
 4693POPC   GL161237  39.183  43.300   5.718
 4693POPC   GL261238  39.448  43.125   5.837
 4693POPC   C1A61239  39.127  43.282   6.205
 4693POPC   D2A61240  39.291  43.607   6.565
 4693POPC   C3A61241  39.385  43.477   7.011
 4693POPC   C4A61242  39.629  43.208   7.307
 4693POPC   C1B61243  39.580  42.943   6.251
 4693POPC   C2B61244  39.464  42.680   6.636
 4693POPC   C3B61245  39.318  42.870   7.027
 4693POPC   C4B61246  39.118  43.154   7.326
 4694POPC   NC361247   2.551  28.346   5.493
 4694POPC   PO461248   1.827  28.277   5.537
 4694POPC   GL161249   2.059  28.451   5.827
 4694POPC   GL261250   2.214  28.147   5.862
 4694POPC   C1A61251   1.916  28.448   6.250
 4694POPC   D2A61252   1.648  28.390   6.604
 4694POPC   C3A61253   1.865  28.477   6.982
 4694POPC   C4A61254   1.806  28.567   7.421
 4694POPC   C1B61255   2.085  27.976   6.211
 4694POPC   C2B61256   2.163  28.151   6.590
 4694POPC   C3B61257   2.101  28.013   6.969
 4694POPC   C4B61258   1.992  28.096   7.361
 4695POPC   NC361259  24.571  27.014   5.449
 4695POPC   PO461260  24.314  26.402   5.338
 4695POPC   GL161261  24.511  26.593   5.729
 4695POPC   GL261262  24.290  26.846   5.841
 4695POPC   C1A61263  24.702  26.740   6.144
 4695POPC   D2A61264  24.766  26.969   6.543
 4695POPC   C3A61265  24.725  26.672   6.865
 4695POPC   C4A61266  24.717  26.608   7.292
 4695POPC   C1B61267  24.220  26.929   6.267
 4695POPC   C2B61268  24.249  26.908   6.687
 4695POPC   C3B61269  24.429  26.983   7.093
 4695POPC   C4B61270  24.521  27.113   7.490
 4696POPC   NC361271  23.128  22.329   5.148
 4696POPC   PO461272  23.070  21.849   5.609
 4696POPC   GL161273  23.037  22.133   5.929
 4696POPC   GL261274  23.283  22.379   5.793
 4696POPC   C1A61275  22.893  22.056   6.362
 4696POPC   D2A61276  22.929  21.828   6.744
 4696POPC   C3A61277  22.690  21.949   7.108
 4696POPC   C4A61278  22.590  22.387   7.180
 4696POPC   C1B61279  23.448  22.208   6.205
 4696POPC   C2B61280  23.296  22.295   6.608
 4696POPC   C3B61281  23.199  22.189   7.016
 4696POPC   C4B61282  23.433  22.358   7.357
 4697POPC   NC361283  20.945  15.263   5.047
 4697POPC   PO461284  21.348  15.528   5.597
 4697POPC   GL161285  21.356  15.286   5.959
 4697POPC   GL261286  21.712  15.195   5.944
 4697POPC   C1A61287  21.337  15.263   6.439
 4697POPC   D2A61288  21.663  15.046   6.709
 4697POPC   C3A61289  21.719  15.303   7.070
 4697POPC   C4A61290  21.340  15.315   7.250
 4697POPC   C1B61291  21.524  14.859   6.208
 4697POPC   C2B61292  21.163  14.753   6.493
 4697POPC   C3B61293  21.105  14.872   6.916
 4697POPC   C4B61294  21.475  14.842   7.156
 4698POPC   NC361295  33.873  10.979   5.427
 4698POPC   PO461296  33.775  11.609   5.477
 4698POPC   GL161297  33.897  11.346   5.807
 4698POPC   GL261298  33.581  11.156   5.885
 4698POPC   C1A61299  33.898  11.375   6.258
 4698POPC   D2A61300  33.779  11.527   6.650
 4698POPC   C3A61301  34.037  11.320   6.895
 4698POPC   C4A61302  34.047  11.212   7.291
 4698POPC   C1B61303  33.418  11.198   6.332
 4698POPC   C2B61304  33.434  11.151   6.798
 4698POPC   C3B61305  33.562  11.425   7.145
 4698POPC   C4B61306  33.646  11.343   7.597
 4699POPC   NC361307  31.653  36.455   5.681
 4699POPC   PO461308  31.111  36.347   5.325
 4699POPC   GL161309  31.261  36.089   5.695
 4699POPC   GL261310  31.263  36.310   5.998
 4699POPC   C1A61311  31.449  35.854   6.062
 4699POPC   D2A61312  31.264  35.972   6.450
 4699POPC   C3A61313  31.531  35.985   6.789
 4699POPC   C4A61314  31.555  35.846   7.199
 4699POPC   C1B61315  31.644  36.262   6.297
 4699POPC   C2B61316  31.819  36.415   6.674
 4699POPC   C3B61317  31.668  36.369   7.109
 4699POPC   C4B61318  31.951  36.376   7.469
 4700POPC   NC361319   5.466  25.458   5.106
 4700POPC   PO461320   5.241  25.104   5.626
 4700POPC   GL161321   5.202  25.267   5.982
 4700POPC   GL261322   5.055  24.974   6.098
 4700POPC   C1A61323   5.395  25.330   6.346
 4700POPC   D2A61324   5.342  25.042   6.622
 4700POPC   C3A61325   5.274  25.172   6.983
 4700POPC   C4A61326   5.261  25.509   7.233
 4700POPC   C1B61327   4.750  25.264   6.283
 4700POPC   C2B61328   4.606  25.422   6.681
 4700POPC   C3B61329   4.806  25.376   7.077
 4700POPC   C4B61330   4.967  25.019   7.340
 4701POPC   NC361331  34.923  24.514   5.450
 4701POPC   PO461332  35.631  24.539   5.471
 4701POPC   GL161333  35.565  24.418   5.894
 4701POPC   GL261334  35.240  24.509   5.869
 4701POPC   C1A61335  35.387  24.291   6.317
 4701POPC   D2A61336  35.214  24.518   6.700
 4701POPC   C3A61337  35.339  24.353   7.131
 4701POPC   C4A61338  35.599  24.290   7.526
 4701POPC   C1B61339  35.054  24.683   6.228
 4701POPC   C2B61340  35.085  25.013   6.482
 4701POPC   C3B61341  34.906  24.998   6.864
 4701POPC   C4B61342  34.995  24.750   7.204
 4702POPC   NC361343  26.426  19.903   5.416
 4702POPC   PO461344  26.986  20.320   5.332
 4702POPC   GL161345  26.864  19.989   5.706
 4702POPC   GL261346  26.525  19.894   5.901
 4702POPC   C1A61347  26.973  19.821   6.134
 4702POPC   D2A61348  27.105  20.129   6.474
 4702POPC   C3A61349  26.876  20.049   6.851
 4702POPC   C4A61350  26.913  19.699   7.132
 4702POPC   C1B61351  26.549  20.127   6.266
 4702POPC   C2B61352  26.377  20.126   6.683
 4702POPC   C3B61353  26.406  19.838   7.043
 4702POPC   C4B61354  26.572  19.852   7.470
 4703POPC   NC361355   8.415  41.160   5.007
 4703POPC   PO461356   8.040  40.698   5.340
 4703POPC   GL161357   8.257  40.880   5.688
 4703POPC   GL261358   8.204  40.593   5.865
 4703POPC   C1A61359   8.234  40.969   6.180
 4703POPC   D2A61360   8.391  40.759   6.564
 4703POPC   C3A61361   8.283  40.837   6.985
 4703POPC   C4A61362   8.099  41.103   7.266
 4703POPC   C1B61363   8.063  40.487   6.278
 4703POPC   C2B61364   7.946  40.514   6.724
 4703POPC   C3B61365   7.958  40.471   7.178
 4703POPC   C4B61366   8.263  40.604   7.456
 4704POPC   NC361367   3.274  14.022   5.473
 4704POPC   PO461368   3.440  14.601   5.492
 4704POPC   GL161369   3.541  14.291   5.813
 4704POPC   GL261370   3.778  14.014   5.686
 4704POPC   C1A61371   3.394  14.282   6.252
 4704POPC   D2A61372   3.275  14.518   6.629
 4704POPC   C3A61373   3.456  14.338   7.003
 4704POPC   C4A61374   3.439  14.532   7.435
 4704POPC   C1B61375   3.930  14.174   6.102
 4704POPC   C2B61376   3.856  14.096   6.537
 4704POPC   C3B61377   3.957  14.313   6.922
 4704POPC   C4B61378   3.817  14.220   7.334
 4705POPC   NC361379  15.697  30.130   5.421
 4705POPC   PO461380  16.281  29.715   5.374
 4705POPC   GL161381  16.044  29.837   5.713
 4705POPC   GL261382  16.326  30.007   5.872
 4705POPC   C1A61383  15.979  29.587   6.082
 4705POPC   D2A61384  16.079  29.498   6.514
 4705POPC   C3A61385  16.203  29.848   6.752
 4705POPC   C4A61386  16.152  29.990   7.136
 4705POPC   C1B61387  16.109  30.031   6.267
 4705POPC   C2B61388  15.758  29.926   6.530
 4705POPC   C3B61389  15.667  30.083   6.943
 4705POPC   C4B61390  15.711  30.337   7.318
 4706POPC   NC361391   5.425   8.360   5.281
 4706POPC   PO461392   4.967   7.913   5.616
 4706POPC   GL161393   4.834   8.236   5.922
 4706POPC   GL261394   5.103   8.489   5.978
 4706POPC   C1A61395   4.817   8.304   6.341
 4706POPC   D2A61396   5.110   8.129   6.602
 4706POPC   C3A61397   5.053   8.197   7.013
 4706POPC   C4A61398   5.182   7.911   7.330
 4706POPC   C1B61399   5.349   8.518   6.351
 4706POPC   C2B61400   5.245   8.652   6.750
 4706POPC   C3B61401   5.218   8.671   7.174
 4706POPC   C4B61402   5.092   8.391   7.484
 4707POPC   NC361403  14.735  23.807   5.565
 4707POPC   PO461404  14.037  23.848   5.391
 4707POPC   GL161405  14.265  23.865   5.775
 4707POPC   GL261406  14.389  23.533   5.861
 4707POPC   C1A61407  14.438  23.966   6.182
 4707POPC   D2A61408  14.774  24.033   6.493
 4707POPC   C3A61409  14.583  23.948   6.902
 4707POPC   C4A61410  14.515  23.956   7.354
 4707POPC   C1B61411  14.302  23.471   6.297
 4707POPC   C2B61412  14.144  23.434   6.711
 4707POPC   C3B61413  14.365  23.502   7.102
 4707POPC   C4B61414  14.269  23.489   7.517
 4708POPC   NC361415  17.574  40.846   5.145
 4708POPC   PO461416  17.245  40.319   5.434
 4708POPC   GL161417  17.452  40.534   5.814
 4708POPC   GL261418  17.728  40.356   5.935
 4708POPC   C1A61419  17.603  40.768   6.251
 4708POPC   D2A61420  17.690  41.127   6.595
 4708POPC   C3A61421  17.652  41.009   7.043
 4708POPC   C4A61422  17.355  41.001   7.384
 4708POPC   C1B61423  17.383  40.292   6.269
 4708POPC   C2B61424  17.340  40.494   6.678
 4708POPC   C3B61425  17.431  40.524   7.120
 4708POPC   C4B61426  17.719  40.244   7.241
 4709POPC   NC361427  32.303  35.403   5.341
 4709POPC   PO461428  32.713  35.879   5.539
 4709POPC   GL161429  32.451  35.525   5.800
 4709POPC   GL261430  32.070  35.581   5.781
 4709POPC   C1A61431  32.315  35.229   6.163
 4709POPC   D2A61432  32.475  35.025   6.554
 4709POPC   C3A61433  32.285  35.141   6.955
 4709POPC   C4A61434  32.486  35.101   7.350
 4709POPC   C1B61435  31.841  35.497   6.167
 4709POPC   C2B61436  31.903  35.396   6.595
 4709POPC   C3B61437  31.927  35.534   7.014
 4709POPC   C4B61438  32.014  35.315   7.406
 4710POPC   NC361439  20.082  41.209   5.584
 4710POPC   PO461440  20.106  41.926   5.391
 4710POPC   GL161441  19.972  41.700   5.837
 4710POPC   GL261442  19.844  41.391   5.983
 4710POPC   C1A61443  20.049  41.673   6.331
 4710POPC   D2A61444  20.073  41.778   6.767
 4710POPC   C3A61445  20.051  41.481   7.089
 4710POPC   C4A61446  19.845  41.593   7.437
 4710POPC   C1B61447  19.748  41.229   6.334
 4710POPC   C2B61448  19.714  41.437   6.686
 4710POPC   C3B61449  19.550  41.416   7.075
 4710POPC   C4B61450  19.738  41.091   7.345
 4711POPC   NC361451   2.974  39.155   5.391
 4711POPC   PO461452   2.749  38.741   5.784
 4711POPC   GL161453   2.673  39.189   5.845
 4711POPC   GL261454   2.386  39.362   5.733
 4711POPC   C1A61455   2.786  39.256   6.263
 4711POPC   D2A61456   3.062  39.022   6.544
 4711POPC   C3A61457   2.871  39.121   6.899
 4711POPC   C4A61458   2.940  39.385   7.238
 4711POPC   C1B61459   2.348  39.657   6.100
 4711POPC   C2B61460   2.467  39.563   6.521
 4711POPC   C3B61461   2.730  39.633   6.838
 4711POPC   C4B61462   2.484  39.624   7.220
 4712POPC   NC361463   0.155  40.255   5.366
 4712POPC   PO461464   0.729  39.889   5.209
 4712POPC   GL161465   0.698  39.969   5.664
 4712POPC   GL261466   0.397  40.147   5.813
 4712POPC   C1A61467   0.764  39.974   6.125
 4712POPC   D2A61468   0.585  39.863   6.549
 4712POPC   C3A61469   0.680  40.060   6.943
 4712POPC   C4A61470   0.355  40.252   7.171
 4712POPC   C1B61471   0.231  39.834   6.144
 4712POPC   C2B61472   0.119  39.646   6.582
 4712POPC   C3B61473   0.287  39.716   7.014
 4712POPC   C4B61474   0.273  39.527   7.458
 4713POPC   NC361475  44.966  22.897   5.277
 4713POPC   PO461476  44.429  23.297   5.276
 4713POPC   GL161477  44.576  23.110   5.663
 4713POPC   GL261478  44.674  22.775   5.706
 4713POPC   C1A61479  44.613  23.088   6.126
 4713POPC   D2A61480  44.595  22.837   6.540
 4713POPC   C3A61481  44.570  23.062   6.948
 4713POPC   C4A61482  44.911  23.169   7.227
 4713POPC   C1B61483  44.784  22.554   6.122
 4713POPC   C2B61484   0.085  22.452   6.476
 4713POPC   C3B61485   0.024  22.599   6.931
 4713POPC   C4B61486  44.616  22.552   7.162
 4714POPC   NC361487  20.075  23.924   5.533
 4714POPC   PO461488  19.714  23.459   5.413
 4714POPC   GL161489  19.798  23.654   5.858
 4714POPC   GL261490  19.664  23.992   5.918
 4714POPC   C1A61491  19.851  23.684   6.325
 4714POPC   D2A61492  20.096  23.757   6.694
 4714POPC   C3A61493  19.856  23.758   7.103
 4714POPC   C4A61494  19.664  24.050   7.404
 4714POPC   C1B61495  19.377  23.854   6.289
 4714POPC   C2B61496  19.400  23.765   6.750
 4714POPC   C3B61497  19.312  23.728   7.188
 4714POPC   C4B61498  19.190  23.896   7.604
 4715POPC   NC361499   1.712  40.480   5.448
 4715POPC   PO461500   2.125  40.927   5.209
 4715POPC   GL161501   2.134  40.822   5.668
 4715POPC   GL261502   1.803  40.904   5.802
 4715POPC   C1A61503   2.242  40.680   6.107
 4715POPC   D2A61504   2.391  40.513   6.499
 4715POPC   C3A61505   2.238  40.532   6.921
 4715POPC   C4A61506   2.151  40.575   7.336
 4715POPC   C1B61507   1.725  40.657   6.188
 4715POPC   C2B61508   1.818  40.572   6.635
 4715POPC   C3B61509   1.793  40.798   7.050
 4715POPC   C4B61510   1.686  40.672   7.509
 4716POPC   NC361511  40.358  41.233   5.703
 4716POPC   PO461512  40.830  41.617   5.495
 4716POPC   GL161513  40.859  41.476   5.916
 4716POPC   GL261514  40.958  41.817   5.997
 4716POPC   C1A61515  40.670  41.480   6.331
 4716POPC   D2A61516  40.382  41.724   6.565
 4716POPC   C3A61517  40.527  41.900   6.947
 4716POPC   C4A61518  40.772  41.691   7.262
 4716POPC   C1B61519  41.013  41.859   6.424
 4716POPC   C2B61520  41.008  41.617   6.787
 4716POPC   C3B61521  41.074  41.311   7.094
 4716POPC   C4B61522  41.057  41.343   7.546
 4717POPC   NC361523  34.061  43.121   5.552
 4717POPC   PO461524  33.364  43.187   5.515
 4717POPC   GL161525  33.651  43.090   5.864
 4717POPC   GL261526  33.877  43.362   5.960
 4717POPC   C1A61527  33.919  42.878   6.179
 4717POPC   D2A61528  33.691  42.652   6.472
 4717POPC   C3A61529  33.757  42.867   6.850
 4717POPC   C4A61530  33.728  42.732   7.281
 4717POPC   C1B61531  33.689  43.289   6.360
 4717POPC   C2B61532  33.565  43.385   6.766
 4717POPC   C3B61533  33.699  43.331   7.166
 4717POPC   C4B61534  33.477  43.472   7.582
 4718POPC   NC361535  43.519  32.166   5.087
 4718POPC   PO461536  43.835  32.421   5.680
 4718POPC   GL161537  44.092  32.340   5.967
 4718POPC   GL261538  44.203  32.675   6.014
 4718POPC   C1A61539  44.143  32.040   6.249
 4718POPC   D2A61540  43.905  31.933   6.584
 4718POPC   C3A61541  44.084  31.944   6.954
 4718POPC   C4A61542  43.892  31.875   7.332
 4718POPC   C1B61543  44.092  32.559   6.463
 4718POPC   C2B61544  44.149  32.793   6.839
 4718POPC   C3B61545  44.198  32.547   7.180
 4718POPC   C4B61546  43.829  32.347   7.133
 4719POPC   NC361547  38.106   1.854   5.418
 4719POPC   PO461548  37.505   2.058   5.397
 4719POPC   GL161549  37.682   1.990   5.773
 4719POPC   GL261550  37.776   2.331   5.803
 4719POPC   C1A61551  37.813   1.913   6.201
 4719POPC   D2A61552  37.902   2.096   6.580
 4719POPC   C3A61553  37.739   1.918   6.933
 4719POPC   C4A61554  38.052   1.907   7.217
 4719POPC   C1B61555  37.470   2.293   6.147
 4719POPC   C2B61556  37.379   2.076   6.534
 4719POPC   C3B61557  37.351   2.268   6.931
 4719POPC   C4B61558  37.464   2.170   7.320
 4720POPC   NC361559  25.345  13.873   5.421
 4720POPC   PO461560  24.850  13.410   5.321
 4720POPC   GL161561  25.100  13.536   5.705
 4720POPC   GL261562  25.091  13.882   5.854
 4720POPC   C1A61563  25.353  13.436   6.087
 4720POPC   D2A61564  25.299  13.578   6.492
 4720POPC   C3A61565  25.392  13.455   6.889
 4720POPC   C4A61566  25.153  13.481   7.232
 4720POPC   C1B61567  25.467  13.945   6.150
 4720POPC   C2B61568  25.621  13.959   6.574
 4720POPC   C3B61569  25.412  13.994   6.953
 4720POPC   C4B61570  25.400  13.902   7.372
 4721POPC   NC361571   0.263  36.137   5.594
 4721POPC   PO461572   0.655  35.516   5.555
 4721POPC   GL161573   0.606  35.863   5.843
 4721POPC   GL261574   0.266  35.766   5.943
 4721POPC   C1A61575   0.612  36.238   6.124
 4721POPC   D2A61576   0.739  36.183   6.530
 4721POPC   C3A61577   0.622  36.104   6.944
 4721POPC   C4A61578   0.685  36.297   7.323
 4721POPC   C1B61579   0.188  36.056   6.294
 4721POPC   C2B61580   0.025  36.178   6.676
 4721POPC   C3B61581   0.143  35.932   7.002
 4721POPC   C4B61582   0.425  35.573   7.109
 4722POPC   NC361583   8.432   5.322   5.562
 4722POPC   PO461584   7.920   4.846   5.484
 4722POPC   GL161585   8.156   5.018   5.881
 4722POPC   GL261586   8.087   5.401   5.943
 4722POPC   C1A61587   8.421   5.068   6.298
 4722POPC   D2A61588   8.501   4.885   6.737
 4722POPC   C3A61589   8.316   5.133   7.072
 4722POPC   C4A61590   8.478   5.226   7.515
 4722POPC   C1B61591   7.913   5.197   6.317
 4722POPC   C2B61592   8.003   4.987   6.676
 4722POPC   C3B61593   7.969   4.741   7.036
 4722POPC   C4B61594   8.089   4.890   7.448
 4723POPC   NC361595  33.037  29.240   5.454
 4723POPC   PO461596  33.607  28.911   5.509
 4723POPC   GL161597  33.247  28.912   5.831
 4723POPC   GL261598  33.251  29.257   5.920
 4723POPC   C1A61599  32.934  28.956   6.230
 4723POPC   D2A61600  32.964  29.068   6.718
 4723POPC   C3A61601  32.796  28.903   7.141
 4723POPC   C4A61602  33.011  28.892   7.573
 4723POPC   C1B61603  32.906  29.482   6.144
 4723POPC   C2B61604  32.760  29.528   6.557
 4723POPC   C3B61605  32.985  29.553   6.937
 4723POPC   C4B61606  32.802  29.457   7.351
 4724POPC   NC361607  16.434  21.337   5.454
 4724POPC   PO461608  15.885  21.798   5.419
 4724POPC   GL161609  15.845  21.554   5.762
 4724POPC   GL261610  16.139  21.516   5.811
 4724POPC   C1A61611  15.832  21.260   6.152
 4724POPC   D2A61612  15.801  21.421   6.563
 4724POPC   C3A61613  15.640  21.196   6.930
 4724POPC   C4A61614  15.846  21.154   7.343
 4724POPC   C1B61615  16.130  21.675   6.203
 4724POPC   C2B61616  16.240  21.673   6.628
 4724POPC   C3B61617  16.040  21.516   7.018
 4724POPC   C4B61618  16.124  21.564   7.445
 4725POPC   NC361619  44.395  28.994   5.399
 4725POPC   PO461620  44.882  29.349   5.251
 4725POPC   GL161621  44.746  29.391   5.697
 4725POPC   GL261622  44.400  29.243   5.837
 4725POPC   C1A61623  44.839  29.218   6.117
 4725POPC   D2A61624  44.562  29.132   6.463
 4725POPC   C3A61625  44.756  28.940   6.820
 4725POPC   C4A61626  44.873  29.162   7.195
 4725POPC   C1B61627  44.313  29.511   6.189
 4725POPC   C2B61628  44.402  29.621   6.637
 4725POPC   C3B61629  44.502  29.517   7.100
 4725POPC   C4B61630  44.630  29.474   7.547
 4726POPC   NC361631  16.949   7.555   5.363
 4726POPC   PO461632  17.576   7.479   5.377
 4726POPC   GL161633  17.450   7.396   5.809
 4726POPC   GL261634  17.201   7.116   5.848
 4726POPC   C1A61635  17.397   7.585   6.220
 4726POPC   D2A61636  17.251   7.549   6.629
 4726POPC   C3A61637  17.461   7.639   7.017
 4726POPC   C4A61638  17.423   7.543   7.458
 4726POPC   C1B61639  17.385   7.073   6.241
 4726POPC   C2B61640  17.560   7.102   6.659
 4726POPC   C3B61641  17.258   7.168   6.970
 4726POPC   C4B61642  17.195   7.092   7.402
 4727POPC   NC361643  20.354  14.495   5.373
 4727POPC   PO461644  20.988  14.638   5.452
 4727POPC   GL161645  20.697  14.505   5.780
 4727POPC   GL261646  20.844  14.167   5.855
 4727POPC   C1A61647  20.484  14.702   6.160
 4727POPC   D2A61648  20.658  14.566   6.562
 4727POPC   C3A61649  20.500  14.600   6.972
 4727POPC   C4A61650  20.780  14.756   7.307
 4727POPC   C1B61651  20.534  14.206   6.202
 4727POPC   C2B61652  20.362  14.126   6.626
 4727POPC   C3B61653  20.550  14.079   7.020
 4727POPC   C4B61654  20.867  14.081   7.327
 4728POPC   NC361655  40.166  36.325   5.393
 4728POPC   PO461656  40.176  35.592   5.505
 4728POPC   GL161657  40.132  35.944   5.780
 4728POPC   GL261658  39.804  36.003   5.787
 4728POPC   C1A61659  40.081  36.187   6.190
 4728POPC   D2A61660  40.163  36.000   6.599
 4728POPC   C3A61661  40.054  36.197   6.977
 4728POPC   C4A61662  40.255  35.980   7.286
 4728POPC   C1B61663  39.582  36.004   6.190
 4728POPC   C2B61664  39.670  36.184   6.597
 4728POPC   C3B61665  39.554  36.054   6.997
 4728POPC   C4B61666  39.774  35.980   7.426
 4729POPC   NC361667  42.216  38.035   5.417
 4729POPC   PO461668  41.983  37.372   5.390
 4729POPC   GL161669  42.019  37.687   5.746
 4729POPC   GL261670  42.396  37.775   5.866
 4729POPC   C1A61671  41.980  37.828   6.182
 4729POPC   D2A61672  42.320  37.796   6.467
 4729POPC   C3A61673  42.340  37.913   6.893
 4729POPC   C4A61674  42.134  37.790   7.247
 4729POPC   C1B61675  42.655  37.511   6.205
 4729POPC   C2B61676  42.618  37.380   6.662
 4729POPC   C3B61677  42.606  37.490   7.116
 4729POPC   C4B61678  42.747  37.842   7.350
 4730POPC   NC361679   3.599  17.570   5.460
 4730POPC   PO461680   3.102  17.233   5.694
 4730POPC   GL161681   3.503  17.378   5.936
 4730POPC   GL261682   3.814  17.171   5.838
 4730POPC   C1A61683   3.630  17.761   6.221
 4730POPC   D2A61684   3.659  18.066   6.613
 4730POPC   C3A61685   3.641  17.805   7.008
 4730POPC   C4A61686   3.393  17.416   7.153
 4730POPC   C1B61687   3.856  17.162   6.316
 4730POPC   C2B61688   3.742  17.212   6.779
 4730POPC   C3B61689   3.827  17.150   7.220
 4730POPC   C4B61690   3.654  17.267   7.622
 4731POPC   NC361691  32.631  21.679   5.584
 4731POPC   PO461692  32.750  21.126   5.206
 4731POPC   GL161693  32.838  21.208   5.672
 4731POPC   GL261694  33.120  21.348   5.798
 4731POPC   C1A61695  32.751  21.254   6.148
 4731POPC   D2A61696  32.951  21.204   6.582
 4731POPC   C3A61697  32.820  21.533   6.878
 4731POPC   C4A61698  32.552  21.601   7.235
 4731POPC   C1B61699  33.242  21.095   6.175
 4731POPC   C2B61700  33.372  20.809   6.506
 4731POPC   C3B61701  33.250  20.976   6.933
 4731POPC   C4B61702  32.955  21.216   7.259
 4732POPC   NC361703  25.088   1.514   5.599
 4732POPC   PO461704  25.483   1.044   5.735
 4732POPC   GL161705  25.459   1.363   6.029
 4732POPC   GL261706  25.135   1.361   6.103
 4732POPC   C1A61707  25.460   1.176   6.460
 4732POPC   D2A61708  25.203   0.974   6.799
 4732POPC   C3A61709  25.198   1.264   7.117
 4732POPC   C4A61710  25.485   1.491   7.357
 4732POPC   C1B61711  25.004   1.391   6.563
 4732POPC   C2B61712  24.725   1.198   6.882
 4732POPC   C3B61713  24.776   1.046   7.324
 4732POPC   C4B61714  25.095   1.246   7.617
 4733POPC   NC361715   3.912  44.936   5.553
 4733POPC   PO461716   3.795   0.606   5.394
 4733POPC   GL161717   3.585   0.626   5.790
 4733POPC   GL261718   3.607   0.287   5.815
 4733POPC   C1A61719   3.394   0.545   6.220
 4733POPC   D2A61720   3.252   0.278   6.545
 4733POPC   C3A61721   3.353   0.424   6.909
 4733POPC   C4A61722   3.218   0.448   7.320
 4733POPC   C1B61723   3.820   0.175   6.174
 4733POPC   C2B61724   3.795   0.312   6.564
 4733POPC   C3B61725   3.774   0.151   6.936
 4733POPC   C4B61726   3.693   0.332   7.274
 4734POPC   NC361727  21.911  26.733   5.430
 4734POPC   PO461728  22.598  26.588   5.488
 4734POPC   GL161729  22.460  26.756   5.890
 4734POPC   GL261730  22.106  26.785   5.928
 4734POPC   C1A61731  22.441  26.831   6.335
 4734POPC   D2A61732  22.283  26.688   6.692
 4734POPC   C3A61733  22.376  26.876   7.048
 4734POPC   C4A61734  22.080  27.207   7.243
 4734POPC   C1B61735  22.128  26.415   6.224
 4734POPC   C2B61736  21.954  26.322   6.662
 4734POPC   C3B61737  22.005  26.416   7.098
 4734POPC   C4B61738  21.744  26.403   7.466
 4735POPC   NC361739  11.819   4.732   5.665
 4735POPC   PO461740  12.279   4.291   5.572
 4735POPC   GL161741  12.012   4.341   5.918
 4735POPC   GL261742  11.868   4.015   5.969
 4735POPC   C1A61743  11.917   4.363   6.358
 4735POPC   D2A61744  12.199   4.308   6.692
 4735POPC   C3A61745  11.860   4.301   6.948
 4735POPC   C4A61746  11.806   4.487   7.301
 4735POPC   C1B61747  12.293   4.047   6.215
 4735POPC   C2B61748  12.416   3.846   6.600
 4735POPC   C3B61749  12.502   3.985   6.989
 4735POPC   C4B61750  12.283   4.237   7.237
 4736POPC   NC361751  10.791  16.228   5.110
 4736POPC   PO461752  10.788  15.562   5.286
 4736POPC   GL161753  10.654  15.835   5.625
 4736POPC   GL261754  10.330  16.026   5.662
 4736POPC   C1A61755  10.510  15.735   6.040
 4736POPC   D2A61756  10.523  15.912   6.431
 4736POPC   C3A61757  10.591  15.668   6.823
 4736POPC   C4A61758  10.506  15.576   7.244
 4736POPC   C1B61759  10.465  16.259   6.048
 4736POPC   C2B61760  10.634  16.403   6.466
 4736POPC   C3B61761  10.565  16.187   6.853
 4736POPC   C4B61762  10.603  16.073   7.261
 4737POPC   NC361763  38.498   8.588   5.360
 4737POPC   PO461764  38.066   8.101   5.376
 4737POPC   GL161765  38.339   8.261   5.756
 4737POPC   GL261766  38.630   8.516   5.837
 4737POPC   C1A61767  38.313   8.365   6.197
 4737POPC   D2A61768  38.472   8.155   6.532
 4737POPC   C3A61769  38.472   8.294   6.938
 4737POPC   C4A61770  38.522   8.043   7.310
 4737POPC   C1B61771  38.840   8.542   6.231
 4737POPC   C2B61772  38.917   8.360   6.644
 4737POPC   C3B61773  38.954   8.261   7.083
 4737POPC   C4B61774  38.739   8.588   7.279
 4738POPC   NC361775   1.056   8.954   5.153
 4738POPC   PO461776   1.601   8.887   5.491
 4738POPC   GL161777   1.232   8.824   5.726
 4738POPC   GL261778   0.997   9.115   5.725
 4738POPC   C1A61779   1.308   8.812   6.165
 4738POPC   D2A61780   1.278   9.071   6.508
 4738POPC   C3A61781   1.486   8.927   6.852
 4738POPC   C4A61782   1.417   9.027   7.258
 4738POPC   C1B61783   0.797   8.875   6.104
 4738POPC   C2B61784   0.857   8.729   6.553
 4738POPC   C3B61785   0.973   8.926   6.947
 4738POPC   C4B61786   0.963   8.831   7.376
 4739POPC   NC361787   0.541  17.093   5.463
 4739POPC   PO461788   0.181  16.486   5.402
 4739POPC   GL161789   0.222  16.793   5.775
 4739POPC   GL261790   0.562  16.805   5.894
 4739POPC   C1A61791   0.070  17.012   6.151
 4739POPC   D2A61792   0.169  17.204   6.553
 4739POPC   C3A61793   0.505  17.000   6.792
 4739POPC   C4A61794   0.425  16.733   7.129
 4739POPC   C1B61795   0.692  17.020   6.262
 4739POPC   C2B61796   1.011  16.900   6.566
 4739POPC   C3B61797   0.926  16.689   6.904
 4739POPC   C4B61798   0.878  16.893   7.269
 4740POPC   NC361799   4.652  37.819   4.943
 4740POPC   PO461800   4.323  37.827   5.568
 4740POPC   GL161801   4.437  37.729   5.957
 4740POPC   GL261802   4.633  37.977   5.965
 4740POPC   C1A61803   4.288  37.589   6.362
 4740POPC   D2A61804   4.387  37.366   6.737
 4740POPC   C3A61805   4.222  37.635   7.084
 4740POPC   C4A61806   4.336  37.608   7.534
 4740POPC   C1B61807   4.769  37.819   6.355
 4740POPC   C2B61808   4.631  37.809   6.767
 4740POPC   C3B61809   4.709  37.806   7.199
 4740POPC   C4B61810   4.784  37.933   7.620
 4741POPC   NC361811  13.400  39.337   5.517
 4741POPC   PO461812  13.749  38.855   5.278
 4741POPC   GL161813  13.578  38.896   5.767
 4741POPC   GL261814  13.569  39.235   5.975
 4741POPC   C1A61815  13.689  38.830   6.220
 4741POPC   D2A61816  13.778  39.075   6.589
 4741POPC   C3A61817  13.401  39.212   6.782
 4741POPC   C4A61818  13.178  39.038   7.110
 4741POPC   C1B61819  13.873  39.463   6.270
 4741POPC   C2B61820  14.022  39.512   6.712
 4741POPC   C3B61821  13.798  39.394   7.060
 4741POPC   C4B61822  13.745  38.975   7.103
 4742POPC   NC361823   4.784  19.435   5.548
 4742POPC   PO461824   4.856  18.813   5.352
 4742POPC   GL161825   5.101  19.050   5.768
 4742POPC   GL261826   4.977  19.343   5.990
 4742POPC   C1A61827   5.334  19.116   6.227
 4742POPC   D2A61828   5.226  18.870   6.543
 4742POPC   C3A61829   5.277  19.094   6.908
 4742POPC   C4A61830   5.384  18.879   7.261
 4742POPC   C1B61831   4.814  18.996   6.274
 4742POPC   C2B61832   4.774  18.947   6.747
 4742POPC   C3B61833   4.845  18.949   7.180
 4742POPC   C4B61834   4.681  19.241   7.511
 4743POPC   NC361835  37.700  36.605   5.257
 4743POPC   PO461836  37.517  35.922   5.310
 4743POPC   GL161837  37.552  36.153   5.720
 4743POPC   GL261838  37.859  36.239   5.819
 4743POPC   C1A61839  37.601  35.963   6.155
 4743POPC   D2A61840  37.528  36.140   6.568
 4743POPC   C3A61841  37.356  35.958   6.935
 4743POPC   C4A61842  37.671  35.909   7.269
 4743POPC   C1B61843  37.908  36.422   6.276
 4743POPC   C2B61844  37.671  36.629   6.615
 4743POPC   C3B61845  37.557  36.443   6.991
 4743POPC   C4B61846  37.804  36.397   7.341
 4744POPC   NC361847  18.703  37.115   5.513
 4744POPC   PO461848  19.423  36.938   5.515
 4744POPC   GL161849  19.270  37.083   5.869
 4744POPC   GL261850  19.038  36.831   5.866
 4744POPC   C1A61851  19.312  36.960   6.280
 4744POPC   D2A61852  19.425  36.817   6.643
 4744POPC   C3A61853  19.147  36.783   6.960
 4744POPC   C4A61854  19.200  36.552   7.314
 4744POPC   C1B61855  18.834  37.026   6.217
 4744POPC   C2B61856  18.987  37.180   6.631
 4744POPC   C3B61857  18.801  37.167   7.046
 4744POPC   C4B61858  18.619  37.050   7.468
 4745POPC   NC361859   0.226   0.502   5.415
 4745POPC   PO461860   0.842   0.091   5.444
 4745POPC   GL161861   0.499   0.192   5.764
 4745POPC   GL261862   0.557   0.548   5.848
 4745POPC   C1A61863   0.263   0.220   6.183
 4745POPC   D2A61864   0.419   0.237   6.652
 4745POPC   C3A61865   0.161   0.117   7.018
 4745POPC   C4A61866   0.154   0.254   7.464
 4745POPC   C1B61867   0.574   0.590   6.318
 4745POPC   C2B61868   0.437   0.812   6.694
 4745POPC   C3B61869   0.321   0.600   7.038
 4745POPC   C4B61870   0.722   0.527   7.195
 4746POPC   NC361871  42.723  44.809   5.415
 4746POPC   PO461872  43.394  44.919   5.384
 4746POPC   GL161873  43.160  44.705   5.720
 4746POPC   GL261874  42.954  44.984   5.816
 4746POPC   C1A61875  43.298  44.611   6.161
 4746POPC   D2A61876  43.183  44.644   6.612
 4746POPC   C3A61877  43.438  44.397   6.906
 4746POPC   C4A61878  43.448  44.304   7.353
 4746POPC   C1B61879  42.814  44.779   6.172
 4746POPC   C2B61880  42.680  44.846   6.576
 4746POPC   C3B61881  42.828  44.854   6.961
 4746POPC   C4B61882  43.033  44.534   7.172
 4747POPC   NC361883  10.348  21.161   5.313
 4747POPC   PO461884  10.829  21.656   5.262
 4747POPC   GL161885  10.739  21.477   5.663
 4747POPC   GL261886  10.697  21.136   5.732
 4747POPC   C1A61887  10.775  21.455   6.128
 4747POPC   D2A61888  10.505  21.696   6.442
 4747POPC   C3A61889  10.412  21.558   6.856
 4747POPC   C4A61890  10.729  21.387   7.091
 4747POPC   C1B61891  10.390  21.104   6.113
 4747POPC   C2B61892  10.334  20.953   6.561
 4747POPC   C3B61893  10.201  21.103   6.996
 4747POPC   C4B61894  10.405  21.125   7.394
 4748POPC   NC361895  30.767   0.047   5.407
 4748POPC   PO461896  30.356  44.562   5.295
 4748POPC   GL161897  30.538  44.696   5.698
 4748POPC   GL261898  30.298  44.914   5.803
 4748POPC   C1A61899  30.684  44.882   6.127
 4748POPC   D2A61900  30.544  44.757   6.553
 4748POPC   C3A61901  30.871  44.660   6.884
 4748POPC   C4A61902  30.924  44.398   7.251
 4748POPC   C1B61903  30.125  44.963   6.250
 4748POPC   C2B61904  30.200   0.131   6.689
 4748POPC   C3B61905  30.589   0.086   6.948
 4748POPC   C4B61906  30.688  44.871   7.313
 4749POPC   NC361907  16.169   9.527   5.491
 4749POPC   PO461908  15.776  10.043   5.250
 4749POPC   GL161909  15.722   9.792   5.679
 4749POPC   GL261910  15.974   9.626   5.928
 4749POPC   C1A61911  15.613   9.896   6.138
 4749POPC   D2A61912  15.732   9.582   6.441
 4749POPC   C3A61913  15.764   9.663   6.906
 4749POPC   C4A61914  15.978   9.885   7.293
 4749POPC   C1B61915  16.250   9.525   6.267
 4749POPC   C2B61916  16.221   9.685   6.678
 4749POPC   C3B61917  16.213   9.477   7.084
 4749POPC   C4B61918  16.551   9.467   7.352
 4750POPC   NC361919  34.711  44.203   5.702
 4750POPC   PO461920  35.014  43.715   5.392
 4750POPC   GL161921  34.686  43.690   5.820
 4750POPC   GL261922  34.645  43.933   6.107
 4750POPC   C1A61923  34.291  43.603   6.165
 4750POPC   D2A61924  34.374  43.502   6.599
 4750POPC   C3A61925  34.201  43.513   7.017
 4750POPC   C4A61926  34.530  43.643   7.316
 4750POPC   C1B61927  34.673  44.257   6.407
 4750POPC   C2B61928  34.895  44.235   6.784
 4750POPC   C3B61929  34.709  44.046   7.098
 4750POPC   C4B61930  34.229  44.013   7.149
 4751POPC   NC361931  28.716  22.288   5.548
 4751POPC   PO461932  28.085  22.380   5.477
 4751POPC   GL161933  28.319  22.198   5.859
 4751POPC   GL261934  28.557  21.886   5.868
 4751POPC   C1A61935  28.292  22.353   6.272
 4751POPC   D2A61936  28.339  22.135   6.652
 4751POPC   C3A61937  28.211  22.307   7.004
 4751POPC   C4A61938  28.484  22.226   7.315
 4751POPC   C1B61939  28.365  21.772   6.292
 4751POPC   C2B61940  28.241  21.620   6.719
 4751POPC   C3B61941  28.323  21.773   7.156
 4751POPC   C4B61942  28.424  21.837   7.634
 4752POPC   NC361943  10.179   8.373   5.164
 4752POPC   PO461944  10.621   7.895   5.380
 4752POPC   GL161945  10.738   7.999   5.756
 4752POPC   GL261946  10.689   8.320   5.784
 4752POPC   C1A61947  10.536   7.954   6.138
 4752POPC   D2A61948  10.658   7.801   6.505
 4752POPC   C3A61949  10.424   7.966   6.842
 4752POPC   C4A61950  10.523   7.954   7.270
 4752POPC   C1B61951  10.668   8.463   6.210
 4752POPC   C2B61952  10.520   8.438   6.640
 4752POPC   C3B61953  10.729   8.362   7.019
 4752POPC   C4B61954  11.070   8.545   7.237
 4753POPC   NC361955  24.785  31.064   5.728
 4753POPC   PO461956  24.516  31.692   5.469
 4753POPC   GL161957  24.664  31.678   5.866
 4753POPC   GL261958  24.469  31.422   5.916
 4753POPC   C1A61959  24.597  31.726   6.316
 4753POPC   D2A61960  24.312  31.815   6.655
 4753POPC   C3A61961  24.523  31.761   7.063
 4753POPC   C4A61962  24.682  31.487   7.443
 4753POPC   C1B61963  24.258  31.371   6.303
 4753POPC   C2B61964  24.507  31.331   6.681
 4753POPC   C3B61965  24.359  31.289   7.074
 4753POPC   C4B61966  23.967  31.262   7.217
 4754POPC   NC361967  14.123  22.508   5.164
 4754POPC   PO461968  14.490  23.006   5.550
 4754POPC   GL161969  14.301  23.004   5.924
 4754POPC   GL261970  14.498  22.711   6.034
 4754POPC   C1A61971  14.145  22.978   6.338
 4754POPC   D2A61972  14.312  22.848   6.725
 4754POPC   C3A61973  14.143  23.054   7.082
 4754POPC   C4A61974  14.122  22.991   7.528
 4754POPC   C1B61975  14.681  23.052   6.310
 4754POPC   C2B61976  14.836  22.984   6.741
 4754POPC   C3B61977  14.652  22.943   7.150
 4754POPC   C4B61978  14.628  23.120   7.559
 4755POPC   NC361979   8.058  36.414   5.373
 4755POPC   PO461980   8.471  36.906   5.244
 4755POPC   GL161981   8.178  37.002   5.663
 4755POPC   GL261982   8.037  36.703   5.800
 4755POPC   C1A61983   8.075  37.138   6.134
 4755POPC   D2A61984   8.005  37.341   6.561
 4755POPC   C3A61985   8.142  37.223   6.979
 4755POPC   C4A61986   7.971  37.037   7.350
 4755POPC   C1B61987   8.139  36.633   6.240
 4755POPC   C2B61988   8.082  36.822   6.623
 4755POPC   C3B61989   8.113  36.678   7.022
 4755POPC   C4B61990   8.434  36.638   7.303
 4756POPC   NC361991  39.260  16.870   5.337
 4756POPC   PO461992  39.130  16.257   5.515
 4756POPC   GL161993  39.206  16.440   5.908
 4756POPC   GL261994  39.298  16.781   5.839
 4756POPC   C1A61995  39.112  16.462   6.343
 4756POPC   D2A61996  39.282  16.579   6.702
 4756POPC   C3A61997  39.162  16.506   7.134
 4756POPC   C4A61998  39.385  16.618   7.506
 4756POPC   C1B61999  39.439  16.918   6.231
 4756POPC   C2B62000  39.539  17.039   6.656
 4756POPC   C3B62001  39.487  16.880   7.048
 4756POPC   C4B62002  39.223  17.080   7.339
 4757POPC   NC362003  44.781  24.064   5.205
 4757POPC   PO462004  44.552  24.694   5.424
 4757POPC   GL162005  44.685  24.513   5.817
 4757POPC   GL262006   0.040  24.523   5.888
 4757POPC   C1A62007  44.519  24.467   6.227
 4757POPC   D2A62008  44.809  24.556   6.566
 4757POPC   C3A62009  44.784  24.698   6.962
 4757POPC   C4A62010  44.507  24.760   7.274
 4757POPC   C1B62011  44.983  24.220   6.229
 4757POPC   C2B62012   0.147  24.180   6.679
 4757POPC   C3B62013   0.058  24.300   7.141
 4757POPC   C4B62014   0.070  24.172   7.564
 4758POPC   NC362015  24.682   8.103   5.391
 4758POPC   PO462016  24.381   8.639   5.548
 4758POPC   GL162017  24.503   8.272   5.887
 4758POPC   GL262018  24.769   8.011   5.893
 4758POPC   C1A62019  24.536   8.091   6.355
 4758POPC   D2A62020  24.554   8.154   6.832
 4758POPC   C3A62021  24.153   8.149   7.138
 4758POPC   C4A62022  23.972   8.103   7.570
 4758POPC   C1B62023  24.980   7.834   6.275
 4758POPC   C2B62024  24.989   7.852   6.773
 4758POPC   C3B62025  24.891   8.015   7.227
 4758POPC   C4B62026  24.603   8.366   7.294
 4759POPC   NC362027  39.970  44.204   5.084
 4759POPC   PO462028  39.775  44.795   5.279
 4759POPC   GL162029  39.928  44.799   5.721
 4759POPC   GL262030  39.872  44.458   5.854
 4759POPC   C1A62031  39.853  44.873   6.179
 4759POPC   D2A62032  39.899  44.723   6.611
 4759POPC   C3A62033  39.825  44.889   7.015
 4759POPC   C4A62034  39.941  44.681   7.411
 4759POPC   C1B62035  40.044  44.383   6.256
 4759POPC   C2B62036  40.256  44.381   6.659
 4759POPC   C3B62037  39.945  44.373   6.989
 4759POPC   C4B62038  39.889  44.183   7.348
 4760POPC   NC362039   5.901   6.802   5.480
 4760POPC   PO462040   5.272   6.748   5.554
 4760POPC   GL162041   5.534   6.453   5.788
 4760POPC   GL262042   5.912   6.377   5.750
 4760POPC   C1A62043   5.644   6.550   6.209
 4760POPC   D2A62044   5.450   6.538   6.586
 4760POPC   C3A62045   5.702   6.604   6.868
 4760POPC   C4A62046   5.553   6.527   7.218
 4760POPC   C1B62047   6.140   6.535   6.145
 4760POPC   C2B62048   6.267   6.403   6.533
 4760POPC   C3B62049   6.294   6.521   6.927
 4760POPC   C4B62050   6.043   6.441   7.225
 4761POPC   NC362051  40.993  39.425   5.339
 4761POPC   PO462052  40.472  39.075   5.001
 4761POPC   GL162053  40.621  39.093   5.494
 4761POPC   GL262054  40.499  39.368   5.695
 4761POPC   C1A62055  40.883  39.137   5.955
 4761POPC   D2A62056  40.817  39.026   6.449
 4761POPC   C3A62057  41.038  39.016   6.901
 4761POPC   C4A62058  40.880  39.246   7.283
 4761POPC   C1B62059  40.584  39.538   6.098
 4761POPC   C2B62060  40.789  39.608   6.471
 4761POPC   C3B62061  40.783  39.598   6.915
 4761POPC   C4B62062  40.409  39.535   7.187
 4762POPC   NC362063   5.748  43.779   5.553
 4762POPC   PO462064   6.362  43.828   5.531
 4762POPC   GL162065   6.131  43.672   5.904
 4762POPC   GL262066   5.852  43.420   5.872
 4762POPC   C1A62067   5.928  43.804   6.304
 4762POPC   D2A62068   5.925  44.049   6.712
 4762POPC   C3A62069   6.097  43.984   7.166
 4762POPC   C4A62070   6.197  44.227   7.580
 4762POPC   C1B62071   5.512  43.498   6.182
 4762POPC   C2B62072   5.501  43.652   6.620
 4762POPC   C3B62073   5.745  43.636   7.010
 4762POPC   C4B62074   5.660  43.829   7.423
 4763POPC   NC362075  44.036  23.423   5.498
 4763POPC   PO462076  43.938  22.746   5.598
 4763POPC   GL162077  44.116  23.055   5.879
 4763POPC   GL262078  43.827  23.234   5.941
 4763POPC   C1A62079  44.134  23.082   6.334
 4763POPC   D2A62080  44.091  22.718   6.586
 4763POPC   C3A62081  44.140  22.754   7.002
 4763POPC   C4A62082  43.765  22.840   7.179
 4763POPC   C1B62083  43.585  23.051   6.285
 4763POPC   C2B62084  43.572  23.045   6.731
 4763POPC   C3B62085  43.755  23.321   7.042
 4763POPC   C4B62086  44.142  23.208   7.234
 4764POPC   NC362087  28.919   5.222   5.596
 4764POPC   PO462088  29.435   4.828   5.520
 4764POPC   GL162089  29.307   5.063   5.917
 4764POPC   GL262090  28.959   5.184   6.081
 4764POPC   C1A62091  29.401   5.315   6.272
 4764POPC   D2A62092  29.124   5.143   6.596
 4764POPC   C3A62093  29.251   5.266   7.000
 4764POPC   C4A62094  29.571   5.376   7.300
 4764POPC   C1B62095  28.893   4.812   6.194
 4764POPC   C2B62096  28.726   4.704   6.549
 4764POPC   C3B62097  28.908   4.832   6.947
 4764POPC   C4B62098  28.865   5.103   7.293
 4765POPC   NC362099  31.824   1.238   5.465
 4765POPC   PO462100  31.109   1.051   5.499
 4765POPC   GL162101  31.264   1.238   5.912
 4765POPC   GL262102  31.563   1.454   5.961
 4765POPC   C1A62103  31.096   1.288   6.321
 4765POPC   D2A62104  31.042   1.121   6.699
 4765POPC   C3A62105  31.289   1.346   6.978
 4765POPC   C4A62106  31.422   1.140   7.314
 4765POPC   C1B62107  31.588   1.147   6.340
 4765POPC   C2B62108  31.564   0.932   6.777
 4765POPC   C3B62109  31.882   0.975   7.136
 4765POPC   C4B62110  31.875   1.187   7.541
 4766POPC   NC362111   0.517   2.063   5.279
 4766POPC   PO462112   0.315   1.426   5.471
 4766POPC   GL162113   0.246   1.837   5.704
 4766POPC   GL262114   0.377   2.204   5.743
 4766POPC   C1A62115   0.388   1.917   6.139
 4766POPC   D2A62116   0.537   1.731   6.529
 4766POPC   C3A62117   0.496   1.880   6.908
 4766POPC   C4A62118   0.557   2.023   7.304
 4766POPC   C1B62119   0.663   2.360   6.117
 4766POPC   C2B62120   0.724   2.257   6.588
 4766POPC   C3B62121   0.677   2.448   7.031
 4766POPC   C4B62122   0.512   2.477   7.486
 4767POPC   NC362123  43.257  10.665   5.264
 4767POPC   PO462124  42.641  10.392   5.461
 4767POPC   GL162125  42.807  10.369   5.878
 4767POPC   GL262126  43.118  10.501   5.757
 4767POPC   C1A62127  42.964  10.524   6.279
 4767POPC   D2A62128  43.154  10.828   6.549
 4767POPC   C3A62129  43.049  10.731   6.965
 4767POPC   C4A62130  42.886  10.351   7.182
 4767POPC   C1B62131  43.364  10.287   6.062
 4767POPC   C2B62132  43.449  10.394   6.488
 4767POPC   C3B62133  43.272  10.281   6.848
 4767POPC   C4B62134  43.388  10.416   7.261
 4768POPC   NC362135  38.793   1.565   5.561
 4768POPC   PO462136  38.226   1.466   5.184
 4768POPC   GL162137  38.328   1.281   5.638
 4768POPC   GL262138  38.640   1.095   5.761
 4768POPC   C1A62139  38.208   1.100   6.078
 4768POPC   D2A62140  38.315   1.240   6.508
 4768POPC   C3A62141  38.221   1.083   6.913
 4768POPC   C4A62142  38.451   1.232   7.280
 4768POPC   C1B62143  38.686   1.354   6.165
 4768POPC   C2B62144  38.875   1.326   6.590
 4768POPC   C3B62145  38.876   1.408   7.052
 4768POPC   C4B62146  38.907   1.016   7.296
 4769POPC   NC362147  33.208  42.020   5.105
 4769POPC   PO462148  32.811  42.420   5.440
 4769POPC   GL162149  33.135  42.424   5.789
 4769POPC   GL262150  33.132  42.102   5.955
 4769POPC   C1A62151  33.224  42.536   6.227
 4769POPC   D2A62152  33.293  42.321   6.603
 4769POPC   C3A62153  33.202  42.510   6.990
 4769POPC   C4A62154  33.191  42.687   7.398
 4769POPC   C1B62155  32.874  42.129   6.364
 4769POPC   C2B62156  32.879  42.107   6.828
 4769POPC   C3B62157  32.886  41.867   7.218
 4769POPC   C4B62158  32.705  42.015   7.627
 4770POPC   NC362159  42.212  42.882   5.395
 4770POPC   PO462160  42.579  43.358   5.318
 4770POPC   GL162161  42.569  43.041   5.728
 4770POPC   GL262162  42.260  43.047   5.877
 4770POPC   C1A62163  42.751  42.945   6.148
 4770POPC   D2A62164  42.554  42.915   6.562
 4770POPC   C3A62165  42.591  43.229   6.878
 4770POPC   C4A62166  42.418  43.123   7.245
 4770POPC   C1B62167  42.023  43.305   6.145
 4770POPC   C2B62168  42.001  43.007   6.456
 4770POPC   C3B62169  42.134  42.940   6.856
 4770POPC   C4B62170  41.933  43.012   7.211
 4771POPC   NC362171  40.071  13.303   5.190
 4771POPC   PO462172  40.115  12.845   5.724
 4771POPC   GL162173  40.148  12.979   6.100
 4771POPC   GL262174  39.804  13.070   6.163
 4771POPC   C1A62175  40.155  12.897   6.535
 4771POPC   D2A62176  39.881  12.717   6.840
 4771POPC   C3A62177  40.092  12.868   7.199
 4771POPC   C4A62178  39.945  13.139   7.506
 4771POPC   C1B62179  39.804  12.604   6.294
 4771POPC   C2B62180  39.630  12.298   6.583
 4771POPC   C3B62181  39.686  12.257   7.021
 4771POPC   C4B62182  39.810  12.519   7.428
 4772POPC   NC362183   2.038   2.997   5.313
 4772POPC   PO462184   2.396   2.523   5.394
 4772POPC   GL162185   2.160   2.684   5.783
 4772POPC   GL262186   1.962   3.011   5.810
 4772POPC   C1A62187   2.127   2.498   6.220
 4772POPC   D2A62188   2.457   2.410   6.542
 4772POPC   C3A62189   2.310   2.525   6.962
 4772POPC   C4A62190   2.014   2.865   7.054
 4772POPC   C1B62191   1.681   3.105   6.141
 4772POPC   C2B62192   1.778   3.056   6.568
 4772POPC   C3B62193   1.566   3.152   6.922
 4772POPC   C4B62194   1.529   2.881   7.239
 4773POPC   NC362195  44.632  20.310   5.475
 4773POPC   PO462196  44.996  19.726   5.441
 4773POPC   GL162197  44.963  19.551   5.854
 4773POPC   GL262198  44.649  19.763   5.882
 4773POPC   C1A62199  44.888  19.627   6.305
 4773POPC   D2A62200  44.874  20.006   6.541
 4773POPC   C3A62201  44.867  19.777   6.896
 4773POPC   C4A62202  44.621  19.721   7.252
 4773POPC   C1B62203  44.394  19.797   6.277
 4773POPC   C2B62204  44.375  19.782   6.738
 4773POPC   C3B62205  44.260  20.035   7.099
 4773POPC   C4B62206  43.918  19.985   7.449
 4774POPC   NC362207   5.491  40.881   5.389
 4774POPC   PO462208   4.813  40.924   5.390
 4774POPC   GL162209   5.082  40.948   5.737
 4774POPC   GL262210   4.973  40.659   5.872
 4774POPC   C1A62211   5.092  41.077   6.181
 4774POPC   D2A62212   5.161  40.849   6.566
 4774POPC   C3A62213   5.048  40.930   7.002
 4774POPC   C4A62214   5.330  40.930   7.318
 4774POPC   C1B62215   4.787  40.637   6.283
 4774POPC   C2B62216   4.812  40.549   6.757
 4774POPC   C3B62217   4.741  40.555   7.213
 4774POPC   C4B62218   4.952  40.723   7.561
 4775POPC   NC362219  12.618  37.917   5.156
 4775POPC   PO462220  12.894  38.414   5.537
 4775POPC   GL162221  12.707  38.542   5.895
 4775POPC   GL262222  12.532  38.888   5.916
 4775POPC   C1A62223  12.935  38.403   6.238
 4775POPC   D2A62224  12.970  38.513   6.641
 4775POPC   C3A62225  12.744  38.248   6.909
 4775POPC   C4A62226  12.942  38.139   7.286
 4775POPC   C1B62227  12.578  38.747   6.353
 4775POPC   C2B62228  12.409  38.330   6.522
 4775POPC   C3B62229  12.246  38.248   6.943
 4775POPC   C4B62230  12.369  38.558   7.232
 4776POPC   NC362231  41.122  13.013   5.237
 4776POPC   PO462232  40.452  13.091   5.364
 4776POPC   GL162233  40.613  13.005   5.780
 4776POPC   GL262234  40.888  12.811   5.672
 4776POPC   C1A62235  40.637  13.070   6.246
 4776POPC   D2A62236  40.934  12.998   6.602
 4776POPC   C3A62237  40.814  12.993   7.066
 4776POPC   C4A62238  40.891  12.921   7.552
 4776POPC   C1B62239  40.777  12.618   6.074
 4776POPC   C2B62240  40.767  12.502   6.527
 4776POPC   C3B62241  40.831  12.487   6.978
 4776POPC   C4B62242  40.555  12.629   7.330
 4777POPC   NC362243  26.108  34.826   5.331
 4777POPC   PO462244  26.031  34.187   5.295
 4777POPC   GL162245  25.995  34.424   5.725
 4777POPC   GL262246  25.892  34.774   5.789
 4777POPC   C1A62247  26.286  34.575   6.070
 4777POPC   D2A62248  26.444  34.466   6.478
 4777POPC   C3A62249  26.106  34.301   6.738
 4777POPC   C4A62250  25.990  34.433   7.142
 4777POPC   C1B62251  26.010  35.006   6.159
 4777POPC   C2B62252  26.348  34.986   6.452
 4777POPC   C3B62253  26.257  34.830   6.842
 4777POPC   C4B62254  25.983  34.951   7.189
 4778POPC   NC362255  34.130  19.591   5.491
 4778POPC   PO462256  34.800  19.650   5.550
 4778POPC   GL162257  34.713  19.851   5.923
 4778POPC   GL262258  34.326  19.938   5.861
 4778POPC   C1A62259  34.830  19.871   6.380
 4778POPC   D2A62260  34.562  20.043   6.669
 4778POPC   C3A62261  34.557  20.003   7.092
 4778POPC   C4A62262  34.220  20.106   7.382
 4778POPC   C1B62263  34.344  19.752   6.267
 4778POPC   C2B62264  34.147  19.706   6.659
 4778POPC   C3B62265  34.317  19.567   7.064
 4778POPC   C4B62266  34.785  19.523   7.179
 4779POPC   NC362267   5.599  15.975   5.537
 4779POPC   PO462268   5.959  15.402   5.337
 4779POPC   GL162269   5.990  15.703   5.730
 4779POPC   GL262270   5.645  15.677   5.945
 4779POPC   C1A62271   6.024  15.971   6.126
 4779POPC   D2A62272   6.081  15.948   6.563
 4779POPC   C3A62273   6.144  16.285   6.863
 4779POPC   C4A62274   6.035  16.182   7.285
 4779POPC   C1B62275   5.524  16.079   6.195
 4779POPC   C2B62276   5.670  16.273   6.581
 4779POPC   C3B62277   5.671  16.038   6.946
 4779POPC   C4B62278   5.607  15.766   7.271
 4780POPC   NC362279  19.698  22.394   5.266
 4780POPC   PO462280  20.190  21.904   5.349
 4780POPC   GL162281  19.915  22.130   5.654
 4780POPC   GL262282  20.092  22.411   5.871
 4780POPC   C1A62283  19.777  22.088   6.094
 4780POPC   D2A62284  19.944  21.965   6.495
 4780POPC   C3A62285  19.980  22.198   6.905
 4780POPC   C4A62286  19.919  22.055   7.343
 4780POPC   C1B62287  20.004  22.481   6.366
 4780POPC   C2B62288  19.683  22.571   6.710
 4780POPC   C3B62289  19.527  22.359   7.105
 4780POPC   C4B62290  19.635  22.471   7.525
 4781POPC   NC362291  23.554  21.926   5.500
 4781POPC   PO462292  23.572  22.617   5.219
 4781POPC   GL162293  23.747  22.589   5.680
 4781POPC   GL262294  23.807  22.241   5.785
 4781POPC   C1A62295  23.845  22.537   6.165
 4781POPC   D2A62296  23.790  22.573   6.614
 4781POPC   C3A62297  23.715  22.234   6.915
 4781POPC   C4A62298  23.920  22.171   7.333
 4781POPC   C1B62299  23.949  22.017   6.186
 4781POPC   C2B62300  24.026  21.895   6.628
 4781POPC   C3B62301  23.895  21.776   7.033
 4781POPC   C4B62302  23.519  21.861   7.263
 4782POPC   NC362303   2.818   6.129   5.370
 4782POPC   PO462304   2.419   5.602   5.359
 4782POPC   GL162305   2.580   5.826   5.723
 4782POPC   GL262306   2.418   6.099   5.710
 4782POPC   C1A62307   2.727   5.875   6.142
 4782POPC   D2A62308   2.736   6.047   6.548
 4782POPC   C3A62309   3.071   5.886   6.829
 4782POPC   C4A62310   2.901   5.872   7.237
 4782POPC   C1B62311   2.258   6.091   6.168
 4782POPC   C2B62312   2.148   6.085   6.635
 4782POPC   C3B62313   2.456   6.098   6.992
 4782POPC   C4B62314   2.594   6.256   7.408
 4783POPC   NC362315  25.802   2.113   5.495
 4783POPC   PO462316  26.277   1.577   5.441
 4783POPC   GL162317  26.178   1.564   5.854
 4783POPC   GL262318  25.845   1.661   5.856
 4783POPC   C1A62319  26.260   1.792   6.213
 4783POPC   D2A62320  26.285   1.949   6.613
 4783POPC   C3A62321  26.079   1.818   6.982
 4783POPC   C4A62322  25.947   2.207   7.221
 4783POPC   C1B62323  25.775   1.990   6.172
 4783POPC   C2B62324  25.740   1.954   6.617
 4783POPC   C3B62325  25.580   1.887   7.046
 4783POPC   C4B62326  25.581   1.977   7.494
 4784POPC   NC362327  24.065  36.363   5.465
 4784POPC   PO462328  23.445  36.296   5.492
 4784POPC   GL162329  23.680  36.141   5.829
 4784POPC   GL262330  23.988  35.959   5.756
 4784POPC   C1A62331  23.856  36.113   6.236
 4784POPC   D2A62332  23.742  35.969   6.596
 4784POPC   C3A62333  23.686  36.186   6.926
 4784POPC   C4A62334  23.892  36.254   7.290
 4784POPC   C1B62335  24.250  35.831   6.093
 4784POPC   C2B62336  24.246  35.921   6.537
 4784POPC   C3B62337  24.090  35.867   6.972
 4784POPC   C4B62338  24.059  35.534   7.264
 4785POPC   NC362339  26.898  27.298   5.386
 4785POPC   PO462340  27.129  27.969   5.355
 4785POPC   GL162341  26.930  27.717   5.689
 4785POPC   GL262342  26.592  27.839   5.830
 4785POPC   C1A62343  27.076  27.677   6.115
 4785POPC   D2A62344  26.847  27.701   6.503
 4785POPC   C3A62345  27.070  27.647   6.905
 4785POPC   C4A62346  27.031  27.441   7.330
 4785POPC   C1B62347  26.620  27.426   6.045
 4785POPC   C2B62348  26.522  27.299   6.466
 4785POPC   C3B62349  26.605  27.346   6.907
 4785POPC   C4B62350  26.578  27.674   7.218
 4786POPC   NC362351  18.849  18.405   5.395
 4786POPC   PO462352  19.557  18.667   5.399
 4786POPC   GL162353  19.218  18.568   5.762
 4786POPC   GL262354  19.043  18.259   5.842
 4786POPC   C1A62355  19.023  18.560   6.233
 4786POPC   D2A62356  19.123  18.283   6.605
 4786POPC   C3A62357  18.988  18.472   6.993
 4786POPC   C4A62358  18.920  18.620   7.443
 4786POPC   C1B62359  19.349  18.128   6.150
 4786POPC   C2B62360  19.453  17.866   6.535
 4786POPC   C3B62361  19.250  17.889   6.943
 4786POPC   C4B62362  19.181  18.128   7.324
 4787POPC   NC362363  29.957  23.464   5.542
 4787POPC   PO462364  29.379  23.481   5.251
 4787POPC   GL162365  29.525  23.571   5.776
 4787POPC   GL262366  29.732  23.864   5.913
 4787POPC   C1A62367  29.734  23.454   6.215
 4787POPC   D2A62368  29.963  23.542   6.637
 4787POPC   C3A62369  29.675  23.545   7.004
 4787POPC   C4A62370  29.582  23.280   7.339
 4787POPC   C1B62371  30.083  23.966   6.227
 4787POPC   C2B62372  30.283  23.956   6.640
 4787POPC   C3B62373  30.062  23.943   7.054
 4787POPC   C4B62374  30.163  23.900   7.491
 4788POPC   NC362375   3.989   2.590   5.344
 4788POPC   PO462376   4.591   2.928   5.133
 4788POPC   GL162377   4.463   2.785   5.573
 4788POPC   GL262378   4.254   3.059   5.717
 4788POPC   C1A62379   4.438   2.677   6.041
 4788POPC   D2A62380   4.288   2.439   6.416
 4788POPC   C3A62381   4.351   2.405   6.885
 4788POPC   C4A62382   4.086   2.517   7.237
 4788POPC   C1B62383   4.091   3.136   6.160
 4788POPC   C2B62384   4.079   3.199   6.643
 4788POPC   C3B62385   4.253   2.960   7.034
 4788POPC   C4B62386   4.431   3.030   7.486
 4789POPC   NC362387  20.082  17.096   5.137
 4789POPC   PO462388  19.841  17.720   5.416
 4789POPC   GL162389  19.895  17.507   5.772
 4789POPC   GL262390  19.773  17.158   5.707
 4789POPC   C1A62391  20.048  17.583   6.189
 4789POPC   D2A62392  19.993  17.826   6.573
 4789POPC   C3A62393  20.119  17.722   6.974
 4789POPC   C4A62394  19.889  17.630   7.339
 4789POPC   C1B62395  19.585  17.282   6.131
 4789POPC   C2B62396  19.772  17.299   6.543
 4789POPC   C3B62397  19.814  17.278   6.971
 4789POPC   C4B62398  19.618  17.195   7.402
 4790POPC   NC362399   2.451  25.538   5.313
 4790POPC   PO462400   2.994  25.136   5.364
 4790POPC   GL162401   2.953  25.247   5.804
 4790POPC   GL262402   2.660  25.402   5.790
 4790POPC   C1A62403   2.872  25.090   6.222
 4790POPC   D2A62404   2.997  24.881   6.626
 4790POPC   C3A62405   3.005  25.127   6.969
 4790POPC   C4A62406   2.961  25.082   7.394
 4790POPC   C1B62407   2.785  25.596   6.195
 4790POPC   C2B62408   2.745  25.401   6.606
 4790POPC   C3B62409   2.554  25.334   7.005
 4790POPC   C4B62410   2.865  25.600   7.169
 4791POPC   NC362411  33.026   6.906   5.492
 4791POPC   PO462412  32.822   6.306   5.230
 4791POPC   GL162413  32.941   6.430   5.804
 4791POPC   GL262414  33.088   6.709   5.972
 4791POPC   C1A62415  32.714   6.423   6.237
 4791POPC   D2A62416  32.786   6.284   6.695
 4791POPC   C3A62417  32.909   6.618   6.957
 4791POPC   C4A62418  32.826   6.794   7.347
 4791POPC   C1B62419  33.204   6.304   6.218
 4791POPC   C2B62420  33.399   6.208   6.597
 4791POPC   C3B62421  33.247   6.242   7.034
 4791POPC   C4B62422  33.331   6.643   7.282
 4792POPC   NC362423   8.141  11.901   5.391
 4792POPC   PO462424   8.046  12.547   5.377
 4792POPC   GL162425   8.219  12.259   5.759
 4792POPC   GL262426   8.434  11.958   5.842
 4792POPC   C1A62427   8.088  12.060   6.191
 4792POPC   D2A62428   7.944  12.245   6.576
 4792POPC   C3A62429   8.095  12.024   6.920
 4792POPC   C4A62430   8.135  12.112   7.321
 4792POPC   C1B62431   8.564  11.776   6.258
 4792POPC   C2B62432   8.482  11.724   6.722
 4792POPC   C3B62433   8.528  11.794   7.175
 4792POPC   C4B62434   8.447  11.864   7.626
 4793POPC   NC362435  19.402  30.717   5.289
 4793POPC   PO462436  18.883  30.583   5.751
 4793POPC   GL162437  19.230  30.774   5.897
 4793POPC   GL262438  19.192  31.112   5.820
 4793POPC   C1A62439  19.321  30.591   6.299
 4793POPC   D2A62440  19.309  30.738   6.717
 4793POPC   C3A62441  19.100  30.506   7.075
 4793POPC   C4A62442  18.957  30.222   7.426
 4793POPC   C1B62443  19.260  31.122   6.281
 4793POPC   C2B62444  19.156  31.234   6.715
 4793POPC   C3B62445  19.168  31.033   7.113
 4793POPC   C4B62446  19.464  30.914   7.369
 4794POPC   NC362447   8.510  32.456   5.457
 4794POPC   PO462448   8.507  31.759   5.441
 4794POPC   GL162449   8.225  32.032   5.705
 4794POPC   GL262450   7.868  31.885   5.779
 4794POPC   C1A62451   8.144  32.189   6.125
 4794POPC   D2A62452   8.372  32.049   6.516
 4794POPC   C3A62453   8.427  32.294   6.909
 4794POPC   C4A62454   8.469  32.355   7.356
 4794POPC   C1B62455   7.644  31.906   6.140
 4794POPC   C2B62456   7.795  32.051   6.511
 4794POPC   C3B62457   8.007  31.966   6.866
 4794POPC   C4B62458   8.009  32.171   7.228
 4795POPC   NC362459  10.108   8.993   5.542
 4795POPC   PO462460  10.577   8.545   5.330
 4795POPC   GL162461  10.547   8.807   5.751
 4795POPC   GL262462  10.246   8.794   5.997
 4795POPC   C1A62463  10.762   8.969   6.146
 4795POPC   D2A62464  10.711   9.135   6.577
 4795POPC   C3A62465  10.696   8.850   6.923
 4795POPC   C4A62466  10.346   8.646   7.164
 4795POPC   C1B62467  10.316   9.215   6.209
 4795POPC   C2B62468  10.276   9.435   6.622
 4795POPC   C3B62469  10.358   9.216   7.013
 4795POPC   C4B62470  10.771   9.310   7.189
 4796POPC   NC362471  43.461  33.788   5.520
 4796POPC   PO462472  42.929  33.297   5.481
 4796POPC   GL162473  42.997  33.693   5.765
 4796POPC   GL262474  43.310  33.819   5.989
 4796POPC   C1A62475  42.870  33.730   6.190
 4796POPC   D2A62476  43.056  33.487   6.537
 4796POPC   C3A62477  42.845  33.454   6.960
 4796POPC   C4A62478  42.929  33.811   7.226
 4796POPC   C1B62479  43.181  34.117   6.318
 4796POPC   C2B62480  42.925  34.089   6.681
 4796POPC   C3B62481  43.106  34.256   7.028
 4796POPC   C4B62482  43.495  34.048   7.149
 4797POPC   NC362483  36.506  25.992   5.489
 4797POPC   PO462484  37.097  26.253   5.291
 4797POPC   GL162485  37.026  26.037   5.731
 4797POPC   GL262486  37.030  25.663   5.777
 4797POPC   C1A62487  36.873  26.174   6.170
 4797POPC   D2A62488  36.939  26.435   6.540
 4797POPC   C3A62489  36.793  26.312   6.955
 4797POPC   C4A62490  37.131  26.254   7.262
 4797POPC   C1B62491  36.947  25.676   6.232
 4797POPC   C2B62492  37.072  25.918   6.622
 4797POPC   C3B62493  36.950  25.843   7.055
 4797POPC   C4B62494  36.749  25.652   7.399
 4798POPC   NC362495  14.522  20.097   5.366
 4798POPC   PO462496  14.526  19.403   5.320
 4798POPC   GL162497  14.382  19.578   5.772
 4798POPC   GL262498  14.421  19.951   5.848
 4798POPC   C1A62499  14.504  19.620   6.242
 4798POPC   D2A62500  14.611  19.822   6.651
 4798POPC   C3A62501  14.583  19.569   7.010
 4798POPC   C4A62502  14.177  19.563   7.167
 4798POPC   C1B62503  14.233  20.072   6.244
 4798POPC   C2B62504  13.871  20.188   6.505
 4798POPC   C3B62505  13.966  20.260   6.956
 4798POPC   C4B62506  14.354  20.039   7.101
 4799POPC   NC362507  41.441  44.061   5.487
 4799POPC   PO462508  41.001  43.458   5.435
 4799POPC   GL162509  41.168  43.646   5.878
 4799POPC   GL262510  41.524  43.809   5.916
 4799POPC   C1A62511  41.306  43.676   6.344
 4799POPC   D2A62512  41.682  43.636   6.637
 4799POPC   C3A62513  41.651  43.855   7.042
 4799POPC   C4A62514  41.373  43.920   7.381
 4799POPC   C1B62515  41.398  44.151   6.213
 4799POPC   C2B62516  41.236  44.153   6.650
 4799POPC   C3B62517  41.388  44.314   7.054
 4799POPC   C4B62518  41.743  44.270   7.383
 4800POPC   NC362519   9.146  38.891   5.324
 4800POPC   PO462520   8.901  38.354   5.578
 4800POPC   GL162521   9.282  38.403   5.846
 4800POPC   GL262522   9.317  38.762   5.839
 4800POPC   C1A62523   9.290  38.201   6.266
 4800POPC   D2A62524   8.987  37.953   6.551
 4800POPC   C3A62525   8.943  38.113   6.998
 4800POPC   C4A62526   9.169  38.466   7.245
 4800POPC   C1B62527   8.978  38.620   6.174
 4800POPC   C2B62528   8.965  38.463   6.596
 4800POPC   C3B62529   8.750  38.577   6.953
 4800POPC   C4B62530   8.838  38.862   7.252
 4801POPC   NC362531   3.696   5.966   5.440
 4801POPC   PO462532   3.076   5.776   5.562
 4801POPC   GL162533   3.408   5.896   5.850
 4801POPC   GL262534   3.667   5.645   5.847
 4801POPC   C1A62535   3.702   6.021   6.195
 4801POPC   D2A62536   3.517   5.994   6.589
 4801POPC   C3A62537   3.525   6.173   6.997
 4801POPC   C4A62538   3.412   5.978   7.355
 4801POPC   C1B62539   3.551   5.515   6.281
 4801POPC   C2B62540   3.444   5.513   6.729
 4801POPC   C3B62541   3.308   5.536   7.155
 4801POPC   C4B62542   3.426   5.505   7.614
 4802POPC   NC362543  28.229  22.826   5.462
 4802POPC   PO462544  28.751  23.117   5.574
 4802POPC   GL162545  28.519  22.987   5.890
 4802POPC   GL262546  28.563  22.659   5.854
 4802POPC   C1A62547  28.276  22.920   6.247
 4802POPC   D2A62548  28.274  23.187   6.606
 4802POPC   C3A62549  28.250  23.030   7.005
 4802POPC   C4A62550  28.369  23.398   7.237
 4802POPC   C1B62551  28.718  22.648   6.265
 4802POPC   C2B62552  28.486  22.663   6.654
 4802POPC   C3B62553  28.590  22.653   7.070
 4802POPC   C4B62554  28.578  22.943   7.386
 4803POPC   NC362555  16.937   9.606   5.452
 4803POPC   PO462556  16.359   9.941   5.597
 4803POPC   GL162557  16.589   9.652   5.854
 4803POPC   GL262558  16.852   9.907   5.893
 4803POPC   C1A62559  16.911   9.458   6.153
 4803POPC   D2A62560  16.991   9.270   6.584
 4803POPC   C3A62561  16.845   9.591   6.908
 4803POPC   C4A62562  16.952   9.820   7.303
 4803POPC   C1B62563  16.621   9.926   6.293
 4803POPC   C2B62564  16.592  10.031   6.727
 4803POPC   C3B62565  16.465   9.931   7.142
 4803POPC   C4B62566  16.500   9.888   7.612
 4804POPC   NC362567   5.123   3.781   5.397
 4804POPC   PO462568   4.766   3.252   5.615
 4804POPC   GL162569   4.947   3.451   5.948
 4804POPC   GL262570   4.876   3.778   5.844
 4804POPC   C1A62571   5.248   3.741   6.198
 4804POPC   D2A62572   5.480   3.696   6.591
 4804POPC   C3A62573   5.251   3.512   6.926
 4804POPC   C4A62574   5.109   3.646   7.296
 4804POPC   C1B62575   4.700   3.803   6.228
 4804POPC   C2B62576   4.892   3.656   6.565
 4804POPC   C3B62577   4.817   3.815   6.921
 4804POPC   C4B62578   4.596   3.659   7.248
 4805POPC   NC362579  19.528   9.410   5.539
 4805POPC   PO462580  19.704   8.778   5.408
 4805POPC   GL162581  19.646   8.881   5.844
 4805POPC   GL262582  19.360   8.683   5.864
 4805POPC   C1A62583  19.788   9.056   6.279
 4805POPC   D2A62584  19.943   8.857   6.678
 4805POPC   C3A62585  20.093   9.047   7.104
 4805POPC   C4A62586  20.520   9.273   7.205
 4805POPC   C1B62587  19.334   8.829   6.279
 4805POPC   C2B62588  19.432   9.015   6.670
 4805POPC   C3B62589  19.438   9.072   7.111
 4805POPC   C4B62590  19.730   9.093   7.480
 4806POPC   NC362591  31.172  33.093   5.496
 4806POPC   PO462592  30.493  32.907   5.493
 4806POPC   GL162593  30.739  33.156   5.792
 4806POPC   GL262594  30.421  33.336   5.832
 4806POPC   C1A62595  30.968  33.019   6.205
 4806POPC   D2A62596  30.799  32.795   6.593
 4806POPC   C3A62597  30.979  32.785   7.023
 4806POPC   C4A62598  30.751  32.885   7.403
 4806POPC   C1B62599  30.458  33.124   6.247
 4806POPC   C2B62600  30.234  32.913   6.582
 4806POPC   C3B62601  30.241  33.008   7.005
 4806POPC   C4B62602  30.146  33.440   7.099
 4807POPC   NC362603   8.328  28.799   5.440
 4807POPC   PO462604   8.318  29.502   5.301
 4807POPC   GL162605   8.055  29.417   5.704
 4807POPC   GL262606   8.022  29.050   5.800
 4807POPC   C1A62607   7.902  29.458   6.144
 4807POPC   D2A62608   7.946  29.591   6.588
 4807POPC   C3A62609   8.046  29.286   6.903
 4807POPC   C4A62610   8.265  29.219   7.251
 4807POPC   C1B62611   8.064  28.832   6.219
 4807POPC   C2B62612   8.269  28.918   6.606
 4807POPC   C3B62613   8.299  28.754   7.012
 4807POPC   C4B62614   7.988  28.763   7.317
 4808POPC   NC362615  12.570  26.230   5.377
 4808POPC   PO462616  12.010  25.854   5.255
 4808POPC   GL162617  12.078  26.153   5.632
 4808POPC   GL262618  12.343  25.974   5.793
 4808POPC   C1A62619  12.169  26.322   6.102
 4808POPC   D2A62620  12.000  26.241   6.547
 4808POPC   C3A62621  12.201  26.116   6.972
 4808POPC   C4A62622  12.125  26.183   7.460
 4808POPC   C1B62623  11.912  25.881   6.050
 4808POPC   C2B62624  11.707  25.783   6.458
 4808POPC   C3B62625  11.772  25.830   6.916
 4808POPC   C4B62626  12.042  25.705   7.247
 4809POPC   NC362627  28.884  18.190   5.229
 4809POPC   PO462628  29.465  18.339   5.531
 4809POPC   GL162629  29.297  18.315   5.863
 4809POPC   GL262630  29.061  18.049   5.780
 4809POPC   C1A62631  29.140  18.431   6.250
 4809POPC   D2A62632  28.977  18.199   6.584
 4809POPC   C3A62633  29.146  18.303   6.951
 4809POPC   C4A62634  28.866  18.269   7.251
 4809POPC   C1B62635  29.260  17.942   6.182
 4809POPC   C2B62636  29.226  17.762   6.553
 4809POPC   C3B62637  29.384  17.799   6.928
 4809POPC   C4B62638  29.303  17.956   7.300
 4810POPC   NC362639  35.864  22.499   5.146
 4810POPC   PO462640  36.148  21.907   5.371
 4810POPC   GL162641  36.110  21.858   5.800
 4810POPC   GL262642  35.820  22.013   5.950
 4810POPC   C1A62643  36.255  21.842   6.213
 4810POPC   D2A62644  36.451  21.854   6.611
 4810POPC   C3A62645  36.231  22.023   6.978
 4810POPC   C4A62646  36.425  22.282   7.260
 4810POPC   C1B62647  35.875  22.370   6.256
 4810POPC   C2B62648  35.751  22.353   6.688
 4810POPC   C3B62649  35.931  22.475   7.093
 4810POPC   C4B62650  35.913  22.623   7.527
 4811POPC   NC362651  26.423  42.691   5.407
 4811POPC   PO462652  26.028  43.309   5.392
 4811POPC   GL162653  26.029  42.987   5.711
 4811POPC   GL262654  26.359  42.953   5.829
 4811POPC   C1A62655  25.911  43.018   6.174
 4811POPC   D2A62656  25.644  42.970   6.581
 4811POPC   C3A62657  25.754  43.193   6.988
 4811POPC   C4A62658  25.786  43.209   7.462
 4811POPC   C1B62659  26.448  43.093   6.235
 4811POPC   C2B62660  26.202  43.170   6.610
 4811POPC   C3B62661  26.158  42.913   6.963
 4811POPC   C4B62662  26.367  42.848   7.301
 4812POPC   NC362663   1.311  16.405   5.462
 4812POPC   PO462664   0.992  17.006   5.615
 4812POPC   GL162665   1.200  16.747   5.856
 4812POPC   GL262666   0.953  16.470   5.810
 4812POPC   C1A62667   1.449  16.559   6.164
 4812POPC   D2A62668   1.342  16.427   6.571
 4812POPC   C3A62669   1.433  16.573   6.979
 4812POPC   C4A62670   1.352  16.775   7.367
 4812POPC   C1B62671   0.913  16.531   6.231
 4812POPC   C2B62672   0.871  16.260   6.552
 4812POPC   C3B62673   1.062  16.202   6.921
 4812POPC   C4B62674   1.054  16.381   7.300
 4813POPC   NC362675  19.086  15.447   5.107
 4813POPC   PO462676  19.297  16.108   5.325
 4813POPC   GL162677  19.056  16.051   5.770
 4813POPC   GL262678  18.933  15.695   5.913
 4813POPC   C1A62679  19.127  16.019   6.227
 4813POPC   D2A62680  18.844  15.885   6.513
 4813POPC   C3A62681  18.965  16.052   6.839
 4813POPC   C4A62682  19.279  15.985   7.097
 4813POPC   C1B62683  19.254  15.530   6.219
 4813POPC   C2B62684  19.285  15.666   6.655
 4813POPC   C3B62685  19.021  15.559   7.023
 4813POPC   C4B62686  19.258  15.269   7.280
 4814POPC   NC362687  23.386  29.704   5.397
 4814POPC   PO462688  23.053  30.306   5.272
 4814POPC   GL162689  23.201  30.212   5.702
 4814POPC   GL262690  23.178  29.836   5.845
 4814POPC   C1A62691  23.041  30.227   6.157
 4814POPC   D2A62692  22.819  30.178   6.553
 4814POPC   C3A62693  23.012  30.132   6.973
 4814POPC   C4A62694  22.982  29.940   7.428
 4814POPC   C1B62695  22.935  29.647   6.215
 4814POPC   C2B62696  22.928  29.668   6.680
 4814POPC   C3B62697  23.212  29.684   7.035
 4814POPC   C4B62698  23.295  29.479   7.426
 4815POPC   NC362699   0.773  25.352   5.293
 4815POPC   PO462700   0.095  25.405   5.129
 4815POPC   GL162701   0.263  25.446   5.580
 4815POPC   GL262702   0.592  25.411   5.766
 4815POPC   C1A62703   0.159  25.420   6.047
 4815POPC   D2A62704   0.345  25.392   6.461
 4815POPC   C3A62705   0.258  25.167   6.830
 4815POPC   C4A62706   0.303  25.361   7.199
 4815POPC   C1B62707   0.876  25.489   6.128
 4815POPC   C2B62708   0.781  25.625   6.541
 4815POPC   C3B62709   0.716  25.377   6.889
 4815POPC   C4B62710   0.778  25.568   7.263
 4816POPC   NC362711  23.128   3.659   5.482
 4816POPC   PO462712  22.526   3.400   5.645
 4816POPC   GL162713  22.728   3.664   5.972
 4816POPC   GL262714  23.118   3.603   5.994
 4816POPC   C1A62715  22.862   3.690   6.421
 4816POPC   D2A62716  23.221   3.803   6.664
 4816POPC   C3A62717  23.126   3.590   7.040
 4816POPC   C4A62718  22.665   3.515   7.033
 4816POPC   C1B62719  23.232   3.352   6.390
 4816POPC   C2B62720  22.911   3.197   6.722
 4816POPC   C3B62721  22.586   3.004   7.031
 4816POPC   C4B62722  22.513   3.189   7.458
 4817POPC   NC362723  34.823  19.191   5.456
 4817POPC   PO462724  34.298  18.790   5.504
 4817POPC   GL162725  34.441  18.998   5.883
 4817POPC   GL262726  34.458  19.367   5.823
 4817POPC   C1A62727  34.366  18.886   6.323
 4817POPC   D2A62728  34.388  18.698   6.737
 4817POPC   C3A62729  34.813  18.666   6.890
 4817POPC   C4A62730  35.002  18.581   7.290
 4817POPC   C1B62731  34.714  19.395   6.198
 4817POPC   C2B62732  34.616  19.467   6.648
 4817POPC   C3B62733  34.558  19.126   6.960
 4817POPC   C4B62734  34.529  18.817   7.301
 4818POPC   NC362735  20.143  40.308   5.010
 4818POPC   PO462736  19.810  40.535   5.538
 4818POPC   GL162737  19.883  40.754   5.898
 4818POPC   GL262738  19.599  40.934   5.910
 4818POPC   C1A62739  20.041  40.817   6.318
 4818POPC   D2A62740  19.823  40.913   6.740
 4818POPC   C3A62741  20.087  40.807   7.088
 4818POPC   C4A62742  20.166  40.808   7.539
 4818POPC   C1B62743  19.529  40.655   6.288
 4818POPC   C2B62744  19.425  40.574   6.726
 4818POPC   C3B62745  19.487  40.670   7.179
 4818POPC   C4B62746  19.277  40.784   7.600
 4819POPC   NC362747  12.350  27.702   5.242
 4819POPC   PO462748  12.960  27.685   5.411
 4819POPC   GL162749  13.037  27.637   5.844
 4819POPC   GL262750  13.176  27.276   5.855
 4819POPC   C1A62751  12.818  27.637   6.266
 4819POPC   D2A62752  12.769  27.256   6.537
 4819POPC   C3A62753  12.553  27.273   6.933
 4819POPC   C4A62754  12.445  27.640   7.163
 4819POPC   C1B62755  13.278  27.425   6.277
 4819POPC   C2B62756  13.161  27.548   6.705
 4819POPC   C3B62757  12.972  27.526   7.127
 4819POPC   C4B62758  12.838  27.861   7.408
 4820POPC   NC362759   1.516  38.315   5.480
 4820POPC   PO462760   0.850  38.342   5.458
 4820POPC   GL162761   1.012  38.405   5.833
 4820POPC   GL262762   1.353  38.473   5.926
 4820POPC   C1A62763   0.910  38.464   6.232
 4820POPC   D2A62764   1.061  38.367   6.620
 4820POPC   C3A62765   1.076  38.645   6.968
 4820POPC   C4A62766   1.440  38.885   7.171
 4820POPC   C1B62767   1.637  38.452   6.255
 4820POPC   C2B62768   1.571  38.281   6.637
 4820POPC   C3B62769   1.347  38.206   7.028
 4820POPC   C4B62770   1.600  38.410   7.322
 4821POPC   NC362771  21.352  21.844   5.110
 4821POPC   PO462772  21.549  21.224   5.323
 4821POPC   GL162773  21.337  21.323   5.703
 4821POPC   GL262774  21.526  21.607   5.782
 4821POPC   C1A62775  21.196  21.105   6.090
 4821POPC   D2A62776  20.951  21.049   6.470
 4821POPC   C3A62777  20.985  21.249   6.868
 4821POPC   C4A62778  21.116  21.094   7.267
 4821POPC   C1B62779  21.395  21.572   6.213
 4821POPC   C2B62780  21.574  21.243   6.494
 4821POPC   C3B62781  21.492  21.131   6.912
 4821POPC   C4B62782  21.413  21.498   7.167
 4822POPC   NC362783  11.210  39.881   5.369
 4822POPC   PO462784  11.601  40.463   5.541
 4822POPC   GL162785  11.437  40.054   5.806
 4822POPC   GL262786  11.049  39.971   5.844
 4822POPC   C1A62787  11.499  39.821   6.229
 4822POPC   D2A62788  11.333  39.920   6.657
 4822POPC   C3A62789  11.544  39.979   7.050
 4822POPC   C4A62790  11.408  39.885   7.466
 4822POPC   C1B62791  10.971  39.851   6.267
 4822POPC   C2B62792  10.841  40.033   6.658
 4822POPC   C3B62793  11.003  40.031   7.101
 4822POPC   C4B62794  10.947  40.015   7.583
 4823POPC   NC362795  43.837  29.474   5.665
 4823POPC   PO462796  43.627  30.029   5.299
 4823POPC   GL162797  43.777  30.178   5.736
 4823POPC   GL262798  43.829  29.907   5.952
 4823POPC   C1A62799  43.798  30.397   6.146
 4823POPC   D2A62800  43.625  30.229   6.558
 4823POPC   C3A62801  43.864  30.254   6.959
 4823POPC   C4A62802  44.035  30.225   7.403
 4823POPC   C1B62803  43.980  29.871   6.393
 4823POPC   C2B62804  43.939  29.761   6.853
 4823POPC   C3B62805  43.798  29.776   7.290
 4823POPC   C4B62806  43.799  29.570   7.729
 4824POPC   NC362807   3.908   8.520   5.449
 4824POPC   PO462808   3.544   7.980   5.454
 4824POPC   GL162809   3.475   8.175   5.839
 4824POPC   GL262810   3.229   8.452   5.760
 4824POPC   C1A62811   3.712   8.148   6.240
 4824POPC   D2A62812   3.698   7.909   6.651
 4824POPC   C3A62813   3.795   8.164   7.005
 4824POPC   C4A62814   3.636   8.137   7.448
 4824POPC   C1B62815   3.380   8.562   6.167
 4824POPC   C2B62816   3.249   8.737   6.556
 4824POPC   C3B62817   3.083   8.557   6.877
 4824POPC   C4B62818   3.353   8.367   7.114
 4825POPC   NC362819  38.498  26.363   5.313
 4825POPC   PO462820  38.580  25.665   5.229
 4825POPC   GL162821  38.641  25.943   5.639
 4825POPC   GL262822  38.509  26.282   5.813
 4825POPC   C1A62823  38.659  25.916   6.120
 4825POPC   D2A62824  38.534  26.104   6.515
 4825POPC   C3A62825  38.622  25.814   6.829
 4825POPC   C4A62826  38.393  25.644   7.179
 4825POPC   C1B62827  38.179  26.093   6.116
 4825POPC   C2B62828  37.988  26.113   6.563
 4825POPC   C3B62829  38.209  26.094   6.967
 4825POPC   C4B62830  38.370  26.432   7.196
 4826POPC   NC362831   0.146  27.733   5.081
 4826POPC   PO462832   0.706  27.577   5.372
 4826POPC   GL162833   0.610  27.766   5.767
 4826POPC   GL262834   0.818  28.093   5.741
 4826POPC   C1A62835   0.374  27.542   6.121
 4826POPC   D2A62836   0.269  27.483   6.553
 4826POPC   C3A62837   0.569  27.363   6.866
 4826POPC   C4A62838   0.407  27.451   7.286
 4826POPC   C1B62839   0.915  27.983   6.150
 4826POPC   C2B62840   0.741  27.730   6.493
 4826POPC   C3B62841   0.618  27.862   6.936
 4826POPC   C4B62842   0.442  27.978   7.343
 4827POPC   NC362843   2.984  14.738   5.484
 4827POPC   PO462844   2.833  14.111   5.392
 4827POPC   GL162845   3.004  14.260   5.842
 4827POPC   GL262846   3.161  14.612   5.938
 4827POPC   C1A62847   2.859  14.103   6.268
 4827POPC   D2A62848   2.475  14.245   6.533
 4827POPC   C3A62849   2.610  14.308   6.955
 4827POPC   C4A62850   2.997  14.431   7.149
 4827POPC   C1B62851   2.887  14.633   6.298
 4827POPC   C2B62852   2.868  14.896   6.665
 4827POPC   C3B62853   2.681  14.809   7.054
 4827POPC   C4B62854   2.590  14.580   7.424
 4828POPC   NC362855   5.654   9.903   5.236
 4828POPC   PO462856   5.029   9.782   5.333
 4828POPC   GL162857   5.210   9.851   5.735
 4828POPC   GL262858   5.490  10.124   5.725
 4828POPC   C1A62859   5.188   9.618   6.147
 4828POPC   D2A62860   5.410   9.508   6.537
 4828POPC   C3A62861   5.208   9.613   6.927
 4828POPC   C4A62862   5.299   9.621   7.346
 4828POPC   C1B62863   5.293  10.122   6.152
 4828POPC   C2B62864   5.139   9.975   6.532
 4828POPC   C3B62865   5.263  10.118   6.910
 4828POPC   C4B62866   5.157  10.131   7.307
 4829POPC   NC362867  42.069  34.451   5.377
 4829POPC   PO462868  42.552  34.827   5.418
 4829POPC   GL162869  42.241  34.687   5.809
 4829POPC   GL262870  42.178  34.331   5.891
 4829POPC   C1A62871  42.199  34.590   6.311
 4829POPC   D2A62872  42.037  34.795   6.672
 4829POPC   C3A62873  42.170  34.539   7.002
 4829POPC   C4A62874  42.033  34.155   7.160
 4829POPC   C1B62875  42.458  34.145   6.214
 4829POPC   C2B62876  42.416  34.193   6.662
 4829POPC   C3B62877  42.576  34.220   7.072
 4829POPC   C4B62878  42.360  34.362   7.484
 4830POPC   NC362879  25.411   3.083   5.136
 4830POPC   PO462880  25.537   2.506   5.432
 4830POPC   GL162881  25.369   2.757   5.750
 4830POPC   GL262882  25.136   2.959   5.582
 4830POPC   C1A62883  25.398   2.797   6.185
 4830POPC   D2A62884  25.167   2.698   6.527
 4830POPC   C3A62885  25.388   2.635   6.896
 4830POPC   C4A62886  25.281   2.698   7.281
 4830POPC   C1B62887  25.052   3.114   6.015
 4830POPC   C2B62888  24.990   3.185   6.476
 4830POPC   C3B62889  25.035   3.008   6.906
 4830POPC   C4B62890  25.101   3.185   7.289
 4831POPC   NC362891   3.394  25.048   5.142
 4831POPC   PO462892   3.619  24.507   5.541
 4831POPC   GL162893   3.451  24.558   5.867
 4831POPC   GL262894   3.271  24.853   5.731
 4831POPC   C1A62895   3.516  24.401   6.289
 4831POPC   D2A62896   3.238  24.366   6.632
 4831POPC   C3A62897   3.434  24.467   7.026
 4831POPC   C4A62898   3.747  24.232   7.255
 4831POPC   C1B62899   3.331  24.888   6.204
 4831POPC   C2B62900   3.507  24.821   6.597
 4831POPC   C3B62901   3.480  25.002   6.965
 4831POPC   C4B62902   3.424  24.865   7.373
 4832POPC   NC362903  29.107  35.740   5.618
 4832POPC   PO462904  28.852  35.153   5.571
 4832POPC   GL162905  28.922  35.358   5.925
 4832POPC   GL262906  29.245  35.317   5.909
 4832POPC   C1A62907  28.929  35.526   6.339
 4832POPC   D2A62908  28.747  35.548   6.745
 4832POPC   C3A62909  29.007  35.513   7.134
 4832POPC   C4A62910  28.885  35.319   7.507
 4832POPC   C1B62911  29.415  35.335   6.312
 4832POPC   C2B62912  29.250  35.271   6.732
 4832POPC   C3B62913  29.452  35.237   7.158
 4832POPC   C4B62914  29.369  35.443   7.554
 4833POPC   NC362915  20.341  32.641   5.634
 4833POPC   PO462916  20.624  32.152   5.342
 4833POPC   GL162917  20.680  32.215   5.757
 4833POPC   GL262918  20.362  32.180   5.843
 4833POPC   C1A62919  20.727  32.022   6.160
 4833POPC   D2A62920  20.833  32.269   6.485
 4833POPC   C3A62921  20.845  32.082   6.890
 4833POPC   C4A62922  21.067  32.200   7.215
 4833POPC   C1B62923  20.404  32.439   6.267
 4833POPC   C2B62924  20.408  32.319   6.741
 4833POPC   C3B62925  20.383  32.370   7.221
 4833POPC   C4B62926  20.338  32.429   7.734
 4834POPC   NC362927  35.759  10.806   5.380
 4834POPC   PO462928  36.113  11.404   5.298
 4834POPC   GL162929  35.938  11.486   5.713
 4834POPC   GL262930  36.202  11.314   5.941
 4834POPC   C1A62931  35.768  11.406   6.141
 4834POPC   D2A62932  36.099  11.354   6.470
 4834POPC   C3A62933  35.920  11.348   6.885
 4834POPC   C4A62934  35.930  11.225   7.312
 4834POPC   C1B62935  36.478  11.592   6.200
 4834POPC   C2B62936  36.363  11.790   6.579
 4834POPC   C3B62937  36.363  11.617   6.974
 4834POPC   C4B62938  36.395  11.536   7.394
 4835POPC   NC362939  15.195  39.954   5.467
 4835POPC   PO462940  15.052  40.568   5.547
 4835POPC   GL162941  15.182  40.203   5.910
 4835POPC   GL262942  15.394  39.840   5.910
 4835POPC   C1A62943  15.434  40.126   6.317
 4835POPC   D2A62944  15.559  39.896   6.693
 4835POPC   C3A62945  15.497  40.108   7.077
 4835POPC   C4A62946  15.103  40.153   7.286
 4835POPC   C1B62947  15.040  39.808   6.233
 4835POPC   C2B62948  15.038  39.798   6.700
 4835POPC   C3B62949  15.240  39.675   7.111
 4835POPC   C4B62950  15.302  39.577   7.548
 4836POPC   NC362951   7.826  20.190   5.437
 4836POPC   PO462952   8.251  20.579   5.049
 4836POPC   GL162953   8.263  20.698   5.585
 4836POPC   GL262954   8.553  20.706   5.803
 4836POPC   C1A62955   8.131  20.712   6.089
 4836POPC   D2A62956   7.843  20.574   6.459
 4836POPC   C3A62957   7.956  20.541   6.906
 4836POPC   C4A62958   7.925  20.727   7.357
 4836POPC   C1B62959   8.606  20.585   6.244
 4836POPC   C2B62960   8.428  20.582   6.682
 4836POPC   C3B62961   8.424  20.677   7.132
 4836POPC   C4B62962   8.376  20.469   7.520
 4837POPC   NC362963  11.080  41.815   5.460
 4837POPC   PO462964  11.062  41.186   5.409
 4837POPC   GL162965  11.223  41.249   5.826
 4837POPC   GL262966  11.318  41.600   5.878
 4837POPC   C1A62967  11.195  41.320   6.296
 4837POPC   D2A62968  11.005  41.515   6.677
 4837POPC   C3A62969  11.254  41.503   7.080
 4837POPC   C4A62970  11.620  41.534   7.375
 4837POPC   C1B62971  11.533  41.863   6.213
 4837POPC   C2B62972  11.446  41.920   6.653
 4837POPC   C3B62973  11.551  41.970   7.094
 4837POPC   C4B62974  11.264  41.912   7.431
 4838POPC   NC362975  25.284  34.992   5.475
 4838POPC   PO462976  25.049  34.345   5.400
 4838POPC   GL162977  25.036  34.625   5.745
 4838POPC   GL262978  25.396  34.606   5.842
 4838POPC   C1A62979  25.052  34.810   6.162
 4838POPC   D2A62980  25.266  34.694   6.538
 4838POPC   C3A62981  25.097  34.412   6.798
 4838POPC   C4A62982  25.118  34.607   7.157
 4838POPC   C1B62983  25.700  34.565   6.196
 4838POPC   C2B62984  25.828  34.745   6.581
 4838POPC   C3B62985  25.590  34.711   6.959
 4838POPC   C4B62986  25.577  34.623   7.411
 4839POPC   NC362987  11.110  18.762   5.615
 4839POPC   PO462988  11.443  19.383   5.561
 4839POPC   GL162989  11.294  19.197   5.906
 4839POPC   GL262990  10.939  19.158   5.892
 4839POPC   C1A62991  11.232  19.203   6.342
 4839POPC   D2A62992  11.339  18.986   6.721
 4839POPC   C3A62993  11.349  19.267   7.039
 4839POPC   C4A62994  11.238  19.392   7.430
 4839POPC   C1B62995  10.865  18.835   6.239
 4839POPC   C2B62996  10.894  18.723   6.690
 4839POPC   C3B62997  11.038  18.808   7.134
 4839POPC   C4B62998  11.490  18.807   7.214
 4840POPC   NC362999   8.749   7.602   5.482
 4840POPC   PO463000   9.222   7.197   5.427
 4840POPC   GL163001   9.013   7.201   5.789
 4840POPC   GL263002   8.647   7.173   5.761
 4840POPC   C1A63003   9.014   7.500   6.130
 4840POPC   D2A63004   9.172   7.728   6.478
 4840POPC   C3A63005   9.119   7.523   6.841
 4840POPC   C4A63006   8.916   7.619   7.187
 4840POPC   C1B63007   8.727   7.047   6.173
 4840POPC   C2B63008   8.639   6.964   6.569
 4840POPC   C3B63009   8.704   7.183   6.961
 4840POPC   C4B63010   8.602   7.321   7.418
 4841POPC   NC363011  18.163  13.461   5.447
 4841POPC   PO463012  18.191  12.767   5.510
 4841POPC   GL163013  18.406  13.061   5.836
 4841POPC   GL263014  18.279  13.417   5.936
 4841POPC   C1A63015  18.428  13.133   6.322
 4841POPC   D2A63016  18.216  13.350   6.699
 4841POPC   C3A63017  18.467  13.451   7.094
 4841POPC   C4A63018  18.450  13.648   7.491
 4841POPC   C1B63019  18.445  13.653   6.318
 4841POPC   C2B63020  18.417  13.823   6.723
 4841POPC   C3B63021  18.126  13.824   7.067
 4841POPC   C4B63022  17.739  13.983   7.143
 4842POPC   NC363023  13.119  40.293   5.426
 4842POPC   PO463024  13.022  39.617   5.365
 4842POPC   GL163025  12.945  39.655   5.813
 4842POPC   GL263026  13.068  39.978   5.927
 4842POPC   C1A63027  12.643  39.756   6.165
 4842POPC   D2A63028  12.407  39.836   6.566
 4842POPC   C3A63029  12.589  39.842   7.005
 4842POPC   C4A63030  12.873  40.128   7.269
 4842POPC   C1B63031  13.131  39.888   6.387
 4842POPC   C2B63032  13.093  39.854   6.863
 4842POPC   C3B63033  13.215  39.664   7.262
 4842POPC   C4B63034  13.298  39.650   7.717
 4843POPC   NC363035  30.658   2.431   5.440
 4843POPC   PO463036  31.035   2.970   5.472
 4843POPC   GL163037  30.809   2.807   5.777
 4843POPC   GL263038  31.006   2.489   5.796
 4843POPC   C1A63039  30.610   2.922   6.184
 4843POPC   D2A63040  30.769   3.028   6.585
 4843POPC   C3A63041  30.670   2.815   6.953
 4843POPC   C4A63042  30.741   2.935   7.345
 4843POPC   C1B63043  30.722   2.436   6.117
 4843POPC   C2B63044  30.785   2.535   6.520
 4843POPC   C3B63045  30.961   2.383   6.881
 4843POPC   C4B63046  30.717   2.361   7.247
 4844POPC   NC363047  37.007   8.439   5.390
 4844POPC   PO463048  36.790   7.803   5.319
 4844POPC   GL163049  36.956   8.005   5.679
 4844POPC   GL263050  36.637   8.170   5.685
 4844POPC   C1A63051  36.927   8.219   6.097
 4844POPC   D2A63052  37.011   8.452   6.461
 4844POPC   C3A63053  36.853   8.265   6.853
 4844POPC   C4A63054  37.134   8.188   7.226
 4844POPC   C1B63055  36.460   8.018   6.078
 4844POPC   C2B63056  36.595   7.883   6.485
 4844POPC   C3B63057  36.480   7.833   6.917
 4844POPC   C4B63058  36.655   8.016   7.274
 4845POPC   NC363059  36.446   6.722   5.350
 4845POPC   PO463060  35.953   6.280   5.507
 4845POPC   GL163061  36.129   6.585   5.826
 4845POPC   GL263062  36.513   6.574   5.879
 4845POPC   C1A63063  36.204   6.514   6.294
 4845POPC   D2A63064  36.373   6.370   6.715
 4845POPC   C3A63065  36.035   6.536   6.960
 4845POPC   C4A63066  35.887   6.946   6.891
 4845POPC   C1B63067  36.634   6.760   6.314
 4845POPC   C2B63068  36.371   6.927   6.693
 4845POPC   C3B63069  36.307   6.967   7.190
 4845POPC   C4B63070  36.430   6.799   7.637
 4846POPC   NC363071   1.144  21.937   5.387
 4846POPC   PO463072   0.901  22.520   5.436
 4846POPC   GL163073   1.118  22.302   5.770
 4846POPC   GL263074   1.387  22.481   5.830
 4846POPC   C1A63075   0.995  22.176   6.194
 4846POPC   D2A63076   1.125  22.097   6.635
 4846POPC   C3A63077   0.835  21.994   6.989
 4846POPC   C4A63078   0.868  22.121   7.421
 4846POPC   C1B63079   1.342  22.703   6.194
 4846POPC   C2B63080   1.558  22.811   6.561
 4846POPC   C3B63081   1.364  22.607   6.899
 4846POPC   C4B63082   1.286  22.204   7.120
 4847POPC   NC363083   8.154  33.377   5.137
 4847POPC   PO463084   8.388  32.902   5.502
 4847POPC   GL163085   8.303  32.861   5.931
 4847POPC   GL263086   7.929  32.918   5.991
 4847POPC   C1A63087   8.311  33.154   6.272
 4847POPC   D2A63088   8.174  33.191   6.666
 4847POPC   C3A63089   8.328  32.992   7.007
 4847POPC   C4A63090   8.137  32.654   7.137
 4847POPC   C1B63091   7.803  33.289   6.285
 4847POPC   C2B63092   7.694  33.364   6.742
 4847POPC   C3B63093   7.997  33.382   7.096
 4847POPC   C4B63094   8.351  33.351   7.396
 4848POPC   NC363095  17.718  40.191   5.451
 4848POPC   PO463096  17.341  39.576   5.415
 4848POPC   GL163097  17.597  39.781   5.750
 4848POPC   GL263098  17.340  40.005   5.828
 4848POPC   C1A63099  17.749  39.931   6.199
 4848POPC   D2A63100  17.762  40.126   6.648
 4848POPC   C3A63101  17.810  39.813   7.013
 4848POPC   C4A63102  17.835  39.812   7.522
 4848POPC   C1B63103  17.266  39.694   6.136
 4848POPC   C2B63104  17.384  39.812   6.546
 4848POPC   C3B63105  17.343  40.022   6.930
 4848POPC   C4B63106  17.378  39.781   7.279
 4849POPC   NC363107  28.820  29.419   5.284
 4849POPC   PO463108  29.368  29.009   5.511
 4849POPC   GL163109  29.281  29.145   5.921
 4849POPC   GL263110  29.088  29.447   5.816
 4849POPC   C1A63111  29.161  28.951   6.344
 4849POPC   D2A63112  28.890  28.890   6.704
 4849POPC   C3A63113  29.143  28.853   7.057
 4849POPC   C4A63114  29.435  29.173   7.116
 4849POPC   C1B63115  29.012  29.419   6.271
 4849POPC   C2B63116  29.188  29.426   6.665
 4849POPC   C3B63117  28.966  29.347   7.000
 4849POPC   C4B63118  28.652  29.049   7.140
 4850POPC   NC363119  22.573  29.199   5.057
 4850POPC   PO463120  21.944  29.031   5.356
 4850POPC   GL163121  22.107  29.095   5.789
 4850POPC   GL263122  22.094  28.765   5.822
 4850POPC   C1A63123  22.040  29.014   6.258
 4850POPC   D2A63124  21.855  29.099   6.664
 4850POPC   C3A63125  22.101  29.325   6.982
 4850POPC   C4A63126  22.329  29.369   7.395
 4850POPC   C1B63127  22.404  28.656   6.145
 4850POPC   C2B63128  22.476  28.797   6.561
 4850POPC   C3B63129  22.270  28.820   6.961
 4850POPC   C4B63130  22.500  28.905   7.312
 4851POPC   NC363131   7.075  16.271   5.624
 4851POPC   PO463132   6.736  15.893   5.318
 4851POPC   GL163133   6.828  15.811   5.734
 4851POPC   GL263134   6.477  15.901   5.815
 4851POPC   C1A63135   6.854  15.973   6.174
 4851POPC   D2A63136   6.591  16.096   6.525
 4851POPC   C3A63137   6.716  15.987   6.940
 4851POPC   C4A63138   6.537  16.271   7.270
 4851POPC   C1B63139   6.435  15.682   6.231
 4851POPC   C2B63140   6.439  15.586   6.667
 4851POPC   C3B63141   6.262  15.793   7.036
 4851POPC   C4B63142   6.371  15.835   7.462
 4852POPC   NC363143  17.193   2.175   5.628
 4852POPC   PO463144  17.743   1.747   5.513
 4852POPC   GL163145  17.468   1.806   5.867
 4852POPC   GL263146  17.098   1.739   5.886
 4852POPC   C1A63147  17.443   1.982   6.270
 4852POPC   D2A63148  17.277   1.969   6.677
 4852POPC   C3A63149  17.618   2.034   6.970
 4852POPC   C4A63150  17.599   1.880   7.385
 4852POPC   C1B63151  16.942   2.089   6.221
 4852POPC   C2B63152  17.024   2.416   6.536
 4852POPC   C3B63153  17.177   2.429   6.927
 4852POPC   C4B63154  17.223   2.195   7.265
 4853POPC   NC363155   2.324   9.751   5.292
 4853POPC   PO463156   1.694   9.435   5.213
 4853POPC   GL163157   1.968   9.527   5.627
 4853POPC   GL263158   2.162   9.851   5.757
 4853POPC   C1A63159   1.858   9.616   6.088
 4853POPC   D2A63160   1.814   9.821   6.510
 4853POPC   C3A63161   2.009   9.706   6.899
 4853POPC   C4A63162   1.786   9.684   7.278
 4853POPC   C1B63163   2.115  10.040   6.168
 4853POPC   C2B63164   2.188  10.180   6.583
 4853POPC   C3B63165   2.354  10.113   7.018
 4853POPC   C4B63166   2.272   9.836   7.368
 4854POPC   NC363167  22.677  12.024   5.757
 4854POPC   PO463168  23.099  12.310   5.255
 4854POPC   GL163169  23.118  12.345   5.715
 4854POPC   GL263170  23.189  12.024   5.843
 4854POPC   C1A63171  23.044  12.364   6.209
 4854POPC   D2A63172  23.301  12.379   6.560
 4854POPC   C3A63173  23.194  12.245   6.961
 4854POPC   C4A63174  22.915  12.114   7.287
 4854POPC   C1B63175  23.098  11.867   6.283
 4854POPC   C2B63176  22.921  11.873   6.726
 4854POPC   C3B63177  22.722  11.665   7.119
 4854POPC   C4B63178  22.576  11.722   7.582
 4855POPC   NC363179  17.536   3.627   5.091
 4855POPC   PO463180  17.905   3.328   5.592
 4855POPC   GL163181  17.683   3.589   5.829
 4855POPC   GL263182  17.365   3.651   5.702
 4855POPC   C1A63183  17.750   3.717   6.241
 4855POPC   D2A63184  17.604   3.832   6.629
 4855POPC   C3A63185  17.809   3.728   6.973
 4855POPC   C4A63186  17.649   3.893   7.331
 4855POPC   C1B63187  17.245   3.626   6.153
 4855POPC   C2B63188  17.249   3.466   6.601
 4855POPC   C3B63189  17.319   3.564   7.036
 4855POPC   C4B63190  17.150   3.786   7.385
 4856POPC   NC363191  13.168  24.735   5.256
 4856POPC   PO463192  12.823  24.188   5.487
 4856POPC   GL163193  12.960  24.536   5.763
 4856POPC   GL263194  13.209  24.428   5.964
 4856POPC   C1A63195  12.697  24.592   6.153
 4856POPC   D2A63196  12.415  24.280   6.354
 4856POPC   C3A63197  12.360  24.257   6.786
 4856POPC   C4A63198  12.563  24.494   7.060
 4856POPC   C1B63199  13.134  24.837   6.165
 4856POPC   C2B63200  13.026  24.973   6.598
 4856POPC   C3B63201  12.979  24.809   7.031
 4856POPC   C4B63202  13.012  24.378   7.259
 4857POPC   NC363203  18.631  12.834   5.393
 4857POPC   PO463204  19.245  12.543   5.267
 4857POPC   GL163205  19.092  12.787   5.645
 4857POPC   GL263206  18.827  12.594   5.801
 4857POPC   C1A63207  18.891  13.020   6.042
 4857POPC   D2A63208  18.814  12.825   6.450
 4857POPC   C3A63209  19.106  12.873   6.767
 4857POPC   C4A63210  19.054  13.039   7.144
 4857POPC   C1B63211  18.843  12.373   6.206
 4857POPC   C2B63212  18.704  12.361   6.648
 4857POPC   C3B63213  18.826  12.528   7.058
 4857POPC   C4B63214  18.681  12.778   7.406
 4858POPC   NC363215  38.707  13.651   5.361
 4858POPC   PO463216  38.028  13.926   5.392
 4858POPC   GL163217  38.273  13.600   5.666
 4858POPC   GL263218  38.581  13.685   5.844
 4858POPC   C1A63219  38.278  13.365   6.098
 4858POPC   D2A63220  38.085  13.404   6.527
 4858POPC   C3A63221  38.332  13.298   6.917
 4858POPC   C4A63222  38.592  13.590   7.180
 4858POPC   C1B63223  38.268  13.892   6.104
 4858POPC   C2B63224  38.112  13.932   6.520
 4858POPC   C3B63225  38.314  13.832   6.839
 4858POPC   C4B63226  38.272  14.044   7.197
 4859POPC   NC363227  11.407   4.545   4.802
 4859POPC   PO463228  11.381   4.729   5.520
 4859POPC   GL163229  11.300   4.472   5.905
 4859POPC   GL263230  11.133   4.152   5.874
 4859POPC   C1A63231  11.373   4.433   6.356
 4859POPC   D2A63232  11.548   4.654   6.718
 4859POPC   C3A63233  11.337   4.591   7.107
 4859POPC   C4A63234  10.991   4.713   7.418
 4859POPC   C1B63235  11.366   3.937   6.215
 4859POPC   C2B63236  11.651   3.934   6.580
 4859POPC   C3B63237  11.466   3.808   6.975
 4859POPC   C4B63238  11.193   4.035   7.270
 4860POPC   NC363239  36.612  21.733   5.074
 4860POPC   PO463240  36.543  22.222   5.592
 4860POPC   GL163241  36.851  22.297   5.897
 4860POPC   GL263242  36.710  22.016   6.031
 4860POPC   C1A63243  37.230  22.433   6.155
 4860POPC   D2A63244  37.374  22.422   6.597
 4860POPC   C3A63245  37.198  22.169   6.956
 4860POPC   C4A63246  37.227  22.306   7.378
 4860POPC   C1B63247  37.082  21.936   6.234
 4860POPC   C2B63248  36.960  21.833   6.612
 4860POPC   C3B63249  36.799  21.685   6.973
 4860POPC   C4B63250  36.859  21.944   7.292
 4861POPC   NC363251  43.126  36.589   5.408
 4861POPC   PO463252  42.885  37.154   5.478
 4861POPC   GL163253  43.159  36.951   5.779
 4861POPC   GL263254  42.872  36.733   5.834
 4861POPC   C1A63255  43.358  36.872   6.191
 4861POPC   D2A63256  43.491  36.822   6.629
 4861POPC   C3A63257  43.287  36.734   7.015
 4861POPC   C4A63258  43.146  36.990   7.373
 4861POPC   C1B63259  42.842  36.962   6.212
 4861POPC   C2B63260  42.934  36.778   6.592
 4861POPC   C3B63261  42.649  36.503   6.772
 4861POPC   C4B63262  42.796  36.677   7.135
 4862POPC   NC363263  40.032  15.821   5.049
 4862POPC   PO463264  40.198  15.560   5.520
 4862POPC   GL163265  40.074  15.843   5.877
 4862POPC   GL263266  39.692  15.924   6.005
 4862POPC   C1A63267  40.316  15.881   6.275
 4862POPC   D2A63268  40.406  16.007   6.706
 4862POPC   C3A63269  40.144  15.841   7.052
 4862POPC   C4A63270  40.303  15.696   7.459
 4862POPC   C1B63271  39.566  16.222   6.381
 4862POPC   C2B63272  39.600  16.245   6.865
 4862POPC   C3B63273  39.638  16.191   7.313
 4862POPC   C4B63274  39.710  16.338   7.767
 4863POPC   NC363275   3.133  26.740   5.128
 4863POPC   PO463276   2.717  26.629   5.619
 4863POPC   GL163277   2.809  26.631   6.029
 4863POPC   GL263278   2.725  26.957   6.038
 4863POPC   C1A63279   2.762  26.708   6.485
 4863POPC   D2A63280   2.783  26.377   6.777
 4863POPC   C3A63281   2.940  26.581   7.119
 4863POPC   C4A63282   2.710  26.611   7.512
 4863POPC   C1B63283   2.354  27.010   6.289
 4863POPC   C2B63284   2.375  27.114   6.712
 4863POPC   C3B63285   2.777  27.060   6.909
 4863POPC   C4B63286   2.892  27.053   7.333
 4864POPC   NC363287  40.618  35.639   5.360
 4864POPC   PO463288  41.013  35.063   5.371
 4864POPC   GL163289  40.737  35.117   5.757
 4864POPC   GL263290  40.542  35.441   5.833
 4864POPC   C1A63291  40.881  35.315   6.180
 4864POPC   D2A63292  41.077  35.364   6.573
 4864POPC   C3A63293  40.884  35.324   6.989
 4864POPC   C4A63294  40.980  35.262   7.442
 4864POPC   C1B63295  40.369  35.355   6.265
 4864POPC   C2B63296  40.199  35.476   6.652
 4864POPC   C3B63297  40.398  35.553   7.014
 4864POPC   C4B63298  40.684  35.678   7.303
 4865POPC   NC363299  16.759   8.720   5.498
 4865POPC   PO463300  16.333   9.185   5.249
 4865POPC   GL163301  16.496   9.147   5.769
 4865POPC   GL263302  16.816   8.990   5.906
 4865POPC   C1A63303  16.574   9.101   6.300
 4865POPC   D2A63304  16.497   9.250   6.709
 4865POPC   C3A63305  16.728   9.084   7.029
 4865POPC   C4A63306  17.011   9.300   7.295
 4865POPC   C1B63307  16.965   8.705   6.211
 4865POPC   C2B63308  16.872   8.723   6.643
 4865POPC   C3B63309  17.104   8.650   7.012
 4865POPC   C4B63310  16.967   8.792   7.388
 4866POPC   NC363311  29.761  37.080   5.457
 4866POPC   PO463312  29.904  36.457   5.466
 4866POPC   GL163313  29.752  36.727   5.836
 4866POPC   GL263314  30.097  36.855   5.813
 4866POPC   C1A63315  29.564  36.948   6.244
 4866POPC   D2A63316  29.735  36.803   6.664
 4866POPC   C3A63317  29.865  37.008   7.026
 4866POPC   C4A63318  29.851  36.709   7.341
 4866POPC   C1B63319  30.049  36.841   6.269
 4866POPC   C2B63320  30.255  37.007   6.615
 4866POPC   C3B63321  30.384  37.052   7.000
 4866POPC   C4B63322  30.202  37.178   7.369
 4867POPC   NC363323  41.251   8.944   5.453
 4867POPC   PO463324  41.890   8.729   5.530
 4867POPC   GL163325  41.720   8.862   5.918
 4867POPC   GL263326  41.371   8.864   5.957
 4867POPC   C1A63327  41.701   8.859   6.376
 4867POPC   D2A63328  41.675   9.054   6.788
 4867POPC   C3A63329  41.936   8.876   7.131
 4867POPC   C4A63330  41.892   8.924   7.606
 4867POPC   C1B63331  41.207   8.987   6.365
 4867POPC   C2B63332  41.210   8.710   6.719
 4867POPC   C3B63333  41.457   8.684   7.070
 4867POPC   C4B63334  41.445   9.040   7.322
 4868POPC   NC363335  16.259  23.833   5.462
 4868POPC   PO463336  16.877  23.945   5.508
 4868POPC   GL163337  16.682  23.679   5.862
 4868POPC   GL263338  16.295  23.583   5.915
 4868POPC   C1A63339  16.898  23.590   6.277
 4868POPC   D2A63340  17.138  23.776   6.609
 4868POPC   C3A63341  17.053  23.680   7.047
 4868POPC   C4A63342  17.301  23.809   7.401
 4868POPC   C1B63343  16.435  23.847   6.272
 4868POPC   C2B63344  16.639  23.900   6.659
 4868POPC   C3B63345  16.614  23.962   7.091
 4868POPC   C4B63346  16.376  23.966   7.476
 4869POPC   NC363347  20.795  30.402   5.457
 4869POPC   PO463348  20.527  31.076   5.363
 4869POPC   GL163349  20.736  30.836   5.688
 4869POPC   GL263350  20.392  30.742   5.755
 4869POPC   C1A63351  20.897  30.583   6.084
 4869POPC   D2A63352  20.741  30.624   6.512
 4869POPC   C3A63353  20.951  30.573   6.928
 4869POPC   C4A63354  20.777  30.668   7.325
 4869POPC   C1B63355  20.218  30.690   6.156
 4869POPC   C2B63356  20.239  30.490   6.542
 4869POPC   C3B63357  20.418  30.635   6.924
 4869POPC   C4B63358  20.369  30.366   7.268
 4870POPC   NC363359  42.885  11.575   5.444
 4870POPC   PO463360  43.261  11.112   5.151
 4870POPC   GL163361  43.316  11.180   5.655
 4870POPC   GL263362  43.181  11.488   5.847
 4870POPC   C1A63363  43.324  11.154   6.167
 4870POPC   D2A63364  43.211  11.392   6.553
 4870POPC   C3A63365  43.281  11.234   6.996
 4870POPC   C4A63366  43.276  11.379   7.447
 4870POPC   C1B63367  42.849  11.488   6.155
 4870POPC   C2B63368  42.749  11.610   6.589
 4870POPC   C3B63369  42.972  11.666   6.971
 4870POPC   C4B63370  42.826  11.628   7.371
 4871POPC   NC363371  40.435  12.639   5.449
 4871POPC   PO463372  40.093  12.031   5.476
 4871POPC   GL163373  40.236  12.034   5.872
 4871POPC   GL263374  40.285  12.381   5.867
 4871POPC   C1A63375  40.025  12.051   6.265
 4871POPC   D2A63376  39.903  11.840   6.652
 4871POPC   C3A63377  40.073  11.875   7.063
 4871POPC   C4A63378  39.824  12.010   7.436
 4871POPC   C1B63379  40.310  12.482   6.282
 4871POPC   C2B63380  40.156  12.323   6.676
 4871POPC   C3B63381  40.183  12.365   7.111
 4871POPC   C4B63382  40.253  12.295   7.561
 4872POPC   NC363383  26.982  10.338   5.531
 4872POPC   PO463384  26.399  10.484   5.495
 4872POPC   GL163385  26.642  10.488   5.903
 4872POPC   GL263386  26.981  10.688   5.917
 4872POPC   C1A63387  26.787  10.322   6.311
 4872POPC   D2A63388  26.638  10.174   6.726
 4872POPC   C3A63389  26.616  10.470   7.092
 4872POPC   C4A63390  26.842  10.507   7.531
 4872POPC   C1B63391  27.081  10.751   6.369
 4872POPC   C2B63392  27.054  10.514   6.764
 4872POPC   C3B63393  27.010  10.806   7.108
 4872POPC   C4B63394  27.237  10.887   7.502
 4873POPC   NC363395  20.923  44.875   5.366
 4873POPC   PO463396  20.392  44.961   5.361
 4873POPC   GL163397  20.548  44.752   5.735
 4873POPC   GL263398  20.776  44.969   5.905
 4873POPC   C1A63399  20.455  44.695   6.200
 4873POPC   D2A63400  20.607  44.829   6.631
 4873POPC   C3A63401  20.361  44.785   7.033
 4873POPC   C4A63402  20.428  44.977   7.440
 4873POPC   C1B63403  20.977  44.710   6.264
 4873POPC   C2B63404  21.055  44.591   6.727
 4873POPC   C3B63405  20.863  44.751   7.131
 4873POPC   C4B63406  20.977  44.982   7.496
 4874POPC   NC363407   8.180  40.259   5.280
 4874POPC   PO463408   8.342  39.761   5.519
 4874POPC   GL163409   8.176  40.020   5.809
 4874POPC   GL263410   8.460  40.174   5.878
 4874POPC   C1A63411   8.126  39.972   6.254
 4874POPC   D2A63412   7.854  39.982   6.616
 4874POPC   C3A63413   8.116  40.029   6.995
 4874POPC   C4A63414   8.139  40.088   7.468
 4874POPC   C1B63415   8.529  40.276   6.309
 4874POPC   C2B63416   8.476  40.282   6.740
 4874POPC   C3B63417   8.531  40.258   7.190
 4874POPC   C4B63418   8.594  40.235   7.657
 4875POPC   NC363419  26.999  19.264   5.480
 4875POPC   PO463420  26.849  18.632   5.425
 4875POPC   GL163421  26.842  18.897   5.828
 4875POPC   GL263422  26.873  19.255   5.961
 4875POPC   C1A63423  27.088  18.879   6.228
 4875POPC   D2A63424  27.149  18.829   6.669
 4875POPC   C3A63425  26.819  18.765   6.976
 4875POPC   C4A63426  26.991  18.945   7.344
 4875POPC   C1B63427  26.596  19.278   6.300
 4875POPC   C2B63428  26.610  19.484   6.693
 4875POPC   C3B63429  26.708  19.262   7.071
 4875POPC   C4B63430  26.748  19.354   7.531
 4876POPC   NC363431  31.545   5.421   5.354
 4876POPC   PO463432  31.600   4.836   5.218
 4876POPC   GL163433  31.673   5.038   5.699
 4876POPC   GL263434  31.557   5.333   5.860
 4876POPC   C1A63435  31.699   5.002   6.200
 4876POPC   D2A63436  31.487   5.138   6.585
 4876POPC   C3A63437  31.634   4.988   6.975
 4876POPC   C4A63438  31.700   5.207   7.373
 4876POPC   C1B63439  31.199   5.198   6.163
 4876POPC   C2B63440  30.979   5.023   6.506
 4876POPC   C3B63441  31.099   5.014   6.924
 4876POPC   C4B63442  31.269   4.868   7.304
 4877POPC   NC363443  44.299  24.306   5.564
 4877POPC   PO463444  43.992  24.877   5.688
 4877POPC   GL163445  43.816  24.535   5.955
 4877POPC   GL263446  43.982  24.220   5.959
 4877POPC   C1A63447  43.990  24.497   6.381
 4877POPC   D2A63448  44.301  24.529   6.702
 4877POPC   C3A63449  44.066  24.750   6.988
 4877POPC   C4A63450  43.698  24.576   7.174
 4877POPC   C1B63451  43.727  24.056   6.312
 4877POPC   C2B63452  43.743  24.202   6.721
 4877POPC   C3B63453  44.037  24.193   7.004
 4877POPC   C4B63454  44.158  24.388   7.342
 4878POPC   NC363455   7.509   6.873   5.346
 4878POPC   PO463456   6.966   6.485   5.192
 4878POPC   GL163457   7.109   6.728   5.636
 4878POPC   GL263458   7.473   6.687   5.803
 4878POPC   C1A63459   7.106   6.635   6.135
 4878POPC   D2A63460   7.442   6.601   6.453
 4878POPC   C3A63461   7.299   6.541   6.873
 4878POPC   C4A63462   7.212   6.419   7.324
 4878POPC   C1B63463   7.765   6.838   6.114
 4878POPC   C2B63464   7.829   6.956   6.541
 4878POPC   C3B63465   7.923   6.822   6.956
 4878POPC   C4B63466   7.649   6.632   7.206
 4879POPC   NC363467  33.987  34.417   5.490
 4879POPC   PO463468  33.573  34.946   5.309
 4879POPC   GL163469  33.612  34.709   5.700
 4879POPC   GL263470  33.926  34.866   5.814
 4879POPC   C1A63471  33.716  34.476   6.086
 4879POPC   D2A63472  33.792  34.526   6.543
 4879POPC   C3A63473  33.934  34.235   6.856
 4879POPC   C4A63474  33.942  34.368   7.304
 4879POPC   C1B63475  34.121  34.760   6.222
 4879POPC   C2B63476  34.318  34.496   6.550
 4879POPC   C3B63477  34.274  34.615   6.952
 4879POPC   C4B63478  33.962  34.861   7.081
 4880POPC   NC363479   1.711  26.250   5.386
 4880POPC   PO463480   2.042  25.637   5.498
 4880POPC   GL163481   2.000  26.015   5.732
 4880POPC   GL263482   1.677  25.905   5.763
 4880POPC   C1A63483   1.927  26.196   6.153
 4880POPC   D2A63484   2.093  26.079   6.583
 4880POPC   C3A63485   1.951  26.161   6.999
 4880POPC   C4A63486   2.302  26.275   7.252
 4880POPC   C1B63487   1.854  25.687   6.119
 4880POPC   C2B63488   1.764  25.709   6.523
 4880POPC   C3B63489   1.895  25.664   6.961
 4880POPC   C4B63490   1.678  25.802   7.344
 4881POPC   NC363491   6.695  44.152   5.566
 4881POPC   PO463492   6.346  44.699   5.290
 4881POPC   GL163493   6.568  44.700   5.713
 4881POPC   GL263494   6.329  44.454   5.835
 4881POPC   C1A63495   6.685  44.624   6.172
 4881POPC   D2A63496   6.725  44.435   6.559
 4881POPC   C3A63497   6.957  44.695   6.813
 4881POPC   C4A63498   6.963  44.585   7.222
 4881POPC   C1B63499   6.229  44.818   6.138
 4881POPC   C2B63500   6.462  44.943   6.534
 4881POPC   C3B63501   6.476  44.795   6.985
 4881POPC   C4B63502   6.538  44.715   7.456
 4882POPC   NC363503  34.276   8.553   5.465
 4882POPC   PO463504  34.510   9.160   5.333
 4882POPC   GL163505  34.469   8.988   5.751
 4882POPC   GL263506  34.317   9.327   5.790
 4882POPC   C1A63507  34.698   8.878   6.169
 4882POPC   D2A63508  34.914   9.035   6.574
 4882POPC   C3A63509  34.855   8.887   7.015
 4882POPC   C4A63510  34.758   9.086   7.410
 4882POPC   C1B63511  34.396   9.301   6.197
 4882POPC   C2B63512  34.379   9.052   6.557
 4882POPC   C3B63513  34.442   9.173   6.952
 4882POPC   C4B63514  34.242   9.122   7.307
 4883POPC   NC363515   6.934  38.289   5.452
 4883POPC   PO463516   6.508  38.840   5.238
 4883POPC   GL163517   6.473  38.489   5.682
 4883POPC   GL263518   6.425  38.138   5.647
 4883POPC   C1A63519   6.583  38.552   6.177
 4883POPC   D2A63520   6.844  38.807   6.490
 4883POPC   C3A63521   6.741  38.676   6.911
 4883POPC   C4A63522   6.419  38.489   7.144
 4883POPC   C1B63523   6.648  38.038   6.067
 4883POPC   C2B63524   6.731  38.191   6.499
 4883POPC   C3B63525   6.673  38.083   6.914
 4883POPC   C4B63526   6.905  38.315   7.212
 4884POPC   NC363527  42.911  41.356   5.458
 4884POPC   PO463528  43.219  42.005   5.511
 4884POPC   GL163529  43.185  41.619   5.838
 4884POPC   GL263530  43.074  41.236   5.920
 4884POPC   C1A63531  43.448  41.426   6.186
 4884POPC   D2A63532  43.513  41.344   6.624
 4884POPC   C3A63533  43.170  41.594   6.858
 4884POPC   C4A63534  43.230  41.905   7.176
 4884POPC   C1B63535  42.742  41.180   6.243
 4884POPC   C2B63536  42.628  41.423   6.635
 4884POPC   C3B63537  42.724  41.440   7.079
 4884POPC   C4B63538  42.821  41.477   7.545
 4885POPC   NC363539  24.592  13.854   5.406
 4885POPC   PO463540  24.025  13.432   5.397
 4885POPC   GL163541  24.230  13.668   5.748
 4885POPC   GL263542  24.598  13.558   5.844
 4885POPC   C1A63543  24.280  13.748   6.207
 4885POPC   D2A63544  24.490  13.754   6.620
 4885POPC   C3A63545  24.382  13.535   6.993
 4885POPC   C4A63546  24.308  13.302   7.397
 4885POPC   C1B63547  24.845  13.681   6.249
 4885POPC   C2B63548  24.977  13.938   6.639
 4885POPC   C3B63549  24.927  13.900   7.097
 4885POPC   C4B63550  24.673  13.651   7.404
 4886POPC   NC363551   2.494  23.858   5.414
 4886POPC   PO463552   1.881  23.697   5.365
 4886POPC   GL163553   2.125  23.520   5.659
 4886POPC   GL263554   2.134  23.827   5.787
 4886POPC   C1A63555   1.919  23.500   6.095
 4886POPC   D2A63556   1.813  23.778   6.458
 4886POPC   C3A63557   1.941  23.626   6.862
 4886POPC   C4A63558   1.761  23.557   7.277
 4886POPC   C1B63559   2.236  23.921   6.162
 4886POPC   C2B63560   2.303  24.055   6.537
 4886POPC   C3B63561   2.027  24.157   6.827
 4886POPC   C4B63562   1.995  24.003   7.198
 4887POPC   NC363563  38.201   2.613   5.596
 4887POPC   PO463564  38.653   3.034   5.488
 4887POPC   GL163565  38.672   2.747   5.844
 4887POPC   GL263566  38.632   2.371   5.886
 4887POPC   C1A63567  38.411   2.747   6.231
 4887POPC   D2A63568  38.158   2.635   6.597
 4887POPC   C3A63569  38.426   2.637   6.913
 4887POPC   C4A63570  38.517   2.833   7.274
 4887POPC   C1B63571  38.882   2.531   6.253
 4887POPC   C2B63572  38.829   2.818   6.607
 4887POPC   C3B63573  38.954   2.760   7.017
 4887POPC   C4B63574  38.798   2.407   7.187
 4888POPC   NC363575  13.401  27.789   5.385
 4888POPC   PO463576  13.823  27.376   5.437
 4888POPC   GL163577  13.724  27.356   5.875
 4888POPC   GL263578  13.554  27.644   5.859
 4888POPC   C1A63579  13.782  27.508   6.321
 4888POPC   D2A63580  13.966  27.705   6.697
 4888POPC   C3A63581  13.861  27.422   7.006
 4888POPC   C4A63582  13.463  27.313   7.173
 4888POPC   C1B63583  13.364  27.953   6.117
 4888POPC   C2B63584  13.409  28.002   6.552
 4888POPC   C3B63585  13.527  27.814   6.956
 4888POPC   C4B63586  13.363  27.775   7.364
 4889POPC   NC363587  31.701  15.958   5.144
 4889POPC   PO463588  31.157  16.296   5.533
 4889POPC   GL163589  31.481  16.166   5.848
 4889POPC   GL263590  31.734  15.905   5.679
 4889POPC   C1A63591  31.366  16.141   6.307
 4889POPC   D2A63592  31.054  16.176   6.677
 4889POPC   C3A63593  31.051  15.794   6.956
 4889POPC   C4A63594  31.434  15.879   7.182
 4889POPC   C1B63595  31.871  15.788   6.092
 4889POPC   C2B63596  31.925  16.045   6.471
 4889POPC   C3B63597  31.854  16.065   6.922
 4889POPC   C4B63598  31.887  15.645   7.185
 4890POPC   NC363599  35.698  30.557   5.468
 4890POPC   PO463600  36.296  30.768   5.379
 4890POPC   GL163601  36.100  30.710   5.782
 4890POPC   GL263602  35.792  30.912   5.853
 4890POPC   C1A63603  36.164  30.812   6.216
 4890POPC   D2A63604  35.905  30.807   6.609
 4890POPC   C3A63605  36.085  30.893   7.021
 4890POPC   C4A63606  36.058  30.908   7.457
 4890POPC   C1B63607  35.734  30.535   6.145
 4890POPC   C2B63608  35.803  30.294   6.512
 4890POPC   C3B63609  35.675  30.345   6.938
 4890POPC   C4B63610  35.884  30.471   7.289
 4891POPC   NC363611  34.604   7.953   5.410
 4891POPC   PO463612  34.796   8.566   5.511
 4891POPC   GL163613  34.734   8.294   5.836
 4891POPC   GL263614  34.395   8.218   5.825
 4891POPC   C1A63615  34.601   8.375   6.268
 4891POPC   D2A63616  34.619   8.620   6.635
 4891POPC   C3A63617  34.414   8.626   7.032
 4891POPC   C4A63618  34.690   8.452   7.333
 4891POPC   C1B63619  34.188   8.082   6.198
 4891POPC   C2B63620  34.337   8.125   6.628
 4891POPC   C3B63621  34.459   8.088   7.050
 4891POPC   C4B63622  34.254   7.859   7.365
 4892POPC   NC363623  11.012  27.021   5.507
 4892POPC   PO463624  11.290  26.413   5.469
 4892POPC   GL163625  11.652  26.538   5.713
 4892POPC   GL263626  11.411  26.807   5.793
 4892POPC   C1A63627  11.733  26.616   6.156
 4892POPC   D2A63628  11.418  26.616   6.486
 4892POPC   C3A63629  11.466  26.809   6.878
 4892POPC   C4A63630  11.269  26.784   7.301
 4892POPC   C1B63631  11.400  27.029   6.162
 4892POPC   C2B63632  11.175  27.113   6.530
 4892POPC   C3B63633  11.122  27.173   6.971
 4892POPC   C4B63634  11.493  27.220   7.221
 4893POPC   NC363635  25.817  37.984   5.359
 4893POPC   PO463636  26.062  38.592   5.365
 4893POPC   GL163637  26.197  38.635   5.773
 4893POPC   GL263638  26.315  38.278   5.799
 4893POPC   C1A63639  26.179  38.562   6.230
 4893POPC   D2A63640  25.902  38.739   6.556
 4893POPC   C3A63641  25.961  38.526   6.946
 4893POPC   C4A63642  26.089  38.578   7.381
 4893POPC   C1B63643  25.861  38.260   5.968
 4893POPC   C2B63644  25.706  38.222   6.413
 4893POPC   C3B63645  25.636  38.080   6.851
 4893POPC   C4B63646  25.669  38.261   7.269
 4894POPC   NC363647  31.972  22.429   5.540
 4894POPC   PO463648  32.623  22.190   5.448
 4894POPC   GL163649  32.463  22.069   5.889
 4894POPC   GL263650  32.113  22.154   5.924
 4894POPC   C1A63651  32.359  22.001   6.349
 4894POPC   D2A63652  32.450  22.216   6.753
 4894POPC   C3A63653  32.350  22.055   7.161
 4894POPC   C4A63654  32.598  22.001   7.558
 4894POPC   C1B63655  31.874  22.223   6.287
 4894POPC   C2B63656  31.950  22.123   6.673
 4894POPC   C3B63657  31.742  21.997   6.993
 4894POPC   C4B63658  31.880  22.129   7.381
 4895POPC   NC363659  15.237   9.343   5.514
 4895POPC   PO463660  15.158   8.700   5.328
 4895POPC   GL163661  15.076   8.902   5.750
 4895POPC   GL263662  15.389   8.834   5.947
 4895POPC   C1A63663  14.957   8.920   6.218
 4895POPC   D2A63664  15.222   8.828   6.570
 4895POPC   C3A63665  15.107   8.987   7.000
 4895POPC   C4A63666  14.983   8.783   7.400
 4895POPC   C1B63667  15.594   9.065   6.293
 4895POPC   C2B63668  15.514   9.205   6.720
 4895POPC   C3B63669  15.636   9.181   7.120
 4895POPC   C4B63670  15.666   9.497   7.395
 4896POPC   NC363671   9.296   6.766   5.537
 4896POPC   PO463672   8.745   6.523   5.412
 4896POPC   GL163673   8.850   6.689   5.804
 4896POPC   GL263674   8.830   6.372   5.930
 4896POPC   C1A63675   9.096   6.694   6.202
 4896POPC   D2A63676   9.153   6.506   6.602
 4896POPC   C3A63677   8.925   6.719   6.912
 4896POPC   C4A63678   8.974   6.929   7.296
 4896POPC   C1B63679   8.624   6.478   6.301
 4896POPC   C2B63680   8.685   6.301   6.699
 4896POPC   C3B63681   8.563   6.164   7.098
 4896POPC   C4B63682   8.629   6.537   7.339
 4897POPC   NC363683  36.465  44.616   5.523
 4897POPC   PO463684  35.845  44.623   5.371
 4897POPC   GL163685  36.039  44.520   5.788
 4897POPC   GL263686  36.248  44.192   5.801
 4897POPC   C1A63687  36.060  44.739   6.208
 4897POPC   D2A63688  36.207  44.981   6.563
 4897POPC   C3A63689  36.048  44.798   6.931
 4897POPC   C4A63690  36.334  44.641   7.225
 4897POPC   C1B63691  36.008  44.222   6.188
 4897POPC   C2B63692  36.054  44.364   6.641
 4897POPC   C3B63693  35.971  44.280   7.106
 4897POPC   C4B63694  36.167  44.314   7.563
 4898POPC   NC363695  19.374  16.553   5.170
 4898POPC   PO463696  19.098  17.094   5.497
 4898POPC   GL163697  18.899  16.780   5.758
 4898POPC   GL263698  19.184  16.545   5.667
 4898POPC   C1A63699  18.712  16.793   6.208
 4898POPC   D2A63700  18.805  17.028   6.614
 4898POPC   C3A63701  19.026  16.926   7.015
 4898POPC   C4A63702  19.364  16.779   7.306
 4898POPC   C1B63703  19.116  16.514   6.101
 4898POPC   C2B63704  19.093  16.451   6.513
 4898POPC   C3B63705  19.236  16.481   6.905
 4898POPC   C4B63706  18.997  16.406   7.244
 4899POPC   NC363707  20.148  10.157   5.301
 4899POPC   PO463708  19.814  10.734   5.465
 4899POPC   GL163709  19.853  10.625   5.886
 4899POPC   GL263710  20.121  10.384   5.834
 4899POPC   C1A63711  19.813  10.770   6.323
 4899POPC   D2A63712  19.869  10.539   6.728
 4899POPC   C3A63713  19.858  10.664   7.152
 4899POPC   C4A63714  19.586  10.620   7.486
 4899POPC   C1B63715  20.161  10.381   6.308
 4899POPC   C2B63716  20.220  10.169   6.730
 4899POPC   C3B63717  20.262  10.297   7.170
 4899POPC   C4B63718  20.083  10.440   7.574
 4900POPC   NC363719  19.261  20.062   5.450
 4900POPC   PO463720  18.568  19.829   5.454
 4900POPC   GL163721  18.725  19.815   5.875
 4900POPC   GL263722  19.076  19.883   5.881
 4900POPC   C1A63723  18.881  19.733   6.320
 4900POPC   D2A63724  19.169  19.832   6.653
 4900POPC   C3A63725  18.987  19.673   7.020
 4900POPC   C4A63726  18.657  19.862   7.303
 4900POPC   C1B63727  19.107  20.192   6.199
 4900POPC   C2B63728  19.118  20.340   6.619
 4900POPC   C3B63729  19.325  20.190   6.983
 4900POPC   C4B63730  19.152  20.040   7.335
 4901POPC   NC363731   9.271   5.243   5.402
 4901POPC   PO463732   8.701   4.901   5.494
 4901POPC   GL163733   9.082   5.025   5.812
 4901POPC   GL263734   9.213   5.392   5.936
 4901POPC   C1A63735   9.295   4.989   6.219
 4901POPC   D2A63736   8.993   4.919   6.537
 4901POPC   C3A63737   9.005   4.859   6.973
 4901POPC   C4A63738   8.654   4.831   7.261
 4901POPC   C1B63739   8.937   5.420   6.348
 4901POPC   C2B63740   8.799   5.321   6.804
 4901POPC   C3B63741   8.920   5.286   7.243
 4901POPC   C4B63742   9.325   5.177   7.454
 4902POPC   NC363743  10.424  27.542   5.144
 4902POPC   PO463744  10.658  27.236   5.717
 4902POPC   GL163745  10.335  27.480   5.912
 4902POPC   GL263746  10.376  27.828   5.845
 4902POPC   C1A63747  10.202  27.724   6.303
 4902POPC   D2A63748  10.353  27.712   6.706
 4902POPC   C3A63749  10.365  27.281   6.878
 4902POPC   C4A63750  10.665  27.138   7.196
 4902POPC   C1B63751  10.697  27.699   6.219
 4902POPC   C2B63752  10.776  27.456   6.587
 4902POPC   C3B63753  10.793  27.614   7.000
 4902POPC   C4B63754  11.121  27.599   7.279
 4903POPC   NC363755   1.189   0.314   5.218
 4903POPC   PO463756   1.367   0.915   5.355
 4903POPC   GL163757   1.345   0.672   5.762
 4903POPC   GL263758   1.068   0.437   5.739
 4903POPC   C1A63759   1.225   0.573   6.208
 4903POPC   D2A63760   1.403   0.614   6.629
 4903POPC   C3A63761   1.219   0.516   7.020
 4903POPC   C4A63762   1.511   0.385   7.304
 4903POPC   C1B63763   0.881   0.212   6.106
 4903POPC   C2B63764   1.014   0.160   6.522
 4903POPC   C3B63765   0.869   0.128   6.932
 4903POPC   C4B63766   1.070   0.084   7.308
 4904POPC   NC363767  32.281  21.008   5.189
 4904POPC   PO463768  32.448  20.316   5.449
 4904POPC   GL163769  32.286  20.490   5.835
 4904POPC   GL263770  32.041  20.271   5.936
 4904POPC   C1A63771  32.255  20.592   6.297
 4904POPC   D2A63772  32.433  20.450   6.703
 4904POPC   C3A63773  32.296  20.650   7.066
 4904POPC   C4A63774  32.492  20.748   7.430
 4904POPC   C1B63775  31.797  20.239   6.268
 4904POPC   C2B63776  31.958  20.260   6.669
 4904POPC   C3B63777  31.864  20.394   7.058
 4904POPC   C4B63778  31.813  20.717   7.329
 4905POPC   NC363779   5.655  12.296   5.216
 4905POPC   PO463780   5.952  11.866   5.617
 4905POPC   GL163781   5.853  11.858   5.982
 4905POPC   GL263782   5.608  11.632   6.043
 4905POPC   C1A63783   6.117  11.962   6.285
 4905POPC   D2A63784   6.114  12.012   6.699
 4905POPC   C3A63785   6.100  12.418   6.880
 4905POPC   C4A63786   5.818  12.426   7.229
 4905POPC   C1B63787   5.346  11.778   6.300
 4905POPC   C2B63788   5.463  11.855   6.695
 4905POPC   C3B63789   5.743  11.920   7.064
 4905POPC   C4B63790   5.594  11.975   7.484
 4906POPC   NC363791  44.325  13.609   5.334
 4906POPC   PO463792  44.808  14.094   5.445
 4906POPC   GL163793  44.842  13.814   5.809
 4906POPC   GL263794  44.581  13.600   5.792
 4906POPC   C1A63795  44.842  13.615   6.238
 4906POPC   D2A63796  44.532  13.497   6.569
 4906POPC   C3A63797  44.700  13.513   6.990
 4906POPC   C4A63798  44.546  13.507   7.420
 4906POPC   C1B63799  44.403  13.883   6.137
 4906POPC   C2B63800  44.218  13.901   6.570
 4906POPC   C3B63801  44.223  13.694   6.983
 4906POPC   C4B63802  44.125  13.832   7.425
 4907POPC   NC363803   0.164  15.200   5.439
 4907POPC   PO463804   0.591  14.716   5.426
 4907POPC   GL163805   0.540  15.009   5.841
 4907POPC   GL263806   0.285  15.294   5.930
 4907POPC   C1A63807   0.716  15.196   6.263
 4907POPC   D2A63808   0.553  15.464   6.620
 4907POPC   C3A63809   0.599  15.330   7.066
 4907POPC   C4A63810   0.689  15.088   7.459
 4907POPC   C1B63811   0.225  15.016   6.284
 4907POPC   C2B63812   0.386  14.970   6.697
 4907POPC   C3B63813   0.231  15.001   7.084
 4907POPC   C4B63814   0.156  15.391   7.330
 4908POPC   NC363815  24.077  41.296   5.674
 4908POPC   PO463816  24.543  40.982   5.358
 4908POPC   GL163817  24.477  40.841   5.756
 4908POPC   GL263818  24.741  40.635   5.884
 4908POPC   C1A63819  24.352  40.744   6.170
 4908POPC   D2A63820  24.236  40.970   6.528
 4908POPC   C3A63821  24.309  40.779   6.891
 4908POPC   C4A63822  24.379  40.880   7.277
 4908POPC   C1B63823  24.817  40.404   6.207
 4908POPC   C2B63824  24.656  40.580   6.559
 4908POPC   C3B63825  24.720  40.454   6.949
 4908POPC   C4B63826  24.965  40.521   7.289
 4909POPC   NC363827   2.665   3.437   5.349
 4909POPC   PO463828   3.220   3.325   5.637
 4909POPC   GL163829   2.908   3.485   5.884
 4909POPC   GL263830   2.693   3.741   5.761
 4909POPC   C1A63831   2.819   3.434   6.327
 4909POPC   D2A63832   2.547   3.630   6.629
 4909POPC   C3A63833   2.498   3.485   7.046
 4909POPC   C4A63834   2.763   3.380   7.408
 4909POPC   C1B63835   2.699   3.914   6.164
 4909POPC   C2B63836   2.602   4.143   6.528
 4909POPC   C3B63837   2.482   4.035   6.940
 4909POPC   C4B63838   2.680   3.874   7.320
 4910POPC   NC363839  21.765  11.697   5.321
 4910POPC   PO463840  21.288  11.253   5.425
 4910POPC   GL163841  21.240  11.454   5.833
 4910POPC   GL263842  20.971  11.219   5.909
 4910POPC   C1A63843  21.489  11.597   6.186
 4910POPC   D2A63844  21.699  11.355   6.506
 4910POPC   C3A63845  21.737  11.488   6.932
 4910POPC   C4A63846  21.434  11.294   7.195
 4910POPC   C1B63847  21.271  11.136   6.256
 4910POPC   C2B63848  21.252  11.174   6.709
 4910POPC   C3B63849  21.092  10.944   7.068
 4910POPC   C4B63850  21.250  10.914   7.518
 4911POPC   NC363851  42.675  43.782   5.473
 4911POPC   PO463852  41.951  43.987   5.669
 4911POPC   GL163853  42.263  43.777   5.902
 4911POPC   GL263854  42.499  43.523   5.888
 4911POPC   C1A63855  42.246  43.823   6.319
 4911POPC   D2A63856  42.445  43.947   6.679
 4911POPC   C3A63857  42.173  43.951   7.033
 4911POPC   C4A63858  42.087  43.911   7.501
 4911POPC   C1B63859  42.492  43.369   6.345
 4911POPC   C2B63860  42.179  43.456   6.690
 4911POPC   C3B63861  42.015  43.484   7.118
 4911POPC   C4B63862  42.127  43.380   7.582
 4912POPC   NC363863  44.952   5.412   5.470
 4912POPC   PO463864   0.661   5.237   5.416
 4912POPC   GL163865   0.646   5.254   5.855
 4912POPC   GL263866   0.300   5.286   5.854
 4912POPC   C1A63867   0.614   5.080   6.280
 4912POPC   D2A63868   0.385   4.791   6.564
 4912POPC   C3A63869   0.359   4.889   7.020
 4912POPC   C4A63870   0.732   5.086   7.199
 4912POPC   C1B63871   0.238   5.448   6.278
 4912POPC   C2B63872   0.374   5.295   6.696
 4912POPC   C3B63873   0.386   5.451   7.116
 4912POPC   C4B63874   0.399   5.584   7.532
 4913POPC   NC363875  10.631   4.733   5.138
 4913POPC   PO463876  10.531   5.251   5.464
 4913POPC   GL163877  10.470   5.074   5.832
 4913POPC   GL263878  10.154   5.228   5.857
 4913POPC   C1A63879  10.687   4.887   6.213
 4913POPC   D2A63880  11.006   4.761   6.543
 4913POPC   C3A63881  10.855   4.893   6.943
 4913POPC   C4A63882  10.579   4.971   7.288
 4913POPC   C1B63883  10.231   5.098   6.281
 4913POPC   C2B63884  10.423   5.071   6.677
 4913POPC   C3B63885  10.205   5.189   7.054
 4913POPC   C4B63886  10.225   5.275   7.507
 4914POPC   NC363887  38.746  27.298   5.451
 4914POPC   PO463888  38.472  26.786   5.124
 4914POPC   GL163889  38.588  26.784   5.614
 4914POPC   GL263890  38.302  26.782   5.856
 4914POPC   C1A63891  38.771  26.685   6.064
 4914POPC   D2A63892  38.965  26.725   6.477
 4914POPC   C3A63893  38.789  26.569   6.883
 4914POPC   C4A63894  38.660  26.818   7.261
 4914POPC   C1B63895  38.329  26.557   6.260
 4914POPC   C2B63896  38.283  26.527   6.687
 4914POPC   C3B63897  37.941  26.533   6.966
 4914POPC   C4B63898  37.916  26.898   7.248
 4915POPC   NC363899   6.327  10.123   5.366
 4915POPC   PO463900   5.933   9.529   5.337
 4915POPC   GL163901   5.718   9.659   5.692
 4915POPC   GL263902   5.972   9.911   5.709
 4915POPC   C1A63903   5.693   9.740   6.145
 4915POPC   D2A63904   5.916   9.607   6.551
 4915POPC   C3A63905   5.736   9.590   6.971
 4915POPC   C4A63906   5.641   9.957   7.215
 4915POPC   C1B63907   6.137  10.000   6.116
 4915POPC   C2B63908   6.355   9.931   6.476
 4915POPC   C3B63909   6.189   9.941   6.859
 4915POPC   C4B63910   6.118   9.820   7.255
 4916POPC   NC363911   3.342  15.896   5.397
 4916POPC   PO463912   3.877  16.267   5.398
 4916POPC   GL163913   3.737  16.016   5.780
 4916POPC   GL263914   3.437  15.832   5.875
 4916POPC   C1A63915   3.725  15.917   6.257
 4916POPC   D2A63916   3.710  16.202   6.595
 4916POPC   C3A63917   3.760  16.018   7.003
 4916POPC   C4A63918   3.678  16.315   7.346
 4916POPC   C1B63919   3.222  15.823   6.274
 4916POPC   C2B63920   3.347  15.845   6.680
 4916POPC   C3B63921   3.296  15.811   7.093
 4916POPC   C4B63922   3.350  15.969   7.473
 4917POPC   NC363923  24.739   3.188   5.347
 4917POPC   PO463924  24.714   2.543   5.339
 4917POPC   GL163925  24.489   2.638   5.733
 4917POPC   GL263926  24.652   2.937   5.781
 4917POPC   C1A63927  24.427   2.821   6.214
 4917POPC   D2A63928  24.634   2.847   6.632
 4917POPC   C3A63929  24.431   2.716   7.042
 4917POPC   C4A63930  24.048   2.710   7.332
 4917POPC   C1B63931  24.883   2.619   6.085
 4917POPC   C2B63932  24.797   2.368   6.498
 4917POPC   C3B63933  24.877   2.477   6.911
 4917POPC   C4B63934  24.823   2.508   7.350
 4918POPC   NC363935  28.854  25.553   5.493
 4918POPC   PO463936  29.167  26.209   5.413
 4918POPC   GL163937  29.190  26.034   5.826
 4918POPC   GL263938  29.254  25.672   5.800
 4918POPC   C1A63939  29.097  26.154   6.262
 4918POPC   D2A63940  29.095  26.343   6.667
 4918POPC   C3A63941  29.285  26.120   7.001
 4918POPC   C4A63942  28.941  25.965   7.228
 4918POPC   C1B63943  29.076  25.632   6.227
 4918POPC   C2B63944  29.116  25.794   6.663
 4918POPC   C3B63945  29.201  25.555   7.057
 4918POPC   C4B63946  29.001  25.516   7.480
 4919POPC   NC363947  36.072  13.523   5.339
 4919POPC   PO463948  36.081  14.103   5.630
 4919POPC   GL163949  36.054  13.665   5.827
 4919POPC   GL263950  36.370  13.566   5.865
 4919POPC   C1A63951  36.026  13.376   6.215
 4919POPC   D2A63952  36.101  13.466   6.641
 4919POPC   C3A63953  35.922  13.837   6.755
 4919POPC   C4A63954  35.853  13.787   7.166
 4919POPC   C1B63955  36.257  13.837   6.262
 4919POPC   C2B63956  36.442  13.908   6.668
 4919POPC   C3B63957  36.383  13.823   7.103
 4919POPC   C4B63958  36.617  13.677   7.448
 4920POPC   NC363959  43.405  42.451   5.474
 4920POPC   PO463960  42.753  42.630   5.436
 4920POPC   GL163961  42.946  42.438   5.757
 4920POPC   GL263962  43.130  42.738   5.812
 4920POPC   C1A63963  42.870  42.178   6.130
 4920POPC   D2A63964  42.954  41.968   6.545
 4920POPC   C3A63965  42.919  42.220   6.910
 4920POPC   C4A63966  43.017  42.387   7.298
 4920POPC   C1B63967  43.260  42.529   6.196
 4920POPC   C2B63968  43.190  42.555   6.643
 4920POPC   C3B63969  43.436  42.503   7.042
 4920POPC   C4B63970  43.439  42.522   7.545
 4921POPC   NC363971  14.938   3.483   5.426
 4921POPC   PO463972  15.678   3.367   5.527
 4921POPC   GL163973  15.350   3.609   5.729
 4921POPC   GL263974  15.213   3.289   5.800
 4921POPC   C1A63975  15.027   3.691   6.100
 4921POPC   D2A63976  14.842   3.719   6.555
 4921POPC   C3A63977  15.115   3.714   6.950
 4921POPC   C4A63978  14.955   3.767   7.387
 4921POPC   C1B63979  15.428   3.326   6.177
 4921POPC   C2B63980  15.278   3.330   6.583
 4921POPC   C3B63981  15.503   3.396   6.939
 4921POPC   C4B63982  15.355   3.458   7.337
 4922POPC   NC363983  32.081  23.835   5.459
 4922POPC   PO463984  32.734  23.735   5.377
 4922POPC   GL163985  32.469  23.729   5.769
 4922POPC   GL263986  32.239  23.412   5.780
 4922POPC   C1A63987  32.465  23.940   6.190
 4922POPC   D2A63988  32.410  24.126   6.611
 4922POPC   C3A63989  32.200  23.893   6.941
 4922POPC   C4A63990  32.521  23.662   7.139
 4922POPC   C1B63991  32.401  23.444   6.208
 4922POPC   C2B63992  32.363  23.457   6.656
 4922POPC   C3B63993  32.167  23.323   7.039
 4922POPC   C4B63994  32.286  23.361   7.485
 4923POPC   NC363995  33.590  30.898   5.637
 4923POPC   PO463996  33.671  31.606   5.472
 4923POPC   GL163997  33.676  31.380   5.866
 4923POPC   GL263998  33.958  31.194   5.882
 4923POPC   C1A63999  33.676  31.151   6.295
 4923POPC   D2A64000  33.495  31.323   6.658
 4923POPC   C3A64001  33.738  31.333   7.018
 4923POPC   C4A64002  33.759  31.530   7.411
 4923POPC   C1B64003  34.058  31.495   6.250
 4923POPC   C2B64004  34.093  31.553   6.713
 4923POPC   C3B64005  34.006  31.834   7.077
 4923POPC   C4B64006  34.141  31.822   7.537
 4924POPC   NC364007  11.774  34.011   5.122
 4924POPC   PO464008  11.223  33.811   5.446
 4924POPC   GL164009  11.207  33.668   5.837
 4924POPC   GL264010  11.573  33.606   5.842
 4924POPC   C1A64011  10.955  33.658   6.235
 4924POPC   D2A64012  10.964  33.954   6.584
 4924POPC   C3A64013  10.968  33.728   6.975
 4924POPC   C4A64014  10.976  33.920   7.387
 4924POPC   C1B64015  11.441  33.903   6.226
 4924POPC   C2B64016  11.637  34.038   6.619
 4924POPC   C3B64017  11.372  34.069   6.973
 4924POPC   C4B64018  11.426  33.746   7.256
 4925POPC   NC364019  38.445  25.407   5.601
 4925POPC   PO464020  38.203  24.790   5.422
 4925POPC   GL164021  38.476  24.902   5.729
 4925POPC   GL264022  38.160  25.041   5.863
 4925POPC   C1A64023  38.643  24.966   6.165
 4925POPC   D2A64024  38.670  25.373   6.438
 4925POPC   C3A64025  38.658  25.300   6.888
 4925POPC   C4A64026  38.680  25.255   7.326
 4925POPC   C1B64027  38.213  25.230   6.231
 4925POPC   C2B64028  38.269  25.076   6.621
 4925POPC   C3B64029  38.155  25.194   7.023
 4925POPC   C4B64030  38.181  25.133   7.456
 4926POPC   NC364031   0.621  31.064   5.310
 4926POPC   PO464032   0.281  30.540   5.518
 4926POPC   GL164033   0.474  30.717   5.891
 4926POPC   GL264034   0.671  31.034   5.826
 4926POPC   C1A64035   0.368  30.654   6.359
 4926POPC   D2A64036   0.520  30.420   6.744
 4926POPC   C3A64037   0.425  30.653   7.099
 4926POPC   C4A64038   0.158  30.886   7.364
 4926POPC   C1B64039   0.808  30.904   6.247
 4926POPC   C2B64040   0.723  30.866   6.688
 4926POPC   C3B64041   0.688  31.123   7.025
 4926POPC   C4B64042   0.799  31.348   7.359
 4927POPC   NC364043  17.405  11.621   5.237
 4927POPC   PO464044  17.748  11.060   5.500
 4927POPC   GL164045  17.593  11.310   5.881
 4927POPC   GL264046  17.283  11.284   6.030
 4927POPC   C1A64047  17.755  11.441   6.296
 4927POPC   D2A64048  17.852  11.576   6.696
 4927POPC   C3A64049  17.519  11.466   6.926
 4927POPC   C4A64050  17.448  11.532   7.292
 4927POPC   C1B64051  17.500  11.011   6.322
 4927POPC   C2B64052  17.662  11.023   6.735
 4927POPC   C3B64053  17.434  10.967   7.137
 4927POPC   C4B64054  17.137  11.177   7.430
 4928POPC   NC364055   3.900  19.809   5.280
 4928POPC   PO464056   3.274  19.463   5.285
 4928POPC   GL164057   3.530  19.655   5.641
 4928POPC   GL264058   3.502  20.018   5.700
 4928POPC   C1A64059   3.587  19.696   6.112
 4928POPC   D2A64060   3.601  19.479   6.539
 4928POPC   C3A64061   3.591  19.673   6.964
 4928POPC   C4A64062   3.306  19.627   7.319
 4928POPC   C1B64063   3.302  20.151   6.106
 4928POPC   C2B64064   3.318  19.940   6.514
 4928POPC   C3B64065   3.167  19.967   6.925
 4928POPC   C4B64066   3.291  20.147   7.306
 4929POPC   NC364067  38.821  35.648   5.586
 4929POPC   PO464068  38.201  35.553   5.421
 4929POPC   GL164069  38.394  35.418   5.826
 4929POPC   GL264070  38.598  35.101   5.878
 4929POPC   C1A64071  38.512  35.631   6.216
 4929POPC   D2A64072  38.623  35.590   6.648
 4929POPC   C3A64073  38.372  35.375   6.964
 4929POPC   C4A64074  38.553  35.435   7.358
 4929POPC   C1B64075  38.649  35.145   6.349
 4929POPC   C2B64076  38.751  35.076   6.795
 4929POPC   C3B64077  38.753  34.997   7.246
 4929POPC   C4B64078  38.675  35.072   7.725
 4930POPC   NC364079  36.823  22.561   5.424
 4930POPC   PO464080  36.797  23.193   5.566
 4930POPC   GL164081  36.870  23.134   5.941
 4930POPC   GL264082  36.983  22.802   5.861
 4930POPC   C1A64083  37.185  23.085   6.223
 4930POPC   D2A64084  37.159  22.893   6.607
 4930POPC   C3A64085  36.793  23.004   6.835
 4930POPC   C4A64086  36.838  23.105   7.253
 4930POPC   C1B64087  36.789  22.695   6.230
 4930POPC   C2B64088  36.808  22.321   6.452
 4930POPC   C3B64089  36.841  22.481   6.808
 4930POPC   C4B64090  36.841  22.580   7.202
 4931POPC   NC364091  17.678  32.133   5.313
 4931POPC   PO464092  17.168  32.330   5.420
 4931POPC   GL164093  17.405  32.115   5.767
 4931POPC   GL264094  17.629  32.372   5.811
 4931POPC   C1A64095  17.645  31.984   6.177
 4931POPC   D2A64096  17.446  31.999   6.606
 4931POPC   C3A64097  17.599  31.930   7.031
 4931POPC   C4A64098  17.530  32.095   7.456
 4931POPC   C1B64099  17.363  32.416   6.193
 4931POPC   C2B64100  17.383  32.504   6.639
 4931POPC   C3B64101  17.297  32.367   7.072
 4931POPC   C4B64102  17.205  32.638   7.431
 4932POPC   NC364103   4.956  24.732   5.566
 4932POPC   PO464104   5.393  24.317   5.346
 4932POPC   GL164105   5.207  24.238   5.754
 4932POPC   GL264106   4.864  24.273   5.786
 4932POPC   C1A64107   5.321  24.340   6.165
 4932POPC   D2A64108   5.318  24.544   6.557
 4932POPC   C3A64109   5.317  24.301   6.921
 4932POPC   C4A64110   5.126  24.328   7.335
 4932POPC   C1B64111   4.821  24.526   6.177
 4932POPC   C2B64112   4.871  24.810   6.538
 4932POPC   C3B64113   4.969  24.705   6.941
 4932POPC   C4B64114   4.702  24.597   7.299
 4933POPC   NC364115  43.225  28.746   5.354
 4933POPC   PO464116  42.962  29.319   5.334
 4933POPC   GL164117  43.049  29.081   5.715
 4933POPC   GL264118  42.744  28.958   5.806
 4933POPC   C1A64119  43.095  29.134   6.168
 4933POPC   D2A64120  43.079  29.420   6.500
 4933POPC   C3A64121  43.279  29.277   6.855
 4933POPC   C4A64122  43.115  29.341   7.238
 4933POPC   C1B64123  42.733  28.780   6.201
 4933POPC   C2B64124  42.556  28.756   6.606
 4933POPC   C3B64125  42.749  28.643   6.973
 4933POPC   C4B64126  42.890  28.877   7.298
 4934POPC   NC364127  21.925  42.187   5.321
 4934POPC   PO464128  21.496  41.824   5.592
 4934POPC   GL164129  21.495  42.220   5.787
 4934POPC   GL264130  21.138  42.329   5.790
 4934POPC   C1A64131  21.522  42.455   6.189
 4934POPC   D2A64132  21.407  42.247   6.599
 4934POPC   C3A64133  21.383  42.400   7.025
 4934POPC   C4A64134  21.710  42.347   7.321
 4934POPC   C1B64135  21.112  42.126   6.188
 4934POPC   C2B64136  20.898  42.147   6.591
 4934POPC   C3B64137  20.967  41.964   6.978
 4934POPC   C4B64138  21.136  42.036   7.394
 4935POPC   NC364139  44.371  20.970   5.546
 4935POPC   PO464140  44.953  20.668   5.460
 4935POPC   GL164141  44.684  20.659   5.850
 4935POPC   GL264142  44.584  20.326   5.994
 4935POPC   C1A64143  44.569  20.734   6.305
 4935POPC   D2A64144  44.421  20.519   6.689
 4935POPC   C3A64145  44.718  20.657   6.963
 4935POPC   C4A64146  44.740  20.810   7.388
 4935POPC   C1B64147   0.007  20.439   6.202
 4935POPC   C2B64148   0.289  20.378   6.558
 4935POPC   C3B64149   0.167  20.212   6.946
 4935POPC   C4B64150  44.792  20.204   7.216
 4936POPC   NC364151  42.508  33.507   5.405
 4936POPC   PO464152  42.316  34.087   5.484
 4936POPC   GL164153  42.404  33.820   5.809
 4936POPC   GL264154  42.124  33.603   5.744
 4936POPC   C1A64155  42.384  33.583   6.201
 4936POPC   D2A64156  42.578  33.689   6.593
 4936POPC   C3A64157  42.380  33.747   6.965
 4936POPC   C4A64158  42.434  33.849   7.374
 4936POPC   C1B64159  41.969  33.877   6.080
 4936POPC   C2B64160  42.067  33.826   6.528
 4936POPC   C3B64161  41.874  33.701   6.916
 4936POPC   C4B64162  42.018  33.573   7.336
 4937POPC   NC364163  13.286   3.987   5.354
 4937POPC   PO464164  13.992   3.976   5.413
 4937POPC   GL164165  13.862   4.166   5.880
 4937POPC   GL264166  13.519   4.178   5.791
 4937POPC   C1A64167  13.777   4.155   6.344
 4937POPC   D2A64168  13.879   4.115   6.789
 4937POPC   C3A64169  13.761   4.330   7.156
 4937POPC   C4A64170  13.947   4.480   7.563
 4937POPC   C1B64171  13.338   4.354   6.154
 4937POPC   C2B64172  13.375   4.355   6.607
 4937POPC   C3B64173  13.283   4.456   7.032
 4937POPC   C4B64174  13.341   4.342   7.419
 4938POPC   NC364175  35.822  31.288   5.430
 4938POPC   PO464176  36.231  31.747   5.305
 4938POPC   GL164177  36.176  31.592   5.707
 4938POPC   GL264178  36.270  31.220   5.745
 4938POPC   C1A64179  36.026  31.654   6.109
 4938POPC   D2A64180  35.852  31.340   6.410
 4938POPC   C3A64181  35.992  31.402   6.846
 4938POPC   C4A64182  35.832  31.306   7.258
 4938POPC   C1B64183  36.362  31.283   6.204
 4938POPC   C2B64184  36.564  31.418   6.609
 4938POPC   C3B64185  36.486  31.516   7.063
 4938POPC   C4B64186  36.346  31.314   7.435
 4939POPC   NC364187  11.735   6.077   5.530
 4939POPC   PO464188  12.395   5.842   5.471
 4939POPC   GL164189  12.169   5.960   5.796
 4939POPC   GL264190  11.918   5.666   5.807
 4939POPC   C1A64191  12.185   5.833   6.210
 4939POPC   D2A64192  12.013   5.737   6.584
 4939POPC   C3A64193  12.206   5.905   6.916
 4939POPC   C4A64194  11.917   6.096   7.221
 4939POPC   C1B64195  11.781   5.449   6.210
 4939POPC   C2B64196  11.830   5.270   6.638
 4939POPC   C3B64197  11.788   5.507   7.017
 4939POPC   C4B64198  12.087   5.616   7.310
 4940POPC   NC364199  27.574  25.116   5.277
 4940POPC   PO464200  27.734  25.650   5.759
 4940POPC   GL164201  27.553  25.261   5.767
 4940POPC   GL264202  27.815  25.046   5.849
 4940POPC   C1A64203  27.347  25.130   6.135
 4940POPC   D2A64204  27.315  25.378   6.523
 4940POPC   C3A64205  27.412  25.183   6.902
 4940POPC   C4A64206  27.590  25.322   7.271
 4940POPC   C1B64207  27.830  25.280   6.261
 4940POPC   C2B64208  27.839  25.352   6.698
 4940POPC   C3B64209  27.914  25.025   7.006
 4940POPC   C4B64210  28.081  25.165   7.395
 4941POPC   NC364211  31.654   9.820   5.449
 4941POPC   PO464212  31.101   9.504   5.332
 4941POPC   GL164213  31.261   9.745   5.775
 4941POPC   GL264214  31.610   9.632   5.929
 4941POPC   C1A64215  31.451  10.071   6.128
 4941POPC   D2A64216  31.766  10.141   6.464
 4941POPC   C3A64217  31.561  10.040   6.883
 4941POPC   C4A64218  31.292  10.015   7.271
 4941POPC   C1B64219  31.642   9.642   6.359
 4941POPC   C2B64220  31.558   9.403   6.706
 4941POPC   C3B64221  31.437   9.557   7.057
 4941POPC   C4B64222  31.803   9.699   7.260
 4942POPC   NC364223  31.373   2.584   5.449
 4942POPC   PO464224  31.775   3.088   5.283
 4942POPC   GL164225  31.755   2.863   5.669
 4942POPC   GL264226  31.401   2.942   5.825
 4942POPC   C1A64227  31.797   2.800   6.101
 4942POPC   D2A64228  31.612   3.012   6.377
 4942POPC   C3A64229  31.674   2.973   6.806
 4942POPC   C4A64230  31.610   2.839   7.236
 4942POPC   C1B64231  31.147   2.817   6.183
 4942POPC   C2B64232  31.262   2.707   6.590
 4942POPC   C3B64233  31.175   2.895   6.958
 4942POPC   C4B64234  31.150   2.639   7.284
 4943POPC   NC364235  19.476  37.410   5.502
 4943POPC   PO464236  18.887  37.630   5.464
 4943POPC   GL164237  19.067  37.564   5.826
 4943POPC   GL264238  18.936  37.873   5.967
 4943POPC   C1A64239  19.160  37.504   6.245
 4943POPC   D2A64240  18.912  37.732   6.567
 4943POPC   C3A64241  19.068  37.604   6.948
 4943POPC   C4A64242  19.281  37.579   7.314
 4943POPC   C1B64243  19.170  38.074   6.248
 4943POPC   C2B64244  19.146  38.215   6.668
 4943POPC   C3B64245  19.304  38.057   7.032
 4943POPC   C4B64246  19.202  38.066   7.427
 4944POPC   NC364247   6.102  36.915   5.538
 4944POPC   PO464248   5.581  36.486   5.229
 4944POPC   GL164249   5.597  36.659   5.687
 4944POPC   GL264250   5.614  37.026   5.816
 4944POPC   C1A64251   5.803  36.635   6.117
 4944POPC   D2A64252   5.725  36.471   6.529
 4944POPC   C3A64253   5.742  36.694   6.897
 4944POPC   C4A64254   6.115  36.703   7.111
 4944POPC   C1B64255   5.951  37.146   6.160
 4944POPC   C2B64256   6.063  37.011   6.615
 4944POPC   C3B64257   6.030  37.215   7.057
 4944POPC   C4B64258   6.131  37.289   7.525
 4945POPC   NC364259  10.214   8.086   5.580
 4945POPC   PO464260   9.713   8.470   5.162
 4945POPC   GL164261   9.682   8.164   5.589
 4945POPC   GL264262   9.653   8.375   5.901
 4945POPC   C1A64263   9.745   7.905   6.018
 4945POPC   D2A64264   9.664   7.892   6.510
 4945POPC   C3A64265   9.893   8.030   6.882
 4945POPC   C4A64266   9.741   8.084   7.294
 4945POPC   C1B64267   9.755   8.633   6.262
 4945POPC   C2B64268   9.935   8.519   6.678
 4945POPC   C3B64269   9.860   8.527   7.117
 4945POPC   C4B64270   9.773   8.558   7.560
 4946POPC   NC364271  30.301  37.816   5.051
 4946POPC   PO464272  29.814  37.532   5.333
 4946POPC   GL164273  29.832  37.565   5.818
 4946POPC   GL264274  29.812  37.254   5.940
 4946POPC   C1A64275  29.907  37.741   6.296
 4946POPC   D2A64276  30.105  37.978   6.700
 4946POPC   C3A64277  29.977  37.927   7.134
 4946POPC   C4A64278  29.835  37.522   7.292
 4946POPC   C1B64279  30.196  37.313   6.175
 4946POPC   C2B64280  30.304  37.527   6.543
 4946POPC   C3B64281  30.218  37.516   6.970
 4946POPC   C4B64282  30.325  37.681   7.421
 4947POPC   NC364283   3.428   5.004   5.389
 4947POPC   PO464284   3.924   5.474   5.415
 4947POPC   GL164285   3.954   5.223   5.845
 4947POPC   GL264286   3.681   4.987   5.840
 4947POPC   C1A64287   3.906   5.082   6.296
 4947POPC   D2A64288   3.681   4.810   6.612
 4947POPC   C3A64289   3.537   5.061   6.938
 4947POPC   C4A64290   3.755   5.262   7.268
 4947POPC   C1B64291   3.396   4.986   6.202
 4947POPC   C2B64292   3.165   4.883   6.592
 4947POPC   C3B64293   3.222   4.660   7.029
 4947POPC   C4B64294   3.571   4.738   7.330
 4948POPC   NC364295  24.739  34.074   5.198
 4948POPC   PO464296  24.384  33.591   5.520
 4948POPC   GL164297  24.347  33.777   5.870
 4948POPC   GL264298  24.576  34.058   5.764
 4948POPC   C1A64299  24.306  33.635   6.316
 4948POPC   D2A64300  24.672  33.634   6.612
 4948POPC   C3A64301  24.708  33.603   7.048
 4948POPC   C4A64302  24.556  33.751   7.443
 4948POPC   C1B64303  24.747  33.895   6.144
 4948POPC   C2B64304  24.820  34.120   6.492
 4948POPC   C3B64305  24.682  34.083   6.901
 4948POPC   C4B64306  24.263  33.867   7.011
 4949POPC   NC364307  18.636  44.008   5.448
 4949POPC   PO464308  19.261  44.076   5.315
 4949POPC   GL164309  19.084  44.019   5.743
 4949POPC   GL264310  18.919  43.701   5.741
 4949POPC   C1A64311  18.922  44.055   6.199
 4949POPC   D2A64312  19.038  44.165   6.652
 4949POPC   C3A64313  18.834  44.046   7.056
 4949POPC   C4A64314  18.987  44.155   7.500
 4949POPC   C1B64315  18.958  43.510   6.125
 4949POPC   C2B64316  18.917  43.647   6.541
 4949POPC   C3B64317  19.158  43.659   6.905
 4949POPC   C4B64318  19.082  43.664   7.330
 4950POPC   NC364319  43.989  38.844   5.284
 4950POPC   PO464320  43.628  39.411   5.365
 4950POPC   GL164321  43.810  39.375   5.744
 4950POPC   GL264322  43.882  39.027   5.753
 4950POPC   C1A64323  43.823  39.563   6.163
 4950POPC   D2A64324  43.985  39.677   6.564
 4950POPC   C3A64325  43.738  39.600   6.919
 4950POPC   C4A64326  43.775  39.257   7.168
 4950POPC   C1B64327  44.027  39.107   6.163
 4950POPC   C2B64328  43.907  39.170   6.602
 4950POPC   C3B64329  44.119  38.955   6.944
 4950POPC   C4B64330  43.772  38.716   7.096
 4951POPC   NC364331  40.034  17.462   5.112
 4951POPC   PO464332  39.621  17.133   5.344
 4951POPC   GL164333  39.654  17.214   5.845
 4951POPC   GL264334  39.706  17.578   5.940
 4951POPC   C1A64335  39.847  17.246   6.308
 4951POPC   D2A64336  39.789  17.479   6.734
 4951POPC   C3A64337  39.619  17.354   7.129
 4951POPC   C4A64338  39.721  17.018   7.475
 4951POPC   C1B64339  39.905  17.776   6.333
 4951POPC   C2B64340  39.804  17.980   6.756
 4951POPC   C3B64341  39.767  17.847   7.210
 4951POPC   C4B64342  39.413  17.979   7.501
 4952POPC   NC364343  32.805  16.981   4.912
 4952POPC   PO464344  33.115  17.289   5.465
 4952POPC   GL164345  32.934  17.466   5.860
 4952POPC   GL264346  32.570  17.529   5.802
 4952POPC   C1A64347  32.941  17.639   6.298
 4952POPC   D2A64348  32.926  17.804   6.722
 4952POPC   C3A64349  33.283  17.764   6.996
 4952POPC   C4A64350  33.255  17.674   7.432
 4952POPC   C1B64351  32.565  17.270   6.178
 4952POPC   C2B64352  32.761  17.217   6.566
 4952POPC   C3B64353  32.679  17.256   6.986
 4952POPC   C4B64354  32.821  17.593   7.210
 4953POPC   NC364355  35.033  21.003   5.470
 4953POPC   PO464356  35.250  20.400   5.243
 4953POPC   GL164357  35.260  20.448   5.703
 4953POPC   GL264358  35.579  20.415   5.870
 4953POPC   C1A64359  35.175  20.583   6.129
 4953POPC   D2A64360  35.441  20.670   6.500
 4953POPC   C3A64361  35.331  20.517   6.901
 4953POPC   C4A64362  35.099  20.650   7.286
 4953POPC   C1B64363  35.740  20.298   6.267
 4953POPC   C2B64364  35.946  20.547   6.574
 4953POPC   C3B64365  35.811  20.730   6.944
 4953POPC   C4B64366  35.808  20.437   7.251
 4954POPC   NC364367  40.881  37.996   5.021
 4954POPC   PO464368  41.174  37.427   5.338
 4954POPC   GL164369  40.970  37.491   5.746
 4954POPC   GL264370  40.616  37.539   5.783
 4954POPC   C1A64371  41.011  37.662   6.159
 4954POPC   D2A64372  41.054  37.504   6.576
 4954POPC   C3A64373  41.239  37.790   6.856
 4954POPC   C4A64374  41.117  37.832   7.289
 4954POPC   C1B64375  40.491  37.769   6.166
 4954POPC   C2B64376  40.695  37.890   6.554
 4954POPC   C3B64377  40.736  37.806   6.957
 4954POPC   C4B64378  40.603  37.738   7.356
 4955POPC   NC364379  11.551  34.085   5.612
 4955POPC   PO464380  11.998  33.650   5.334
 4955POPC   GL164381  12.119  33.823   5.787
 4955POPC   GL264382  11.877  33.991   5.983
 4955POPC   C1A64383  12.280  33.960   6.254
 4955POPC   D2A64384  12.199  34.047   6.703
 4955POPC   C3A64385  12.355  33.736   7.032
 4955POPC   C4A64386  12.336  33.676   7.494
 4955POPC   C1B64387  11.883  33.631   6.300
 4955POPC   C2B64388  11.897  33.613   6.759
 4955POPC   C3B64389  11.872  33.899   7.094
 4955POPC   C4B64390  11.895  33.992   7.526
 4956POPC   NC364391  37.652  37.026   5.620
 4956POPC   PO464392  38.114  36.525   5.431
 4956POPC   GL164393  37.951  36.734   5.873
 4956POPC   GL264394  37.604  36.654   5.950
 4956POPC   C1A64395  37.884  36.971   6.291
 4956POPC   D2A64396  37.819  37.126   6.742
 4956POPC   C3A64397  37.819  36.857   7.112
 4956POPC   C4A64398  37.899  36.900   7.573
 4956POPC   C1B64399  37.373  36.886   6.253
 4956POPC   C2B64400  37.333  37.058   6.621
 4956POPC   C3B64401  37.301  36.898   7.004
 4956POPC   C4B64402  37.391  36.688   7.430
 4957POPC   NC364403   6.980   7.756   5.631
 4957POPC   PO464404   6.383   7.638   5.347
 4957POPC   GL164405   6.331   7.602   5.825
 4957POPC   GL264406   6.294   7.959   5.880
 4957POPC   C1A64407   6.334   7.371   6.295
 4957POPC   D2A64408   6.402   7.403   6.796
 4957POPC   C3A64409   6.855   7.399   7.032
 4957POPC   C4A64410   7.152   7.339   7.422
 4957POPC   C1B64411   6.508   7.861   6.244
 4957POPC   C2B64412   6.645   7.902   6.665
 4957POPC   C3B64413   6.578   7.850   7.103
 4957POPC   C4B64414   6.680   7.621   7.474
 4958POPC   NC364415   1.500  36.634   5.243
 4958POPC   PO464416   2.071  36.938   5.459
 4958POPC   GL164417   2.007  37.161   5.876
 4958POPC   GL264418   2.110  36.883   6.067
 4958POPC   C1A64419   1.766  37.296   6.293
 4958POPC   D2A64420   1.613  37.222   6.737
 4958POPC   C3A64421   1.684  36.962   7.098
 4958POPC   C4A64422   1.994  36.677   7.347
 4958POPC   C1B64423   2.267  37.225   6.314
 4958POPC   C2B64424   2.110  37.328   6.719
 4958POPC   C3B64425   2.185  37.123   7.120
 4958POPC   C4B64426   2.343  37.023   7.534
 4959POPC   NC364427  22.329  39.090   5.430
 4959POPC   PO464428  21.784  39.318   5.482
 4959POPC   GL164429  22.006  39.014   5.847
 4959POPC   GL264430  22.357  38.809   5.852
 4959POPC   C1A64431  22.254  39.060   6.280
 4959POPC   D2A64432  22.346  39.320   6.666
 4959POPC   C3A64433  22.119  39.271   7.073
 4959POPC   C4A64434  21.947  39.639   7.291
 4959POPC   C1B64435  22.638  38.714   6.173
 4959POPC   C2B64436  22.738  38.970   6.531
 4959POPC   C3B64437  22.564  38.969   6.958
 4959POPC   C4B64438  22.387  38.925   7.384
 4960POPC   NC364439  25.607  35.571   5.486
 4960POPC   PO464440  24.951  35.301   5.595
 4960POPC   GL164441  25.302  35.376   5.836
 4960POPC   GL264442  25.526  35.124   5.895
 4960POPC   C1A64443  25.344  35.547   6.211
 4960POPC   D2A64444  25.136  35.475   6.575
 4960POPC   C3A64445  25.367  35.556   6.935
 4960POPC   C4A64446  25.124  35.486   7.284
 4960POPC   C1B64447  25.508  35.042   6.267
 4960POPC   C2B64448  25.492  35.132   6.667
 4960POPC   C3B64449  25.199  35.070   6.962
 4960POPC   C4B64450  25.494  35.117   7.272
 4961POPC   NC364451  16.220  28.354   5.572
 4961POPC   PO464452  16.853  28.351   5.519
 4961POPC   GL164453  16.636  28.464   5.923
 4961POPC   GL264454  16.335  28.676   6.024
 4961POPC   C1A64455  16.580  28.379   6.370
 4961POPC   D2A64456  16.358  28.532   6.752
 4961POPC   C3A64457  16.637  28.351   7.058
 4961POPC   C4A64458  17.094  28.244   7.028
 4961POPC   C1B64459  16.580  28.881   6.419
 4961POPC   C2B64460  16.866  28.683   6.721
 4961POPC   C3B64461  16.975  28.742   7.146
 4961POPC   C4B64462  16.964  28.911   7.567
 4962POPC   NC364463   8.030  25.993   5.244
 4962POPC   PO464464   8.598  25.649   5.542
 4962POPC   GL164465   8.245  25.918   5.726
 4962POPC   GL264466   7.868  25.820   5.744
 4962POPC   C1A64467   8.228  26.034   6.156
 4962POPC   D2A64468   8.336  25.871   6.584
 4962POPC   C3A64469   8.306  26.177   6.957
 4962POPC   C4A64470   8.585  26.368   7.246
 4962POPC   C1B64471   7.919  25.601   6.188
 4962POPC   C2B64472   7.869  25.636   6.680
 4962POPC   C3B64473   7.925  25.868   7.106
 4962POPC   C4B64474   7.885  25.810   7.583
 4963POPC   NC364475  18.626  17.121   5.514
 4963POPC   PO464476  18.256  16.592   5.303
 4963POPC   GL164477  18.326  16.763   5.754
 4963POPC   GL264478  18.066  16.979   5.922
 4963POPC   C1A64479  18.244  16.595   6.186
 4963POPC   D2A64480  18.020  16.761   6.567
 4963POPC   C3A64481  18.367  16.833   6.818
 4963POPC   C4A64482  18.583  16.736   7.169
 4963POPC   C1B64483  18.296  17.099   6.295
 4963POPC   C2B64484  18.326  17.308   6.685
 4963POPC   C3B64485  18.132  17.211   7.083
 4963POPC   C4B64486  18.016  16.923   7.382
 4964POPC   NC364487   2.257   8.118   5.202
 4964POPC   PO464488   1.730   7.897   5.552
 4964POPC   GL164489   1.921   8.140   5.868
 4964POPC   GL264490   2.254   8.190   5.760
 4964POPC   C1A64491   1.885   8.297   6.296
 4964POPC   D2A64492   1.601   8.468   6.597
 4964POPC   C3A64493   1.676   8.246   6.975
 4964POPC   C4A64494   1.877   8.014   7.320
 4964POPC   C1B64495   2.397   8.345   6.190
 4964POPC   C2B64496   2.291   8.382   6.633
 4964POPC   C3B64497   2.172   8.338   7.055
 4964POPC   C4B64498   2.392   8.353   7.436
 4965POPC   NC364499  15.834  36.987   5.430
 4965POPC   PO464500  16.218  36.522   5.473
 4965POPC   GL164501  16.116  36.908   5.846
 4965POPC   GL264502  15.772  37.129   5.915
 4965POPC   C1A64503  16.158  37.092   6.300
 4965POPC   D2A64504  15.995  37.037   6.748
 4965POPC   C3A64505  16.219  37.033   7.161
 4965POPC   C4A64506  16.254  36.703   7.501
 4965POPC   C1B64507  15.614  37.058   6.334
 4965POPC   C2B64508  15.376  37.019   6.729
 4965POPC   C3B64509  15.603  36.988   7.122
 4965POPC   C4B64510  15.843  37.036   7.494
 4966POPC   NC364511   1.209  18.358   5.483
 4966POPC   PO464512   1.551  17.834   5.648
 4966POPC   GL164513   1.319  18.211   5.967
 4966POPC   GL264514   0.952  18.348   5.920
 4966POPC   C1A64515   1.174  18.480   6.370
 4966POPC   D2A64516   1.198  18.593   6.819
 4966POPC   C3A64517   1.304  18.252   7.078
 4966POPC   C4A64518   1.197  18.324   7.494
 4966POPC   C1B64519   0.825  18.105   6.300
 4966POPC   C2B64520   0.920  18.171   6.743
 4966POPC   C3B64521   0.823  18.438   7.145
 4966POPC   C4B64522   0.737  18.468   7.636
 4967POPC   NC364523   5.889   8.942   5.383
 4967POPC   PO464524   5.545   8.543   5.707
 4967POPC   GL164525   5.762   8.913   5.897
 4967POPC   GL264526   5.987   9.224   5.793
 4967POPC   C1A64527   6.120   8.905   6.185
 4967POPC   D2A64528   6.248   8.957   6.605
 4967POPC   C3A64529   5.905   9.075   6.877
 4967POPC   C4A64530   5.703   8.744   7.079
 4967POPC   C1B64531   6.196   9.452   6.138
 4967POPC   C2B64532   6.389   9.436   6.557
 4967POPC   C3B64533   6.264   9.421   6.968
 4967POPC   C4B64534   6.050   9.316   7.327
 4968POPC   NC364535  34.882  34.503   5.053
 4968POPC   PO464536  35.197  34.781   5.502
 4968POPC   GL164537  35.244  34.563   5.857
 4968POPC   GL264538  35.542  34.457   5.834
 4968POPC   C1A64539  35.057  34.459   6.227
 4968POPC   D2A64540  35.258  34.540   6.580
 4968POPC   C3A64541  35.201  34.324   6.921
 4968POPC   C4A64542  35.244  34.508   7.293
 4968POPC   C1B64543  35.651  34.587   6.236
 4968POPC   C2B64544  35.742  34.359   6.629
 4968POPC   C3B64545  35.688  34.417   7.061
 4968POPC   C4B64546  35.687  34.338   7.543
 4969POPC   NC364547  18.126   1.483   5.586
 4969POPC   PO464548  18.097   0.834   5.311
 4969POPC   GL164549  18.257   0.971   5.778
 4969POPC   GL264550  18.042   1.186   5.989
 4969POPC   C1A64551  18.472   1.062   6.208
 4969POPC   D2A64552  18.476   1.484   6.410
 4969POPC   C3A64553  18.288   1.458   6.814
 4969POPC   C4A64554  18.373   1.549   7.230
 4969POPC   C1B64555  18.015   1.179   6.448
 4969POPC   C2B64556  18.210   0.951   6.780
 4969POPC   C3B64557  18.204   1.053   7.220
 4969POPC   C4B64558  17.841   1.044   7.503
 4970POPC   NC364559  30.797  26.567   5.483
 4970POPC   PO464560  31.002  25.990   5.364
 4970POPC   GL164561  30.756  26.116   5.751
 4970POPC   GL264562  30.731  25.822   5.881
 4970POPC   C1A64563  30.707  26.210   6.226
 4970POPC   D2A64564  30.661  26.353   6.663
 4970POPC   C3A64565  30.750  26.141   7.078
 4970POPC   C4A64566  30.705  26.183   7.548
 4970POPC   C1B64567  30.642  25.707   6.300
 4970POPC   C2B64568  30.626  25.804   6.722
 4970POPC   C3B64569  30.744  25.608   7.096
 4970POPC   C4B64570  31.003  25.818   7.405
 4971POPC   NC364571  33.602   4.022   5.591
 4971POPC   PO464572  33.441   3.346   5.467
 4971POPC   GL164573  33.772   3.475   5.738
 4971POPC   GL264574  33.537   3.626   5.904
 4971POPC   C1A64575  33.933   3.407   6.171
 4971POPC   D2A64576  33.796   3.431   6.628
 4971POPC   C3A64577  33.918   3.587   7.069
 4971POPC   C4A64578  34.037   3.264   7.376
 4971POPC   C1B64579  33.414   3.367   6.240
 4971POPC   C2B64580  33.327   3.186   6.618
 4971POPC   C3B64581  33.462   3.337   6.995
 4971POPC   C4B64582  33.250   3.420   7.314
 4972POPC   NC364583  42.441  38.924   5.700
 4972POPC   PO464584  42.125  38.505   5.265
 4972POPC   GL164585  42.224  38.460   5.720
 4972POPC   GL264586  42.580  38.421   5.737
 4972POPC   C1A64587  42.282  38.263   6.142
 4972POPC   D2A64588  42.514  38.302   6.547
 4972POPC   C3A64589  42.312  38.445   6.915
 4972POPC   C4A64590  41.953  38.247   7.073
 4972POPC   C1B64591  42.749  38.553   6.175
 4972POPC   C2B64592  42.848  38.711   6.629
 4972POPC   C3B64593  42.924  38.793   7.060
 4972POPC   C4B64594  42.563  38.712   7.279
 4973POPC   NC364595  28.970   1.805   5.312
 4973POPC   PO464596  29.514   2.155   5.383
 4973POPC   GL164597  29.324   2.267   5.772
 4973POPC   GL264598  29.112   2.017   5.783
 4973POPC   C1A64599  29.188   2.364   6.209
 4973POPC   D2A64600  29.141   2.057   6.542
 4973POPC   C3A64601  29.239   2.189   6.958
 4973POPC   C4A64602  29.238   1.965   7.348
 4973POPC   C1B64603  28.804   2.044   6.121
 4973POPC   C2B64604  28.616   2.041   6.517
 4973POPC   C3B64605  28.718   2.119   6.931
 4973POPC   C4B64606  28.533   2.306   7.288
 4974POPC   NC364607   2.614  12.816   5.112
 4974POPC   PO464608   2.984  13.246   5.513
 4974POPC   GL164609   3.046  13.086   5.889
 4974POPC   GL264610   2.935  12.735   5.866
 4974POPC   C1A64611   2.866  13.079   6.287
 4974POPC   D2A64612   2.571  12.961   6.586
 4974POPC   C3A64613   2.602  13.152   6.963
 4974POPC   C4A64614   2.792  13.212   7.348
 4974POPC   C1B64615   2.596  12.615   6.183
 4974POPC   C2B64616   2.452  12.468   6.584
 4974POPC   C3B64617   2.550  12.616   6.970
 4974POPC   C4B64618   2.871  12.725   7.247
 4975POPC   NC364619  20.588  28.785   5.612
 4975POPC   PO464620  20.370  29.375   5.342
 4975POPC   GL164621  20.495  29.384   5.751
 4975POPC   GL264622  20.269  29.135   5.922
 4975POPC   C1A64623  20.752  29.236   6.091
 4975POPC   D2A64624  20.617  29.080   6.486
 4975POPC   C3A64625  20.819  28.828   6.805
 4975POPC   C4A64626  21.001  28.998   7.182
 4975POPC   C1B64627  20.178  28.875   6.312
 4975POPC   C2B64628  20.283  28.798   6.754
 4975POPC   C3B64629  20.445  29.020   7.119
 4975POPC   C4B64630  20.172  29.017   7.492
 4976POPC   NC364631  17.854  31.155   5.313
 4976POPC   PO464632  18.024  31.827   5.300
 4976POPC   GL164633  17.724  31.712   5.687
 4976POPC   GL264634  17.787  31.362   5.774
 4976POPC   C1A64635  17.412  31.555   6.068
 4976POPC   D2A64636  17.448  31.301   6.482
 4976POPC   C3A64637  17.391  31.470   6.910
 4976POPC   C4A64638  17.497  31.371   7.340
 4976POPC   C1B64639  17.890  31.465   6.205
 4976POPC   C2B64640  17.817  31.641   6.612
 4976POPC   C3B64641  17.908  31.503   7.034
 4976POPC   C4B64642  17.865  31.715   7.431
 4977POPC   NC364643  14.025  38.631   5.588
 4977POPC   PO464644  14.549  38.218   5.628
 4977POPC   GL164645  14.360  38.418   5.967
 4977POPC   GL264646  14.452  38.723   5.881
 4977POPC   C1A64647  14.411  38.384   6.421
 4977POPC   D2A64648  14.650  38.234   6.752
 4977POPC   C3A64649  14.586  38.100   7.164
 4977POPC   C4A64650  14.494  38.372   7.505
 4977POPC   C1B64651  14.194  38.819   6.250
 4977POPC   C2B64652  13.990  38.614   6.578
 4977POPC   C3B64653  14.271  38.537   6.913
 4977POPC   C4B64654  14.258  38.801   7.263
 4978POPC   NC364655  14.144  22.557   5.674
 4978POPC   PO464656  14.524  22.247   5.150
 4978POPC   GL164657  14.442  22.077   5.628
 4978POPC   GL264658  14.749  22.122   5.833
 4978POPC   C1A64659  14.310  22.056   6.102
 4978POPC   D2A64660  14.440  21.960   6.563
 4978POPC   C3A64661  14.262  21.952   7.018
 4978POPC   C4A64662  14.101  21.675   7.358
 4978POPC   C1B64663  14.762  22.278   6.288
 4978POPC   C2B64664  14.876  22.395   6.741
 4978POPC   C3B64665  14.657  22.406   7.125
 4978POPC   C4B64666  14.236  22.543   7.149
 4979POPC   NC364667  32.103   2.786   5.132
 4979POPC   PO464668  32.566   2.564   5.600
 4979POPC   GL164669  32.209   2.619   5.820
 4979POPC   GL264670  32.252   2.927   5.939
 4979POPC   C1A64671  32.153   2.488   6.256
 4979POPC   D2A64672  31.813   2.506   6.575
 4979POPC   C3A64673  31.984   2.595   6.994
 4979POPC   C4A64674  31.942   2.508   7.467
 4979POPC   C1B64675  32.563   2.810   6.218
 4979POPC   C2B64676  32.526   2.658   6.621
 4979POPC   C3B64677  32.622   2.891   6.948
 4979POPC   C4B64678  32.365   2.780   7.278
 4980POPC   NC364679  38.249  43.376   5.531
 4980POPC   PO464680  38.856  42.935   5.464
 4980POPC   GL164681  38.753  43.031   5.894
 4980POPC   GL264682  38.675  43.394   5.857
 4980POPC   C1A64683  38.513  42.964   6.312
 4980POPC   D2A64684  38.135  43.009   6.596
 4980POPC   C3A64685  38.215  43.169   7.015
 4980POPC   C4A64686  38.620  43.018   7.171
 4980POPC   C1B64687  38.441  43.464   6.227
 4980POPC   C2B64688  38.539  43.425   6.655
 4980POPC   C3B64689  38.853  43.403   6.972
 4980POPC   C4B64690  38.745  43.459   7.459
 4981POPC   NC364691  40.118  26.894   5.445
 4981POPC   PO464692  39.609  26.406   5.494
 4981POPC   GL164693  39.789  26.734   5.797
 4981POPC   GL264694  40.178  26.674   5.902
 4981POPC   C1A64695  39.878  26.999   6.170
 4981POPC   D2A64696  39.873  26.843   6.589
 4981POPC   C3A64697  40.006  27.053   6.919
 4981POPC   C4A64698  39.777  26.979   7.236
 4981POPC   C1B64699  40.318  26.750   6.347
 4981POPC   C2B64700  40.351  26.688   6.809
 4981POPC   C3B64701  40.302  26.679   7.260
 4981POPC   C4B64702  40.508  26.750   7.690
 4982POPC   NC364703   2.708   8.829   5.374
 4982POPC   PO464704   3.327   9.095   5.340
 4982POPC   GL164705   3.064   8.996   5.719
 4982POPC   GL264706   2.774   9.219   5.816
 4982POPC   C1A64707   3.034   9.006   6.173
 4982POPC   D2A64708   3.154   9.227   6.538
 4982POPC   C3A64709   2.958   9.051   6.903
 4982POPC   C4A64710   2.636   9.158   7.175
 4982POPC   C1B64711   2.519   8.999   6.150
 4982POPC   C2B64712   2.604   8.809   6.572
 4982POPC   C3B64713   2.586   8.654   6.987
 4982POPC   C4B64714   2.263   8.819   7.216
 4983POPC   NC364715  38.493  37.430   5.488
 4983POPC   PO464716  38.243  38.066   5.261
 4983POPC   GL164717  38.128  37.929   5.754
 4983POPC   GL264718  38.124  37.544   5.820
 4983POPC   C1A64719  38.135  37.816   6.234
 4983POPC   D2A64720  38.142  37.448   6.517
 4983POPC   C3A64721  38.354  37.514   6.881
 4983POPC   C4A64722  38.252  37.741   7.224
 4983POPC   C1B64723  38.428  37.313   6.122
 4983POPC   C2B64724  38.737  37.277   6.468
 4983POPC   C3B64725  38.763  37.197   6.922
 4983POPC   C4B64726  38.630  37.395   7.326
 4984POPC   NC364727   9.803  31.264   5.318
 4984POPC   PO464728   9.688  31.900   5.447
 4984POPC   GL164729   9.702  31.545   5.739
 4984POPC   GL264730   9.451  31.248   5.694
 4984POPC   C1A64731   9.812  31.307   6.127
 4984POPC   D2A64732   9.964  31.322   6.574
 4984POPC   C3A64733   9.706  31.422   6.939
 4984POPC   C4A64734   9.792  31.442   7.352
 4984POPC   C1B64735   9.384  31.011   6.070
 4984POPC   C2B64736   9.210  30.925   6.457
 4984POPC   C3B64737   9.398  31.034   6.834
 4984POPC   C4B64738   9.483  30.974   7.239
 4985POPC   NC364739  38.270  11.064   5.383
 4985POPC   PO464740  38.664  11.627   5.466
 4985POPC   GL164741  38.528  11.312   5.763
 4985POPC   GL264742  38.171  11.343   5.811
 4985POPC   C1A64743  38.474  11.210   6.200
 4985POPC   D2A64744  38.587  11.437   6.558
 4985POPC   C3A64745  38.634  11.148   6.861
 4985POPC   C4A64746  38.674  11.255   7.262
 4985POPC   C1B64747  38.024  11.464   6.220
 4985POPC   C2B64748  38.094  11.255   6.655
 4985POPC   C3B64749  38.171  11.227   7.121
 4985POPC   C4B64750  38.232  11.086   7.593
 4986POPC   NC364751  25.036  11.487   5.482
 4986POPC   PO464752  25.590  11.071   5.515
 4986POPC   GL164753  25.547  11.275   5.928
 4986POPC   GL264754  25.288  11.547   5.932
 4986POPC   C1A64755  25.402  11.274   6.355
 4986POPC   D2A64756  25.226  11.005   6.648
 4986POPC   C3A64757  25.339  11.186   7.020
 4986POPC   C4A64758  25.034  11.345   7.255
 4986POPC   C1B64759  25.165  11.756   6.320
 4986POPC   C2B64760  25.026  11.625   6.734
 4986POPC   C3B64761  24.773  11.752   7.077
 4986POPC   C4B64762  24.594  11.549   7.445
 4987POPC   NC364763  43.648  13.691   5.536
 4987POPC   PO464764  44.010  13.264   5.242
 4987POPC   GL164765  44.132  13.345   5.708
 4987POPC   GL264766  44.074  13.664   5.796
 4987POPC   C1A64767  44.199  13.408   6.185
 4987POPC   D2A64768  43.817  13.369   6.451
 4987POPC   C3A64769  43.805  13.423   6.892
 4987POPC   C4A64770  43.987  13.349   7.275
 4987POPC   C1B64771  43.876  13.825   6.168
 4987POPC   C2B64772  43.703  14.034   6.518
 4987POPC   C3B64773  43.482  13.997   6.890
 4987POPC   C4B64774  43.642  13.773   7.237
 4988POPC   NC364775   8.468  25.188   5.346
 4988POPC   PO464776   9.082  24.940   5.494
 4988POPC   GL164777   8.913  25.241   5.784
 4988POPC   GL264778   8.607  25.137   5.840
 4988POPC   C1A64779   8.975  25.465   6.166
 4988POPC   D2A64780   9.308  25.541   6.497
 4988POPC   C3A64781   9.157  25.585   6.934
 4988POPC   C4A64782   9.290  25.648   7.376
 4988POPC   C1B64783   8.666  25.066   6.278
 4988POPC   C2B64784   8.817  25.285   6.654
 4988POPC   C3B64785   8.939  25.087   7.045
 4988POPC   C4B64786   8.848  25.063   7.512
 4989POPC   NC364787  19.486   7.444   5.281
 4989POPC   PO464788  19.970   7.028   5.430
 4989POPC   GL164789  19.805   7.301   5.802
 4989POPC   GL264790  19.738   7.670   5.746
 4989POPC   C1A64791  19.809   7.327   6.296
 4989POPC   D2A64792  20.116   7.169   6.650
 4989POPC   C3A64793  20.035   7.148   7.116
 4989POPC   C4A64794  19.621   7.147   7.278
 4989POPC   C1B64795  19.409   7.603   6.070
 4989POPC   C2B64796  19.337   7.541   6.535
 4989POPC   C3B64797  19.692   7.444   6.813
 4989POPC   C4B64798  20.057   7.657   6.998
 4990POPC   NC364799  42.849   9.140   5.279
 4990POPC   PO464800  43.315   8.642   5.466
 4990POPC   GL164801  43.040   8.778   5.771
 4990POPC   GL264802  43.120   9.105   5.727
 4990POPC   C1A64803  43.103   8.914   6.227
 4990POPC   D2A64804  43.276   8.787   6.652
 4990POPC   C3A64805  42.986   8.845   7.026
 4990POPC   C4A64806  42.783   8.864   7.442
 4990POPC   C1B64807  43.373   9.316   6.051
 4990POPC   C2B64808  43.329   9.351   6.467
 4990POPC   C3B64809  43.264   9.247   6.878
 4990POPC   C4B64810  43.514   9.378   7.198
 4991POPC   NC364811  35.759  29.742   5.429
 4991POPC   PO464812  36.427  29.777   5.472
 4991POPC   GL164813  36.119  29.870   5.795
 4991POPC   GL264814  35.856  30.141   5.817
 4991POPC   C1A64815  35.964  29.714   6.177
 4991POPC   D2A64816  35.832  29.789   6.594
 4991POPC   C3A64817  36.101  29.868   6.891
 4991POPC   C4A64818  36.014  29.983   7.270
 4991POPC   C1B64819  36.192  30.282   6.095
 4991POPC   C2B64820  36.313  30.418   6.499
 4991POPC   C3B64821  36.180  30.390   6.893
 4991POPC   C4B64822  36.380  30.373   7.284
 4992POPC   NC364823  28.991  33.344   5.369
 4992POPC   PO464824  29.520  32.841   5.262
 4992POPC   GL164825  29.267  32.992   5.610
 4992POPC   GL264826  29.466  33.281   5.723
 4992POPC   C1A64827  29.100  33.105   6.043
 4992POPC   D2A64828  29.285  33.125   6.487
 4992POPC   C3A64829  29.063  32.955   6.832
 4992POPC   C4A64830  28.740  32.983   7.139
 4992POPC   C1B64831  29.514  33.443   6.157
 4992POPC   C2B64832  29.436  33.599   6.607
 4992POPC   C3B64833  29.398  33.429   7.068
 4992POPC   C4B64834  29.226  33.070   7.298
 4993POPC   NC364835  27.950  26.005   5.538
 4993POPC   PO464836  27.505  25.562   5.293
 4993POPC   GL164837  27.429  26.033   5.653
 4993POPC   GL264838  27.692  26.262   5.880
 4993POPC   C1A64839  27.351  26.052   6.156
 4993POPC   D2A64840  27.644  25.874   6.494
 4993POPC   C3A64841  27.526  25.714   6.910
 4993POPC   C4A64842  27.562  25.830   7.348
 4993POPC   C1B64843  27.950  26.323   6.272
 4993POPC   C2B64844  28.030  26.187   6.708
 4993POPC   C3B64845  27.734  26.217   7.064
 4993POPC   C4B64846  27.733  26.345   7.523
 4994POPC   NC364847   8.036  21.731   5.529
 4994POPC   PO464848   8.408  22.170   5.483
 4994POPC   GL164849   8.327  22.309   5.866
 4994POPC   GL264850   7.964  22.161   5.878
 4994POPC   C1A64851   8.311  22.120   6.258
 4994POPC   D2A64852   7.985  22.167   6.523
 4994POPC   C3A64853   8.117  22.328   6.886
 4994POPC   C4A64854   8.248  22.164   7.263
 4994POPC   C1B64855   7.885  21.795   6.160
 4994POPC   C2B64856   7.670  21.748   6.553
 4994POPC   C3B64857   7.754  21.937   6.920
 4994POPC   C4B64858   7.752  21.742   7.275
 4995POPC   NC364859  24.148  41.709   5.155
 4995POPC   PO464860  24.724  41.902   5.428
 4995POPC   GL164861  24.588  41.553   5.716
 4995POPC   GL264862  24.301  41.748   5.784
 4995POPC   C1A64863  24.523  41.271   6.127
 4995POPC   D2A64864  24.440  41.431   6.545
 4995POPC   C3A64865  24.403  41.290   6.953
 4995POPC   C4A64866  24.396  41.463   7.351
 4995POPC   C1B64867  24.427  41.780   6.178
 4995POPC   C2B64868  24.255  41.885   6.563
 4995POPC   C3B64869  24.498  41.898   6.918
 4995POPC   C4B64870  24.371  41.993   7.327
 4996POPC   NC364871   1.025  35.791   5.497
 4996POPC   PO464872   1.422  36.188   5.306
 4996POPC   GL164873   1.354  36.109   5.749
 4996POPC   GL264874   1.018  36.219   5.825
 4996POPC   C1A64875   1.363  36.092   6.208
 4996POPC   D2A64876   1.234  36.224   6.629
 4996POPC   C3A64877   1.228  36.030   7.065
 4996POPC   C4A64878   1.552  36.028   7.395
 4996POPC   C1B64879   1.041  36.501   6.213
 4996POPC   C2B64880   0.920  36.645   6.599
 4996POPC   C3B64881   1.007  36.479   7.003
 4996POPC   C4B64882   1.148  36.350   7.490
 4997POPC   NC364883  33.814  38.678   5.406
 4997POPC   PO464884  34.006  38.010   5.597
 4997POPC   GL164885  33.919  38.363   5.812
 4997POPC   GL264886  34.207  38.527   5.729
 4997POPC   C1A64887  33.679  38.504   6.169
 4997POPC   D2A64888  33.773  38.655   6.589
 4997POPC   C3A64889  33.726  38.412   6.962
 4997POPC   C4A64890  34.016  38.227   7.221
 4997POPC   C1B64891  34.162  38.673   6.156
 4997POPC   C2B64892  34.289  38.597   6.588
 4997POPC   C3B64893  34.138  38.716   6.999
 4997POPC   C4B64894  34.060  38.711   7.453
 4998POPC   NC364895   6.298   5.434   5.529
 4998POPC   PO464896   6.369   4.813   5.595
 4998POPC   GL164897   6.531   5.088   5.889
 4998POPC   GL264898   6.748   5.352   5.780
 4998POPC   C1A64899   6.525   5.203   6.304
 4998POPC   D2A64900   6.415   5.371   6.677
 4998POPC   C3A64901   6.594   5.102   7.034
 4998POPC   C4A64902   6.860   4.958   7.359
 4998POPC   C1B64903   6.986   5.339   6.183
 4998POPC   C2B64904   6.920   5.186   6.645
 4998POPC   C3B64905   7.089   5.337   7.069
 4998POPC   C4B64906   7.031   5.372   7.559
 4999POPC   NC364907   1.948  20.186   4.957
 4999POPC   PO464908   2.009  20.784   5.300
 4999POPC   GL164909   1.974  20.731   5.762
 4999POPC   GL264910   2.329  20.726   5.868
 4999POPC   C1A64911   1.968  20.501   6.172
 4999POPC   D2A64912   2.333  20.404   6.444
 4999POPC   C3A64913   2.203  20.314   6.875
 4999POPC   C4A64914   1.887  20.384   7.240
 4999POPC   C1B64915   2.198  20.945   6.227
 4999POPC   C2B64916   2.056  20.812   6.633
 4999POPC   C3B64917   2.203  20.806   7.063
 4999POPC   C4B64918   1.984  20.860   7.432
 5000POPC   NC364919  24.791  18.070   5.516
 5000POPC   PO464920  24.364  18.593   5.310
 5000POPC   GL164921  24.330  18.311   5.711
 5000POPC   GL264922  24.626  18.309   5.931
 5000POPC   C1A64923  24.170  18.152   6.142
 5000POPC   D2A64924  23.929  18.188   6.552
 5000POPC   C3A64925  24.119  18.286   6.952
 5000POPC   C4A64926  24.359  18.003   7.205
 5000POPC   C1B64927  24.746  18.643   6.189
 5000POPC   C2B64928  24.653  18.691   6.628
 5000POPC   C3B64929  24.620  18.354   6.927
 5000POPC   C4B64930  24.844  18.225   7.318
 5001POPC   NC364931  43.611  43.429   5.454
 5001POPC   PO464932  44.259  43.147   5.178
 5001POPC   GL164933  44.063  43.175   5.638
 5001POPC   GL264934  43.811  43.154   5.841
 5001POPC   C1A64935  44.141  43.267   6.172
 5001POPC   D2A64936  43.963  43.168   6.603
 5001POPC   C3A64937  43.811  43.409   6.953
 5001POPC   C4A64938  43.588  43.367   7.350
 5001POPC   C1B64939  43.674  42.827   6.092
 5001POPC   C2B64940  43.613  42.793   6.508
 5001POPC   C3B64941  43.504  42.998   6.875
 5001POPC   C4B64942  43.752  42.870   7.236
 5002POPC   NC364943  10.339   6.473   5.114
 5002POPC   PO464944   9.729   6.702   5.403
 5002POPC   GL164945   9.854   6.821   5.794
 5002POPC   GL264946   9.556   6.687   5.960
 5002POPC   C1A64947   9.855   6.990   6.213
 5002POPC   D2A64948   9.629   6.858   6.566
 5002POPC   C3A64949   9.937   6.742   6.887
 5002POPC   C4A64950   9.831   6.812   7.310
 5002POPC   C1B64951   9.813   6.474   6.264
 5002POPC   C2B64952   9.658   6.350   6.647
 5002POPC   C3B64953   9.474   6.562   6.999
 5002POPC   C4B64954   9.528   6.385   7.369
 5003POPC   NC364955   3.078  16.787   5.530
 5003POPC   PO464956   2.407  16.668   5.379
 5003POPC   GL164957   2.633  16.778   5.789
 5003POPC   GL264958   2.771  16.431   5.788
 5003POPC   C1A64959   2.929  16.773   6.206
 5003POPC   D2A64960   3.203  16.939   6.606
 5003POPC   C3A64961   3.016  16.987   7.032
 5003POPC   C4A64962   2.544  16.973   7.143
 5003POPC   C1B64963   2.487  16.443   6.142
 5003POPC   C2B64964   2.616  16.536   6.556
 5003POPC   C3B64965   2.836  16.531   6.925
 5003POPC   C4B64966   2.613  16.477   7.287
 5004POPC   NC364967  38.424  20.986   5.572
 5004POPC   PO464968  38.207  20.365   5.430
 5004POPC   GL164969  38.361  20.485   5.828
 5004POPC   GL264970  38.674  20.440   5.746
 5004POPC   C1A64971  38.444  20.726   6.232
 5004POPC   D2A64972  38.340  20.752   6.699
 5004POPC   C3A64973  38.529  20.936   7.091
 5004POPC   C4A64974  38.436  20.627   7.395
 5004POPC   C1B64975  38.730  20.288   6.175
 5004POPC   C2B64976  38.784  20.498   6.573
 5004POPC   C3B64977  38.752  20.479   7.015
 5004POPC   C4B64978  38.843  20.303   7.396
 5005POPC   NC364979   8.225  43.719   5.565
 5005POPC   PO464980   8.286  43.004   5.385
 5005POPC   GL164981   8.101  42.829   5.783
 5005POPC   GL264982   7.984  43.169   5.899
 5005POPC   C1A64983   8.069  42.850   6.282
 5005POPC   D2A64984   8.149  43.063   6.699
 5005POPC   C3A64985   8.112  42.827   7.012
 5005POPC   C4A64986   8.339  42.822   7.396
 5005POPC   C1B64987   8.219  43.348   6.287
 5005POPC   C2B64988   8.088  43.583   6.657
 5005POPC   C3B64989   7.855  43.445   7.003
 5005POPC   C4B64990   8.191  43.276   7.245
 5006POPC   NC364991   8.566   1.942   5.378
 5006POPC   PO464992   8.077   2.231   5.142
 5006POPC   GL164993   8.199   2.171   5.654
 5006POPC   GL264994   8.412   1.889   5.843
 5006POPC   C1A64995   8.096   2.161   6.126
 5006POPC   D2A64996   8.054   2.096   6.584
 5006POPC   C3A64997   8.419   2.242   6.813
 5006POPC   C4A64998   8.472   2.293   7.231
 5006POPC   C1B64999   8.363   1.672   6.226
 5006POPC   C2B65000   8.461   1.753   6.647
 5006POPC   C3B65001   8.274   1.807   7.042
 5006POPC   C4B65002   8.498   1.812   7.451
 5007POPC   NC365003   8.824  35.772   5.342
 5007POPC   PO465004   8.926  35.071   5.386
 5007POPC   GL165005   8.981  35.324   5.769
 5007POPC   GL265006   8.768  35.064   5.898
 5007POPC   C1A65007   9.022  35.335   6.249
 5007POPC   D2A65008   8.901  35.491   6.649
 5007POPC   C3A65009   9.123  35.468   7.031
 5007POPC   C4A65010   9.004  35.399   7.464
 5007POPC   C1B65011   8.696  34.866   6.269
 5007POPC   C2B65012   8.614  35.061   6.641
 5007POPC   C3B65013   8.750  35.105   7.056
 5007POPC   C4B65014   8.505  35.256   7.415
 5008POPC   NC365015  22.618  20.774   5.567
 5008POPC   PO465016  22.840  20.191   5.225
 5008POPC   GL165017  23.045  20.206   5.679
 5008POPC   GL265018  22.854  20.437   5.871
 5008POPC   C1A65019  23.323  20.340   6.098
 5008POPC   D2A65020  23.352  20.239   6.557
 5008POPC   C3A65021  23.247  20.502   6.922
 5008POPC   C4A65022  23.151  20.536   7.366
 5008POPC   C1B65023  22.911  20.553   6.307
 5008POPC   C2B65024  22.662  20.597   6.651
 5008POPC   C3B65025  22.597  20.805   7.030
 5008POPC   C4B65026  22.993  20.975   7.147
 5009POPC   NC365027   8.609  29.748   5.583
 5009POPC   PO465028   9.164  30.033   5.355
 5009POPC   GL165029   8.950  30.088   5.754
 5009POPC   GL265030   8.993  29.756   5.902
 5009POPC   C1A65031   8.744  30.124   6.176
 5009POPC   D2A65032   8.643  29.981   6.610
 5009POPC   C3A65033   8.887  30.150   6.941
 5009POPC   C4A65034   8.972  29.998   7.343
 5009POPC   C1B65035   8.839  29.611   6.293
 5009POPC   C2B65036   8.970  29.477   6.714
 5009POPC   C3B65037   8.879  29.518   7.182
 5009POPC   C4B65038   8.605  29.490   7.571
 5010POPC   NC365039  14.184  30.708   5.349
 5010POPC   PO465040  13.522  30.672   5.478
 5010POPC   GL165041  13.657  30.789   5.900
 5010POPC   GL265042  13.954  30.961   5.749
 5010POPC   C1A65043  13.384  30.803   6.310
 5010POPC   D2A65044  13.336  30.579   6.709
 5010POPC   C3A65045  13.510  30.704   7.074
 5010POPC   C4A65046  13.456  30.789   7.532
 5010POPC   C1B65047  14.092  30.878   6.144
 5010POPC   C2B65048  13.877  30.716   6.504
 5010POPC   C3B65049  13.988  30.785   6.914
 5010POPC   C4B65050  13.927  30.805   7.355
 5011POPC   NC365051  16.226  37.962   5.593
 5011POPC   PO465052  15.873  37.438   5.513
 5011POPC   GL165053  15.772  37.675   5.904
 5011POPC   GL265054  15.458  37.567   6.009
 5011POPC   C1A65055  15.825  37.816   6.366
 5011POPC   D2A65056  15.962  37.808   6.844
 5011POPC   C3A65057  16.031  37.896   7.274
 5011POPC   C4A65058  16.139  37.997   7.739
 5011POPC   C1B65059  15.412  37.520   6.434
 5011POPC   C2B65060  15.672  37.424   6.755
 5011POPC   C3B65061  15.879  37.420   7.163
 5011POPC   C4B65062  15.978  37.531   7.607
 5012POPC   NC365063  19.546  11.848   5.646
 5012POPC   PO465064  19.918  12.413   5.411
 5012POPC   GL165065  19.911  12.221   5.846
 5012POPC   GL265066  19.687  12.060   6.072
 5012POPC   C1A65067  20.070  12.343   6.278
 5012POPC   D2A65068  20.224  12.100   6.641
 5012POPC   C3A65069  19.888  11.981   6.955
 5012POPC   C4A65070  19.780  12.349   7.207
 5012POPC   C1B65071  19.449  11.778   6.349
 5012POPC   C2B65072  19.388  11.876   6.784
 5012POPC   C3B65073  19.393  11.999   7.206
 5012POPC   C4B65074  19.733  11.929   7.474
 5013POPC   NC365075  21.800  43.007   5.164
 5013POPC   PO465076  21.250  43.229   5.256
 5013POPC   GL165077  21.296  43.205   5.740
 5013POPC   GL265078  21.166  43.452   5.965
 5013POPC   C1A65079  21.290  42.973   6.185
 5013POPC   D2A65080  21.448  42.759   6.600
 5013POPC   C3A65081  21.368  42.922   7.035
 5013POPC   C4A65082  21.601  42.892   7.436
 5013POPC   C1B65083  21.376  43.445   6.371
 5013POPC   C2B65084  21.650  43.221   6.659
 5013POPC   C3B65085  21.720  43.294   7.087
 5013POPC   C4B65086  21.516  43.604   7.341
 5014POPC   NC365087  44.794  32.930   5.119
 5014POPC   PO465088  44.886  33.473   5.532
 5014POPC   GL165089  44.685  33.052   5.640
 5014POPC   GL265090  44.521  33.169   5.942
 5014POPC   C1A65091  44.820  32.763   6.006
 5014POPC   D2A65092  44.915  32.764   6.461
 5014POPC   C3A65093  44.635  32.642   6.809
 5014POPC   C4A65094  44.675  32.656   7.264
 5014POPC   C1B65095  44.448  32.978   6.363
 5014POPC   C2B65096  44.536  33.141   6.776
 5014POPC   C3B65097  44.383  33.087   7.193
 5014POPC   C4B65098  44.334  32.926   7.593
 5015POPC   NC365099   4.880  20.891   5.495
 5015POPC   PO465100   5.284  20.362   5.339
 5015POPC   GL165101   5.216  20.551   5.749
 5015POPC   GL265102   4.849  20.526   5.844
 5015POPC   C1A65103   5.196  20.490   6.214
 5015POPC   D2A65104   4.944  20.261   6.537
 5015POPC   C3A65105   5.120  20.374   6.955
 5015POPC   C4A65106   5.214  20.731   7.263
 5015POPC   C1B65107   4.788  20.823   6.189
 5015POPC   C2B65108   4.864  20.767   6.628
 5015POPC   C3B65109   4.671  20.610   6.984
 5015POPC   C4B65110   4.712  20.847   7.320
 5016POPC   NC365111  24.130  25.786   5.447
 5016POPC   PO465112  23.653  26.259   5.460
 5016POPC   GL165113  23.833  26.094   5.797
 5016POPC   GL265114  23.797  26.401   5.936
 5016POPC   C1A65115  23.740  25.937   6.208
 5016POPC   D2A65116  23.742  26.178   6.595
 5016POPC   C3A65117  23.652  25.910   6.893
 5016POPC   C4A65118  23.319  25.674   7.101
 5016POPC   C1B65119  24.190  26.429   6.135
 5016POPC   C2B65120  24.367  26.434   6.547
 5016POPC   C3B65121  24.226  26.510   6.978
 5016POPC   C4B65122  23.881  26.353   7.187
 5017POPC   NC365123  36.429   2.655   5.561
 5017POPC   PO465124  37.079   2.943   5.488
 5017POPC   GL165125  36.821   2.898   5.853
 5017POPC   GL265126  36.583   3.119   6.018
 5017POPC   C1A65127  36.711   2.594   6.174
 5017POPC   D2A65128  36.454   2.486   6.537
 5017POPC   C3A65129  36.669   2.568   6.983
 5017POPC   C4A65130  37.001   2.752   7.222
 5017POPC   C1B65131  36.385   2.952   6.354
 5017POPC   C2B65132  36.769   2.901   6.599
 5017POPC   C3B65133  36.913   3.153   6.917
 5017POPC   C4B65134  36.687   3.187   7.280
 5018POPC   NC365135   3.564   6.774   5.206
 5018POPC   PO465136   3.290   6.247   5.444
 5018POPC   GL165137   3.620   6.369   5.801
 5018POPC   GL265138   3.817   6.727   5.864
 5018POPC   C1A65139   3.549   6.515   6.228
 5018POPC   D2A65140   3.645   6.493   6.620
 5018POPC   C3A65141   3.368   6.669   6.980
 5018POPC   C4A65142   3.239   6.841   7.398
 5018POPC   C1B65143   3.958   6.905   6.277
 5018POPC   C2B65144   3.946   6.888   6.728
 5018POPC   C3B65145   3.890   6.569   7.043
 5018POPC   C4B65146   3.749   6.659   7.429
 5019POPC   NC365147  35.773   6.773   5.385
 5019POPC   PO465148  35.119   6.534   5.294
 5019POPC   GL165149  35.196   6.776   5.713
 5019POPC   GL265150  35.549   6.780   5.827
 5019POPC   C1A65151  35.222   6.967   6.177
 5019POPC   D2A65152  35.008   6.925   6.598
 5019POPC   C3A65153  35.163   6.617   6.874
 5019POPC   C4A65154  35.479   6.736   7.152
 5019POPC   C1B65155  35.703   6.566   6.175
 5019POPC   C2B65156  35.625   6.587   6.616
 5019POPC   C3B65157  35.559   6.274   6.915
 5019POPC   C4B65158  35.679   6.293   7.298
 5020POPC   NC365159  33.041  24.119   5.414
 5020POPC   PO465160  32.775  24.679   5.297
 5020POPC   GL165161  32.938  24.525   5.755
 5020POPC   GL265162  32.783  24.182   5.860
 5020POPC   C1A65163  33.178  24.503   6.185
 5020POPC   D2A65164  33.468  24.338   6.514
 5020POPC   C3A65165  33.228  24.340   6.870
 5020POPC   C4A65166  33.136  24.335   7.289
 5020POPC   C1B65167  32.675  24.415   6.234
 5020POPC   C2B65168  32.544  24.620   6.636
 5020POPC   C3B65169  32.697  24.396   7.019
 5020POPC   C4B65170  32.712  24.566   7.462
 5021POPC   NC365171   7.346   9.493   5.315
 5021POPC   PO465172   7.331   8.833   5.491
 5021POPC   GL165173   7.534   9.128   5.750
 5021POPC   GL265174   7.640   8.805   5.930
 5021POPC   C1A65175   7.654   9.268   6.148
 5021POPC   D2A65176   7.626   9.002   6.555
 5021POPC   C3A65177   7.678   9.205   6.952
 5021POPC   C4A65178   7.626   8.999   7.322
 5021POPC   C1B65179   7.275   8.943   6.181
 5021POPC   C2B65180   7.148   8.797   6.557
 5021POPC   C3B65181   7.229   8.945   6.948
 5021POPC   C4B65182   6.974   8.964   7.302
 5022POPC   NC365183  39.383  24.259   5.382
 5022POPC   PO465184  38.945  24.715   5.442
 5022POPC   GL165185  38.859  24.573   5.837
 5022POPC   GL265186  38.989  24.263   5.755
 5022POPC   C1A65187  38.995  24.533   6.253
 5022POPC   D2A65188  39.320  24.492   6.572
 5022POPC   C3A65189  39.231  24.657   6.982
 5022POPC   C4A65190  38.948  24.678   7.319
 5022POPC   C1B65191  39.332  24.178   6.060
 5022POPC   C2B65192  39.390  23.970   6.458
 5022POPC   C3B65193  39.401  24.087   6.876
 5022POPC   C4B65194  39.310  24.231   7.281
 5023POPC   NC365195   7.131  10.717   5.400
 5023POPC   PO465196   7.623  10.176   5.503
 5023POPC   GL165197   7.471  10.189   5.894
 5023POPC   GL265198   7.220  10.460   5.846
 5023POPC   C1A65199   7.637  10.401   6.251
 5023POPC   D2A65200   7.796  10.531   6.645
 5023POPC   C3A65201   7.595  10.300   6.953
 5023POPC   C4A65202   7.533  10.141   7.376
 5023POPC   C1B65203   7.184  10.683   6.237
 5023POPC   C2B65204   7.132  10.554   6.657
 5023POPC   C3B65205   7.101  10.369   7.054
 5023POPC   C4B65206   7.382  10.620   7.314
 5024POPC   NC365207  32.652   9.864   5.394
 5024POPC   PO465208  32.078  10.050   5.335
 5024POPC   GL165209  32.105   9.817   5.772
 5024POPC   GL265210  32.450   9.720   5.862
 5024POPC   C1A65211  32.121   9.796   6.268
 5024POPC   D2A65212  31.994   9.782   6.725
 5024POPC   C3A65213  32.271   9.769   7.048
 5024POPC   C4A65214  32.299   9.483   7.351
 5024POPC   C1B65215  32.537   9.488   6.267
 5024POPC   C2B65216  32.479   9.417   6.724
 5024POPC   C3B65217  32.735   9.531   7.095
 5024POPC   C4B65218  32.752   9.428   7.600
 5025POPC   NC365219  28.817  43.321   5.367
 5025POPC   PO465220  29.460  43.257   5.399
 5025POPC   GL165221  29.169  43.371   5.749
 5025POPC   GL265222  29.254  43.110   5.974
 5025POPC   C1A65223  29.111  43.529   6.184
 5025POPC   D2A65224  29.057  43.274   6.535
 5025POPC   C3A65225  29.273  43.109   6.874
 5025POPC   C4A65226  29.156  43.140   7.322
 5025POPC   C1B65227  29.165  42.817   6.331
 5025POPC   C2B65228  28.915  42.726   6.685
 5025POPC   C3B65229  29.009  42.710   7.125
 5025POPC   C4B65230  29.151  42.710   7.586
 5026POPC   NC365231  14.637  39.270   5.369
 5026POPC   PO465232  14.030  39.102   5.685
 5026POPC   GL165233  14.398  39.228   5.940
 5026POPC   GL265234  14.764  39.121   5.849
 5026POPC   C1A65235  14.350  39.284   6.386
 5026POPC   D2A65236  14.274  39.039   6.764
 5026POPC   C3A65237  14.301  39.300   7.123
 5026POPC   C4A65238  14.291  39.607   7.489
 5026POPC   C1B65239  14.717  38.944   6.279
 5026POPC   C2B65240  14.779  39.194   6.658
 5026POPC   C3B65241  14.746  39.488   6.985
 5026POPC   C4B65242  14.806  39.556   7.396
 5027POPC   NC365243  32.217  25.681   5.523
 5027POPC   PO465244  31.950  26.284   5.307
 5027POPC   GL165245  32.089  26.236   5.735
 5027POPC   GL265246  32.473  26.292   5.695
 5027POPC   C1A65247  31.950  25.990   6.136
 5027POPC   D2A65248  32.097  25.795   6.546
 5027POPC   C3A65249  31.912  25.918   6.952
 5027POPC   C4A65250  32.018  25.889   7.422
 5027POPC   C1B65251  32.437  26.136   6.119
 5027POPC   C2B65252  32.184  26.298   6.468
 5027POPC   C3B65253  32.259  26.291   6.856
 5027POPC   C4B65254  32.397  25.976   7.100
 5028POPC   NC365255  18.456  10.617   5.204
 5028POPC   PO465256  17.939  10.247   5.430
 5028POPC   GL165257  18.180  10.405   5.758
 5028POPC   GL265258  18.543  10.478   5.757
 5028POPC   C1A65259  18.274  10.217   6.145
 5028POPC   D2A65260  18.105  10.253   6.552
 5028POPC   C3A65261  18.371  10.453   6.847
 5028POPC   C4A65262  18.296  10.373   7.269
 5028POPC   C1B65263  18.462  10.691   6.195
 5028POPC   C2B65264  18.578  10.945   6.588
 5028POPC   C3B65265  18.635  10.874   7.043
 5028POPC   C4B65266  18.597  10.787   7.493
 5029POPC   NC365267  38.528   0.199   5.457
 5029POPC   PO465268  38.216  44.614   5.518
 5029POPC   GL165269  38.330  44.747   5.899
 5029POPC   GL265270  38.581  44.910   5.904
 5029POPC   C1A65271  38.456  44.601   6.298
 5029POPC   D2A65272  38.452  44.855   6.680
 5029POPC   C3A65273  38.369  44.637   7.098
 5029POPC   C4A65274  38.388  44.773   7.507
 5029POPC   C1B65275  38.805  44.994   6.286
 5029POPC   C2B65276  39.006  44.842   6.643
 5029POPC   C3B65277  38.809  44.895   7.041
 5029POPC   C4B65278  38.897  44.939   7.455
 5030POPC   NC365279  42.058  44.412   5.535
 5030POPC   PO465280  42.753  44.331   5.471
 5030POPC   GL165281  42.498  44.536   5.829
 5030POPC   GL265282  42.269  44.282   5.993
 5030POPC   C1A65283  42.303  44.710   6.249
 5030POPC   D2A65284  42.296  44.522   6.699
 5030POPC   C3A65285  42.326  44.853   7.027
 5030POPC   C4A65286  42.202  44.998   7.459
 5030POPC   C1B65287  42.622  44.305   6.320
 5030POPC   C2B65288  42.850  44.259   6.718
 5030POPC   C3B65289  42.636  44.211   7.116
 5030POPC   C4B65290  42.227  44.403   7.228
 5031POPC   NC365291  24.974   3.916   5.474
 5031POPC   PO465292  24.422   3.493   5.448
 5031POPC   GL165293  24.552   3.691   5.792
 5031POPC   GL265294  24.830   3.479   5.757
 5031POPC   C1A65295  24.386   3.778   6.237
 5031POPC   D2A65296  24.238   3.932   6.655
 5031POPC   C3A65297  24.211   3.705   7.051
 5031POPC   C4A65298  24.605   3.694   7.261
 5031POPC   C1B65299  24.608   3.321   6.135
 5031POPC   C2B65300  24.496   3.356   6.559
 5031POPC   C3B65301  24.595   3.264   6.979
 5031POPC   C4B65302  24.288   3.179   7.280
 5032POPC   NC365303  44.352  11.211   5.293
 5032POPC   PO465304  44.927  11.593   5.461
 5032POPC   GL165305  44.620  11.447   5.767
 5032POPC   GL265306  44.506  11.102   5.784
 5032POPC   C1A65307  44.631  11.516   6.215
 5032POPC   D2A65308  44.606  11.755   6.603
 5032POPC   C3A65309  44.545  11.574   6.996
 5032POPC   C4A65310  44.922  11.415   7.181
 5032POPC   C1B65311  44.308  11.129   6.165
 5032POPC   C2B65312  44.425  11.230   6.588
 5032POPC   C3B65313  44.663  11.071   6.921
 5032POPC   C4B65314  44.536  11.155   7.353
 5033POPC   NC365315  19.987  38.015   5.158
 5033POPC   PO465316  19.867  37.467   5.285
 5033POPC   GL165317  19.854  37.590   5.786
 5033POPC   GL265318  20.098  37.379   5.867
 5033POPC   C1A65319  19.614  37.794   6.162
 5033POPC   D2A65320  19.425  37.796   6.595
 5033POPC   C3A65321  19.667  37.689   6.939
 5033POPC   C4A65322  19.769  37.548   7.319
 5033POPC   C1B65323  20.180  37.233   6.228
 5033POPC   C2B65324  19.966  37.386   6.570
 5033POPC   C3B65325  19.958  37.220   6.951
 5033POPC   C4B65326  20.237  37.454   7.151
 5034POPC   NC365327  28.134  12.809   5.444
 5034POPC   PO465328  28.766  12.842   5.533
 5034POPC   GL165329  28.468  12.916   5.870
 5034POPC   GL265330  28.139  13.106   5.873
 5034POPC   C1A65331  28.491  12.761   6.311
 5034POPC   D2A65332  28.687  12.609   6.699
 5034POPC   C3A65333  28.624  12.851   7.074
 5034POPC   C4A65334  28.342  12.934   7.421
 5034POPC   C1B65335  28.362  13.265   6.246
 5034POPC   C2B65336  28.341  13.120   6.693
 5034POPC   C3B65337  28.048  13.140   7.065
 5034POPC   C4B65338  27.993  13.310   7.498
 5035POPC   NC365339  29.396   0.757   5.302
 5035POPC   PO465340  29.188   1.399   5.390
 5035POPC   GL165341  29.098   1.329   5.803
 5035POPC   GL265342  28.842   1.586   5.802
 5035POPC   C1A65343  29.281   1.187   6.221
 5035POPC   D2A65344  29.455   1.073   6.636
 5035POPC   C3A65345  29.150   1.123   6.953
 5035POPC   C4A65346  28.907   1.157   7.328
 5035POPC   C1B65347  29.121   1.664   6.187
 5035POPC   C2B65348  29.043   1.541   6.622
 5035POPC   C3B65349  28.980   1.619   7.076
 5035POPC   C4B65350  28.955   1.593   7.573
 5036POPC   NC365351  10.901  31.778   5.437
 5036POPC   PO465352  10.256  31.500   5.404
 5036POPC   GL165353  10.543  31.573   5.738
 5036POPC   GL265354  10.526  31.922   5.820
 5036POPC   C1A65355  10.684  31.422   6.140
 5036POPC   D2A65356  10.488  31.278   6.528
 5036POPC   C3A65357  10.636  31.376   6.956
 5036POPC   C4A65358  10.372  31.211   7.282
 5036POPC   C1B65359  10.278  31.746   6.200
 5036POPC   C2B65360  10.260  31.754   6.652
 5036POPC   C3B65361  10.179  31.632   7.069
 5036POPC   C4B65362  10.210  31.769   7.505
 5037POPC   NC365363  13.276  22.481   5.498
 5037POPC   PO465364  13.954  22.167   5.470
 5037POPC   GL165365  13.803  22.200   5.882
 5037POPC   GL265366  13.640  22.509   5.858
 5037POPC   C1A65367  13.855  22.107   6.337
 5037POPC   D2A65368  14.068  22.298   6.705
 5037POPC   C3A65369  13.837  22.246   7.089
 5037POPC   C4A65370  13.497  22.025   7.143
 5037POPC   C1B65371  13.402  22.371   6.218
 5037POPC   C2B65372  13.477  22.281   6.673
 5037POPC   C3B65373  13.371  22.491   7.051
 5037POPC   C4B65374  13.495  22.417   7.491
 5038POPC   NC365375  27.923  10.914   5.296
 5038POPC   PO465376  28.399  11.425   5.231
 5038POPC   GL165377  28.497  11.396   5.711
 5038POPC   GL265378  28.406  11.058   5.807
 5038POPC   C1A65379  28.266  11.381   6.158
 5038POPC   D2A65380  28.111  11.523   6.564
 5038POPC   C3A65381  28.405  11.500   6.889
 5038POPC   C4A65382  28.645  11.802   7.162
 5038POPC   C1B65383  28.653  11.035   6.149
 5038POPC   C2B65384  28.624  11.147   6.566
 5038POPC   C3B65385  28.460  10.967   6.946
 5038POPC   C4B65386  28.194  11.064   7.303
 5039POPC   NC365387  33.454  40.466   5.448
 5039POPC   PO465388  33.530  39.771   5.404
 5039POPC   GL165389  33.724  40.071   5.696
 5039POPC   GL265390  34.082  40.097   5.824
 5039POPC   C1A65391  33.696  40.060   6.166
 5039POPC   D2A65392  33.732  39.781   6.555
 5039POPC   C3A65393  33.779  39.960   7.004
 5039POPC   C4A65394  33.971  40.143   7.382
 5039POPC   C1B65395  34.181  39.994   6.302
 5039POPC   C2B65396  34.200  39.807   6.746
 5039POPC   C3B65397  34.208  39.744   7.187
 5039POPC   C4B65398  34.112  39.438   7.496
 5040POPC   NC365399  31.982  30.224   5.532
 5040POPC   PO465400  32.202  30.895   5.459
 5040POPC   GL165401  32.132  30.631   5.828
 5040POPC   GL265402  31.778  30.506   5.895
 5040POPC   C1A65403  32.322  30.791   6.188
 5040POPC   D2A65404  32.282  31.005   6.558
 5040POPC   C3A65405  32.378  30.697   6.851
 5040POPC   C4A65406  32.542  30.626   7.246
 5040POPC   C1B65407  31.804  30.807   6.222
 5040POPC   C2B65408  31.855  30.773   6.674
 5040POPC   C3B65409  31.937  30.767   7.100
 5040POPC   C4B65410  32.033  30.420   7.357
 5041POPC   NC365411  39.037  30.935   5.482
 5041POPC   PO465412  38.419  30.776   5.225
 5041POPC   GL165413  38.558  30.744   5.687
 5041POPC   GL265414  38.633  30.378   5.759
 5041POPC   C1A65415  38.676  30.762   6.155
 5041POPC   D2A65416  38.635  30.891   6.590
 5041POPC   C3A65417  38.581  30.599   6.968
 5041POPC   C4A65418  38.653  30.630   7.419
 5041POPC   C1B65419  38.594  30.257   6.213
 5041POPC   C2B65420  38.355  30.475   6.524
 5041POPC   C3B65421  38.098  30.390   6.889
 5041POPC   C4B65422  38.193  30.269   7.313
 5042POPC   NC365423  16.744   1.004   5.357
 5042POPC   PO465424  16.866   1.678   5.404
 5042POPC   GL165425  16.723   1.365   5.745
 5042POPC   GL265426  16.813   0.999   5.847
 5042POPC   C1A65427  16.460   1.247   6.115
 5042POPC   D2A65428  16.525   1.073   6.549
 5042POPC   C3A65429  16.324   1.190   6.967
 5042POPC   C4A65430  16.531   1.210   7.390
 5042POPC   C1B65431  16.959   1.135   6.236
 5042POPC   C2B65432  17.102   1.145   6.654
 5042POPC   C3B65433  16.830   1.072   7.000
 5042POPC   C4B65434  16.923   0.856   7.399
 5043POPC   NC365435  42.836  39.174   5.272
 5043POPC   PO465436  42.196  39.478   5.487
 5043POPC   GL165437  42.484  39.561   5.829
 5043POPC   GL265438  42.732  39.300   5.862
 5043POPC   C1A65439  42.374  39.404   6.223
 5043POPC   D2A65440  42.188  39.142   6.521
 5043POPC   C3A65441  42.104  39.297   6.935
 5043POPC   C4A65442  42.098  38.895   7.156
 5043POPC   C1B65443  42.752  39.084   6.297
 5043POPC   C2B65444  42.642  39.262   6.720
 5043POPC   C3B65445  42.550  39.243   7.180
 5043POPC   C4B65446  42.540  39.531   7.546
 5044POPC   NC365447  11.385  43.158   5.406
 5044POPC   PO465448  10.736  43.099   5.373
 5044POPC   GL165449  11.016  43.134   5.754
 5044POPC   GL265450  11.283  42.876   5.826
 5044POPC   C1A65451  11.000  43.068   6.209
 5044POPC   D2A65452  11.194  43.041   6.645
 5044POPC   C3A65453  10.882  43.203   6.907
 5044POPC   C4A65454  10.800  43.208   7.305
 5044POPC   C1B65455  11.481  42.913   6.233
 5044POPC   C2B65456  11.659  42.817   6.641
 5044POPC   C3B65457  11.436  42.765   7.014
 5044POPC   C4B65458  11.315  43.124   7.193
 5045POPC   NC365459  20.243  37.682   5.484
 5045POPC   PO465460  20.808  37.778   5.150
 5045POPC   GL165461  20.707  37.778   5.693
 5045POPC   GL265462  20.373  37.931   5.885
 5045POPC   C1A65463  20.575  37.557   6.143
 5045POPC   D2A65464  20.428  37.570   6.609
 5045POPC   C3A65465  20.623  37.762   6.983
 5045POPC   C4A65466  20.892  37.703   7.378
 5045POPC   C1B65467  20.120  37.782   6.224
 5045POPC   C2B65468  20.010  37.909   6.632
 5045POPC   C3B65469  20.130  37.948   7.075
 5045POPC   C4B65470  20.156  37.814   7.539
 5046POPC   NC365471   7.821  12.877   5.624
 5046POPC   PO465472   7.217  12.648   5.345
 5046POPC   GL165473   7.156  12.722   5.816
 5046POPC   GL265474   7.189  13.070   5.912
 5046POPC   C1A65475   7.224  12.694   6.291
 5046POPC   D2A65476   7.652  12.675   6.495
 5046POPC   C3A65477   7.702  12.560   6.941
 5046POPC   C4A65478   7.392  12.582   7.270
 5046POPC   C1B65479   7.540  13.097   6.175
 5046POPC   C2B65480   7.428  13.146   6.573
 5046POPC   C3B65481   7.411  12.997   6.955
 5046POPC   C4B65482   7.648  13.067   7.275
 5047POPC   NC365483  24.191  16.223   5.637
 5047POPC   PO465484  24.557  15.740   5.286
 5047POPC   GL165485  24.478  15.771   5.770
 5047POPC   GL265486  24.342  16.038   6.067
 5047POPC   C1A65487  24.399  15.573   6.194
 5047POPC   D2A65488  24.350  15.828   6.575
 5047POPC   C3A65489  24.400  15.646   6.980
 5047POPC   C4A65490  24.658  15.750   7.313
 5047POPC   C1B65491  24.434  16.334   6.388
 5047POPC   C2B65492  24.725  16.515   6.664
 5047POPC   C3B65493  24.580  16.290   7.000
 5047POPC   C4B65494  24.188  16.128   7.024
 5048POPC   NC365495   2.223  19.708   5.527
 5048POPC   PO465496   1.595  19.878   5.384
 5048POPC   GL165497   1.865  19.997   5.725
 5048POPC   GL265498   1.829  19.669   5.883
 5048POPC   C1A65499   2.125  20.014   6.119
 5048POPC   D2A65500   1.907  19.964   6.528
 5048POPC   C3A65501   2.087  19.806   6.906
 5048POPC   C4A65502   2.220  19.995   7.284
 5048POPC   C1B65503   2.015  19.506   6.250
 5048POPC   C2B65504   1.756  19.436   6.591
 5048POPC   C3B65505   1.576  19.721   6.909
 5048POPC   C4B65506   1.729  19.820   7.345
 5049POPC   NC365507   4.076  11.653   5.379
 5049POPC   PO465508   4.331  12.283   5.409
 5049POPC   GL165509   4.376  11.952   5.739
 5049POPC   GL265510   4.047  11.830   5.850
 5049POPC   C1A65511   4.395  12.068   6.189
 5049POPC   D2A65512   4.590  12.231   6.563
 5049POPC   C3A65513   4.443  12.047   6.919
 5049POPC   C4A65514   4.378  12.251   7.255
 5049POPC   C1B65515   3.893  11.884   6.248
 5049POPC   C2B65516   4.042  11.810   6.655
 5049POPC   C3B65517   4.036  11.789   7.127
 5049POPC   C4B65518   3.914  11.822   7.584
 5050POPC   NC365519  41.859  32.035   5.410
 5050POPC   PO465520  41.597  32.608   5.190
 5050POPC   GL165521  41.672  32.348   5.725
 5050POPC   GL265522  41.537  32.033   5.809
 5050POPC   C1A65523  41.774  32.359   6.163
 5050POPC   D2A65524  41.566  32.548   6.516
 5050POPC   C3A65525  41.710  32.384   6.891
 5050POPC   C4A65526  41.543  32.269   7.260
 5050POPC   C1B65527  41.596  31.871   6.206
 5050POPC   C2B65528  41.522  32.003   6.620
 5050POPC   C3B65529  41.746  31.871   6.985
 5050POPC   C4B65530  41.444  31.781   7.267
 5051POPC   NC365531  16.798  22.539   5.562
 5051POPC   PO465532  16.790  21.802   5.571
 5051POPC   GL165533  16.661  22.131   5.825
 5051POPC   GL265534  16.997  22.170   5.917
 5051POPC   C1A65535  16.699  22.398   6.245
 5051POPC   D2A65536  16.830  22.414   6.685
 5051POPC   C3A65537  16.696  22.173   7.068
 5051POPC   C4A65538  16.659  22.368   7.516
 5051POPC   C1B65539  16.817  21.886   6.235
 5051POPC   C2B65540  16.888  21.908   6.640
 5051POPC   C3B65541  16.993  21.745   6.998
 5051POPC   C4B65542  17.005  21.938   7.402
 5052POPC   NC365543  12.237  30.570   5.406
 5052POPC   PO465544  11.769  31.054   5.365
 5052POPC   GL165545  11.935  31.022   5.785
 5052POPC   GL265546  12.150  30.718   5.880
 5052POPC   C1A65547  11.818  30.895   6.201
 5052POPC   D2A65548  12.050  30.650   6.457
 5052POPC   C3A65549  11.904  30.792   6.830
 5052POPC   C4A65550  12.117  30.870   7.179
 5052POPC   C1B65551  12.495  30.562   6.149
 5052POPC   C2B65552  12.488  30.363   6.545
 5052POPC   C3B65553  12.303  30.440   6.934
 5052POPC   C4B65554  12.419  30.260   7.315
 5053POPC   NC365555   9.289   1.310   5.420
 5053POPC   PO465556   8.798   0.802   5.406
 5053POPC   GL165557   9.016   0.946   5.793
 5053POPC   GL265558   9.091   1.304   5.892
 5053POPC   C1A65559   8.919   0.963   6.255
 5053POPC   D2A65560   9.130   0.900   6.665
 5053POPC   C3A65561   8.838   1.047   6.979
 5053POPC   C4A65562   8.580   1.409   7.098
 5053POPC   C1B65563   8.880   1.548   6.238
 5053POPC   C2B65564   8.929   1.538   6.695
 5053POPC   C3B65565   9.237   1.391   6.978
 5053POPC   C4B65566   9.373   1.031   7.153
 5054POPC   NC365567  35.501  43.463   5.382
 5054POPC   PO465568  35.100  42.885   5.512
 5054POPC   GL165569  35.288  43.029   5.904
 5054POPC   GL265570  35.549  43.302   5.863
 5054POPC   C1A65571  35.615  42.956   6.229
 5054POPC   D2A65572  35.688  43.098   6.636
 5054POPC   C3A65573  35.331  42.948   6.887
 5054POPC   C4A65574  35.380  42.721   7.229
 5054POPC   C1B65575  35.300  43.411   6.227
 5054POPC   C2B65576  35.238  43.407   6.652
 5054POPC   C3B65577  35.469  43.424   6.984
 5054POPC   C4B65578  35.401  43.234   7.349
 5055POPC   NC365579  21.614  40.766   5.315
 5055POPC   PO465580  21.065  40.409   5.599
 5055POPC   GL165581  21.339  40.767   5.789
 5055POPC   GL265582  21.657  40.998   5.746
 5055POPC   C1A65583  21.274  40.811   6.242
 5055POPC   D2A65584  21.278  40.548   6.630
 5055POPC   C3A65585  21.246  40.717   7.027
 5055POPC   C4A65586  21.398  40.540   7.408
 5055POPC   C1B65587  21.755  40.988   6.119
 5055POPC   C2B65588  21.667  41.149   6.488
 5055POPC   C3B65589  21.664  40.981   6.882
 5055POPC   C4B65590  21.570  41.015   7.291
 5056POPC   NC365591  26.479  30.586   5.490
 5056POPC   PO465592  26.871  31.032   5.159
 5056POPC   GL165593  26.656  30.986   5.719
 5056POPC   GL265594  26.628  30.630   5.950
 5056POPC   C1A65595  26.843  30.976   6.209
 5056POPC   D2A65596  26.897  30.625   6.483
 5056POPC   C3A65597  26.990  30.760   6.890
 5056POPC   C4A65598  27.097  30.587   7.258
 5056POPC   C1B65599  26.399  30.749   6.327
 5056POPC   C2B65600  26.535  30.944   6.728
 5056POPC   C3B65601  26.424  30.906   7.174
 5056POPC   C4B65602  26.632  30.670   7.454
 5057POPC   NC365603   5.381   5.630   5.339
 5057POPC   PO465604   4.876   5.203   5.475
 5057POPC   GL165605   5.153   5.316   5.738
 5057POPC   GL265606   5.342   4.966   5.725
 5057POPC   C1A65607   4.978   5.383   6.137
 5057POPC   D2A65608   4.896   5.127   6.460
 5057POPC   C3A65609   4.936   5.237   6.888
 5057POPC   C4A65610   5.217   5.237   7.240
 5057POPC   C1B65611   5.154   4.815   6.119
 5057POPC   C2B65612   5.127   4.663   6.538
 5057POPC   C3B65613   5.217   4.792   6.954
 5057POPC   C4B65614   4.928   4.777   7.298
 5058POPC   NC365615  18.499  15.310   5.305
 5058POPC   PO465616  18.413  14.743   5.572
 5058POPC   GL165617  18.434  15.018   5.912
 5058POPC   GL265618  18.466  15.390   5.808
 5058POPC   C1A65619  18.412  15.144   6.363
 5058POPC   D2A65620  18.090  15.367   6.627
 5058POPC   C3A65621  18.090  15.378   7.081
 5058POPC   C4A65622  18.280  15.057   7.340
 5058POPC   C1B65623  18.514  15.632   6.187
 5058POPC   C2B65624  18.352  15.798   6.545
 5058POPC   C3B65625  18.515  15.727   6.923
 5058POPC   C4B65626  18.550  15.499   7.276
 5059POPC   NC365627   5.584   2.473   5.595
 5059POPC   PO465628   6.037   2.809   5.149
 5059POPC   GL165629   6.066   2.797   5.662
 5059POPC   GL265630   6.027   2.529   5.860
 5059POPC   C1A65631   6.140   2.990   6.095
 5059POPC   D2A65632   6.182   2.937   6.557
 5059POPC   C3A65633   5.784   2.759   6.792
 5059POPC   C4A65634   5.695   2.819   7.263
 5059POPC   C1B65635   5.842   2.439   6.313
 5059POPC   C2B65636   5.761   2.230   6.730
 5059POPC   C3B65637   5.524   2.359   7.082
 5059POPC   C4B65638   5.584   2.364   7.542
 5060POPC   NC365639   6.056   1.689   5.590
 5060POPC   PO465640   5.546   1.251   5.484
 5060POPC   GL165641   5.875   1.261   5.834
 5060POPC   GL265642   6.262   1.232   5.728
 5060POPC   C1A65643   5.765   1.356   6.279
 5060POPC   D2A65644   5.561   1.138   6.642
 5060POPC   C3A65645   5.766   0.882   6.972
 5060POPC   C4A65646   5.974   0.965   7.348
 5060POPC   C1B65647   6.270   1.166   6.188
 5060POPC   C2B65648   6.083   1.128   6.617
 5060POPC   C3B65649   5.957   1.339   6.978
 5060POPC   C4B65650   6.135   1.579   7.236
 5061POPC   NC365651  31.193  28.785   5.338
 5061POPC   PO465652  31.736  29.272   5.216
 5061POPC   GL165653  31.554  29.198   5.688
 5061POPC   GL265654  31.556  28.847   5.713
 5061POPC   C1A65655  31.382  29.367   6.103
 5061POPC   D2A65656  31.274  29.542   6.526
 5061POPC   C3A65657  31.402  29.354   6.933
 5061POPC   C4A65658  31.442  29.322   7.418
 5061POPC   C1B65659  31.552  28.902   6.153
 5061POPC   C2B65660  31.304  28.962   6.515
 5061POPC   C3B65661  31.445  28.857   6.919
 5061POPC   C4B65662  31.277  28.838   7.355
 5062POPC   NC365663  19.295  23.300   5.483
 5062POPC   PO465664  18.983  22.822   5.452
 5062POPC   GL165665  18.787  22.837   5.888
 5062POPC   GL265666  18.697  23.181   5.897
 5062POPC   C1A65667  18.829  22.607   6.297
 5062POPC   D2A65668  19.155  22.521   6.640
 5062POPC   C3A65669  19.228  22.783   6.992
 5062POPC   C4A65670  18.782  22.886   7.126
 5062POPC   C1B65671  18.868  23.151   6.333
 5062POPC   C2B65672  19.020  23.185   6.765
 5062POPC   C3B65673  19.140  23.243   7.214
 5062POPC   C4B65674  19.133  23.386   7.652
 5063POPC   NC365675  14.852  18.929   5.315
 5063POPC   PO465676  15.411  19.260   5.349
 5063POPC   GL165677  15.392  19.046   5.763
 5063POPC   GL265678  15.035  18.974   5.817
 5063POPC   C1A65679  15.337  19.109   6.219
 5063POPC   D2A65680  15.052  19.274   6.543
 5063POPC   C3A65681  15.214  19.118   6.957
 5063POPC   C4A65682  14.956  19.135   7.328
 5063POPC   C1B65683  15.006  18.718   6.197
 5063POPC   C2B65684  15.023  18.782   6.633
 5063POPC   C3B65685  14.918  18.668   7.050
 5063POPC   C4B65686  15.067  18.670   7.484
 5064POPC   NC365687  14.944  23.096   5.559
 5064POPC   PO465688  15.431  22.616   5.351
 5064POPC   GL165689  15.317  22.745   5.779
 5064POPC   GL265690  15.001  22.624   5.899
 5064POPC   C1A65691  15.273  23.083   6.118
 5064POPC   D2A65692  15.165  23.321   6.498
 5064POPC   C3A65693  15.275  23.223   6.934
 5064POPC   C4A65694  15.097  23.181   7.354
 5064POPC   C1B65695  15.063  22.690   6.346
 5064POPC   C2B65696  15.299  22.729   6.718
 5064POPC   C3B65697  15.127  22.718   7.126
 5064POPC   C4B65698  15.018  22.719   7.578
 5065POPC   NC365699  14.237  32.325   5.454
 5065POPC   PO465700  14.696  32.629   5.798
 5065POPC   GL165701  14.502  32.186   5.882
 5065POPC   GL265702  14.615  31.977   6.150
 5065POPC   C1A65703  14.114  32.041   6.136
 5065POPC   D2A65704  13.905  31.991   6.553
 5065POPC   C3A65705  14.117  32.038   6.952
 5065POPC   C4A65706  14.532  31.899   7.082
 5065POPC   C1B65707  14.476  32.278   6.433
 5065POPC   C2B65708  14.299  32.478   6.784
 5065POPC   C3B65709  14.439  32.713   7.121
 5065POPC   C4B65710  14.733  32.643   7.471
 5066POPC   NC365711  18.634  19.359   5.605
 5066POPC   PO465712  17.981  19.260   5.430
 5066POPC   GL165713  17.902  19.189   5.814
 5066POPC   GL265714  18.253  19.075   5.868
 5066POPC   C1A65715  17.969  19.349   6.221
 5066POPC   D2A65716  18.190  19.140   6.561
 5066POPC   C3A65717  18.316  19.039   6.986
 5066POPC   C4A65718  18.165  19.163   7.424
 5066POPC   C1B65719  18.336  18.779   6.190
 5066POPC   C2B65720  18.501  18.728   6.582
 5066POPC   C3B65721  18.466  18.533   6.946
 5066POPC   C4B65722  18.409  18.668   7.328
 5067POPC   NC365723  15.045   5.305   5.257
 5067POPC   PO465724  15.460   4.939   5.600
 5067POPC   GL165725  15.218   5.299   5.796
 5067POPC   GL265726  14.969   5.595   5.738
 5067POPC   C1A65727  15.299   5.318   6.238
 5067POPC   D2A65728  15.521   5.158   6.606
 5067POPC   C3A65729  15.299   5.091   7.000
 5067POPC   C4A65730  15.366   4.897   7.398
 5067POPC   C1B65731  14.890   5.616   6.207
 5067POPC   C2B65732  14.941   5.326   6.608
 5067POPC   C3B65733  14.887   5.384   7.049
 5067POPC   C4B65734  15.171   5.375   7.430
 5068POPC   NC365735  31.656  10.817   5.517
 5068POPC   PO465736  31.313  10.217   5.488
 5068POPC   GL165737  31.447  10.490   5.834
 5068POPC   GL265738  31.296  10.822   5.920
 5068POPC   C1A65739  31.681  10.589   6.191
 5068POPC   D2A65740  31.503  10.544   6.578
 5068POPC   C3A65741  31.741  10.541   6.928
 5068POPC   C4A65742  31.546  10.447   7.342
 5068POPC   C1B65743  31.274  10.927   6.352
 5068POPC   C2B65744  31.207  10.901   6.798
 5068POPC   C3B65745  31.231  10.942   7.240
 5068POPC   C4B65746  31.380  10.834   7.672
 5069POPC   NC365747  33.162  26.626   5.080
 5069POPC   PO465748  32.624  26.918   5.418
 5069POPC   GL165749  32.801  26.774   5.863
 5069POPC   GL265750  33.138  26.617   5.839
 5069POPC   C1A65751  32.828  26.946   6.324
 5069POPC   D2A65752  32.967  26.667   6.683
 5069POPC   C3A65753  33.113  26.696   7.112
 5069POPC   C4A65754  32.849  26.600   7.453
 5069POPC   C1B65755  33.282  26.706   6.283
 5069POPC   C2B65756  33.466  26.794   6.729
 5069POPC   C3B65757  33.490  27.064   7.104
 5069POPC   C4B65758  33.451  26.982   7.541
 5070POPC   NC365759  22.584  20.537   5.019
 5070POPC   PO465760  22.196  20.539   5.498
 5070POPC   GL165761  22.304  20.543   5.879
 5070POPC   GL265762  22.391  20.168   5.836
 5070POPC   C1A65763  22.296  20.858   6.216
 5070POPC   D2A65764  22.192  20.738   6.622
 5070POPC   C3A65765  21.924  20.847   6.931
 5070POPC   C4A65766  22.123  20.758   7.316
 5070POPC   C1B65767  22.473  20.289   6.259
 5070POPC   C2B65768  22.283  20.196   6.606
 5070POPC   C3B65769  22.296  20.383   6.976
 5070POPC   C4B65770  22.316  20.277   7.391
 5071POPC   NC365771  17.621   9.105   5.338
 5071POPC   PO465772  16.952   9.149   5.452
 5071POPC   GL165773  17.275   9.123   5.725
 5071POPC   GL265774  17.255   8.754   5.754
 5071POPC   C1A65775  17.296   9.104   6.171
 5071POPC   D2A65776  17.369   8.840   6.524
 5071POPC   C3A65777  17.593   8.973   6.878
 5071POPC   C4A65778  17.420   9.029   7.249
 5071POPC   C1B65779  17.585   8.644   6.063
 5071POPC   C2B65780  17.737   8.462   6.467
 5071POPC   C3B65781  17.907   8.556   6.887
 5071POPC   C4B65782  17.809   8.686   7.302
 5072POPC   NC365783  13.286  28.741   5.472
 5072POPC   PO465784  13.002  29.342   5.504
 5072POPC   GL165785  13.097  29.061   5.824
 5072POPC   GL265786  12.750  29.077   5.902
 5072POPC   C1A65787  13.085  28.898   6.246
 5072POPC   D2A65788  12.824  28.907   6.595
 5072POPC   C3A65789  13.112  28.883   6.907
 5072POPC   C4A65790  13.391  28.744   7.223
 5072POPC   C1B65791  12.465  29.146   6.258
 5072POPC   C2B65792  12.526  29.336   6.662
 5072POPC   C3B65793  12.734  29.272   7.033
 5072POPC   C4B65794  12.723  28.907   7.235
 5073POPC   NC365795  23.399   5.897   5.569
 5073POPC   PO465796  23.921   5.567   5.246
 5073POPC   GL165797  23.775   5.553   5.741
 5073POPC   GL265798  23.548   5.775   6.025
 5073POPC   C1A65799  23.968   5.575   6.170
 5073POPC   D2A65800  24.185   5.652   6.542
 5073POPC   C3A65801  24.025   5.847   6.887
 5073POPC   C4A65802  23.739   5.841   7.249
 5073POPC   C1B65803  23.639   5.842   6.498
 5073POPC   C2B65804  23.580   6.136   6.866
 5073POPC   C3B65805  23.559   6.372   7.288
 5073POPC   C4B65806  23.523   6.583   7.720
 5074POPC   NC365807   7.114  20.889   5.370
 5074POPC   PO465808   7.764  20.673   5.472
 5074POPC   GL165809   7.645  20.719   5.870
 5074POPC   GL265810   7.280  20.799   5.883
 5074POPC   C1A65811   7.507  20.363   6.123
 5074POPC   D2A65812   7.238  20.351   6.477
 5074POPC   C3A65813   7.472  20.315   6.830
 5074POPC   C4A65814   7.533  20.467   7.202
 5074POPC   C1B65815   7.407  20.824   6.329
 5074POPC   C2B65816   7.503  20.826   6.798
 5074POPC   C3B65817   7.421  20.947   7.233
 5074POPC   C4B65818   7.588  21.026   7.646
 5075POPC   NC365819   6.209  17.446   5.313
 5075POPC   PO465820   5.739  17.943   5.411
 5075POPC   GL165821   5.735  17.540   5.707
 5075POPC   GL265822   6.079  17.376   5.791
 5075POPC   C1A65823   5.712  17.268   6.115
 5075POPC   D2A65824   5.829  17.420   6.554
 5075POPC   C3A65825   5.788  17.291   6.989
 5075POPC   C4A65826   5.615  17.508   7.356
 5075POPC   C1B65827   6.226  17.402   6.209
 5075POPC   C2B65828   6.285  17.654   6.573
 5075POPC   C3B65829   6.153  17.670   6.974
 5075POPC   C4B65830   6.238  17.380   7.275
 5076POPC   NC365831  40.089  39.001   5.273
 5076POPC   PO465832  39.723  39.579   5.432
 5076POPC   GL165833  39.871  39.238   5.730
 5076POPC   GL265834  40.167  38.996   5.762
 5076POPC   C1A65835  39.919  39.250   6.189
 5076POPC   D2A65836  39.850  39.013   6.588
 5076POPC   C3A65837  40.034  39.199   6.940
 5076POPC   C4A65838  39.889  39.289   7.333
 5076POPC   C1B65839  40.404  39.070   6.114
 5076POPC   C2B65840  40.361  39.287   6.512
 5076POPC   C3B65841  40.541  39.133   6.882
 5076POPC   C4B65842  40.399  39.017   7.272
 5077POPC   NC365843   0.668  11.865   5.569
 5077POPC   PO465844   0.213  12.376   5.390
 5077POPC   GL165845   0.321  12.288   5.814
 5077POPC   GL265846   0.518  12.492   6.038
 5077POPC   C1A65847   0.386  12.023   6.175
 5077POPC   D2A65848   0.545  11.999   6.572
 5077POPC   C3A65849   0.268  11.770   6.839
 5077POPC   C4A65850   0.364  11.628   7.211
 5077POPC   C1B65851   0.878  12.384   6.328
 5077POPC   C2B65852   0.947  12.350   6.782
 5077POPC   C3B65853   0.708  12.034   7.051
 5077POPC   C4B65854   0.710  11.835   7.484
 5078POPC   NC365855   0.504   8.121   5.191
 5078POPC   PO465856  44.990   8.440   5.431
 5078POPC   GL165857   0.244   8.183   5.707
 5078POPC   GL265858   0.574   8.291   5.671
 5078POPC   C1A65859   0.349   7.901   6.088
 5078POPC   D2A65860   0.309   7.759   6.517
 5078POPC   C3A65861   0.343   8.008   6.914
 5078POPC   C4A65862   0.540   8.079   7.292
 5078POPC   C1B65863   0.528   8.378   6.115
 5078POPC   C2B65864   0.591   8.269   6.540
 5078POPC   C3B65865   0.699   8.437   6.956
 5078POPC   C4B65866   0.515   8.586   7.335
 5079POPC   NC365867  33.724  41.114   5.533
 5079POPC   PO465868  33.944  40.481   5.446
 5079POPC   GL165869  33.799  40.558   5.843
 5079POPC   GL265870  33.979  40.843   5.870
 5079POPC   C1A65871  33.995  40.478   6.247
 5079POPC   D2A65872  33.856  40.288   6.626
 5079POPC   C3A65873  33.827  40.491   7.031
 5079POPC   C4A65874  34.039  40.650   7.389
 5079POPC   C1B65875  33.751  40.913   6.224
 5079POPC   C2B65876  33.751  41.242   6.491
 5079POPC   C3B65877  33.676  41.246   6.931
 5079POPC   C4B65878  33.637  40.952   7.262
 5080POPC   NC365879  38.600   7.028   5.481
 5080POPC   PO465880  38.267   6.510   5.210
 5080POPC   GL165881  38.258   6.559   5.745
 5080POPC   GL265882  38.507   6.781   5.935
 5080POPC   C1A65883  38.133   6.588   6.222
 5080POPC   D2A65884  38.318   6.829   6.608
 5080POPC   C3A65885  38.394   6.603   7.011
 5080POPC   C4A65886  38.110   6.370   7.248
 5080POPC   C1B65887  38.692   6.618   6.339
 5080POPC   C2B65888  38.851   6.618   6.793
 5080POPC   C3B65889  38.836   6.413   7.224
 5080POPC   C4B65890  38.861   6.535   7.689
 5081POPC   NC365891   1.144  40.115   5.316
 5081POPC   PO465892   1.101  39.514   5.673
 5081POPC   GL165893   1.192  39.971   5.809
 5081POPC   GL265894   1.265  39.817   6.105
 5081POPC   C1A65895   1.202  40.306   6.169
 5081POPC   D2A65896   1.030  40.156   6.578
 5081POPC   C3A65897   1.195  40.333   6.978
 5081POPC   C4A65898   1.282  40.351   7.421
 5081POPC   C1B65899   1.008  39.626   6.403
 5081POPC   C2B65900   1.007  39.664   6.867
 5081POPC   C3B65901   1.188  39.873   7.218
 5081POPC   C4B65902   1.135  39.883   7.644
 5082POPC   NC365903  29.050  23.878   5.318
 5082POPC   PO465904  29.369  24.496   5.290
 5082POPC   GL165905  29.196  24.678   5.748
 5082POPC   GL265906  29.060  24.391   5.869
 5082POPC   C1A65907  29.077  24.730   6.215
 5082POPC   D2A65908  28.997  24.518   6.595
 5082POPC   C3A65909  29.297  24.642   6.891
 5082POPC   C4A65910  29.408  24.492   7.291
 5082POPC   C1B65911  29.339  24.263   6.256
 5082POPC   C2B65912  29.396  24.165   6.713
 5082POPC   C3B65913  29.526  24.021   7.134
 5082POPC   C4B65914  29.319  24.068   7.555
 5083POPC   NC365915  41.556  37.133   5.380
 5083POPC   PO465916  42.038  36.669   5.380
 5083POPC   GL165917  41.915  36.957   5.745
 5083POPC   GL265918  41.542  36.934   5.843
 5083POPC   C1A65919  41.855  36.978   6.210
 5083POPC   D2A65920  41.793  36.762   6.550
 5083POPC   C3A65921  41.852  36.973   6.904
 5083POPC   C4A65922  41.647  36.950   7.275
 5083POPC   C1B65923  41.323  36.900   6.242
 5083POPC   C2B65924  41.276  36.717   6.623
 5083POPC   C3B65925  41.202  36.850   7.019
 5083POPC   C4B65926  41.173  36.957   7.446
 5084POPC   NC365927  20.470  22.223   5.124
 5084POPC   PO465928  20.956  22.383   5.573
 5084POPC   GL165929  20.571  22.237   5.778
 5084POPC   GL265930  20.349  21.934   5.855
 5084POPC   C1A65931  20.505  22.399   6.207
 5084POPC   D2A65932  20.816  22.397   6.556
 5084POPC   C3A65933  20.783  22.188   6.973
 5084POPC   C4A65934  20.591  22.514   7.161
 5084POPC   C1B65935  20.470  21.891   6.282
 5084POPC   C2B65936  20.395  21.954   6.725
 5084POPC   C3B65937  20.182  21.719   7.065
 5084POPC   C4B65938  20.370  21.675   7.500
 5085POPC   NC365939  20.970  40.005   5.381
 5085POPC   PO465940  21.632  40.284   5.295
 5085POPC   GL165941  21.487  40.122   5.741
 5085POPC   GL265942  21.168  39.971   5.844
 5085POPC   C1A65943  21.550  39.947   6.176
 5085POPC   D2A65944  21.634  40.175   6.548
 5085POPC   C3A65945  21.519  40.113   6.977
 5085POPC   C4A65946  21.459  39.745   7.222
 5085POPC   C1B65947  21.142  40.243   6.230
 5085POPC   C2B65948  21.167  39.971   6.583
 5085POPC   C3B65949  21.033  39.885   6.970
 5085POPC   C4B65950  21.128  40.141   7.292
 5086POPC   NC365951  19.170   8.621   5.364
 5086POPC   PO465952  19.065   9.299   5.447
 5086POPC   GL165953  18.973   9.043   5.833
 5086POPC   GL265954  19.259   9.209   5.949
 5086POPC   C1A65955  18.832   8.853   6.269
 5086POPC   D2A65956  19.044   8.676   6.668
 5086POPC   C3A65957  18.901   8.793   7.099
 5086POPC   C4A65958  18.944   8.939   7.535
 5086POPC   C1B65959  19.085   9.292   6.345
 5086POPC   C2B65960  18.904   9.160   6.725
 5086POPC   C3B65961  18.978   9.328   7.139
 5086POPC   C4B65962  19.264   9.330   7.513
 5087POPC   NC365963  35.980  39.743   5.285
 5087POPC   PO465964  36.305  40.281   5.456
 5087POPC   GL165965  36.120  40.011   5.769
 5087POPC   GL265966  35.963  39.657   5.801
 5087POPC   C1A65967  36.153  39.977   6.179
 5087POPC   D2A65968  36.270  40.146   6.561
 5087POPC   C3A65969  35.942  40.191   6.848
 5087POPC   C4A65970  36.003  39.948   7.219
 5087POPC   C1B65971  35.788  39.629   6.257
 5087POPC   C2B65972  35.772  39.686   6.737
 5087POPC   C3B65973  35.991  39.456   7.092
 5087POPC   C4B65974  35.977  39.522   7.562
 5088POPC   NC365975   7.619  12.513   5.169
 5088POPC   PO465976   7.382  11.919   5.389
 5088POPC   GL165977   7.298  11.924   5.849
 5088POPC   GL265978   7.088  12.203   6.024
 5088POPC   C1A65979   7.538  12.015   6.236
 5088POPC   D2A65980   7.390  12.246   6.587
 5088POPC   C3A65981   7.565  12.056   6.934
 5088POPC   C4A65982   7.703  11.835   7.260
 5088POPC   C1B65983   7.060  11.848   6.328
 5088POPC   C2B65984   7.064  11.888   6.761
 5088POPC   C3B65985   7.094  12.222   7.036
 5088POPC   C4B65986   7.261  12.098   7.382
 5089POPC   NC365987  32.582   8.337   5.299
 5089POPC   PO465988  32.169   7.839   5.420
 5089POPC   GL165989  32.135   8.056   5.801
 5089POPC   GL265990  32.301   8.389   5.732
 5089POPC   C1A65991  32.100   7.941   6.237
 5089POPC   D2A65992  31.897   7.869   6.636
 5089POPC   C3A65993  32.162   7.960   6.931
 5089POPC   C4A65994  32.058   8.151   7.286
 5089POPC   C1B65995  32.283   8.412   6.170
 5089POPC   C2B65996  32.097   8.360   6.594
 5089POPC   C3B65997  32.329   8.458   6.996
 5089POPC   C4B65998  32.393   8.655   7.428
 5090POPC   NC365999   0.598  20.446   5.357
 5090POPC   PO466000   0.604  21.039   5.470
 5090POPC   GL166001   0.595  20.712   5.798
 5090POPC   GL266002   0.866  20.431   5.800
 5090POPC   C1A66003   0.448  20.743   6.220
 5090POPC   D2A66004   0.670  20.797   6.596
 5090POPC   C3A66005   0.556  20.581   6.975
 5090POPC   C4A66006   0.183  20.662   7.144
 5090POPC   C1B66007   0.667  20.287   6.187
 5090POPC   C2B66008   0.818  20.317   6.615
 5090POPC   C3B66009   0.786  20.129   7.046
 5090POPC   C4B66010   0.491  20.170   7.393
 5091POPC   NC366011   6.397  34.031   5.492
 5091POPC   PO466012   6.836  33.546   5.267
 5091POPC   GL166013   6.623  33.559   5.686
 5091POPC   GL266014   6.712  33.865   5.872
 5091POPC   C1A66015   6.515  33.476   6.134
 5091POPC   D2A66016   6.626  33.724   6.495
 5091POPC   C3A66017   6.778  33.609   6.891
 5091POPC   C4A66018   6.817  33.931   7.206
 5091POPC   C1B66019   6.322  33.964   6.156
 5091POPC   C2B66020   6.293  34.123   6.593
 5091POPC   C3B66021   6.344  33.863   6.949
 5091POPC   C4B66022   6.322  33.812   7.367
 5092POPC   NC366023  10.511  41.257   5.467
 5092POPC   PO466024  10.645  41.960   5.463
 5092POPC   GL166025  10.462  41.685   5.768
 5092POPC   GL266026  10.788  41.522   5.808
 5092POPC   C1A66027  10.292  41.656   6.208
 5092POPC   D2A66028  10.365  41.457   6.636
 5092POPC   C3A66029  10.520  41.726   6.986
 5092POPC   C4A66030  10.826  41.657   7.324
 5092POPC   C1B66031  10.682  41.290   6.192
 5092POPC   C2B66032  10.736  41.069   6.599
 5092POPC   C3B66033  10.800  41.202   7.026
 5092POPC   C4B66034  10.446  41.311   7.268
 5093POPC   NC366035  24.183  11.488   4.959
 5093POPC   PO466036  24.596  11.185   5.496
 5093POPC   GL166037  24.857  11.218   5.877
 5093POPC   GL266038  24.747  11.547   5.904
 5093POPC   C1A66039  24.887  11.303   6.338
 5093POPC   D2A66040  24.580  11.369   6.684
 5093POPC   C3A66041  24.569  11.174   7.105
 5093POPC   C4A66042  24.354  11.093   7.522
 5093POPC   C1B66043  24.530  11.681   6.256
 5093POPC   C2B66044  24.494  11.875   6.657
 5093POPC   C3B66045  24.275  11.635   6.998
 5093POPC   C4B66046  24.076  11.515   7.355
 5094POPC   NC366047  44.305  41.236   5.312
 5094POPC   PO466048  44.985  41.429   5.241
 5094POPC   GL166049  44.829  41.357   5.690
 5094POPC   GL266050  44.650  41.612   5.952
 5094POPC   C1A66051   0.012  41.261   6.119
 5094POPC   D2A66052  44.722  41.256   6.482
 5094POPC   C3A66053  44.768  41.599   6.796
 5094POPC   C4A66054  44.815  41.566   7.241
 5094POPC   C1B66055  44.298  41.814   6.227
 5094POPC   C2B66056  44.193  41.833   6.688
 5094POPC   C3B66057  44.336  41.702   7.096
 5094POPC   C4B66058  44.530  41.943   7.423
 5095POPC   NC366059  38.839   0.610   5.510
 5095POPC   PO466060  38.186   0.524   5.537
 5095POPC   GL166061  38.204   0.253   5.885
 5095POPC   GL266062  38.520   0.431   5.926
 5095POPC   C1A66063  38.275   0.249   6.339
 5095POPC   D2A66064  38.291   0.657   6.590
 5095POPC   C3A66065  38.158   0.545   7.001
 5095POPC   C4A66066  38.201   0.126   7.176
 5095POPC   C1B66067  38.716   0.533   6.297
 5095POPC   C2B66068  38.712   0.300   6.686
 5095POPC   C3B66069  38.659   0.378   7.103
 5095POPC   C4B66070  38.503   0.719   7.321
 5096POPC   NC366071  25.163   5.675   5.357
 5096POPC   PO466072  25.819   5.730   5.305
 5096POPC   GL166073  25.558   5.917   5.723
 5096POPC   GL266074  25.184   6.005   5.777
 5096POPC   C1A66075  25.513   6.046   6.170
 5096POPC   D2A66076  25.504   5.911   6.634
 5096POPC   C3A66077  25.454   6.108   7.044
 5096POPC   C4A66078  25.569   5.973   7.488
 5096POPC   C1B66079  25.025   5.879   6.186
 5096POPC   C2B66080  24.997   6.064   6.598
 5096POPC   C3B66081  24.974   5.911   6.976
 5096POPC   C4B66082  24.947   6.040   7.378
 5097POPC   NC366083   6.441  14.109   5.441
 5097POPC   PO466084   6.759  13.492   5.406
 5097POPC   GL166085   6.879  13.726   5.756
 5097POPC   GL266086   6.834  13.448   5.931
 5097POPC   C1A66087   6.907  13.876   6.181
 5097POPC   D2A66088   6.681  13.971   6.550
 5097POPC   C3A66089   6.809  13.789   6.938
 5097POPC   C4A66090   6.576  13.900   7.322
 5097POPC   C1B66091   6.509  13.531   6.257
 5097POPC   C2B66092   6.485  13.405   6.697
 5097POPC   C3B66093   6.500  13.418   7.154
 5097POPC   C4B66094   6.387  13.500   7.590
 5098POPC   NC366095  28.909  18.538   5.646
 5098POPC   PO466096  28.501  17.988   5.371
 5098POPC   GL166097  28.561  18.173   5.762
 5098POPC   GL266098  28.234  18.254   5.918
 5098POPC   C1A66099  28.678  18.177   6.171
 5098POPC   D2A66100  28.388  18.116   6.477
 5098POPC   C3A66101  28.544  18.140   6.877
 5098POPC   C4A66102  28.369  18.049   7.291
 5098POPC   C1B66103  28.340  18.578   6.222
 5098POPC   C2B66104  28.486  18.599   6.656
 5098POPC   C3B66105  28.295  18.525   7.079
 5098POPC   C4B66106  28.585  18.682   7.398
 5099POPC   NC366107  37.761   4.007   5.093
 5099POPC   PO466108  37.801   4.632   5.230
 5099POPC   GL166109  37.711   4.408   5.634
 5099POPC   GL266110  37.870   4.096   5.637
 5099POPC   C1A66111  37.538   4.549   6.067
 5099POPC   D2A66112  37.299   4.652   6.459
 5099POPC   C3A66113  37.340   4.445   6.824
 5099POPC   C4A66114  37.587   4.483   7.193
 5099POPC   C1B66115  37.594   4.032   6.025
 5099POPC   C2B66116  37.594   4.184   6.442
 5099POPC   C3B66117  37.734   4.124   6.860
 5099POPC   C4B66118  37.496   3.977   7.159
 5100POPC   NC366119  35.555   0.802   5.569
 5100POPC   PO466120  35.120   0.296   5.381
 5100POPC   GL166121  35.355   0.297   5.776
 5100POPC   GL266122  35.165  44.974   5.828
 5100POPC   C1A66123  35.553   0.473   6.182
 5100POPC   D2A66124  35.431   0.504   6.622
 5100POPC   C3A66125  35.670   0.633   6.999
 5100POPC   C4A66126  35.375   0.536   7.301
 5100POPC   C1B66127  35.135   0.129   6.261
 5100POPC   C2B66128  35.200   0.044   6.698
 5100POPC   C3B66129  35.038   0.194   7.069
 5100POPC   C4B66130  34.899   0.337   7.449
 5101POPC   NC366131  30.099  32.734   5.336
 5101POPC   PO466132  30.165  33.389   5.255
 5101POPC   GL166133  29.978  33.142   5.631
 5101POPC   GL266134  29.762  32.844   5.715
 5101POPC   C1A66135  29.965  33.154   6.103
 5101POPC   D2A66136  29.909  33.394   6.492
 5101POPC   C3A66137  29.768  33.169   6.838
 5101POPC   C4A66138  29.790  33.085   7.279
 5101POPC   C1B66139  29.551  32.839   6.126
 5101POPC   C2B66140  29.647  32.735   6.577
 5101POPC   C3B66141  29.515  32.725   7.031
 5101POPC   C4B66142  29.508  32.718   7.525
 5102POPC   NC366143  28.716  42.421   5.303
 5102POPC   PO466144  28.212  41.972   5.328
 5102POPC   GL166145  28.185  42.271   5.730
 5102POPC   GL266146  28.287  42.608   5.637
 5102POPC   C1A66147  28.281  42.242   6.201
 5102POPC   D2A66148  28.069  42.251   6.619
 5102POPC   C3A66149  28.295  42.169   7.004
 5102POPC   C4A66150  28.418  42.429   7.348
 5102POPC   C1B66151  28.276  42.744   6.090
 5102POPC   C2B66152  28.396  42.675   6.551
 5102POPC   C3B66153  28.495  42.772   6.998
 5102POPC   C4B66154  28.648  42.930   7.410
 5103POPC   NC366155   4.847   2.099   5.207
 5103POPC   PO466156   4.213   2.111   5.422
 5103POPC   GL166157   4.367   2.111   5.812
 5103POPC   GL266158   4.658   1.891   5.820
 5103POPC   C1A66159   4.263   1.915   6.186
 5103POPC   D2A66160   4.384   1.961   6.577
 5103POPC   C3A66161   4.138   1.917   6.931
 5103POPC   C4A66162   4.287   2.056   7.311
 5103POPC   C1B66163   4.755   1.701   6.206
 5103POPC   C2B66164   4.803   1.694   6.640
 5103POPC   C3B66165   4.678   1.915   6.996
 5103POPC   C4B66166   4.810   1.812   7.388
 5104POPC   NC366167  30.782   0.868   5.204
 5104POPC   PO466168  30.389   0.357   5.489
 5104POPC   GL166169  30.711   0.337   5.812
 5104POPC   GL266170  30.588   0.622   5.914
 5104POPC   C1A66171  30.966   0.338   6.206
 5104POPC   D2A66172  30.961   0.080   6.576
 5104POPC   C3A66173  31.107   0.168   7.008
 5104POPC   C4A66174  30.953   0.316   7.427
 5104POPC   C1B66175  30.474   0.356   6.288
 5104POPC   C2B66176  30.579   0.513   6.669
 5104POPC   C3B66177  30.733   0.583   7.054
 5104POPC   C4B66178  30.632   0.725   7.454
 5105POPC   NC366179  16.386   1.647   5.388
 5105POPC   PO466180  16.745   2.219   5.511
 5105POPC   GL166181  16.554   2.158   5.872
 5105POPC   GL266182  16.601   1.833   5.909
 5105POPC   C1A66183  16.418   2.156   6.277
 5105POPC   D2A66184  16.485   2.338   6.646
 5105POPC   C3A66185  16.759   2.101   6.918
 5105POPC   C4A66186  16.729   2.057   7.359
 5105POPC   C1B66187  16.764   1.619   6.298
 5105POPC   C2B66188  16.764   1.540   6.759
 5105POPC   C3B66189  16.873   1.584   7.204
 5105POPC   C4B66190  16.609   1.656   7.631
 5106POPC   NC366191  21.778  20.132   5.450
 5106POPC   PO466192  21.218  19.712   5.383
 5106POPC   GL166193  21.423  19.864   5.741
 5106POPC   GL266194  21.308  20.160   5.793
 5106POPC   C1A66195  21.194  19.806   6.173
 5106POPC   D2A66196  21.301  19.715   6.569
 5106POPC   C3A66197  21.085  19.710   6.938
 5106POPC   C4A66198  21.314  19.715   7.317
 5106POPC   C1B66199  21.547  20.159   6.158
 5106POPC   C2B66200  21.376  20.224   6.549
 5106POPC   C3B66201  21.471  20.058   6.942
 5106POPC   C4B66202  21.387  20.243   7.320
 5107POPC   NC366203   6.576  31.744   5.437
 5107POPC   PO466204   6.820  31.069   5.423
 5107POPC   GL166205   6.875  31.321   5.786
 5107POPC   GL266206   6.533  31.361   5.868
 5107POPC   C1A66207   6.886  31.512   6.221
 5107POPC   D2A66208   6.652  31.470   6.577
 5107POPC   C3A66209   6.797  31.394   6.962
 5107POPC   C4A66210   7.017  31.623   7.248
 5107POPC   C1B66211   6.285  31.364   6.256
 5107POPC   C2B66212   6.181  31.348   6.706
 5107POPC   C3B66213   6.239  31.378   7.159
 5107POPC   C4B66214   6.538  31.490   7.477
 5108POPC   NC366215  34.125   7.575   5.321
 5108POPC   PO466216  33.583   7.293   5.086
 5108POPC   GL166217  33.654   7.432   5.601
 5108POPC   GL266218  33.934   7.644   5.783
 5108POPC   C1A66219  33.670   7.354   6.116
 5108POPC   D2A66220  33.796   7.493   6.569
 5108POPC   C3A66221  33.786   7.293   6.992
 5108POPC   C4A66222  33.790   7.597   7.332
 5108POPC   C1B66223  34.142   7.564   6.195
 5108POPC   C2B66224  34.322   7.563   6.612
 5108POPC   C3B66225  34.267   7.472   7.054
 5108POPC   C4B66226  34.107   7.232   7.435
 5109POPC   NC366227  14.460  37.798   5.485
 5109POPC   PO466228  14.164  37.262   5.616
 5109POPC   GL166229  14.297  37.548   5.928
 5109POPC   GL266230  14.238  37.923   5.933
 5109POPC   C1A66231  14.487  37.560   6.325
 5109POPC   D2A66232  14.512  37.718   6.717
 5109POPC   C3A66233  14.404  37.443   7.031
 5109POPC   C4A66234  14.654  37.571   7.345
 5109POPC   C1B66235  13.975  38.174   6.257
 5109POPC   C2B66236  13.929  38.122   6.708
 5109POPC   C3B66237  14.134  37.883   7.025
 5109POPC   C4B66238  14.216  37.869   7.451
 5110POPC   NC366239  39.643  35.632   5.461
 5110POPC   PO466240  39.580  36.294   5.404
 5110POPC   GL166241  39.340  36.201   5.803
 5110POPC   GL266242  39.035  36.083   5.770
 5110POPC   C1A66243  39.166  36.312   6.228
 5110POPC   D2A66244  38.911  36.296   6.617
 5110POPC   C3A66245  39.124  36.342   7.029
 5110POPC   C4A66246  39.290  36.095   7.418
 5110POPC   C1B66247  39.025  35.832   6.199
 5110POPC   C2B66248  39.239  35.903   6.570
 5110POPC   C3B66249  38.989  35.871   6.896
 5110POPC   C4B66250  38.960  35.731   7.286
 5111POPC   NC366251   6.849  40.985   5.407
 5111POPC   PO466252   6.434  40.536   5.626
 5111POPC   GL166253   6.612  40.902   5.843
 5111POPC   GL266254   6.972  40.786   5.842
 5111POPC   C1A66255   6.478  41.073   6.232
 5111POPC   D2A66256   6.353  40.800   6.571
 5111POPC   C3A66257   6.556  40.835   6.953
 5111POPC   C4A66258   6.426  40.720   7.363
 5111POPC   C1B66259   6.818  40.639   6.215
 5111POPC   C2B66260   7.075  40.497   6.490
 5111POPC   C3B66261   6.962  40.326   6.838
 5111POPC   C4B66262   6.875  40.522   7.188
 5112POPC   NC366263  13.063   3.368   5.154
 5112POPC   PO466264  12.791   3.991   5.307
 5112POPC   GL166265  12.778   3.777   5.729
 5112POPC   GL266266  13.054   3.581   5.894
 5112POPC   C1A66267  12.626   3.672   6.160
 5112POPC   D2A66268  12.927   3.735   6.495
 5112POPC   C3A66269  12.893   3.642   6.902
 5112POPC   C4A66270  13.062   3.587   7.275
 5112POPC   C1B66271  12.926   3.282   6.267
 5112POPC   C2B66272  13.042   3.177   6.656
 5112POPC   C3B66273  12.842   3.138   7.007
 5112POPC   C4B66274  13.020   3.076   7.340
 5113POPC   NC366275  25.340  39.528   5.618
 5113POPC   PO466276  25.191  38.855   5.571
 5113POPC   GL166277  25.423  39.111   5.895
 5113POPC   GL266278  25.645  39.437   5.998
 5113POPC   C1A66279  25.155  39.327   6.219
 5113POPC   D2A66280  24.925  39.049   6.494
 5113POPC   C3A66281  25.015  38.999   6.949
 5113POPC   C4A66282  25.111  39.426   7.098
 5113POPC   C1B66283  25.620  39.175   6.358
 5113POPC   C2B66284  25.375  39.261   6.687
 5113POPC   C3B66285  25.517  39.110   7.027
 5113POPC   C4B66286  25.809  39.363   7.153
 5114POPC   NC366287   7.899  10.137   5.129
 5114POPC   PO466288   8.316  10.530   5.470
 5114POPC   GL166289   8.275  10.544   5.862
 5114POPC   GL266290   8.594  10.438   5.904
 5114POPC   C1A66291   8.123  10.601   6.246
 5114POPC   D2A66292   8.349  10.750   6.583
 5114POPC   C3A66293   8.238  10.619   6.979
 5114POPC   C4A66294   7.911  10.522   7.262
 5114POPC   C1B66295   8.558  10.339   6.322
 5114POPC   C2B66296   8.689  10.355   6.732
 5114POPC   C3B66297   8.536  10.120   7.055
 5114POPC   C4B66298   8.388  10.344   7.388
 5115POPC   NC366299   7.004  12.271   5.525
 5115POPC   PO466300   6.389  12.019   5.343
 5115POPC   GL166301   6.454  11.895   5.818
 5115POPC   GL266302   6.795  11.759   5.881
 5115POPC   C1A66303   6.616  12.099   6.231
 5115POPC   D2A66304   6.851  12.320   6.571
 5115POPC   C3A66305   6.599  12.278   6.963
 5115POPC   C4A66306   6.269  12.022   7.179
 5115POPC   C1B66307   6.592  11.594   6.294
 5115POPC   C2B66308   6.569  11.757   6.760
 5115POPC   C3B66309   6.781  11.836   7.195
 5115POPC   C4B66310   6.941  11.766   7.630
 5116POPC   NC366311  24.087  29.360   5.026
 5116POPC   PO466312  23.761  28.870   5.439
 5116POPC   GL166313  23.724  29.040   5.808
 5116POPC   GL266314  23.483  29.305   5.741
 5116POPC   C1A66315  23.842  29.175   6.182
 5116POPC   D2A66316  23.935  29.364   6.561
 5116POPC   C3A66317  24.195  29.169   6.840
 5116POPC   C4A66318  23.988  29.047   7.188
 5116POPC   C1B66319  23.319  29.257   6.156
 5116POPC   C2B66320  23.392  28.955   6.482
 5116POPC   C3B66321  23.573  28.929   6.878
 5116POPC   C4B66322  23.480  29.012   7.303
 5117POPC   NC366323   0.330  17.883   5.462
 5117POPC   PO466324   0.739  17.424   5.210
 5117POPC   GL166325   0.744  17.436   5.745
 5117POPC   GL266326   0.424  17.315   5.912
 5117POPC   C1A66327   0.775  17.569   6.197
 5117POPC   D2A66328   0.634  17.434   6.570
 5117POPC   C3A66329   0.656  17.545   6.976
 5117POPC   C4A66330   0.922  17.411   7.293
 5117POPC   C1B66331   0.268  17.617   6.247
 5117POPC   C2B66332   0.199  17.708   6.686
 5117POPC   C3B66333   0.166  17.670   7.111
 5117POPC   C4B66334   0.300  17.259   7.183
 5118POPC   NC366335   9.499  42.319   5.360
 5118POPC   PO466336   9.863  41.753   5.234
 5118POPC   GL166337   9.746  41.984   5.679
 5118POPC   GL266338   9.463  42.174   5.834
 5118POPC   C1A66339   9.857  41.982   6.135
 5118POPC   D2A66340   9.885  42.289   6.452
 5118POPC   C3A66341   9.906  42.228   6.909
 5118POPC   C4A66342   9.896  41.940   7.286
 5118POPC   C1B66343   9.409  42.227   6.248
 5118POPC   C2B66344   9.420  42.437   6.611
 5118POPC   C3B66345   9.409  42.327   6.999
 5118POPC   C4B66346   9.646  42.376   7.371
 5119POPC   NC366347   5.942  13.260   5.377
 5119POPC   PO466348   5.982  13.984   5.441
 5119POPC   GL166349   6.025  13.629   5.718
 5119POPC   GL266350   6.368  13.696   5.768
 5119POPC   C1A66351   5.991  13.522   6.163
 5119POPC   D2A66352   5.994  13.301   6.568
 5119POPC   C3A66353   6.027  13.520   6.956
 5119POPC   C4A66354   5.989  13.311   7.349
 5119POPC   C1B66355   6.352  14.007   6.099
 5119POPC   C2B66356   6.166  13.915   6.490
 5119POPC   C3B66357   6.283  13.993   6.903
 5119POPC   C4B66358   6.004  13.981   7.229
 5120POPC   NC366359  42.173  36.246   5.479
 5120POPC   PO466360  42.393  35.679   5.211
 5120POPC   GL166361  42.599  36.155   5.735
 5120POPC   GL266362  42.216  36.159   5.956
 5120POPC   C1A66363  42.618  36.290   6.180
 5120POPC   D2A66364  42.430  36.027   6.487
 5120POPC   C3A66365  42.457  36.034   6.924
 5120POPC   C4A66366  42.715  36.194   7.259
 5120POPC   C1B66367  41.993  36.226   6.300
 5120POPC   C2B66368  42.080  36.365   6.704
 5120POPC   C3B66369  41.951  36.120   7.028
 5120POPC   C4B66370  42.134  35.888   7.308
 5121POPC   NC366371  28.042  15.885   5.097
 5121POPC   PO466372  28.387  15.311   5.440
 5121POPC   GL166373  28.412  15.069   5.834
 5121POPC   GL266374  28.432  15.376   6.027
 5121POPC   C1A66375  28.368  14.922   6.266
 5121POPC   D2A66376  28.552  15.112   6.641
 5121POPC   C3A66377  28.401  14.942   7.033
 5121POPC   C4A66378  28.372  15.034   7.470
 5121POPC   C1B66379  28.088  15.359   6.338
 5121POPC   C2B66380  28.066  15.271   6.784
 5121POPC   C3B66381  28.289  15.439   7.146
 5121POPC   C4B66382  28.555  15.526   7.520
 5122POPC   NC366383   0.745  43.310   5.386
 5122POPC   PO466384   0.160  42.939   5.311
 5122POPC   GL166385   0.380  43.027   5.726
 5122POPC   GL266386   0.719  42.980   5.757
 5122POPC   C1A66387   0.543  43.324   6.098
 5122POPC   D2A66388   0.433  43.485   6.518
 5122POPC   C3A66389   0.488  43.319   6.915
 5122POPC   C4A66390   0.268  43.197   7.257
 5122POPC   C1B66391   0.553  42.817   6.146
 5122POPC   C2B66392   0.489  42.957   6.558
 5122POPC   C3B66393   0.643  42.852   6.990
 5122POPC   C4B66394   0.471  42.745   7.386
 5123POPC   NC366395   8.513   8.514   5.437
 5123POPC   PO466396   7.928   8.041   5.362
 5123POPC   GL166397   8.076   8.236   5.744
 5123POPC   GL266398   8.418   8.154   5.782
 5123POPC   C1A66399   8.010   8.437   6.162
 5123POPC   D2A66400   7.951   8.136   6.521
 5123POPC   C3A66401   7.975   8.216   6.953
 5123POPC   C4A66402   7.811   8.428   7.314
 5123POPC   C1B66403   8.304   8.000   6.178
 5123POPC   C2B66404   8.467   8.004   6.590
 5123POPC   C3B66405   8.502   8.288   6.917
 5123POPC   C4B66406   8.314   8.321   7.301
 5124POPC   NC366407  11.647  14.580   5.465
 5124POPC   PO466408  11.095  14.178   5.563
 5124POPC   GL166409  11.030  14.394   5.929
 5124POPC   GL266410  11.255  14.630   5.820
 5124POPC   C1A66411  11.094  14.457   6.351
 5124POPC   D2A66412  11.434  14.471   6.637
 5124POPC   C3A66413  11.266  14.344   7.035
 5124POPC   C4A66414  11.018  14.321   7.426
 5124POPC   C1B66415  11.522  14.734   6.184
 5124POPC   C2B66416  11.677  15.009   6.541
 5124POPC   C3B66417  11.663  14.813   6.955
 5124POPC   C4B66418  11.904  14.853   7.322
 5125POPC   NC366419  31.419   2.059   5.063
 5125POPC   PO466420  31.860   2.429   5.364
 5125POPC   GL166421  31.595   2.191   5.684
 5125POPC   GL266422  31.493   2.436   5.926
 5125POPC   C1A66423  31.546   1.956   6.096
 5125POPC   D2A66424  31.540   1.663   6.450
 5125POPC   C3A66425  31.554   1.788   6.908
 5125POPC   C4A66426  31.484   1.682   7.344
 5125POPC   C1B66427  31.196   2.295   6.241
 5125POPC   C2B66428  31.351   2.164   6.616
 5125POPC   C3B66429  31.493   2.348   7.001
 5125POPC   C4B66430  31.392   2.197   7.402
 5126POPC   NC366431  14.780  36.957   5.436
 5126POPC   PO466432  15.388  37.080   5.467
 5126POPC   GL166433  15.220  37.142   5.859
 5126POPC   GL266434  15.331  36.829   5.959
 5126POPC   C1A66435  15.102  37.151   6.309
 5126POPC   D2A66436  14.944  37.405   6.626
 5126POPC   C3A66437  14.845  37.193   6.970
 5126POPC   C4A66438  15.092  36.895   7.162
 5126POPC   C1B66439  15.244  36.667   6.372
 5126POPC   C2B66440  14.924  36.738   6.686
 5126POPC   C3B66441  14.842  36.475   7.062
 5126POPC   C4B66442  15.059  36.479   7.489
 5127POPC   NC366443  19.615  43.807   5.460
 5127POPC   PO466444  20.108  44.081   5.740
 5127POPC   GL166445  19.666  44.016   5.941
 5127POPC   GL266446  19.438  43.693   5.936
 5127POPC   C1A66447  19.821  44.043   6.357
 5127POPC   D2A66448  20.103  43.777   6.625
 5127POPC   C3A66449  20.166  43.875   7.060
 5127POPC   C4A66450  20.025  43.933   7.498
 5127POPC   C1B66451  19.366  43.811   6.372
 5127POPC   C2B66452  19.591  43.883   6.760
 5127POPC   C3B66453  19.682  43.719   7.129
 5127POPC   C4B66454  19.566  43.349   7.225
 5128POPC   NC366455  42.617   1.783   5.457
 5128POPC   PO466456  42.163   2.304   5.373
 5128POPC   GL166457  42.397   2.142   5.745
 5128POPC   GL266458  42.240   1.800   5.818
 5128POPC   C1A66459  42.627   2.017   6.131
 5128POPC   D2A66460  42.500   2.171   6.538
 5128POPC   C3A66461  42.650   2.114   6.943
 5128POPC   C4A66462  42.659   1.919   7.336
 5128POPC   C1B66463  42.142   1.946   6.231
 5128POPC   C2B66464  42.232   1.765   6.635
 5128POPC   C3B66465  42.191   1.923   7.091
 5128POPC   C4B66466  42.143   1.785   7.548
 5129POPC   NC366467  37.055   4.101   5.443
 5129POPC   PO466468  36.580   4.590   5.482
 5129POPC   GL166469  36.821   4.384   5.798
 5129POPC   GL266470  36.719   4.045   5.877
 5129POPC   C1A66471  36.969   4.357   6.218
 5129POPC   D2A66472  36.721   4.368   6.577
 5129POPC   C3A66473  36.737   4.570   6.970
 5129POPC   C4A66474  37.056   4.483   7.248
 5129POPC   C1B66475  37.102   3.868   6.108
 5129POPC   C2B66476  37.189   3.882   6.565
 5129POPC   C3B66477  37.023   4.063   6.950
 5129POPC   C4B66478  37.069   3.977   7.405
 5130POPC   NC366479  42.588  28.017   5.105
 5130POPC   PO466480  42.783  28.600   5.412
 5130POPC   GL166481  42.552  28.475   5.803
 5130POPC   GL266482  42.359  28.162   5.714
 5130POPC   C1A66483  42.284  28.518   6.186
 5130POPC   D2A66484  42.281  28.299   6.566
 5130POPC   C3A66485  42.238  28.498   6.963
 5130POPC   C4A66486  42.369  28.842   7.213
 5130POPC   C1B66487  42.527  28.042   6.133
 5130POPC   C2B66488  42.628  27.912   6.537
 5130POPC   C3B66489  42.636  28.141   6.895
 5130POPC   C4B66490  42.694  28.037   7.248
 5131POPC   NC366491  11.713   2.371   5.449
 5131POPC   PO466492  11.992   1.755   5.273
 5131POPC   GL166493  12.031   2.032   5.664
 5131POPC   GL266494  12.371   2.088   5.750
 5131POPC   C1A66495  11.797   2.149   6.065
 5131POPC   D2A66496  11.798   2.227   6.517
 5131POPC   C3A66497  12.028   2.069   6.859
 5131POPC   C4A66498  11.768   1.938   7.221
 5131POPC   C1B66499  12.300   2.203   6.202
 5131POPC   C2B66500  12.517   2.177   6.607
 5131POPC   C3B66501  12.507   2.299   7.033
 5131POPC   C4B66502  12.245   2.117   7.321
 5132POPC   NC366503  42.189   9.035   5.365
 5132POPC   PO466504  42.662   8.684   5.298
 5132POPC   GL166505  42.522   8.837   5.718
 5132POPC   GL266506  42.458   9.190   5.785
 5132POPC   C1A66507  42.581   8.908   6.191
 5132POPC   D2A66508  42.744   9.044   6.596
 5132POPC   C3A66509  42.496   8.986   7.003
 5132POPC   C4A66510  42.313   9.111   7.404
 5132POPC   C1B66511  42.122   9.123   6.132
 5132POPC   C2B66512  42.156   9.011   6.587
 5132POPC   C3B66513  42.114   9.311   6.939
 5132POPC   C4B66514  41.847   9.347   7.303
 5133POPC   NC366515  31.981  20.225   5.444
 5133POPC   PO466516  32.236  19.647   5.313
 5133POPC   GL166517  32.216  19.830   5.712
 5133POPC   GL266518  32.479  20.000   5.851
 5133POPC   C1A66519  32.123  19.657   6.123
 5133POPC   D2A66520  31.935  19.765   6.513
 5133POPC   C3A66521  32.019  19.590   6.940
 5133POPC   C4A66522  32.163  19.650   7.379
 5133POPC   C1B66523  32.346  20.083   6.302
 5133POPC   C2B66524  32.375  19.902   6.718
 5133POPC   C3B66525  32.327  20.088   7.105
 5133POPC   C4B66526  32.686  20.301   7.280
 5134POPC   NC366527  12.636  19.385   5.452
 5134POPC   PO466528  13.057  18.929   5.436
 5134POPC   GL166529  12.816  19.046   5.789
 5134POPC   GL266530  13.008  19.347   5.854
 5134POPC   C1A66531  12.700  18.873   6.192
 5134POPC   D2A66532  12.605  19.044   6.585
 5134POPC   C3A66533  12.605  18.813   6.936
 5134POPC   C4A66534  12.505  18.929   7.300
 5134POPC   C1B66535  13.203  19.045   6.143
 5134POPC   C2B66536  13.113  18.869   6.551
 5134POPC   C3B66537  13.022  19.071   6.926
 5134POPC   C4B66538  13.017  18.916   7.321
 5135POPC   NC366539   0.805  28.485   5.115
 5135POPC   PO466540   0.111  28.376   5.294
 5135POPC   GL166541   0.443  28.467   5.628
 5135POPC   GL266542   0.295  28.177   5.781
 5135POPC   C1A66543   0.639  28.449   6.091
 5135POPC   D2A66544   0.687  28.240   6.541
 5135POPC   C3A66545   0.555  28.375   6.975
 5135POPC   C4A66546   0.662  28.695   7.273
 5135POPC   C1B66547   0.323  28.038   6.205
 5135POPC   C2B66548   0.035  27.952   6.542
 5135POPC   C3B66549   0.120  28.045   6.957
 5135POPC   C4B66550  44.995  28.212   7.337
 5136POPC   NC366551  34.058  20.459   5.390
 5136POPC   PO466552  34.604  20.803   5.512
 5136POPC   GL166553  34.382  20.591   5.828
 5136POPC   GL266554  34.287  20.929   5.911
 5136POPC   C1A66555  34.558  20.298   6.181
 5136POPC   D2A66556  34.908  20.374   6.499
 5136POPC   C3A66557  34.798  20.511   6.908
 5136POPC   C4A66558  34.647  20.444   7.315
 5136POPC   C1B66559  34.544  20.801   6.265
 5136POPC   C2B66560  34.391  20.587   6.627
 5136POPC   C3B66561  34.355  20.763   7.031
 5136POPC   C4B66562  34.638  20.969   7.330
 5137POPC   NC366563  25.447  34.005   5.457
 5137POPC   PO466564  24.851  33.626   5.203
 5137POPC   GL166565  25.004  33.772   5.684
 5137POPC   GL266566  25.096  34.110   5.843
 5137POPC   C1A66567  25.235  33.730   6.154
 5137POPC   D2A66568  25.268  33.895   6.587
 5137POPC   C3A66569  25.224  33.720   6.963
 5137POPC   C4A66570  25.453  33.437   7.193
 5137POPC   C1B66571  25.267  34.278   6.242
 5137POPC   C2B66572  25.578  34.296   6.632
 5137POPC   C3B66573  25.481  34.214   7.074
 5137POPC   C4B66574  25.073  34.108   7.259
 5138POPC   NC366575  16.938   2.452   5.170
 5138POPC   PO466576  16.391   2.819   5.340
 5138POPC   GL166577  16.645   2.673   5.725
 5138POPC   GL266578  16.975   2.823   5.769
 5138POPC   C1A66579  16.732   2.578   6.158
 5138POPC   D2A66580  16.678   2.808   6.561
 5138POPC   C3A66581  16.724   2.650   6.992
 5138POPC   C4A66582  16.637   2.545   7.436
 5138POPC   C1B66583  17.007   3.026   6.207
 5138POPC   C2B66584  17.159   2.959   6.646
 5138POPC   C3B66585  16.931   3.128   7.010
 5138POPC   C4B66586  16.673   3.028   7.375
 5139POPC   NC366587  11.692  39.041   5.417
 5139POPC   PO466588  11.053  39.352   5.427
 5139POPC   GL166589  11.390  39.344   5.751
 5139POPC   GL266590  11.279  39.012   5.802
 5139POPC   C1A66591  11.456  39.294   6.238
 5139POPC   D2A66592  11.504  39.438   6.689
 5139POPC   C3A66593  11.292  39.531   7.090
 5139POPC   C4A66594  11.510  39.404   7.483
 5139POPC   C1B66595  10.982  39.336   6.068
 5139POPC   C2B66596  10.978  39.393   6.535
 5139POPC   C3B66597  11.122  39.103   6.867
 5139POPC   C4B66598  11.100  39.077   7.321
 5140POPC   NC366599  34.830   6.160   5.439
 5140POPC   PO466600  34.374   6.648   5.266
 5140POPC   GL166601  34.638   6.646   5.654
 5140POPC   GL266602  34.366   6.531   5.851
 5140POPC   C1A66603  34.747   6.741   6.126
 5140POPC   D2A66604  34.694   6.512   6.535
 5140POPC   C3A66605  34.650   6.704   6.939
 5140POPC   C4A66606  34.912   6.751   7.292
 5140POPC   C1B66607  34.242   6.831   6.187
 5140POPC   C2B66608  34.382   7.000   6.587
 5140POPC   C3B66609  34.223   6.956   7.017
 5140POPC   C4B66610  34.399   6.825   7.452
 5141POPC   NC366611  24.305  11.569   5.583
 5141POPC   PO466612  23.784  11.687   5.134
 5141POPC   GL166613  23.816  11.509   5.697
 5141POPC   GL266614  24.019  11.235   5.841
 5141POPC   C1A66615  23.859  11.626   6.168
 5141POPC   D2A66616  24.047  11.432   6.554
 5141POPC   C3A66617  23.805  11.331   6.942
 5141POPC   C4A66618  23.552  11.428   7.287
 5141POPC   C1B66619  23.674  11.160   6.113
 5141POPC   C2B66620  23.626  11.037   6.568
 5141POPC   C3B66621  23.365  10.963   6.945
 5141POPC   C4B66622  23.403  10.927   7.374
 5142POPC   NC366623  19.023   4.003   5.475
 5142POPC   PO466624  19.202   4.665   5.524
 5142POPC   GL166625  19.006   4.387   5.846
 5142POPC   GL266626  19.224   4.089   5.937
 5142POPC   C1A66627  18.862   4.397   6.282
 5142POPC   D2A66628  19.126   4.274   6.643
 5142POPC   C3A66629  18.931   4.186   7.039
 5142POPC   C4A66630  18.837   4.575   7.215
 5142POPC   C1B66631  18.943   3.893   6.236
 5142POPC   C2B66632  19.066   3.774   6.670
 5142POPC   C3B66633  19.386   3.908   6.969
 5142POPC   C4B66634  19.353   4.050   7.392
 5143POPC   NC366635  38.582  33.205   5.483
 5143POPC   PO466636  38.203  32.630   5.443
 5143POPC   GL166637  38.187  32.942   5.795
 5143POPC   GL266638  38.125  33.300   5.717
 5143POPC   C1A66639  38.516  33.023   6.134
 5143POPC   D2A66640  38.790  33.113   6.508
 5143POPC   C3A66641  38.713  32.827   6.859
 5143POPC   C4A66642  38.596  32.835   7.280
 5143POPC   C1B66643  38.126  33.345   6.159
 5143POPC   C2B66644  38.257  33.147   6.592
 5143POPC   C3B66645  38.431  33.250   7.025
 5143POPC   C4B66646  38.517  33.293   7.511
 5144POPC   NC366647  35.582  41.743   5.620
 5144POPC   PO466648  35.106  41.333   5.579
 5144POPC   GL166649  35.189  41.609   5.902
 5144POPC   GL266650  35.499  41.333   5.924
 5144POPC   C1A66651  35.461  41.736   6.261
 5144POPC   D2A66652  35.578  41.842   6.685
 5144POPC   C3A66653  35.302  41.682   7.012
 5144POPC   C4A66654  35.267  41.806   7.426
 5144POPC   C1B66655  35.172  41.244   6.226
 5144POPC   C2B66656  35.293  41.384   6.588
 5144POPC   C3B66657  35.639  41.347   6.829
 5144POPC   C4B66658  35.574  41.317   7.246
 5145POPC   NC366659  37.596  13.982   5.573
 5145POPC   PO466660  37.669  14.616   5.425
 5145POPC   GL166661  37.829  14.413   5.778
 5145POPC   GL266662  37.483  14.348   5.906
 5145POPC   C1A66663  37.907  14.269   6.207
 5145POPC   D2A66664  38.018  14.473   6.618
 5145POPC   C3A66665  37.941  14.432   7.052
 5145POPC   C4A66666  37.646  14.714   7.273
 5145POPC   C1B66667  37.417  14.143   6.286
 5145POPC   C2B66668  37.591  14.199   6.678
 5145POPC   C3B66669  37.466  14.261   7.089
 5145POPC   C4B66670  37.331  14.119   7.481
 5146POPC   NC366671  32.441  27.392   5.418
 5146POPC   PO466672  32.306  28.098   5.256
 5146POPC   GL166673  32.118  27.805   5.669
 5146POPC   GL266674  32.376  27.618   5.891
 5146POPC   C1A66675  31.960  27.663   6.148
 5146POPC   D2A66676  32.248  27.768   6.519
 5146POPC   C3A66677  32.174  27.604   6.942
 5146POPC   C4A66678  32.030  27.806   7.307
 5146POPC   C1B66679  32.627  27.516   6.286
 5146POPC   C2B66680  32.561  27.269   6.665
 5146POPC   C3B66681  32.594  27.346   7.097
 5146POPC   C4B66682  32.539  27.679   7.374
 5147POPC   NC366683  36.462  29.167   5.104
 5147POPC   PO466684  35.905  29.308   5.355
 5147POPC   GL166685  35.986  29.061   5.713
 5147POPC   GL266686  36.149  29.357   5.819
 5147POPC   C1A66687  35.866  29.003   6.157
 5147POPC   D2A66688  36.059  28.822   6.554
 5147POPC   C3A66689  35.901  28.987   6.958
 5147POPC   C4A66690  36.131  29.075   7.344
 5147POPC   C1B66691  36.293  29.292   6.231
 5147POPC   C2B66692  36.160  29.377   6.641
 5147POPC   C3B66693  36.332  29.434   7.037
 5147POPC   C4B66694  36.358  29.525   7.463
 5148POPC   NC366695  40.523  30.902   5.296
 5148POPC   PO466696  40.790  30.278   5.300
 5148POPC   GL166697  40.795  30.671   5.674
 5148POPC   GL266698  40.990  30.985   5.758
 5148POPC   C1A66699  40.707  30.750   6.154
 5148POPC   D2A66700  40.901  30.746   6.613
 5148POPC   C3A66701  40.681  30.680   7.025
 5148POPC   C4A66702  40.425  31.044   7.171
 5148POPC   C1B66703  41.150  31.010   6.199
 5148POPC   C2B66704  41.196  31.178   6.639
 5148POPC   C3B66705  41.124  30.959   7.049
 5148POPC   C4B66706  41.337  30.886   7.469
 5149POPC   NC366707  28.605  37.286   5.377
 5149POPC   PO466708  29.308  37.189   5.397
 5149POPC   GL166709  29.250  36.929   5.801
 5149POPC   GL266710  28.884  36.961   5.802
 5149POPC   C1A66711  29.219  36.593   6.181
 5149POPC   D2A66712  29.234  36.772   6.620
 5149POPC   C3A66713  29.402  36.616   7.026
 5149POPC   C4A66714  29.347  36.817   7.435
 5149POPC   C1B66715  28.939  37.005   6.251
 5149POPC   C2B66716  28.823  37.091   6.681
 5149POPC   C3B66717  29.005  36.946   7.068
 5149POPC   C4B66718  28.901  37.118   7.454
 5150POPC   NC366719  20.816  34.189   5.056
 5150POPC   PO466720  20.451  33.785   5.485
 5150POPC   GL166721  20.527  33.620   5.823
 5150POPC   GL266722  20.223  33.468   5.878
 5150POPC   C1A66723  20.815  33.690   6.177
 5150POPC   D2A66724  21.042  33.976   6.463
 5150POPC   C3A66725  20.899  33.933   6.859
 5150POPC   C4A66726  20.840  34.077   7.226
 5150POPC   C1B66727  20.259  33.790   6.200
 5150POPC   C2B66728  20.488  33.772   6.567
 5150POPC   C3B66729  20.484  33.659   6.990
 5150POPC   C4B66730  20.244  33.832   7.303
 5151POPC   NC366731  30.888  34.510   5.422
 5151POPC   PO466732  30.353  34.962   5.438
 5151POPC   GL166733  30.564  34.736   5.791
 5151POPC   GL266734  30.493  34.387   5.807
 5151POPC   C1A66735  30.799  34.545   6.174
 5151POPC   D2A66736  30.857  34.354   6.600
 5151POPC   C3A66737  30.903  34.624   6.965
 5151POPC   C4A66738  30.612  34.789   7.219
 5151POPC   C1B66739  30.438  34.148   6.201
 5151POPC   C2B66740  30.359  34.259   6.608
 5151POPC   C3B66741  30.508  34.303   7.009
 5151POPC   C4B66742  30.230  34.453   7.301
 5152POPC   NC366743   1.391  22.711   5.376
 5152POPC   PO466744   0.999  23.267   5.384
 5152POPC   GL166745   1.080  22.961   5.725
 5152POPC   GL266746   1.420  23.017   5.805
 5152POPC   C1A66747   0.937  23.012   6.167
 5152POPC   D2A66748   1.130  23.082   6.592
 5152POPC   C3A66749   0.993  22.965   7.007
 5152POPC   C4A66750   1.131  22.652   7.341
 5152POPC   C1B66751   1.476  23.226   6.220
 5152POPC   C2B66752   1.566  23.324   6.679
 5152POPC   C3B66753   1.523  23.066   7.076
 5152POPC   C4B66754   1.255  23.112   7.488
 5153POPC   NC366755   4.331   0.669   5.405
 5153POPC   PO466756   4.484   0.016   5.525
 5153POPC   GL166757   4.248   0.182   5.896
 5153POPC   GL266758   4.093   0.523   5.855
 5153POPC   C1A66759   4.287   0.353   6.338
 5153POPC   D2A66760   4.538   0.614   6.640
 5153POPC   C3A66761   4.448   0.540   7.067
 5153POPC   C4A66762   4.208   0.218   7.176
 5153POPC   C1B66763   3.878   0.714   6.219
 5153POPC   C2B66764   3.668   0.802   6.634
 5153POPC   C3B66765   3.944   0.648   6.977
 5153POPC   C4B66766   4.078   0.644   7.430
 5154POPC   NC366767   5.458  23.931   5.079
 5154POPC   PO466768   5.839  23.542   5.576
 5154POPC   GL166769   6.086  23.904   5.726
 5154POPC   GL266770   5.814  23.921   5.992
 5154POPC   C1A66771   6.264  24.060   6.132
 5154POPC   D2A66772   6.030  23.826   6.461
 5154POPC   C3A66773   6.032  23.989   6.860
 5154POPC   C4A66774   6.117  23.851   7.250
 5154POPC   C1B66775   5.452  23.829   6.253
 5154POPC   C2B66776   5.536  23.737   6.677
 5154POPC   C3B66777   5.831  23.519   6.927
 5154POPC   C4B66778   5.677  23.520   7.319
 5155POPC   NC366779  21.717  41.426   5.458
 5155POPC   PO466780  22.291  41.887   5.348
 5155POPC   GL166781  22.059  41.739   5.732
 5155POPC   GL266782  22.110  41.374   5.758
 5155POPC   C1A66783  22.097  41.693   6.208
 5155POPC   D2A66784  22.422  41.679   6.573
 5155POPC   C3A66785  22.291  41.657   7.001
 5155POPC   C4A66786  21.991  41.946   7.140
 5155POPC   C1B66787  22.230  41.149   6.081
 5155POPC   C2B66788  22.151  41.269   6.486
 5155POPC   C3B66789  22.111  41.193   6.930
 5155POPC   C4B66790  21.825  41.435   7.181
 5156POPC   NC366791  40.877  38.648   5.425
 5156POPC   PO466792  40.745  37.899   5.445
 5156POPC   GL166793  40.863  38.037   5.834
 5156POPC   GL266794  40.742  38.372   5.819
 5156POPC   C1A66795  40.929  38.218   6.257
 5156POPC   D2A66796  40.787  38.472   6.635
 5156POPC   C3A66797  40.951  38.286   7.024
 5156POPC   C4A66798  40.778  38.226   7.419
 5156POPC   C1B66799  40.444  38.415   6.172
 5156POPC   C2B66800  40.322  38.250   6.573
 5156POPC   C3B66801  40.448  38.236   7.008
 5156POPC   C4B66802  40.336  38.493   7.358
 5157POPC   NC366803  11.534  16.575   5.532
 5157POPC   PO466804  11.137  17.144   5.427
 5157POPC   GL166805  11.060  16.779   5.685
 5157POPC   GL266806  11.333  16.924   5.855
 5157POPC   C1A66807  11.104  16.549   6.097
 5157POPC   D2A66808  11.031  16.742   6.508
 5157POPC   C3A66809  11.036  16.423   6.852
 5157POPC   C4A66810  11.037  16.316   7.324
 5157POPC   C1B66811  11.521  17.087   6.215
 5157POPC   C2B66812  11.427  17.081   6.642
 5157POPC   C3B66813  11.239  16.869   6.980
 5157POPC   C4B66814  11.459  16.536   7.177
 5158POPC   NC366815  37.012  28.510   5.422
 5158POPC   PO466816  36.656  28.018   5.625
 5158POPC   GL166817  37.041  28.163   5.836
 5158POPC   GL266818  37.098  28.506   5.924
 5158POPC   C1A66819  37.146  28.119   6.264
 5158POPC   D2A66820  37.308  28.382   6.571
 5158POPC   C3A66821  37.184  28.218   6.939
 5158POPC   C4A66822  37.058  28.376   7.360
 5158POPC   C1B66823  36.737  28.426   6.192
 5158POPC   C2B66824  36.795  28.357   6.625
 5158POPC   C3B66825  36.892  28.626   6.955
 5158POPC   C4B66826  36.634  28.694   7.266
 5159POPC   NC366827  15.161   6.210   5.493
 5159POPC   PO466828  15.373   5.634   5.415
 5159POPC   GL166829  15.410   5.846   5.872
 5159POPC   GL266830  15.460   6.218   5.900
 5159POPC   C1A66831  15.257   5.963   6.336
 5159POPC   D2A66832  15.033   5.837   6.739
 5159POPC   C3A66833  15.345   5.644   7.034
 5159POPC   C4A66834  15.506   5.760   7.476
 5159POPC   C1B66835  15.068   6.397   6.133
 5159POPC   C2B66836  15.086   6.493   6.560
 5159POPC   C3B66837  15.312   6.310   6.872
 5159POPC   C4B66838  15.199   6.081   7.234
 5160POPC   NC366839  43.805  28.007   5.533
 5160POPC   PO466840  43.803  27.404   5.319
 5160POPC   GL166841  43.941  27.544   5.743
 5160POPC   GL266842  44.069  27.217   5.834
 5160POPC   C1A66843  44.054  27.637   6.182
 5160POPC   D2A66844  44.087  27.472   6.598
 5160POPC   C3A66845  44.239  27.620   6.975
 5160POPC   C4A66846  43.942  27.650   7.252
 5160POPC   C1B66847  43.675  27.253   6.087
 5160POPC   C2B66848  43.563  27.450   6.502
 5160POPC   C3B66849  43.670  27.344   6.939
 5160POPC   C4B66850  43.599  27.245   7.397
 5161POPC   NC366851   5.141  44.098   5.353
 5161POPC   PO466852   5.017  44.671   5.342
 5161POPC   GL166853   4.969  44.682   5.776
 5161POPC   GL266854   4.975  44.347   5.766
 5161POPC   C1A66855   5.153  44.826   6.169
 5161POPC   D2A66856   5.366  44.817   6.564
 5161POPC   C3A66857   5.111  44.915   6.888
 5161POPC   C4A66858   5.145  44.829   7.287
 5161POPC   C1B66859   4.935  44.336   6.197
 5161POPC   C2B66860   4.894  44.548   6.584
 5161POPC   C3B66861   5.008  44.405   7.001
 5161POPC   C4B66862   4.900  44.051   7.250
 5162POPC   NC366863  18.292  34.310   5.530
 5162POPC   PO466864  17.999  34.844   5.699
 5162POPC   GL166865  18.400  34.670   5.894
 5162POPC   GL266866  18.389  34.319   6.032
 5162POPC   C1A66867  18.448  34.758   6.321
 5162POPC   D2A66868  18.207  34.801   6.673
 5162POPC   C3A66869  18.015  34.435   6.900
 5162POPC   C4A66870  18.041  34.358   7.377
 5162POPC   C1B66871  18.362  34.285   6.475
 5162POPC   C2B66872  18.573  34.458   6.764
 5162POPC   C3B66873  18.441  34.575   7.144
 5162POPC   C4B66874  18.528  34.407   7.507
 5163POPC   NC366875  36.310  28.225   5.407
 5163POPC   PO466876  35.817  28.575   5.286
 5163POPC   GL166877  35.877  28.410   5.705
 5163POPC   GL266878  35.938  28.051   5.706
 5163POPC   C1A66879  36.104  28.519   6.106
 5163POPC   D2A66880  36.304  28.335   6.470
 5163POPC   C3A66881  36.348  28.481   6.877
 5163POPC   C4A66882  36.127  28.575   7.217
 5163POPC   C1B66883  36.190  27.991   6.074
 5163POPC   C2B66884  36.176  27.839   6.478
 5163POPC   C3B66885  36.034  28.032   6.855
 5163POPC   C4B66886  36.122  28.074   7.251
 5164POPC   NC366887  38.438  42.715   5.477
 5164POPC   PO466888  38.347  42.087   5.321
 5164POPC   GL166889  38.475  42.169   5.756
 5164POPC   GL266890  38.693  42.485   5.852
 5164POPC   C1A66891  38.408  42.049   6.189
 5164POPC   D2A66892  38.615  41.949   6.578
 5164POPC   C3A66893  38.442  42.122   6.929
 5164POPC   C4A66894  38.536  42.250   7.303
 5164POPC   C1B66895  38.305  42.542   6.101
 5164POPC   C2B66896  38.301  42.444   6.540
 5164POPC   C3B66897  38.339  42.646   6.940
 5164POPC   C4B66898  38.297  42.704   7.392
 5165POPC   NC366899  33.027  22.397   5.530
 5165POPC   PO466900  33.169  21.737   5.463
 5165POPC   GL166901  33.016  21.909   5.860
 5165POPC   GL266902  32.934  22.256   5.999
 5165POPC   C1A66903  32.875  21.848   6.290
 5165POPC   D2A66904  33.023  22.120   6.620
 5165POPC   C3A66905  32.864  22.053   7.027
 5165POPC   C4A66906  33.025  21.772   7.308
 5165POPC   C1B66907  33.223  22.507   6.258
 5165POPC   C2B66908  33.342  22.516   6.706
 5165POPC   C3B66909  33.246  22.470   7.146
 5165POPC   C4B66910  32.998  22.286   7.465
 5166POPC   NC366911  29.726  20.401   5.437
 5166POPC   PO466912  29.996  20.871   5.118
 5166POPC   GL166913  30.022  20.812   5.664
 5166POPC   GL266914  30.116  20.469   5.791
 5166POPC   C1A66915  29.840  20.730   6.113
 5166POPC   D2A66916  29.973  20.555   6.526
 5166POPC   C3A66917  29.954  20.830   6.895
 5166POPC   C4A66918  29.650  20.900   7.211
 5166POPC   C1B66919  30.191  20.217   6.170
 5166POPC   C2B66920  30.385  20.253   6.576
 5166POPC   C3B66921  30.238  20.388   6.997
 5166POPC   C4B66922  30.416  20.280   7.394
 5167POPC   NC366923  22.629  13.032   5.587
 5167POPC   PO466924  21.959  13.035   5.754
 5167POPC   GL166925  22.307  13.000   6.007
 5167POPC   GL266926  22.251  12.668   5.940
 5167POPC   C1A66927  22.235  13.043   6.449
 5167POPC   D2A66928  21.884  13.165   6.713
 5167POPC   C3A66929  22.026  13.010   7.059
 5167POPC   C4A66930  22.436  12.874   7.187
 5167POPC   C1B66931  22.030  12.620   6.287
 5167POPC   C2B66932  22.173  12.594   6.738
 5167POPC   C3B66933  21.953  12.521   7.157
 5167POPC   C4B66934  21.823  12.505   7.612
 5168POPC   NC366935  23.316  28.821   5.605
 5168POPC   PO466936  22.868  29.332   5.401
 5168POPC   GL166937  22.926  29.118   5.785
 5168POPC   GL266938  22.608  28.958   5.784
 5168POPC   C1A66939  22.946  28.906   6.181
 5168POPC   D2A66940  22.903  29.166   6.529
 5168POPC   C3A66941  23.135  29.207   6.895
 5168POPC   C4A66942  22.961  29.110   7.279
 5168POPC   C1B66943  22.518  29.183   6.178
 5168POPC   C2B66944  22.382  29.302   6.564
 5168POPC   C3B66945  22.601  29.261   6.937
 5168POPC   C4B66946  22.737  29.585   7.177
 5169POPC   NC366947  11.472  10.015   5.599
 5169POPC   PO466948  11.587  10.652   5.380
 5169POPC   GL166949  11.435  10.554   5.798
 5169POPC   GL266950  11.075  10.657   5.819
 5169POPC   C1A66951  11.413  10.389   6.253
 5169POPC   D2A66952  11.536  10.345   6.702
 5169POPC   C3A66953  11.334  10.367   7.108
 5169POPC   C4A66954  11.329  10.458   7.573
 5169POPC   C1B66955  10.893  10.428   6.175
 5169POPC   C2B66956  10.781  10.263   6.588
 5169POPC   C3B66957  10.803  10.331   7.045
 5169POPC   C4B66958  10.970  10.676   7.288
 5170POPC   NC366959  22.735  17.021   5.509
 5170POPC   PO466960  23.208  16.591   5.391
 5170POPC   GL166961  23.022  16.644   5.819
 5170POPC   GL266962  22.851  16.938   5.995
 5170POPC   C1A66963  23.183  16.499   6.215
 5170POPC   D2A66964  23.376  16.410   6.601
 5170POPC   C3A66965  23.037  16.393   6.870
 5170POPC   C4A66966  22.779  16.351   7.204
 5170POPC   C1B66967  23.206  17.017   6.295
 5170POPC   C2B66968  23.203  16.889   6.741
 5170POPC   C3B66969  22.983  16.854   7.126
 5170POPC   C4B66970  22.613  17.079   7.272
 5171POPC   NC366971   2.140  18.718   5.412
 5171POPC   PO466972   1.942  19.346   5.519
 5171POPC   GL166973   1.928  19.120   5.889
 5171POPC   GL266974   1.756  18.808   5.824
 5171POPC   C1A66975   1.953  18.966   6.315
 5171POPC   D2A66976   2.087  18.952   6.728
 5171POPC   C3A66977   2.027  19.318   6.995
 5171POPC   C4A66978   2.026  19.384   7.416
 5171POPC   C1B66979   1.645  18.560   6.197
 5171POPC   C2B66980   1.654  18.457   6.669
 5171POPC   C3B66981   1.693  18.591   7.118
 5171POPC   C4B66982   2.030  18.880   7.233
 5172POPC   NC366983  36.711   3.237   5.416
 5172POPC   PO466984  36.665   3.847   5.386
 5172POPC   GL166985  36.568   3.576   5.767
 5172POPC   GL266986  36.938   3.438   5.824
 5172POPC   C1A66987  36.671   3.618   6.216
 5172POPC   D2A66988  36.651   3.863   6.604
 5172POPC   C3A66989  36.759   3.635   6.981
 5172POPC   C4A66990  36.638   3.685   7.413
 5172POPC   C1B66991  37.045   3.211   6.221
 5172POPC   C2B66992  37.288   3.299   6.594
 5172POPC   C3B66993  37.323   3.532   6.965
 5172POPC   C4B66994  37.095   3.468   7.321
 5173POPC   NC366995  10.971  30.060   5.416
 5173POPC   PO466996  11.402  29.597   5.460
 5173POPC   GL166997  11.101  29.675   5.775
 5173POPC   GL266998  11.250  30.008   5.838
 5173POPC   C1A66999  11.041  29.777   6.240
 5173POPC   D2A67000  11.289  29.729   6.599
 5173POPC   C3A67001  11.151  29.701   6.997
 5173POPC   C4A67002  10.869  29.621   7.280
 5173POPC   C1B67003  11.261  30.232   6.228
 5173POPC   C2B67004  11.155  30.224   6.653
 5173POPC   C3B67005  11.303  30.180   7.052
 5173POPC   C4B67006  11.093  30.072   7.430
 5174POPC   NC367007   7.367  32.802   5.362
 5174POPC   PO467008   7.581  33.485   5.410
 5174POPC   GL167009   7.531  33.226   5.835
 5174POPC   GL267010   7.400  32.868   5.865
 5174POPC   C1A67011   7.290  33.187   6.262
 5174POPC   D2A67012   7.158  33.265   6.711
 5174POPC   C3A67013   7.403  33.100   7.101
 5174POPC   C4A67014   7.621  33.361   7.424
 5174POPC   C1B67015   7.079  32.710   6.162
 5174POPC   C2B67016   7.215  32.740   6.585
 5174POPC   C3B67017   7.173  32.594   7.006
 5174POPC   C4B67018   7.070  32.786   7.405
 5175POPC   NC367019  11.647  26.141   5.308
 5175POPC   PO467020  10.998  25.964   5.149
 5175POPC   GL167021  11.297  25.776   5.546
 5175POPC   GL267022  11.472  26.043   5.778
 5175POPC   C1A67023  11.385  25.619   6.025
 5175POPC   D2A67024  11.168  25.710   6.433
 5175POPC   C3A67025  11.297  25.658   6.855
 5175POPC   C4A67026  11.314  25.894   7.239
 5175POPC   C1B67027  11.235  26.241   6.137
 5175POPC   C2B67028  11.102  26.210   6.583
 5175POPC   C3B67029  11.228  26.351   6.994
 5175POPC   C4B67030  11.094  26.322   7.432
 5176POPC   NC367031   1.463   9.865   5.212
 5176POPC   PO467032   1.152  10.555   5.236
 5176POPC   GL167033   1.113  10.656   5.685
 5176POPC   GL267034   1.367  10.381   5.757
 5176POPC   C1A67035   0.817  10.699   6.076
 5176POPC   D2A67036   0.903  10.648   6.535
 5176POPC   C3A67037   0.908  10.283   6.793
 5176POPC   C4A67038   0.848  10.315   7.222
 5176POPC   C1B67039   1.289  10.515   6.188
 5176POPC   C2B67040   1.413  10.508   6.617
 5176POPC   C3B67041   1.299  10.559   7.026
 5176POPC   C4B67042   1.626  10.649   7.291
 5177POPC   NC367043   5.046  28.742   5.251
 5177POPC   PO467044   4.592  28.171   5.270
 5177POPC   GL167045   4.837  28.390   5.715
 5177POPC   GL267046   5.114  28.206   5.901
 5177POPC   C1A67047   4.806  28.507   6.180
 5177POPC   D2A67048   5.081  28.500   6.571
 5177POPC   C3A67049   4.963  28.393   6.978
 5177POPC   C4A67050   5.002  28.116   7.323
 5177POPC   C1B67051   5.366  28.503   6.152
 5177POPC   C2B67052   5.469  28.812   6.471
 5177POPC   C3B67053   5.449  28.692   6.910
 5177POPC   C4B67054   5.360  28.482   7.298
 5178POPC   NC367055  12.015  21.553   5.354
 5178POPC   PO467056  12.286  21.055   5.712
 5178POPC   GL167057  12.015  21.402   5.869
 5178POPC   GL267058  11.972  21.745   5.819
 5178POPC   C1A67059  11.806  21.388   6.249
 5178POPC   D2A67060  12.094  21.420   6.595
 5178POPC   C3A67061  12.096  21.283   7.009
 5178POPC   C4A67062  11.899  21.526   7.335
 5178POPC   C1B67063  12.189  21.758   6.197
 5178POPC   C2B67064  12.148  21.944   6.613
 5178POPC   C3B67065  12.230  21.757   7.005
 5178POPC   C4B67066  12.320  21.758   7.493
 5179POPC   NC367067  39.099  38.876   5.325
 5179POPC   PO467068  39.185  38.232   5.552
 5179POPC   GL167069  39.273  38.578   5.799
 5179POPC   GL267070  38.947  38.732   5.789
 5179POPC   C1A67071  39.484  38.719   6.219
 5179POPC   D2A67072  39.378  38.417   6.535
 5179POPC   C3A67073  39.448  38.407   6.971
 5179POPC   C4A67074  39.042  38.272   7.142
 5179POPC   C1B67075  38.981  38.661   6.230
 5179POPC   C2B67076  39.113  38.908   6.579
 5179POPC   C3B67077  39.062  38.753   6.956
 5179POPC   C4B67078  39.200  38.704   7.370
 5180POPC   NC367079   5.305  17.780   5.392
 5180POPC   PO467080   4.987  17.263   5.445
 5180POPC   GL167081   5.202  17.451   5.768
 5180POPC   GL267082   4.966  17.728   5.785
 5180POPC   C1A67083   5.305  17.563   6.177
 5180POPC   D2A67084   5.389  17.756   6.555
 5180POPC   C3A67085   5.325  17.485   6.889
 5180POPC   C4A67086   5.099  17.518   7.249
 5180POPC   C1B67087   4.815  17.426   6.105
 5180POPC   C2B67088   4.939  17.415   6.537
 5180POPC   C3B67089   4.735  17.295   6.919
 5180POPC   C4B67090   4.845  17.092   7.314
 5181POPC   NC367091   5.709  16.738   5.512
 5181POPC   PO467092   6.122  16.190   5.528
 5181POPC   GL167093   5.936  16.483   5.900
 5181POPC   GL267094   6.019  16.865   5.910
 5181POPC   C1A67095   5.585  16.724   6.168
 5181POPC   D2A67096   5.514  17.020   6.527
 5181POPC   C3A67097   5.769  16.807   6.808
 5181POPC   C4A67098   5.744  16.563   7.151
 5181POPC   C1B67099   6.042  16.945   6.361
 5181POPC   C2B67100   6.214  17.103   6.747
 5181POPC   C3B67101   6.182  16.882   7.153
 5181POPC   C4B67102   6.280  16.984   7.594
 5182POPC   NC367103  44.158  12.112   5.141
 5182POPC   PO467104  43.640  12.508   5.217
 5182POPC   GL167105  43.882  12.212   5.562
 5182POPC   GL267106  44.015  11.864   5.576
 5182POPC   C1A67107  44.006  12.103   6.041
 5182POPC   D2A67108  43.738  12.068   6.417
 5182POPC   C3A67109  43.721  12.292   6.824
 5182POPC   C4A67110  43.689  12.021   7.216
 5182POPC   C1B67111  44.158  11.613   5.958
 5182POPC   C2B67112  44.140  11.691   6.411
 5182POPC   C3B67113  44.089  11.913   6.844
 5182POPC   C4B67114  44.145  11.764   7.276
 5183POPC   NC367115   2.890  38.087   5.481
 5183POPC   PO467116   2.448  38.540   5.309
 5183POPC   GL167117   2.512  38.288   5.784
 5183POPC   GL267118   2.896  38.238   5.946
 5183POPC   C1A67119   2.551  38.390   6.268
 5183POPC   D2A67120   2.595  38.791   6.510
 5183POPC   C3A67121   2.516  38.704   6.937
 5183POPC   C4A67122   2.761  38.416   7.146
 5183POPC   C1B67123   3.104  38.226   6.354
 5183POPC   C2B67124   3.004  38.514   6.668
 5183POPC   C3B67125   3.145  38.715   7.000
 5183POPC   C4B67126   3.184  38.558   7.439
 5184POPC   NC367127  13.472  37.815   5.421
 5184POPC   PO467128  13.983  37.521   5.030
 5184POPC   GL167129  13.907  37.666   5.578
 5184POPC   GL267130  13.577  37.470   5.763
 5184POPC   C1A67131  13.823  37.716   6.094
 5184POPC   D2A67132  14.006  37.656   6.506
 5184POPC   C3A67133  13.706  37.651   6.852
 5184POPC   C4A67134  13.655  38.000   7.161
 5184POPC   C1B67135  13.378  37.458   6.196
 5184POPC   C2B67136  13.263  37.431   6.647
 5184POPC   C3B67137  13.416  37.258   7.055
 5184POPC   C4B67138  13.326  37.334   7.490
 5185POPC   NC367139  35.509   6.159   5.338
 5185POPC   PO467140  35.038   5.856   5.712
 5185POPC   GL167141  35.447   5.663   5.771
 5185POPC   GL267142  35.306   5.636   6.082
 5185POPC   C1A67143  35.786   5.627   6.143
 5185POPC   D2A67144  35.680   5.498   6.612
 5185POPC   C3A67145  35.444   5.770   6.955
 5185POPC   C4A67146  35.111   5.655   7.308
 5185POPC   C1B67147  35.175   5.656   6.523
 5185POPC   C2B67148  34.949   5.871   6.833
 5185POPC   C3B67149  35.041   6.157   7.185
 5185POPC   C4B67150  34.910   6.061   7.614
 5186POPC   NC367151  11.144  13.717   5.510
 5186POPC   PO467152  11.635  13.250   5.585
 5186POPC   GL167153  11.512  13.621   5.854
 5186POPC   GL267154  11.544  13.996   5.725
 5186POPC   C1A67155  11.194  13.646   6.181
 5186POPC   D2A67156  10.890  13.580   6.498
 5186POPC   C3A67157  11.033  13.463   6.893
 5186POPC   C4A67158  11.016  13.555   7.309
 5186POPC   C1B67159  11.409  14.113   6.152
 5186POPC   C2B67160  11.258  13.988   6.588
 5186POPC   C3B67161  11.394  13.821   6.991
 5186POPC   C4B67162  11.510  13.403   7.176
 5187POPC   NC367163  25.721  41.568   5.423
 5187POPC   PO467164  26.386  41.546   5.370
 5187POPC   GL167165  26.124  41.635   5.751
 5187POPC   GL267166  25.996  41.307   5.757
 5187POPC   C1A67167  25.905  41.566   6.176
 5187POPC   D2A67168  26.023  41.730   6.561
 5187POPC   C3A67169  25.831  41.619   6.940
 5187POPC   C4A67170  26.036  41.609   7.329
 5187POPC   C1B67171  26.218  41.143   6.073
 5187POPC   C2B67172  26.210  41.257   6.507
 5187POPC   C3B67173  26.262  41.355   6.953
 5187POPC   C4B67174  26.324  41.207   7.424
 5188POPC   NC367175  16.136  20.171   5.372
 5188POPC   PO467176  15.873  19.568   5.463
 5188POPC   GL167177  15.794  19.790   5.843
 5188POPC   GL267178  16.139  19.850   5.874
 5188POPC   C1A67179  15.836  19.664   6.308
 5188POPC   D2A67180  15.729  19.999   6.619
 5188POPC   C3A67181  15.548  19.941   7.008
 5188POPC   C4A67182  15.694  19.797   7.389
 5188POPC   C1B67183  16.107  20.083   6.270
 5188POPC   C2B67184  16.218  19.867   6.667
 5188POPC   C3B67185  16.070  19.958   7.082
 5188POPC   C4B67186  16.140  20.157   7.470
 5189POPC   NC367187  30.188  34.466   5.409
 5189POPC   PO467188  29.744  34.900   5.308
 5189POPC   GL167189  29.761  34.618   5.668
 5189POPC   GL267190  30.044  34.745   5.846
 5189POPC   C1A67191  29.757  34.399   6.100
 5189POPC   D2A67192  29.895  34.519   6.534
 5189POPC   C3A67193  29.923  34.282   6.924
 5189POPC   C4A67194  29.638  34.217   7.260
 5189POPC   C1B67195  30.295  34.634   6.223
 5189POPC   C2B67196  30.552  34.750   6.585
 5189POPC   C3B67197  30.236  34.711   6.881
 5189POPC   C4B67198  29.885  34.948   7.059
 5190POPC   NC367199  32.086  19.214   5.274
 5190POPC   PO467200  32.419  18.662   5.391
 5190POPC   GL167201  32.328  18.907   5.758
 5190POPC   GL267202  32.616  19.140   5.816
 5190POPC   C1A67203  32.180  19.097   6.167
 5190POPC   D2A67204  32.312  19.372   6.529
 5190POPC   C3A67205  32.342  19.177   6.946
 5190POPC   C4A67206  32.470  19.251   7.375
 5190POPC   C1B67207  32.638  18.815   6.170
 5190POPC   C2B67208  32.497  18.673   6.589
 5190POPC   C3B67209  32.590  18.712   7.013
 5190POPC   C4B67210  32.292  18.767   7.278
 5191POPC   NC367211  19.126  32.335   5.167
 5191POPC   PO467212  19.657  32.295   5.549
 5191POPC   GL167213  19.326  32.153   5.758
 5191POPC   GL267214  19.038  32.363   5.698
 5191POPC   C1A67215  19.127  32.020   6.133
 5191POPC   D2A67216  19.201  32.108   6.562
 5191POPC   C3A67217  18.910  31.871   6.803
 5191POPC   C4A67218  18.785  31.950   7.233
 5191POPC   C1B67219  19.084  32.524   6.132
 5191POPC   C2B67220  19.000  32.603   6.588
 5191POPC   C3B67221  19.006  32.377   7.009
 5191POPC   C4B67222  18.703  32.417   7.393
 5192POPC   NC367223  41.348  35.424   5.383
 5192POPC   PO467224  41.903  35.048   5.410
 5192POPC   GL167225  41.632  35.190   5.756
 5192POPC   GL267226  41.634  35.575   5.819
 5192POPC   C1A67227  41.439  35.288   6.180
 5192POPC   D2A67228  41.578  35.531   6.544
 5192POPC   C3A67229  41.406  35.400   6.955
 5192POPC   C4A67230  41.491  35.157   7.291
 5192POPC   C1B67231  41.928  35.713   6.176
 5192POPC   C2B67232  41.991  35.812   6.627
 5192POPC   C3B67233  41.871  35.587   7.006
 5192POPC   C4B67234  41.743  35.602   7.433
 5193POPC   NC367235   5.587  14.344   5.597
 5193POPC   PO467236   5.043  14.087   5.302
 5193POPC   GL167237   5.087  14.239   5.728
 5193POPC   GL267238   5.289  13.962   5.837
 5193POPC   C1A67239   5.060  14.494   6.135
 5193POPC   D2A67240   5.302  14.661   6.490
 5193POPC   C3A67241   5.037  14.646   6.865
 5193POPC   C4A67242   4.771  14.472   7.212
 5193POPC   C1B67243   4.935  13.991   6.154
 5193POPC   C2B67244   4.876  14.236   6.552
 5193POPC   C3B67245   4.957  14.069   6.962
 5193POPC   C4B67246   5.149  13.879   7.307
 5194POPC   NC367247   2.609   0.863   5.496
 5194POPC   PO467248   3.161   1.143   5.493
 5194POPC   GL167249   2.962   0.991   5.862
 5194POPC   GL267250   2.585   1.074   5.960
 5194POPC   C1A67251   3.063   1.094   6.263
 5194POPC   D2A67252   2.820   1.240   6.610
 5194POPC   C3A67253   2.950   1.204   7.048
 5194POPC   C4A67254   2.685   1.005   7.369
 5194POPC   C1B67255   2.328   1.476   6.074
 5194POPC   C2B67256   2.188   1.590   6.505
 5194POPC   C3B67257   2.484   1.542   6.872
 5194POPC   C4B67258   2.553   1.492   7.290
 5195POPC   NC367259   3.117  29.462   5.560
 5195POPC   PO467260   3.025  28.751   5.453
 5195POPC   GL167261   2.836  29.048   5.786
 5195POPC   GL267262   2.496  29.226   5.777
 5195POPC   C1A67263   2.642  28.983   6.208
 5195POPC   D2A67264   2.689  29.216   6.574
 5195POPC   C3A67265   2.600  28.949   6.920
 5195POPC   C4A67266   2.636  28.901   7.377
 5195POPC   C1B67267   2.427  29.474   6.173
 5195POPC   C2B67268   2.452  29.667   6.601
 5195POPC   C3B67269   2.433  29.426   6.982
 5195POPC   C4B67270   2.126  29.350   7.294
 5196POPC   NC367271  11.238  35.913   5.016
 5196POPC   PO467272  11.272  35.429   5.520
 5196POPC   GL167273  11.535  35.313   5.829
 5196POPC   GL267274  11.285  35.100   5.933
 5196POPC   C1A67275  11.535  35.403   6.281
 5196POPC   D2A67276  11.322  35.673   6.544
 5196POPC   C3A67277  11.317  35.460   6.926
 5196POPC   C4A67278  11.428  35.579   7.314
 5196POPC   C1B67279  11.060  35.264   6.253
 5196POPC   C2B67280  11.040  35.110   6.660
 5196POPC   C3B67281  10.815  35.297   6.980
 5196POPC   C4B67282  10.932  35.513   7.320
 5197POPC   NC367283  36.988   0.940   5.358
 5197POPC   PO467284  36.649   1.544   5.442
 5197POPC   GL167285  36.690   1.262   5.751
 5197POPC   GL267286  37.062   1.260   5.773
 5197POPC   C1A67287  36.759   1.158   6.186
 5197POPC   D2A67288  37.126   1.161   6.476
 5197POPC   C3A67289  37.032   1.215   6.916
 5197POPC   C4A67290  36.684   1.229   7.220
 5197POPC   C1B67291  37.291   1.507   6.116
 5197POPC   C2B67292  37.444   1.574   6.558
 5197POPC   C3B67293  37.260   1.703   6.966
 5197POPC   C4B67294  37.195   1.452   7.345
 5198POPC   NC367295  34.164  44.853   5.505
 5198POPC   PO467296  33.778  44.333   5.390
 5198POPC   GL167297  33.913  44.515   5.811
 5198POPC   GL267298  33.806  44.902   5.860
 5198POPC   C1A67299  33.902  44.594   6.267
 5198POPC   D2A67300  33.630  44.925   6.429
 5198POPC   C3A67301  33.609  44.879   6.878
 5198POPC   C4A67302  33.710  44.734   7.294
 5198POPC   C1B67303  34.107   0.053   6.149
 5198POPC   C2B67304  34.101   0.059   6.604
 5198POPC   C3B67305  34.112  44.896   7.037
 5198POPC   C4B67306  34.125  44.948   7.498
 5199POPC   NC367307  13.225  16.339   5.031
 5199POPC   PO467308  13.652  16.850   5.240
 5199POPC   GL167309  13.594  16.911   5.764
 5199POPC   GL267310  13.686  16.638   6.030
 5199POPC   C1A67311  13.574  17.050   6.256
 5199POPC   D2A67312  13.692  16.766   6.629
 5199POPC   C3A67313  13.684  16.977   7.058
 5199POPC   C4A67314  13.575  16.991   7.501
 5199POPC   C1B67315  13.319  16.593   6.296
 5199POPC   C2B67316  13.216  16.540   6.748
 5199POPC   C3B67317  13.331  16.624   7.192
 5199POPC   C4B67318  13.627  16.505   7.563
 5200POPC   NC367319  10.686  16.987   5.366
 5200POPC   PO467320  10.389  16.357   5.289
 5200POPC   GL167321  10.559  16.572   5.644
 5200POPC   GL267322  10.308  16.868   5.702
 5200POPC   C1A67323  10.640  16.751   6.065
 5200POPC   D2A67324  10.390  16.857   6.434
 5200POPC   C3A67325  10.625  16.862   6.803
 5200POPC   C4A67326  10.655  16.603   7.127
 5200POPC   C1B67327  10.109  16.624   6.039
 5200POPC   C2B67328  10.091  16.411   6.455
 5200POPC   C3B67329  10.203  16.548   6.866
 5200POPC   C4B67330  10.185  16.573   7.322
 5201POPC   NC367331   5.837  24.723   5.334
 5201POPC   PO467332   5.876  24.059   5.236
 5201POPC   GL167333   5.829  24.355   5.677
 5201POPC   GL267334   5.543  24.629   5.748
 5201POPC   C1A67335   5.916  24.451   6.126
 5201POPC   D2A67336   6.157  24.405   6.534
 5201POPC   C3A67337   5.874  24.466   6.929
 5201POPC   C4A67338   5.696  24.282   7.305
 5201POPC   C1B67339   5.561  24.841   6.154
 5201POPC   C2B67340   5.767  24.780   6.535
 5201POPC   C3B67341   5.747  24.965   6.957
 5201POPC   C4B67342   5.436  24.735   7.183
 5202POPC   NC367343  19.265  14.682   5.432
 5202POPC   PO467344  18.814  15.077   5.076
 5202POPC   GL167345  18.848  15.101   5.601
 5202POPC   GL267346  18.944  14.826   5.812
 5202POPC   C1A67347  18.847  15.235   6.088
 5202POPC   D2A67348  18.861  15.367   6.537
 5202POPC   C3A67349  19.006  15.073   6.875
 5202POPC   C4A67350  18.801  15.033   7.303
 5202POPC   C1B67351  19.265  14.977   6.143
 5202POPC   C2B67352  19.340  14.804   6.572
 5202POPC   C3B67353  19.486  14.853   7.019
 5202POPC   C4B67354  19.399  14.842   7.508
 5203POPC   NC367355  12.558  38.741   5.418
 5203POPC   PO467356  13.123  39.063   5.265
 5203POPC   GL167357  12.899  39.160   5.651
 5203POPC   GL267358  13.060  38.899   5.786
 5203POPC   C1A67359  12.840  39.260   6.139
 5203POPC   D2A67360  12.836  39.515   6.576
 5203POPC   C3A67361  12.780  39.352   7.025
 5203POPC   C4A67362  12.629  39.021   7.345
 5203POPC   C1B67363  13.170  38.864   6.224
 5203POPC   C2B67364  12.954  39.023   6.594
 5203POPC   C3B67365  12.652  38.863   6.864
 5203POPC   C4B67366  12.879  38.638   7.162
 5204POPC   NC367367  17.972   6.362   5.454
 5204POPC   PO467368  18.565   6.059   5.300
 5204POPC   GL167369  18.550   6.090   5.779
 5204POPC   GL267370  18.202   6.044   5.861
 5204POPC   C1A67371  18.544   5.842   6.179
 5204POPC   D2A67372  18.653   5.955   6.598
 5204POPC   C3A67373  18.607   5.657   6.927
 5204POPC   C4A67374  18.338   5.905   7.163
 5204POPC   C1B67375  18.045   5.867   6.254
 5204POPC   C2B67376  18.117   5.633   6.642
 5204POPC   C3B67377  17.883   5.684   7.026
 5204POPC   C4B67378  17.905   5.817   7.438
 5205POPC   NC367379  38.210  31.349   5.404
 5205POPC   PO467380  38.820  31.274   5.726
 5205POPC   GL167381  38.461  31.501   5.855
 5205POPC   GL267382  38.329  31.230   5.971
 5205POPC   C1A67383  38.380  31.805   6.175
 5205POPC   D2A67384  38.503  31.984   6.560
 5205POPC   C3A67385  38.478  31.781   6.954
 5205POPC   C4A67386  38.513  31.507   7.277
 5205POPC   C1B67387  38.587  31.376   6.350
 5205POPC   C2B67388  38.770  31.370   6.756
 5205POPC   C3B67389  38.625  31.086   7.059
 5205POPC   C4B67390  38.307  31.026   7.334
 5206POPC   NC367391  10.055  40.785   5.583
 5206POPC   PO467392   9.475  40.831   5.237
 5206POPC   GL167393   9.528  40.779   5.703
 5206POPC   GL267394   9.424  40.463   5.839
 5206POPC   C1A67395   9.692  40.904   6.136
 5206POPC   D2A67396   9.905  41.028   6.524
 5206POPC   C3A67397   9.699  40.876   6.890
 5206POPC   C4A67398   9.574  41.060   7.272
 5206POPC   C1B67399   9.776  40.395   6.114
 5206POPC   C2B67400   9.885  40.449   6.523
 5206POPC   C3B67401  10.032  40.489   6.917
 5206POPC   C4B67402   9.800  40.501   7.266
 5207POPC   NC367403  31.237   4.847   5.526
 5207POPC   PO467404  31.780   4.560   5.727
 5207POPC   GL167405  31.578   4.512   6.044
 5207POPC   GL267406  31.290   4.411   5.844
 5207POPC   C1A67407  31.468   4.190   6.309
 5207POPC   D2A67408  31.635   3.902   6.609
 5207POPC   C3A67409  31.661   4.162   6.972
 5207POPC   C4A67410  31.599   4.496   7.274
 5207POPC   C1B67411  31.117   4.646   6.190
 5207POPC   C2B67412  31.323   4.647   6.589
 5207POPC   C3B67413  31.186   4.485   6.971
 5207POPC   C4B67414  31.184   4.150   7.250
 5208POPC   NC367415  14.108  20.706   5.249
 5208POPC   PO467416  14.568  20.455   5.666
 5208POPC   GL167417  14.161  20.621   5.759
 5208POPC   GL267418  14.282  20.971   5.709
 5208POPC   C1A67419  14.180  20.584   6.187
 5208POPC   D2A67420  14.595  20.456   6.335
 5208POPC   C3A67421  14.589  20.347   6.757
 5208POPC   C4A67422  14.659  20.526   7.162
 5208POPC   C1B67423  14.371  21.081   6.160
 5208POPC   C2B67424  14.358  20.886   6.589
 5208POPC   C3B67425  14.221  20.773   7.020
 5208POPC   C4B67426  14.280  20.849   7.483
 5209POPC   NC367427  33.797   3.053   5.437
 5209POPC   PO467428  33.565   2.390   5.454
 5209POPC   GL167429  33.694   2.678   5.799
 5209POPC   GL267430  33.522   3.025   5.876
 5209POPC   C1A67431  34.029   2.819   6.064
 5209POPC   D2A67432  34.070   3.018   6.480
 5209POPC   C3A67433  34.202   2.786   6.822
 5209POPC   C4A67434  34.103   2.773   7.254
 5209POPC   C1B67435  33.573   2.855   6.293
 5209POPC   C2B67436  33.834   2.554   6.531
 5209POPC   C3B67437  33.722   2.575   6.975
 5209POPC   C4B67438  33.606   2.920   7.281
 5210POPC   NC367439  18.991  41.411   5.328
 5210POPC   PO467440  19.651  41.377   5.531
 5210POPC   GL167441  19.393  41.621   5.844
 5210POPC   GL267442  19.013  41.685   5.802
 5210POPC   C1A67443  19.383  41.613   6.296
 5210POPC   D2A67444  19.299  41.708   6.722
 5210POPC   C3A67445  19.034  41.541   6.983
 5210POPC   C4A67446  18.883  41.827   7.274
 5210POPC   C1B67447  18.881  41.441   6.155
 5210POPC   C2B67448  18.847  41.263   6.575
 5210POPC   C3B67449  18.729  41.102   6.985
 5210POPC   C4B67450  18.805  41.316   7.371
 5211POPC   NC367451  11.144  21.820   5.565
 5211POPC   PO467452  11.330  22.507   5.417
 5211POPC   GL167453  11.285  22.259   5.795
 5211POPC   GL267454  11.533  22.016   5.859
 5211POPC   C1A67455  11.274  22.227   6.245
 5211POPC   D2A67456  11.293  21.974   6.589
 5211POPC   C3A67457  11.232  22.124   6.972
 5211POPC   C4A67458  11.140  22.220   7.377
 5211POPC   C1B67459  11.714  21.934   6.255
 5211POPC   C2B67460  11.677  21.680   6.629
 5211POPC   C3B67461  11.716  21.846   6.974
 5211POPC   C4B67462  11.532  21.889   7.320
 5212POPC   NC367463   7.303  14.540   5.173
 5212POPC   PO467464   7.644  13.953   5.330
 5212POPC   GL167465   7.656  14.240   5.697
 5212POPC   GL267466   7.335  14.403   5.676
 5212POPC   C1A67467   7.750  14.430   6.131
 5212POPC   D2A67468   7.736  14.710   6.531
 5212POPC   C3A67469   7.848  14.504   6.938
 5212POPC   C4A67470   7.622  14.456   7.317
 5212POPC   C1B67471   7.264  14.241   6.103
 5212POPC   C2B67472   7.142  14.253   6.553
 5212POPC   C3B67473   7.284  14.557   6.863
 5212POPC   C4B67474   7.132  14.450   7.267
 5213POPC   NC367475  38.522  36.675   5.281
 5213POPC   PO467476  38.098  37.181   5.440
 5213POPC   GL167477  38.396  36.944   5.756
 5213POPC   GL267478  38.739  36.771   5.719
 5213POPC   C1A67479  38.361  36.802   6.228
 5213POPC   D2A67480  38.177  36.744   6.668
 5213POPC   C3A67481  38.295  37.023   7.010
 5213POPC   C4A67482  38.394  36.939   7.448
 5213POPC   C1B67483  38.845  36.689   6.133
 5213POPC   C2B67484  38.832  36.787   6.580
 5213POPC   C3B67485  38.666  36.642   6.972
 5213POPC   C4B67486  38.265  36.536   7.154
 5214POPC   NC367487   0.349  33.353   5.506
 5214POPC   PO467488   0.243  32.815   5.146
 5214POPC   GL167489   0.189  32.873   5.652
 5214POPC   GL267490   0.090  33.193   5.901
 5214POPC   C1A67491   0.384  32.853   6.100
 5214POPC   D2A67492   0.412  32.793   6.549
 5214POPC   C3A67493   0.486  33.088   6.906
 5214POPC   C4A67494   0.410  32.971   7.326
 5214POPC   C1B67495  44.888  33.284   6.282
 5214POPC   C2B67496   0.034  33.211   6.687
 5214POPC   C3B67497   0.005  32.943   7.025
 5214POPC   C4B67498  44.937  33.047   7.488
 5215POPC   NC367499  13.489  27.052   5.500
 5215POPC   PO467500  13.796  26.408   5.451
 5215POPC   GL167501  13.762  26.764   5.800
 5215POPC   GL267502  14.057  26.991   5.739
 5215POPC   C1A67503  13.558  27.000   6.213
 5215POPC   D2A67504  13.508  27.153   6.685
 5215POPC   C3A67505  13.460  26.819   7.080
 5215POPC   C4A67506  13.532  26.891   7.530
 5215POPC   C1B67507  14.050  26.869   6.205
 5215POPC   C2B67508  14.002  27.085   6.598
 5215POPC   C3B67509  13.976  26.916   7.028
 5215POPC   C4B67510  14.019  26.677   7.476
 5216POPC   NC367511  28.101  18.352   5.433
 5216POPC   PO467512  27.577  17.959   5.552
 5216POPC   GL167513  27.624  18.298   5.881
 5216POPC   GL267514  27.316  18.528   5.895
 5216POPC   C1A67515  27.857  18.245   6.307
 5216POPC   D2A67516  27.965  18.140   6.771
 5216POPC   C3A67517  27.724  18.399   7.074
 5216POPC   C4A67518  27.291  18.557   7.089
 5216POPC   C1B67519  27.272  18.356   6.306
 5216POPC   C2B67520  27.440  18.135   6.641
 5216POPC   C3B67521  27.332  18.047   7.030
 5216POPC   C4B67522  27.372  18.156   7.436
 5217POPC   NC367523  14.044  24.303   5.471
 5217POPC   PO467524  13.543  24.375   5.081
 5217POPC   GL167525  13.567  24.521   5.587
 5217POPC   GL267526  13.691  24.254   5.818
 5217POPC   C1A67527  13.642  24.690   6.075
 5217POPC   D2A67528  13.441  24.636   6.514
 5217POPC   C3A67529  13.590  24.770   6.930
 5217POPC   C4A67530  13.370  24.750   7.359
 5217POPC   C1B67531  13.553  24.161   6.224
 5217POPC   C2B67532  13.623  24.174   6.642
 5217POPC   C3B67533  13.474  24.300   7.041
 5217POPC   C4B67534  13.734  24.129   7.315
 5218POPC   NC367535   1.707   4.651   5.446
 5218POPC   PO467536   1.620   5.316   5.451
 5218POPC   GL167537   1.917   5.208   5.785
 5218POPC   GL267538   1.788   4.899   5.865
 5218POPC   C1A67539   2.193   5.006   6.151
 5218POPC   D2A67540   2.125   5.185   6.558
 5218POPC   C3A67541   2.305   5.085   6.941
 5218POPC   C4A67542   2.196   5.225   7.347
 5218POPC   C1B67543   1.705   5.030   6.254
 5218POPC   C2B67544   1.773   4.800   6.618
 5218POPC   C3B67545   1.779   5.044   6.959
 5218POPC   C4B67546   1.786   4.904   7.332
 5219POPC   NC367547  14.013  31.411   5.529
 5219POPC   PO467548  13.334  31.531   5.363
 5219POPC   GL167549  13.456  31.615   5.763
 5219POPC   GL267550  13.548  31.283   5.837
 5219POPC   C1A67551  13.738  31.672   6.130
 5219POPC   D2A67552  13.561  31.602   6.539
 5219POPC   C3A67553  13.740  31.623   6.929
 5219POPC   C4A67554  13.562  31.683   7.349
 5219POPC   C1B67555  13.712  31.181   6.272
 5219POPC   C2B67556  13.586  31.102   6.722
 5219POPC   C3B67557  13.582  31.183   7.183
 5219POPC   C4B67558  13.828  31.284   7.561
 5220POPC   NC367559   0.187  32.390   5.291
 5220POPC   PO467560   0.405  31.867   5.483
 5220POPC   GL167561   0.272  32.189   5.768
 5220POPC   GL267562   0.243  31.937   5.976
 5220POPC   C1A67563   0.242  32.375   6.216
 5220POPC   D2A67564   0.490  32.276   6.593
 5220POPC   C3A67565   0.408  32.531   6.989
 5220POPC   C4A67566   0.628  32.514   7.393
 5220POPC   C1B67567   0.313  31.822   6.382
 5220POPC   C2B67568   0.247  31.856   6.823
 5220POPC   C3B67569   0.451  32.025   7.204
 5220POPC   C4B67570   0.326  32.175   7.622
 5221POPC   NC367571  32.466  34.740   5.220
 5221POPC   PO467572  32.037  34.265   5.337
 5221POPC   GL167573  32.119  34.539   5.722
 5221POPC   GL267574  32.164  34.271   5.931
 5221POPC   C1A67575  32.302  34.690   6.168
 5221POPC   D2A67576  32.288  34.433   6.531
 5221POPC   C3A67577  32.280  34.609   6.930
 5221POPC   C4A67578  32.589  34.616   7.238
 5221POPC   C1B67579  31.855  34.444   6.223
 5221POPC   C2B67580  31.776  34.399   6.654
 5221POPC   C3B67581  31.844  34.400   7.105
 5221POPC   C4B67582  32.184  34.241   7.300
 5222POPC   NC367583  19.995  19.828   5.404
 5222POPC   PO467584  19.309  19.606   5.515
 5222POPC   GL167585  19.642  19.800   5.767
 5222POPC   GL267586  19.553  20.106   5.957
 5222POPC   C1A67587  20.002  19.683   6.058
 5222POPC   D2A67588  20.165  19.587   6.484
 5222POPC   C3A67589  20.035  19.846   6.843
 5222POPC   C4A67590  20.072  19.668   7.232
 5222POPC   C1B67591  19.445  19.752   6.224
 5222POPC   C2B67592  19.639  19.623   6.580
 5222POPC   C3B67593  19.560  19.713   6.994
 5222POPC   C4B67594  19.694  20.010   7.292
 5223POPC   NC367595  22.185  24.887   5.529
 5223POPC   PO467596  22.384  24.190   5.417
 5223POPC   GL167597  22.341  24.412   5.799
 5223POPC   GL267598  22.271  24.736   6.021
 5223POPC   C1A67599  22.421  24.272   6.186
 5223POPC   D2A67600  22.193  24.450   6.513
 5223POPC   C3A67601  22.203  24.227   6.898
 5223POPC   C4A67602  22.198  24.394   7.281
 5223POPC   C1B67603  21.850  24.662   6.170
 5223POPC   C2B67604  21.671  24.743   6.537
 5223POPC   C3B67605  21.888  24.618   6.899
 5223POPC   C4B67606  21.813  24.755   7.278
 5224POPC   NC367607  11.032  37.451   5.602
 5224POPC   PO467608  11.475  37.817   5.284
 5224POPC   GL167609  11.564  37.845   5.724
 5224POPC   GL267610  11.514  37.494   5.848
 5224POPC   C1A67611  11.387  37.881   6.159
 5224POPC   D2A67612  11.257  37.651   6.549
 5224POPC   C3A67613  11.443  37.725   6.950
 5224POPC   C4A67614  11.272  37.882   7.329
 5224POPC   C1B67615  11.368  37.280   6.221
 5224POPC   C2B67616  11.167  37.151   6.635
 5224POPC   C3B67617  11.039  37.386   6.975
 5224POPC   C4B67618  11.248  37.394   7.374
 5225POPC   NC367619  14.116  19.224   5.494
 5225POPC   PO467620  14.600  18.765   5.660
 5225POPC   GL167621  14.485  19.067   5.859
 5225POPC   GL267622  14.141  18.906   5.910
 5225POPC   C1A67623  14.621  19.076   6.293
 5225POPC   D2A67624  14.459  18.835   6.630
 5225POPC   C3A67625  14.553  19.032   7.004
 5225POPC   C4A67626  14.493  18.791   7.356
 5225POPC   C1B67627  14.156  19.262   6.181
 5225POPC   C2B67628  14.253  19.319   6.607
 5225POPC   C3B67629  14.056  19.089   6.918
 5225POPC   C4B67630  14.050  19.102   7.311
 5226POPC   NC367631   0.036   1.073   5.378
 5226POPC   PO467632  44.458   1.484   5.397
 5226POPC   GL167633  44.629   1.197   5.729
 5226POPC   GL267634  44.957   1.318   5.832
 5226POPC   C1A67635  44.591   1.162   6.225
 5226POPC   D2A67636  44.687   1.414   6.638
 5226POPC   C3A67637  44.668   1.369   7.117
 5226POPC   C4A67638  44.369   1.071   7.293
 5226POPC   C1B67639  44.977   0.888   6.024
 5226POPC   C2B67640  44.968   0.798   6.482
 5226POPC   C3B67641  44.981   0.987   6.909
 5226POPC   C4B67642  44.822   0.824   7.302
 5227POPC   NC367643  35.039  13.418   5.155
 5227POPC   PO467644  35.628  13.665   5.212
 5227POPC   GL167645  35.578  13.796   5.689
 5227POPC   GL267646  35.291  13.613   5.865
 5227POPC   C1A67647  35.686  13.817   6.157
 5227POPC   D2A67648  35.561  13.474   6.439
 5227POPC   C3A67649  35.598  13.422   6.893
 5227POPC   C4A67650  35.356  13.654   7.199
 5227POPC   C1B67651  35.023  13.391   6.182
 5227POPC   C2B67652  34.918  13.319   6.620
 5227POPC   C3B67653  35.103  13.251   7.026
 5227POPC   C4B67654  35.167  13.276   7.488
 5228POPC   NC367655   9.950   2.993   5.473
 5228POPC   PO467656   9.800   2.291   5.377
 5228POPC   GL167657   9.749   2.574   5.790
 5228POPC   GL267658   9.499   2.829   5.835
 5228POPC   C1A67659   9.918   2.895   6.120
 5228POPC   D2A67660   9.855   3.113   6.512
 5228POPC   C3A67661   9.837   2.766   6.800
 5228POPC   C4A67662  10.082   2.681   7.177
 5228POPC   C1B67663   9.391   3.065   6.233
 5228POPC   C2B67664   9.251   2.865   6.635
 5228POPC   C3B67665   9.402   2.693   7.045
 5228POPC   C4B67666   9.717   3.008   7.232
 5229POPC   NC367667  29.468  22.131   5.008
 5229POPC   PO467668  29.067  22.540   5.381
 5229POPC   GL167669  29.076  22.461   5.877
 5229POPC   GL267670  29.033  22.091   5.942
 5229POPC   C1A67671  29.193  22.402   6.339
 5229POPC   D2A67672  29.004  22.609   6.717
 5229POPC   C3A67673  29.011  22.356   7.107
 5229POPC   C4A67674  29.268  22.375   7.461
 5229POPC   C1B67675  28.757  22.139   6.277
 5229POPC   C2B67676  28.845  22.108   6.696
 5229POPC   C3B67677  28.823  21.901   7.093
 5229POPC   C4B67678  28.903  22.036   7.522
 5230POPC   NC367679   7.734  41.144   5.417
 5230POPC   PO467680   7.543  41.866   5.303
 5230POPC   GL167681   7.559  41.896   5.740
 5230POPC   GL267682   7.192  41.849   5.816
 5230POPC   C1A67683   7.729  41.898   6.148
 5230POPC   D2A67684   7.694  41.637   6.506
 5230POPC   C3A67685   7.536  41.798   6.876
 5230POPC   C4A67686   7.740  41.669   7.225
 5230POPC   C1B67687   7.361  41.508   6.104
 5230POPC   C2B67688   7.317  41.287   6.510
 5230POPC   C3B67689   7.443  41.286   6.921
 5230POPC   C4B67690   7.237  41.494   7.252
 5231POPC   NC367691  37.824  44.983   5.584
 5231POPC   PO467692  37.518  44.332   5.564
 5231POPC   GL167693  37.528  44.587   5.896
 5231POPC   GL267694  37.863  44.562   5.899
 5231POPC   C1A67695  37.560  44.470   6.330
 5231POPC   D2A67696  37.532  44.729   6.663
 5231POPC   C3A67697  37.335  44.688   7.026
 5231POPC   C4A67698  37.480  44.811   7.427
 5231POPC   C1B67699  37.972  44.784   6.276
 5231POPC   C2B67700  38.024  44.582   6.683
 5231POPC   C3B67701  37.859  44.698   7.085
 5231POPC   C4B67702  37.912  44.533   7.485
 5232POPC   NC367703  13.002  13.759   5.567
 5232POPC   PO467704  12.672  14.276   5.312
 5232POPC   GL167705  12.777  14.289   5.823
 5232POPC   GL267706  12.549  14.519   6.030
 5232POPC   C1A67707  12.825  14.132   6.312
 5232POPC   D2A67708  12.719  13.818   6.684
 5232POPC   C3A67709  12.792  13.957   7.115
 5232POPC   C4A67710  12.650  14.352   7.226
 5232POPC   C1B67711  12.885  14.633   6.347
 5232POPC   C2B67712  12.910  14.507   6.788
 5232POPC   C3B67713  12.772  14.815   7.096
 5232POPC   C4B67714  13.008  15.147   7.265
 5233POPC   NC367715  33.327  10.601   5.119
 5233POPC   PO467716  32.817  10.285   5.346
 5233POPC   GL167717  32.889  10.533   5.733
 5233POPC   GL267718  33.251  10.460   5.799
 5233POPC   C1A67719  32.994  10.630   6.199
 5233POPC   D2A67720  33.315  10.729   6.526
 5233POPC   C3A67721  33.177  10.685   6.936
 5233POPC   C4A67722  32.764  10.545   7.076
 5233POPC   C1B67723  33.193  10.168   6.192
 5233POPC   C2B67724  33.018  10.281   6.632
 5233POPC   C3B67725  33.193  10.179   7.066
 5233POPC   C4B67726  33.405  10.172   7.491
 5234POPC   NC367727  11.137   7.798   5.453
 5234POPC   PO467728  11.448   8.430   5.351
 5234POPC   GL167729  11.199   8.302   5.744
 5234POPC   GL267730  11.241   8.001   5.886
 5234POPC   C1A67731  11.194   8.524   6.187
 5234POPC   D2A67732  11.076   8.463   6.653
 5234POPC   C3A67733  11.361   8.231   6.970
 5234POPC   C4A67734  11.489   8.220   7.407
 5234POPC   C1B67735  11.024   8.054   6.221
 5234POPC   C2B67736  11.186   7.948   6.585
 5234POPC   C3B67737  10.944   7.942   6.897
 5234POPC   C4B67738  11.019   8.029   7.292
 5235POPC   NC367739   6.268  11.574   5.424
 5235POPC   PO467740   6.852  11.138   5.440
 5235POPC   GL167741   6.768  11.241   5.846
 5235POPC   GL267742   6.453  11.352   5.847
 5235POPC   C1A67743   6.882  11.140   6.267
 5235POPC   D2A67744   6.962  11.400   6.635
 5235POPC   C3A67745   6.767  11.340   7.040
 5235POPC   C4A67746   6.383  11.506   7.206
 5235POPC   C1B67747   6.369  11.020   6.144
 5235POPC   C2B67748   6.242  10.890   6.548
 5235POPC   C3B67749   6.267  11.004   6.999
 5235POPC   C4B67750   6.503  11.047   7.398
 5236POPC   NC367751  13.117  31.045   5.383
 5236POPC   PO467752  12.656  30.574   5.231
 5236POPC   GL167753  12.993  30.563   5.629
 5236POPC   GL267754  13.155  30.851   5.837
 5236POPC   C1A67755  13.032  30.465   6.120
 5236POPC   D2A67756  12.883  30.681   6.504
 5236POPC   C3A67757  12.810  30.594   6.930
 5236POPC   C4A67758  13.123  30.402   7.173
 5236POPC   C1B67759  12.847  31.010   6.138
 5236POPC   C2B67760  12.866  31.185   6.579
 5236POPC   C3B67761  13.107  31.014   6.863
 5236POPC   C4B67762  13.063  30.917   7.251
 5237POPC   NC367763  35.679  24.986   5.419
 5237POPC   PO467764  35.053  24.944   5.621
 5237POPC   GL167765  35.358  25.240   5.768
 5237POPC   GL267766  35.508  24.972   5.903
 5237POPC   C1A67767  35.507  25.509   6.124
 5237POPC   D2A67768  35.622  25.529   6.578
 5237POPC   C3A67769  35.310  25.329   6.821
 5237POPC   C4A67770  35.194  25.246   7.236
 5237POPC   C1B67771  35.567  24.780   6.267
 5237POPC   C2B67772  35.646  24.939   6.648
 5237POPC   C3B67773  35.456  24.870   7.001
 5237POPC   C4B67774  35.467  24.768   7.393
 5238POPC   NC367775  27.766  34.826   5.338
 5238POPC   PO467776  27.629  34.181   5.316
 5238POPC   GL167777  27.835  34.376   5.643
 5238POPC   GL267778  27.512  34.543   5.694
 5238POPC   C1A67779  27.857  34.587   6.051
 5238POPC   D2A67780  27.889  34.379   6.473
 5238POPC   C3A67781  27.650  34.541   6.814
 5238POPC   C4A67782  27.732  34.680   7.197
 5238POPC   C1B67783  27.354  34.661   6.120
 5238POPC   C2B67784  27.468  34.899   6.497
 5238POPC   C3B67785  27.284  34.912   6.907
 5238POPC   C4B67786  27.209  34.526   7.100
 5239POPC   NC367787  34.803  26.139   5.469
 5239POPC   PO467788  35.447  26.093   5.577
 5239POPC   GL167789  35.340  25.962   5.947
 5239POPC   GL267790  34.978  25.865   5.873
 5239POPC   C1A67791  35.532  25.996   6.371
 5239POPC   D2A67792  35.772  26.231   6.720
 5239POPC   C3A67793  35.553  26.129   7.096
 5239POPC   C4A67794  35.428  25.700   7.159
 5239POPC   C1B67795  34.998  25.951   6.309
 5239POPC   C2B67796  35.164  25.802   6.678
 5239POPC   C3B67797  35.034  25.998   7.027
 5239POPC   C4B67798  35.123  26.088   7.429
 5240POPC   NC367799  37.524  38.650   5.513
 5240POPC   PO467800  37.524  38.000   5.479
 5240POPC   GL167801  37.710  38.247   5.789
 5240POPC   GL267802  37.390  38.281   5.947
 5240POPC   C1A67803  37.762  38.578   6.112
 5240POPC   D2A67804  37.964  38.545   6.482
 5240POPC   C3A67805  37.826  38.644   6.868
 5240POPC   C4A67806  37.982  38.594   7.276
 5240POPC   C1B67807  37.690  38.091   6.277
 5240POPC   C2B67808  37.920  38.044   6.655
 5240POPC   C3B67809  37.805  38.132   7.063
 5240POPC   C4B67810  37.482  38.440   7.173
 5241POPC   NC367811   6.957  35.504   5.622
 5241POPC   PO467812   6.572  35.044   5.422
 5241POPC   GL167813   6.486  35.309   5.805
 5241POPC   GL267814   6.460  35.683   5.749
 5241POPC   C1A67815   6.644  35.254   6.248
 5241POPC   D2A67816   6.734  35.084   6.675
 5241POPC   C3A67817   6.597  35.324   7.017
 5241POPC   C4A67818   6.780  35.419   7.378
 5241POPC   C1B67819   6.546  35.758   6.193
 5241POPC   C2B67820   6.695  35.681   6.615
 5241POPC   C3B67821   6.613  35.813   7.040
 5241POPC   C4B67822   6.417  35.751   7.455
 5242POPC   NC367823  40.023  28.486   5.364
 5242POPC   PO467824  39.813  27.906   5.314
 5242POPC   GL167825  39.886  28.096   5.735
 5242POPC   GL267826  40.223  28.232   5.799
 5242POPC   C1A67827  39.740  28.178   6.188
 5242POPC   D2A67828  39.508  28.170   6.624
 5242POPC   C3A67829  39.742  28.319   7.008
 5242POPC   C4A67830  39.979  28.695   7.100
 5242POPC   C1B67831  40.337  28.146   6.246
 5242POPC   C2B67832  40.366  28.397   6.649
 5242POPC   C3B67833  40.294  28.288   7.077
 5242POPC   C4B67834  40.036  28.073   7.377
 5243POPC   NC367835  32.028   4.753   5.394
 5243POPC   PO467836  31.987   5.402   5.542
 5243POPC   GL167837  32.124   5.196   5.917
 5243POPC   GL267838  32.293   4.896   5.816
 5243POPC   C1A67839  32.243   5.202   6.365
 5243POPC   D2A67840  32.324   4.871   6.671
 5243POPC   C3A67841  32.158   5.052   7.017
 5243POPC   C4A67842  32.280   5.199   7.403
 5243POPC   C1B67843  32.156   4.729   6.212
 5243POPC   C2B67844  31.853   4.604   6.516
 5243POPC   C3B67845  31.960   4.590   6.933
 5243POPC   C4B67846  32.003   4.769   7.398
 5244POPC   NC367847  16.200  43.203   5.433
 5244POPC   PO467848  15.701  43.429   5.442
 5244POPC   GL167849  15.880  43.277   5.839
 5244POPC   GL267850  16.230  43.292   5.938
 5244POPC   C1A67851  15.831  43.098   6.247
 5244POPC   D2A67852  15.878  43.197   6.684
 5244POPC   C3A67853  15.812  42.861   7.017
 5244POPC   C4A67854  15.773  42.903   7.486
 5244POPC   C1B67855  16.321  43.166   6.390
 5244POPC   C2B67856  16.255  42.838   6.716
 5244POPC   C3B67857  16.303  42.736   7.159
 5244POPC   C4B67858  16.285  42.901   7.588
 5245POPC   NC367859   6.342  14.814   5.225
 5245POPC   PO467860   6.905  14.359   5.357
 5245POPC   GL167861   6.827  14.247   5.777
 5245POPC   GL267862   6.529  14.445   5.813
 5245POPC   C1A67863   6.783  14.361   6.220
 5245POPC   D2A67864   6.825  14.675   6.524
 5245POPC   C3A67865   6.772  14.451   6.887
 5245POPC   C4A67866   6.680  14.644   7.228
 5245POPC   C1B67867   6.384  14.646   6.219
 5245POPC   C2B67868   6.365  14.411   6.587
 5245POPC   C3B67869   6.226  14.535   6.992
 5245POPC   C4B67870   6.308  14.358   7.396
 5246POPC   NC367871  17.212  11.904   5.727
 5246POPC   PO467872  17.640  12.030   5.282
 5246POPC   GL167873  17.634  12.181   5.793
 5246POPC   GL267874  17.354  12.328   5.994
 5246POPC   C1A67875  17.578  11.961   6.276
 5246POPC   D2A67876  17.451  11.935   6.713
 5246POPC   C3A67877  17.709  11.924   7.095
 5246POPC   C4A67878  17.561  11.964   7.546
 5246POPC   C1B67879  17.092  12.151   6.350
 5246POPC   C2B67880  16.941  11.945   6.751
 5246POPC   C3B67881  17.174  11.978   7.155
 5246POPC   C4B67882  17.060  12.135   7.571
 5247POPC   NC367883  31.573  32.511   5.501
 5247POPC   PO467884  31.891  31.845   5.416
 5247POPC   GL167885  31.619  32.035   5.707
 5247POPC   GL267886  31.798  32.257   5.884
 5247POPC   C1A67887  31.405  32.043   6.099
 5247POPC   D2A67888  31.467  32.104   6.520
 5247POPC   C3A67889  31.194  32.328   6.771
 5247POPC   C4A67890  31.192  32.073   7.124
 5247POPC   C1B67891  31.651  32.483   6.243
 5247POPC   C2B67892  31.621  32.607   6.642
 5247POPC   C3B67893  31.769  32.541   7.021
 5247POPC   C4B67894  31.420  32.517   7.234
 5248POPC   NC367895   9.945  20.034   5.276
 5248POPC   PO467896   9.358  19.696   5.418
 5248POPC   GL167897   9.602  19.713   5.821
 5248POPC   GL267898   9.959  19.877   5.799
 5248POPC   C1A67899   9.735  19.624   6.264
 5248POPC   D2A67900   9.750  19.741   6.724
 5248POPC   C3A67901   9.562  19.490   7.049
 5248POPC   C4A67902   9.599  19.403   7.519
 5248POPC   C1B67903  10.041  20.067   6.229
 5248POPC   C2B67904  10.211  19.928   6.660
 5248POPC   C3B67905  10.017  20.150   7.037
 5248POPC   C4B67906  10.071  20.191   7.501
 5249POPC   NC367907  38.145   7.652   5.359
 5249POPC   PO467908  38.179   7.054   5.638
 5249POPC   GL167909  38.418   7.380   5.820
 5249POPC   GL267910  38.512   7.741   5.688
 5249POPC   C1A67911  38.311   7.340   6.241
 5249POPC   D2A67912  38.057   7.600   6.505
 5249POPC   C3A67913  38.162   7.486   6.914
 5249POPC   C4A67914  38.217   7.544   7.357
 5249POPC   C1B67915  38.438   7.827   6.127
 5249POPC   C2B67916  38.563   7.665   6.536
 5249POPC   C3B67917  38.665   7.790   6.911
 5249POPC   C4B67918  38.717   7.540   7.281
 5250POPC   NC367919  10.290  10.790   5.419
 5250POPC   PO467920  10.214  10.120   5.432
 5250POPC   GL167921  10.343  10.385   5.816
 5250POPC   GL267922  10.554  10.692   5.847
 5250POPC   C1A67923  10.313  10.519   6.262
 5250POPC   D2A67924  10.149  10.372   6.632
 5250POPC   C3A67925  10.193  10.638   6.996
 5250POPC   C4A67926  10.466  10.585   7.369
 5250POPC   C1B67927  10.659  10.879   6.261
 5250POPC   C2B67928  10.626  10.746   6.707
 5250POPC   C3B67929  10.625  10.982   7.090
 5250POPC   C4B67930  10.685  10.978   7.584
 5251POPC   NC367931  20.883  19.370   5.451
 5251POPC   PO467932  20.446  18.865   5.192
 5251POPC   GL167933  20.540  18.847   5.666
 5251POPC   GL267934  20.777  19.101   5.862
 5251POPC   C1A67935  20.412  18.915   6.135
 5251POPC   D2A67936  20.510  19.090   6.553
 5251POPC   C3A67937  20.397  18.873   6.948
 5251POPC   C4A67938  20.670  18.698   7.271
 5251POPC   C1B67939  20.847  19.418   6.200
 5251POPC   C2B67940  20.704  19.568   6.618
 5251POPC   C3B67941  20.500  19.402   7.036
 5251POPC   C4B67942  20.194  19.169   7.333
 5252POPC   NC367943  38.159  28.742   5.468
 5252POPC   PO467944  37.468  28.496   5.387
 5252POPC   GL167945  37.609  28.485   5.824
 5252POPC   GL267946  37.986  28.445   5.884
 5252POPC   C1A67947  37.631  28.240   6.198
 5252POPC   D2A67948  37.916  28.210   6.527
 5252POPC   C3A67949  37.700  28.207   6.901
 5252POPC   C4A67950  37.514  28.143   7.308
 5252POPC   C1B67951  37.874  28.674   6.284
 5252POPC   C2B67952  37.676  28.706   6.677
 5252POPC   C3B67953  37.479  28.638   7.073
 5252POPC   C4B67954  37.847  28.523   7.291
 5253POPC   NC367955  40.224   0.984   5.524
 5253POPC   PO467956  39.926   1.562   5.537
 5253POPC   GL167957  39.893   1.356   5.894
 5253POPC   GL267958  39.627   1.596   5.983
 5253POPC   C1A67959  40.012   1.398   6.322
 5253POPC   D2A67960  39.892   1.566   6.723
 5253POPC   C3A67961  40.183   1.469   7.060
 5253POPC   C4A67962  40.166   1.134   7.337
 5253POPC   C1B67963  39.539   1.210   6.228
 5253POPC   C2B67964  39.712   1.099   6.652
 5253POPC   C3B67965  39.722   1.228   7.115
 5253POPC   C4B67966  39.677   1.110   7.602
 5254POPC   NC367967  35.772  34.762   5.498
 5254POPC   PO467968  36.373  34.486   5.232
 5254POPC   GL167969  36.418  34.630   5.753
 5254POPC   GL267970  36.079  34.546   5.846
 5254POPC   C1A67971  36.288  34.843   6.198
 5254POPC   D2A67972  35.965  34.854   6.561
 5254POPC   C3A67973  36.145  34.794   6.964
 5254POPC   C4A67974  36.120  34.545   7.303
 5254POPC   C1B67975  36.111  34.370   6.254
 5254POPC   C2B67976  36.288  34.468   6.591
 5254POPC   C3B67977  36.194  34.251   6.906
 5254POPC   C4B67978  35.976  34.036   7.209
 5255POPC   NC367979   1.366  44.352   5.425
 5255POPC   PO467980   1.007  43.728   5.379
 5255POPC   GL167981   1.179  43.859   5.774
 5255POPC   GL267982   0.978  43.709   6.062
 5255POPC   C1A67983   1.507  43.821   6.099
 5255POPC   D2A67984   1.747  43.706   6.475
 5255POPC   C3A67985   1.491  43.718   6.850
 5255POPC   C4A67986   1.466  43.752   7.278
 5255POPC   C1B67987   1.090  44.105   6.218
 5255POPC   C2B67988   1.409  44.116   6.518
 5255POPC   C3B67989   1.399  44.257   6.926
 5255POPC   C4B67990   1.111  44.120   7.201
 5256POPC   NC367991  43.697  25.048   5.373
 5256POPC   PO467992  44.287  25.363   5.254
 5256POPC   GL167993  44.006  25.434   5.602
 5256POPC   GL267994  44.242  25.603   5.809
 5256POPC   C1A67995  43.825  25.413   6.057
 5256POPC   D2A67996  43.956  25.176   6.451
 5256POPC   C3A67997  43.693  25.086   6.809
 5256POPC   C4A67998  43.745  25.158   7.231
 5256POPC   C1B67999  44.282  25.549   6.272
 5256POPC   C2B68000  44.266  25.550   6.715
 5256POPC   C3B68001  43.908  25.561   6.965
 5256POPC   C4B68002  43.955  25.596   7.394
 5257POPC   NC368003  41.722  24.255   5.146
 5257POPC   PO468004  42.283  24.571   5.348
 5257POPC   GL168005  42.331  24.431   5.752
 5257POPC   GL268006  42.004  24.453   5.816
 5257POPC   C1A68007  42.331  24.585   6.176
 5257POPC   D2A68008  42.229  24.451   6.556
 5257POPC   C3A68009  42.414  24.590   6.889
 5257POPC   C4A68010  42.441  24.377   7.248
 5257POPC   C1B68011  41.811  24.693   6.153
 5257POPC   C2B68012  41.909  24.903   6.539
 5257POPC   C3B68013  41.953  24.839   6.984
 5257POPC   C4B68014  41.950  24.434   7.162
 5258POPC   NC368015  10.679   0.302   5.400
 5258POPC   PO468016  10.346   0.832   5.182
 5258POPC   GL168017  10.478   0.676   5.672
 5258POPC   GL268018  10.511   0.338   5.863
 5258POPC   C1A68019  10.417   0.711   6.168
 5258POPC   D2A68020  10.714   0.539   6.490
 5258POPC   C3A68021  10.537   0.481   6.891
 5258POPC   C4A68022  10.387   0.181   7.213
 5258POPC   C1B68023  10.832   0.114   6.109
 5258POPC   C2B68024  11.073   0.139   6.508
 5258POPC   C3B68025  10.984   0.148   6.936
 5258POPC   C4B68026  10.909  44.930   7.335
 5259POPC   NC368027   0.057   2.664   5.443
 5259POPC   PO468028   0.738   2.435   5.450
 5259POPC   GL168029   0.504   2.709   5.779
 5259POPC   GL268030   0.171   2.643   5.921
 5259POPC   C1A68031   0.539   2.909   6.203
 5259POPC   D2A68032   0.579   3.222   6.566
 5259POPC   C3A68033   0.508   3.005   6.981
 5259POPC   C4A68034   0.207   2.730   7.155
 5259POPC   C1B68035   0.195   2.429   6.285
 5259POPC   C2B68036   0.326   2.592   6.654
 5259POPC   C3B68037   0.194   2.282   6.912
 5259POPC   C4B68038   0.050   2.259   7.286
 5260POPC   NC368039   7.726   2.178   5.450
 5260POPC   PO468040   7.228   1.737   5.325
 5260POPC   GL168041   7.307   1.752   5.758
 5260POPC   GL268042   7.640   1.892   5.882
 5260POPC   C1A68043   7.151   1.841   6.157
 5260POPC   D2A68044   7.415   1.848   6.506
 5260POPC   C3A68045   7.247   2.006   6.879
 5260POPC   C4A68046   7.341   1.876   7.284
 5260POPC   C1B68047   7.594   2.250   6.220
 5260POPC   C2B68048   7.601   2.341   6.674
 5260POPC   C3B68049   7.738   2.135   7.081
 5260POPC   C4B68050   8.033   1.999   7.432
 5261POPC   NC368051  32.588  22.607   5.214
 5261POPC   PO468052  32.020  22.862   5.387
 5261POPC   GL168053  32.282  22.868   5.726
 5261POPC   GL268054  32.431  22.563   5.752
 5261POPC   C1A68055  32.230  22.981   6.150
 5261POPC   D2A68056  32.535  22.998   6.475
 5261POPC   C3A68057  32.442  22.911   6.892
 5261POPC   C4A68058  32.268  22.894   7.306
 5261POPC   C1B68059  32.302  22.499   6.202
 5261POPC   C2B68060  32.162  22.610   6.599
 5261POPC   C3B68061  32.094  22.491   7.043
 5261POPC   C4B68062  32.253  22.429   7.489
 5262POPC   NC368063   5.686  31.519   5.040
 5262POPC   PO468064   6.178  31.432   5.507
 5262POPC   GL168065   5.938  31.344   5.902
 5262POPC   GL268066   5.657  31.545   6.032
 5262POPC   C1A68067   5.806  31.169   6.312
 5262POPC   D2A68068   5.697  31.471   6.633
 5262POPC   C3A68069   5.744  31.251   7.000
 5262POPC   C4A68070   5.775  31.288   7.412
 5262POPC   C1B68071   5.964  31.782   6.303
 5262POPC   C2B68072   6.008  31.873   6.752
 5262POPC   C3B68073   5.840  31.721   7.114
 5262POPC   C4B68074   5.677  31.799   7.518
 5263POPC   NC368075   1.473   9.325   5.598
 5263POPC   PO468076   1.022   9.692   5.366
 5263POPC   GL168077   1.229   9.715   5.818
 5263POPC   GL268078   1.570   9.847   5.726
 5263POPC   C1A68079   1.377   9.553   6.284
 5263POPC   D2A68080   1.569   9.437   6.744
 5263POPC   C3A68081   1.318   9.503   7.127
 5263POPC   C4A68082   1.064   9.851   7.227
 5263POPC   C1B68083   1.557  10.051   6.120
 5263POPC   C2B68084   1.337  10.021   6.515
 5263POPC   C3B68085   1.490   9.953   6.925
 5263POPC   C4B68086   1.500  10.146   7.322
 5264POPC   NC368087  33.879  18.635   5.642
 5264POPC   PO468088  33.935  19.208   5.313
 5264POPC   GL168089  33.965  19.145   5.752
 5264POPC   GL268090  33.635  19.061   5.876
 5264POPC   C1A68091  34.079  19.316   6.173
 5264POPC   D2A68092  34.088  19.191   6.629
 5264POPC   C3A68093  34.055  18.992   7.034
 5264POPC   C4A68094  34.218  19.205   7.398
 5264POPC   C1B68095  33.839  18.873   6.246
 5264POPC   C2B68096  33.737  18.749   6.655
 5264POPC   C3B68097  33.544  18.981   6.985
 5264POPC   C4B68098  33.651  18.977   7.443
 5265POPC   NC368099   2.564  40.860   5.345
 5265POPC   PO468100   2.491  40.180   5.495
 5265POPC   GL168101   2.643  40.537   5.790
 5265POPC   GL268102   2.617  40.925   5.833
 5265POPC   C1A68103   2.820  40.627   6.198
 5265POPC   D2A68104   3.039  40.540   6.565
 5265POPC   C3A68105   2.748  40.593   6.876
 5265POPC   C4A68106   2.678  40.491   7.265
 5265POPC   C1B68107   2.550  41.091   6.225
 5265POPC   C2B68108   2.785  41.019   6.561
 5265POPC   C3B68109   3.090  40.979   6.869
 5265POPC   C4B68110   2.843  40.995   7.232
 5266POPC   NC368111  13.572   2.503   5.100
 5266POPC   PO468112  13.126   2.681   5.571
 5266POPC   GL168113  13.516   2.731   5.804
 5266POPC   GL268114  13.591   2.451   5.975
 5266POPC   C1A68115  13.605   2.858   6.253
 5266POPC   D2A68116  13.338   2.745   6.613
 5266POPC   C3A68117  13.413   2.928   7.035
 5266POPC   C4A68118  13.762   3.106   7.296
 5266POPC   C1B68119  13.330   2.329   6.248
 5266POPC   C2B68120  13.365   2.181   6.641
 5266POPC   C3B68121  13.446   2.408   6.976
 5266POPC   C4B68122  13.614   2.408   7.364
 5267POPC   NC368123  37.435  22.215   5.374
 5267POPC   PO468124  38.116  22.357   5.448
 5267POPC   GL168125  37.823  22.389   5.775
 5267POPC   GL268126  37.629  22.083   5.820
 5267POPC   C1A68127  37.752  22.348   6.224
 5267POPC   D2A68128  37.915  22.385   6.623
 5267POPC   C3A68129  37.707  22.218   6.967
 5267POPC   C4A68130  37.951  22.179   7.299
 5267POPC   C1B68131  37.598  21.863   6.193
 5267POPC   C2B68132  37.466  21.914   6.593
 5267POPC   C3B68133  37.320  21.672   6.923
 5267POPC   C4B68134  37.370  21.798   7.333
 5268POPC   NC368135   1.614   1.320   5.440
 5268POPC   PO468136   2.165   0.910   5.470
 5268POPC   GL168137   2.041   1.116   5.828
 5268POPC   GL268138   1.698   1.111   5.887
 5268POPC   C1A68139   2.127   1.044   6.248
 5268POPC   D2A68140   2.307   1.101   6.647
 5268POPC   C3A68141   2.049   1.299   6.961
 5268POPC   C4A68142   2.176   1.155   7.347
 5268POPC   C1B68143   1.765   1.428   6.230
 5268POPC   C2B68144   1.696   1.570   6.687
 5268POPC   C3B68145   1.660   1.566   7.169
 5268POPC   C4B68146   1.703   1.263   7.521
 5269POPC   NC368147  20.149  11.948   5.473
 5269POPC   PO468148  20.694  12.363   5.414
 5269POPC   GL168149  20.687  12.204   5.839
 5269POPC   GL268150  20.380  12.400   5.867
 5269POPC   C1A68151  20.623  11.957   6.283
 5269POPC   D2A68152  20.524  11.681   6.675
 5269POPC   C3A68153  20.700  11.881   7.056
 5269POPC   C4A68154  21.040  12.196   7.080
 5269POPC   C1B68155  20.591  12.467   6.255
 5269POPC   C2B68156  20.840  12.381   6.569
 5269POPC   C3B68157  20.600  12.359   6.897
 5269POPC   C4B68158  20.287  12.220   7.156
 5270POPC   NC368159  17.210  24.237   5.527
 5270POPC   PO468160  17.809  24.308   5.495
 5270POPC   GL168161  17.650  24.335   5.933
 5270POPC   GL268162  17.375  24.589   5.896
 5270POPC   C1A68163  17.711  24.178   6.408
 5270POPC   D2A68164  17.476  24.094   6.822
 5270POPC   C3A68165  17.494  24.368   7.184
 5270POPC   C4A68166  17.499  24.732   7.498
 5270POPC   C1B68167  17.089  24.405   6.202
 5270POPC   C2B68168  16.953  24.309   6.632
 5270POPC   C3B68169  16.987  24.312   7.086
 5270POPC   C4B68170  17.008  24.559   7.487
 5271POPC   NC368171  43.521  20.587   5.405
 5271POPC   PO468172  44.212  20.514   5.485
 5271POPC   GL168173  43.926  20.775   5.726
 5271POPC   GL268174  44.181  20.714   5.972
 5271POPC   C1A68175  43.696  20.968   6.111
 5271POPC   D2A68176  43.588  20.926   6.579
 5271POPC   C3A68177  43.763  20.520   6.745
 5271POPC   C4A68178  43.899  20.401   7.143
 5271POPC   C1B68179  44.060  20.767   6.391
 5271POPC   C2B68180  44.071  21.003   6.756
 5271POPC   C3B68181  44.229  20.824   7.103
 5271POPC   C4B68182  44.380  20.476   7.288
 5272POPC   NC368183  21.875  12.598   5.593
 5272POPC   PO468184  21.407  11.999   5.379
 5272POPC   GL168185  21.218  12.035   5.792
 5272POPC   GL268186  21.431  12.341   5.812
 5272POPC   C1A68187  21.210  12.015   6.273
 5272POPC   D2A68188  21.506  11.852   6.644
 5272POPC   C3A68189  21.359  11.800   7.104
 5272POPC   C4A68190  21.098  11.887   7.472
 5272POPC   C1B68191  21.475  12.456   6.230
 5272POPC   C2B68192  21.339  12.336   6.642
 5272POPC   C3B68193  21.547  12.274   6.978
 5272POPC   C4B68194  21.419  12.479   7.305
 5273POPC   NC368195  15.390  10.219   5.056
 5273POPC   PO468196  15.166   9.815   5.533
 5273POPC   GL168197  15.219   9.686   5.904
 5273POPC   GL268198  15.489   9.427   5.959
 5273POPC   C1A68199  15.123   9.868   6.288
 5273POPC   D2A68200  15.335   9.855   6.660
 5273POPC   C3A68201  14.969   9.882   6.902
 5273POPC   C4A68202  14.974  10.086   7.285
 5273POPC   C1B68203  15.189   9.361   6.289
 5273POPC   C2B68204  15.062   9.415   6.691
 5273POPC   C3B68205  15.265   9.531   7.078
 5273POPC   C4B68206  15.458   9.951   7.198
 5274POPC   NC368207   4.930  11.613   5.310
 5274POPC   PO468208   5.360  11.083   5.422
 5274POPC   GL168209   5.161  11.285   5.783
 5274POPC   GL268210   4.805  11.317   5.743
 5274POPC   C1A68211   4.987  11.077   6.163
 5274POPC   D2A68212   5.091  10.902   6.553
 5274POPC   C3A68213   4.925  10.940   6.933
 5274POPC   C4A68214   5.232  11.120   7.166
 5274POPC   C1B68215   4.865  11.570   6.123
 5274POPC   C2B68216   5.009  11.501   6.535
 5274POPC   C3B68217   4.874  11.444   6.926
 5274POPC   C4B68218   4.807  11.414   7.341
 5275POPC   NC368219  10.924  34.089   5.659
 5275POPC   PO468220  10.572  34.652   5.394
 5275POPC   GL168221  10.548  34.591   5.804
 5275POPC   GL268222  10.903  34.566   5.837
 5275POPC   C1A68223  10.302  34.563   6.172
 5275POPC   D2A68224  10.089  34.701   6.532
 5275POPC   C3A68225  10.291  34.609   6.934
 5275POPC   C4A68226  10.296  35.022   7.119
 5275POPC   C1B68227  10.792  34.345   6.233
 5275POPC   C2B68228  10.792  34.463   6.637
 5275POPC   C3B68229  10.863  34.261   7.009
 5275POPC   C4B68230  10.684  34.441   7.365
 5276POPC   NC368231  17.676   0.648   5.282
 5276POPC   PO468232  17.382   0.079   5.348
 5276POPC   GL168233  17.572   0.316   5.727
 5276POPC   GL268234  17.547   0.712   5.782
 5276POPC   C1A68235  17.577   0.357   6.179
 5276POPC   D2A68236  17.493   0.133   6.550
 5276POPC   C3A68237  17.555   0.342   6.903
 5276POPC   C4A68238  17.664   0.229   7.292
 5276POPC   C1B68239  17.211   0.711   6.101
 5276POPC   C2B68240  17.231   0.587   6.528
 5276POPC   C3B68241  17.191   0.704   6.957
 5276POPC   C4B68242  17.528   0.740   7.237
 5277POPC   NC368243   1.948  17.772   5.148
 5277POPC   PO468244   1.821  18.384   5.275
 5277POPC   GL168245   2.013  18.341   5.734
 5277POPC   GL268246   1.846  18.138   5.979
 5277POPC   C1A68247   2.146  18.491   6.171
 5277POPC   D2A68248   2.080  18.215   6.545
 5277POPC   C3A68249   2.136  18.451   6.880
 5277POPC   C4A68250   2.481  18.608   7.087
 5277POPC   C1B68251   1.641  18.052   6.328
 5277POPC   C2B68252   1.569  17.951   6.723
 5277POPC   C3B68253   1.797  18.081   7.072
 5277POPC   C4B68254   1.571  18.010   7.458
 5278POPC   NC368255  10.836  24.487   5.483
 5278POPC   PO468256  10.235  24.782   5.474
 5278POPC   GL168257  10.425  24.458   5.776
 5278POPC   GL268258  10.695  24.644   5.931
 5278POPC   C1A68259  10.520  24.264   6.212
 5278POPC   D2A68260  10.809  24.395   6.570
 5278POPC   C3A68261  10.603  24.447   6.983
 5278POPC   C4A68262  10.677  24.346   7.406
 5278POPC   C1B68263  10.249  24.699   6.173
 5278POPC   C2B68264  10.311  24.591   6.590
 5278POPC   C3B68265  10.174  24.708   7.009
 5278POPC   C4B68266  10.252  24.629   7.443
 5279POPC   NC368267  23.661  21.304   5.281
 5279POPC   PO468268  23.093  20.859   5.521
 5279POPC   GL168269  23.541  21.017   5.721
 5279POPC   GL268270  23.903  21.206   5.707
 5279POPC   C1A68271  23.654  21.324   6.095
 5279POPC   D2A68272  23.499  21.290   6.470
 5279POPC   C3A68273  23.767  21.371   6.788
 5279POPC   C4A68274  23.649  21.367   7.235
 5279POPC   C1B68275  24.116  21.062   6.112
 5279POPC   C2B68276  23.984  20.954   6.553
 5279POPC   C3B68277  23.950  20.956   7.012
 5279POPC   C4B68278  24.122  21.228   7.332
 5280POPC   NC368279  44.799  37.497   5.342
 5280POPC   PO468280  44.322  37.921   5.336
 5280POPC   GL168281  44.335  37.748   5.769
 5280POPC   GL268282  44.529  37.457   5.842
 5280POPC   C1A68283  44.342  37.780   6.241
 5280POPC   D2A68284  44.656  37.664   6.576
 5280POPC   C3A68285  44.579  37.751   7.012
 5280POPC   C4A68286  44.873  37.804   7.335
 5280POPC   C1B68287  44.315  37.251   6.214
 5280POPC   C2B68288  44.356  37.252   6.684
 5280POPC   C3B68289  44.669  37.217   7.029
 5280POPC   C4B68290   0.036  37.319   7.292
 5281POPC   NC368291   0.211  14.408   5.355
 5281POPC   PO468292   0.424  13.744   5.263
 5281POPC   GL168293   0.471  14.032   5.661
 5281POPC   GL268294   0.154  14.216   5.814
 5281POPC   C1A68295   0.603  14.342   6.012
 5281POPC   D2A68296   0.471  14.573   6.389
 5281POPC   C3A68297   0.494  14.474   6.845
 5281POPC   C4A68298   0.421  14.584   7.305
 5281POPC   C1B68299   0.044  14.554   6.114
 5281POPC   C2B68300  44.991  14.527   6.592
 5281POPC   C3B68301   0.027  14.295   7.008
 5281POPC   C4B68302   0.387  14.085   7.200
 5282POPC   NC368303   8.524  37.313   5.455
 5282POPC   PO468304   8.972  37.763   5.365
 5282POPC   GL168305   9.067  37.637   5.798
 5282POPC   GL268306   8.990  37.950   5.942
 5282POPC   C1A68307   9.297  37.607   6.228
 5282POPC   D2A68308   9.476  37.857   6.594
 5282POPC   C3A68309   9.244  37.706   6.927
 5282POPC   C4A68310   8.991  37.408   7.131
 5282POPC   C1B68311   8.772  37.621   6.235
 5282POPC   C2B68312   8.630  37.552   6.684
 5282POPC   C3B68313   8.578  37.703   7.117
 5282POPC   C4B68314   8.710  37.617   7.563
 5283POPC   NC368315  32.627  37.131   5.654
 5283POPC   PO468316  33.256  37.512   5.485
 5283POPC   GL168317  33.222  37.628   5.909
 5283POPC   GL268318  32.847  37.588   5.840
 5283POPC   C1A68319  33.412  37.672   6.326
 5283POPC   D2A68320  33.232  37.912   6.644
 5283POPC   C3A68321  33.131  37.769   7.065
 5283POPC   C4A68322  32.743  37.913   7.246
 5283POPC   C1B68323  32.880  37.395   6.245
 5283POPC   C2B68324  32.991  37.475   6.655
 5283POPC   C3B68325  32.757  37.379   7.009
 5283POPC   C4B68326  32.627  36.957   7.069
 5284POPC   NC368327  13.012  10.126   5.439
 5284POPC   PO468328  12.816   9.514   5.208
 5284POPC   GL168329  12.781   9.620   5.650
 5284POPC   GL268330  13.126   9.649   5.780
 5284POPC   C1A68331  12.743   9.450   6.086
 5284POPC   D2A68332  12.950   9.542   6.477
 5284POPC   C3A68333  12.697   9.594   6.828
 5284POPC   C4A68334  12.826   9.587   7.241
 5284POPC   C1B68335  12.956   9.939   6.113
 5284POPC   C2B68336  13.032  10.048   6.559
 5284POPC   C3B68337  12.905  10.037   6.984
 5284POPC   C4B68338  13.204   9.929   7.290
 5285POPC   NC368339  39.229  34.926   5.374
 5285POPC   PO468340  39.193  35.638   5.327
 5285POPC   GL168341  39.294  35.661   5.825
 5285POPC   GL268342  39.047  35.373   5.946
 5285POPC   C1A68343  39.418  35.495   6.255
 5285POPC   D2A68344  39.114  35.412   6.597
 5285POPC   C3A68345  39.327  35.509   6.985
 5285POPC   C4A68346  39.327  35.377   7.423
 5285POPC   C1B68347  39.137  35.042   6.235
 5285POPC   C2B68348  39.130  34.793   6.625
 5285POPC   C3B68349  39.229  34.960   7.073
 5285POPC   C4B68350  39.171  34.915   7.561
 5286POPC   NC368351   6.601   0.129   5.377
 5286POPC   PO468352   6.329   0.800   5.383
 5286POPC   GL168353   6.490   0.492   5.739
 5286POPC   GL268354   6.301   0.177   5.781
 5286POPC   C1A68355   6.723   0.207   6.069
 5286POPC   D2A68356   6.979   0.029   6.408
 5286POPC   C3A68357   6.981   0.233   6.821
 5286POPC   C4A68358   6.813   0.093   7.241
 5286POPC   C1B68359   6.237   0.361   6.182
 5286POPC   C2B68360   6.540   0.454   6.499
 5286POPC   C3B68361   6.493   0.322   6.913
 5286POPC   C4B68362   6.635   0.575   7.263
 5287POPC   NC368363   7.406  31.991   5.272
 5287POPC   PO468364   7.776  32.595   5.296
 5287POPC   GL168365   7.628  32.366   5.726
 5287POPC   GL268366   7.340  32.101   5.776
 5287POPC   C1A68367   7.498  32.400   6.200
 5287POPC   D2A68368   7.327  32.224   6.611
 5287POPC   C3A68369   7.545  32.237   7.001
 5287POPC   C4A68370   7.643  32.618   7.241
 5287POPC   C1B68371   7.128  32.017   6.195
 5287POPC   C2B68372   6.945  31.886   6.595
 5287POPC   C3B68373   7.011  32.074   6.990
 5287POPC   C4B68374   7.214  32.067   7.374
 5288POPC   NC368375  25.400  24.861   5.567
 5288POPC   PO468376  25.210  24.365   5.177
 5288POPC   GL168377  25.267  24.368   5.668
 5288POPC   GL268378  25.126  24.050   5.730
 5288POPC   C1A68379  25.424  24.541   6.110
 5288POPC   D2A68380  25.442  24.437   6.558
 5288POPC   C3A68381  25.430  24.686   6.942
 5288POPC   C4A68382  25.236  24.687   7.346
 5288POPC   C1B68383  25.351  24.042   6.136
 5288POPC   C2B68384  25.228  23.950   6.564
 5288POPC   C3B68385  25.293  24.141   6.956
 5288POPC   C4B68386  25.366  24.207   7.371
 5289POPC   NC368387  24.320  20.932   5.373
 5289POPC   PO468388  24.457  20.286   5.488
 5289POPC   GL168389  24.630  20.607   5.732
 5289POPC   GL268390  24.805  20.394   5.955
 5289POPC   C1A68391  24.610  20.854   6.128
 5289POPC   D2A68392  24.780  21.005   6.535
 5289POPC   C3A68393  24.456  20.977   6.867
 5289POPC   C4A68394  24.322  20.670   7.193
 5289POPC   C1B68395  24.341  20.425   6.130
 5289POPC   C2B68396  24.254  20.494   6.553
 5289POPC   C3B68397  24.627  20.495   6.797
 5289POPC   C4B68398  24.747  20.270   7.144
 5290POPC   NC368399   9.618  35.594   5.550
 5290POPC   PO468400   9.910  34.955   5.519
 5290POPC   GL168401   9.985  35.176   5.914
 5290POPC   GL268402   9.686  35.419   6.021
 5290POPC   C1A68403   9.970  35.189   6.368
 5290POPC   D2A68404   9.563  35.336   6.554
 5290POPC   C3A68405   9.596  35.279   6.979
 5290POPC   C4A68406   9.970  35.427   7.118
 5290POPC   C1B68407   9.372  35.703   6.222
 5290POPC   C2B68408   9.331  35.813   6.669
 5290POPC   C3B68409   9.557  35.802   7.075
 5290POPC   C4B68410   9.503  35.518   7.436
 5291POPC   NC368411   4.505  43.040   5.169
 5291POPC   PO468412   4.169  43.446   5.588
 5291POPC   GL168413   4.347  43.156   5.844
 5291POPC   GL268414   4.312  42.855   5.643
 5291POPC   C1A68415   4.405  43.151   6.307
 5291POPC   D2A68416   4.155  43.256   6.679
 5291POPC   C3A68417   4.359  43.246   7.063
 5291POPC   C4A68418   4.306  43.296   7.484
 5291POPC   C1B68419   4.188  42.718   6.071
 5291POPC   C2B68420   4.307  42.678   6.513
 5291POPC   C3B68421   4.542  42.810   6.877
 5291POPC   C4B68422   4.377  42.808   7.320
 5292POPC   NC368423   9.205  43.843   5.312
 5292POPC   PO468424   8.547  43.836   5.255
 5292POPC   GL168425   8.662  43.933   5.753
 5292POPC   GL268426   8.957  43.725   5.770
 5292POPC   C1A68427   8.739  43.929   6.277
 5292POPC   D2A68428   9.007  44.134   6.694
 5292POPC   C3A68429   9.071  43.968   7.107
 5292POPC   C4A68430   8.881  43.593   7.308
 5292POPC   C1B68431   9.191  43.714   6.151
 5292POPC   C2B68432   9.044  43.638   6.573
 5292POPC   C3B68433   9.239  43.529   6.932
 5292POPC   C4B68434   9.503  43.646   7.270
 5293POPC   NC368435   7.036  21.728   5.563
 5293POPC   PO468436   7.655  21.524   5.351
 5293POPC   GL168437   7.540  21.299   5.733
 5293POPC   GL268438   7.178  21.287   5.777
 5293POPC   C1A68439   7.489  21.465   6.161
 5293POPC   D2A68440   7.460  21.274   6.560
 5293POPC   C3A68441   7.613  21.353   6.962
 5293POPC   C4A68442   7.369  21.429   7.359
 5293POPC   C1B68443   7.056  21.211   6.206
 5293POPC   C2B68444   7.032  20.996   6.617
 5293POPC   C3B68445   7.094  21.238   6.955
 5293POPC   C4B68446   6.838  21.383   7.276
 5294POPC   NC368447  20.128  39.531   5.640
 5294POPC   PO468448  19.833  40.012   5.236
 5294POPC   GL168449  19.731  39.976   5.716
 5294POPC   GL268450  19.575  40.269   5.879
 5294POPC   C1A68451  19.658  39.840   6.171
 5294POPC   D2A68452  19.588  39.994   6.606
 5294POPC   C3A68453  19.896  39.802   6.946
 5294POPC   C4A68454  19.776  39.906   7.382
 5294POPC   C1B68455  19.913  40.301   6.181
 5294POPC   C2B68456  19.893  40.410   6.604
 5294POPC   C3B68457  19.755  40.284   7.010
 5294POPC   C4B68458  20.039  40.350   7.323
 5295POPC   NC368459  22.440  32.774   5.585
 5295POPC   PO468460  22.606  33.332   5.185
 5295POPC   GL168461  22.789  33.209   5.641
 5295POPC   GL268462  22.981  32.874   5.709
 5295POPC   C1A68463  22.817  33.171   6.147
 5295POPC   D2A68464  22.988  33.110   6.622
 5295POPC   C3A68465  22.711  33.161   7.029
 5295POPC   C4A68466  22.661  33.222   7.510
 5295POPC   C1B68467  23.133  32.755   6.160
 5295POPC   C2B68468  23.268  32.664   6.614
 5295POPC   C3B68469  22.982  32.708   7.010
 5295POPC   C4B68470  22.785  32.733   7.463
 5296POPC   NC368471  28.004  31.705   5.445
 5296POPC   PO468472  28.548  31.297   5.295
 5296POPC   GL168473  28.494  31.433   5.720
 5296POPC   GL268474  28.176  31.300   5.724
 5296POPC   C1A68475  28.524  31.531   6.187
 5296POPC   D2A68476  28.634  31.726   6.552
 5296POPC   C3A68477  28.473  31.494   6.871
 5296POPC   C4A68478  28.428  31.350   7.277
 5296POPC   C1B68479  28.174  31.183   6.127
 5296POPC   C2B68480  28.188  31.123   6.576
 5296POPC   C3B68481  27.996  31.323   6.918
 5296POPC   C4B68482  27.898  31.290   7.352
 5297POPC   NC368483  29.976  22.881   5.339
 5297POPC   PO468484  30.418  22.456   5.654
 5297POPC   GL168485  30.105  22.768   5.819
 5297POPC   GL268486  29.737  22.724   5.898
 5297POPC   C1A68487  30.121  23.114   6.103
 5297POPC   D2A68488  30.150  23.062   6.552
 5297POPC   C3A68489  29.838  23.060   6.885
 5297POPC   C4A68490  29.994  22.993   7.295
 5297POPC   C1B68491  29.681  22.932   6.295
 5297POPC   C2B68492  29.497  22.731   6.627
 5297POPC   C3B68493  29.486  22.497   6.973
 5297POPC   C4B68494  29.540  22.771   7.292
 5298POPC   NC368495  15.401  25.403   5.313
 5298POPC   PO468496  15.057  25.006   5.583
 5298POPC   GL168497  15.209  25.258   5.880
 5298POPC   GL268498  15.158  25.596   5.743
 5298POPC   C1A68499  15.274  25.166   6.332
 5298POPC   D2A68500  15.136  25.310   6.734
 5298POPC   C3A68501  15.309  25.096   7.089
 5298POPC   C4A68502  15.130  24.917   7.453
 5298POPC   C1B68503  14.890  25.633   6.105
 5298POPC   C2B68504  14.721  25.537   6.513
 5298POPC   C3B68505  14.686  25.509   6.954
 5298POPC   C4B68506  14.991  25.453   7.261
 5299POPC   NC368507   4.621  43.564   5.601
 5299POPC   PO468508   5.301  43.690   5.540
 5299POPC   GL168509   5.113  43.864   5.907
 5299POPC   GL268510   4.752  43.923   5.949
 5299POPC   C1A68511   5.056  43.778   6.353
 5299POPC   D2A68512   5.005  43.877   6.786
 5299POPC   C3A68513   5.245  43.702   7.133
 5299POPC   C4A68514   5.174  43.751   7.602
 5299POPC   C1B68515   4.560  43.643   6.257
 5299POPC   C2B68516   4.621  43.520   6.690
 5299POPC   C3B68517   4.692  43.617   7.140
 5299POPC   C4B68518   4.686  43.604   7.606
 5300POPC   NC368519   1.456  19.441   5.506
 5300POPC   PO468520   1.246  18.787   5.655
 5300POPC   GL168521   1.248  19.151   5.864
 5300POPC   GL268522   0.934  19.230   5.941
 5300POPC   C1A68523   1.507  19.173   6.194
 5300POPC   D2A68524   1.468  18.910   6.527
 5300POPC   C3A68525   1.589  19.045   6.915
 5300POPC   C4A68526   1.549  19.340   7.232
 5300POPC   C1B68527   0.944  18.978   6.326
 5300POPC   C2B68528   0.915  19.003   6.780
 5300POPC   C3B68529   1.121  19.013   7.171
 5300POPC   C4B68530   1.106  18.825   7.572
 5301POPC   NC368531  28.821  14.965   5.332
 5301POPC   PO468532  29.214  15.513   5.145
 5301POPC   GL168533  29.200  15.417   5.656
 5301POPC   GL268534  28.893  15.247   5.762
 5301POPC   C1A68535  29.282  15.214   6.108
 5301POPC   D2A68536  29.460  15.369   6.503
 5301POPC   C3A68537  29.422  15.125   6.884
 5301POPC   C4A68538  29.332  15.117   7.353
 5301POPC   C1B68539  28.863  14.940   6.113
 5301POPC   C2B68540  29.066  14.933   6.551
 5301POPC   C3B68541  28.936  14.990   7.017
 5301POPC   C4B68542  28.750  14.681   7.315
 5302POPC   NC368543  37.109   6.648   5.431
 5302POPC   PO468544  36.604   7.028   5.637
 5302POPC   GL168545  36.977   6.834   5.883
 5302POPC   GL268546  37.141   6.462   5.889
 5302POPC   C1A68547  37.157   6.790   6.287
 5302POPC   D2A68548  36.958   6.941   6.675
 5302POPC   C3A68549  36.721   6.738   6.994
 5302POPC   C4A68550  36.800   7.031   7.337
 5302POPC   C1B68551  37.144   6.246   6.282
 5302POPC   C2B68552  37.113   6.443   6.675
 5302POPC   C3B68553  37.187   6.592   7.086
 5302POPC   C4B68554  37.290   6.384   7.441
 5303POPC   NC368555  13.139  20.880   5.425
 5303POPC   PO468556  13.664  20.463   5.329
 5303POPC   GL168557  13.529  20.595   5.747
 5303POPC   GL268558  13.249  20.396   5.871
 5303POPC   C1A68559  13.654  20.538   6.194
 5303POPC   D2A68560  13.882  20.681   6.577
 5303POPC   C3A68561  13.709  20.709   6.937
 5303POPC   C4A68562  13.819  20.691   7.336
 5303POPC   C1B68563  13.165  20.411   6.312
 5303POPC   C2B68564  13.413  20.353   6.703
 5303POPC   C3B68565  13.440  20.356   7.178
 5303POPC   C4B68566  13.159  20.333   7.595
 5304POPC   NC368567   4.399  28.503   5.520
 5304POPC   PO468568   4.604  27.889   5.748
 5304POPC   GL168569   4.391  28.213   5.963
 5304POPC   GL268570   4.091  28.210   5.810
 5304POPC   C1A68571   4.315  28.478   6.343
 5304POPC   D2A68572   4.601  28.675   6.655
 5304POPC   C3A68573   4.507  28.612   7.064
 5304POPC   C4A68574   4.523  28.207   7.211
 5304POPC   C1B68575   3.845  28.357   6.160
 5304POPC   C2B68576   3.804  28.480   6.585
 5304POPC   C3B68577   4.008  28.388   6.948
 5304POPC   C4B68578   4.100  28.486   7.351
 5305POPC   NC368579  27.360  16.806   5.055
 5305POPC   PO468580  27.868  16.282   5.284
 5305POPC   GL168581  27.884  16.333   5.734
 5305POPC   GL268582  27.626  16.590   5.812
 5305POPC   C1A68583  27.857  16.301   6.205
 5305POPC   D2A68584  27.993  16.644   6.488
 5305POPC   C3A68585  27.815  16.798   6.886
 5305POPC   C4A68586  27.954  16.744   7.298
 5305POPC   C1B68587  27.465  16.606   6.255
 5305POPC   C2B68588  27.514  16.412   6.677
 5305POPC   C3B68589  27.339  16.601   7.052
 5305POPC   C4B68590  27.446  16.867   7.422
 5306POPC   NC368591  36.492  11.461   5.561
 5306POPC   PO468592  37.059  11.123   5.459
 5306POPC   GL168593  36.908  11.306   5.824
 5306POPC   GL268594  36.647  11.063   5.853
 5306POPC   C1A68595  36.981  11.489   6.241
 5306POPC   D2A68596  37.200  11.300   6.584
 5306POPC   C3A68597  37.219  11.372   6.996
 5306POPC   C4A68598  37.236  11.154   7.394
 5306POPC   C1B68599  36.533  11.066   6.263
 5306POPC   C2B68600  36.653  11.283   6.588
 5306POPC   C3B68601  36.718  11.251   6.985
 5306POPC   C4B68602  36.401  11.060   7.214
 5307POPC   NC368603  41.850  33.001   5.139
 5307POPC   PO468604  41.390  32.731   5.652
 5307POPC   GL168605  41.542  32.810   6.017
 5307POPC   GL268606  41.644  33.145   5.947
 5307POPC   C1A68607  41.356  33.002   6.353
 5307POPC   D2A68608  41.256  33.058   6.733
 5307POPC   C3A68609  41.503  32.819   6.992
 5307POPC   C4A68610  41.816  32.712   7.294
 5307POPC   C1B68611  41.857  33.400   6.238
 5307POPC   C2B68612  41.713  33.301   6.641
 5307POPC   C3B68613  41.828  33.192   7.061
 5307POPC   C4B68614  41.584  33.152   7.438
 5308POPC   NC368615   0.642  37.060   5.529
 5308POPC   PO468616   0.464  36.470   5.356
 5308POPC   GL168617   0.393  36.595   5.803
 5308POPC   GL268618   0.029  36.537   5.871
 5308POPC   C1A68619   0.590  36.763   6.197
 5308POPC   D2A68620   0.675  37.089   6.500
 5308POPC   C3A68621   0.496  37.051   6.908
 5308POPC   C4A68622   0.636  36.783   7.222
 5308POPC   C1B68623   0.150  36.557   6.317
 5308POPC   C2B68624   0.414  36.558   6.691
 5308POPC   C3B68625   0.251  36.432   7.097
 5308POPC   C4B68626   0.258  36.482   7.537
 5309POPC   NC368627  18.392   8.476   5.234
 5309POPC   PO468628  17.912   8.048   5.039
 5309POPC   GL168629  18.050   8.118   5.543
 5309POPC   GL268630  18.361   8.024   5.686
 5309POPC   C1A68631  18.090   8.306   6.031
 5309POPC   D2A68632  18.106   8.103   6.483
 5309POPC   C3A68633  18.310   8.242   6.863
 5309POPC   C4A68634  18.120   8.252   7.265
 5309POPC   C1B68635  18.386   7.864   6.135
 5309POPC   C2B68636  18.607   7.883   6.566
 5309POPC   C3B68637  18.609   7.829   7.019
 5309POPC   C4B68638  18.214   7.750   7.181
 5310POPC   NC368639  19.628  12.790   5.336
 5310POPC   PO468640  20.140  13.090   5.546
 5310POPC   GL168641  19.962  12.754   5.800
 5310POPC   GL268642  19.612  12.620   5.805
 5310POPC   C1A68643  19.875  12.822   6.220
 5310POPC   D2A68644  20.152  12.835   6.542
 5310POPC   C3A68645  20.080  12.575   6.853
 5310POPC   C4A68646  20.037  12.830   7.212
 5310POPC   C1B68647  19.380  12.870   6.067
 5310POPC   C2B68648  19.466  13.060   6.453
 5310POPC   C3B68649  19.652  12.883   6.804
 5310POPC   C4B68650  19.559  13.013   7.195
 5311POPC   NC368651  35.657  20.548   5.371
 5311POPC   PO468652  36.242  20.562   5.210
 5311POPC   GL168653  36.076  20.566   5.681
 5311POPC   GL268654  36.058  20.238   5.870
 5311POPC   C1A68655  36.008  20.761   6.109
 5311POPC   D2A68656  36.328  20.865   6.449
 5311POPC   C3A68657  36.239  20.990   6.862
 5311POPC   C4A68658  36.368  20.813   7.289
 5311POPC   C1B68659  36.361  20.380   6.145
 5311POPC   C2B68660  36.537  20.405   6.546
 5311POPC   C3B68661  36.320  20.450   6.918
 5311POPC   C4B68662  36.212  20.134   7.173
 5312POPC   NC368663  15.522  10.245   5.584
 5312POPC   PO468664  15.152  10.607   5.106
 5312POPC   GL168665  15.076  10.533   5.584
 5312POPC   GL268666  15.193  10.794   5.811
 5312POPC   C1A68667  15.071  10.328   6.027
 5312POPC   D2A68668  15.356  10.320   6.413
 5312POPC   C3A68669  15.160  10.334   6.827
 5312POPC   C4A68670  15.257  10.501   7.227
 5312POPC   C1B68671  15.125  10.772   6.290
 5312POPC   C2B68672  15.214  10.822   6.729
 5312POPC   C3B68673  15.439  10.974   7.079
 5312POPC   C4B68674  15.411  11.285   7.404
 5313POPC   NC368675  21.735  17.817   5.210
 5313POPC   PO468676  22.382  17.776   5.450
 5313POPC   GL168677  22.341  17.627   5.839
 5313POPC   GL268678  22.335  17.276   5.759
 5313POPC   C1A68679  22.125  17.774   6.204
 5313POPC   D2A68680  21.814  17.622   6.481
 5313POPC   C3A68681  21.953  17.644   6.903
 5313POPC   C4A68682  22.322  17.716   7.139
 5313POPC   C1B68683  22.158  17.227   6.183
 5313POPC   C2B68684  22.297  17.038   6.579
 5313POPC   C3B68685  22.206  17.187   7.003
 5313POPC   C4B68686  22.106  17.030   7.426
 5314POPC   NC368687   2.784  22.253   5.196
 5314POPC   PO468688   3.270  21.963   5.625
 5314POPC   GL168689   2.852  22.216   5.727
 5314POPC   GL268690   2.497  22.096   5.628
 5314POPC   C1A68691   2.725  22.340   6.150
 5314POPC   D2A68692   2.853  22.124   6.532
 5314POPC   C3A68693   2.731  22.353   6.875
 5314POPC   C4A68694   2.858  22.639   7.163
 5314POPC   C1B68695   2.547  21.859   6.045
 5314POPC   C2B68696   2.606  21.661   6.481
 5314POPC   C3B68697   2.575  21.841   6.899
 5314POPC   C4B68698   2.736  22.001   7.264
 5315POPC   NC368699  41.226  43.094   5.625
 5315POPC   PO468700  41.806  42.892   5.619
 5315POPC   GL168701  41.584  43.006   5.983
 5315POPC   GL268702  41.241  42.831   6.053
 5315POPC   C1A68703  41.531  43.220   6.354
 5315POPC   D2A68704  41.262  43.294   6.698
 5315POPC   C3A68705  41.513  43.352   7.046
 5315POPC   C4A68706  41.275  43.321   7.367
 5315POPC   C1B68707  41.527  42.715   6.390
 5315POPC   C2B68708  41.606  42.900   6.781
 5315POPC   C3B68709  41.466  42.852   7.191
 5315POPC   C4B68710  41.740  42.632   7.456
 5316POPC   NC368711  24.913  33.181   5.059
 5316POPC   PO468712  25.282  32.993   5.588
 5316POPC   GL168713  25.342  33.289   5.880
 5316POPC   GL268714  25.054  33.331   5.929
 5316POPC   C1A68715  25.419  33.141   6.262
 5316POPC   D2A68716  25.355  32.848   6.543
 5316POPC   C3A68717  25.440  32.988   6.921
 5316POPC   C4A68718  25.613  32.924   7.296
 5316POPC   C1B68719  24.899  33.311   6.289
 5316POPC   C2B68720  25.113  33.336   6.656
 5316POPC   C3B68721  25.021  33.213   7.070
 5316POPC   C4B68722  24.753  33.231   7.397
 5317POPC   NC368723  23.254  40.821   5.363
 5317POPC   PO468724  22.785  40.401   5.454
 5317POPC   GL168725  22.903  40.682   5.836
 5317POPC   GL268726  23.286  40.789   5.868
 5317POPC   C1A68727  22.674  40.780   6.251
 5317POPC   D2A68728  22.688  40.590   6.667
 5317POPC   C3A68729  22.835  40.806   7.045
 5317POPC   C4A68730  22.826  40.693   7.491
 5317POPC   C1B68731  23.120  41.049   6.197
 5317POPC   C2B68732  23.055  41.080   6.616
 5317POPC   C3B68733  23.229  41.151   7.003
 5317POPC   C4B68734  23.327  40.793   7.252
 5318POPC   NC368735  25.761  40.902   5.587
 5318POPC   PO468736  26.350  40.575   5.489
 5318POPC   GL168737  26.085  40.642   5.901
 5318POPC   GL268738  25.727  40.711   6.040
 5318POPC   C1A68739  26.156  40.729   6.349
 5318POPC   D2A68740  26.462  40.845   6.652
 5318POPC   C3A68741  26.228  40.855   7.019
 5318POPC   C4A68742  25.870  40.632   7.168
 5318POPC   C1B68743  25.747  41.051   6.331
 5318POPC   C2B68744  25.807  41.085   6.788
 5318POPC   C3B68745  25.847  41.137   7.230
 5318POPC   C4B68746  25.730  40.962   7.628
 5319POPC   NC368747  12.695  10.756   5.366
 5319POPC   PO468748  13.303  10.514   5.383
 5319POPC   GL168749  12.995  10.520   5.772
 5319POPC   GL268750  12.713  10.696   5.892
 5319POPC   C1A68751  12.991  10.464   6.249
 5319POPC   D2A68752  12.681  10.434   6.618
 5319POPC   C3A68753  12.891  10.544   6.992
 5319POPC   C4A68754  13.278  10.410   7.114
 5319POPC   C1B68755  12.634  10.855   6.315
 5319POPC   C2B68756  12.430  11.068   6.639
 5319POPC   C3B68757  12.433  10.779   6.921
 5319POPC   C4B68758  12.559  10.749   7.354
 5320POPC   NC368759  32.696  27.953   5.054
 5320POPC   PO468760  33.155  28.257   5.385
 5320POPC   GL168761  32.925  28.182   5.757
 5320POPC   GL268762  32.610  28.029   5.725
 5320POPC   C1A68763  33.033  28.390   6.147
 5320POPC   D2A68764  33.168  28.607   6.519
 5320POPC   C3A68765  32.951  28.485   6.886
 5320POPC   C4A68766  33.032  28.448   7.325
 5320POPC   C1B68767  32.669  28.027   6.221
 5320POPC   C2B68768  32.646  28.099   6.710
 5320POPC   C3B68769  32.644  28.137   7.193
 5320POPC   C4B68770  32.814  28.110   7.658
 5321POPC   NC368771  35.051  10.647   5.388
 5321POPC   PO468772  35.356  10.095   5.348
 5321POPC   GL168773  35.344  10.301   5.744
 5321POPC   GL268774  35.161  10.598   5.874
 5321POPC   C1A68775  35.484  10.328   6.187
 5321POPC   D2A68776  35.561  10.638   6.503
 5321POPC   C3A68777  35.582  10.476   6.886
 5321POPC   C4A68778  35.380  10.248   7.202
 5321POPC   C1B68779  35.040  10.595   6.303
 5321POPC   C2B68780  35.102  10.833   6.681
 5321POPC   C3B68781  35.156  10.713   7.127
 5321POPC   C4B68782  35.237  10.616   7.561
 5322POPC   NC368783  18.099  12.315   5.431
 5322POPC   PO468784  17.945  11.796   5.796
 5322POPC   GL168785  18.163  12.121   6.013
 5322POPC   GL268786  18.445  12.263   5.849
 5322POPC   C1A68787  18.490  12.015   6.323
 5322POPC   D2A68788  18.495  11.804   6.734
 5322POPC   C3A68789  18.275  12.071   7.026
 5322POPC   C4A68790  18.035  12.117   7.434
 5322POPC   C1B68791  18.404  12.613   6.168
 5322POPC   C2B68792  18.314  12.703   6.627
 5322POPC   C3B68793  18.322  12.562   7.086
 5322POPC   C4B68794  18.514  12.287   7.415
 5323POPC   NC368795   3.017  30.322   5.576
 5323POPC   PO468796   2.660  29.629   5.505
 5323POPC   GL168797   2.823  29.636   5.920
 5323POPC   GL268798   2.950  29.962   5.931
 5323POPC   C1A68799   2.939  29.675   6.376
 5323POPC   D2A68800   2.888  30.053   6.677
 5323POPC   C3A68801   2.893  29.937   7.128
 5323POPC   C4A68802   2.900  29.501   7.320
 5323POPC   C1B68803   2.582  29.988   6.198
 5323POPC   C2B68804   2.402  30.174   6.531
 5323POPC   C3B68805   2.432  30.121   6.958
 5323POPC   C4B68806   2.434  29.817   7.295
 5324POPC   NC368807   2.314  38.837   5.643
 5324POPC   PO468808   1.947  39.389   5.474
 5324POPC   GL168809   1.924  39.117   5.816
 5324POPC   GL268810   1.934  39.370   5.996
 5324POPC   C1A68811   1.770  38.971   6.252
 5324POPC   D2A68812   1.634  39.124   6.647
 5324POPC   C3A68813   1.870  39.104   6.994
 5324POPC   C4A68814   1.894  39.305   7.330
 5324POPC   C1B68815   2.259  39.161   6.214
 5324POPC   C2B68816   2.203  39.088   6.613
 5324POPC   C3B68817   2.380  39.201   6.964
 5324POPC   C4B68818   2.336  39.068   7.361
 5325POPC   NC368819  33.571   8.391   5.157
 5325POPC   PO468820  34.138   8.061   5.405
 5325POPC   GL168821  33.870   8.151   5.786
 5325POPC   GL268822  33.959   8.485   5.884
 5325POPC   C1A68823  33.708   7.895   6.181
 5325POPC   D2A68824  33.621   8.000   6.641
 5325POPC   C3A68825  33.953   7.978   6.958
 5325POPC   C4A68826  34.057   8.329   7.258
 5325POPC   C1B68827  33.756   8.407   6.278
 5325POPC   C2B68828  33.448   8.494   6.591
 5325POPC   C3B68829  33.606   8.486   7.014
 5325POPC   C4B68830  33.543   8.406   7.453
 5326POPC   NC368831  28.147  32.388   5.701
 5326POPC   PO468832  27.585  31.973   5.541
 5326POPC   GL168833  27.562  32.289   5.851
 5326POPC   GL268834  27.833  32.114   5.998
 5326POPC   C1A68835  27.619  32.478   6.265
 5326POPC   D2A68836  27.916  32.327   6.577
 5326POPC   C3A68837  27.767  32.400   6.971
 5326POPC   C4A68838  27.637  32.776   7.144
 5326POPC   C1B68839  27.517  31.953   6.249
 5326POPC   C2B68840  27.433  32.146   6.623
 5326POPC   C3B68841  27.511  31.954   6.974
 5326POPC   C4B68842  27.426  31.846   7.319
 5327POPC   NC368843  14.913  27.154   5.392
 5327POPC   PO468844  14.769  26.465   5.311
 5327POPC   GL168845  15.094  26.612   5.619
 5327POPC   GL268846  15.008  26.912   5.822
 5327POPC   C1A68847  15.222  26.486   6.047
 5327POPC   D2A68848  15.125  26.304   6.477
 5327POPC   C3A68849  15.289  26.487   6.839
 5327POPC   C4A68850  15.267  26.622   7.242
 5327POPC   C1B68851  15.157  26.967   6.234
 5327POPC   C2B68852  15.020  26.874   6.655
 5327POPC   C3B68853  15.015  27.030   7.084
 5327POPC   C4B68854  15.242  27.168   7.453
 5328POPC   NC368855  23.913  35.319   5.370
 5328POPC   PO468856  23.272  35.479   5.463
 5328POPC   GL168857  23.584  35.626   5.774
 5328POPC   GL268858  23.906  35.457   5.850
 5328POPC   C1A68859  23.631  35.637   6.230
 5328POPC   D2A68860  23.360  35.622   6.598
 5328POPC   C3A68861  23.578  35.689   6.983
 5328POPC   C4A68862  23.557  35.517   7.371
 5328POPC   C1B68863  24.094  35.363   6.235
 5328POPC   C2B68864  23.983  35.486   6.627
 5328POPC   C3B68865  23.827  35.257   6.917
 5328POPC   C4B68866  23.769  35.078   7.295
 5329POPC   NC368867   3.929  13.644   5.318
 5329POPC   PO468868   4.464  13.940   5.454
 5329POPC   GL168869   4.504  13.757   5.827
 5329POPC   GL268870   4.258  13.529   5.732
 5329POPC   C1A68871   4.568  13.616   6.235
 5329POPC   D2A68872   4.758  13.728   6.607
 5329POPC   C3A68873   4.489  13.582   6.893
 5329POPC   C4A68874   4.476  13.536   7.302
 5329POPC   C1B68875   4.069  13.676   6.124
 5329POPC   C2B68876   4.121  13.530   6.537
 5329POPC   C3B68877   3.968  13.472   6.965
 5329POPC   C4B68878   3.815  13.147   7.232
 5330POPC   NC368879  42.885  28.161   5.575
 5330POPC   PO468880  43.516  28.379   5.454
 5330POPC   GL168881  43.344  28.304   5.843
 5330POPC   GL268882  43.088  28.562   5.833
 5330POPC   C1A68883  43.046  28.181   6.181
 5330POPC   D2A68884  42.852  28.368   6.487
 5330POPC   C3A68885  43.104  28.336   6.823
 5330POPC   C4A68886  43.089  28.357   7.256
 5330POPC   C1B68887  43.242  28.653   6.237
 5330POPC   C2B68888  43.093  28.834   6.616
 5330POPC   C3B68889  43.288  28.774   7.012
 5330POPC   C4B68890  43.394  28.736   7.448
 5331POPC   NC368891  12.647  11.468   5.149
 5331POPC   PO468892  12.596  11.986   5.646
 5331POPC   GL168893  12.786  11.762   6.010
 5331POPC   GL268894  13.091  11.542   5.977
 5331POPC   C1A68895  12.603  11.805   6.392
 5331POPC   D2A68896  12.391  12.086   6.681
 5331POPC   C3A68897  12.683  12.386   6.881
 5331POPC   C4A68898  13.000  12.302   7.192
 5331POPC   C1B68899  13.117  11.780   6.396
 5331POPC   C2B68900  12.929  11.924   6.798
 5331POPC   C3B68901  13.132  11.807   7.166
 5331POPC   C4B68902  13.542  11.946   7.295
 5332POPC   NC368903  26.634   7.889   5.532
 5332POPC   PO468904  26.994   8.475   5.519
 5332POPC   GL168905  26.844   8.248   5.846
 5332POPC   GL268906  26.635   8.508   5.945
 5332POPC   C1A68907  26.940   7.928   6.185
 5332POPC   D2A68908  26.727   7.821   6.582
 5332POPC   C3A68909  26.810   8.000   6.981
 5332POPC   C4A68910  27.024   8.189   7.276
 5332POPC   C1B68911  26.593   8.273   6.300
 5332POPC   C2B68912  26.816   8.356   6.623
 5332POPC   C3B68913  26.754   8.564   6.984
 5332POPC   C4B68914  26.452   8.411   7.233
 5333POPC   NC368915  30.706   8.212   5.420
 5333POPC   PO468916  31.197   7.784   5.489
 5333POPC   GL168917  30.840   7.893   5.801
 5333POPC   GL268918  30.463   7.802   5.715
 5333POPC   C1A68919  30.865   8.266   6.116
 5333POPC   D2A68920  30.868   8.523   6.508
 5333POPC   C3A68921  30.734   8.354   6.880
 5333POPC   C4A68922  30.857   8.367   7.310
 5333POPC   C1B68923  30.383   8.140   6.033
 5333POPC   C2B68924  30.504   8.117   6.468
 5333POPC   C3B68925  30.258   8.144   6.846
 5333POPC   C4B68926  30.393   8.202   7.219
 5334POPC   NC368927  30.117   5.727   5.427
 5334POPC   PO468928  29.583   6.018   5.387
 5334POPC   GL168929  29.711   6.085   5.795
 5334POPC   GL268930  29.511   5.838   6.016
 5334POPC   C1A68931  30.003   5.911   6.077
 5334POPC   D2A68932  29.855   5.658   6.411
 5334POPC   C3A68933  29.888   5.864   6.813
 5334POPC   C4A68934  29.878   5.784   7.257
 5334POPC   C1B68935  29.605   6.120   6.367
 5334POPC   C2B68936  29.492   6.209   6.805
 5334POPC   C3B68937  29.564   6.236   7.253
 5334POPC   C4B68938  29.471   6.414   7.681
 5335POPC   NC368939  14.883  30.009   5.497
 5335POPC   PO468940  15.525  29.679   5.422
 5335POPC   GL168941  15.399  29.893   5.782
 5335POPC   GL268942  15.133  29.676   5.821
 5335POPC   C1A68943  15.385  30.076   6.217
 5335POPC   D2A68944  15.251  29.844   6.621
 5335POPC   C3A68945  15.303  29.752   7.060
 5335POPC   C4A68946  15.100  30.111   7.221
 5335POPC   C1B68947  14.952  29.818   6.208
 5335POPC   C2B68948  14.736  29.774   6.630
 5335POPC   C3B68949  14.789  29.685   7.054
 5335POPC   C4B68950  14.949  29.674   7.483
 5336POPC   NC368951  34.698  25.179   5.451
 5336POPC   PO468952  34.057  25.027   5.666
 5336POPC   GL168953  34.421  25.149   5.884
 5336POPC   GL268954  34.497  25.482   5.840
 5336POPC   C1A68955  34.597  25.015   6.269
 5336POPC   D2A68956  34.299  25.007   6.617
 5336POPC   C3A68957  34.424  25.211   6.986
 5336POPC   C4A68958  34.693  25.142   7.318
 5336POPC   C1B68959  34.797  25.476   6.163
 5336POPC   C2B68960  34.730  25.406   6.585
 5336POPC   C3B68961  34.840  25.516   6.974
 5336POPC   C4B68962  34.801  25.683   7.348
 5337POPC   NC368963  30.508  33.642   5.428
 5337POPC   PO468964  30.556  34.307   5.191
 5337POPC   GL168965  30.812  34.043   5.612
 5337POPC   GL268966  30.630  33.824   5.870
 5337POPC   C1A68967  30.983  34.072   6.101
 5337POPC   D2A68968  30.780  33.877   6.476
 5337POPC   C3A68969  30.976  33.850   6.848
 5337POPC   C4A68970  30.976  34.151   7.170
 5337POPC   C1B68971  30.789  33.507   6.154
 5337POPC   C2B68972  30.872  33.346   6.588
 5337POPC   C3B68973  30.653  33.357   6.971
 5337POPC   C4B68974  30.729  33.705   7.276
 5338POPC   NC368975  11.723  34.809   5.257
 5338POPC   PO468976  12.134  34.284   5.237
 5338POPC   GL168977  12.301  34.369   5.679
 5338POPC   GL268978  12.186  34.721   5.733
 5338POPC   C1A68979  12.438  34.503   6.131
 5338POPC   D2A68980  12.634  34.505   6.547
 5338POPC   C3A68981  12.415  34.538   6.964
 5338POPC   C4A68982  12.169  34.297   7.217
 5338POPC   C1B68983  11.933  34.496   6.021
 5338POPC   C2B68984  11.801  34.495   6.432
 5338POPC   C3B68985  11.867  34.569   6.860
 5338POPC   C4B68986  11.673  34.396   7.226
 5339POPC   NC368987  16.075   3.149   5.400
 5339POPC   PO468988  15.792   2.523   5.509
 5339POPC   GL168989  15.906   2.558   5.889
 5339POPC   GL268990  16.149   2.818   5.811
 5339POPC   C1A68991  15.737   2.723   6.278
 5339POPC   D2A68992  15.589   2.917   6.661
 5339POPC   C3A68993  15.727   2.708   7.035
 5339POPC   C4A68994  15.729   2.369   7.322
 5339POPC   C1B68995  16.243   2.657   6.247
 5339POPC   C2B68996  16.103   2.699   6.672
 5339POPC   C3B68997  16.218   2.555   7.039
 5339POPC   C4B68998  16.192   2.853   7.299
 5340POPC   NC368999   9.500  32.183   5.065
 5340POPC   PO469000   9.862  32.424   5.626
 5340POPC   GL169001   9.833  32.278   6.005
 5340POPC   GL269002   9.981  31.976   5.872
 5340POPC   C1A69003   9.535  32.309   6.352
 5340POPC   D2A69004   9.373  32.479   6.749
 5340POPC   C3A69005   9.756  32.505   7.006
 5340POPC   C4A69006   9.848  32.448   7.467
 5340POPC   C1B69007   9.730  31.821   6.214
 5340POPC   C2B69008   9.750  31.831   6.645
 5340POPC   C3B69009   9.597  31.963   7.038
 5340POPC   C4B69010   9.737  31.955   7.456
 5341POPC   NC369011  18.017  21.409   5.469
 5341POPC   PO469012  18.660  21.377   5.345
 5341POPC   GL169013  18.508  21.365   5.774
 5341POPC   GL269014  18.223  21.146   5.850
 5341POPC   C1A69015  18.530  21.527   6.205
 5341POPC   D2A69016  18.367  21.685   6.612
 5341POPC   C3A69017  18.542  21.541   6.995
 5341POPC   C4A69018  18.234  21.534   7.307
 5341POPC   C1B69019  18.128  21.232   6.290
 5341POPC   C2B69020  18.424  21.171   6.622
 5341POPC   C3B69021  18.219  21.123   6.997
 5341POPC   C4B69022  18.106  21.019   7.434
 5342POPC   NC369023  20.054  11.144   5.451
 5342POPC   PO469024  19.940  11.695   5.805
 5342POPC   GL169025  19.965  11.280   5.962
 5342POPC   GL269026  19.668  11.108   5.823
 5342POPC   C1A69027  20.043  11.231   6.416
 5342POPC   D2A69028  20.037  11.463   6.834
 5342POPC   C3A69029  19.957  11.171   7.180
 5342POPC   C4A69030  19.972  10.934   7.597
 5342POPC   C1B69031  19.520  11.204   6.248
 5342POPC   C2B69032  19.482  11.356   6.693
 5342POPC   C3B69033  19.587  11.534   7.116
 5342POPC   C4B69034  19.325  11.491   7.486
 5343POPC   NC369035  33.473   1.152   5.443
 5343POPC   PO469036  34.195   1.123   5.272
 5343POPC   GL169037  33.943   1.194   5.691
 5343POPC   GL269038  33.663   1.462   5.801
 5343POPC   C1A69039  33.777   0.914   6.036
 5343POPC   D2A69040  33.869   0.831   6.479
 5343POPC   C3A69041  34.005   1.187   6.730
 5343POPC   C4A69042  34.045   1.216   7.160
 5343POPC   C1B69043  33.754   1.374   6.253
 5343POPC   C2B69044  33.741   1.609   6.617
 5343POPC   C3B69045  33.873   1.660   7.026
 5343POPC   C4B69046  33.914   1.599   7.503
 5344POPC   NC369047  27.880  30.082   5.459
 5344POPC   PO469048  27.297  29.745   5.201
 5344POPC   GL169049  27.370  29.869   5.748
 5344POPC   GL269050  27.667  29.782   6.030
 5344POPC   C1A69051  27.347  30.079   6.239
 5344POPC   D2A69052  27.655  30.059   6.615
 5344POPC   C3A69053  27.496  29.968   7.056
 5344POPC   C4A69054  27.203  30.108   7.386
 5344POPC   C1B69055  28.040  29.845   6.287
 5344POPC   C2B69056  28.148  29.875   6.720
 5344POPC   C3B69057  27.975  29.738   7.103
 5344POPC   C4B69058  27.855  29.951   7.497
 5345POPC   NC369059  34.197  16.169   5.609
 5345POPC   PO469060  33.690  15.702   5.431
 5345POPC   GL169061  33.496  15.809   5.813
 5345POPC   GL269062  33.794  16.041   5.926
 5345POPC   C1A69063  33.444  15.914   6.269
 5345POPC   D2A69064  33.772  15.925   6.564
 5345POPC   C3A69065  33.663  15.994   6.942
 5345POPC   C4A69066  33.516  15.771   7.264
 5345POPC   C1B69067  34.157  15.969   6.259
 5345POPC   C2B69068  34.283  15.890   6.744
 5345POPC   C3B69069  34.103  15.929   7.187
 5345POPC   C4B69070  34.215  15.814   7.634
 5346POPC   NC369071   8.641   6.083   5.529
 5346POPC   PO469072   9.206   5.699   5.526
 5346POPC   GL169073   9.119   5.949   5.870
 5346POPC   GL269074   9.292   6.273   5.744
 5346POPC   C1A69075   8.871   5.994   6.286
 5346POPC   D2A69076   8.684   5.803   6.672
 5346POPC   C3A69077   8.935   5.785   7.036
 5346POPC   C4A69078   9.316   5.587   7.151
 5346POPC   C1B69079   9.348   6.252   6.196
 5346POPC   C2B69080   9.324   5.951   6.533
 5346POPC   C3B69081   9.336   6.073   6.940
 5346POPC   C4B69082   9.043   6.294   7.134
 5347POPC   NC369083  19.121  13.702   5.295
 5347POPC   PO469084  18.616  13.336   5.415
 5347POPC   GL169085  18.988  13.417   5.717
 5347POPC   GL269086  19.109  13.783   5.795
 5347POPC   C1A69087  19.307  13.374   6.071
 5347POPC   D2A69088  19.383  13.579   6.522
 5347POPC   C3A69089  19.347  13.425   6.978
 5347POPC   C4A69090  19.311  13.352   7.481
 5347POPC   C1B69091  18.925  13.660   6.184
 5347POPC   C2B69092  18.919  13.854   6.562
 5347POPC   C3B69093  19.118  13.891   6.945
 5347POPC   C4B69094  18.930  13.630   7.230
 5348POPC   NC369095   4.051  31.734   5.428
 5348POPC   PO469096   4.148  31.117   5.384
 5348POPC   GL169097   4.107  31.137   5.818
 5348POPC   GL269098   4.129  31.496   5.915
 5348POPC   C1A69099   4.172  31.117   6.273
 5348POPC   D2A69100   3.962  31.268   6.647
 5348POPC   C3A69101   4.194  31.258   7.037
 5348POPC   C4A69102   4.099  31.211   7.482
 5348POPC   C1B69103   4.353  31.604   6.339
 5348POPC   C2B69104   4.596  31.762   6.716
 5348POPC   C3B69105   4.716  31.754   7.159
 5348POPC   C4B69106   4.818  31.641   7.612
 5349POPC   NC369107  10.321  29.350   5.397
 5349POPC   PO469108  10.818  28.881   5.419
 5349POPC   GL169109  10.719  29.196   5.703
 5349POPC   GL269110  10.442  29.053   5.840
 5349POPC   C1A69111  10.780  29.386   6.071
 5349POPC   D2A69112  10.949  29.346   6.500
 5349POPC   C3A69113  10.718  29.484   6.811
 5349POPC   C4A69114  10.537  29.259   7.148
 5349POPC   C1B69115  10.328  29.211   6.252
 5349POPC   C2B69116  10.353  29.134   6.689
 5349POPC   C3B69117  10.062  29.030   7.022
 5349POPC   C4B69118  10.062  28.703   7.360
 5350POPC   NC369119  20.555  16.672   5.327
 5350POPC   PO469120  21.181  16.513   5.562
 5350POPC   GL169121  20.839  16.695   5.816
 5350POPC   GL269122  20.481  16.532   5.796
 5350POPC   C1A69123  20.659  16.851   6.212
 5350POPC   D2A69124  20.423  16.674   6.579
 5350POPC   C3A69125  20.294  16.878   6.975
 5350POPC   C4A69126  20.568  16.983   7.382
 5350POPC   C1B69127  20.549  16.337   6.146
 5350POPC   C2B69128  20.464  16.170   6.499
 5350POPC   C3B69129  20.711  16.278   6.828
 5350POPC   C4B69130  20.617  16.538   7.144
 5351POPC   NC369131  42.069  14.471   5.570
 5351POPC   PO469132  42.621  14.040   5.298
 5351POPC   GL169133  42.442  14.127   5.796
 5351POPC   GL269134  42.304  14.436   6.002
 5351POPC   C1A69135  42.395  14.016   6.264
 5351POPC   D2A69136  42.274  14.350   6.566
 5351POPC   C3A69137  42.224  14.192   6.969
 5351POPC   C4A69138  42.484  14.128   7.291
 5351POPC   C1B69139  42.076  14.734   6.254
 5351POPC   C2B69140  41.887  14.735   6.677
 5351POPC   C3B69141  42.106  14.684   7.055
 5351POPC   C4B69142  42.557  14.575   7.043
 5352POPC   NC369143  17.918  30.506   5.338
 5352POPC   PO469144  17.430  30.982   5.209
 5352POPC   GL169145  17.512  30.716   5.603
 5352POPC   GL269146  17.804  30.824   5.739
 5352POPC   C1A69147  17.463  30.555   6.075
 5352POPC   D2A69148  17.295  30.718   6.497
 5352POPC   C3A69149  17.462  30.580   6.917
 5352POPC   C4A69150  17.547  30.665   7.347
 5352POPC   C1B69151  17.711  30.994   6.140
 5352POPC   C2B69152  17.768  30.875   6.566
 5352POPC   C3B69153  17.684  31.045   6.960
 5352POPC   C4B69154  17.896  31.062   7.348
 5353POPC   NC369155  12.103  12.306   5.180
 5353POPC   PO469156  12.224  11.625   5.310
 5353POPC   GL169157  12.071  11.699   5.774
 5353POPC   GL269158  11.771  11.894   5.835
 5353POPC   C1A69159  12.055  11.821   6.251
 5353POPC   D2A69160  11.827  11.899   6.679
 5353POPC   C3A69161  12.073  12.000   7.067
 5353POPC   C4A69162  12.530  11.998   7.188
 5353POPC   C1B69163  11.726  12.214   6.228
 5353POPC   C2B69164  11.942  12.395   6.618
 5353POPC   C3B69165  11.799  12.429   7.051
 5353POPC   C4B69166  11.741  12.403   7.526
 5354POPC   NC369167  17.043  38.361   5.461
 5354POPC   PO469168  16.551  38.820   5.397
 5354POPC   GL169169  16.754  38.657   5.793
 5354POPC   GL269170  16.898  38.328   5.933
 5354POPC   C1A69171  16.540  38.537   6.208
 5354POPC   D2A69172  16.502  38.412   6.609
 5354POPC   C3A69173  16.646  38.382   7.017
 5354POPC   C4A69174  16.484  38.123   7.359
 5354POPC   C1B69175  17.042  38.641   6.226
 5354POPC   C2B69176  17.011  38.576   6.689
 5354POPC   C3B69177  17.132  38.395   7.106
 5354POPC   C4B69178  17.292  38.465   7.498
 5355POPC   NC369179  27.967  33.890   5.421
 5355POPC   PO469180  28.585  33.581   5.430
 5355POPC   GL169181  28.388  33.716   5.812
 5355POPC   GL269182  28.054  33.917   5.919
 5355POPC   C1A69183  28.511  33.882   6.213
 5355POPC   D2A69184  28.270  34.039   6.563
 5355POPC   C3A69185  28.526  34.027   6.924
 5355POPC   C4A69186  28.537  33.762   7.290
 5355POPC   C1B69187  28.090  33.565   6.216
 5355POPC   C2B69188  28.149  33.549   6.660
 5355POPC   C3B69189  28.068  33.740   7.088
 5355POPC   C4B69190  28.114  33.622   7.561
 5356POPC   NC369191  13.155  23.841   5.427
 5356POPC   PO469192  12.919  23.206   5.352
 5356POPC   GL169193  12.834  23.495   5.667
 5356POPC   GL269194  13.139  23.427   5.765
 5356POPC   C1A69195  12.901  23.792   6.055
 5356POPC   D2A69196  12.953  23.700   6.514
 5356POPC   C3A69197  12.940  23.953   6.903
 5356POPC   C4A69198  12.606  23.984   7.217
 5356POPC   C1B69199  12.999  23.303   6.153
 5356POPC   C2B69200  13.161  23.233   6.532
 5356POPC   C3B69201  13.176  23.431   6.907
 5356POPC   C4B69202  12.923  23.537   7.239
 5357POPC   NC369203   8.524  22.634   5.476
 5357POPC   PO469204   7.906  22.880   5.544
 5357POPC   GL169205   8.238  22.972   5.813
 5357POPC   GL269206   7.972  23.159   5.989
 5357POPC   C1A69207   8.377  22.775   6.202
 5357POPC   D2A69208   8.011  22.705   6.478
 5357POPC   C3A69209   8.005  22.833   6.904
 5357POPC   C4A69210   8.061  22.641   7.295
 5357POPC   C1B69211   8.304  23.289   6.243
 5357POPC   C2B69212   8.370  23.116   6.644
 5357POPC   C3B69213   8.525  23.129   7.047
 5357POPC   C4B69214   8.496  22.860   7.375
 5358POPC   NC369215  24.743  33.302   5.554
 5358POPC   PO469216  24.224  32.869   5.386
 5358POPC   GL169217  24.460  32.926   5.763
 5358POPC   GL269218  24.824  32.892   5.824
 5358POPC   C1A69219  24.477  33.003   6.215
 5358POPC   D2A69220  24.377  32.804   6.609
 5358POPC   C3A69221  24.486  33.126   6.928
 5358POPC   C4A69222  24.282  33.370   7.225
 5358POPC   C1B69223  24.956  32.790   6.237
 5358POPC   C2B69224  24.869  32.889   6.677
 5358POPC   C3B69225  24.799  32.757   7.114
 5358POPC   C4B69226  24.926  32.777   7.549
 5359POPC   NC369227  11.599  44.750   5.680
 5359POPC   PO469228  10.999  44.947   5.399
 5359POPC   GL169229  11.007  44.760   5.775
 5359POPC   GL269230  11.099  44.422   5.710
 5359POPC   C1A69231  11.180  44.729   6.191
 5359POPC   D2A69232  11.476  44.793   6.525
 5359POPC   C3A69233  11.319  44.743   6.951
 5359POPC   C4A69234  11.589  44.482   7.224
 5359POPC   C1B69235  10.798  44.393   6.064
 5359POPC   C2B69236  10.833  44.510   6.495
 5359POPC   C3B69237  10.855  44.370   6.918
 5359POPC   C4B69238  11.094  44.431   7.298
 5360POPC   NC369239   4.949   2.861   5.417
 5360POPC   PO469240   5.594   2.939   5.592
 5360POPC   GL169241   5.215   2.720   5.827
 5360POPC   GL269242   4.902   2.882   5.931
 5360POPC   C1A69243   5.151   2.482   6.206
 5360POPC   D2A69244   5.332   2.526   6.623
 5360POPC   C3A69245   5.203   2.798   6.963
 5360POPC   C4A69246   5.215   2.675   7.385
 5360POPC   C1B69247   4.824   2.851   6.375
 5360POPC   C2B69248   4.690   2.796   6.792
 5360POPC   C3B69249   4.704   2.699   7.219
 5360POPC   C4B69250   4.825   2.779   7.678
 5361POPC   NC369251  38.684  44.494   5.571
 5361POPC   PO469252  38.410  43.826   5.551
 5361POPC   GL169253  38.459  43.916   5.956
 5361POPC   GL269254  38.293  44.235   5.908
 5361POPC   C1A69255  38.501  44.047   6.382
 5361POPC   D2A69256  38.543  44.345   6.725
 5361POPC   C3A69257  38.649  44.172   7.100
 5361POPC   C4A69258  38.495  43.748   7.088
 5361POPC   C1B69259  38.036  44.252   6.278
 5361POPC   C2B69260  38.095  44.058   6.695
 5361POPC   C3B69261  38.106  44.183   7.117
 5361POPC   C4B69262  38.327  44.255   7.501
 5362POPC   NC369263  23.443  30.267   5.033
 5362POPC   PO469264  23.837  29.742   5.242
 5362POPC   GL169265  23.705  30.031   5.626
 5362POPC   GL269266  23.709  29.751   5.817
 5362POPC   C1A69267  23.524  30.128   6.078
 5362POPC   D2A69268  23.367  30.046   6.525
 5362POPC   C3A69269  23.623  29.998   6.913
 5362POPC   C4A69270  23.531  29.920   7.354
 5362POPC   C1B69271  23.641  29.659   6.237
 5362POPC   C2B69272  23.445  29.514   6.606
 5362POPC   C3B69273  23.636  29.414   7.003
 5362POPC   C4B69274  23.803  29.474   7.403
 5363POPC   NC369275   2.421  20.570   5.387
 5363POPC   PO469276   2.955  21.049   5.372
 5363POPC   GL169277   2.836  20.799   5.763
 5363POPC   GL269278   2.758  20.410   5.751
 5363POPC   C1A69279   2.723  20.678   6.207
 5363POPC   D2A69280   2.894  20.830   6.589
 5363POPC   C3A69281   2.718  20.913   7.000
 5363POPC   C4A69282   2.889  20.779   7.386
 5363POPC   C1B69283   2.738  20.161   6.149
 5363POPC   C2B69284   2.862  20.203   6.572
 5363POPC   C3B69285   2.941  20.423   6.969
 5363POPC   C4B69286   2.591  20.357   7.225
 5364POPC   NC369287  10.157  13.802   5.253
 5364POPC   PO469288  10.714  13.456   5.460
 5364POPC   GL169289  10.458  13.389   5.812
 5364POPC   GL269290  10.677  13.630   5.999
 5364POPC   C1A69291  10.274  13.433   6.235
 5364POPC   D2A69292  10.418  13.759   6.496
 5364POPC   C3A69293  10.515  13.659   6.876
 5364POPC   C4A69294  10.230  13.579   7.195
 5364POPC   C1B69295  10.823  14.012   6.211
 5364POPC   C2B69296  10.771  14.156   6.611
 5364POPC   C3B69297  10.895  13.991   6.996
 5364POPC   C4B69298  10.625  13.910   7.304
 5365POPC   NC369299  10.285  18.560   5.393
 5365POPC   PO469300  10.787  18.080   5.404
 5365POPC   GL169301  10.813  18.352   5.779
 5365POPC   GL269302  10.503  18.495   5.842
 5365POPC   C1A69303  10.753  18.322   6.252
 5365POPC   D2A69304  10.487  18.435   6.604
 5365POPC   C3A69305  10.658  18.411   7.023
 5365POPC   C4A69306  10.826  18.132   7.301
 5365POPC   C1B69307  10.252  18.241   6.144
 5365POPC   C2B69308   9.998  18.289   6.521
 5365POPC   C3B69309  10.138  18.252   6.958
 5365POPC   C4B69310  10.340  18.146   7.362
 5366POPC   NC369311  33.434  19.503   5.423
 5366POPC   PO469312  33.940  20.024   5.487
 5366POPC   GL169313  33.703  19.891   5.803
 5366POPC   GL269314  33.697  19.569   5.857
 5366POPC   C1A69315  33.855  19.887   6.233
 5366POPC   D2A69316  34.119  20.198   6.429
 5366POPC   C3A69317  34.122  20.199   6.879
 5366POPC   C4A69318  33.899  19.855   7.076
 5366POPC   C1B69319  33.573  19.421   6.284
 5366POPC   C2B69320  33.661  19.474   6.753
 5366POPC   C3B69321  33.657  19.438   7.225
 5366POPC   C4B69322  33.474  19.436   7.656
 5367POPC   NC369323  28.223  26.913   5.216
 5367POPC   PO469324  27.743  26.519   5.446
 5367POPC   GL169325  27.619  26.793   5.785
 5367POPC   GL269326  27.788  27.123   5.702
 5367POPC   C1A69327  27.503  26.635   6.198
 5367POPC   D2A69328  27.536  26.387   6.572
 5367POPC   C3A69329  27.433  26.648   6.903
 5367POPC   C4A69330  27.303  26.466   7.274
 5367POPC   C1B69331  27.942  26.992   6.126
 5367POPC   C2B69332  27.879  26.794   6.525
 5367POPC   C3B69333  27.967  26.678   6.931
 5367POPC   C4B69334  27.745  26.785   7.290
 5368POPC   NC369335  12.237  44.866   5.365
 5368POPC   PO469336  11.745  44.450   5.363
 5368POPC   GL169337  12.054  44.534   5.761
 5368POPC   GL269338  12.081  44.879   5.859
 5368POPC   C1A69339  12.197  44.555   6.246
 5368POPC   D2A69340  12.473  44.723   6.623
 5368POPC   C3A69341  12.275  44.749   7.060
 5368POPC   C4A69342  12.077  44.454   7.372
 5368POPC   C1B69343  11.900  44.973   6.247
 5368POPC   C2B69344  12.030  44.976   6.638
 5368POPC   C3B69345  11.790  44.940   6.997
 5368POPC   C4B69346  11.863  44.921   7.414
 5369POPC   NC369347  11.666  22.927   5.470
 5369POPC   PO469348  11.035  23.192   5.612
 5369POPC   GL169349  11.353  23.063   5.856
 5369POPC   GL269350  11.420  22.743   5.880
 5369POPC   C1A69351  11.485  23.194   6.228
 5369POPC   D2A69352  11.186  23.272   6.554
 5369POPC   C3A69353  11.331  23.156   6.951
 5369POPC   C4A69354  11.140  23.122   7.336
 5369POPC   C1B69355  11.210  22.745   6.268
 5369POPC   C2B69356  11.215  22.535   6.665
 5369POPC   C3B69357  11.192  22.653   7.089
 5369POPC   C4B69358  11.506  22.789   7.388
 5370POPC   NC369359  12.483  16.906   5.399
 5370POPC   PO469360  11.974  16.528   5.633
 5370POPC   GL169361  12.158  16.904   5.803
 5370POPC   GL269362  11.840  17.002   5.836
 5370POPC   C1A69363  12.362  16.890   6.203
 5370POPC   D2A69364  12.344  16.557   6.532
 5370POPC   C3A69365  12.333  16.671   6.973
 5370POPC   C4A69366  11.963  16.487   7.146
 5370POPC   C1B69367  11.870  16.716   6.241
 5370POPC   C2B69368  11.807  16.717   6.707
 5370POPC   C3B69369  11.749  16.972   7.090
 5370POPC   C4B69370  11.981  16.887   7.474
 5371POPC   NC369371   5.831  31.740   5.613
 5371POPC   PO469372   6.306  32.103   5.550
 5371POPC   GL169373   6.098  32.215   5.931
 5371POPC   GL269374   5.947  32.578   5.943
 5371POPC   C1A69375   6.107  32.294   6.369
 5371POPC   D2A69376   5.953  32.498   6.747
 5371POPC   C3A69377   6.067  32.268   7.097
 5371POPC   C4A69378   5.877  32.275   7.482
 5371POPC   C1B69379   5.644  32.515   6.285
 5371POPC   C2B69380   5.634  32.163   6.556
 5371POPC   C3B69381   5.555  32.103   6.980
 5371POPC   C4B69382   5.404  32.237   7.367
 5372POPC   NC369383  40.908   8.564   5.118
 5372POPC   PO469384  40.506   8.035   5.412
 5372POPC   GL169385  40.697   7.985   5.870
 5372POPC   GL269386  41.044   8.112   5.946
 5372POPC   C1A69387  40.659   8.171   6.305
 5372POPC   D2A69388  40.716   8.476   6.670
 5372POPC   C3A69389  40.569   8.403   7.095
 5372POPC   C4A69390  40.662   7.999   7.235
 5372POPC   C1B69391  41.015   7.822   6.309
 5372POPC   C2B69392  40.807   7.932   6.742
 5372POPC   C3B69393  41.064   8.226   7.064
 5372POPC   C4B69394  40.978   8.278   7.536
 5373POPC   NC369395   5.162   7.195   5.443
 5373POPC   PO469396   5.472   7.833   5.395
 5373POPC   GL169397   5.314   7.606   5.811
 5373POPC   GL269398   5.100   7.295   5.933
 5373POPC   C1A69399   5.155   7.703   6.250
 5373POPC   D2A69400   4.947   7.617   6.655
 5373POPC   C3A69401   5.242   7.394   6.906
 5373POPC   C4A69402   5.313   7.392   7.338
 5373POPC   C1B69403   4.959   7.198   6.363
 5373POPC   C2B69404   4.774   7.115   6.773
 5373POPC   C3B69405   4.859   7.195   7.210
 5373POPC   C4B69406   5.020   7.081   7.663
 5374POPC   NC369407  41.289  41.592   5.636
 5374POPC   PO469408  41.699  41.133   5.387
 5374POPC   GL169409  41.733  41.245   5.793
 5374POPC   GL269410  41.392  41.191   5.915
 5374POPC   C1A69411  41.756  41.462   6.188
 5374POPC   D2A69412  41.716  41.244   6.578
 5374POPC   C3A69413  41.577  41.410   6.970
 5374POPC   C4A69414  41.814  41.685   7.220
 5374POPC   C1B69415  41.250  41.400   6.308
 5374POPC   C2B69416  41.486  41.724   6.549
 5374POPC   C3B69417  41.452  41.916   6.925
 5374POPC   C4B69418  41.269  41.758   7.256
 5375POPC   NC369419  35.874  16.424   5.391
 5375POPC   PO469420  36.451  16.848   5.417
 5375POPC   GL169421  36.260  16.779   5.824
 5375POPC   GL269422  36.059  16.484   5.859
 5375POPC   C1A69423  36.411  16.795   6.236
 5375POPC   D2A69424  36.387  17.023   6.616
 5375POPC   C3A69425  36.402  16.752   6.945
 5375POPC   C4A69426  36.195  16.876   7.294
 5375POPC   C1B69427  35.923  16.467   6.228
 5375POPC   C2B69428  36.063  16.600   6.568
 5375POPC   C3B69429  35.889  16.622   6.905
 5375POPC   C4B69430  35.826  16.535   7.266
 5376POPC   NC369431  22.084  16.274   5.646
 5376POPC   PO469432  22.324  16.830   5.355
 5376POPC   GL169433  22.349  16.752   5.795
 5376POPC   GL269434  22.543  16.475   5.743
 5376POPC   C1A69435  22.119  16.688   6.207
 5376POPC   D2A69436  22.161  16.536   6.631
 5376POPC   C3A69437  21.924  16.686   7.007
 5376POPC   C4A69438  21.834  16.591   7.472
 5376POPC   C1B69439  22.654  16.524   6.172
 5376POPC   C2B69440  22.748  16.746   6.543
 5376POPC   C3B69441  22.528  16.718   6.930
 5376POPC   C4B69442  22.338  16.594   7.311
 5377POPC   NC369443  13.519  10.909   5.079
 5377POPC   PO469444  13.758  11.318   5.578
 5377POPC   GL169445  13.579  11.206   5.983
 5377POPC   GL269446  13.872  10.968   5.979
 5377POPC   C1A69447  13.369  11.330   6.361
 5377POPC   D2A69448  13.210  11.410   6.776
 5377POPC   C3A69449  13.523  11.461   7.090
 5377POPC   C4A69450  13.659  11.229   7.437
 5377POPC   C1B69451  13.906  11.258   6.351
 5377POPC   C2B69452  13.907  11.474   6.746
 5377POPC   C3B69453  14.032  11.513   7.187
 5377POPC   C4B69454  13.867  11.678   7.586
 5378POPC   NC369455  10.218  19.334   5.364
 5378POPC   PO469456  10.665  18.846   5.485
 5378POPC   GL169457  10.427  19.059   5.764
 5378POPC   GL269458  10.147  18.874   5.812
 5378POPC   C1A69459  10.527  19.214   6.157
 5378POPC   D2A69460  10.535  19.074   6.568
 5378POPC   C3A69461  10.870  19.220   6.801
 5378POPC   C4A69462  10.813  19.242   7.219
 5378POPC   C1B69463  10.313  18.748   6.231
 5378POPC   C2B69464  10.125  18.788   6.654
 5378POPC   C3B69465  10.341  18.945   7.043
 5378POPC   C4B69466  10.467  18.704   7.414
 5379POPC   NC369467  22.453  37.041   5.522
 5379POPC   PO469468  21.845  36.779   5.443
 5379POPC   GL169469  22.039  36.981   5.796
 5379POPC   GL269470  21.926  37.231   5.903
 5379POPC   C1A69471  22.035  36.898   6.264
 5379POPC   D2A69472  22.221  36.830   6.665
 5379POPC   C3A69473  22.071  36.859   7.098
 5379POPC   C4A69474  22.350  36.621   7.403
 5379POPC   C1B69475  22.341  37.256   6.117
 5379POPC   C2B69476  22.385  37.299   6.545
 5379POPC   C3B69477  22.454  37.206   6.975
 5379POPC   C4B69478  22.283  37.241   7.385
 5380POPC   NC369479  11.015  32.601   5.411
 5380POPC   PO469480  11.343  31.958   5.398
 5380POPC   GL169481  11.147  32.110   5.789
 5380POPC   GL269482  11.320  32.411   5.794
 5380POPC   C1A69483  11.272  32.044   6.257
 5380POPC   D2A69484  11.481  32.045   6.701
 5380POPC   C3A69485  11.217  32.069   7.104
 5380POPC   C4A69486  11.197  32.370   7.484
 5380POPC   C1B69487  11.425  32.525   6.219
 5380POPC   C2B69488  11.141  32.459   6.587
 5380POPC   C3B69489  11.160  32.586   7.009
 5380POPC   C4B69490  11.438  32.787   7.240
 5381POPC   NC369491   1.174  20.086   5.449
 5381POPC   PO469492   0.947  19.415   5.452
 5381POPC   GL169493   1.096  19.692   5.818
 5381POPC   GL269494   1.373  19.909   5.873
 5381POPC   C1A69495   1.275  19.604   6.265
 5381POPC   D2A69496   1.252  19.358   6.638
 5381POPC   C3A69497   1.090  19.513   7.009
 5381POPC   C4A69498   1.220  19.738   7.341
 5381POPC   C1B69499   1.128  20.081   6.243
 5381POPC   C2B69500   1.140  19.935   6.700
 5381POPC   C3B69501   1.313  20.173   7.091
 5381POPC   C4B69502   1.458  20.232   7.536
 5382POPC   NC369503   7.583  17.965   5.385
 5382POPC   PO469504   7.389  17.345   5.420
 5382POPC   GL169505   7.373  17.609   5.758
 5382POPC   GL269506   7.027  17.668   5.734
 5382POPC   C1A69507   7.525  17.545   6.185
 5382POPC   D2A69508   7.512  17.327   6.598
 5382POPC   C3A69509   7.643  17.491   6.998
 5382POPC   C4A69510   7.658  17.317   7.408
 5382POPC   C1B69511   7.117  17.856   6.134
 5382POPC   C2B69512   7.316  17.895   6.520
 5382POPC   C3B69513   7.180  17.686   6.879
 5382POPC   C4B69514   7.198  17.787   7.303
 5383POPC   NC369515  23.561  25.039   5.101
 5383POPC   PO469516  24.046  25.347   5.341
 5383POPC   GL169517  24.011  25.185   5.776
 5383POPC   GL269518  24.024  24.822   5.855
 5383POPC   C1A69519  23.954  25.384   6.199
 5383POPC   D2A69520  23.670  25.496   6.560
 5383POPC   C3A69521  23.810  25.438   6.998
 5383POPC   C4A69522  23.608  25.317   7.414
 5383POPC   C1B69523  23.749  24.884   6.262
 5383POPC   C2B69524  23.664  24.945   6.735
 5383POPC   C3B69525  23.881  24.962   7.163
 5383POPC   C4B69526  23.857  24.954   7.682
 5384POPC   NC369527  26.015  21.077   5.494
 5384POPC   PO469528  26.204  20.396   5.465
 5384POPC   GL169529  26.307  20.533   5.857
 5384POPC   GL269530  26.312  20.905   5.865
 5384POPC   C1A69531  26.265  20.558   6.285
 5384POPC   D2A69532  26.327  20.871   6.555
 5384POPC   C3A69533  26.173  20.628   6.870
 5384POPC   C4A69534  26.153  20.656   7.287
 5384POPC   C1B69535  25.884  20.816   6.073
 5384POPC   C2B69536  25.809  20.781   6.503
 5384POPC   C3B69537  25.902  21.064   6.816
 5384POPC   C4B69538  25.807  21.043   7.211
 5385POPC   NC369539  19.317   0.487   5.460
 5385POPC   PO469540  18.761   0.638   5.769
 5385POPC   GL169541  19.132   0.434   5.928
 5385POPC   GL269542  19.409   0.675   5.956
 5385POPC   C1A69543  19.045   0.150   6.252
 5385POPC   D2A69544  18.769   0.119   6.614
 5385POPC   C3A69545  18.860   0.322   7.019
 5385POPC   C4A69546  19.061   0.714   7.133
 5385POPC   C1B69547  19.268   0.606   6.385
 5385POPC   C2B69548  19.253   0.285   6.701
 5385POPC   C3B69549  19.435   0.372   7.064
 5385POPC   C4B69550  19.640   0.800   7.121
 5386POPC   NC369551  22.279  34.805   5.389
 5386POPC   PO469552  22.067  34.153   5.370
 5386POPC   GL169553  22.218  34.399   5.763
 5386POPC   GL269554  22.362  34.726   5.887
 5386POPC   C1A69555  22.147  34.379   6.214
 5386POPC   D2A69556  21.961  34.581   6.553
 5386POPC   C3A69557  21.958  34.323   6.888
 5386POPC   C4A69558  22.215  34.531   7.166
 5386POPC   C1B69559  22.022  34.884   6.133
 5386POPC   C2B69560  22.003  35.103   6.512
 5386POPC   C3B69561  22.085  34.977   6.900
 5386POPC   C4B69562  21.851  34.902   7.244
 5387POPC   NC369563   3.865  37.971   5.541
 5387POPC   PO469564   3.505  37.501   5.255
 5387POPC   GL169565   3.521  37.609   5.744
 5387POPC   GL269566   3.324  37.336   5.902
 5387POPC   C1A69567   3.698  37.771   6.173
 5387POPC   D2A69568   3.585  37.932   6.593
 5387POPC   C3A69569   3.641  37.777   7.032
 5387POPC   C4A69570   3.853  37.754   7.441
 5387POPC   C1B69571   3.501  37.324   6.333
 5387POPC   C2B69572   3.376  37.421   6.769
 5387POPC   C3B69573   3.453  37.259   7.212
 5387POPC   C4B69574   3.484  37.279   7.705
 5388POPC   NC369575  20.094  29.779   5.252
 5388POPC   PO469576  19.669  30.321   5.242
 5388POPC   GL169577  19.814  29.994   5.680
 5388POPC   GL269578  20.140  29.767   5.755
 5388POPC   C1A69579  19.813  29.821   6.143
 5388POPC   D2A69580  19.822  29.680   6.596
 5388POPC   C3A69581  19.802  29.974   6.940
 5388POPC   C4A69582  19.409  30.015   7.197
 5388POPC   C1B69583  20.329  29.642   6.179
 5388POPC   C2B69584  20.329  29.780   6.628
 5388POPC   C3B69585  20.191  29.649   7.049
 5388POPC   C4B69586  19.895  29.755   7.395
 5389POPC   NC369587  41.933   0.421   5.439
 5389POPC   PO469588  41.323   0.243   5.182
 5389POPC   GL169589  41.384   0.131   5.697
 5389POPC   GL269590  41.742   0.210   5.846
 5389POPC   C1A69591  41.426   0.358   6.178
 5389POPC   D2A69592  41.689   0.372   6.574
 5389POPC   C3A69593  41.536   0.507   7.002
 5389POPC   C4A69594  41.172   0.299   7.188
 5389POPC   C1B69595  41.875   0.630   6.135
 5389POPC   C2B69596  41.845   0.853   6.578
 5389POPC   C3B69597  41.879   0.928   7.057
 5389POPC   C4B69598  41.802   0.822   7.563
 5390POPC   NC369599  22.611  38.465   5.493
 5390POPC   PO469600  23.128  38.007   5.344
 5390POPC   GL169601  23.123  38.350   5.664
 5390POPC   GL269602  22.850  38.274   5.904
 5390POPC   C1A69603  23.135  38.675   6.020
 5390POPC   D2A69604  23.071  38.472   6.431
 5390POPC   C3A69605  22.938  38.606   6.836
 5390POPC   C4A69606  22.783  38.571   7.228
 5390POPC   C1B69607  22.594  38.211   6.265
 5390POPC   C2B69608  22.391  38.065   6.621
 5390POPC   C3B69609  22.642  38.159   6.953
 5390POPC   C4B69610  22.719  38.093   7.379
 5391POPC   NC369611   5.506  19.982   5.498
 5391POPC   PO469612   5.944  19.498   5.447
 5391POPC   GL169613   5.795  19.689   5.845
 5391POPC   GL269614   5.926  20.040   5.814
 5391POPC   C1A69615   6.016  19.810   6.243
 5391POPC   D2A69616   5.887  19.964   6.631
 5391POPC   C3A69617   5.947  19.758   7.019
 5391POPC   C4A69618   6.283  19.805   7.266
 5391POPC   C1B69619   5.647  20.168   6.166
 5391POPC   C2B69620   5.447  20.199   6.583
 5391POPC   C3B69621   5.519  20.056   7.018
 5391POPC   C4B69622   5.493  19.729   7.329
 5392POPC   NC369623  24.476  22.233   5.270
 5392POPC   PO469624  24.053  21.817   5.555
 5392POPC   GL169625  24.300  22.134   5.762
 5392POPC   GL269626  24.638  22.171   5.786
 5392POPC   C1A69627  24.339  22.392   6.138
 5392POPC   D2A69628  24.510  22.386   6.537
 5392POPC   C3A69629  24.239  22.314   6.894
 5392POPC   C4A69630  24.394  22.366   7.305
 5392POPC   C1B69631  24.869  22.182   6.202
 5392POPC   C2B69632  24.949  22.178   6.681
 5392POPC   C3B69633  24.897  22.280   7.160
 5392POPC   C4B69634  24.722  22.073   7.570
 5393POPC   NC369635  16.955  39.084   5.468
 5393POPC   PO469636  16.509  39.646   5.506
 5393POPC   GL169637  16.603  39.322   5.761
 5393POPC   GL269638  16.947  39.380   5.890
 5393POPC   C1A69639  16.625  39.036   6.095
 5393POPC   D2A69640  16.780  39.001   6.486
 5393POPC   C3A69641  16.555  38.877   6.832
 5393POPC   C4A69642  16.888  38.892   7.112
 5393POPC   C1B69643  16.666  39.542   6.221
 5393POPC   C2B69644  16.472  39.650   6.585
 5393POPC   C3B69645  16.664  39.405   6.890
 5393POPC   C4B69646  16.459  39.509   7.247
 5394POPC   NC369647   9.530  36.458   5.155
 5394POPC   PO469648   9.887  35.951   5.433
 5394POPC   GL169649   9.626  36.022   5.848
 5394POPC   GL269650   9.360  36.287   5.767
 5394POPC   C1A69651   9.732  36.054   6.324
 5394POPC   D2A69652   9.603  36.314   6.697
 5394POPC   C3A69653   9.849  36.251   7.083
 5394POPC   C4A69654  10.140  35.909   7.226
 5394POPC   C1B69655   9.269  36.215   6.213
 5394POPC   C2B69656   9.095  36.252   6.616
 5394POPC   C3B69657   9.223  36.324   7.042
 5394POPC   C4B69658   9.482  36.611   7.196
 5395POPC   NC369659  24.942   6.396   5.505
 5395POPC   PO469660  25.166   7.038   5.571
 5395POPC   GL169661  24.922   6.777   5.902
 5395POPC   GL269662  24.580   6.612   5.898
 5395POPC   C1A69663  24.782   6.712   6.341
 5395POPC   D2A69664  24.736   6.518   6.687
 5395POPC   C3A69665  24.352   6.605   6.873
 5395POPC   C4A69666  24.279   6.725   7.300
 5395POPC   C1B69667  24.273   6.570   6.304
 5395POPC   C2B69668  24.001   6.330   6.640
 5395POPC   C3B69669  24.039   6.283   7.131
 5395POPC   C4B69670  23.994   6.390   7.592
 5396POPC   NC369671  10.433  36.822   5.184
 5396POPC   PO469672  10.600  37.314   5.558
 5396POPC   GL169673  10.535  36.978   5.841
 5396POPC   GL269674  10.675  36.672   5.725
 5396POPC   C1A69675  10.390  36.858   6.256
 5396POPC   D2A69676  10.096  37.088   6.521
 5396POPC   C3A69677  10.223  36.967   6.908
 5396POPC   C4A69678  10.285  36.790   7.288
 5396POPC   C1B69679  10.829  36.581   6.167
 5396POPC   C2B69680  10.663  36.580   6.620
 5396POPC   C3B69681  10.863  36.480   7.039
 5396POPC   C4B69682  10.726  36.606   7.441
 5397POPC   NC369683  32.456  11.882   5.608
 5397POPC   PO469684  31.917  12.188   5.404
 5397POPC   GL169685  31.936  11.912   5.745
 5397POPC   GL269686  32.106  12.207   5.889
 5397POPC   C1A69687  32.098  11.779   6.166
 5397POPC   D2A69688  32.121  12.107   6.478
 5397POPC   C3A69689  32.073  11.974   6.911
 5397POPC   C4A69690  31.937  12.256   7.238
 5397POPC   C1B69691  32.463  12.352   6.121
 5397POPC   C2B69692  32.567  12.340   6.564
 5397POPC   C3B69693  32.323  12.400   6.935
 5397POPC   C4B69694  32.440  12.326   7.374
 5398POPC   NC369695   9.171  16.335   5.476
 5398POPC   PO469696   8.929  15.733   5.588
 5398POPC   GL169697   9.145  15.765   5.949
 5398POPC   GL269698   9.215  16.124   5.950
 5398POPC   C1A69699   9.042  15.805   6.382
 5398POPC   D2A69700   8.727  16.068   6.565
 5398POPC   C3A69701   8.780  15.976   6.998
 5398POPC   C4A69702   9.179  15.722   7.088
 5398POPC   C1B69703   9.191  16.292   6.379
 5398POPC   C2B69704   9.212  16.211   6.823
 5398POPC   C3B69705   9.317  16.189   7.264
 5398POPC   C4B69706   9.372  16.076   7.710
 5399POPC   NC369707  28.621   5.057   5.175
 5399POPC   PO469708  28.110   5.497   5.506
 5399POPC   GL169709  28.136   5.280   5.888
 5399POPC   GL269710  28.465   5.124   5.800
 5399POPC   C1A69711  28.178   5.288   6.342
 5399POPC   D2A69712  28.607   5.199   6.469
 5399POPC   C3A69713  28.680   5.302   6.868
 5399POPC   C4A69714  28.378   5.216   7.214
 5399POPC   C1B69715  28.381   4.861   6.132
 5399POPC   C2B69716  28.197   4.791   6.515
 5399POPC   C3B69717  28.396   4.830   6.904
 5399POPC   C4B69718  28.563   4.706   7.315
 5400POPC   NC369719  13.150  17.781   5.659
 5400POPC   PO469720  12.761  17.274   5.406
 5400POPC   GL169721  12.557  17.320   5.828
 5400POPC   GL269722  12.872  17.424   5.938
 5400POPC   C1A69723  12.592  17.324   6.340
 5400POPC   D2A69724  12.877  17.351   6.713
 5400POPC   C3A69725  12.669  17.270   7.073
 5400POPC   C4A69726  12.436  17.622   7.107
 5400POPC   C1B69727  13.013  17.652   6.313
 5400POPC   C2B69728  13.002  17.863   6.717
 5400POPC   C3B69729  13.042  17.658   7.103
 5400POPC   C4B69730  13.150  17.859   7.487
 5401POPC   NC369731  17.021  30.827   5.093
 5401POPC   PO469732  16.554  30.581   5.475
 5401POPC   GL169733  16.603  30.447   5.898
 5401POPC   GL269734  16.453  30.753   6.007
 5401POPC   C1A69735  16.856  30.472   6.309
 5401POPC   D2A69736  17.023  30.354   6.747
 5401POPC   C3A69737  16.981  30.674   7.096
 5401POPC   C4A69738  16.770  30.875   7.458
 5401POPC   C1B69739  16.327  30.489   6.344
 5401POPC   C2B69740  16.543  30.551   6.732
 5401POPC   C3B69741  16.500  30.881   7.029
 5401POPC   C4B69742  16.457  31.264   7.262
 5402POPC   NC369743  41.239  44.803   5.255
 5402POPC   PO469744  41.711  44.350   5.244
 5402POPC   GL169745  41.615  44.659   5.612
 5402POPC   GL269746  41.631  44.387   5.828
 5402POPC   C1A69747  41.503  44.818   6.079
 5402POPC   D2A69748  41.322  44.978   6.481
 5402POPC   C3A69749  41.492  44.995   6.872
 5402POPC   C4A69750  41.243  44.804   7.136
 5402POPC   C1B69751  41.830  44.458   6.220
 5402POPC   C2B69752  41.611  44.544   6.599
 5402POPC   C3B69753  41.818  44.607   6.988
 5402POPC   C4B69754  41.749  44.794   7.364
 5403POPC   NC369755  23.670  24.577   5.547
 5403POPC   PO469756  23.232  24.059   5.496
 5403POPC   GL169757  23.499  24.058   5.824
 5403POPC   GL269758  23.858  24.180   5.806
 5403POPC   C1A69759  23.487  24.237   6.195
 5403POPC   D2A69760  23.603  24.452   6.558
 5403POPC   C3A69761  23.573  24.160   6.879
 5403POPC   C4A69762  23.512  24.273   7.294
 5403POPC   C1B69763  23.983  24.412   6.186
 5403POPC   C2B69764  24.083  24.626   6.592
 5403POPC   C3B69765  23.961  24.461   6.985
 5403POPC   C4B69766  23.962  24.533   7.407
 5404POPC   NC369767  39.903  34.269   5.290
 5404POPC   PO469768  40.312  34.756   5.528
 5404POPC   GL169769  40.121  34.443   5.796
 5404POPC   GL269770  39.796  34.565   5.917
 5404POPC   C1A69771  40.113  34.274   6.240
 5404POPC   D2A69772  40.074  34.492   6.674
 5404POPC   C3A69773  40.414  34.417   6.969
 5404POPC   C4A69774  40.511  34.008   7.197
 5404POPC   C1B69775  40.101  34.772   6.216
 5404POPC   C2B69776  40.042  35.003   6.594
 5404POPC   C3B69777  40.124  34.891   7.030
 5404POPC   C4B69778  39.964  34.486   7.215
 5405POPC   NC369779  14.675   7.705   5.543
 5405POPC   PO469780  14.302   7.247   5.451
 5405POPC   GL169781  14.368   7.369   5.838
 5405POPC   GL269782  13.991   7.484   5.809
 5405POPC   C1A69783  14.648   7.560   6.194
 5405POPC   D2A69784  14.635   7.781   6.607
 5405POPC   C3A69785  14.707   7.466   6.954
 5405POPC   C4A69786  14.613   7.101   7.203
 5405POPC   C1B69787  14.134   7.615   6.196
 5405POPC   C2B69788  14.312   7.361   6.550
 5405POPC   C3B69789  14.202   7.334   6.970
 5405POPC   C4B69790  14.005   7.438   7.354
 5406POPC   NC369791  20.532  24.495   5.225
 5406POPC   PO469792  21.009  24.835   5.415
 5406POPC   GL169793  20.837  24.446   5.659
 5406POPC   GL269794  20.468  24.429   5.754
 5406POPC   C1A69795  20.832  24.275   6.090
 5406POPC   D2A69796  20.603  24.269   6.460
 5406POPC   C3A69797  20.774  24.353   6.866
 5406POPC   C4A69798  20.671  24.118   7.256
 5406POPC   C1B69799  20.561  24.709   6.130
 5406POPC   C2B69800  20.672  24.843   6.588
 5406POPC   C3B69801  20.587  24.965   7.066
 5406POPC   C4B69802  20.526  24.654   7.407
 5407POPC   NC369803   6.198  26.221   5.360
 5407POPC   PO469804   5.636  26.020   5.596
 5407POPC   GL169805   5.729  25.821   5.972
 5407POPC   GL269806   6.059  25.709   5.838
 5407POPC   C1A69807   5.658  25.883   6.419
 5407POPC   D2A69808   5.865  26.215   6.682
 5407POPC   C3A69809   5.743  26.234   7.101
 5407POPC   C4A69810   5.757  25.958   7.461
 5407POPC   C1B69811   6.148  25.931   6.226
 5407POPC   C2B69812   6.109  25.760   6.640
 5407POPC   C3B69813   6.044  25.811   7.064
 5407POPC   C4B69814   6.258  25.877   7.449
 5408POPC   NC369815  18.583   7.143   5.586
 5408POPC   PO469816  17.989   6.838   5.507
 5408POPC   GL169817  18.154   6.911   5.897
 5408POPC   GL269818  18.129   6.548   5.956
 5408POPC   C1A69819  18.378   6.846   6.305
 5408POPC   D2A69820  18.613   6.618   6.623
 5408POPC   C3A69821  18.390   6.507   6.985
 5408POPC   C4A69822  18.347   6.715   7.373
 5408POPC   C1B69823  18.318   6.314   6.300
 5408POPC   C2B69824  18.184   6.143   6.684
 5408POPC   C3B69825  17.957   6.234   7.045
 5408POPC   C4B69826  18.099   6.271   7.449
 5409POPC   NC369827  19.905  42.854   5.372
 5409POPC   PO469828  19.487  43.348   5.461
 5409POPC   GL169829  19.751  43.283   5.852
 5409POPC   GL269830  19.961  42.955   5.869
 5409POPC   C1A69831  19.821  43.506   6.276
 5409POPC   D2A69832  19.780  43.389   6.752
 5409POPC   C3A69833  19.733  42.946   6.963
 5409POPC   C4A69834  19.357  42.699   7.053
 5409POPC   C1B69835  19.805  42.993   6.291
 5409POPC   C2B69836  20.083  43.013   6.609
 5409POPC   C3B69837  20.246  43.142   7.009
 5409POPC   C4B69838  20.077  42.951   7.379
 5410POPC   NC369839   3.171  31.934   5.321
 5410POPC   PO469840   3.696  32.004   5.478
 5410POPC   GL169841   3.512  32.181   5.885
 5410POPC   GL269842   3.162  32.077   5.860
 5410POPC   C1A69843   3.502  32.428   6.319
 5410POPC   D2A69844   3.585  32.602   6.749
 5410POPC   C3A69845   3.833  32.354   7.033
 5410POPC   C4A69846   3.969  32.090   7.413
 5410POPC   C1B69847   3.199  32.020   6.327
 5410POPC   C2B69848   3.401  32.095   6.745
 5410POPC   C3B69849   3.548  31.937   7.144
 5410POPC   C4B69850   3.365  31.923   7.534
 5411POPC   NC369851  40.725  34.645   5.375
 5411POPC   PO469852  41.240  34.302   5.485
 5411POPC   GL169853  41.046  34.629   5.787
 5411POPC   GL269854  40.668  34.609   5.887
 5411POPC   C1A69855  41.070  34.629   6.243
 5411POPC   D2A69856  40.837  34.617   6.630
 5411POPC   C3A69857  41.004  34.392   6.959
 5411POPC   C4A69858  40.773  34.419   7.330
 5411POPC   C1B69859  40.600  34.894   6.242
 5411POPC   C2B69860  40.557  35.058   6.686
 5411POPC   C3B69861  40.684  34.860   7.098
 5411POPC   C4B69862  40.786  34.826   7.620
 5412POPC   NC369863  32.332  15.224   5.220
 5412POPC   PO469864  31.916  14.775   5.559
 5412POPC   GL169865  32.191  15.089   5.770
 5412POPC   GL269866  32.531  15.057   5.817
 5412POPC   C1A69867  32.193  15.332   6.157
 5412POPC   D2A69868  32.033  15.526   6.536
 5412POPC   C3A69869  32.269  15.406   6.890
 5412POPC   C4A69870  32.262  15.307   7.305
 5412POPC   C1B69871  32.749  15.116   6.237
 5412POPC   C2B69872  32.622  15.086   6.655
 5412POPC   C3B69873  32.718  15.107   7.075
 5412POPC   C4B69874  32.713  15.178   7.516
 5413POPC   NC369875   3.099  37.495   5.449
 5413POPC   PO469876   2.507  37.827   5.460
 5413POPC   GL169877   2.548  37.683   5.887
 5413POPC   GL269878   2.841  37.477   6.018
 5413POPC   C1A69879   2.684  37.898   6.282
 5413POPC   D2A69880   2.657  38.144   6.695
 5413POPC   C3A69881   2.689  37.915   7.065
 5413POPC   C4A69882   3.082  38.051   7.254
 5413POPC   C1B69883   3.158  37.705   6.305
 5413POPC   C2B69884   3.097  37.848   6.751
 5413POPC   C3B69885   3.021  37.540   7.109
 5413POPC   C4B69886   3.005  37.286   7.490
 5414POPC   NC369887  41.550  10.744   5.482
 5414POPC   PO469888  41.767  10.156   5.180
 5414POPC   GL169889  41.434  10.292   5.663
 5414POPC   GL269890  41.658  10.567   5.924
 5414POPC   C1A69891  41.359  10.276   6.174
 5414POPC   D2A69892  41.577  10.623   6.447
 5414POPC   C3A69893  41.753  10.662   6.870
 5414POPC   C4A69894  41.649  10.571   7.293
 5414POPC   C1B69895  41.261  10.775   6.059
 5414POPC   C2B69896  41.127  10.892   6.459
 5414POPC   C3B69897  41.237  10.722   6.842
 5414POPC   C4B69898  41.415  10.994   7.107
 5415POPC   NC369899  20.085   1.855   5.403
 5415POPC   PO469900  19.365   1.543   5.573
 5415POPC   GL169901  19.609   1.839   5.810
 5415POPC   GL269902  19.928   1.781   5.872
 5415POPC   C1A69903  19.754   2.106   6.200
 5415POPC   D2A69904  19.588   2.289   6.592
 5415POPC   C3A69905  19.931   2.431   6.851
 5415POPC   C4A69906  20.223   2.377   7.174
 5415POPC   C1B69907  20.115   1.743   6.266
 5415POPC   C2B69908  20.174   1.983   6.637
 5415POPC   C3B69909  20.018   1.889   7.016
 5415POPC   C4B69910  19.623   2.007   7.080
 5416POPC   NC369911  26.792  34.455   5.357
 5416POPC   PO469912  27.300  34.821   5.279
 5416POPC   GL169913  27.035  34.755   5.700
 5416POPC   GL269914  27.041  34.358   5.804
 5416POPC   C1A69915  26.832  34.704   6.150
 5416POPC   D2A69916  26.985  34.569   6.582
 5416POPC   C3A69917  26.701  34.589   6.939
 5416POPC   C4A69918  26.472  34.779   7.292
 5416POPC   C1B69919  26.705  34.177   6.088
 5416POPC   C2B69920  26.729  34.027   6.521
 5416POPC   C3B69921  26.938  34.138   6.910
 5416POPC   C4B69922  26.797  34.293   7.347
 5417POPC   NC369923  44.484  15.869   5.408
 5417POPC   PO469924  44.419  16.513   5.504
 5417POPC   GL169925  44.569  16.182   5.804
 5417POPC   GL269926  44.863  15.932   5.752
 5417POPC   C1A69927  44.703  16.083   6.209
 5417POPC   D2A69928  44.705  15.841   6.558
 5417POPC   C3A69929  44.688  16.109   6.915
 5417POPC   C4A69930  44.355  16.083   7.208
 5417POPC   C1B69931  44.882  15.610   6.084
 5417POPC   C2B69932   0.039  15.453   6.483
 5417POPC   C3B69933  44.905  15.502   6.902
 5417POPC   C4B69934  44.822  15.785   7.249
 5418POPC   NC369935  40.844  43.060   5.225
 5418POPC   PO469936  40.306  43.257   5.501
 5418POPC   GL169937  40.616  43.035   5.717
 5418POPC   GL269938  40.812  43.262   5.857
 5418POPC   C1A69939  40.723  42.861   6.141
 5418POPC   D2A69940  41.004  42.772   6.502
 5418POPC   C3A69941  40.817  42.848   6.900
 5418POPC   C4A69942  40.968  42.896   7.292
 5418POPC   C1B69943  41.024  43.258   6.241
 5418POPC   C2B69944  40.735  43.223   6.558
 5418POPC   C3B69945  40.521  43.465   6.847
 5418POPC   C4B69946  40.607  43.290   7.241
 5419POPC   NC369947   7.899  29.729   5.314
 5419POPC   PO469948   8.450  30.172   5.480
 5419POPC   GL169949   8.200  29.919   5.829
 5419POPC   GL269950   7.821  29.871   5.810
 5419POPC   C1A69951   8.328  29.746   6.244
 5419POPC   D2A69952   8.453  29.483   6.614
 5419POPC   C3A69953   8.397  29.671   7.020
 5419POPC   C4A69954   7.990  29.711   7.230
 5419POPC   C1B69955   7.854  30.079   6.229
 5419POPC   C2B69956   7.888  30.383   6.586
 5419POPC   C3B69957   8.134  30.289   6.950
 5419POPC   C4B69958   8.003  30.233   7.334
 5420POPC   NC369959   5.152  36.700   5.346
 5420POPC   PO469960   5.082  37.306   5.512
 5420POPC   GL169961   5.059  37.001   5.834
 5420POPC   GL269962   4.984  36.643   5.831
 5420POPC   C1A69963   5.059  36.931   6.273
 5420POPC   D2A69964   5.292  36.757   6.603
 5420POPC   C3A69965   5.106  36.859   6.983
 5420POPC   C4A69966   5.255  37.105   7.326
 5420POPC   C1B69967   5.303  36.506   6.136
 5420POPC   C2B69968   5.276  36.242   6.499
 5420POPC   C3B69969   5.343  36.356   6.946
 5420POPC   C4B69970   5.269  36.565   7.355
 5421POPC   NC369971  16.513   3.278   5.118
 5421POPC   PO469972  17.110   3.510   5.276
 5421POPC   GL169973  16.926   3.357   5.695
 5421POPC   GL269974  16.606   3.175   5.667
 5421POPC   C1A69975  16.752   3.505   6.109
 5421POPC   D2A69976  16.748   3.347   6.539
 5421POPC   C3A69977  16.819   3.615   6.896
 5421POPC   C4A69978  16.713   3.530   7.318
 5421POPC   C1B69979  16.494   3.071   6.090
 5421POPC   C2B69980  16.298   3.117   6.494
 5421POPC   C3B69981  16.439   3.109   6.925
 5421POPC   C4B69982  16.250   3.349   7.299
 5422POPC   NC369983  24.255   5.263   5.432
 5422POPC   PO469984  24.866   5.020   5.469
 5422POPC   GL169985  24.590   4.931   5.797
 5422POPC   GL269986  24.533   5.276   5.855
 5422POPC   C1A69987  24.676   4.888   6.240
 5422POPC   D2A69988  24.715   4.708   6.616
 5422POPC   C3A69989  24.658   4.919   6.966
 5422POPC   C4A69990  24.508   5.048   7.342
 5422POPC   C1B69991  24.317   5.228   6.229
 5422POPC   C2B69992  24.423   5.218   6.641
 5422POPC   C3B69993  24.200   5.267   7.003
 5422POPC   C4B69994  24.147   5.454   7.384
 5423POPC   NC369995  25.782  11.508   5.529
 5423POPC   PO469996  26.389  11.245   5.401
 5423POPC   GL169997  26.145  11.219   5.799
 5423POPC   GL269998  26.056  11.562   5.965
 5423POPC   C1A69999  26.089  11.087   6.235
 5423POPC   D2A70000  25.881  11.298   6.588
 5423POPC   C3A70001  26.118  11.452   6.961
 5423POPC   C4A70002  26.156  11.115   7.254
 5423POPC   C1B70003  25.699  11.686   6.252
 5423POPC   C2B70004  25.540  11.660   6.690
 5423POPC   C3B70005  25.636  11.597   7.121
 5423POPC   C4B70006  25.737  11.310   7.460
 5424POPC   NC370007   9.605   5.835   5.345
 5424POPC   PO470008  10.246   6.049   5.335
 5424POPC   GL170009   9.965   5.962   5.695
 5424POPC   GL270010   9.808   6.264   5.803
 5424POPC   C1A70011   9.679   5.886   6.085
 5424POPC   D2A70012   9.830   5.890   6.479
 5424POPC   C3A70013   9.698   5.718   6.843
 5424POPC   C4A70014   9.710   5.909   7.241
 5424POPC   C1B70015  10.159   6.111   6.151
 5424POPC   C2B70016  10.287   6.069   6.602
 5424POPC   C3B70017  10.046   6.197   6.962
 5424POPC   C4B70018  10.059   6.338   7.378
 5425POPC   NC370019  22.922  26.895   5.350
 5425POPC   PO470020  23.314  27.422   5.438
 5425POPC   GL170021  23.125  27.104   5.802
 5425POPC   GL270022  22.973  26.717   5.822
 5425POPC   C1A70023  22.952  27.009   6.235
 5425POPC   D2A70024  22.791  27.121   6.633
 5425POPC   C3A70025  23.057  27.060   6.979
 5425POPC   C4A70026  23.031  26.976   7.413
 5425POPC   C1B70027  22.820  26.516   6.202
 5425POPC   C2B70028  22.796  26.605   6.656
 5425POPC   C3B70029  22.881  26.586   7.082
 5425POPC   C4B70030  22.606  26.554   7.411
 5426POPC   NC370031   6.446  39.401   5.361
 5426POPC   PO470032   6.693  38.919   5.695
 5426POPC   GL170033   6.832  39.129   6.025
 5426POPC   GL270034   6.752  39.442   5.921
 5426POPC   C1A70035   6.613  39.238   6.379
 5426POPC   D2A70036   6.419  39.359   6.725
 5426POPC   C3A70037   6.653  39.183   7.033
 5426POPC   C4A70038   6.630  38.955   7.390
 5426POPC   C1B70039   7.000  39.570   6.271
 5426POPC   C2B70040   7.026  39.384   6.676
 5426POPC   C3B70041   7.021  39.534   7.071
 5426POPC   C4B70042   6.801  39.474   7.455
 5427POPC   NC370043  23.087  36.573   5.510
 5427POPC   PO470044  23.111  37.239   5.509
 5427POPC   GL170045  22.870  36.951   5.791
 5427POPC   GL270046  23.101  36.810   5.963
 5427POPC   C1A70047  22.639  36.843   6.187
 5427POPC   D2A70048  22.775  36.955   6.610
 5427POPC   C3A70049  22.619  36.727   6.972
 5427POPC   C4A70050  22.739  36.932   7.365
 5427POPC   C1B70051  23.093  36.600   6.323
 5427POPC   C2B70052  23.293  36.758   6.656
 5427POPC   C3B70053  23.119  36.810   7.048
 5427POPC   C4B70054  22.921  36.465   7.292
 5428POPC   NC370055  10.742   1.053   5.272
 5428POPC   PO470056  10.137   1.041   5.668
 5428POPC   GL170057  10.528   1.165   5.852
 5428POPC   GL270058  10.887   1.007   5.766
 5428POPC   C1A70059  10.406   1.282   6.286
 5428POPC   D2A70060  10.166   1.193   6.687
 5428POPC   C3A70061  10.345   1.430   7.015
 5428POPC   C4A70062  10.809   1.550   7.098
 5428POPC   C1B70063  10.839   0.971   6.208
 5428POPC   C2B70064  10.705   1.041   6.628
 5428POPC   C3B70065  10.601   1.002   7.040
 5428POPC   C4B70066  10.575   0.710   7.338
 5429POPC   NC370067  34.730  23.535   5.389
 5429POPC   PO470068  34.563  24.175   5.531
 5429POPC   GL170069  34.470  24.014   5.924
 5429POPC   GL270070  34.643  23.703   5.871
 5429POPC   C1A70071  34.432  24.055   6.374
 5429POPC   D2A70072  34.387  24.158   6.826
 5429POPC   C3A70073  34.600  23.894   7.141
 5429POPC   C4A70074  34.677  23.846   7.619
 5429POPC   C1B70075  34.496  23.556   6.251
 5429POPC   C2B70076  34.672  23.549   6.642
 5429POPC   C3B70077  34.450  23.352   6.976
 5429POPC   C4B70078  34.400  23.493   7.380
 5430POPC   NC370079  21.930  20.937   5.486
 5430POPC   PO470080  21.425  20.450   5.403
 5430POPC   GL170081  21.477  20.651   5.771
 5430POPC   GL270082  21.787  20.489   5.835
 5430POPC   C1A70083  21.278  20.585   6.173
 5430POPC   D2A70084  21.369  20.762   6.563
 5430POPC   C3A70085  21.404  20.589   6.948
 5430POPC   C4A70086  21.527  20.784   7.323
 5430POPC   C1B70087  21.955  20.450   6.264
 5430POPC   C2B70088  21.823  20.390   6.701
 5430POPC   C3B70089  21.831  20.384   7.143
 5430POPC   C4B70090  21.792  20.429   7.580
 5431POPC   NC370091  43.493  32.130   5.613
 5431POPC   PO470092  42.917  32.322   5.320
 5431POPC   GL170093  43.096  32.402   5.786
 5431POPC   GL270094  43.412  32.521   5.934
 5431POPC   C1A70095  43.139  32.230   6.239
 5431POPC   D2A70096  42.860  31.968   6.483
 5431POPC   C3A70097  42.972  31.870   6.899
 5431POPC   C4A70098  42.979  32.049   7.285
 5431POPC   C1B70099  43.654  32.276   6.270
 5431POPC   C2B70100  43.609  32.346   6.679
 5431POPC   C3B70101  43.253  32.317   6.940
 5431POPC   C4B70102  43.027  32.616   7.180
 5432POPC   NC370103  40.020  31.649   5.319
 5432POPC   PO470104  40.317  31.086   5.652
 5432POPC   GL170105  40.113  31.363   5.897
 5432POPC   GL270106  40.137  31.709   5.837
 5432POPC   C1A70107  39.866  31.320   6.261
 5432POPC   D2A70108  39.859  30.996   6.579
 5432POPC   C3A70109  39.834  31.242   6.953
 5432POPC   C4A70110  39.998  31.248   7.353
 5432POPC   C1B70111  40.354  31.646   6.221
 5432POPC   C2B70112  40.198  31.505   6.627
 5432POPC   C3B70113  40.271  31.564   7.055
 5432POPC   C4B70114  39.916  31.768   7.249
 5433POPC   NC370115   5.458  38.553   5.411
 5433POPC   PO470116   4.781  38.716   5.447
 5433POPC   GL170117   4.999  38.428   5.763
 5433POPC   GL270118   5.331  38.476   5.909
 5433POPC   C1A70119   4.930  38.286   6.192
 5433POPC   D2A70120   4.653  38.284   6.563
 5433POPC   C3A70121   4.881  38.263   6.961
 5433POPC   C4A70122   5.131  38.122   7.282
 5433POPC   C1B70123   5.253  38.641   6.326
 5433POPC   C2B70124   5.485  38.549   6.650
 5433POPC   C3B70125   5.457  38.439   7.040
 5433POPC   C4B70126   5.184  38.640   7.317
 5434POPC   NC370127  18.577  14.513   5.210
 5434POPC   PO470128  19.201  14.185   5.309
 5434POPC   GL170129  19.116  14.294   5.713
 5434POPC   GL270130  18.827  14.360   5.644
 5434POPC   C1A70131  19.215  14.477   6.103
 5434POPC   D2A70132  19.086  14.330   6.489
 5434POPC   C3A70133  19.264  14.390   6.876
 5434POPC   C4A70134  19.055  14.625   7.148
 5434POPC   C1B70135  18.802  14.137   6.077
 5434POPC   C2B70136  18.583  14.245   6.465
 5434POPC   C3B70137  18.752  14.230   6.882
 5434POPC   C4B70138  18.580  14.001   7.165
 5435POPC   NC370139   6.277   8.090   5.388
 5435POPC   PO470140   6.937   8.181   5.380
 5435POPC   GL170141   6.640   8.345   5.693
 5435POPC   GL270142   6.767   8.136   5.883
 5435POPC   C1A70143   6.415   8.418   6.112
 5435POPC   D2A70144   6.288   8.237   6.511
 5435POPC   C3A70145   6.414   8.329   6.928
 5435POPC   C4A70146   6.120   8.438   7.247
 5435POPC   C1B70147   6.937   8.155   6.234
 5435POPC   C2B70148   7.043   8.288   6.595
 5435POPC   C3B70149   7.060   8.046   6.932
 5435POPC   C4B70150   6.960   8.209   7.275
 5436POPC   NC370151  32.753  32.503   5.718
 5436POPC   PO470152  33.370  32.474   5.389
 5436POPC   GL170153  33.324  32.313   5.789
 5436POPC   GL270154  33.295  31.929   5.830
 5436POPC   C1A70155  33.241  32.423   6.185
 5436POPC   D2A70156  33.373  32.210   6.524
 5436POPC   C3A70157  33.256  32.405   6.879
 5436POPC   C4A70158  33.198  32.253   7.270
 5436POPC   C1B70159  32.949  32.016   6.136
 5436POPC   C2B70160  32.845  32.281   6.538
 5436POPC   C3B70161  32.733  32.372   7.002
 5436POPC   C4B70162  32.629  32.105   7.385
 5437POPC   NC370163   6.677  41.853   5.573
 5437POPC   PO470164   6.481  41.264   5.491
 5437POPC   GL170165   6.692  41.419   5.833
 5437POPC   GL270166   7.023  41.332   5.752
 5437POPC   C1A70167   6.784  41.622   6.231
 5437POPC   D2A70168   6.576  41.439   6.605
 5437POPC   C3A70169   6.662  41.672   6.967
 5437POPC   C4A70170   7.044  41.896   7.000
 5437POPC   C1B70171   6.970  41.156   6.163
 5437POPC   C2B70172   6.884  41.004   6.562
 5437POPC   C3B70173   6.927  41.214   6.935
 5437POPC   C4B70174   6.766  41.168   7.323
 5438POPC   NC370175  12.845  33.035   5.526
 5438POPC   PO470176  12.972  32.448   5.194
 5438POPC   GL170177  12.867  32.569   5.688
 5438POPC   GL270178  12.568  32.498   5.898
 5438POPC   C1A70179  12.890  32.790   6.160
 5438POPC   D2A70180  12.688  33.090   6.473
 5438POPC   C3A70181  12.735  33.157   6.943
 5438POPC   C4A70182  12.427  33.003   7.283
 5438POPC   C1B70183  12.454  32.563   6.337
 5438POPC   C2B70184  12.695  32.621   6.702
 5438POPC   C3B70185  12.822  32.701   7.125
 5438POPC   C4B70186  13.083  32.694   7.474
 5439POPC   NC370187  38.249  30.360   5.263
 5439POPC   PO470188  38.661  29.805   5.249
 5439POPC   GL170189  38.479  29.852   5.679
 5439POPC   GL270190  38.188  30.074   5.729
 5439POPC   C1A70191  38.410  29.781   6.136
 5439POPC   D2A70192  38.644  29.830   6.545
 5439POPC   C3A70193  38.517  30.088   6.873
 5439POPC   C4A70194  38.692  30.156   7.230
 5439POPC   C1B70195  38.087  30.243   6.148
 5439POPC   C2B70196  38.155  30.003   6.529
 5439POPC   C3B70197  38.286  29.630   6.854
 5439POPC   C4B70198  38.345  29.774   7.296
 5440POPC   NC370199  12.494  20.761   5.427
 5440POPC   PO470200  12.966  20.369   5.456
 5440POPC   GL170201  12.702  20.416   5.798
 5440POPC   GL270202  12.831  20.747   5.899
 5440POPC   C1A70203  12.626  20.338   6.229
 5440POPC   D2A70204  12.703  20.672   6.512
 5440POPC   C3A70205  12.688  20.646   6.951
 5440POPC   C4A70206  12.941  20.341   7.138
 5440POPC   C1B70207  13.259  20.873   6.099
 5440POPC   C2B70208  13.390  20.835   6.526
 5440POPC   C3B70209  13.202  20.778   6.935
 5440POPC   C4B70210  13.424  21.040   7.226
 5441POPC   NC370211  20.343   3.255   5.490
 5441POPC   PO470212  20.837   2.877   5.263
 5441POPC   GL170213  20.642   2.835   5.695
 5441POPC   GL270214  20.784   3.131   5.793
 5441POPC   C1A70215  20.446   2.594   6.090
 5441POPC   D2A70216  20.355   2.451   6.539
 5441POPC   C3A70217  20.645   2.510   6.873
 5441POPC   C4A70218  20.667   2.646   7.281
 5441POPC   C1B70219  20.643   3.051   6.228
 5441POPC   C2B70220  20.772   2.971   6.663
 5441POPC   C3B70221  20.788   3.113   7.087
 5441POPC   C4B70222  20.935   3.029   7.497
 5442POPC   NC370223   7.645   1.554   5.403
 5442POPC   PO470224   7.258   0.974   5.422
 5442POPC   GL170225   7.447   1.207   5.746
 5442POPC   GL270226   7.386   0.929   5.961
 5442POPC   C1A70227   7.498   1.428   6.138
 5442POPC   D2A70228   7.550   1.253   6.566
 5442POPC   C3A70229   7.536   1.538   6.905
 5442POPC   C4A70230   7.440   1.340   7.252
 5442POPC   C1B70231   7.701   0.841   6.240
 5442POPC   C2B70232   7.956   0.870   6.598
 5442POPC   C3B70233   7.807   0.904   6.999
 5442POPC   C4B70234   7.652   0.904   7.407
 5443POPC   NC370235  41.975  26.853   5.657
 5443POPC   PO470236  41.358  27.005   5.409
 5443POPC   GL170237  41.493  26.794   5.811
 5443POPC   GL270238  41.386  26.456   5.870
 5443POPC   C1A70239  41.387  26.860   6.263
 5443POPC   D2A70240  41.300  26.768   6.703
 5443POPC   C3A70241  41.494  27.075   6.973
 5443POPC   C4A70242  41.890  26.951   7.127
 5443POPC   C1B70243  41.756  26.495   6.158
 5443POPC   C2B70244  41.724  26.517   6.586
 5443POPC   C3B70245  41.735  26.471   7.036
 5443POPC   C4B70246  41.359  26.660   7.218
 5444POPC   NC370247  10.991  35.824   5.539
 5444POPC   PO470248  11.528  36.117   5.372
 5444POPC   GL170249  11.413  36.071   5.798
 5444POPC   GL270250  11.303  35.747   5.946
 5444POPC   C1A70251  11.314  36.254   6.217
 5444POPC   D2A70252  11.029  36.149   6.518
 5444POPC   C3A70253  11.270  36.212   6.886
 5444POPC   C4A70254  11.225  36.053   7.291
 5444POPC   C1B70255  11.672  35.882   6.192
 5444POPC   C2B70256  11.667  36.053   6.572
 5444POPC   C3B70257  11.645  35.873   6.956
 5444POPC   C4B70258  11.731  35.986   7.367
 5445POPC   NC370259   7.840  21.097   5.321
 5445POPC   PO470260   8.404  21.442   5.478
 5445POPC   GL170261   8.383  21.187   5.819
 5445POPC   GL270262   8.035  21.116   5.789
 5445POPC   C1A70263   8.282  21.309   6.239
 5445POPC   D2A70264   8.217  21.665   6.530
 5445POPC   C3A70265   8.097  21.550   6.927
 5445POPC   C4A70266   8.269  21.673   7.307
 5445POPC   C1B70267   7.817  21.094   6.173
 5445POPC   C2B70268   7.939  21.085   6.586
 5445POPC   C3B70269   8.032  21.042   6.988
 5445POPC   C4B70270   7.938  21.268   7.364
 5446POPC   NC370271  40.156  35.160   5.667
 5446POPC   PO470272  39.447  35.248   5.620
 5446POPC   GL170273  39.795  35.462   5.895
 5446POPC   GL270274  39.909  35.216   6.095
 5446POPC   C1A70275  39.960  35.684   6.244
 5446POPC   D2A70276  39.708  35.675   6.634
 5446POPC   C3A70277  39.897  35.681   7.020
 5446POPC   C4A70278  40.011  35.379   7.306
 5446POPC   C1B70279  39.630  34.962   6.251
 5446POPC   C2B70280  39.519  35.111   6.618
 5446POPC   C3B70281  39.705  35.183   6.965
 5446POPC   C4B70282  39.698  34.967   7.346
 5447POPC   NC370283  15.002  22.410   5.182
 5447POPC   PO470284  15.052  21.768   5.298
 5447POPC   GL170285  15.189  21.853   5.716
 5447POPC   GL270286  15.286  22.210   5.686
 5447POPC   C1A70287  15.086  21.916   6.145
 5447POPC   D2A70288  14.909  21.764   6.514
 5447POPC   C3A70289  15.067  21.935   6.884
 5447POPC   C4A70290  15.122  22.208   7.237
 5447POPC   C1B70291  15.376  22.353   6.108
 5447POPC   C2B70292  15.313  22.236   6.521
 5447POPC   C3B70293  15.513  22.246   6.917
 5447POPC   C4B70294  15.547  22.473   7.310
 5448POPC   NC370295  15.427  37.542   5.499
 5448POPC   PO470296  14.750  37.433   5.346
 5448POPC   GL170297  14.970  37.619   5.734
 5448POPC   GL270298  15.173  37.953   5.803
 5448POPC   C1A70299  14.983  37.665   6.185
 5448POPC   D2A70300  14.969  37.916   6.551
 5448POPC   C3A70301  15.012  37.753   6.989
 5448POPC   C4A70302  15.282  37.392   7.080
 5448POPC   C1B70303  15.369  38.046   6.247
 5448POPC   C2B70304  15.455  37.929   6.715
 5448POPC   C3B70305  15.532  37.813   7.160
 5448POPC   C4B70306  15.640  37.911   7.593
 5449POPC   NC370307  32.062  17.358   5.185
 5449POPC   PO470308  31.828  17.858   5.462
 5449POPC   GL170309  32.050  17.636   5.765
 5449POPC   GL270310  32.059  17.319   5.748
 5449POPC   C1A70311  32.232  17.675   6.188
 5449POPC   D2A70312  32.329  17.519   6.607
 5449POPC   C3A70313  32.446  17.803   6.935
 5449POPC   C4A70314  32.406  17.803   7.402
 5449POPC   C1B70315  31.975  17.214   6.169
 5449POPC   C2B70316  31.743  17.085   6.559
 5449POPC   C3B70317  31.817  17.192   6.960
 5449POPC   C4B70318  32.181  17.414   7.111
 5450POPC   NC370319  11.697  38.284   5.282
 5450POPC   PO470320  12.347  38.305   5.327
 5450POPC   GL170321  12.199  38.492   5.744
 5450POPC   GL270322  11.846  38.373   5.793
 5450POPC   C1A70323  12.101  38.646   6.202
 5450POPC   D2A70324  12.164  38.775   6.683
 5450POPC   C3A70325  11.880  38.637   7.026
 5450POPC   C4A70326  11.900  38.498   7.438
 5450POPC   C1B70327  11.696  38.312   6.229
 5450POPC   C2B70328  11.827  38.292   6.663
 5450POPC   C3B70329  11.668  38.174   7.108
 5450POPC   C4B70330  11.677  38.068   7.584
 5451POPC   NC370331   4.859  26.210   5.411
 5451POPC   PO470332   5.073  25.545   5.330
 5451POPC   GL170333   4.946  25.674   5.794
 5451POPC   GL270334   4.911  26.030   5.886
 5451POPC   C1A70335   5.040  25.693   6.254
 5451POPC   D2A70336   5.097  25.564   6.686
 5451POPC   C3A70337   5.018  25.879   6.984
 5451POPC   C4A70338   5.312  26.012   7.241
 5451POPC   C1B70339   5.273  26.154   6.174
 5451POPC   C2B70340   5.348  26.277   6.638
 5451POPC   C3B70341   5.257  26.486   7.053
 5451POPC   C4B70342   4.945  26.357   7.376
 5452POPC   NC370343  31.904   8.853   5.369
 5452POPC   PO470344  31.585   9.347   5.513
 5452POPC   GL170345  31.737   9.086   5.811
 5452POPC   GL270346  31.623   8.778   5.884
 5452POPC   C1A70347  31.592   9.157   6.230
 5452POPC   D2A70348  31.191   9.299   6.369
 5452POPC   C3A70349  31.092   9.193   6.803
 5452POPC   C4A70350  31.176   9.132   7.234
 5452POPC   C1B70351  31.927   8.776   6.248
 5452POPC   C2B70352  31.974   8.845   6.715
 5452POPC   C3B70353  31.638   8.841   7.043
 5452POPC   C4B70354  31.259   8.601   7.126
 5453POPC   NC370355  29.831   3.848   5.376
 5453POPC   PO470356  30.446   3.643   5.469
 5453POPC   GL170357  30.138   3.746   5.817
 5453POPC   GL270358  29.740   3.732   5.898
 5453POPC   C1A70359  30.118   3.791   6.263
 5453POPC   D2A70360  29.755   3.806   6.499
 5453POPC   C3A70361  29.719   3.739   6.927
 5453POPC   C4A70362  29.892   3.439   7.205
 5453POPC   C1B70363  29.792   3.370   6.229
 5453POPC   C2B70364  29.819   3.206   6.675
 5453POPC   C3B70365  29.669   3.022   7.078
 5453POPC   C4B70366  29.590   3.159   7.535
 5454POPC   NC370367  41.227  16.243   5.443
 5454POPC   PO470368  41.632  15.697   5.495
 5454POPC   GL170369  41.695  15.860   5.899
 5454POPC   GL270370  41.566  16.170   5.933
 5454POPC   C1A70371  41.799  15.807   6.336
 5454POPC   D2A70372  41.932  15.681   6.703
 5454POPC   C3A70373  41.798  15.956   6.977
 5454POPC   C4A70374  41.655  15.877   7.378
 5454POPC   C1B70375  41.319  15.986   6.310
 5454POPC   C2B70376  41.319  15.990   6.784
 5454POPC   C3B70377  41.207  16.051   7.219
 5454POPC   C4B70378  41.123  15.901   7.656
 5455POPC   NC370379  38.840  41.113   5.203
 5455POPC   PO470380  39.225  40.618   5.426
 5455POPC   GL170381  39.331  40.689   5.855
 5455POPC   GL270382  39.583  40.488   5.824
 5455POPC   C1A70383  39.386  40.782   6.291
 5455POPC   D2A70384  39.107  41.034   6.563
 5455POPC   C3A70385  39.020  40.937   6.995
 5455POPC   C4A70386  39.231  40.806   7.350
 5455POPC   C1B70387  39.558  40.289   6.221
 5455POPC   C2B70388  39.702  40.432   6.628
 5455POPC   C3B70389  39.557  40.496   7.071
 5455POPC   C4B70390  39.619  40.534   7.532
 5456POPC   NC370391  37.514  26.294   5.476
 5456POPC   PO470392  38.064  25.924   5.426
 5456POPC   GL170393  37.788  25.968   5.766
 5456POPC   GL270394  37.499  25.804   5.631
 5456POPC   C1A70395  37.683  26.185   6.149
 5456POPC   D2A70396  37.430  26.328   6.472
 5456POPC   C3A70397  37.498  26.197   6.883
 5456POPC   C4A70398  37.751  26.049   7.219
 5456POPC   C1B70399  37.427  25.758   6.090
 5456POPC   C2B70400  37.577  25.783   6.536
 5456POPC   C3B70401  37.437  25.700   6.981
 5456POPC   C4B70402  37.331  25.800   7.431
 5457POPC   NC370403  27.154   3.429   5.170
 5457POPC   PO470404  26.758   3.823   5.496
 5457POPC   GL170405  26.904   3.903   5.894
 5457POPC   GL270406  26.639   3.677   5.967
 5457POPC   C1A70407  27.014   3.794   6.329
 5457POPC   D2A70408  27.052   3.431   6.530
 5457POPC   C3A70409  27.004   3.466   6.926
 5457POPC   C4A70410  27.193   3.242   7.218
 5457POPC   C1B70411  26.641   3.354   6.250
 5457POPC   C2B70412  26.428   3.345   6.649
 5457POPC   C3B70413  26.514   3.485   7.085
 5457POPC   C4B70414  26.822   3.836   7.234
 5458POPC   NC370415   1.674   8.361   5.423
 5458POPC   PO470416   0.951   8.192   5.307
 5458POPC   GL170417   1.079   8.305   5.760
 5458POPC   GL270418   1.430   8.346   5.879
 5458POPC   C1A70419   1.029   8.397   6.216
 5458POPC   D2A70420   1.131   8.253   6.644
 5458POPC   C3A70421   1.201   8.453   7.068
 5458POPC   C4A70422   0.954   8.312   7.451
 5458POPC   C1B70423   1.424   8.069   6.248
 5458POPC   C2B70424   1.530   7.883   6.642
 5458POPC   C3B70425   1.432   7.829   7.088
 5458POPC   C4B70426   1.414   8.126   7.452
 5459POPC   NC370427  37.099  43.725   5.608
 5459POPC   PO470428  36.627  44.193   5.446
 5459POPC   GL170429  36.698  43.910   5.852
 5459POPC   GL270430  36.722  43.491   5.884
 5459POPC   C1A70431  36.831  44.066   6.286
 5459POPC   D2A70432  37.157  44.253   6.572
 5459POPC   C3A70433  37.204  43.990   6.886
 5459POPC   C4A70434  37.077  43.946   7.271
 5459POPC   C1B70435  36.778  43.537   6.320
 5459POPC   C2B70436  36.772  43.722   6.725
 5459POPC   C3B70437  36.673  43.685   7.155
 5459POPC   C4B70438  36.837  43.611   7.594
 5460POPC   NC370439  17.898  18.712   5.407
 5460POPC   PO470440  18.319  18.212   5.292
 5460POPC   GL170441  18.277  18.283   5.754
 5460POPC   GL270442  18.564  18.521   5.813
 5460POPC   C1A70443  18.113  18.146   6.200
 5460POPC   D2A70444  18.120  18.312   6.625
 5460POPC   C3A70445  18.162  18.092   7.022
 5460POPC   C4A70446  18.102  18.251   7.430
 5460POPC   C1B70447  18.627  18.207   6.130
 5460POPC   C2B70448  18.625  18.233   6.545
 5460POPC   C3B70449  18.710  18.048   6.914
 5460POPC   C4B70450  18.642  18.199   7.283
 5461POPC   NC370451  20.918  40.825   5.465
 5461POPC   PO470452  20.516  40.231   5.277
 5461POPC   GL170453  20.547  40.511   5.685
 5461POPC   GL270454  20.386  40.814   5.821
 5461POPC   C1A70455  20.513  40.437   6.156
 5461POPC   D2A70456  20.788  40.589   6.506
 5461POPC   C3A70457  20.706  40.714   6.947
 5461POPC   C4A70458  20.889  40.581   7.351
 5461POPC   C1B70459  20.732  40.937   6.119
 5461POPC   C2B70460  20.734  41.201   6.484
 5461POPC   C3B70461  20.886  41.438   6.828
 5461POPC   C4B70462  20.919  41.141   7.163
 5462POPC   NC370463  13.405  11.038   5.556
 5462POPC   PO470464  13.903  10.668   5.227
 5462POPC   GL170465  13.746  10.538   5.697
 5462POPC   GL270466  13.460  10.671   5.895
 5462POPC   C1A70467  13.697  10.321   6.167
 5462POPC   D2A70468  13.482  10.328   6.602
 5462POPC   C3A70469  13.730  10.198   6.999
 5462POPC   C4A70470  13.817  10.349   7.438
 5462POPC   C1B70471  13.547  10.808   6.331
 5462POPC   C2B70472  13.586  11.039   6.712
 5462POPC   C3B70473  13.392  10.918   7.060
 5462POPC   C4B70474  13.511  10.738   7.431
 5463POPC   NC370475  33.275  30.083   5.415
 5463POPC   PO470476  32.625  30.038   5.063
 5463POPC   GL170477  32.796  30.025   5.599
 5463POPC   GL270478  33.058  29.736   5.734
 5463POPC   C1A70479  32.919  30.037   6.089
 5463POPC   D2A70480  33.072  29.932   6.505
 5463POPC   C3A70481  32.869  30.154   6.833
 5463POPC   C4A70482  32.947  29.982   7.204
 5463POPC   C1B70483  33.379  29.696   6.128
 5463POPC   C2B70484  33.553  29.737   6.560
 5463POPC   C3B70485  33.435  29.915   6.993
 5463POPC   C4B70486  33.309  29.671   7.375
 5464POPC   NC370487  13.255   0.319   5.587
 5464POPC   PO470488  12.691   0.540   5.423
 5464POPC   GL170489  12.843   0.536   5.838
 5464POPC   GL270490  13.124   0.771   5.826
 5464POPC   C1A70491  12.663   0.459   6.261
 5464POPC   D2A70492  12.460   0.281   6.646
 5464POPC   C3A70493  12.703   0.226   7.023
 5464POPC   C4A70494  12.705   0.432   7.423
 5464POPC   C1B70495  13.160   0.577   6.252
 5464POPC   C2B70496  12.955   0.536   6.687
 5464POPC   C3B70497  13.155   0.500   7.102
 5464POPC   C4B70498  13.457   0.149   7.165
 5465POPC   NC370499  11.843  20.954   5.745
 5465POPC   PO470500  12.192  20.368   5.495
 5465POPC   GL170501  11.951  20.470   5.864
 5465POPC   GL270502  12.258  20.635   6.007
 5465POPC   C1A70503  11.876  20.507   6.336
 5465POPC   D2A70504  12.205  20.578   6.627
 5465POPC   C3A70505  12.393  20.253   6.774
 5465POPC   C4A70506  12.405  20.279   7.193
 5465POPC   C1B70507  12.139  20.975   6.325
 5465POPC   C2B70508  11.856  20.955   6.660
 5465POPC   C3B70509  11.988  20.799   7.057
 5465POPC   C4B70510  12.226  20.705   7.441
 5466POPC   NC370511  33.121  31.620   5.426
 5466POPC   PO470512  33.077  30.907   5.267
 5466POPC   GL170513  33.178  31.191   5.702
 5466POPC   GL270514  32.859  31.350   5.797
 5466POPC   C1A70515  33.239  31.381   6.162
 5466POPC   D2A70516  32.987  31.269   6.561
 5466POPC   C3A70517  33.070  31.422   6.957
 5466POPC   C4A70518  33.301  31.331   7.307
 5466POPC   C1B70519  32.755  31.534   6.191
 5466POPC   C2B70520  32.901  31.764   6.565
 5466POPC   C3B70521  33.003  31.940   6.925
 5466POPC   C4B70522  33.037  31.778   7.338
 5467POPC   NC370523  40.585  23.615   5.442
 5467POPC   PO470524  40.744  24.295   5.371
 5467POPC   GL170525  40.785  23.978   5.722
 5467POPC   GL270526  40.505  23.951   5.848
 5467POPC   C1A70527  40.864  23.666   6.076
 5467POPC   D2A70528  40.605  23.475   6.364
 5467POPC   C3A70529  40.666  23.537   6.807
 5467POPC   C4A70530  40.734  23.485   7.250
 5467POPC   C1B70531  40.526  24.044   6.221
 5467POPC   C2B70532  40.387  23.928   6.604
 5467POPC   C3B70533  40.248  24.209   6.900
 5467POPC   C4B70534  40.483  24.305   7.252
 5468POPC   NC370535   1.402  21.002   5.142
 5468POPC   PO470536   1.046  20.517   5.279
 5468POPC   GL170537   1.075  20.867   5.614
 5468POPC   GL270538   1.416  20.988   5.708
 5468POPC   C1A70539   1.004  20.817   6.095
 5468POPC   D2A70540   1.210  20.641   6.485
 5468POPC   C3A70541   1.071  20.634   6.930
 5468POPC   C4A70542   1.012  20.530   7.367
 5468POPC   C1B70543   1.560  20.995   6.169
 5468POPC   C2B70544   1.540  21.016   6.641
 5468POPC   C3B70545   1.656  20.779   7.010
 5468POPC   C4B70546   1.470  20.750   7.436
 5469POPC   NC370547  42.680  42.151   5.375
 5469POPC   PO470548  42.074  42.483   5.225
 5469POPC   GL170549  42.190  42.491   5.719
 5469POPC   GL270550  42.446  42.218   5.821
 5469POPC   C1A70551  42.388  42.595   6.153
 5469POPC   D2A70552  42.646  42.426   6.523
 5469POPC   C3A70553  42.428  42.375   6.943
 5469POPC   C4A70554  42.273  42.620   7.281
 5469POPC   C1B70555  42.173  41.918   6.044
 5469POPC   C2B70556  41.919  41.956   6.404
 5469POPC   C3B70557  42.012  41.995   6.850
 5469POPC   C4B70558  42.221  42.003   7.277
 5470POPC   NC370559  44.904   1.586   5.361
 5470POPC   PO470560  44.892   2.252   5.252
 5470POPC   GL170561  44.848   2.210   5.725
 5470POPC   GL270562  44.717   1.849   5.770
 5470POPC   C1A70563  44.726   2.201   6.191
 5470POPC   D2A70564  44.585   1.915   6.538
 5470POPC   C3A70565  44.679   2.132   6.946
 5470POPC   C4A70566  44.536   1.931   7.306
 5470POPC   C1B70567  44.922   1.721   6.156
 5470POPC   C2B70568   0.078   1.951   6.523
 5470POPC   C3B70569  44.993   1.759   6.865
 5470POPC   C4B70570   0.115   1.748   7.235
 5471POPC   NC370571   3.882  39.837   5.547
 5471POPC   PO470572   4.478  40.208   5.465
 5471POPC   GL170573   4.373  39.920   5.810
 5471POPC   GL270574   4.158  39.651   5.921
 5471POPC   C1A70575   4.512  39.979   6.217
 5471POPC   D2A70576   4.479  40.298   6.479
 5471POPC   C3A70577   4.427  40.272   6.931
 5471POPC   C4A70578   4.400  40.192   7.354
 5471POPC   C1B70579   4.191  39.621   6.348
 5471POPC   C2B70580   4.291  39.839   6.687
 5471POPC   C3B70581   4.497  39.764   7.058
 5471POPC   C4B70582   4.202  39.724   7.366
 5472POPC   NC370583  38.191  21.970   5.167
 5472POPC   PO470584  38.147  21.360   5.505
 5472POPC   GL170585  38.403  21.541   5.851
 5472POPC   GL270586  38.369  21.231   6.025
 5472POPC   C1A70587  38.536  21.614   6.307
 5472POPC   D2A70588  38.302  21.452   6.702
 5472POPC   C3A70589  38.605  21.459   7.024
 5472POPC   C4A70590  38.746  21.358   7.411
 5472POPC   C1B70591  37.980  21.120   6.222
 5472POPC   C2B70592  37.858  20.958   6.625
 5472POPC   C3B70593  38.018  21.005   7.040
 5472POPC   C4B70594  38.136  21.360   7.266
 5473POPC   NC370595  28.131   2.011   5.493
 5473POPC   PO470596  28.722   2.239   5.251
 5473POPC   GL170597  28.586   2.061   5.680
 5473POPC   GL270598  28.360   2.365   5.783
 5473POPC   C1A70599  28.423   1.725   6.052
 5473POPC   D2A70600  28.452   1.525   6.475
 5473POPC   C3A70601  28.308   1.639   6.902
 5473POPC   C4A70602  28.551   1.793   7.273
 5473POPC   C1B70603  28.238   2.172   6.164
 5473POPC   C2B70604  28.109   1.950   6.539
 5473POPC   C3B70605  28.162   2.120   6.973
 5473POPC   C4B70606  28.071   2.473   7.237
 5474POPC   NC370607   4.942   4.744   5.487
 5474POPC   PO470608   5.505   4.482   5.361
 5474POPC   GL170609   5.303   4.432   5.784
 5474POPC   GL270610   4.966   4.269   5.706
 5474POPC   C1A70611   5.384   4.334   6.247
 5474POPC   D2A70612   5.574   4.196   6.649
 5474POPC   C3A70613   5.296   4.042   6.984
 5474POPC   C4A70614   5.301   4.405   7.283
 5474POPC   C1B70615   4.892   4.264   6.154
 5474POPC   C2B70616   4.998   4.164   6.566
 5474POPC   C3B70617   4.898   4.356   6.955
 5474POPC   C4B70618   4.877   4.126   7.323
 5475POPC   NC370619  11.159  15.649   5.562
 5475POPC   PO470620  11.156  16.396   5.331
 5475POPC   GL170621  11.003  16.220   5.699
 5475POPC   GL270622  11.338  16.089   5.799
 5475POPC   C1A70623  10.929  16.049   6.135
 5475POPC   D2A70624  10.993  15.776   6.513
 5475POPC   C3A70625  11.023  15.921   6.934
 5475POPC   C4A70626  11.044  15.799   7.343
 5475POPC   C1B70627  11.403  15.848   6.200
 5475POPC   C2B70628  11.472  15.918   6.640
 5475POPC   C3B70629  11.499  15.729   7.037
 5475POPC   C4B70630  11.607  16.049   7.303
 5476POPC   NC370631  44.656  36.509   5.400
 5476POPC   PO470632  44.404  37.164   5.437
 5476POPC   GL170633  44.521  36.936   5.831
 5476POPC   GL270634  44.479  36.597   5.910
 5476POPC   C1A70635  44.861  36.959   6.135
 5476POPC   D2A70636   0.159  37.040   6.488
 5476POPC   C3A70637  44.997  36.815   6.844
 5476POPC   C4A70638  44.945  36.810   7.279
 5476POPC   C1B70639  44.452  36.728   6.375
 5476POPC   C2B70640  44.475  36.748   6.864
 5476POPC   C3B70641  44.450  36.691   7.331
 5476POPC   C4B70642  44.368  36.739   7.803
 5477POPC   NC370643   2.117   0.456   5.417
 5477POPC   PO470644   1.592   0.108   5.298
 5477POPC   GL170645   1.703   0.265   5.762
 5477POPC   GL270646   1.852   0.616   5.819
 5477POPC   C1A70647   1.933   0.269   6.212
 5477POPC   D2A70648   2.184   0.399   6.641
 5477POPC   C3A70649   2.007   0.290   7.100
 5477POPC   C4A70650   1.946   0.303   7.569
 5477POPC   C1B70651   1.707   0.746   6.229
 5477POPC   C2B70652   1.792   0.962   6.622
 5477POPC   C3B70653   2.012   0.794   6.990
 5477POPC   C4B70654   1.838   0.770   7.390
 5478POPC   NC370655   7.023  25.785   5.700
 5478POPC   PO470656   7.562  26.067   5.298
 5478POPC   GL170657   7.399  26.125   5.742
 5478POPC   GL270658   7.040  26.301   5.792
 5478POPC   C1A70659   7.500  25.893   6.146
 5478POPC   D2A70660   7.268  25.612   6.421
 5478POPC   C3A70661   7.366  25.694   6.835
 5478POPC   C4A70662   7.450  25.778   7.267
 5478POPC   C1B70663   7.104  26.197   6.212
 5478POPC   C2B70664   7.352  26.238   6.570
 5478POPC   C3B70665   7.333  26.218   7.008
 5478POPC   C4B70666   7.160  26.168   7.416
 5479POPC   NC370667  17.346   4.504   5.525
 5479POPC   PO470668  17.671   3.951   5.400
 5479POPC   GL170669  17.670   4.115   5.827
 5479POPC   GL270670  17.782   4.461   5.834
 5479POPC   C1A70671  17.438   4.126   6.227
 5479POPC   D2A70672  17.124   3.976   6.544
 5479POPC   C3A70673  17.274   4.077   6.972
 5479POPC   C4A70674  17.092   4.288   7.339
 5479POPC   C1B70675  17.954   4.324   6.238
 5479POPC   C2B70676  17.820   4.296   6.637
 5479POPC   C3B70677  17.868   4.231   7.048
 5479POPC   C4B70678  17.596   4.386   7.384
 5480POPC   NC370679  37.121  41.724   5.182
 5480POPC   PO470680  36.746  41.177   5.391
 5480POPC   GL170681  36.820  41.454   5.774
 5480POPC   GL270682  36.530  41.679   5.844
 5480POPC   C1A70683  36.885  41.603   6.227
 5480POPC   D2A70684  37.172  41.582   6.586
 5480POPC   C3A70685  37.018  41.493   6.997
 5480POPC   C4A70686  37.247  41.263   7.292
 5480POPC   C1B70687  36.383  41.612   6.289
 5480POPC   C2B70688  36.623  41.648   6.687
 5480POPC   C3B70689  36.700  41.973   7.022
 5480POPC   C4B70690  36.755  41.972   7.493
 5481POPC   NC370691  20.129  23.296   5.274
 5481POPC   PO470692  20.216  22.608   5.253
 5481POPC   GL170693  20.173  22.881   5.647
 5481POPC   GL270694  20.049  23.212   5.756
 5481POPC   C1A70695  20.198  22.891   6.116
 5481POPC   D2A70696  20.023  23.063   6.517
 5481POPC   C3A70697  20.077  22.858   6.901
 5481POPC   C4A70698  19.731  22.827   7.165
 5481POPC   C1B70699  19.749  23.217   6.114
 5481POPC   C2B70700  19.541  23.308   6.540
 5481POPC   C3B70701  19.611  23.309   7.002
 5481POPC   C4B70702  19.938  23.298   7.329
 5482POPC   NC370703  18.044  14.603   5.797
 5482POPC   PO470704  18.148  14.337   5.168
 5482POPC   GL170705  18.343  14.228   5.663
 5482POPC   GL270706  18.488  14.494   5.993
 5482POPC   C1A70707  18.235  14.061   6.111
 5482POPC   D2A70708  18.038  14.111   6.531
 5482POPC   C3A70709  18.244  14.300   6.880
 5482POPC   C4A70710  18.159  14.279   7.309
 5482POPC   C1B70711  18.756  14.720   6.303
 5482POPC   C2B70712  18.673  14.705   6.764
 5482POPC   C3B70713  18.551  14.585   7.211
 5482POPC   C4B70714  18.436  14.668   7.641
 5483POPC   NC370715  36.500  19.023   5.396
 5483POPC   PO470716  37.068  19.427   5.507
 5483POPC   GL170717  36.846  19.135   5.774
 5483POPC   GL270718  36.563  19.371   5.759
 5483POPC   C1A70719  36.764  18.814   6.121
 5483POPC   D2A70720  36.986  18.717   6.524
 5483POPC   C3A70721  36.860  18.877   6.918
 5483POPC   C4A70722  37.124  19.095   7.192
 5483POPC   C1B70723  36.476  19.224   6.149
 5483POPC   C2B70724  36.492  19.358   6.549
 5483POPC   C3B70725  36.484  19.232   6.947
 5483POPC   C4B70726  36.448  18.989   7.304
 5484POPC   NC370727   0.644  38.776   5.644
 5484POPC   PO470728   0.255  38.277   5.285
 5484POPC   GL170729   0.267  38.439   5.724
 5484POPC   GL270730   0.514  38.219   5.826
 5484POPC   C1A70731   0.390  38.513   6.205
 5484POPC   D2A70732   0.555  38.401   6.608
 5484POPC   C3A70733   0.342  38.347   6.960
 5484POPC   C4A70734   0.390  38.576   7.328
 5484POPC   C1B70735   0.631  38.040   6.230
 5484POPC   C2B70736   0.746  37.942   6.631
 5484POPC   C3B70737   0.828  38.124   7.022
 5484POPC   C4B70738   0.774  38.249   7.444
 5485POPC   NC370739  40.583  28.945   5.400
 5485POPC   PO470740  40.393  29.607   5.475
 5485POPC   GL170741  40.583  29.304   5.795
 5485POPC   GL270742  40.820  29.028   5.859
 5485POPC   C1A70743  40.731  29.372   6.234
 5485POPC   D2A70744  40.949  29.268   6.638
 5485POPC   C3A70745  40.902  29.430   7.051
 5485POPC   C4A70746  40.840  29.626   7.449
 5485POPC   C1B70747  41.052  28.915   6.250
 5485POPC   C2B70748  41.241  28.847   6.678
 5485POPC   C3B70749  40.937  28.871   7.030
 5485POPC   C4B70750  40.486  28.772   7.130
 5486POPC   NC370751  22.047  37.969   5.483
 5486POPC   PO470752  22.083  38.686   5.439
 5486POPC   GL170753  22.009  38.449   5.815
 5486POPC   GL270754  22.304  38.268   5.861
 5486POPC   C1A70755  22.120  38.550   6.280
 5486POPC   D2A70756  22.451  38.562   6.629
 5486POPC   C3A70757  22.312  38.549   7.042
 5486POPC   C4A70758  21.951  38.758   7.113
 5486POPC   C1B70759  22.086  38.058   6.179
 5486POPC   C2B70760  21.837  38.088   6.520
 5486POPC   C3B70761  21.975  38.209   6.899
 5486POPC   C4B70762  22.213  38.117   7.281
 5487POPC   NC370763  37.287  28.983   5.268
 5487POPC   PO470764  37.932  29.228   5.396
 5487POPC   GL170765  37.761  29.253   5.801
 5487POPC   GL270766  37.848  28.946   5.869
 5487POPC   C1A70767  37.533  29.363   6.189
 5487POPC   D2A70768  37.561  29.196   6.620
 5487POPC   C3A70769  37.673  29.399   7.007
 5487POPC   C4A70770  37.359  29.572   7.284
 5487POPC   C1B70771  38.012  29.191   6.234
 5487POPC   C2B70772  38.055  29.089   6.644
 5487POPC   C3B70773  37.953  28.968   7.046
 5487POPC   C4B70774  38.157  29.287   7.259
 5488POPC   NC370775  33.264  10.079   5.450
 5488POPC   PO470776  32.893   9.471   5.411
 5488POPC   GL170777  32.975   9.665   5.784
 5488POPC   GL270778  32.893  10.018   5.814
 5488POPC   C1A70779  33.057   9.634   6.217
 5488POPC   D2A70780  33.242   9.822   6.589
 5488POPC   C3A70781  33.236   9.647   6.992
 5488POPC   C4A70782  33.075   9.784   7.388
 5488POPC   C1B70783  32.690  10.005   6.225
 5488POPC   C2B70784  32.694   9.879   6.682
 5488POPC   C3B70785  32.698  10.035   7.128
 5488POPC   C4B70786  32.637   9.913   7.591
 5489POPC   NC370787  41.869  13.366   5.389
 5489POPC   PO470788  41.757  14.024   5.200
 5489POPC   GL170789  41.478  13.821   5.561
 5489POPC   GL270790  41.674  13.590   5.790
 5489POPC   C1A70791  41.322  13.829   6.037
 5489POPC   D2A70792  41.529  13.954   6.453
 5489POPC   C3A70793  41.472  13.772   6.886
 5489POPC   C4A70794  41.221  13.754   7.275
 5489POPC   C1B70795  41.593  13.379   6.178
 5489POPC   C2B70796  41.735  13.444   6.597
 5489POPC   C3B70797  41.675  13.278   6.991
 5489POPC   C4B70798  41.642  13.481   7.381
 5490POPC   NC370799   2.186  38.166   5.393
 5490POPC   PO470800   1.785  38.660   5.614
 5490POPC   GL170801   2.029  38.501   5.900
 5490POPC   GL270802   1.866  38.187   5.855
 5490POPC   C1A70803   2.135  38.651   6.321
 5490POPC   D2A70804   1.878  38.685   6.684
 5490POPC   C3A70805   2.016  38.634   7.103
 5490POPC   C4A70806   1.888  38.824   7.478
 5490POPC   C1B70807   2.080  38.154   6.262
 5490POPC   C2B70808   2.155  38.262   6.681
 5490POPC   C3B70809   2.281  38.211   7.095
 5490POPC   C4B70810   2.371  38.040   7.490
 5491POPC   NC370811   7.884  13.455   5.375
 5491POPC   PO470812   8.417  13.756   5.175
 5491POPC   GL170813   8.268  13.645   5.661
 5491POPC   GL270814   7.916  13.779   5.754
 5491POPC   C1A70815   8.408  13.570   6.113
 5491POPC   D2A70816   8.322  13.355   6.537
 5491POPC   C3A70817   8.332  13.599   6.926
 5491POPC   C4A70818   8.407  13.551   7.356
 5491POPC   C1B70819   7.903  13.481   6.113
 5491POPC   C2B70820   7.797  13.484   6.564
 5491POPC   C3B70821   7.842  13.451   7.039
 5491POPC   C4B70822   7.864  13.605   7.484
 5492POPC   NC370823  15.602   8.634   5.493
 5492POPC   PO470824  16.199   8.337   5.294
 5492POPC   GL170825  15.999   8.254   5.734
 5492POPC   GL270826  15.669   8.162   5.801
 5492POPC   C1A70827  15.945   8.089   6.209
 5492POPC   D2A70828  16.088   8.328   6.556
 5492POPC   C3A70829  16.037   8.421   6.972
 5492POPC   C4A70830  16.235   8.191   7.286
 5492POPC   C1B70831  15.419   8.265   6.165
 5492POPC   C2B70832  15.482   8.359   6.590
 5492POPC   C3B70833  15.586   8.174   6.974
 5492POPC   C4B70834  15.702   8.278   7.392
 5493POPC   NC370835  35.857  40.385   5.507
 5493POPC   PO470836  35.787  41.112   5.327
 5493POPC   GL170837  35.904  40.918   5.739
 5493POPC   GL270838  36.221  40.707   5.758
 5493POPC   C1A70839  35.992  40.934   6.198
 5493POPC   D2A70840  35.753  40.903   6.595
 5493POPC   C3A70841  35.958  40.982   6.993
 5493POPC   C4A70842  36.284  40.874   7.261
 5493POPC   C1B70843  36.313  40.516   6.170
 5493POPC   C2B70844  36.314  40.656   6.612
 5493POPC   C3B70845  36.371  40.436   7.012
 5493POPC   C4B70846  36.253  40.360   7.447
 5494POPC   NC370847  20.268  42.373   5.406
 5494POPC   PO470848  20.785  41.982   5.222
 5494POPC   GL170849  20.645  42.059   5.699
 5494POPC   GL270850  20.289  42.109   5.829
 5494POPC   C1A70851  20.601  42.072   6.187
 5494POPC   D2A70852  20.287  42.126   6.487
 5494POPC   C3A70853  20.471  42.187   6.894
 5494POPC   C4A70854  20.607  42.083   7.316
 5494POPC   C1B70855  20.231  42.487   6.106
 5494POPC   C2B70856  20.418  42.598   6.528
 5494POPC   C3B70857  20.233  42.642   6.926
 5494POPC   C4B70858  20.372  42.521   7.292
 5495POPC   NC370859  44.298  27.417   5.408
 5495POPC   PO470860  44.960  27.683   5.501
 5495POPC   GL170861  44.778  27.718   5.859
 5495POPC   GL270862  44.459  27.589   5.869
 5495POPC   C1A70863  44.843  27.582   6.248
 5495POPC   D2A70864  44.608  27.566   6.603
 5495POPC   C3A70865  44.892  27.588   6.909
 5495POPC   C4A70866  44.925  27.684   7.324
 5495POPC   C1B70867  44.421  27.271   6.208
 5495POPC   C2B70868  44.392  27.073   6.619
 5495POPC   C3B70869  44.551  27.221   7.018
 5495POPC   C4B70870  44.483  27.233   7.472
 5496POPC   NC370871  40.360  38.095   5.598
 5496POPC   PO470872  39.723  37.850   5.423
 5496POPC   GL170873  39.876  37.921   5.812
 5496POPC   GL270874  40.117  37.668   5.757
 5496POPC   C1A70875  39.947  37.730   6.229
 5496POPC   D2A70876  40.197  37.755   6.602
 5496POPC   C3A70877  40.223  37.779   7.041
 5496POPC   C4A70878  40.060  37.685   7.482
 5496POPC   C1B70879  40.204  37.325   6.023
 5496POPC   C2B70880  40.131  37.253   6.449
 5496POPC   C3B70881  40.054  37.328   6.877
 5496POPC   C4B70882  40.310  37.305   7.247
 5497POPC   NC370883  14.666  24.776   5.570
 5497POPC   PO470884  14.476  24.138   5.352
 5497POPC   GL170885  14.527  24.307   5.764
 5497POPC   GL270886  14.260  24.560   5.841
 5497POPC   C1A70887  14.590  24.444   6.191
 5497POPC   D2A70888  14.408  24.362   6.595
 5497POPC   C3A70889  14.454  24.644   6.891
 5497POPC   C4A70890  14.601  24.639   7.289
 5497POPC   C1B70891  14.060  24.360   6.186
 5497POPC   C2B70892  13.944  24.573   6.555
 5497POPC   C3B70893  13.970  24.409   6.938
 5497POPC   C4B70894  14.203  24.337   7.263
 5498POPC   NC370895   0.773   1.387   5.574
 5498POPC   PO470896   0.452   0.914   5.270
 5498POPC   GL170897   0.427   1.048   5.783
 5498POPC   GL270898   0.455   1.437   5.953
 5498POPC   C1A70899   0.388   1.068   6.260
 5498POPC   D2A70900   0.177   1.376   6.505
 5498POPC   C3A70901   0.315   1.378   6.925
 5498POPC   C4A70902   0.503   1.065   7.156
 5498POPC   C1B70903   0.805   1.398   6.244
 5498POPC   C2B70904   0.743   1.285   6.658
 5498POPC   C3B70905   0.817   1.486   7.028
 5498POPC   C4B70906   0.553   1.526   7.378
 5499POPC   NC370907  17.279  43.900   5.061
 5499POPC   PO470908  17.195  43.527   5.641
 5499POPC   GL170909  16.811  43.760   5.840
 5499POPC   GL270910  16.453  43.732   5.779
 5499POPC   C1A70911  16.778  43.973   6.246
 5499POPC   D2A70912  16.798  43.742   6.660
 5499POPC   C3A70913  16.936  43.929   7.054
 5499POPC   C4A70914  16.678  44.099   7.392
 5499POPC   C1B70915  16.353  43.673   6.255
 5499POPC   C2B70916  16.300  43.570   6.715
 5499POPC   C3B70917  16.521  43.608   7.129
 5499POPC   C4B70918  16.599  43.247   7.430
 5500POPC   NC370919  20.941  39.261   5.401
 5500POPC   PO470920  20.262  39.064   5.395
 5500POPC   GL170921  20.520  39.189   5.756
 5500POPC   GL270922  20.856  39.076   5.854
 5500POPC   C1A70923  20.583  39.382   6.168
 5500POPC   D2A70924  20.587  39.204   6.568
 5500POPC   C3A70925  20.739  39.292   6.973
 5500POPC   C4A70926  20.575  39.366   7.363
 5500POPC   C1B70927  20.964  38.972   6.286
 5500POPC   C2B70928  21.041  38.944   6.735
 5500POPC   C3B70929  21.073  38.951   7.192
 5500POPC   C4B70930  20.846  39.038   7.622
 5501POPC   NC370931   4.856  27.040   5.443
 5501POPC   PO470932   5.254  26.475   5.301
 5501POPC   GL170933   5.242  26.535   5.786
 5501POPC   GL270934   4.974  26.781   5.856
 5501POPC   C1A70935   5.233  26.662   6.269
 5501POPC   D2A70936   5.040  26.759   6.663
 5501POPC   C3A70937   5.310  26.994   6.918
 5501POPC   C4A70938   5.289  26.947   7.349
 5501POPC   C1B70939   4.749  26.893   6.235
 5501POPC   C2B70940   4.653  27.134   6.611
 5501POPC   C3B70941   4.818  27.155   7.026
 5501POPC   C4B70942   4.771  26.832   7.322
 5502POPC   NC370943  17.914   9.789   5.350
 5502POPC   PO470944  18.495   9.530   5.367
 5502POPC   GL170945  18.336   9.797   5.745
 5502POPC   GL270946  17.993   9.925   5.821
 5502POPC   C1A70947  18.201   9.646   6.185
 5502POPC   D2A70948  18.321   9.697   6.604
 5502POPC   C3A70949  18.478   9.404   6.890
 5502POPC   C4A70950  18.431   9.612   7.238
 5502POPC   C1B70951  17.819   9.976   6.201
 5502POPC   C2B70952  17.813   9.820   6.615
 5502POPC   C3B70953  18.035   9.954   6.997
 5502POPC   C4B70954  18.065   9.916   7.441
 5503POPC   NC370955  43.533  22.517   5.507
 5503POPC   PO470956  44.086  22.059   5.466
 5503POPC   GL170957  43.804  21.979   5.797
 5503POPC   GL270958  43.824  22.309   5.870
 5503POPC   C1A70959  43.866  21.978   6.247
 5503POPC   D2A70960  44.016  22.213   6.581
 5503POPC   C3A70961  43.805  22.164   6.960
 5503POPC   C4A70962  43.709  21.799   7.195
 5503POPC   C1B70963  43.744  22.554   6.217
 5503POPC   C2B70964  43.587  22.525   6.605
 5503POPC   C3B70965  43.429  22.530   6.985
 5503POPC   C4B70966  43.596  22.412   7.384
 5504POPC   NC370967  23.705  39.694   5.387
 5504POPC   PO470968  24.096  40.154   5.354
 5504POPC   GL170969  23.971  39.941   5.751
 5504POPC   GL270970  23.608  39.928   5.865
 5504POPC   C1A70971  23.979  39.737   6.150
 5504POPC   D2A70972  24.086  39.914   6.521
 5504POPC   C3A70973  23.894  39.802   6.885
 5504POPC   C4A70974  23.832  40.077   7.246
 5504POPC   C1B70975  23.444  39.947   6.340
 5504POPC   C2B70976  23.419  40.040   6.836
 5504POPC   C3B70977  23.356  39.962   7.306
 5504POPC   C4B70978  23.612  39.903   7.719
 5505POPC   NC370979  42.824  15.929   5.435
 5505POPC   PO470980  43.182  15.388   5.534
 5505POPC   GL170981  43.255  15.693   5.869
 5505POPC   GL270982  43.003  15.964   5.918
 5505POPC   C1A70983  43.166  15.687   6.324
 5505POPC   D2A70984  42.869  15.947   6.591
 5505POPC   C3A70985  42.949  15.860   7.025
 5505POPC   C4A70986  43.350  15.685   7.128
 5505POPC   C1B70987  43.246  16.196   6.248
 5505POPC   C2B70988  43.194  16.359   6.683
 5505POPC   C3B70989  43.060  16.356   7.140
 5505POPC   C4B70990  42.937  16.253   7.589
 5506POPC   NC370991  33.327  11.519   5.549
 5506POPC   PO470992  33.081  10.898   5.369
 5506POPC   GL170993  33.032  11.033   5.822
 5506POPC   GL270994  33.084  11.383   5.968
 5506POPC   C1A70995  32.750  11.070   6.178
 5506POPC   D2A70996  32.920  11.229   6.521
 5506POPC   C3A70997  32.858  11.078   6.899
 5506POPC   C4A70998  33.138  11.119   7.233
 5506POPC   C1B70999  33.143  11.644   6.326
 5506POPC   C2B71000  33.184  11.583   6.771
 5506POPC   C3B71001  32.934  11.565   7.113
 5506POPC   C4B71002  33.205  11.607   7.479
 5507POPC   NC371003  25.255  21.011   5.483
 5507POPC   PO471004  25.297  20.324   5.470
 5507POPC   GL171005  25.303  20.559   5.871
 5507POPC   GL271006  25.072  20.854   5.924
 5507POPC   C1A71007  25.341  20.439   6.318
 5507POPC   D2A71008  25.067  20.254   6.643
 5507POPC   C3A71009  25.227  20.442   7.008
 5507POPC   C4A71010  25.679  20.565   7.034
 5507POPC   C1B71011  25.384  20.938   6.251
 5507POPC   C2B71012  25.356  20.882   6.721
 5507POPC   C3B71013  25.040  21.083   6.979
 5507POPC   C4B71014  24.816  20.777   7.209
 5508POPC   NC371015   4.800  16.840   5.418
 5508POPC   PO471016   5.370  16.405   5.540
 5508POPC   GL171017   5.225  16.780   5.780
 5508POPC   GL271018   4.905  16.654   5.879
 5508POPC   C1A71019   5.109  16.996   6.191
 5508POPC   D2A71020   4.773  16.912   6.509
 5508POPC   C3A71021   4.972  16.841   6.894
 5508POPC   C4A71022   5.362  16.973   7.107
 5508POPC   C1B71023   5.127  16.440   6.203
 5508POPC   C2B71024   5.272  16.581   6.578
 5508POPC   C3B71025   5.285  16.430   6.986
 5508POPC   C4B71026   5.018  16.560   7.315
 5509POPC   NC371027   1.017  26.051   5.222
 5509POPC   PO471028   1.357  26.455   5.637
 5509POPC   GL171029   1.202  26.064   5.714
 5509POPC   GL271030   0.937  25.847   5.771
 5509POPC   C1A71031   1.324  25.916   6.121
 5509POPC   D2A71032   1.247  25.795   6.527
 5509POPC   C3A71033   1.466  25.931   6.873
 5509POPC   C4A71034   1.325  26.138   7.200
 5509POPC   C1B71035   0.852  26.131   6.120
 5509POPC   C2B71036   0.849  26.169   6.564
 5509POPC   C3B71037   0.923  25.944   6.944
 5509POPC   C4B71038   0.850  26.058   7.398
 5510POPC   NC371039  36.630  20.779   5.374
 5510POPC   PO471040  37.351  20.761   5.421
 5510POPC   GL171041  36.998  20.641   5.719
 5510POPC   GL271042  37.055  20.277   5.789
 5510POPC   C1A71043  36.685  20.769   6.060
 5510POPC   D2A71044  36.846  20.903   6.464
 5510POPC   C3A71045  36.718  20.777   6.870
 5510POPC   C4A71046  36.933  20.853   7.253
 5510POPC   C1B71047  37.040  20.440   6.214
 5510POPC   C2B71048  37.037  20.296   6.616
 5510POPC   C3B71049  37.067  20.410   7.034
 5510POPC   C4B71050  36.690  20.407   7.285
 5511POPC   NC371051   0.123   6.488   5.549
 5511POPC   PO471052   0.595   6.793   5.264
 5511POPC   GL171053   0.662   6.699   5.749
 5511POPC   GL271054   0.886   6.985   5.876
 5511POPC   C1A71055   0.486   6.446   6.156
 5511POPC   D2A71056   0.395   6.266   6.584
 5511POPC   C3A71057   0.405   6.479   7.011
 5511POPC   C4A71058   0.217   6.544   7.437
 5511POPC   C1B71059   0.943   6.676   6.220
 5511POPC   C2B71060   0.794   6.609   6.646
 5511POPC   C3B71061   0.674   6.917   6.959
 5511POPC   C4B71062   0.855   7.153   7.309
 5512POPC   NC371063   4.832  20.165   5.353
 5512POPC   PO471064   5.222  19.627   5.621
 5512POPC   GL171065   5.301  19.847   5.947
 5512POPC   GL271066   4.979  20.025   5.897
 5512POPC   C1A71067   5.517  19.675   6.307
 5512POPC   D2A71068   5.473  19.605   6.734
 5512POPC   C3A71069   5.110  19.843   6.808
 5512POPC   C4A71070   5.022  19.913   7.210
 5512POPC   C1B71071   4.959  19.768   6.297
 5512POPC   C2B71072   4.993  19.397   6.562
 5512POPC   C3B71073   4.867  19.432   7.000
 5512POPC   C4B71074   4.562  19.692   7.252
 5513POPC   NC371075  33.666   4.262   5.098
 5513POPC   PO471076  33.957   4.337   5.697
 5513POPC   GL171077  33.802   4.208   6.022
 5513POPC   GL271078  33.936   3.903   6.001
 5513POPC   C1A71079  33.813   4.324   6.403
 5513POPC   D2A71080  33.654   4.495   6.752
 5513POPC   C3A71081  33.895   4.550   7.101
 5513POPC   C4A71082  33.579   4.589   7.410
 5513POPC   C1B71083  33.663   3.832   6.347
 5513POPC   C2B71084  33.751   3.963   6.759
 5513POPC   C3B71085  33.638   4.074   7.147
 5513POPC   C4B71086  33.551   3.796   7.508
 5514POPC   NC371087  16.384   7.110   5.554
 5514POPC   PO471088  16.493   7.719   5.383
 5514POPC   GL171089  16.657   7.495   5.783
 5514POPC   GL271090  16.993   7.611   5.876
 5514POPC   C1A71091  16.774   7.216   6.142
 5514POPC   D2A71092  16.886   7.177   6.573
 5514POPC   C3A71093  16.538   7.377   6.802
 5514POPC   C4A71094  16.345   7.211   7.165
 5514POPC   C1B71095  16.834   7.698   6.295
 5514POPC   C2B71096  16.828   7.807   6.726
 5514POPC   C3B71097  16.933   7.580   7.106
 5514POPC   C4B71098  16.957   7.758   7.506
 5515POPC   NC371099  33.608  32.064   5.442
 5515POPC   PO471100  34.032  32.554   5.382
 5515POPC   GL171101  33.950  32.271   5.746
 5515POPC   GL271102  33.906  31.881   5.832
 5515POPC   C1A71103  33.741  32.299   6.137
 5515POPC   D2A71104  33.849  32.484   6.521
 5515POPC   C3A71105  33.759  32.262   6.888
 5515POPC   C4A71106  33.654  32.462   7.233
 5515POPC   C1B71107  33.632  31.798   6.212
 5515POPC   C2B71108  33.636  31.802   6.676
 5515POPC   C3B71109  33.488  31.840   7.097
 5515POPC   C4B71110  33.647  32.030   7.492
 5516POPC   NC371111  28.652   6.843   5.303
 5516POPC   PO471112  28.192   7.369   5.576
 5516POPC   GL171113  28.442   7.385   5.861
 5516POPC   GL271114  28.123   7.401   6.079
 5516POPC   C1A71115  28.596   7.467   6.234
 5516POPC   D2A71116  28.302   7.545   6.551
 5516POPC   C3A71117  28.425   7.727   6.912
 5516POPC   C4A71118  28.542   7.438   7.225
 5516POPC   C1B71119  28.258   7.065   6.294
 5516POPC   C2B71120  28.322   7.055   6.708
 5516POPC   C3B71121  28.120   7.306   6.983
 5516POPC   C4B71122  27.881   7.158   7.267
 5517POPC   NC371123   5.602  30.372   5.356
 5517POPC   PO471124   6.134  29.981   5.206
 5517POPC   GL171125   5.930  29.927   5.644
 5517POPC   GL271126   5.630  30.075   5.757
 5517POPC   C1A71127   5.932  29.941   6.137
 5517POPC   D2A71128   6.047  29.795   6.550
 5517POPC   C3A71129   5.847  29.874   6.954
 5517POPC   C4A71130   5.881  29.761   7.398
 5517POPC   C1B71131   5.485  30.211   6.164
 5517POPC   C2B71132   5.624  30.086   6.537
 5517POPC   C3B71133   5.402  30.149   6.888
 5517POPC   C4B71134   5.527  30.119   7.273
 5518POPC   NC371135  28.003  29.316   5.330
 5518POPC   PO471136  28.608  28.978   5.300
 5518POPC   GL171137  28.352  29.209   5.688
 5518POPC   GL271138  28.045  28.984   5.745
 5518POPC   C1A71139  28.063  29.343   6.088
 5518POPC   D2A71140  28.192  29.386   6.514
 5518POPC   C3A71141  27.993  29.195   6.866
 5518POPC   C4A71142  28.165  29.149   7.236
 5518POPC   C1B71143  28.167  28.844   6.180
 5518POPC   C2B71144  28.325  28.886   6.628
 5518POPC   C3B71145  28.363  28.649   7.034
 5518POPC   C4B71146  28.372  28.687   7.494
 5519POPC   NC371147  37.746   1.444   4.887
 5519POPC   PO471148  37.449   1.063   5.400
 5519POPC   GL171149  37.603   1.234   5.798
 5519POPC   GL271150  37.888   1.507   5.808
 5519POPC   C1A71151  37.562   1.011   6.187
 5519POPC   D2A71152  37.823   0.978   6.557
 5519POPC   C3A71153  37.557   1.145   6.847
 5519POPC   C4A71154  37.425   1.021   7.218
 5519POPC   C1B71155  37.832   1.414   6.267
 5519POPC   C2B71156  37.920   1.491   6.706
 5519POPC   C3B71157  37.885   1.431   7.148
 5519POPC   C4B71158  38.110   1.495   7.543
 5520POPC   NC371159  11.680   8.103   5.123
 5520POPC   PO471160  12.206   8.259   5.422
 5520POPC   GL171161  12.058   8.271   5.860
 5520POPC   GL271162  11.708   8.191   5.816
 5520POPC   C1A71163  12.060   8.035   6.242
 5520POPC   D2A71164  12.145   7.727   6.592
 5520POPC   C3A71165  12.187   8.004   6.949
 5520POPC   C4A71166  11.888   8.316   7.101
 5520POPC   C1B71167  11.552   8.127   6.263
 5520POPC   C2B71168  11.730   8.022   6.679
 5520POPC   C3B71169  11.688   7.852   7.122
 5520POPC   C4B71170  11.802   7.727   7.575
 5521POPC   NC371171  37.414  17.395   5.420
 5521POPC   PO471172  37.546  18.038   5.675
 5521POPC   GL171173  37.534  17.612   5.933
 5521POPC   GL271174  37.328  17.268   5.896
 5521POPC   C1A71175  37.832  17.536   6.322
 5521POPC   D2A71176  38.104  17.825   6.630
 5521POPC   C3A71177  37.903  17.843   7.059
 5521POPC   C4A71178  37.655  17.496   7.237
 5521POPC   C1B71179  37.341  17.374   6.348
 5521POPC   C2B71180  37.271  17.509   6.753
 5521POPC   C3B71181  37.176  17.335   7.140
 5521POPC   C4B71182  37.367  17.216   7.557
 5522POPC   NC371183  38.315  10.140   5.600
 5522POPC   PO471184  38.710  10.768   5.405
 5522POPC   GL171185  38.576  10.574   5.776
 5522POPC   GL271186  38.718  10.263   5.905
 5522POPC   C1A71187  38.338  10.702   6.143
 5522POPC   D2A71188  38.069  10.590   6.518
 5522POPC   C3A71189  38.231  10.613   6.956
 5522POPC   C4A71190  38.335  10.608   7.415
 5522POPC   C1B71191  38.464  10.238   6.301
 5522POPC   C2B71192  38.515  10.161   6.753
 5522POPC   C3B71193  38.495  10.198   7.194
 5522POPC   C4B71194  38.724  10.158   7.615
 5523POPC   NC371195  26.157  13.953   5.422
 5523POPC   PO471196  25.667  13.543   5.527
 5523POPC   GL171197  25.867  13.819   5.844
 5523POPC   GL271198  26.251  13.789   5.882
 5523POPC   C1A71199  25.936  13.696   6.282
 5523POPC   D2A71200  25.805  13.393   6.603
 5523POPC   C3A71201  25.925  13.481   7.034
 5523POPC   C4A71202  26.326  13.280   7.165
 5523POPC   C1B71203  26.439  13.837   6.283
 5523POPC   C2B71204  26.354  13.635   6.698
 5523POPC   C3B71205  26.314  13.794   7.108
 5523POPC   C4B71206  26.226  14.118   7.397
 5524POPC   NC371207  29.546  17.877   5.583
 5524POPC   PO471208  30.013  18.221   5.177
 5524POPC   GL171209  30.145  18.310   5.635
 5524POPC   GL271210  29.881  18.167   5.819
 5524POPC   C1A71211  30.250  18.314   6.119
 5524POPC   D2A71212  30.034  18.178   6.524
 5524POPC   C3A71213  30.167  18.285   6.953
 5524POPC   C4A71214  30.010  18.037   7.309
 5524POPC   C1B71215  29.680  18.310   6.187
 5524POPC   C2B71216  29.513  18.195   6.576
 5524POPC   C3B71217  29.657  18.228   6.986
 5524POPC   C4B71218  29.538  18.418   7.360
 5525POPC   NC371219  21.486  29.199   5.460
 5525POPC   PO471220  21.047  28.642   5.565
 5525POPC   GL171221  21.252  28.966   5.869
 5525POPC   GL271222  21.623  29.069   5.921
 5525POPC   C1A71223  21.245  29.240   6.238
 5525POPC   D2A71224  21.111  29.211   6.654
 5525POPC   C3A71225  21.431  29.162   6.947
 5525POPC   C4A71226  21.329  29.415   7.230
 5525POPC   C1B71227  21.722  29.417   6.212
 5525POPC   C2B71228  21.517  29.546   6.591
 5525POPC   C3B71229  21.687  29.643   6.984
 5525POPC   C4B71230  21.804  29.407   7.367
 5526POPC   NC371231   4.536   8.805   5.381
 5526POPC   PO471232   4.637   9.345   5.710
 5526POPC   GL171233   4.418   9.018   5.935
 5526POPC   GL271234   4.390   8.652   5.852
 5526POPC   C1A71235   4.245   9.082   6.348
 5526POPC   D2A71236   4.403   9.150   6.760
 5526POPC   C3A71237   4.071   9.159   7.061
 5526POPC   C4A71238   4.147   9.109   7.541
 5526POPC   C1B71239   4.377   8.597   6.315
 5526POPC   C2B71240   4.187   8.699   6.726
 5526POPC   C3B71241   4.227   8.712   7.189
 5526POPC   C4B71242   4.478   8.693   7.548
 5527POPC   NC371243  15.720   5.349   5.566
 5527POPC   PO471244  16.421   5.101   5.378
 5527POPC   GL171245  16.219   5.205   5.785
 5527POPC   GL271246  16.042   4.885   5.751
 5527POPC   C1A71247  16.065   5.431   6.216
 5527POPC   D2A71248  16.061   5.254   6.663
 5527POPC   C3A71249  15.773   5.371   6.989
 5527POPC   C4A71250  15.682   5.296   7.379
 5527POPC   C1B71251  16.059   4.930   6.208
 5527POPC   C2B71252  15.883   4.740   6.588
 5527POPC   C3B71253  15.751   4.842   6.993
 5527POPC   C4B71254  16.073   5.013   7.202
 5528POPC   NC371255   5.440  37.582   5.511
 5528POPC   PO471256   4.820  37.846   5.368
 5528POPC   GL171257   5.048  37.796   5.757
 5528POPC   GL271258   4.947  37.522   5.961
 5528POPC   C1A71259   5.264  37.886   6.164
 5528POPC   D2A71260   5.228  38.092   6.580
 5528POPC   C3A71261   5.141  37.785   6.893
 5528POPC   C4A71262   5.216  37.618   7.293
 5528POPC   C1B71263   4.701  37.303   6.251
 5528POPC   C2B71264   4.907  37.393   6.630
 5528POPC   C3B71265   4.869  37.325   7.050
 5528POPC   C4B71266   4.814  37.414   7.497
 5529POPC   NC371267  26.665  28.044   5.367
 5529POPC   PO471268  26.942  28.636   5.461
 5529POPC   GL171269  26.692  28.393   5.768
 5529POPC   GL271270  26.980  28.212   5.802
 5529POPC   C1A71271  26.694  28.170   6.220
 5529POPC   D2A71272  26.574  28.289   6.654
 5529POPC   C3A71273  26.596  28.152   7.077
 5529POPC   C4A71274  26.974  27.971   7.302
 5529POPC   C1B71275  26.995  28.591   6.122
 5529POPC   C2B71276  27.287  28.663   6.442
 5529POPC   C3B71277  27.152  28.593   6.840
 5529POPC   C4B71278  26.958  28.467   7.211
 5530POPC   NC371279  27.640  22.489   5.380
 5530POPC   PO471280  27.231  21.893   5.294
 5530POPC   GL171281  27.164  22.017   5.719
 5530POPC   GL271282  27.059  22.357   5.702
 5530POPC   C1A71283  27.333  22.040   6.163
 5530POPC   D2A71284  27.316  22.022   6.622
 5530POPC   C3A71285  27.671  22.061   6.919
 5530POPC   C4A71286  27.336  21.999   7.205
 5530POPC   C1B71287  27.251  22.559   6.076
 5530POPC   C2B71288  27.434  22.574   6.500
 5530POPC   C3B71289  27.366  22.469   6.929
 5530POPC   C4B71290  27.766  22.522   7.158
 5531POPC   NC371291   9.861   4.142   5.379
 5531POPC   PO471292   9.526   4.794   5.420
 5531POPC   GL171293   9.623   4.480   5.708
 5531POPC   GL271294   9.976   4.490   5.764
 5531POPC   C1A71295   9.667   4.292   6.132
 5531POPC   D2A71296   9.884   4.437   6.503
 5531POPC   C3A71297   9.627   4.456   6.891
 5531POPC   C4A71298   9.478   4.210   7.245
 5531POPC   C1B71299  10.147   4.103   5.994
 5531POPC   C2B71300  10.190   4.022   6.445
 5531POPC   C3B71301   9.935   4.022   6.831
 5531POPC   C4B71302   9.981   4.303   7.205
 5532POPC   NC371303  23.695  14.771   5.420
 5532POPC   PO471304  23.440  14.141   5.393
 5532POPC   GL171305  23.464  14.413   5.677
 5532POPC   GL271306  23.806  14.402   5.772
 5532POPC   C1A71307  23.396  14.404   6.111
 5532POPC   D2A71308  23.544  14.241   6.494
 5532POPC   C3A71309  23.487  14.412   6.904
 5532POPC   C4A71310  23.698  14.399   7.284
 5532POPC   C1B71311  23.910  14.142   6.145
 5532POPC   C2B71312  23.956  13.940   6.566
 5532POPC   C3B71313  23.998  14.110   6.981
 5532POPC   C4B71314  24.207  14.428   7.264
 5533POPC   NC371315  10.304  33.557   5.436
 5533POPC   PO471316  10.689  32.966   5.396
 5533POPC   GL171317  10.538  33.195   5.733
 5533POPC   GL271318  10.331  32.909   5.836
 5533POPC   C1A71319  10.676  33.166   6.144
 5533POPC   D2A71320  10.617  32.739   6.344
 5533POPC   C3A71321  10.715  32.727   6.787
 5533POPC   C4A71322  10.671  32.798   7.237
 5533POPC   C1B71323  10.190  33.034   6.248
 5533POPC   C2B71324  10.406  33.134   6.600
 5533POPC   C3B71325  10.554  33.206   6.974
 5533POPC   C4B71326  10.273  33.208   7.309
 5534POPC   NC371327  25.954   5.273   5.240
 5534POPC   PO471328  25.563   4.820   5.632
 5534POPC   GL171329  25.858   5.010   5.902
 5534POPC   GL271330  26.201   5.172   5.881
 5534POPC   C1A71331  25.991   4.880   6.298
 5534POPC   D2A71332  25.795   5.019   6.657
 5534POPC   C3A71333  25.851   5.416   6.862
 5534POPC   C4A71334  26.055   5.230   7.176
 5534POPC   C1B71335  26.436   5.150   6.287
 5534POPC   C2B71336  26.316   5.151   6.729
 5534POPC   C3B71337  26.342   4.822   7.037
 5534POPC   C4B71338  26.245   4.833   7.467
 5535POPC   NC371339  26.665   2.613   5.478
 5535POPC   PO471340  26.673   3.261   5.413
 5535POPC   GL171341  26.683   3.038   5.806
 5535POPC   GL271342  27.005   2.881   5.796
 5535POPC   C1A71343  26.714   2.770   6.196
 5535POPC   D2A71344  26.788   2.977   6.599
 5535POPC   C3A71345  26.713   2.708   6.927
 5535POPC   C4A71346  26.800   2.396   7.208
 5535POPC   C1B71347  27.187   2.954   6.235
 5535POPC   C2B71348  27.258   2.772   6.667
 5535POPC   C3B71349  27.166   2.738   7.121
 5535POPC   C4B71350  27.203   2.855   7.578
 5536POPC   NC371351  26.715  44.268   5.262
 5536POPC   PO471352  26.958  43.667   5.474
 5536POPC   GL171353  27.001  43.823   5.886
 5536POPC   GL271354  26.658  43.861   5.852
 5536POPC   C1A71355  27.158  43.820   6.341
 5536POPC   D2A71356  27.006  43.610   6.760
 5536POPC   C3A71357  27.011  43.780   7.165
 5536POPC   C4A71358  27.204  43.723   7.584
 5536POPC   C1B71359  26.684  44.007   6.245
 5536POPC   C2B71360  26.826  44.065   6.638
 5536POPC   C3B71361  26.934  44.280   6.962
 5536POPC   C4B71362  26.719  44.171   7.339
 5537POPC   NC371363  44.292   6.739   5.277
 5537POPC   PO471364  44.967   6.898   5.725
 5537POPC   GL171365  44.878   6.603   5.978
 5537POPC   GL271366  44.544   6.599   6.053
 5537POPC   C1A71367  44.966   6.462   6.347
 5537POPC   D2A71368  44.752   6.634   6.695
 5537POPC   C3A71369  44.817   6.595   7.111
 5537POPC   C4A71370  44.834   6.903   7.439
 5537POPC   C1B71371  44.304   6.593   6.425
 5537POPC   C2B71372  44.243   6.699   6.846
 5537POPC   C3B71373  44.362   6.770   7.254
 5537POPC   C4B71374  44.387   6.469   7.553
 5538POPC   NC371375  38.854  18.380   5.200
 5538POPC   PO471376  38.358  18.223   5.349
 5538POPC   GL171377  38.479  18.204   5.820
 5538POPC   GL271378  38.816  18.055   5.865
 5538POPC   C1A71379  38.338  18.259   6.285
 5538POPC   D2A71380  38.171  18.379   6.715
 5538POPC   C3A71381  38.359  18.129   7.022
 5538POPC   C4A71382  38.402  17.762   7.259
 5538POPC   C1B71383  38.850  18.306   6.262
 5538POPC   C2B71384  38.696  18.383   6.705
 5538POPC   C3B71385  38.866  18.277   7.127
 5538POPC   C4B71386  38.924  17.881   7.342
 5539POPC   NC371387  26.537   4.204   5.378
 5539POPC   PO471388  27.080   4.563   5.401
 5539POPC   GL171389  26.965   4.421   5.791
 5539POPC   GL271390  26.625   4.331   5.872
 5539POPC   C1A71391  27.070   4.288   6.196
 5539POPC   D2A71392  26.886   4.299   6.601
 5539POPC   C3A71393  27.101   4.006   6.834
 5539POPC   C4A71394  27.231   4.293   7.126
 5539POPC   C1B71395  26.593   4.069   6.268
 5539POPC   C2B71396  26.609   3.833   6.668
 5539POPC   C3B71397  26.402   3.984   7.036
 5539POPC   C4B71398  26.470   4.366   7.243
 5540POPC   NC371399  40.256  40.724   5.223
 5540POPC   PO471400  40.871  40.625   5.379
 5540POPC   GL171401  40.696  40.744   5.783
 5540POPC   GL271402  40.728  40.381   5.813
 5540POPC   C1A71403  40.678  40.955   6.223
 5540POPC   D2A71404  40.889  41.127   6.612
 5540POPC   C3A71405  40.753  40.939   6.982
 5540POPC   C4A71406  40.644  41.108   7.381
 5540POPC   C1B71407  40.904  40.423   6.194
 5540POPC   C2B71408  40.832  40.615   6.581
 5540POPC   C3B71409  40.939  40.449   6.975
 5540POPC   C4B71410  40.837  40.612   7.353
 5541POPC   NC371411  27.659   2.688   5.432
 5541POPC   PO471412  27.323   3.173   5.531
 5541POPC   GL171413  27.530   2.892   5.864
 5541POPC   GL271414  27.403   2.530   5.876
 5541POPC   C1A71415  27.744   3.017   6.232
 5541POPC   D2A71416  27.513   3.233   6.526
 5541POPC   C3A71417  27.589   3.123   6.907
 5541POPC   C4A71418  27.594   2.920   7.269
 5541POPC   C1B71419  27.592   2.513   6.306
 5541POPC   C2B71420  27.752   2.631   6.738
 5541POPC   C3B71421  27.587   2.435   7.135
 5541POPC   C4B71422  27.266   2.355   7.465
 5542POPC   NC371423  20.897  37.052   5.066
 5542POPC   PO471424  20.371  37.231   5.475
 5542POPC   GL171425  20.513  36.898   5.827
 5542POPC   GL271426  20.879  36.701   5.821
 5542POPC   C1A71427  20.525  36.811   6.295
 5542POPC   D2A71428  20.391  37.059   6.654
 5542POPC   C3A71429  20.528  37.041   7.044
 5542POPC   C4A71430  20.272  36.927   7.369
 5542POPC   C1B71431  21.030  36.872   6.236
 5542POPC   C2B71432  20.959  36.965   6.696
 5542POPC   C3B71433  21.037  37.025   7.158
 5542POPC   C4B71434  20.751  36.817   7.448
 5543POPC   NC371435  34.238  13.330   5.514
 5543POPC   PO471436  33.703  13.732   5.242
 5543POPC   GL171437  33.634  13.708   5.699
 5543POPC   GL271438  33.966  13.655   5.836
 5543POPC   C1A71439  33.511  13.526   6.132
 5543POPC   D2A71440  33.676  13.309   6.534
 5543POPC   C3A71441  33.683  13.610   6.913
 5543POPC   C4A71442  33.512  13.705   7.321
 5543POPC   C1B71443  33.825  13.982   6.141
 5543POPC   C2B71444  33.715  14.113   6.568
 5543POPC   C3B71445  33.797  14.137   7.004
 5543POPC   C4B71446  33.996  13.878   7.293
 5544POPC   NC371447   9.118  40.580   5.419
 5544POPC   PO471448   8.881  41.235   5.398
 5544POPC   GL171449   8.927  40.926   5.743
 5544POPC   GL271450   8.708  40.603   5.710
 5544POPC   C1A71451   9.183  40.825   6.133
 5544POPC   D2A71452   9.336  41.060   6.518
 5544POPC   C3A71453   9.185  40.926   6.930
 5544POPC   C4A71454   9.259  40.572   7.205
 5544POPC   C1B71455   8.688  40.726   6.144
 5544POPC   C2B71456   8.895  40.597   6.535
 5544POPC   C3B71457   8.755  40.657   6.944
 5544POPC   C4B71458   8.756  40.675   7.373
 5545POPC   NC371459  26.806  17.556   5.432
 5545POPC   PO471460  27.119  17.121   5.850
 5545POPC   GL171461  26.829  17.424   5.946
 5545POPC   GL271462  26.504  17.313   5.820
 5545POPC   C1A71463  26.915  17.683   6.316
 5545POPC   D2A71464  26.974  17.791   6.746
 5545POPC   C3A71465  27.026  17.428   6.999
 5545POPC   C4A71466  27.215  17.333   7.406
 5545POPC   C1B71467  26.402  17.514   6.205
 5545POPC   C2B71468  26.550  17.446   6.596
 5545POPC   C3B71469  26.374  17.416   6.955
 5545POPC   C4B71470  26.589  17.450   7.299
 5546POPC   NC371471   9.826  26.212   5.423
 5546POPC   PO471472   9.718  25.583   5.614
 5546POPC   GL171473   9.724  25.988   5.883
 5546POPC   GL271474   9.966  26.283   5.901
 5546POPC   C1A71475   9.718  26.110   6.331
 5546POPC   D2A71476   9.814  25.825   6.678
 5546POPC   C3A71477   9.838  25.951   7.113
 5546POPC   C4A71478   9.564  26.072   7.431
 5546POPC   C1B71479  10.167  26.360   6.286
 5546POPC   C2B71480  10.070  26.312   6.702
 5546POPC   C3B71481  10.201  26.330   7.100
 5546POPC   C4B71482  10.060  26.326   7.536
 5547POPC   NC371483  29.104   8.646   5.382
 5547POPC   PO471484  28.891   9.285   5.563
 5547POPC   GL171485  29.266   9.155   5.802
 5547POPC   GL271486  29.370   8.782   5.776
 5547POPC   C1A71487  29.279   9.195   6.250
 5547POPC   D2A71488  29.071   9.151   6.648
 5547POPC   C3A71489  29.323   9.240   7.009
 5547POPC   C4A71490  29.166   9.013   7.352
 5547POPC   C1B71491  29.543   8.719   6.151
 5547POPC   C2B71492  29.435   8.786   6.560
 5547POPC   C3B71493  29.336   8.726   6.964
 5547POPC   C4B71494  29.595   8.758   7.306
 5548POPC   NC371495  37.328  35.508   5.426
 5548POPC   PO471496  36.707  35.336   5.331
 5548POPC   GL171497  36.555  35.285   5.767
 5548POPC   GL271498  36.631  35.647   5.838
 5548POPC   C1A71499  36.701  35.151   6.195
 5548POPC   D2A71500  37.082  35.160   6.482
 5548POPC   C3A71501  36.981  35.111   6.915
 5548POPC   C4A71502  37.101  35.198   7.313
 5548POPC   C1B71503  36.905  35.619   6.202
 5548POPC   C2B71504  36.810  35.582   6.636
 5548POPC   C3B71505  36.902  35.601   7.064
 5548POPC   C4B71506  36.772  35.614   7.503
 5549POPC   NC371507  31.759  28.122   5.360
 5549POPC   PO471508  31.273  27.587   5.441
 5549POPC   GL171509  31.191  27.792   5.811
 5549POPC   GL271510  31.559  27.836   5.824
 5549POPC   C1A71511  31.187  27.620   6.232
 5549POPC   D2A71512  31.570  27.559   6.507
 5549POPC   C3A71513  31.590  27.417   6.940
 5549POPC   C4A71514  31.863  27.340   7.301
 5549POPC   C1B71515  31.521  28.012   6.234
 5549POPC   C2B71516  31.338  27.995   6.652
 5549POPC   C3B71517  31.593  27.931   7.029
 5549POPC   C4B71518  31.492  27.679   7.403
 5550POPC   NC371519  21.151  12.395   5.380
 5550POPC   PO471520  21.560  12.862   5.380
 5550POPC   GL171521  21.485  12.865   5.835
 5550POPC   GL271522  21.198  13.012   5.819
 5550POPC   C1A71523  21.597  12.941   6.289
 5550POPC   D2A71524  21.682  12.704   6.653
 5550POPC   C3A71525  21.511  12.851   6.976
 5550POPC   C4A71526  21.626  12.927   7.364
 5550POPC   C1B71527  21.074  12.758   6.184
 5550POPC   C2B71528  21.146  12.804   6.609
 5550POPC   C3B71529  21.015  12.693   7.024
 5550POPC   C4B71530  21.121  12.885   7.420
 5551POPC   NC371531  17.523   5.520   5.627
 5551POPC   PO471532  17.641   4.851   5.522
 5551POPC   GL171533  17.681   5.050   5.905
 5551POPC   GL271534  17.903   4.874   6.129
 5551POPC   C1A71535  17.382   5.129   6.252
 5551POPC   D2A71536  17.378   4.992   6.681
 5551POPC   C3A71537  17.542   5.304   7.004
 5551POPC   C4A71538  17.779   5.322   7.416
 5551POPC   C1B71539  17.548   4.639   6.270
 5551POPC   C2B71540  17.320   4.460   6.608
 5551POPC   C3B71541  17.320   4.591   6.997
 5551POPC   C4B71542  17.556   4.860   7.213
 5552POPC   NC371543  20.691  31.358   5.037
 5552POPC   PO471544  20.411  31.728   5.551
 5552POPC   GL171545  20.618  31.601   5.867
 5552POPC   GL271546  20.539  31.278   5.840
 5552POPC   C1A71547  20.542  31.548   6.284
 5552POPC   D2A71548  20.528  31.812   6.614
 5552POPC   C3A71549  20.377  31.595   6.931
 5552POPC   C4A71550  20.267  31.563   7.328
 5552POPC   C1B71551  20.653  31.035   6.158
 5552POPC   C2B71552  20.885  31.126   6.504
 5552POPC   C3B71553  20.731  31.042   6.892
 5552POPC   C4B71554  20.586  31.177   7.263
 5553POPC   NC371555  13.546  26.103   5.202
 5553POPC   PO471556  14.015  25.736   5.519
 5553POPC   GL171557  13.779  25.980   5.820
 5553POPC   GL271558  13.881  26.293   5.952
 5553POPC   C1A71559  13.587  25.979   6.247
 5553POPC   D2A71560  13.702  26.152   6.654
 5553POPC   C3A71561  13.483  26.049   7.031
 5553POPC   C4A71562  13.322  25.674   7.102
 5553POPC   C1B71563  13.664  26.507   6.275
 5553POPC   C2B71564  13.695  26.666   6.661
 5553POPC   C3B71565  13.810  26.441   7.056
 5553POPC   C4B71566  13.565  26.389   7.427
 5554POPC   NC371567  35.196  44.156   5.297
 5554POPC   PO471568  35.753  43.828   5.248
 5554POPC   GL171569  35.530  43.951   5.666
 5554POPC   GL271570  35.247  43.774   5.859
 5554POPC   C1A71571  35.503  44.153   6.088
 5554POPC   D2A71572  35.621  44.114   6.514
 5554POPC   C3A71573  35.336  43.922   6.788
 5554POPC   C4A71574  35.409  43.890   7.198
 5554POPC   C1B71575  35.102  43.881   6.327
 5554POPC   C2B71576  34.851  43.718   6.721
 5554POPC   C3B71577  35.005  43.565   7.157
 5554POPC   C4B71578  34.917  43.443   7.627
 5555POPC   NC371579  32.796   9.124   5.699
 5555POPC   PO471580  32.363   8.748   5.324
 5555POPC   GL171581  32.254   8.915   5.751
 5555POPC   GL271582  32.253   9.265   5.671
 5555POPC   C1A71583  32.378   8.983   6.183
 5555POPC   D2A71584  32.462   8.730   6.519
 5555POPC   C3A71585  32.495   8.928   6.881
 5555POPC   C4A71586  32.615   9.075   7.245
 5555POPC   C1B71587  32.058   9.358   6.054
 5555POPC   C2B71588  32.034   9.311   6.488
 5555POPC   C3B71589  32.006   9.315   6.946
 5555POPC   C4B71590  32.101   9.004   7.217
 5556POPC   NC371591  19.292  34.539   5.513
 5556POPC   PO471592  18.728  34.233   5.391
 5556POPC   GL171593  18.854  34.387   5.824
 5556POPC   GL271594  18.970  34.721   5.872
 5556POPC   C1A71595  18.850  34.437   6.293
 5556POPC   D2A71596  19.100  34.474   6.664
 5556POPC   C3A71597  19.303  34.273   6.973
 5556POPC   C4A71598  19.198  34.399   7.352
 5556POPC   C1B71599  18.887  34.985   6.241
 5556POPC   C2B71600  18.814  34.901   6.680
 5556POPC   C3B71601  18.914  34.717   7.081
 5556POPC   C4B71602  18.698  34.889   7.474
 5557POPC   NC371603  26.703   5.995   5.492
 5557POPC   PO471604  27.116   5.487   5.612
 5557POPC   GL171605  26.816   5.707   5.920
 5557POPC   GL271606  26.490   5.602   5.777
 5557POPC   C1A71607  26.761   5.977   6.333
 5557POPC   D2A71608  26.599   6.113   6.768
 5557POPC   C3A71609  26.800   5.900   7.151
 5557POPC   C4A71610  27.075   6.057   7.525
 5557POPC   C1B71611  26.389   5.645   6.197
 5557POPC   C2B71612  26.481   5.638   6.615
 5557POPC   C3B71613  26.372   5.608   7.024
 5557POPC   C4B71614  26.546   5.246   7.245
 5558POPC   NC371615  14.817  23.993   5.071
 5558POPC   PO471616  15.109  23.535   5.501
 5558POPC   GL171617  15.197  23.803   5.860
 5558POPC   GL271618  14.905  23.997   5.996
 5558POPC   C1A71619  15.247  23.812   6.320
 5558POPC   D2A71620  15.134  23.797   6.763
 5558POPC   C3A71621  15.421  23.693   7.105
 5558POPC   C4A71622  15.580  23.932   7.479
 5558POPC   C1B71623  14.800  23.584   6.215
 5558POPC   C2B71624  14.690  23.482   6.662
 5558POPC   C3B71625  14.866  23.544   7.090
 5558POPC   C4B71626  15.027  23.946   7.291
 5559POPC   NC371627   1.951   8.993   5.198
 5559POPC   PO471628   2.594   9.283   5.357
 5559POPC   GL171629   2.298   9.056   5.633
 5559POPC   GL271630   2.231   8.696   5.541
 5559POPC   C1A71631   2.048   9.152   6.005
 5559POPC   D2A71632   1.987   9.291   6.455
 5559POPC   C3A71633   2.217   9.214   6.834
 5559POPC   C4A71634   1.896   9.190   7.149
 5559POPC   C1B71635   2.061   8.644   5.942
 5559POPC   C2B71636   2.093   8.777   6.376
 5559POPC   C3B71637   1.976   8.760   6.803
 5559POPC   C4B71638   1.774   8.679   7.193
 5560POPC   NC371639  36.599  31.910   5.529
 5560POPC   PO471640  37.013  31.369   5.279
 5560POPC   GL171641  36.818  31.305   5.727
 5560POPC   GL271642  36.653  31.587   5.917
 5560POPC   C1A71643  36.880  31.215   6.191
 5560POPC   D2A71644  37.134  31.395   6.545
 5560POPC   C3A71645  36.999  31.477   6.967
 5560POPC   C4A71646  36.850  31.307   7.363
 5560POPC   C1B71647  36.871  31.780   6.282
 5560POPC   C2B71648  36.754  31.887   6.707
 5560POPC   C3B71649  36.783  31.955   7.129
 5560POPC   C4B71650  36.617  31.765   7.536
 5561POPC   NC371651   4.650  37.455   5.566
 5561POPC   PO471652   4.639  36.748   5.431
 5561POPC   GL171653   4.536  36.918   5.850
 5561POPC   GL271654   4.187  36.834   5.965
 5561POPC   C1A71655   4.572  36.780   6.287
 5561POPC   D2A71656   4.699  36.944   6.659
 5561POPC   C3A71657   4.592  36.864   7.054
 5561POPC   C4A71658   4.422  37.195   7.229
 5561POPC   C1B71659   4.133  36.989   6.439
 5561POPC   C2B71660   4.113  36.954   6.907
 5561POPC   C3B71661   3.782  36.798   7.211
 5561POPC   C4B71662   3.792  36.859   7.686
 5562POPC   NC371663  44.818  39.333   5.556
 5562POPC   PO471664  44.460  38.876   5.221
 5562POPC   GL171665  44.409  38.982   5.706
 5562POPC   GL271666  44.337  39.316   5.790
 5562POPC   C1A71667  44.525  39.007   6.199
 5562POPC   D2A71668  44.820  39.128   6.589
 5562POPC   C3A71669  44.661  39.117   7.039
 5562POPC   C4A71670  44.811  39.343   7.428
 5562POPC   C1B71671  44.372  39.500   6.236
 5562POPC   C2B71672  44.369  39.353   6.688
 5562POPC   C3B71673  44.264  39.449   7.145
 5562POPC   C4B71674  44.423  39.634   7.557
 5563POPC   NC371675  26.139  14.950   5.441
 5563POPC   PO471676  25.934  14.319   5.239
 5563POPC   GL171677  26.020  14.317   5.727
 5563POPC   GL271678  25.957  14.614   5.793
 5563POPC   C1A71679  25.943  14.227   6.189
 5563POPC   D2A71680  26.126  14.087   6.600
 5563POPC   C3A71681  25.920  14.091   6.976
 5563POPC   C4A71682  25.733  14.279   7.306
 5563POPC   C1B71683  26.036  14.761   6.187
 5563POPC   C2B71684  26.247  14.580   6.549
 5563POPC   C3B71685  26.057  14.604   6.978
 5563POPC   C4B71686  26.100  14.620   7.430
 5564POPC   NC371687  25.145  37.355   5.433
 5564POPC   PO471688  25.507  36.747   5.275
 5564POPC   GL171689  25.379  36.734   5.711
 5564POPC   GL271690  25.125  36.946   5.760
 5564POPC   C1A71691  25.377  36.907   6.186
 5564POPC   D2A71692  25.122  36.920   6.549
 5564POPC   C3A71693  25.270  36.945   6.960
 5564POPC   C4A71694  25.231  37.255   7.223
 5564POPC   C1B71695  25.012  36.568   6.043
 5564POPC   C2B71696  25.109  36.423   6.459
 5564POPC   C3B71697  25.072  36.466   6.902
 5564POPC   C4B71698  24.834  36.563   7.274
 5565POPC   NC371699  13.252   4.984   5.418
 5565POPC   PO471700  12.626   4.943   5.411
 5565POPC   GL171701  12.826   4.979   5.799
 5565POPC   GL271702  13.089   4.748   5.854
 5565POPC   C1A71703  12.824   5.171   6.207
 5565POPC   D2A71704  12.913   5.446   6.547
 5565POPC   C3A71705  12.788   5.196   6.892
 5565POPC   C4A71706  12.611   4.972   7.248
 5565POPC   C1B71707  13.188   4.817   6.292
 5565POPC   C2B71708  13.035   4.744   6.706
 5565POPC   C3B71709  13.139   4.931   7.124
 5565POPC   C4B71710  13.140   4.928   7.557
 5566POPC   NC371711  17.490   3.203   5.414
 5566POPC   PO471712  17.347   2.528   5.378
 5566POPC   GL171713  17.491   2.796   5.768
 5566POPC   GL271714  17.372   3.147   5.889
 5566POPC   C1A71715  17.400   2.680   6.202
 5566POPC   D2A71716  17.554   2.417   6.532
 5566POPC   C3A71717  17.581   2.701   6.844
 5566POPC   C4A71718  17.696   2.667   7.224
 5566POPC   C1B71719  17.556   3.215   6.271
 5566POPC   C2B71720  17.820   3.341   6.617
 5566POPC   C3B71721  17.749   3.227   7.039
 5566POPC   C4B71722  17.401   3.075   7.137
 5567POPC   NC371723  23.303  42.930   5.268
 5567POPC   PO471724  23.637  43.415   5.331
 5567POPC   GL171725  23.740  43.329   5.819
 5567POPC   GL271726  24.026  43.113   5.960
 5567POPC   C1A71727  23.718  43.273   6.325
 5567POPC   D2A71728  23.490  42.970   6.646
 5567POPC   C3A71729  23.434  43.091   7.104
 5567POPC   C4A71730  23.365  43.090   7.588
 5567POPC   C1B71731  24.256  43.229   6.352
 5567POPC   C2B71732  24.464  43.055   6.725
 5567POPC   C3B71733  24.298  43.033   7.133
 5567POPC   C4B71734  23.891  43.240   7.289
 5568POPC   NC371735  18.948  11.089   5.341
 5568POPC   PO471736  19.304  11.651   5.312
 5568POPC   GL171737  19.223  11.453   5.755
 5568POPC   GL271738  19.141  11.095   5.805
 5568POPC   C1A71739  19.056  11.424   6.207
 5568POPC   D2A71740  18.856  11.382   6.613
 5568POPC   C3A71741  19.057  11.533   6.988
 5568POPC   C4A71742  18.679  11.606   7.176
 5568POPC   C1B71743  18.916  10.914   6.140
 5568POPC   C2B71744  19.129  10.963   6.508
 5568POPC   C3B71745  19.126  11.028   6.924
 5568POPC   C4B71746  19.456  11.055   7.237
 5569POPC   NC371747   0.755  39.455   5.378
 5569POPC   PO471748   0.228  39.036   5.580
 5569POPC   GL171749   0.349  39.234   5.957
 5569POPC   GL271750   0.625  39.504   5.916
 5569POPC   C1A71751   0.341  39.192   6.410
 5569POPC   D2A71752   0.658  39.352   6.680
 5569POPC   C3A71753   0.588  39.323   7.105
 5569POPC   C4A71754   0.168  39.186   7.085
 5569POPC   C1B71755   0.818  39.176   6.182
 5569POPC   C2B71756   0.737  38.863   6.510
 5569POPC   C3B71757   0.579  38.840   6.926
 5569POPC   C4B71758   0.791  38.909   7.336
 5570POPC   NC371759  40.839  42.096   5.554
 5570POPC   PO471760  41.113  42.716   5.374
 5570POPC   GL171761  40.879  42.583   5.748
 5570POPC   GL271762  40.509  42.523   5.679
 5570POPC   C1A71763  40.881  42.370   6.183
 5570POPC   D2A71764  40.694  42.213   6.569
 5570POPC   C3A71765  40.970  42.130   6.937
 5570POPC   C4A71766  40.802  42.186   7.357
 5570POPC   C1B71767  40.381  42.462   6.120
 5570POPC   C2B71768  40.463  42.660   6.533
 5570POPC   C3B71769  40.447  42.490   6.946
 5570POPC   C4B71770  40.539  42.628   7.331
 5571POPC   NC371771  29.369  44.985   5.641
 5571POPC   PO471772  28.797  44.640   5.415
 5571POPC   GL171773  28.974  44.680   5.811
 5571POPC   GL271774  28.923   0.016   5.869
 5571POPC   C1A71775  29.129  44.545   6.216
 5571POPC   D2A71776  29.384  44.521   6.597
 5571POPC   C3A71777  29.212  44.599   6.998
 5571POPC   C4A71778  29.351  44.508   7.399
 5571POPC   C1B71779  28.970   0.088   6.301
 5571POPC   C2B71780  28.915  44.806   6.626
 5571POPC   C3B71781  28.745  44.820   7.021
 5571POPC   C4B71782  29.000  44.886   7.391
 5572POPC   NC371783  24.110  33.302   5.293
 5572POPC   PO471784  23.427  33.208   5.300
 5572POPC   GL171785  23.746  33.064   5.635
 5572POPC   GL271786  23.505  32.916   5.849
 5572POPC   C1A71787  23.974  32.947   6.068
 5572POPC   D2A71788  24.050  33.188   6.485
 5572POPC   C3A71789  23.973  33.049   6.947
 5572POPC   C4A71790  23.851  33.091   7.396
 5572POPC   C1B71791  23.493  33.125   6.239
 5572POPC   C2B71792  23.550  33.128   6.667
 5572POPC   C3B71793  23.429  33.305   7.044
 5572POPC   C4B71794  23.139  33.086   7.308
 5573POPC   NC371795   0.693  30.240   5.541
 5573POPC   PO471796   0.230  29.721   5.563
 5573POPC   GL171797   0.488  29.842   5.864
 5573POPC   GL271798   0.322  30.178   5.884
 5573POPC   C1A71799   0.410  29.659   6.269
 5573POPC   D2A71800   0.651  29.582   6.643
 5573POPC   C3A71801   0.559  29.890   6.966
 5573POPC   C4A71802   0.389  29.870   7.344
 5573POPC   C1B71803   0.480  30.169   6.273
 5573POPC   C2B71804   0.232  30.027   6.605
 5573POPC   C3B71805   0.147  30.213   7.022
 5573POPC   C4B71806   0.125  30.370   7.437
 5574POPC   NC371807  37.254  23.153   5.564
 5574POPC   PO471808  36.920  23.742   5.299
 5574POPC   GL171809  36.947  23.857   5.737
 5574POPC   GL271810  37.131  23.588   5.783
 5574POPC   C1A71811  36.687  23.777   6.124
 5574POPC   D2A71812  36.454  23.589   6.483
 5574POPC   C3A71813  36.611  23.640   6.903
 5574POPC   C4A71814  36.984  23.866   7.076
 5574POPC   C1B71815  37.171  23.606   6.192
 5574POPC   C2B71816  36.965  23.477   6.530
 5574POPC   C3B71817  37.104  23.400   6.903
 5574POPC   C4B71818  37.226  23.463   7.277
 5575POPC   NC371819  31.391  29.632   5.437
 5575POPC   PO471820  31.581  30.261   5.306
 5575POPC   GL171821  31.442  30.124   5.757
 5575POPC   GL271822  31.543  29.805   5.895
 5575POPC   C1A71823  31.246  30.051   6.213
 5575POPC   D2A71824  31.115  30.181   6.653
 5575POPC   C3A71825  31.480  30.065   6.891
 5575POPC   C4A71826  31.439  29.780   7.209
 5575POPC   C1B71827  31.749  29.705   6.308
 5575POPC   C2B71828  31.845  29.697   6.768
 5575POPC   C3B71829  31.847  29.484   7.165
 5575POPC   C4B71830  31.804  29.634   7.580
 5576POPC   NC371831  17.697  22.972   5.492
 5576POPC   PO471832  17.339  22.391   5.620
 5576POPC   GL171833  17.627  22.615   5.876
 5576POPC   GL271834  17.366  22.888   5.897
 5576POPC   C1A71835  17.736  22.876   6.242
 5576POPC   D2A71836  17.529  22.912   6.651
 5576POPC   C3A71837  17.794  22.827   6.994
 5576POPC   C4A71838  17.794  23.024   7.390
 5576POPC   C1B71839  17.297  23.200   6.268
 5576POPC   C2B71840  17.157  23.270   6.712
 5576POPC   C3B71841  17.325  23.143   7.145
 5576POPC   C4B71842  17.454  23.348   7.551
 5577POPC   NC371843  22.410  33.779   5.332
 5577POPC   PO471844  21.888  33.364   5.361
 5577POPC   GL171845  22.135  33.578   5.750
 5577POPC   GL271846  22.378  33.906   5.827
 5577POPC   C1A71847  22.240  33.626   6.223
 5577POPC   D2A71848  22.097  33.951   6.530
 5577POPC   C3A71849  22.063  33.788   6.946
 5577POPC   C4A71850  22.435  33.585   7.214
 5577POPC   C1B71851  22.543  34.043   6.269
 5577POPC   C2B71852  22.448  34.297   6.687
 5577POPC   C3B71853  22.422  34.081   7.109
 5577POPC   C4B71854  22.293  34.125   7.563
 5578POPC   NC371855  20.711   9.819   4.984
 5578POPC   PO471856  20.530  10.038   5.520
 5578POPC   GL171857  20.623   9.811   5.896
 5578POPC   GL271858  20.411  10.014   6.065
 5578POPC   C1A71859  20.535   9.584   6.297
 5578POPC   D2A71860  20.674   9.615   6.694
 5578POPC   C3A71861  20.349   9.706   6.963
 5578POPC   C4A71862  20.482   9.857   7.329
 5578POPC   C1B71863  20.638  10.115   6.442
 5578POPC   C2B71864  20.711  10.107   6.888
 5578POPC   C3B71865  20.931  10.093   7.278
 5578POPC   C4B71866  20.803  10.028   7.716
 5579POPC   NC371867  39.051  10.450   5.495
 5579POPC   PO471868  39.697  10.391   5.495
 5579POPC   GL171869  39.452  10.696   5.796
 5579POPC   GL271870  39.084  10.856   5.798
 5579POPC   C1A71871  39.387  10.838   6.241
 5579POPC   D2A71872  39.137  10.738   6.635
 5579POPC   C3A71873  39.370  10.556   6.969
 5579POPC   C4A71874  39.540  10.291   7.288
 5579POPC   C1B71875  38.876  10.665   6.188
 5579POPC   C2B71876  38.623  10.644   6.594
 5579POPC   C3B71877  38.743  10.675   7.039
 5579POPC   C4B71878  39.074  10.961   7.125
 5580POPC   NC371879  13.805  23.999   5.026
 5580POPC   PO471880  13.550  23.556   5.437
 5580POPC   GL171881  13.486  23.782   5.812
 5580POPC   GL271882  13.788  23.749   5.872
 5580POPC   C1A71883  13.401  23.651   6.237
 5580POPC   D2A71884  13.671  23.658   6.615
 5580POPC   C3A71885  13.509  23.797   6.975
 5580POPC   C4A71886  13.267  23.910   7.306
 5580POPC   C1B71887  13.950  23.849   6.221
 5580POPC   C2B71888  14.114  23.959   6.596
 5580POPC   C3B71889  14.066  23.903   7.008
 5580POPC   C4B71890  13.865  23.632   7.277
 5581POPC   NC371891  42.044  35.479   5.543
 5581POPC   PO471892  41.434  35.874   5.434
 5581POPC   GL171893  41.689  36.088   5.772
 5581POPC   GL271894  41.802  36.447   5.779
 5581POPC   C1A71895  41.498  35.982   6.186
 5581POPC   D2A71896  41.218  35.902   6.542
 5581POPC   C3A71897  41.487  35.903   6.897
 5581POPC   C4A71898  41.509  36.060   7.293
 5581POPC   C1B71899  41.588  36.486   6.157
 5581POPC   C2B71900  41.564  36.304   6.588
 5581POPC   C3B71901  41.621  36.507   6.993
 5581POPC   C4B71902  41.853  36.466   7.381
 5582POPC   NC371903  41.427  14.310   5.348
 5582POPC   PO471904  41.904  14.085   5.753
 5582POPC   GL171905  41.584  14.288   5.889
 5582POPC   GL271906  41.496  14.623   5.766
 5582POPC   C1A71907  41.593  14.489   6.276
 5582POPC   D2A71908  41.441  14.458   6.666
 5582POPC   C3A71909  41.720  14.236   6.909
 5582POPC   C4A71910  41.645  14.040   7.290
 5582POPC   C1B71911  41.176  14.739   6.112
 5582POPC   C2B71912  41.053  14.781   6.562
 5582POPC   C3B71913  41.159  14.722   7.013
 5582POPC   C4B71914  41.523  14.564   7.255
 5583POPC   NC371915  35.274   8.494   5.462
 5583POPC   PO471916  35.267   7.834   5.417
 5583POPC   GL171917  35.528   8.057   5.715
 5583POPC   GL271918  35.270   8.239   5.887
 5583POPC   C1A71919  35.603   8.007   6.189
 5583POPC   D2A71920  35.523   8.266   6.568
 5583POPC   C3A71921  35.502   8.110   7.014
 5583POPC   C4A71922  35.630   8.039   7.479
 5583POPC   C1B71923  35.053   8.163   6.234
 5583POPC   C2B71924  35.009   8.292   6.654
 5583POPC   C3B71925  34.982   8.131   7.048
 5583POPC   C4B71926  35.153   8.222   7.419
 5584POPC   NC371927   6.307  44.191   5.195
 5584POPC   PO471928   6.816  43.818   5.237
 5584POPC   GL171929   6.803  43.644   5.695
 5584POPC   GL271930   7.023  43.850   5.862
 5584POPC   C1A71931   6.605  43.674   6.136
 5584POPC   D2A71932   6.406  44.049   6.336
 5584POPC   C3A71933   6.434  44.072   6.790
 5584POPC   C4A71934   6.518  44.299   7.141
 5584POPC   C1B71935   6.928  44.071   6.206
 5584POPC   C2B71936   6.853  43.889   6.579
 5584POPC   C3B71937   6.968  44.143   6.916
 5584POPC   C4B71938   6.863  43.866   7.174
 5585POPC   NC371939  39.583  22.873   5.646
 5585POPC   PO471940  38.899  22.952   5.470
 5585POPC   GL171941  38.975  23.103   5.845
 5585POPC   GL271942  39.147  22.842   5.933
 5585POPC   C1A71943  39.169  23.275   6.186
 5585POPC   D2A71944  39.280  23.155   6.594
 5585POPC   C3A71945  39.023  23.241   6.895
 5585POPC   C4A71946  39.048  23.046   7.259
 5585POPC   C1B71947  39.382  22.781   6.271
 5585POPC   C2B71948  39.502  22.544   6.618
 5585POPC   C3B71949  39.225  22.521   6.927
 5585POPC   C4B71950  39.225  22.568   7.339
 5586POPC   NC371951   6.760  24.341   5.277
 5586POPC   PO471952   6.282  24.766   5.436
 5586POPC   GL171953   6.342  24.496   5.805
 5586POPC   GL271954   6.617  24.238   5.784
 5586POPC   C1A71955   6.570  24.607   6.182
 5586POPC   D2A71956   6.664  24.925   6.492
 5586POPC   C3A71957   6.655  24.644   6.841
 5586POPC   C4A71958   6.665  24.612   7.274
 5586POPC   C1B71959   6.768  24.014   6.159
 5586POPC   C2B71960   6.694  24.226   6.530
 5586POPC   C3B71961   6.807  24.162   6.950
 5586POPC   C4B71962   6.618  23.956   7.264
 5587POPC   NC371963  42.625  36.067   5.238
 5587POPC   PO471964  43.258  36.121   5.448
 5587POPC   GL171965  43.091  36.280   5.804
 5587POPC   GL271966  43.027  36.011   5.993
 5587POPC   C1A71967  43.077  36.455   6.226
 5587POPC   D2A71968  42.952  36.154   6.543
 5587POPC   C3A71969  43.097  36.265   6.931
 5587POPC   C4A71970  43.217  35.991   7.243
 5587POPC   C1B71971  42.795  35.750   6.237
 5587POPC   C2B71972  42.755  35.660   6.668
 5587POPC   C3B71973  42.817  35.718   7.099
 5587POPC   C4B71974  42.584  35.753   7.476
 5588POPC   NC371975  16.112  38.709   5.283
 5588POPC   PO471976  15.743  38.212   5.502
 5588POPC   GL171977  15.854  38.539   5.776
 5588POPC   GL271978  16.234  38.565   5.755
 5588POPC   C1A71979  15.994  38.360   6.182
 5588POPC   D2A71980  16.042  38.218   6.594
 5588POPC   C3A71981  16.153  38.294   6.996
 5588POPC   C4A71982  15.980  38.364   7.405
 5588POPC   C1B71983  16.146  38.828   6.095
 5588POPC   C2B71984  16.102  38.728   6.525
 5588POPC   C3B71985  16.031  38.765   6.950
 5588POPC   C4B71986  16.334  38.693   7.277
 5589POPC   NC371987  11.324   3.458   5.363
 5589POPC   PO471988  10.941   4.005   5.388
 5589POPC   GL171989  11.065   3.670   5.735
 5589POPC   GL271990  11.452   3.750   5.752
 5589POPC   C1A71991  11.040   3.508   6.180
 5589POPC   D2A71992  11.076   3.725   6.593
 5589POPC   C3A71993  10.992   3.549   6.985
 5589POPC   C4A71994  11.249   3.337   7.205
 5589POPC   C1B71995  11.548   3.462   6.068
 5589POPC   C2B71996  11.505   3.445   6.509
 5589POPC   C3B71997  11.643   3.257   6.890
 5589POPC   C4B71998  11.737   3.493   7.269
 5590POPC   NC371999  13.561   6.444   5.248
 5590POPC   PO472000  13.356   7.014   5.450
 5590POPC   GL172001  13.603   6.747   5.700
 5590POPC   GL272002  13.686   6.389   5.811
 5590POPC   C1A72003  13.669   6.777   6.135
 5590POPC   D2A72004  13.497   6.952   6.485
 5590POPC   C3A72005  13.569   6.674   6.821
 5590POPC   C4A72006  13.598   6.788   7.231
 5590POPC   C1B72007  13.960   6.372   6.232
 5590POPC   C2B72008  14.136   6.402   6.670
 5590POPC   C3B72009  13.956   6.325   7.092
 5590POPC   C4B72010  13.525   6.240   7.238
 5591POPC   NC372011  22.275  14.026   5.207
 5591POPC   PO472012  22.494  13.395   5.325
 5591POPC   GL172013  22.520  13.627   5.726
 5591POPC   GL272014  22.198  13.504   5.826
 5591POPC   C1A72015  22.454  13.955   6.077
 5591POPC   D2A72016  22.077  13.925   6.341
 5591POPC   C3A72017  22.083  13.948   6.804
 5591POPC   C4A72018  21.822  13.813   7.117
 5591POPC   C1B72019  22.386  13.478   6.228
 5591POPC   C2B72020  22.249  13.514   6.646
 5591POPC   C3B72021  22.288  13.454   7.079
 5591POPC   C4B72022  22.396  13.328   7.501
 5592POPC   NC372023   5.735  23.086   5.537
 5592POPC   PO472024   6.142  22.596   5.462
 5592POPC   GL172025   6.030  22.764   5.900
 5592POPC   GL272026   5.914  23.137   5.993
 5592POPC   C1A72027   5.974  22.818   6.364
 5592POPC   D2A72028   6.029  23.223   6.544
 5592POPC   C3A72029   6.254  23.087   6.890
 5592POPC   C4A72030   6.310  22.969   7.309
 5592POPC   C1B72031   5.551  22.800   6.102
 5592POPC   C2B72032   5.496  22.647   6.521
 5592POPC   C3B72033   5.766  22.879   6.820
 5592POPC   C4B72034   5.822  23.068   7.185
 5593POPC   NC372035  35.291  17.932   5.274
 5593POPC   PO472036  35.824  17.578   5.477
 5593POPC   GL172037  35.496  17.612   5.785
 5593POPC   GL272038  35.453  17.234   5.836
 5593POPC   C1A72039  35.455  17.703   6.252
 5593POPC   D2A72040  35.743  17.607   6.633
 5593POPC   C3A72041  35.612  17.576   7.084
 5593POPC   C4A72042  35.310  17.658   7.411
 5593POPC   C1B72043  35.467  17.175   6.299
 5593POPC   C2B72044  35.313  17.293   6.732
 5593POPC   C3B72045  35.230  17.208   7.167
 5593POPC   C4B72046  35.458  17.213   7.564
 5594POPC   NC372047  30.519  25.851   5.355
 5594POPC   PO472048  30.893  25.229   5.179
 5594POPC   GL172049  30.867  25.355   5.669
 5594POPC   GL272050  30.510  25.371   5.820
 5594POPC   C1A72051  30.904  25.262   6.151
 5594POPC   D2A72052  30.910  25.389   6.608
 5594POPC   C3A72053  30.799  25.099   6.939
 5594POPC   C4A72054  30.923  24.988   7.348
 5594POPC   C1B72055  30.361  25.285   6.272
 5594POPC   C2B72056  30.387  25.356   6.734
 5594POPC   C3B72057  30.241  25.633   7.099
 5594POPC   C4B72058  30.497  25.714   7.522
 5595POPC   NC372059  36.395   9.226   5.303
 5595POPC   PO472060  35.883   9.656   5.232
 5595POPC   GL172061  35.875   9.576   5.696
 5595POPC   GL272062  36.116   9.359   5.744
 5595POPC   C1A72063  36.075   9.707   6.107
 5595POPC   D2A72064  36.228   9.476   6.472
 5595POPC   C3A72065  36.120   9.693   6.858
 5595POPC   C4A72066  36.301   9.878   7.221
 5595POPC   C1B72067  35.867   9.244   6.141
 5595POPC   C2B72068  35.772   9.130   6.580
 5595POPC   C3B72069  35.736   9.364   6.952
 5595POPC   C4B72070  35.875   9.588   7.312
 5596POPC   NC372071  25.738  33.134   5.622
 5596POPC   PO472072  26.434  33.288   5.462
 5596POPC   GL172073  26.180  33.218   5.851
 5596POPC   GL272074  26.281  32.865   5.914
 5596POPC   C1A72075  25.901  33.390   6.246
 5596POPC   D2A72076  25.628  33.398   6.640
 5596POPC   C3A72077  25.868  33.273   6.976
 5596POPC   C4A72078  25.926  33.463   7.357
 5596POPC   C1B72079  25.992  32.896   6.223
 5596POPC   C2B72080  25.836  32.930   6.591
 5596POPC   C3B72081  25.964  32.779   6.971
 5596POPC   C4B72082  26.121  32.976   7.345
 5597POPC   NC372083  12.489  23.097   5.475
 5597POPC   PO472084  12.028  22.611   5.427
 5597POPC   GL172085  12.166  22.811   5.809
 5597POPC   GL272086  11.880  23.012   5.919
 5597POPC   C1A72087  12.142  22.761   6.279
 5597POPC   D2A72088  12.295  22.941   6.648
 5597POPC   C3A72089  12.282  22.868   7.092
 5597POPC   C4A72090  12.009  22.640   7.351
 5597POPC   C1B72091  12.058  23.264   6.238
 5597POPC   C2B72092  11.839  23.165   6.598
 5597POPC   C3B72093  11.789  22.920   6.954
 5597POPC   C4B72094  11.866  23.139   7.327
 5598POPC   NC372095  35.608  18.713   5.234
 5598POPC   PO472096  35.283  19.294   5.114
 5598POPC   GL172097  35.304  19.112   5.589
 5598POPC   GL272098  35.592  19.122   5.772
 5598POPC   C1A72099  35.139  19.048   6.088
 5598POPC   D2A72100  34.937  19.083   6.550
 5598POPC   C3A72101  35.094  19.080   6.995
 5598POPC   C4A72102  35.444  18.803   7.092
 5598POPC   C1B72103  35.609  19.215   6.219
 5598POPC   C2B72104  35.477  19.157   6.644
 5598POPC   C3B72105  35.554  19.309   7.048
 5598POPC   C4B72106  35.576  19.121   7.471
 5599POPC   NC372107   3.843  10.914   5.258
 5599POPC   PO472108   4.474  11.348   5.360
 5599POPC   GL172109   4.280  11.352   5.743
 5599POPC   GL272110   4.234  10.977   5.709
 5599POPC   C1A72111   4.346  11.554   6.160
 5599POPC   D2A72112   4.548  11.710   6.534
 5599POPC   C3A72113   4.382  11.517   6.885
 5599POPC   C4A72114   4.302  11.329   7.255
 5599POPC   C1B72115   4.486  11.057   6.096
 5599POPC   C2B72116   4.612  11.183   6.517
 5599POPC   C3B72117   4.439  11.011   6.879
 5599POPC   C4B72118   4.050  10.950   6.995
 5600POPC   NC372119  21.687  30.158   5.529
 5600POPC   PO472120  21.244  29.619   5.485
 5600POPC   GL172121  21.463  29.827   5.860
 5600POPC   GL272122  21.836  29.748   5.839
 5600POPC   C1A72123  21.306  30.172   6.154
 5600POPC   D2A72124  21.110  30.223   6.570
 5600POPC   C3A72125  21.081  29.838   6.844
 5600POPC   C4A72126  21.165  29.882   7.294
 5600POPC   C1B72127  21.866  30.022   6.202
 5600POPC   C2B72128  21.601  30.051   6.568
 5600POPC   C3B72129  21.490  30.133   6.984
 5600POPC   C4B72130  21.678  30.001   7.376
 5601POPC   NC372131  38.262   3.280   5.401
 5601POPC   PO472132  38.183   3.884   5.210
 5601POPC   GL172133  38.228   3.741   5.705
 5601POPC   GL272134  38.244   3.404   5.898
 5601POPC   C1A72135  38.327   3.899   6.158
 5601POPC   D2A72136  38.528   3.929   6.602
 5601POPC   C3A72137  38.495   3.749   7.035
 5601POPC   C4A72138  38.838   3.684   7.332
 5601POPC   C1B72139  38.457   3.436   6.330
 5601POPC   C2B72140  38.715   3.402   6.700
 5601POPC   C3B72141  38.726   3.248   7.100
 5601POPC   C4B72142  38.737   3.230   7.568
 5602POPC   NC372143  24.598  35.031   5.454
 5602POPC   PO472144  24.262  35.621   5.453
 5602POPC   GL172145  24.416  35.374   5.804
 5602POPC   GL272146  24.224  35.049   5.783
 5602POPC   C1A72147  24.612  35.467   6.223
 5602POPC   D2A72148  24.694  35.725   6.603
 5602POPC   C3A72149  24.493  35.539   6.966
 5602POPC   C4A72150  24.645  35.251   7.276
 5602POPC   C1B72151  24.413  34.953   6.194
 5602POPC   C2B72152  24.407  35.131   6.630
 5602POPC   C3B72153  24.251  34.994   7.048
 5602POPC   C4B72154  24.239  35.028   7.502
 5603POPC   NC372155  42.567   0.788   5.543
 5603POPC   PO472156  42.344   0.090   5.472
 5603POPC   GL172157  42.251   0.257   5.869
 5603POPC   GL272158  42.375   0.566   5.973
 5603POPC   C1A72159  42.045   0.162   6.259
 5603POPC   D2A72160  41.971  44.930   6.625
 5603POPC   C3A72161  41.962   0.194   6.993
 5603POPC   C4A72162  42.205   0.556   7.124
 5603POPC   C1B72163  42.552   0.271   6.295
 5603POPC   C2B72164  42.486   0.293   6.750
 5603POPC   C3B72165  42.688   0.639   6.970
 5603POPC   C4B72166  42.633   0.766   7.380
 5604POPC   NC372167  28.215   8.337   5.493
 5604POPC   PO472168  28.420   7.725   5.239
 5604POPC   GL172169  28.451   7.904   5.690
 5604POPC   GL272170  28.131   7.836   5.761
 5604POPC   C1A72171  28.599   8.242   6.045
 5604POPC   D2A72172  28.709   8.494   6.434
 5604POPC   C3A72173  28.636   8.334   6.866
 5604POPC   C4A72174  28.399   8.491   7.220
 5604POPC   C1B72175  28.279   7.877   6.174
 5604POPC   C2B72176  28.288   8.116   6.530
 5604POPC   C3B72177  28.133   8.151   6.921
 5604POPC   C4B72178  28.235   7.988   7.314
 5605POPC   NC372179  31.142   0.508   5.514
 5605POPC   PO472180  31.824   0.482   5.609
 5605POPC   GL172181  31.424   0.475   5.942
 5605POPC   GL272182  31.108   0.750   5.942
 5605POPC   C1A72183  31.447   0.290   6.385
 5605POPC   D2A72184  31.797   0.353   6.682
 5605POPC   C3A72185  31.679   0.494   7.083
 5605POPC   C4A72186  31.460   0.281   7.441
 5605POPC   C1B72187  31.227   0.775   6.351
 5605POPC   C2B72188  31.150   0.594   6.733
 5605POPC   C3B72189  31.229   0.669   7.167
 5605POPC   C4B72190  31.116   0.799   7.570
 5606POPC   NC372191  15.762  26.989   5.359
 5606POPC   PO472192  16.342  26.784   5.453
 5606POPC   GL172193  16.018  26.817   5.775
 5606POPC   GL272194  16.017  27.182   5.801
 5606POPC   C1A72195  15.748  26.916   6.159
 5606POPC   D2A72196  15.533  26.812   6.545
 5606POPC   C3A72197  15.678  26.790   6.992
 5606POPC   C4A72198  15.816  26.413   7.252
 5606POPC   C1B72199  16.156  27.219   6.265
 5606POPC   C2B72200  15.938  27.113   6.665
 5606POPC   C3B72201  15.904  27.245   7.098
 5606POPC   C4B72202  16.140  27.516   7.407
 5607POPC   NC372203  10.982  33.321   5.485
 5607POPC   PO472204  11.462  32.841   5.479
 5607POPC   GL172205  11.124  32.895   5.809
 5607POPC   GL272206  11.286  33.170   5.880
 5607POPC   C1A72207  11.096  32.917   6.285
 5607POPC   D2A72208  10.948  33.214   6.606
 5607POPC   C3A72209  11.048  33.099   7.040
 5607POPC   C4A72210  11.060  33.369   7.384
 5607POPC   C1B72211  11.389  33.376   6.257
 5607POPC   C2B72212  11.348  33.598   6.622
 5607POPC   C3B72213  11.460  33.368   6.909
 5607POPC   C4B72214  11.550  33.265   7.268
 5608POPC   NC372215  29.688  36.054   5.476
 5608POPC   PO472216  28.955  36.141   5.456
 5608POPC   GL172217  28.995  36.267   5.841
 5608POPC   GL272218  29.361  36.220   5.846
 5608POPC   C1A72219  29.010  36.111   6.248
 5608POPC   D2A72220  29.169  36.259   6.632
 5608POPC   C3A72221  29.000  35.985   6.914
 5608POPC   C4A72222  28.861  36.020   7.315
 5608POPC   C1B72223  29.519  36.085   6.248
 5608POPC   C2B72224  29.338  35.781   6.550
 5608POPC   C3B72225  29.460  35.704   6.957
 5608POPC   C4B72226  29.449  35.904   7.339
 5609POPC   NC372227   8.344  44.534   5.404
 5609POPC   PO472228   7.852   0.019   5.529
 5609POPC   GL172229   8.057  44.700   5.805
 5609POPC   GL272230   8.395  44.798   5.849
 5609POPC   C1A72231   8.143  44.559   6.247
 5609POPC   D2A72232   8.041  44.443   6.683
 5609POPC   C3A72233   8.275  44.517   7.043
 5609POPC   C4A72234   8.128  44.608   7.460
 5609POPC   C1B72235   8.500  44.955   6.247
 5609POPC   C2B72236   8.421  44.804   6.628
 5609POPC   C3B72237   8.489  44.991   6.985
 5609POPC   C4B72238   8.625  44.757   7.339
 5610POPC   NC372239   9.992   4.914   5.414
 5610POPC   PO472240   9.624   5.408   5.178
 5610POPC   GL172241   9.683   5.219   5.667
 5610POPC   GL272242   9.708   5.513   5.767
 5610POPC   C1A72243   9.785   4.902   6.061
 5610POPC   D2A72244   9.812   4.965   6.543
 5610POPC   C3A72245  10.062   4.735   6.878
 5610POPC   C4A72246   9.778   4.826   7.220
 5610POPC   C1B72247   9.730   5.393   6.214
 5610POPC   C2B72248   9.425   5.358   6.557
 5610POPC   C3B72249   9.474   5.150   6.945
 5610POPC   C4B72250   9.773   5.363   7.231
 5611POPC   NC372251  29.607   1.575   5.492
 5611POPC   PO472252  30.206   1.896   5.299
 5611POPC   GL172253  30.169   2.019   5.720
 5611POPC   GL272254  29.804   2.001   5.778
 5611POPC   C1A72255  30.150   1.804   6.131
 5611POPC   D2A72256  30.274   1.866   6.556
 5611POPC   C3A72257  29.951   1.749   6.837
 5611POPC   C4A72258  29.853   1.590   7.242
 5611POPC   C1B72259  29.584   2.008   6.192
 5611POPC   C2B72260  29.656   2.139   6.655
 5611POPC   C3B72261  29.712   2.083   7.144
 5611POPC   C4B72262  29.652   2.098   7.609
 5612POPC   NC372263  38.343  19.957   5.296
 5612POPC   PO472264  37.833  19.760   5.546
 5612POPC   GL172265  38.167  19.984   5.818
 5612POPC   GL272266  38.537  19.939   5.827
 5612POPC   C1A72267  38.290  19.989   6.304
 5612POPC   D2A72268  38.423  19.685   6.679
 5612POPC   C3A72269  38.579  19.810   7.117
 5612POPC   C4A72270  38.356  20.130   7.326
 5612POPC   C1B72271  38.758  19.784   6.249
 5612POPC   C2B72272  38.914  19.517   6.599
 5612POPC   C3B72273  38.947  19.414   7.054
 5612POPC   C4B72274  38.866  19.519   7.485
 5613POPC   NC372275  30.705  24.864   5.406
 5613POPC   PO472276  30.957  24.223   5.265
 5613POPC   GL172277  30.794  24.446   5.694
 5613POPC   GL272278  30.462  24.331   5.804
 5613POPC   C1A72279  30.738  24.681   6.131
 5613POPC   D2A72280  31.058  24.834   6.465
 5613POPC   C3A72281  31.026  24.638   6.878
 5613POPC   C4A72282  30.676  24.569   7.125
 5613POPC   C1B72283  30.589  24.184   6.235
 5613POPC   C2B72284  30.684  24.289   6.673
 5613POPC   C3B72285  30.576  24.059   7.078
 5613POPC   C4B72286  30.637  24.114   7.534
 5614POPC   NC372287  18.154  19.675   5.322
 5614POPC   PO472288  17.974  20.256   5.516
 5614POPC   GL172289  18.204  19.972   5.791
 5614POPC   GL272290  18.231  19.602   5.839
 5614POPC   C1A72291  18.374  19.930   6.217
 5614POPC   D2A72292  18.170  19.714   6.541
 5614POPC   C3A72293  18.235  19.554   6.931
 5614POPC   C4A72294  18.170  19.668   7.338
 5614POPC   C1B72295  18.475  19.429   6.240
 5614POPC   C2B72296  18.665  19.338   6.709
 5614POPC   C3B72297  18.614  19.370   7.221
 5614POPC   C4B72298  18.537  19.502   7.664
 5615POPC   NC372299  41.908   8.276   5.408
 5615POPC   PO472300  41.349   8.545   5.237
 5615POPC   GL172301  41.504   8.426   5.717
 5615POPC   GL272302  41.881   8.364   5.895
 5615POPC   C1A72303  41.492   8.387   6.197
 5615POPC   D2A72304  41.664   8.053   6.499
 5615POPC   C3A72305  41.568   8.092   6.952
 5615POPC   C4A72306  41.754   7.929   7.341
 5615POPC   C1B72307  41.997   8.439   6.343
 5615POPC   C2B72308  41.791   8.505   6.738
 5615POPC   C3B72309  41.917   8.381   7.164
 5615POPC   C4B72310  41.936   8.417   7.597
 5616POPC   NC372311   5.357  18.633   5.378
 5616POPC   PO472312   4.939  18.074   5.396
 5616POPC   GL172313   5.102  18.346   5.717
 5616POPC   GL272314   4.870  18.234   5.895
 5616POPC   C1A72315   5.223  18.492   6.166
 5616POPC   D2A72316   5.348  18.292   6.576
 5616POPC   C3A72317   5.221  18.528   6.916
 5616POPC   C4A72318   5.073  18.451   7.292
 5616POPC   C1B72319   5.064  18.014   6.207
 5616POPC   C2B72320   4.919  17.964   6.591
 5616POPC   C3B72321   5.107  18.000   6.975
 5616POPC   C4B72322   4.918  17.963   7.363
 5617POPC   NC372323  29.529   6.961   5.417
 5617POPC   PO472324  28.916   7.225   5.470
 5617POPC   GL172325  29.111   7.402   5.870
 5617POPC   GL272326  29.455   7.275   5.959
 5617POPC   C1A72327  29.082   7.412   6.342
 5617POPC   D2A72328  28.791   7.431   6.702
 5617POPC   C3A72329  29.006   7.383   7.028
 5617POPC   C4A72330  28.997   7.623   7.363
 5617POPC   C1B72331  29.472   7.695   6.157
 5617POPC   C2B72332  29.334   7.847   6.572
 5617POPC   C3B72333  29.393   7.718   7.031
 5617POPC   C4B72334  29.430   7.879   7.447
 5618POPC   NC372335  35.839  18.024   5.535
 5618POPC   PO472336  35.198  18.357   5.454
 5618POPC   GL172337  35.295  18.138   5.807
 5618POPC   GL272338  35.043  17.878   5.765
 5618POPC   C1A72339  35.248  18.377   6.214
 5618POPC   D2A72340  35.259  18.641   6.599
 5618POPC   C3A72341  35.269  18.340   6.931
 5618POPC   C4A72342  35.518  18.083   7.203
 5618POPC   C1B72343  34.894  18.012   6.166
 5618POPC   C2B72344  35.113  17.990   6.550
 5618POPC   C3B72345  35.150  17.823   6.954
 5618POPC   C4B72346  35.030  18.074   7.321
 5619POPC   NC372347  33.254   7.671   5.217
 5619POPC   PO472348  32.745   7.233   5.288
 5619POPC   GL172349  32.898   7.329   5.750
 5619POPC   GL272350  33.235   7.214   5.834
 5619POPC   C1A72351  32.888   7.326   6.244
 5619POPC   D2A72352  32.829   7.625   6.636
 5619POPC   C3A72353  32.867   7.523   7.112
 5619POPC   C4A72354  32.595   7.251   7.381
 5619POPC   C1B72355  33.243   7.624   6.031
 5619POPC   C2B72356  33.312   7.649   6.457
 5619POPC   C3B72357  33.351   7.611   6.922
 5619POPC   C4B72358  33.286   7.585   7.411
 5620POPC   NC372359  39.557   1.306   5.505
 5620POPC   PO472360  38.949   1.128   5.307
 5620POPC   GL172361  39.149   1.027   5.692
 5620POPC   GL272362  39.175   1.356   5.846
 5620POPC   C1A72363  39.029   0.989   6.148
 5620POPC   D2A72364  39.243   0.911   6.509
 5620POPC   C3A72365  39.256   1.101   6.897
 5620POPC   C4A72366  39.380   0.885   7.253
 5620POPC   C1B72367  39.151   1.577   6.218
 5620POPC   C2B72368  39.370   1.544   6.600
 5620POPC   C3B72369  39.365   1.593   7.039
 5620POPC   C4B72370  39.319   1.413   7.431
 5621POPC   NC372371  30.970  28.083   5.355
 5621POPC   PO472372  30.714  28.728   5.334
 5621POPC   GL172373  30.720  28.534   5.761
 5621POPC   GL272374  30.905  28.260   5.816
 5621POPC   C1A72375  30.517  28.403   6.174
 5621POPC   D2A72376  30.476  28.232   6.607
 5621POPC   C3A72377  30.570  28.483   6.987
 5621POPC   C4A72378  30.453  28.602   7.437
 5621POPC   C1B72379  30.983  28.119   6.198
 5621POPC   C2B72380  30.965  28.352   6.544
 5621POPC   C3B72381  30.870  28.067   6.879
 5621POPC   C4B72382  30.744  28.105   7.290
 5622POPC   NC372383   9.651  19.453   5.144
 5622POPC   PO472384   9.975  18.918   5.300
 5622POPC   GL172385   9.763  19.178   5.609
 5622POPC   GL272386   9.982  19.356   5.844
 5622POPC   C1A72387   9.588  19.088   6.026
 5622POPC   D2A72388   9.553  19.184   6.474
 5622POPC   C3A72389   9.741  19.047   6.851
 5622POPC   C4A72390   9.568  18.955   7.249
 5622POPC   C1B72391  10.031  19.174   6.272
 5622POPC   C2B72392  10.111  19.364   6.671
 5622POPC   C3B72393  10.039  19.367   7.125
 5622POPC   C4B72394  10.007  19.085   7.511
 5623POPC   NC372395  37.408  34.525   5.386
 5623POPC   PO472396  38.050  34.567   5.498
 5623POPC   GL172397  37.735  34.490   5.773
 5623POPC   GL272398  37.657  34.820   5.784
 5623POPC   C1A72399  37.735  34.514   6.215
 5623POPC   D2A72400  38.056  34.482   6.517
 5623POPC   C3A72401  37.851  34.589   6.884
 5623POPC   C4A72402  37.561  34.391   7.177
 5623POPC   C1B72403  37.819  35.032   6.163
 5623POPC   C2B72404  37.599  35.045   6.566
 5623POPC   C3B72405  37.469  34.937   6.973
 5623POPC   C4B72406  37.727  34.854   7.313
 5624POPC   NC372407  35.248  21.775   5.455
 5624POPC   PO472408  35.530  21.174   5.440
 5624POPC   GL172409  35.357  21.256   5.793
 5624POPC   GL272410  35.471  20.917   5.890
 5624POPC   C1A72411  35.155  21.558   6.067
 5624POPC   D2A72412  35.143  21.810   6.414
 5624POPC   C3A72413  35.382  21.744   6.788
 5624POPC   C4A72414  35.299  21.522   7.153
 5624POPC   C1B72415  35.256  21.090   6.257
 5624POPC   C2B72416  35.281  21.256   6.655
 5624POPC   C3B72417  35.348  21.016   7.016
 5624POPC   C4B72418  35.542  20.845   7.380
 5625POPC   NC372419  35.289  40.993   5.325
 5625POPC   PO472420  35.418  40.334   5.370
 5625POPC   GL172421  35.414  40.668   5.705
 5625POPC   GL272422  35.087  40.862   5.780
 5625POPC   C1A72423  35.472  40.837   6.124
 5625POPC   D2A72424  35.394  40.558   6.446
 5625POPC   C3A72425  35.321  40.584   6.910
 5625POPC   C4A72426  35.529  40.815   7.244
 5625POPC   C1B72427  34.895  40.803   6.187
 5625POPC   C2B72428  35.061  40.918   6.594
 5625POPC   C3B72429  35.154  41.079   6.986
 5625POPC   C4B72430  35.011  40.878   7.356
 5626POPC   NC372431   7.329  27.445   5.362
 5626POPC   PO472432   7.673  26.930   5.643
 5626POPC   GL172433   7.608  27.368   5.827
 5626POPC   GL272434   7.341  27.677   5.819
 5626POPC   C1A72435   7.414  27.443   6.239
 5626POPC   D2A72436   7.555  27.634   6.570
 5626POPC   C3A72437   7.367  27.531   6.911
 5626POPC   C4A72438   7.616  27.429   7.232
 5626POPC   C1B72439   7.634  27.904   6.131
 5626POPC   C2B72440   7.677  28.115   6.563
 5626POPC   C3B72441   7.676  27.936   6.995
 5626POPC   C4B72442   7.525  27.881   7.417
 5627POPC   NC372443   8.431  23.603   5.404
 5627POPC   PO472444   9.013  23.953   5.345
 5627POPC   GL172445   8.985  23.771   5.774
 5627POPC   GL272446   8.650  23.896   5.769
 5627POPC   C1A72447   9.154  23.676   6.220
 5627POPC   D2A72448   9.196  23.583   6.668
 5627POPC   C3A72449   9.179  23.919   6.995
 5627POPC   C4A72450   9.361  24.063   7.423
 5627POPC   C1B72451   8.625  23.686   6.144
 5627POPC   C2B72452   8.723  23.793   6.543
 5627POPC   C3B72453   8.763  23.605   6.933
 5627POPC   C4B72454   8.786  23.820   7.340
 5628POPC   NC372455   6.820  26.793   5.477
 5628POPC   PO472456   6.211  26.660   5.190
 5628POPC   GL172457   6.281  26.824   5.626
 5628POPC   GL272458   6.466  26.587   5.786
 5628POPC   C1A72459   6.329  26.969   6.090
 5628POPC   D2A72460   6.590  27.012   6.470
 5628POPC   C3A72461   6.600  26.775   6.862
 5628POPC   C4A72462   6.453  26.887   7.250
 5628POPC   C1B72463   6.773  26.664   6.110
 5628POPC   C2B72464   6.860  26.523   6.511
 5628POPC   C3B72465   7.121  26.677   6.785
 5628POPC   C4B72466   7.145  26.664   7.214
 5629POPC   NC372467   9.989   1.383   5.408
 5629POPC   PO472468   9.514   0.872   5.443
 5629POPC   GL172469   9.605   1.064   5.860
 5629POPC   GL272470   9.410   0.893   6.140
 5629POPC   C1A72471   9.822   1.187   6.280
 5629POPC   D2A72472   9.648   1.026   6.684
 5629POPC   C3A72473   9.879   0.957   7.062
 5629POPC   C4A72474   9.729   0.993   7.525
 5629POPC   C1B72475   9.328   1.309   6.372
 5629POPC   C2B72476   9.635   1.545   6.635
 5629POPC   C3B72477   9.760   1.446   7.029
 5629POPC   C4B72478   9.555   1.479   7.438
 5630POPC   NC372479  32.198   3.147   5.500
 5630POPC   PO472480  32.508   3.697   5.466
 5630POPC   GL172481  32.224   3.746   5.809
 5630POPC   GL272482  32.377   3.432   5.896
 5630POPC   C1A72483  32.244   3.765   6.277
 5630POPC   D2A72484  32.540   3.664   6.604
 5630POPC   C3A72485  32.420   3.612   7.035
 5630POPC   C4A72486  32.076   3.744   7.307
 5630POPC   C1B72487  32.339   3.263   6.299
 5630POPC   C2B72488  32.121   2.964   6.524
 5630POPC   C3B72489  32.159   3.099   6.943
 5630POPC   C4B72490  32.255   3.262   7.382
 5631POPC   NC372491  26.824   9.560   5.451
 5631POPC   PO472492  26.177   9.512   5.416
 5631POPC   GL172493  26.454   9.546   5.802
 5631POPC   GL272494  26.677   9.875   5.825
 5631POPC   C1A72495  26.533   9.449   6.242
 5631POPC   D2A72496  26.413   9.622   6.657
 5631POPC   C3A72497  26.751   9.686   6.962
 5631POPC   C4A72498  26.904  10.061   7.184
 5631POPC   C1B72499  26.976   9.717   6.161
 5631POPC   C2B72500  27.081   9.573   6.602
 5631POPC   C3B72501  27.245   9.614   7.055
 5631POPC   C4B72502  27.125   9.745   7.503
 5632POPC   NC372503  19.406  19.150   5.398
 5632POPC   PO472504  18.732  18.918   5.511
 5632POPC   GL172505  19.063  19.061   5.789
 5632POPC   GL272506  18.997  19.376   5.963
 5632POPC   C1A72507  19.279  19.036   6.200
 5632POPC   D2A72508  19.185  19.347   6.517
 5632POPC   C3A72509  19.292  19.241   6.947
 5632POPC   C4A72510  19.334  18.834   7.146
 5632POPC   C1B72511  18.791  19.044   6.256
 5632POPC   C2B72512  18.973  18.889   6.651
 5632POPC   C3B72513  18.833  18.950   7.063
 5632POPC   C4B72514  19.028  19.147   7.441
 5633POPC   NC372515  30.525  29.165   5.259
 5633POPC   PO472516  31.156  29.239   5.383
 5633POPC   GL172517  30.949  29.010   5.770
 5633POPC   GL272518  30.849  29.226   6.087
 5633POPC   C1A72519  30.927  28.748   6.186
 5633POPC   D2A72520  30.786  28.884   6.610
 5633POPC   C3A72521  30.942  28.955   6.997
 5633POPC   C4A72522  30.982  29.340   7.239
 5633POPC   C1B72523  30.460  28.944   6.231
 5633POPC   C2B72524  30.310  28.725   6.580
 5633POPC   C3B72525  30.229  28.857   7.003
 5633POPC   C4B72526  30.494  29.144   7.181
 5634POPC   NC372527  43.356  25.816   5.214
 5634POPC   PO472528  42.810  26.158   5.424
 5634POPC   GL172529  42.953  26.033   5.794
 5634POPC   GL272530  43.287  25.997   5.735
 5634POPC   C1A72531  43.015  25.828   6.218
 5634POPC   D2A72532  42.991  25.929   6.673
 5634POPC   C3A72533  43.006  25.969   7.121
 5634POPC   C4A72534  42.706  26.296   7.231
 5634POPC   C1B72535  43.250  26.266   6.121
 5634POPC   C2B72536  43.359  26.274   6.522
 5634POPC   C3B72537  43.213  26.389   6.909
 5634POPC   C4B72538  43.398  26.245   7.276
 5635POPC   NC372539  24.088  31.771   5.610
 5635POPC   PO472540  23.576  31.369   5.360
 5635POPC   GL172541  23.634  31.253   5.763
 5635POPC   GL272542  23.978  31.293   5.813
 5635POPC   C1A72543  23.621  31.509   6.147
 5635POPC   D2A72544  23.507  31.688   6.545
 5635POPC   C3A72545  23.590  31.408   6.897
 5635POPC   C4A72546  23.534  31.561   7.304
 5635POPC   C1B72547  23.875  31.062   6.217
 5635POPC   C2B72548  23.999  31.054   6.676
 5635POPC   C3B72549  23.757  30.856   7.009
 5635POPC   C4B72550  23.589  31.001   7.410
 5636POPC   NC372551  43.634  15.343   5.439
 5636POPC   PO472552  44.063  14.760   5.423
 5636POPC   GL172553  44.036  15.089   5.730
 5636POPC   GL272554  44.312  15.022   5.910
 5636POPC   C1A72555  43.922  15.422   6.029
 5636POPC   D2A72556  43.739  15.498   6.426
 5636POPC   C3A72557  43.955  15.344   6.775
 5636POPC   C4A72558  43.875  15.333   7.220
 5636POPC   C1B72559  44.172  15.064   6.307
 5636POPC   C2B72560  44.257  14.877   6.660
 5636POPC   C3B72561  44.277  15.042   7.022
 5636POPC   C4B72562  44.296  15.138   7.419
 5637POPC   NC372563  19.545  20.690   5.638
 5637POPC   PO472564  18.933  20.530   5.450
 5637POPC   GL172565  18.948  20.615   5.898
 5637POPC   GL272566  18.698  20.879   5.820
 5637POPC   C1A72567  19.280  20.684   6.270
 5637POPC   D2A72568  19.478  20.694   6.722
 5637POPC   C3A72569  19.123  20.640   7.035
 5637POPC   C4A72570  18.791  20.326   7.083
 5637POPC   C1B72571  18.841  21.058   6.199
 5637POPC   C2B72572  18.921  20.893   6.613
 5637POPC   C3B72573  18.806  21.069   6.998
 5637POPC   C4B72574  18.575  21.167   7.349
 5638POPC   NC372575  28.075  14.966   5.478
 5638POPC   PO472576  28.596  14.546   5.413
 5638POPC   GL172577  28.370  14.518   5.780
 5638POPC   GL272578  28.029  14.493   5.733
 5638POPC   C1A72579  28.343  14.233   6.140
 5638POPC   D2A72580  28.225  14.331   6.556
 5638POPC   C3A72581  28.518  14.372   6.900
 5638POPC   C4A72582  28.419  14.294   7.314
 5638POPC   C1B72583  27.975  14.601   6.180
 5638POPC   C2B72584  27.981  14.793   6.607
 5638POPC   C3B72585  28.057  14.575   6.998
 5638POPC   C4B72586  28.045  14.640   7.427
 5639POPC   NC372587  37.732  32.679   5.452
 5639POPC   PO472588  37.558  33.394   5.430
 5639POPC   GL172589  37.653  33.096   5.769
 5639POPC   GL272590  37.390  32.837   5.847
 5639POPC   C1A72591  37.765  32.980   6.193
 5639POPC   D2A72592  37.586  33.086   6.589
 5639POPC   C3A72593  37.659  32.883   6.978
 5639POPC   C4A72594  38.110  32.845   7.086
 5639POPC   C1B72595  37.284  33.202   6.129
 5639POPC   C2B72596  37.207  33.418   6.529
 5639POPC   C3B72597  37.271  33.303   6.944
 5639POPC   C4B72598  37.507  33.272   7.296
 5640POPC   NC372599  18.216  37.852   5.303
 5640POPC   PO472600  18.240  37.229   5.462
 5640POPC   GL172601  18.484  37.514   5.760
 5640POPC   GL272602  18.492  37.875   5.733
 5640POPC   C1A72603  18.654  37.496   6.172
 5640POPC   D2A72604  18.521  37.385   6.593
 5640POPC   C3A72605  18.545  37.604   6.993
 5640POPC   C4A72606  18.310  37.450   7.381
 5640POPC   C1B72607  18.434  37.944   6.204
 5640POPC   C2B72608  18.289  37.872   6.637
 5640POPC   C3B72609  18.037  37.721   6.976
 5640POPC   C4B72610  17.886  37.731   7.379
 5641POPC   NC372611  37.905   6.906   5.303
 5641POPC   PO472612  37.515   6.404   5.467
 5641POPC   GL172613  37.693   6.593   5.784
 5641POPC   GL272614  37.489   6.898   5.753
 5641POPC   C1A72615  37.584   6.487   6.198
 5641POPC   D2A72616  37.590   6.252   6.587
 5641POPC   C3A72617  37.661   6.435   6.993
 5641POPC   C4A72618  37.633   6.729   7.323
 5641POPC   C1B72619  37.728   6.972   6.155
 5641POPC   C2B72620  37.774   6.771   6.575
 5641POPC   C3B72621  37.956   6.864   6.963
 5641POPC   C4B72622  37.891   7.176   7.256
 5642POPC   NC372623   0.824  42.571   5.178
 5642POPC   PO472624   1.446  42.350   5.383
 5642POPC   GL172625   1.350  42.426   5.813
 5642POPC   GL272626   1.197  42.101   5.906
 5642POPC   C1A72627   1.388  42.611   6.219
 5642POPC   D2A72628   1.274  42.331   6.561
 5642POPC   C3A72629   1.432  42.315   6.993
 5642POPC   C4A72630   1.388  42.478   7.429
 5642POPC   C1B72631   1.060  41.921   6.305
 5642POPC   C2B72632   1.011  41.941   6.770
 5642POPC   C3B72633   1.041  42.021   7.221
 5642POPC   C4B72634   1.110  42.125   7.682
 5643POPC   NC372635   1.120  27.784   5.429
 5643POPC   PO472636   1.675  27.399   5.546
 5643POPC   GL172637   1.432  27.661   5.817
 5643POPC   GL272638   1.415  28.028   5.778
 5643POPC   C1A72639   1.188  27.556   6.148
 5643POPC   D2A72640   1.324  27.582   6.528
 5643POPC   C3A72641   1.055  27.596   6.869
 5643POPC   C4A72642   0.959  27.396   7.251
 5643POPC   C1B72643   1.562  28.037   6.193
 5643POPC   C2B72644   1.730  27.893   6.582
 5643POPC   C3B72645   1.585  27.958   6.966
 5643POPC   C4B72646   1.333  27.756   7.257
 5644POPC   NC372647  14.323  10.651   5.467
 5644POPC   PO472648  14.639  10.960   5.888
 5644POPC   GL172649  14.567  10.500   5.972
 5644POPC   GL272650  14.194  10.458   5.932
 5644POPC   C1A72651  14.717  10.340   6.395
 5644POPC   D2A72652  14.698  10.590   6.753
 5644POPC   C3A72653  14.712  10.545   7.182
 5644POPC   C4A72654  14.496  10.780   7.558
 5644POPC   C1B72655  14.199  10.220   6.292
 5644POPC   C2B72656  14.303  10.195   6.713
 5644POPC   C3B72657  14.219  10.389   7.097
 5644POPC   C4B72658  14.372  10.288   7.484
 5645POPC   NC372659   1.708  28.711   5.418
 5645POPC   PO472660   1.158  28.236   5.367
 5645POPC   GL172661   1.184  28.488   5.788
 5645POPC   GL272662   1.542  28.549   5.899
 5645POPC   C1A72663   1.195  28.421   6.262
 5645POPC   D2A72664   1.211  28.076   6.580
 5645POPC   C3A72665   1.075  28.163   6.987
 5645POPC   C4A72666   0.935  28.046   7.372
 5645POPC   C1B72667   1.582  28.815   6.301
 5645POPC   C2B72668   1.465  28.850   6.758
 5645POPC   C3B72669   1.373  28.599   7.126
 5645POPC   C4B72670   1.444  28.228   7.375
 5646POPC   NC372671  32.103  18.313   5.478
 5646POPC   PO472672  32.753  18.218   5.584
 5646POPC   GL172673  32.432  18.394   5.858
 5646POPC   GL272674  32.150  18.103   5.925
 5646POPC   C1A72675  32.211  18.479   6.230
 5646POPC   D2A72676  32.332  18.145   6.528
 5646POPC   C3A72677  32.308  18.292   6.931
 5646POPC   C4A72678  32.243  18.268   7.347
 5646POPC   C1B72679  31.875  18.076   6.292
 5646POPC   C2B72680  31.887  18.401   6.650
 5646POPC   C3B72681  31.877  18.532   7.088
 5646POPC   C4B72682  31.767  18.253   7.465
 5647POPC   NC372683   5.567  23.936   5.567
 5647POPC   PO472684   5.050  23.543   5.252
 5647POPC   GL172685   5.079  23.725   5.660
 5647POPC   GL272686   5.360  23.519   5.765
 5647POPC   C1A72687   4.979  23.612   6.094
 5647POPC   D2A72688   5.076  23.511   6.520
 5647POPC   C3A72689   5.060  23.791   6.892
 5647POPC   C4A72690   5.368  23.884   7.204
 5647POPC   C1B72691   5.439  23.316   6.141
 5647POPC   C2B72692   5.452  23.172   6.557
 5647POPC   C3B72693   5.342  23.335   6.962
 5647POPC   C4B72694   5.087  23.450   7.290
 5648POPC   NC372695   3.605   7.528   5.340
 5648POPC   PO472696   3.495   6.993   5.609
 5648POPC   GL172697   3.335   7.291   5.868
 5648POPC   GL272698   3.400   7.641   5.820
 5648POPC   C1A72699   3.329   7.213   6.303
 5648POPC   D2A72700   3.306   7.479   6.659
 5648POPC   C3A72701   3.365   7.211   6.988
 5648POPC   C4A72702   3.208   7.361   7.333
 5648POPC   C1B72703   3.567   7.652   6.229
 5648POPC   C2B72704   3.800   7.363   6.533
 5648POPC   C3B72705   3.861   7.364   6.984
 5648POPC   C4B72706   3.595   7.690   7.125
 5649POPC   NC372707  44.988  11.133   5.523
 5649POPC   PO472708   0.643  10.944   5.419
 5649POPC   GL172709   0.450  11.199   5.772
 5649POPC   GL272710   0.728  11.220   5.991
 5649POPC   C1A72711   0.128  11.342   6.135
 5649POPC   D2A72712  44.979  11.378   6.587
 5649POPC   C3A72713   0.296  11.245   6.883
 5649POPC   C4A72714   0.304  11.063   7.293
 5649POPC   C1B72715   0.579  11.523   6.300
 5649POPC   C2B72716   0.706  11.530   6.714
 5649POPC   C3B72717   0.936  11.581   7.053
 5649POPC   C4B72718   0.753  11.322   7.295
 5650POPC   NC372719  43.594   9.807   5.263
 5650POPC   PO472720  43.944   9.407   5.600
 5650POPC   GL172721  43.813   9.688   5.905
 5650POPC   GL272722  43.731  10.024   5.768
 5650POPC   C1A72723  43.772   9.608   6.328
 5650POPC   D2A72724  43.700   9.572   6.756
 5650POPC   C3A72725  43.989   9.640   7.055
 5650POPC   C4A72726  43.814   9.694   7.472
 5650POPC   C1B72727  43.823  10.130   6.216
 5650POPC   C2B72728  43.861  10.072   6.646
 5650POPC   C3B72729  43.678  10.033   7.040
 5650POPC   C4B72730  43.900  10.209   7.375
 5651POPC   NC372731  39.713  30.429   5.350
 5651POPC   PO472732  39.440  31.095   5.302
 5651POPC   GL172733  39.449  30.922   5.773
 5651POPC   GL272734  39.141  30.728   5.938
 5651POPC   C1A72735  39.476  30.994   6.197
 5651POPC   D2A72736  39.304  30.746   6.526
 5651POPC   C3A72737  39.082  30.943   6.845
 5651POPC   C4A72738  39.052  30.933   7.263
 5651POPC   C1B72739  39.095  30.372   6.228
 5651POPC   C2B72740  38.924  30.336   6.660
 5651POPC   C3B72741  39.070  30.452   7.093
 5651POPC   C4B72742  39.084  30.287   7.563
 5652POPC   NC372743   6.362   9.443   5.485
 5652POPC   PO472744   6.922   9.675   5.376
 5652POPC   GL172745   6.746   9.665   5.765
 5652POPC   GL272746   6.531   9.950   5.801
 5652POPC   C1A72747   6.687   9.625   6.186
 5652POPC   D2A72748   6.924   9.738   6.534
 5652POPC   C3A72749   6.696   9.685   6.872
 5652POPC   C4A72750   6.597   9.663   7.285
 5652POPC   C1B72751   6.704  10.167   6.179
 5652POPC   C2B72752   6.753  10.205   6.659
 5652POPC   C3B72753   6.615  10.125   7.098
 5652POPC   C4B72754   6.402  10.157   7.527
 5653POPC   NC372755  42.865  24.967   5.414
 5653POPC   PO472756  43.365  25.353   5.216
 5653POPC   GL172757  43.218  25.496   5.644
 5653POPC   GL272758  42.874  25.525   5.788
 5653POPC   C1A72759  43.279  25.389   6.106
 5653POPC   D2A72760  43.173  25.143   6.504
 5653POPC   C3A72761  43.249  25.336   6.900
 5653POPC   C4A72762  43.245  25.211   7.334
 5653POPC   C1B72763  42.773  25.369   6.234
 5653POPC   C2B72764  42.741  25.459   6.711
 5653POPC   C3B72765  42.851  25.487   7.186
 5653POPC   C4B72766  43.088  25.646   7.589
 5654POPC   NC372767  28.420  14.027   5.473
 5654POPC   PO472768  28.197  13.278   5.386
 5654POPC   GL172769  28.273  13.591   5.723
 5654POPC   GL272770  28.613  13.625   5.922
 5654POPC   C1A72771  28.170  13.744   6.133
 5654POPC   D2A72772  28.423  13.765   6.521
 5654POPC   C3A72773  28.290  13.583   6.920
 5654POPC   C4A72774  28.157  13.766   7.327
 5654POPC   C1B72775  28.882  13.868   6.250
 5654POPC   C2B72776  28.860  14.013   6.721
 5654POPC   C3B72777  28.646  13.874   7.117
 5654POPC   C4B72778  28.590  13.883   7.585
 5655POPC   NC372779  35.153  27.175   5.618
 5655POPC   PO472780  35.208  27.788   5.367
 5655POPC   GL172781  35.205  27.698   5.792
 5655POPC   GL272782  35.465  27.921   5.794
 5655POPC   C1A72783  35.058  27.583   6.220
 5655POPC   D2A72784  35.318  27.396   6.564
 5655POPC   C3A72785  35.207  27.352   6.997
 5655POPC   C4A72786  35.411  27.401   7.353
 5655POPC   C1B72787  35.333  28.041   6.210
 5655POPC   C2B72788  35.178  27.918   6.602
 5655POPC   C3B72789  35.303  27.852   7.018
 5655POPC   C4B72790  35.212  28.002   7.416
 5656POPC   NC372791  13.357  32.609   5.416
 5656POPC   PO472792  13.240  33.173   5.759
 5656POPC   GL172793  13.456  32.805   5.923
 5656POPC   GL272794  13.288  32.497   5.980
 5656POPC   C1A72795  13.697  32.878   6.297
 5656POPC   D2A72796  13.626  33.082   6.711
 5656POPC   C3A72797  13.926  33.036   7.052
 5656POPC   C4A72798  13.997  33.236   7.464
 5656POPC   C1B72799  13.292  32.590   6.443
 5656POPC   C2B72800  13.144  32.877   6.745
 5656POPC   C3B72801  13.305  33.001   7.135
 5656POPC   C4B72802  13.630  32.882   7.458
 5657POPC   NC372803   2.555  15.339   5.664
 5657POPC   PO472804   3.123  15.150   5.298
 5657POPC   GL172805   3.057  15.134   5.786
 5657POPC   GL272806   2.785  14.967   5.928
 5657POPC   C1A72807   3.159  15.080   6.250
 5657POPC   D2A72808   3.173  15.357   6.638
 5657POPC   C3A72809   3.070  15.190   7.057
 5657POPC   C4A72810   3.070  14.876   7.385
 5657POPC   C1B72811   2.532  15.092   6.274
 5657POPC   C2B72812   2.401  15.148   6.677
 5657POPC   C3B72813   2.558  15.282   7.066
 5657POPC   C4B72814   2.653  15.103   7.516
 5658POPC   NC372815   5.678  26.471   5.471
 5658POPC   PO472816   5.486  27.017   5.771
 5658POPC   GL172817   5.821  26.685   5.906
 5658POPC   GL272818   5.998  26.318   5.839
 5658POPC   C1A72819   5.705  26.451   6.264
 5658POPC   D2A72820   5.624  26.709   6.631
 5658POPC   C3A72821   5.891  26.962   6.896
 5658POPC   C4A72822   5.721  26.730   7.204
 5658POPC   C1B72823   6.197  26.484   6.190
 5658POPC   C2B72824   6.164  26.691   6.561
 5658POPC   C3B72825   6.155  26.528   6.982
 5658POPC   C4B72826   6.382  26.360   7.300
 5659POPC   NC372827  12.668   4.455   5.367
 5659POPC   PO472828  13.357   4.534   5.444
 5659POPC   GL172829  13.020   4.264   5.706
 5659POPC   GL272830  12.695   4.413   5.859
 5659POPC   C1A72831  12.926   4.076   6.120
 5659POPC   D2A72832  12.717   4.244   6.490
 5659POPC   C3A72833  12.960   4.139   6.812
 5659POPC   C4A72834  12.932   4.076   7.236
 5659POPC   C1B72835  12.694   4.675   6.212
 5659POPC   C2B72836  12.539   4.762   6.632
 5659POPC   C3B72837  12.655   4.506   6.980
 5659POPC   C4B72838  12.875   4.555   7.342
 5660POPC   NC372839  16.694  18.997   5.072
 5660POPC   PO472840  17.089  19.343   5.651
 5660POPC   GL172841  16.722  19.194   5.875
 5660POPC   GL272842  16.525  19.462   5.848
 5660POPC   C1A72843  16.863  18.935   6.232
 5660POPC   D2A72844  16.738  19.041   6.631
 5660POPC   C3A72845  16.797  18.859   7.024
 5660POPC   C4A72846  16.431  19.021   7.230
 5660POPC   C1B72847  16.813  19.445   6.273
 5660POPC   C2B72848  17.167  19.351   6.497
 5660POPC   C3B72849  17.137  19.254   6.906
 5660POPC   C4B72850  16.948  19.289   7.306
 5661POPC   NC372851   9.077  33.086   5.388
 5661POPC   PO472852   8.494  33.483   5.492
 5661POPC   GL172853   8.728  33.150   5.811
 5661POPC   GL272854   9.053  32.925   5.860
 5661POPC   C1A72855   8.756  32.927   6.256
 5661POPC   D2A72856   8.682  32.767   6.697
 5661POPC   C3A72857   8.832  33.007   7.072
 5661POPC   C4A72858   9.026  33.406   7.085
 5661POPC   C1B72859   9.265  33.003   6.258
 5661POPC   C2B72860   9.168  33.015   6.685
 5661POPC   C3B72861   9.370  32.934   7.081
 5661POPC   C4B72862   9.363  32.530   7.298
 5662POPC   NC372863  35.055  38.507   5.399
 5662POPC   PO472864  35.718  38.381   5.459
 5662POPC   GL172865  35.428  38.424   5.811
 5662POPC   GL272866  35.219  38.710   5.830
 5662POPC   C1A72867  35.539  38.441   6.249
 5662POPC   D2A72868  35.432  38.402   6.677
 5662POPC   C3A72869  35.641  38.609   7.028
 5662POPC   C4A72870  35.365  38.401   7.297
 5662POPC   C1B72871  35.130  38.879   6.208
 5662POPC   C2B72872  35.113  38.801   6.661
 5662POPC   C3B72873  35.187  38.840   7.078
 5662POPC   C4B72874  34.932  38.713   7.384
 5663POPC   NC372875  33.111  32.755   5.114
 5663POPC   PO472876  33.031  33.295   5.392
 5663POPC   GL172877  32.909  33.048   5.726
 5663POPC   GL272878  33.160  32.811   5.710
 5663POPC   C1A72879  32.791  32.996   6.154
 5663POPC   D2A72880  33.026  33.129   6.501
 5663POPC   C3A72881  33.009  32.870   6.839
 5663POPC   C4A72882  32.797  33.009   7.195
 5663POPC   C1B72883  33.302  32.926   6.114
 5663POPC   C2B72884  33.432  32.772   6.506
 5663POPC   C3B72885  33.530  32.853   6.904
 5663POPC   C4B72886  33.263  32.763   7.268
 5664POPC   NC372887  29.199   6.049   5.661
 5664POPC   PO472888  29.426   6.503   5.278
 5664POPC   GL172889  29.234   6.621   5.737
 5664POPC   GL272890  29.338   6.395   6.006
 5664POPC   C1A72891  29.202   6.900   6.155
 5664POPC   D2A72892  29.463   7.114   6.501
 5664POPC   C3A72893  29.303   6.981   6.919
 5664POPC   C4A72894  29.313   6.738   7.311
 5664POPC   C1B72895  28.924   6.484   6.205
 5664POPC   C2B72896  29.075   6.614   6.598
 5664POPC   C3B72897  29.043   6.473   6.982
 5664POPC   C4B72898  28.693   6.549   7.250
 5665POPC   NC372899   1.542  26.882   5.523
 5665POPC   PO472900   1.048  26.519   5.207
 5665POPC   GL172901   1.047  26.830   5.709
 5665POPC   GL272902   1.350  26.817   5.994
 5665POPC   C1A72903   0.893  26.849   6.191
 5665POPC   D2A72904   0.937  27.185   6.536
 5665POPC   C3A72905   1.144  27.043   6.933
 5665POPC   C4A72906   1.109  26.908   7.375
 5665POPC   C1B72907   1.238  26.451   6.292
 5665POPC   C2B72908   1.274  26.396   6.743
 5665POPC   C3B72909   1.438  26.630   7.093
 5665POPC   C4B72910   1.594  26.771   7.482
 5666POPC   NC372911   9.535  41.445   5.360
 5666POPC   PO472912  10.105  41.246   5.692
 5666POPC   GL172913   9.857  41.521   5.937
 5666POPC   GL272914   9.504  41.596   5.885
 5666POPC   C1A72915   9.788  41.553   6.402
 5666POPC   D2A72916   9.945  41.723   6.807
 5666POPC   C3A72917   9.956  41.440   7.181
 5666POPC   C4A72918  10.097  41.315   7.632
 5666POPC   C1B72919   9.294  41.717   6.281
 5666POPC   C2B72920   9.467  41.907   6.680
 5666POPC   C3B72921   9.409  41.842   7.136
 5666POPC   C4B72922   9.537  41.554   7.458
 5667POPC   NC372923  43.596   9.111   5.483
 5667POPC   PO472924  44.013   8.649   5.401
 5667POPC   GL172925  43.801   8.684   5.833
 5667POPC   GL272926  43.809   9.051   5.947
 5667POPC   C1A72927  43.749   8.740   6.331
 5667POPC   D2A72928  43.726   9.068   6.660
 5667POPC   C3A72929  43.663   8.863   7.044
 5667POPC   C4A72930  44.038   8.655   7.239
 5667POPC   C1B72931  44.137   9.258   6.208
 5667POPC   C2B72932  44.175   9.424   6.605
 5667POPC   C3B72933  44.203   9.144   6.929
 5667POPC   C4B72934  43.982   9.172   7.287
 5668POPC   NC372935  21.141  20.901   5.391
 5668POPC   PO472936  20.609  20.466   5.273
 5668POPC   GL172937  20.624  20.389   5.727
 5668POPC   GL272938  20.963  20.534   5.719
 5668POPC   C1A72939  20.409  20.417   6.176
 5668POPC   D2A72940  20.214  20.504   6.600
 5668POPC   C3A72941  20.487  20.464   6.952
 5668POPC   C4A72942  20.511  20.837   7.201
 5668POPC   C1B72943  20.801  20.729   6.088
 5668POPC   C2B72944  20.800  20.561   6.515
 5668POPC   C3B72945  20.923  20.741   6.902
 5668POPC   C4B72946  21.010  20.612   7.319
 5669POPC   NC372947  36.856  37.097   5.471
 5669POPC   PO472948  37.328  36.620   5.514
 5669POPC   GL172949  37.130  36.856   5.823
 5669POPC   GL272950  36.839  36.675   5.786
 5669POPC   C1A72951  36.874  37.048   6.172
 5669POPC   D2A72952  36.814  36.973   6.613
 5669POPC   C3A72953  36.838  37.217   6.999
 5669POPC   C4A72954  36.985  37.012   7.387
 5669POPC   C1B72955  36.814  36.556   6.228
 5669POPC   C2B72956  36.628  36.482   6.635
 5669POPC   C3B72957  36.646  36.721   7.032
 5669POPC   C4B72958  36.481  37.012   7.335
 5670POPC   NC372959  19.547  32.791   5.601
 5670POPC   PO472960  18.955  32.721   5.336
 5670POPC   GL172961  19.065  32.906   5.776
 5670POPC   GL272962  18.940  33.262   5.820
 5670POPC   C1A72963  19.101  33.026   6.248
 5670POPC   D2A72964  19.327  33.037   6.653
 5670POPC   C3A72965  19.153  32.876   7.054
 5670POPC   C4A72966  19.297  33.094   7.484
 5670POPC   C1B72967  18.716  33.426   6.214
 5670POPC   C2B72968  18.832  33.490   6.682
 5670POPC   C3B72969  19.025  33.349   7.096
 5670POPC   C4B72970  18.997  33.507   7.533
 5671POPC   NC372971  11.628  31.563   5.462
 5671POPC   PO472972  11.033  31.309   5.486
 5671POPC   GL172973  11.142  31.591   5.856
 5671POPC   GL272974  11.482  31.729   5.919
 5671POPC   C1A72975  11.155  31.543   6.318
 5671POPC   D2A72976  11.031  31.195   6.596
 5671POPC   C3A72977  11.178  31.174   7.030
 5671POPC   C4A72978  10.893  31.116   7.376
 5671POPC   C1B72979  11.618  31.369   6.183
 5671POPC   C2B72980  11.575  31.134   6.604
 5671POPC   C3B72981  11.709  31.296   7.024
 5671POPC   C4B72982  11.675  31.773   7.145
 5672POPC   NC372983   2.149  29.452   5.434
 5672POPC   PO472984   2.226  28.782   5.291
 5672POPC   GL172985   2.045  28.964   5.712
 5672POPC   GL272986   1.980  29.310   5.878
 5672POPC   C1A72987   2.125  28.913   6.151
 5672POPC   D2A72988   2.183  29.168   6.504
 5672POPC   C3A72989   1.974  29.007   6.821
 5672POPC   C4A72990   2.160  28.860   7.185
 5672POPC   C1B72991   1.737  29.292   6.241
 5672POPC   C2B72992   1.531  29.333   6.626
 5672POPC   C3B72993   1.691  29.393   7.017
 5672POPC   C4B72994   1.684  29.018   7.237
 5673POPC   NC372995  34.791  44.970   5.421
 5673POPC   PO472996  34.402  44.465   5.492
 5673POPC   GL172997  34.577  44.693   5.803
 5673POPC   GL272998  34.401  44.499   6.002
 5673POPC   C1A72999  34.869  44.683   6.153
 5673POPC   D2A73000  34.843  44.712   6.599
 5673POPC   C3A73001  34.998  44.676   7.040
 5673POPC   C4A73002  34.851  44.439   7.401
 5673POPC   C1B73003  34.399  44.696   6.326
 5673POPC   C2B73004  34.351  44.624   6.680
 5673POPC   C3B73005  34.472  44.483   7.021
 5673POPC   C4B73006  34.219  44.470   7.357
 5674POPC   NC373007  34.774  18.193   5.422
 5674POPC   PO473008  34.157  18.270   5.232
 5674POPC   GL173009  34.356  18.316   5.684
 5674POPC   GL273010  34.525  18.009   5.812
 5674POPC   C1A73011  34.564  18.438   6.099
 5674POPC   D2A73012  34.576  18.254   6.522
 5674POPC   C3A73013  34.766  18.166   6.895
 5674POPC   C4A73014  34.565  18.321   7.270
 5674POPC   C1B73015  34.318  17.973   6.183
 5674POPC   C2B73016  34.166  17.931   6.601
 5674POPC   C3B73017  34.329  17.949   7.016
 5674POPC   C4B73018  34.188  17.722   7.367
 5675POPC   NC373019  32.313  44.197   5.537
 5675POPC   PO473020  31.909  43.695   5.293
 5675POPC   GL173021  32.010  43.713   5.760
 5675POPC   GL273022  32.365  43.800   5.846
 5675POPC   C1A73023  32.117  43.600   6.232
 5675POPC   D2A73024  32.340  43.421   6.598
 5675POPC   C3A73025  32.183  43.583   7.004
 5675POPC   C4A73026  32.033  43.993   7.152
 5675POPC   C1B73027  32.513  43.961   6.266
 5675POPC   C2B73028  32.365  43.952   6.692
 5675POPC   C3B73029  32.508  44.189   7.028
 5675POPC   C4B73030  32.917  44.340   7.002
 5676POPC   NC373031  42.946  43.114   5.428
 5676POPC   PO473032  43.546  42.950   5.482
 5676POPC   GL173033  43.311  43.204   5.827
 5676POPC   GL273034  42.969  43.338   5.924
 5676POPC   C1A73035  43.249  43.064   6.258
 5676POPC   D2A73036  43.017  43.161   6.605
 5676POPC   C3A73037  42.979  42.897   6.969
 5676POPC   C4A73038  43.231  42.921   7.317
 5676POPC   C1B73039  43.244  43.588   6.208
 5676POPC   C2B73040  43.441  43.492   6.603
 5676POPC   C3B73041  43.234  43.475   7.003
 5676POPC   C4B73042  42.931  43.337   7.323
 5677POPC   NC373043   2.166  31.374   5.392
 5677POPC   PO473044   1.918  31.756   5.749
 5677POPC   GL173045   2.171  31.443   5.967
 5677POPC   GL273046   2.081  31.137   5.914
 5677POPC   C1A73047   2.256  31.310   6.415
 5677POPC   D2A73048   2.066  31.478   6.825
 5677POPC   C3A73049   2.287  31.447   7.212
 5677POPC   C4A73050   2.519  31.712   7.489
 5677POPC   C1B73051   1.810  31.089   6.272
 5677POPC   C2B73052   1.894  31.024   6.681
 5677POPC   C3B73053   1.660  31.214   7.011
 5677POPC   C4B73054   1.814  31.412   7.382
 5678POPC   NC373055  27.073  24.103   5.396
 5678POPC   PO473056  27.063  23.404   5.300
 5678POPC   GL173057  26.724  23.629   5.562
 5678POPC   GL273058  26.989  23.693   5.736
 5678POPC   C1A73059  26.571  23.779   6.008
 5678POPC   D2A73060  26.672  23.931   6.439
 5678POPC   C3A73061  26.523  23.725   6.847
 5678POPC   C4A73062  26.556  23.295   7.064
 5678POPC   C1B73063  27.092  23.837   6.123
 5678POPC   C2B73064  27.069  23.611   6.482
 5678POPC   C3B73065  27.016  23.833   6.821
 5678POPC   C4B73066  26.902  23.650   7.177
 5679POPC   NC373067   9.454  32.204   5.671
 5679POPC   PO473068   8.990  32.616   5.446
 5679POPC   GL173069   8.963  32.374   5.823
 5679POPC   GL273070   8.798  32.019   5.793
 5679POPC   C1A73071   9.043  32.492   6.279
 5679POPC   D2A73072   8.874  32.285   6.648
 5679POPC   C3A73073   8.904  32.479   7.075
 5679POPC   C4A73074   8.948  32.337   7.514
 5679POPC   C1B73075   9.068  31.987   6.180
 5679POPC   C2B73076   9.259  31.951   6.594
 5679POPC   C3B73077   9.079  31.983   7.016
 5679POPC   C4B73078   9.216  31.924   7.422
 5680POPC   NC373079   5.348   8.133   5.735
 5680POPC   PO473080   5.859   8.171   5.231
 5680POPC   GL173081   5.849   8.101   5.685
 5680POPC   GL273082   5.825   7.748   5.767
 5680POPC   C1A73083   5.922   8.258   6.146
 5680POPC   D2A73084   5.860   8.533   6.535
 5680POPC   C3A73085   5.608   8.294   6.836
 5680POPC   C4A73086   5.572   8.281   7.272
 5680POPC   C1B73087   5.980   7.750   6.214
 5680POPC   C2B73088   5.920   7.897   6.648
 5680POPC   C3B73089   6.064   7.959   7.082
 5680POPC   C4B73090   6.184   7.745   7.485
 5681POPC   NC373091  23.850  42.174   5.472
 5681POPC   PO473092  23.258  42.494   5.427
 5681POPC   GL173093  23.584  42.365   5.847
 5681POPC   GL273094  23.917  42.563   6.003
 5681POPC   C1A73095  23.893  42.096   6.160
 5681POPC   D2A73096  24.055  42.339   6.520
 5681POPC   C3A73097  24.058  42.189   6.938
 5681POPC   C4A73098  23.731  42.081   7.206
 5681POPC   C1B73099  23.599  42.506   6.335
 5681POPC   C2B73100  23.586  42.373   6.751
 5681POPC   C3B73101  23.802  42.657   7.010
 5681POPC   C4B73102  23.660  42.738   7.407
 5682POPC   NC373103  37.901  13.481   5.257
 5682POPC   PO473104  37.254  13.707   5.389
 5682POPC   GL173105  37.434  13.456   5.757
 5682POPC   GL273106  37.779  13.514   5.776
 5682POPC   C1A73107  37.556  13.272   6.216
 5682POPC   D2A73108  37.327  13.271   6.657
 5682POPC   C3A73109  37.531  13.382   7.097
 5682POPC   C4A73110  37.435  13.292   7.570
 5682POPC   C1B73111  37.770  13.743   6.177
 5682POPC   C2B73112  37.636  13.698   6.611
 5682POPC   C3B73113  37.794  13.851   7.014
 5682POPC   C4B73114  38.053  13.582   7.237
 5683POPC   NC373115  26.583  37.509   5.269
 5683POPC   PO473116  27.217  37.616   5.056
 5683POPC   GL173117  27.045  37.654   5.516
 5683POPC   GL273118  26.910  37.384   5.647
 5683POPC   C1A73119  26.987  37.780   5.989
 5683POPC   D2A73120  26.858  37.864   6.457
 5683POPC   C3A73121  26.864  37.737   6.903
 5683POPC   C4A73122  27.189  37.710   7.213
 5683POPC   C1B73123  26.761  37.324   6.080
 5683POPC   C2B73124  26.776  37.345   6.542
 5683POPC   C3B73125  26.905  37.243   6.985
 5683POPC   C4B73126  26.863  37.385   7.430
 5684POPC   NC373127  25.534  42.540   5.424
 5684POPC   PO473128  25.470  41.838   5.116
 5684POPC   GL173129  25.295  42.085   5.482
 5684POPC   GL273130  25.649  42.077   5.601
 5684POPC   C1A73131  25.268  42.262   5.955
 5684POPC   D2A73132  25.427  42.507   6.360
 5684POPC   C3A73133  25.295  42.526   6.814
 5684POPC   C4A73134  25.303  42.294   7.196
 5684POPC   C1B73135  25.826  42.041   6.003
 5684POPC   C2B73136  25.778  42.154   6.441
 5684POPC   C3B73137  25.575  42.078   6.806
 5684POPC   C4B73138  25.723  42.025   7.231
 5685POPC   NC373139  22.342  19.243   5.410
 5685POPC   PO473140  21.824  18.984   5.363
 5685POPC   GL173141  21.964  19.198   5.753
 5685POPC   GL273142  22.296  19.056   5.868
 5685POPC   C1A73143  21.892  19.114   6.182
 5685POPC   D2A73144  21.760  18.871   6.562
 5685POPC   C3A73145  21.906  19.026   6.976
 5685POPC   C4A73146  22.281  18.860   7.196
 5685POPC   C1B73147  22.398  19.285   6.225
 5685POPC   C2B73148  22.186  19.265   6.613
 5685POPC   C3B73149  22.346  19.360   7.023
 5685POPC   C4B73150  22.378  19.279   7.475
 5686POPC   NC373151   0.944   4.380   5.102
 5686POPC   PO473152   1.355   3.917   5.469
 5686POPC   GL173153   1.345   4.346   5.748
 5686POPC   GL273154   1.180   4.227   6.036
 5686POPC   C1A73155   1.471   4.598   6.140
 5686POPC   D2A73156   1.337   4.489   6.565
 5686POPC   C3A73157   1.455   4.614   6.996
 5686POPC   C4A73158   1.137   4.629   7.330
 5686POPC   C1B73159   0.893   4.099   6.301
 5686POPC   C2B73160   0.890   4.247   6.666
 5686POPC   C3B73161   1.097   4.238   7.001
 5686POPC   C4B73162   0.925   4.161   7.365
 5687POPC   NC373163  10.911  38.891   5.399
 5687POPC   PO473164  10.608  38.235   5.421
 5687POPC   GL173165  10.493  38.288   5.826
 5687POPC   GL273166  10.434  38.618   5.835
 5687POPC   C1A73167  10.677  38.394   6.223
 5687POPC   D2A73168  10.787  38.208   6.597
 5687POPC   C3A73169  10.421  38.235   6.874
 5687POPC   C4A73170  10.390  38.363   7.301
 5687POPC   C1B73171  10.241  38.804   6.153
 5687POPC   C2B73172  10.400  38.678   6.555
 5687POPC   C3B73173  10.278  38.742   6.985
 5687POPC   C4B73174  10.478  38.854   7.395
 5688POPC   NC373175  11.038  15.245   5.072
 5688POPC   PO473176  11.642  15.029   5.263
 5688POPC   GL173177  11.486  15.086   5.686
 5688POPC   GL273178  11.133  15.131   5.720
 5688POPC   C1A73179  11.403  15.228   6.131
 5688POPC   D2A73180  11.358  15.434   6.510
 5688POPC   C3A73181  11.260  15.306   6.884
 5688POPC   C4A73182  11.441  15.168   7.250
 5688POPC   C1B73183  10.996  14.917   6.141
 5688POPC   C2B73184  11.179  14.914   6.563
 5688POPC   C3B73185  11.095  14.838   7.006
 5688POPC   C4B73186  10.843  14.810   7.401
 5689POPC   NC373187   4.085  16.634   5.164
 5689POPC   PO473188   3.535  16.810   5.479
 5689POPC   GL173189   3.453  16.579   5.823
 5689POPC   GL273190   3.282  16.309   5.701
 5689POPC   C1A73191   3.479  16.738   6.221
 5689POPC   D2A73192   3.713  16.734   6.598
 5689POPC   C3A73193   3.525  16.774   7.034
 5689POPC   C4A73194   3.593  16.774   7.504
 5689POPC   C1B73195   3.153  16.313   6.143
 5689POPC   C2B73196   3.242  16.427   6.567
 5689POPC   C3B73197   3.301  16.309   6.984
 5689POPC   C4B73198   3.160  16.544   7.350
 5690POPC   NC373199  36.339  15.547   5.504
 5690POPC   PO473200  35.977  15.981   5.268
 5690POPC   GL173201  36.228  16.033   5.679
 5690POPC   GL273202  36.512  16.316   5.737
 5690POPC   C1A73203  36.060  15.927   6.094
 5690POPC   D2A73204  36.031  16.059   6.503
 5690POPC   C3A73205  36.190  15.863   6.816
 5690POPC   C4A73206  36.140  15.775   7.211
 5690POPC   C1B73207  36.421  16.274   6.205
 5690POPC   C2B73208  36.455  16.294   6.666
 5690POPC   C3B73209  36.261  16.288   7.079
 5690POPC   C4B73210  36.536  16.150   7.365
 5691POPC   NC373211  31.858  13.589   5.392
 5691POPC   PO473212  31.511  13.970   5.838
 5691POPC   GL173213  31.963  13.804   5.873
 5691POPC   GL273214  32.174  13.481   5.792
 5691POPC   C1A73215  32.228  13.772   6.231
 5691POPC   D2A73216  32.009  13.865   6.636
 5691POPC   C3A73217  32.250  13.830   7.004
 5691POPC   C4A73218  32.525  13.684   7.313
 5691POPC   C1B73219  32.206  13.225   6.175
 5691POPC   C2B73220  32.197  13.382   6.604
 5691POPC   C3B73221  32.333  13.327   7.004
 5691POPC   C4B73222  32.195  13.282   7.408
 5692POPC   NC373223  27.356  35.275   5.260
 5692POPC   PO473224  27.857  35.140   5.666
 5692POPC   GL173225  27.643  35.463   5.860
 5692POPC   GL273226  27.281  35.349   5.765
 5692POPC   C1A73227  27.790  35.543   6.314
 5692POPC   D2A73228  28.016  35.261   6.614
 5692POPC   C3A73229  27.754  35.139   6.969
 5692POPC   C4A73230  27.581  35.429   7.292
 5692POPC   C1B73231  27.311  35.304   6.210
 5692POPC   C2B73232  27.401  35.391   6.657
 5692POPC   C3B73233  27.156  35.418   7.024
 5692POPC   C4B73234  27.122  35.778   7.302
 5693POPC   NC373235  40.249  14.138   5.424
 5693POPC   PO473236  40.256  14.745   5.700
 5693POPC   GL173237  40.211  14.348   5.894
 5693POPC   GL273238  39.869  14.250   5.758
 5693POPC   C1A73239  40.239  14.262   6.338
 5693POPC   D2A73240  40.109  14.476   6.719
 5693POPC   C3A73241  40.197  14.509   7.166
 5693POPC   C4A73242  39.849  14.460   7.484
 5693POPC   C1B73243  39.751  14.187   6.179
 5693POPC   C2B73244  39.626  14.281   6.603
 5693POPC   C3B73245  39.792  14.192   7.018
 5693POPC   C4B73246  39.621  14.021   7.396
 5694POPC   NC373247  34.052  32.992   5.200
 5694POPC   PO473248  34.652  33.232   5.226
 5694POPC   GL173249  34.569  33.095   5.655
 5694POPC   GL273250  34.201  32.970   5.690
 5694POPC   C1A73251  34.786  33.215   6.066
 5694POPC   D2A73252  34.957  33.105   6.486
 5694POPC   C3A73253  34.809  33.310   6.858
 5694POPC   C4A73254  34.783  33.332   7.272
 5694POPC   C1B73255  34.260  33.267   6.033
 5694POPC   C2B73256  34.388  33.319   6.475
 5694POPC   C3B73257  34.341  33.129   6.898
 5694POPC   C4B73258  34.291  33.268   7.295
 5695POPC   NC373259  14.068   1.794   5.406
 5695POPC   PO473260  14.241   1.248   5.080
 5695POPC   GL173261  14.338   1.392   5.611
 5695POPC   GL273262  14.084   1.562   5.878
 5695POPC   C1A73263  14.497   1.364   6.116
 5695POPC   D2A73264  14.419   1.449   6.624
 5695POPC   C3A73265  14.479   1.103   6.963
 5695POPC   C4A73266  14.856   1.021   7.250
 5695POPC   C1B73267  13.951   1.577   6.366
 5695POPC   C2B73268  13.963   1.585   6.858
 5695POPC   C3B73269  13.958   1.279   7.222
 5695POPC   C4B73270  13.965   1.268   7.705
 5696POPC   NC373271  11.073  29.280   5.355
 5696POPC   PO473272  11.648  28.872   5.587
 5696POPC   GL173273  11.291  29.091   5.776
 5696POPC   GL273274  11.064  28.847   5.865
 5696POPC   C1A73275  11.293  29.331   6.127
 5696POPC   D2A73276  11.582  29.338   6.454
 5696POPC   C3A73277  11.381  29.266   6.845
 5696POPC   C4A73278  11.472  29.272   7.286
 5696POPC   C1B73279  10.900  28.910   6.217
 5696POPC   C2B73280  11.084  28.867   6.593
 5696POPC   C3B73281  10.941  29.023   6.941
 5696POPC   C4B73282  10.984  29.113   7.348
 5697POPC   NC373283   1.788  25.242   5.572
 5697POPC   PO473284   1.261  25.543   5.239
 5697POPC   GL173285   1.338  25.493   5.718
 5697POPC   GL273286   1.339  25.109   5.800
 5697POPC   C1A73287   1.406  25.423   6.193
 5697POPC   D2A73288   1.149  25.270   6.534
 5697POPC   C3A73289   1.194  25.485   6.935
 5697POPC   C4A73290   1.097  25.172   7.234
 5697POPC   C1B73291   1.459  24.917   6.221
 5697POPC   C2B73292   1.712  24.785   6.571
 5697POPC   C3B73293   1.662  24.858   6.989
 5697POPC   C4B73294   1.340  24.721   7.234
 5698POPC   NC373295  42.247  11.949   5.596
 5698POPC   PO473296  42.748  12.415   5.529
 5698POPC   GL173297  42.699  12.091   5.868
 5698POPC   GL273298  42.817  12.325   6.092
 5698POPC   C1A73299  42.481  11.882   6.246
 5698POPC   D2A73300  42.118  11.959   6.568
 5698POPC   C3A73301  42.126  11.988   7.051
 5698POPC   C4A73302  42.382  11.932   7.424
 5698POPC   C1B73303  42.417  12.395   6.358
 5698POPC   C2B73304  42.212  12.418   6.781
 5698POPC   C3B73305  42.348  12.444   7.230
 5698POPC   C4B73306  42.513  12.370   7.672
 5699POPC   NC373307  11.180  10.919   5.395
 5699POPC   PO473308  11.298  11.609   5.370
 5699POPC   GL173309  11.494  11.458   5.754
 5699POPC   GL273310  11.449  11.098   5.793
 5699POPC   C1A73311  11.417  11.528   6.191
 5699POPC   D2A73312  11.336  11.298   6.582
 5699POPC   C3A73313  11.498  11.563   6.899
 5699POPC   C4A73314  11.314  11.696   7.260
 5699POPC   C1B73315  11.331  10.898   6.175
 5699POPC   C2B73316  11.119  10.763   6.537
 5699POPC   C3B73317  11.176  10.949   6.929
 5699POPC   C4B73318  11.459  11.162   7.204
 5700POPC   NC373319  17.963   7.611   5.172
 5700POPC   PO473320  18.562   7.611   5.472
 5700POPC   GL173321  18.265   7.499   5.777
 5700POPC   GL273322  17.952   7.612   5.703
 5700POPC   C1A73323  18.357   7.348   6.187
 5700POPC   D2A73324  18.408   7.406   6.614
 5700POPC   C3A73325  18.329   7.048   6.849
 5700POPC   C4A73326  18.223   7.181   7.252
 5700POPC   C1B73327  17.864   7.373   6.087
 5700POPC   C2B73328  17.930   7.563   6.482
 5700POPC   C3B73329  17.926   7.439   6.901
 5700POPC   C4B73330  17.710   7.185   7.190
 5701POPC   NC373331  35.512  28.215   5.320
 5701POPC   PO473332  35.182  28.698   5.549
 5701POPC   GL173333  35.354  28.423   5.774
 5701POPC   GL273334  35.062  28.232   5.822
 5701POPC   C1A73335  35.593  28.488   6.134
 5701POPC   D2A73336  35.792  28.263   6.453
 5701POPC   C3A73337  35.757  28.471   6.863
 5701POPC   C4A73338  35.666  28.297   7.271
 5701POPC   C1B73339  35.080  28.493   6.207
 5701POPC   C2B73340  35.308  28.410   6.593
 5701POPC   C3B73341  35.231  28.354   7.025
 5701POPC   C4B73342  35.269  28.562   7.443
 5702POPC   NC373343  34.093  31.386   5.400
 5702POPC   PO473344  34.670  31.827   5.351
 5702POPC   GL173345  34.682  31.492   5.703
 5702POPC   GL273346  34.346  31.518   5.829
 5702POPC   C1A73347  34.729  31.234   6.126
 5702POPC   D2A73348  34.521  31.316   6.567
 5702POPC   C3A73349  34.718  31.257   7.008
 5702POPC   C4A73350  34.665  31.471   7.425
 5702POPC   C1B73351  34.538  31.688   6.198
 5702POPC   C2B73352  34.569  31.863   6.582
 5702POPC   C3B73353  34.525  31.743   6.976
 5702POPC   C4B73354  34.549  31.978   7.316
 5703POPC   NC373355   1.071  11.006   5.254
 5703POPC   PO473356   1.132  11.696   5.376
 5703POPC   GL173357   1.135  11.335   5.650
 5703POPC   GL273358   1.196  11.531   5.913
 5703POPC   C1A73359   1.212  11.035   6.018
 5703POPC   D2A73360   1.277  10.976   6.461
 5703POPC   C3A73361   0.988  11.089   6.805
 5703POPC   C4A73362   1.191  11.091   7.199
 5703POPC   C1B73363   1.082  11.435   6.357
 5703POPC   C2B73364   1.345  11.467   6.751
 5703POPC   C3B73365   1.428  11.554   7.192
 5703POPC   C4B73366   1.140  11.517   7.580
 5704POPC   NC373367  18.461  31.632   5.370
 5704POPC   PO473368  18.209  31.108   5.619
 5704POPC   GL173369  18.424  31.373   5.848
 5704POPC   GL273370  18.219  31.659   5.834
 5704POPC   C1A73371  18.391  31.366   6.271
 5704POPC   D2A73372  18.124  31.234   6.630
 5704POPC   C3A73373  18.295  31.137   7.038
 5704POPC   C4A73374  18.286  31.410   7.408
 5704POPC   C1B73375  18.198  31.856   6.259
 5704POPC   C2B73376  18.328  31.722   6.685
 5704POPC   C3B73377  18.280  31.843   7.118
 5704POPC   C4B73378  18.339  31.911   7.559
 5705POPC   NC373379  11.897  23.890   5.329
 5705POPC   PO473380  12.026  23.245   5.487
 5705POPC   GL173381  12.088  23.662   5.786
 5705POPC   GL273382  11.876  24.020   5.808
 5705POPC   C1A73383  12.369  23.694   6.161
 5705POPC   D2A73384  12.514  23.396   6.496
 5705POPC   C3A73385  12.230  23.387   6.872
 5705POPC   C4A73386  12.237  23.493   7.301
 5705POPC   C1B73387  11.986  24.069   6.212
 5705POPC   C2B73388  12.061  23.816   6.572
 5705POPC   C3B73389  12.110  23.873   6.998
 5705POPC   C4B73390  11.833  23.886   7.306
 5706POPC   NC373391   7.429   3.034   5.455
 5706POPC   PO473392   7.309   2.291   5.622
 5706POPC   GL173393   7.333   2.677   5.920
 5706POPC   GL273394   7.602   2.971   5.927
 5706POPC   C1A73395   7.421   2.751   6.368
 5706POPC   D2A73396   7.653   2.877   6.718
 5706POPC   C3A73397   7.573   2.658   7.100
 5706POPC   C4A73398   7.289   2.398   7.243
 5706POPC   C1B73399   7.334   3.240   6.181
 5706POPC   C2B73400   7.190   3.202   6.614
 5706POPC   C3B73401   7.170   2.937   6.980
 5706POPC   C4B73402   7.262   2.912   7.415
 5707POPC   NC373403  34.254  10.944   4.968
 5707POPC   PO473404  33.775  10.557   5.260
 5707POPC   GL173405  33.763  10.395   5.702
 5707POPC   GL273406  33.834  10.688   5.819
 5707POPC   C1A73407  33.609  10.474   6.192
 5707POPC   D2A73408  33.529  10.255   6.576
 5707POPC   C3A73409  33.625  10.438   6.943
 5707POPC   C4A73410  33.831  10.361   7.298
 5707POPC   C1B73411  33.990  10.872   6.156
 5707POPC   C2B73412  33.825  10.933   6.553
 5707POPC   C3B73413  33.946  10.828   6.961
 5707POPC   C4B73414  33.626  10.922   7.237
 5708POPC   NC373415  30.238   7.328   5.442
 5708POPC   PO473416  29.609   7.425   5.484
 5708POPC   GL173417  29.898   7.456   5.798
 5708POPC   GL273418  29.940   7.095   5.801
 5708POPC   C1A73419  29.925   7.411   6.247
 5708POPC   D2A73420  30.127   7.482   6.646
 5708POPC   C3A73421  29.802   7.386   6.940
 5708POPC   C4A73422  29.806   7.540   7.331
 5708POPC   C1B73423  30.155   6.942   6.188
 5708POPC   C2B73424  30.015   6.959   6.623
 5708POPC   C3B73425  30.233   7.117   7.004
 5708POPC   C4B73426  30.221   7.152   7.433
 5709POPC   NC373427  10.989   4.464   5.472
 5709POPC   PO473428  10.263   4.525   5.327
 5709POPC   GL173429  10.486   4.571   5.724
 5709POPC   GL273430  10.625   4.252   5.808
 5709POPC   C1A73431  10.308   4.559   6.166
 5709POPC   D2A73432  10.506   4.558   6.573
 5709POPC   C3A73433  10.385   4.287   6.870
 5709POPC   C4A73434  10.443   4.502   7.220
 5709POPC   C1B73435  10.834   4.392   6.198
 5709POPC   C2B73436  10.939   4.238   6.614
 5709POPC   C3B73437  10.888   4.383   7.028
 5709POPC   C4B73438  10.794   4.257   7.493
 5710POPC   NC373439  41.919  27.443   5.212
 5710POPC   PO473440  41.389  27.722   5.498
 5710POPC   GL173441  41.632  27.626   5.827
 5710POPC   GL273442  41.575  27.297   5.819
 5710POPC   C1A73443  41.577  27.754   6.235
 5710POPC   D2A73444  41.603  27.530   6.615
 5710POPC   C3A73445  41.395  27.572   7.004
 5710POPC   C4A73446  41.478  27.597   7.440
 5710POPC   C1B73447  41.786  27.246   6.211
 5710POPC   C2B73448  41.914  27.133   6.641
 5710POPC   C3B73449  41.910  27.443   7.016
 5710POPC   C4B73450  41.936  27.375   7.461
 5711POPC   NC373451  28.441  32.558   5.161
 5711POPC   PO473452  28.370  32.018   5.529
 5711POPC   GL173453  28.486  31.995   5.925
 5711POPC   GL273454  28.185  31.773   5.941
 5711POPC   C1A73455  28.566  32.326   6.280
 5711POPC   D2A73456  28.728  32.604   6.634
 5711POPC   C3A73457  28.594  32.493   7.067
 5711POPC   C4A73458  28.209  32.369   7.228
 5711POPC   C1B73459  28.205  31.967   6.345
 5711POPC   C2B73460  28.358  32.116   6.759
 5711POPC   C3B73461  28.448  31.927   7.157
 5711POPC   C4B73462  28.215  31.925   7.566
 5712POPC   NC373463  29.761  33.563   5.377
 5712POPC   PO473464  30.242  34.014   5.570
 5712POPC   GL173465  29.864  33.923   5.795
 5712POPC   GL273466  29.910  33.590   5.859
 5712POPC   C1A73467  29.776  33.889   6.244
 5712POPC   D2A73468  30.006  33.895   6.595
 5712POPC   C3A73469  29.787  33.772   6.936
 5712POPC   C4A73470  29.758  33.737   7.354
 5712POPC   C1B73471  30.234  33.650   6.169
 5712POPC   C2B73472  30.397  33.540   6.553
 5712POPC   C3B73473  30.441  33.815   6.872
 5712POPC   C4B73474  30.217  33.933   7.227
 5713POPC   NC373475  25.720  30.452   5.295
 5713POPC   PO473476  26.120  30.917   5.555
 5713POPC   GL173477  25.847  30.781   5.859
 5713POPC   GL273478  26.098  30.513   5.896
 5713POPC   C1A73479  25.760  31.057   6.228
 5713POPC   D2A73480  26.062  31.065   6.567
 5713POPC   C3A73481  26.074  30.716   6.851
 5713POPC   C4A73482  25.914  30.802   7.264
 5713POPC   C1B73483  26.353  30.243   6.149
 5713POPC   C2B73484  26.511  30.296   6.566
 5713POPC   C3B73485  26.535  30.462   6.960
 5713POPC   C4B73486  26.221  30.391   7.249
 5714POPC   NC373487  13.798  15.588   5.360
 5714POPC   PO473488  13.303  15.914   5.200
 5714POPC   GL173489  13.410  15.934   5.669
 5714POPC   GL273490  13.103  15.983   5.848
 5714POPC   C1A73491  13.530  16.125   6.127
 5714POPC   D2A73492  13.379  16.077   6.603
 5714POPC   C3A73493  13.598  16.221   7.013
 5714POPC   C4A73494  13.955  16.188   7.343
 5714POPC   C1B73495  13.203  15.744   6.232
 5714POPC   C2B73496  13.289  15.561   6.669
 5714POPC   C3B73497  13.336  15.720   7.123
 5714POPC   C4B73498  13.444  16.012   7.477
 5715POPC   NC373499   9.197   0.512   5.389
 5715POPC   PO473500   8.839   0.007   5.688
 5715POPC   GL173501   8.902   0.437   5.856
 5715POPC   GL273502   8.559   0.622   5.826
 5715POPC   C1A73503   9.092   0.449   6.298
 5715POPC   D2A73504   8.978   0.089   6.594
 5715POPC   C3A73505   8.965   0.180   7.012
 5715POPC   C4A73506   9.088   0.603   7.123
 5715POPC   C1B73507   8.605   0.533   6.272
 5715POPC   C2B73508   8.740   0.546   6.707
 5715POPC   C3B73509   8.578   0.535   7.118
 5715POPC   C4B73510   8.607   0.255   7.419
 5716POPC   NC373511  21.344  14.379   5.292
 5716POPC   PO473512  21.360  15.061   5.155
 5716POPC   GL173513  21.420  14.803   5.668
 5716POPC   GL273514  21.676  14.538   5.824
 5716POPC   C1A73515  21.211  14.497   6.042
 5716POPC   D2A73516  21.222  14.211   6.435
 5716POPC   C3A73517  21.025  14.319   6.848
 5716POPC   C4A73518  21.184  14.458   7.243
 5716POPC   C1B73519  21.695  14.386   6.308
 5716POPC   C2B73520  21.547  14.479   6.765
 5716POPC   C3B73521  21.695  14.340   7.183
 5716POPC   C4B73522  21.813  14.138   7.573
 5717POPC   NC373523  44.795  28.144   5.551
 5717POPC   PO473524  44.320  28.632   5.663
 5717POPC   GL173525  44.613  28.478   5.967
 5717POPC   GL273526  44.845  28.194   6.057
 5717POPC   C1A73527  44.819  28.643   6.340
 5717POPC   D2A73528  44.839  28.399   6.713
 5717POPC   C3A73529  44.539  28.484   7.001
 5717POPC   C4A73530  44.713  28.684   7.329
 5717POPC   C1B73531  44.508  27.972   6.255
 5717POPC   C2B73532  44.387  28.023   6.674
 5717POPC   C3B73533  44.601  27.983   7.049
 5717POPC   C4B73534  44.510  28.175   7.418
 5718POPC   NC373535  44.261   2.081   5.610
 5718POPC   PO473536  43.657   1.673   5.485
 5718POPC   GL173537  43.868   1.770   5.840
 5718POPC   GL273538  43.803   2.119   5.915
 5718POPC   C1A73539  43.731   1.782   6.276
 5718POPC   D2A73540  43.605   2.165   6.515
 5718POPC   C3A73541  43.507   2.029   6.932
 5718POPC   C4A73542  43.794   1.762   7.161
 5718POPC   C1B73543  44.109   2.248   6.240
 5718POPC   C2B73544  44.346   2.339   6.615
 5718POPC   C3B73545  44.176   2.126   6.971
 5718POPC   C4B73546  43.864   2.277   7.189
 5719POPC   NC373547  25.312  21.732   5.495
 5719POPC   PO473548  24.841  21.214   5.468
 5719POPC   GL173549  25.045  21.410   5.799
 5719POPC   GL273550  24.858  21.702   5.878
 5719POPC   C1A73551  25.367  21.435   6.112
 5719POPC   D2A73552  25.277  21.347   6.534
 5719POPC   C3A73553  25.489  21.349   6.899
 5719POPC   C4A73554  25.381  21.365   7.287
 5719POPC   C1B73555  24.956  21.690   6.317
 5719POPC   C2B73556  24.831  21.504   6.722
 5719POPC   C3B73557  25.009  21.643   7.100
 5719POPC   C4B73558  24.964  21.627   7.574
 5720POPC   NC373559   1.601  29.698   5.304
 5720POPC   PO473560   0.961  29.808   5.484
 5720POPC   GL173561   1.114  29.831   5.851
 5720POPC   GL273562   1.465  29.924   5.756
 5720POPC   C1A73563   0.893  29.860   6.220
 5720POPC   D2A73564   0.860  30.078   6.605
 5720POPC   C3A73565   1.045  30.010   6.989
 5720POPC   C4A73566   0.932  29.795   7.358
 5720POPC   C1B73567   1.483  29.910   6.202
 5720POPC   C2B73568   1.387  30.104   6.566
 5720POPC   C3B73569   1.533  29.868   6.890
 5720POPC   C4B73570   1.432  29.841   7.306
 5721POPC   NC373571  33.078  39.772   5.454
 5721POPC   PO473572  32.993  40.367   5.564
 5721POPC   GL173573  33.306  40.308   5.921
 5721POPC   GL273574  33.268  39.951   5.914
 5721POPC   C1A73575  33.389  40.383   6.407
 5721POPC   D2A73576  33.338  40.041   6.740
 5721POPC   C3A73577  33.089  40.010   7.139
 5721POPC   C4A73578  33.061  40.258   7.545
 5721POPC   C1B73579  33.006  40.076   6.290
 5721POPC   C2B73580  32.824  40.151   6.718
 5721POPC   C3B73581  32.594  39.988   7.081
 5721POPC   C4B73582  32.735  39.841   7.500
 5722POPC   NC373583  25.819   2.866   5.520
 5722POPC   PO473584  26.268   2.370   5.616
 5722POPC   GL173585  26.209   2.815   5.845
 5722POPC   GL273586  25.860   2.990   5.994
 5722POPC   C1A73587  26.282   3.008   6.242
 5722POPC   D2A73588  26.298   2.821   6.611
 5722POPC   C3A73589  26.325   3.003   7.005
 5722POPC   C4A73590  26.316   2.740   7.321
 5722POPC   C1B73591  25.822   2.534   6.114
 5722POPC   C2B73592  25.769   2.471   6.551
 5722POPC   C3B73593  25.885   2.744   6.885
 5722POPC   C4B73594  25.793   2.688   7.275
 5723POPC   NC373595  36.503  43.139   5.506
 5723POPC   PO473596  35.835  43.147   5.457
 5723POPC   GL173597  35.979  42.990   5.859
 5723POPC   GL273598  36.241  43.206   5.926
 5723POPC   C1A73599  36.137  42.810   6.286
 5723POPC   D2A73600  36.423  42.841   6.669
 5723POPC   C3A73601  36.253  42.887   7.101
 5723POPC   C4A73602  35.810  43.013   7.151
 5723POPC   C1B73603  36.054  43.321   6.290
 5723POPC   C2B73604  36.320  43.403   6.626
 5723POPC   C3B73605  36.206  43.415   7.048
 5723POPC   C4B73606  36.401  43.398   7.451
 5724POPC   NC373607  12.338   7.798   5.444
 5724POPC   PO473608  12.285   7.118   5.279
 5724POPC   GL173609  12.049   7.344   5.655
 5724POPC   GL273610  11.957   7.712   5.803
 5724POPC   C1A73611  12.123   7.348   6.113
 5724POPC   D2A73612  11.963   7.232   6.518
 5724POPC   C3A73613  12.288   7.231   6.829
 5724POPC   C4A73614  12.321   7.042   7.227
 5724POPC   C1B73615  11.729   7.649   6.222
 5724POPC   C2B73616  11.560   7.542   6.621
 5724POPC   C3B73617  11.742   7.372   6.972
 5724POPC   C4B73618  12.081   7.540   7.168
 5725POPC   NC373619   3.364   0.415   5.360
 5725POPC   PO473620   2.637   0.324   5.443
 5725POPC   GL173621   2.743   0.508   5.845
 5725POPC   GL273622   3.093   0.435   5.821
 5725POPC   C1A73623   2.873   0.634   6.279
 5725POPC   D2A73624   3.126   0.792   6.655
 5725POPC   C3A73625   2.895   0.690   7.017
 5725POPC   C4A73626   2.490   0.490   7.077
 5725POPC   C1B73627   2.918   0.140   6.155
 5725POPC   C2B73628   2.737   0.232   6.582
 5725POPC   C3B73629   2.895   0.173   6.974
 5725POPC   C4B73630   2.921   0.044   7.386
 5726POPC   NC373631  13.998  23.417   5.537
 5726POPC   PO473632  13.775  22.774   5.420
 5726POPC   GL173633  13.794  22.998   5.792
 5726POPC   GL273634  13.609  23.269   5.848
 5726POPC   C1A73635  13.620  22.888   6.182
 5726POPC   D2A73636  13.792  22.619   6.433
 5726POPC   C3A73637  13.793  22.716   6.840
 5726POPC   C4A73638  13.780  22.744   7.236
 5726POPC   C1B73639  13.812  23.350   6.222
 5726POPC   C2B73640  13.693  23.154   6.613
 5726POPC   C3B73641  13.644  23.222   7.043
 5726POPC   C4B73642  13.404  23.421   7.377
 5727POPC   NC373643   8.286  26.994   5.551
 5727POPC   PO473644   8.079  26.460   5.272
 5727POPC   GL173645   8.133  26.559   5.786
 5727POPC   GL273646   8.042  26.909   5.981
 5727POPC   C1A73647   8.403  26.652   6.196
 5727POPC   D2A73648   8.231  26.910   6.539
 5727POPC   C3A73649   8.352  26.738   6.914
 5727POPC   C4A73650   8.164  26.703   7.279
 5727POPC   C1B73651   7.886  27.217   6.267
 5727POPC   C2B73652   7.943  27.329   6.682
 5727POPC   C3B73653   7.946  27.093   7.040
 5727POPC   C4B73654   7.864  27.075   7.486
 5728POPC   NC373655   7.460  28.678   5.606
 5728POPC   PO473656   7.361  27.972   5.415
 5728POPC   GL173657   7.576  28.204   5.739
 5728POPC   GL273658   7.255  28.262   5.858
 5728POPC   C1A73659   7.638  28.470   6.173
 5728POPC   D2A73660   7.433  28.620   6.564
 5728POPC   C3A73661   7.524  28.425   6.988
 5728POPC   C4A73662   7.659  28.364   7.432
 5728POPC   C1B73663   7.241  28.178   6.288
 5728POPC   C2B73664   7.186  28.186   6.700
 5728POPC   C3B73665   7.176  28.032   7.078
 5728POPC   C4B73666   7.146  28.312   7.393
 5729POPC   NC373667  44.051  23.576   4.970
 5729POPC   PO473668  44.073  23.887   5.575
 5729POPC   GL173669  43.843  23.736   5.884
 5729POPC   GL273670  43.548  23.943   5.853
 5729POPC   C1A73671  43.975  23.587   6.293
 5729POPC   D2A73672  44.109  23.841   6.635
 5729POPC   C3A73673  44.114  23.675   7.028
 5729POPC   C4A73674  43.970  23.631   7.466
 5729POPC   C1B73675  43.467  23.611   6.197
 5729POPC   C2B73676  43.548  23.597   6.638
 5729POPC   C3B73677  43.619  23.814   7.022
 5729POPC   C4B73678  43.724  24.068   7.380
 5730POPC   NC373679   9.224  34.702   5.348
 5730POPC   PO473680   8.614  34.399   5.405
 5730POPC   GL173681   8.785  34.285   5.824
 5730POPC   GL273682   8.998  34.596   5.899
 5730POPC   C1A73683   8.825  34.331   6.301
 5730POPC   D2A73684   8.947  34.590   6.627
 5730POPC   C3A73685   9.200  34.477   6.967
 5730POPC   C4A73686   8.868  34.620   7.168
 5730POPC   C1B73687   9.206  34.854   6.267
 5730POPC   C2B73688   9.189  35.024   6.738
 5730POPC   C3B73689   9.228  35.002   7.227
 5730POPC   C4B73690   9.330  35.029   7.707
 5731POPC   NC373691  44.859   7.857   5.522
 5731POPC   PO473692  44.689   7.185   5.294
 5731POPC   GL173693  44.720   7.388   5.715
 5731POPC   GL273694   0.035   7.478   5.795
 5731POPC   C1A73695  44.603   7.400   6.193
 5731POPC   D2A73696  44.351   7.433   6.631
 5731POPC   C3A73697  44.416   7.569   7.094
 5731POPC   C4A73698  44.439   7.267   7.453
 5731POPC   C1B73699   0.140   7.356   6.216
 5731POPC   C2B73700  44.892   7.132   6.550
 5731POPC   C3B73701  44.661   7.112   6.955
 5731POPC   C4B73702  44.886   7.375   7.242
 5732POPC   NC373703   3.535   3.535   5.393
 5732POPC   PO473704   3.750   2.946   5.506
 5732POPC   GL173705   3.715   3.309   5.839
 5732POPC   GL273706   3.548   3.675   5.865
 5732POPC   C1A73707   3.670   3.439   6.293
 5732POPC   D2A73708   3.478   3.530   6.701
 5732POPC   C3A73709   3.701   3.311   7.045
 5732POPC   C4A73710   3.739   3.380   7.514
 5732POPC   C1B73711   3.233   3.761   6.182
 5732POPC   C2B73712   3.025   3.846   6.582
 5732POPC   C3B73713   3.003   3.656   6.994
 5732POPC   C4B73714   3.263   3.475   7.331
 5733POPC   NC373715  42.547  22.681   5.500
 5733POPC   PO473716  41.970  23.069   5.480
 5733POPC   GL173717  42.183  22.866   5.839
 5733POPC   GL273718  42.471  23.087   5.819
 5733POPC   C1A73719  42.411  22.840   6.269
 5733POPC   D2A73720  42.570  22.775   6.700
 5733POPC   C3A73721  42.287  22.756   7.089
 5733POPC   C4A73722  42.205  22.713   7.553
 5733POPC   C1B73723  42.528  23.348   6.188
 5733POPC   C2B73724  42.651  23.268   6.613
 5733POPC   C3B73725  42.615  23.161   7.055
 5733POPC   C4B73726  42.653  22.925   7.431
 5734POPC   NC373727  35.033  22.644   5.725
 5734POPC   PO473728  35.521  22.776   5.282
 5734POPC   GL173729  35.650  22.822   5.730
 5734POPC   GL273730  35.776  23.167   5.820
 5734POPC   C1A73731  35.590  22.831   6.205
 5734POPC   D2A73732  35.310  22.688   6.550
 5734POPC   C3A73733  35.149  22.785   6.963
 5734POPC   C4A73734  35.468  22.740   7.279
 5734POPC   C1B73735  35.494  23.336   6.136
 5734POPC   C2B73736  35.573  23.288   6.548
 5734POPC   C3B73737  35.549  23.109   6.924
 5734POPC   C4B73738  35.356  23.240   7.288
 5735POPC   NC373739  31.788  14.324   5.689
 5735POPC   PO473740  31.174  14.515   5.495
 5735POPC   GL173741  31.317  14.460   5.907
 5735POPC   GL273742  31.557  14.731   5.937
 5735POPC   C1A73743  31.410  14.400   6.360
 5735POPC   D2A73744  31.209  14.508   6.757
 5735POPC   C3A73745  31.313  14.239   7.046
 5735POPC   C4A73746  31.232  14.149   7.439
 5735POPC   C1B73747  31.843  14.675   6.249
 5735POPC   C2B73748  31.674  14.776   6.622
 5735POPC   C3B73749  31.775  14.623   6.973
 5735POPC   C4B73750  31.597  14.542   7.326
 5736POPC   NC373751  31.661  37.321   5.479
 5736POPC   PO473752  31.650  37.933   5.532
 5736POPC   GL173753  31.442  37.633   5.833
 5736POPC   GL273754  31.196  37.368   5.726
 5736POPC   C1A73755  31.536  37.572   6.279
 5736POPC   D2A73756  31.657  37.850   6.634
 5736POPC   C3A73757  31.578  37.770   7.080
 5736POPC   C4A73758  31.903  37.688   7.358
 5736POPC   C1B73759  31.177  37.193   6.166
 5736POPC   C2B73760  31.300  37.150   6.615
 5736POPC   C3B73761  31.213  37.405   7.008
 5736POPC   C4B73762  31.025  37.759   7.222
 5737POPC   NC373763  31.866  44.981   5.556
 5737POPC   PO473764  31.175   0.060   5.615
 5737POPC   GL173765  31.256  44.667   5.870
 5737POPC   GL273766  31.626  44.546   5.800
 5737POPC   C1A73767  31.112  44.562   6.315
 5737POPC   D2A73768  31.333  44.726   6.675
 5737POPC   C3A73769  31.372  44.561   7.094
 5737POPC   C4A73770  31.181  44.842   7.384
 5737POPC   C1B73771  31.656  44.602   6.273
 5737POPC   C2B73772  31.823  44.826   6.648
 5737POPC   C3B73773  31.626  44.989   7.037
 5737POPC   C4B73774  31.679  44.823   7.480
 5738POPC   NC373775  30.024  21.313   5.157
 5738POPC   PO473776  29.613  21.798   5.338
 5738POPC   GL173777  29.927  21.538   5.740
 5738POPC   GL273778  29.776  21.222   5.911
 5738POPC   C1A73779  30.215  21.337   6.128
 5738POPC   D2A73780  30.401  21.240   6.575
 5738POPC   C3A73781  30.109  21.370   6.927
 5738POPC   C4A73782  30.048  21.738   7.218
 5738POPC   C1B73783  29.754  21.563   6.242
 5738POPC   C2B73784  29.700  21.720   6.668
 5738POPC   C3B73785  29.609  21.525   7.049
 5738POPC   C4B73786  29.734  21.403   7.472
 5739POPC   NC373787  42.660  30.492   5.524
 5739POPC   PO473788  42.161  30.936   5.432
 5739POPC   GL173789  42.083  30.820   5.866
 5739POPC   GL273790  42.211  30.501   5.809
 5739POPC   C1A73791  42.142  30.705   6.322
 5739POPC   D2A73792  42.096  30.572   6.779
 5739POPC   C3A73793  42.346  30.783   7.112
 5739POPC   C4A73794  42.589  30.773   7.489
 5739POPC   C1B73795  42.372  30.269   6.163
 5739POPC   C2B73796  42.582  30.406   6.536
 5739POPC   C3B73797  42.522  30.235   6.920
 5739POPC   C4B73798  42.659  30.291   7.350
 5740POPC   NC373799   7.736  25.264   5.513
 5740POPC   PO473800   8.230  25.570   5.184
 5740POPC   GL173801   8.186  25.413   5.698
 5740POPC   GL273802   8.137  25.044   5.694
 5740POPC   C1A73803   8.414  25.512   6.139
 5740POPC   D2A73804   8.291  25.351   6.541
 5740POPC   C3A73805   8.354  25.499   6.965
 5740POPC   C4A73806   8.058  25.425   7.302
 5740POPC   C1B73807   8.155  25.026   6.128
 5740POPC   C2B73808   8.176  24.855   6.546
 5740POPC   C3B73809   8.112  25.028   6.951
 5740POPC   C4B73810   8.363  24.997   7.286
 5741POPC   NC373811  33.307  15.338   5.408
 5741POPC   PO473812  32.805  14.847   5.449
 5741POPC   GL173813  33.038  15.005   5.827
 5741POPC   GL273814  33.062  15.355   5.849
 5741POPC   C1A73815  33.239  14.955   6.240
 5741POPC   D2A73816  33.136  15.106   6.663
 5741POPC   C3A73817  33.247  14.919   7.064
 5741POPC   C4A73818  32.982  14.766   7.378
 5741POPC   C1B73819  33.364  15.432   6.148
 5741POPC   C2B73820  33.551  15.457   6.556
 5741POPC   C3B73821  33.451  15.372   6.972
 5741POPC   C4B73822  33.104  15.410   7.238
 5742POPC   NC373823  18.124  44.636   5.493
 5742POPC   PO473824  18.747  44.410   5.640
 5742POPC   GL173825  18.493  44.702   5.862
 5742POPC   GL273826  18.170  44.593   5.990
 5742POPC   C1A73827  18.520  44.824   6.286
 5742POPC   D2A73828  18.693  44.601   6.645
 5742POPC   C3A73829  18.491  44.852   6.941
 5742POPC   C4A73830  18.123   0.048   7.110
 5742POPC   C1B73831  18.434  44.324   6.254
 5742POPC   C2B73832  18.226  44.370   6.619
 5742POPC   C3B73833  18.391  44.342   7.005
 5742POPC   C4B73834  18.323  44.595   7.335
 5743POPC   NC373835  32.598  20.768   5.521
 5743POPC   PO473836  33.320  20.765   5.645
 5743POPC   GL173837  32.962  20.748   5.874
 5743POPC   GL273838  32.821  20.397   5.851
 5743POPC   C1A73839  32.757  20.745   6.250
 5743POPC   D2A73840  32.916  20.639   6.632
 5743POPC   C3A73841  32.795  20.756   7.012
 5743POPC   C4A73842  32.992  20.723   7.407
 5743POPC   C1B73843  33.138  20.396   6.203
 5743POPC   C2B73844  33.292  20.267   6.607
 5743POPC   C3B73845  33.155  20.379   7.017
 5743POPC   C4B73846  33.232  20.280   7.440
 5744POPC   NC373847  36.026  38.661   5.267
 5744POPC   PO473848  36.056  39.290   5.223
 5744POPC   GL173849  36.135  39.171   5.690
 5744POPC   GL273850  36.474  39.116   5.811
 5744POPC   C1A73851  35.937  39.121   6.138
 5744POPC   D2A73852  35.958  39.212   6.613
 5744POPC   C3A73853  36.045  38.937   6.962
 5744POPC   C4A73854  36.153  39.046   7.392
 5744POPC   C1B73855  36.316  39.461   6.098
 5744POPC   C2B73856  36.258  39.586   6.507
 5744POPC   C3B73857  36.419  39.356   6.873
 5744POPC   C4B73858  36.501  39.662   7.160
 5745POPC   NC373859  35.844  24.128   5.517
 5745POPC   PO473860  36.394  24.545   5.581
 5745POPC   GL173861  36.070  24.496   5.863
 5745POPC   GL273862  35.984  24.826   5.848
 5745POPC   C1A73863  35.924  24.394   6.298
 5745POPC   D2A73864  35.709  24.299   6.709
 5745POPC   C3A73865  35.840  24.513   7.091
 5745POPC   C4A73866  36.088  24.341   7.410
 5745POPC   C1B73867  36.253  24.834   6.236
 5745POPC   C2B73868  36.412  24.610   6.627
 5745POPC   C3B73869  36.369  24.601   7.076
 5745POPC   C4B73870  36.325  24.792   7.485
 5746POPC   NC373871   2.954  43.942   5.197
 5746POPC   PO473872   2.617  43.357   5.293
 5746POPC   GL173873   2.695  43.811   5.621
 5746POPC   GL273874   2.408  43.979   5.749
 5746POPC   C1A73875   2.888  43.891   6.100
 5746POPC   D2A73876   3.110  43.686   6.516
 5746POPC   C3A73877   2.981  43.725   6.980
 5746POPC   C4A73878   3.113  44.002   7.318
 5746POPC   C1B73879   2.403  44.009   6.214
 5746POPC   C2B73880   2.740  44.114   6.563
 5746POPC   C3B73881   2.692  44.150   7.035
 5746POPC   C4B73882   2.462  44.175   7.468
 5747POPC   NC373883   9.346  15.532   5.529
 5747POPC   PO473884   9.924  15.156   5.428
 5747POPC   GL173885   9.587  15.069   5.739
 5747POPC   GL273886   9.522  15.358   5.957
 5747POPC   C1A73887   9.742  14.929   6.144
 5747POPC   D2A73888  10.011  15.057   6.503
 5747POPC   C3A73889   9.823  15.006   6.904
 5747POPC   C4A73890   9.684  14.960   7.327
 5747POPC   C1B73891   9.850  15.447   6.212
 5747POPC   C2B73892   9.693  15.483   6.594
 5747POPC   C3B73893   9.365  15.307   6.816
 5747POPC   C4B73894   9.586  15.407   7.165
 5748POPC   NC373895  22.963  18.867   5.387
 5748POPC   PO473896  22.607  18.566   5.823
 5748POPC   GL173897  22.801  18.989   5.857
 5748POPC   GL273898  23.148  19.150   5.786
 5748POPC   C1A73899  22.880  19.081   6.258
 5748POPC   D2A73900  22.699  19.177   6.640
 5748POPC   C3A73901  22.862  18.915   6.914
 5748POPC   C4A73902  22.782  19.050   7.299
 5748POPC   C1B73903  23.299  19.364   6.193
 5748POPC   C2B73904  23.242  19.242   6.629
 5748POPC   C3B73905  23.140  19.340   7.031
 5748POPC   C4B73906  23.229  19.245   7.446
 5749POPC   NC373907  37.293  18.318   5.402
 5749POPC   PO473908  36.676  18.587   5.354
 5749POPC   GL173909  36.825  18.384   5.741
 5749POPC   GL273910  37.125  18.546   5.839
 5749POPC   C1A73911  36.829  18.314   6.227
 5749POPC   D2A73912  36.605  18.408   6.644
 5749POPC   C3A73913  36.550  18.054   6.924
 5749POPC   C4A73914  36.872  18.006   7.223
 5749POPC   C1B73915  37.340  18.477   6.228
 5749POPC   C2B73916  37.383  18.416   6.680
 5749POPC   C3B73917  37.147  18.448   7.045
 5749POPC   C4B73918  37.293  18.665   7.400
 5750POPC   NC373919  25.655  38.759   5.508
 5750POPC   PO473920  25.357  38.140   5.465
 5750POPC   GL173921  25.380  38.428   5.804
 5750POPC   GL273922  25.319  38.223   6.069
 5750POPC   C1A73923  25.573  38.671   6.164
 5750POPC   D2A73924  25.371  38.769   6.572
 5750POPC   C3A73925  25.441  38.603   6.967
 5750POPC   C4A73926  25.301  38.763   7.371
 5750POPC   C1B73927  25.054  38.617   6.202
 5750POPC   C2B73928  24.862  38.581   6.644
 5750POPC   C3B73929  24.950  38.490   7.093
 5750POPC   C4B73930  25.190  38.125   7.246
 5751POPC   NC373931  30.977  21.335   5.457
 5751POPC   PO473932  30.316  21.551   5.408
 5751POPC   GL173933  30.523  21.594   5.805
 5751POPC   GL273934  30.861  21.727   5.786
 5751POPC   C1A73935  30.741  21.407   6.181
 5751POPC   D2A73936  31.024  21.323   6.541
 5751POPC   C3A73937  30.809  21.416   6.943
 5751POPC   C4A73938  30.471  21.442   7.282
 5751POPC   C1B73939  30.919  21.912   6.222
 5751POPC   C2B73940  30.982  21.833   6.668
 5751POPC   C3B73941  30.900  21.888   7.110
 5751POPC   C4B73942  30.929  21.620   7.447
 5752POPC   NC373943  11.074  21.215   5.327
 5752POPC   PO473944  11.582  21.716   5.452
 5752POPC   GL173945  11.496  21.485   5.823
 5752POPC   GL273946  11.190  21.295   5.824
 5752POPC   C1A73947  11.301  21.606   6.225
 5752POPC   D2A73948  11.014  21.539   6.574
 5752POPC   C3A73949  11.228  21.593   6.958
 5752POPC   C4A73950  11.066  21.693   7.349
 5752POPC   C1B73951  11.360  21.087   6.185
 5752POPC   C2B73952  11.414  21.209   6.602
 5752POPC   C3B73953  11.599  21.251   6.996
 5752POPC   C4B73954  11.407  21.302   7.381
 5753POPC   NC373955   1.608  11.638   5.496
 5753POPC   PO473956   1.948  11.117   5.359
 5753POPC   GL173957   1.916  11.027   5.796
 5753POPC   GL273958   1.645  11.258   5.849
 5753POPC   C1A73959   1.988  11.066   6.216
 5753POPC   D2A73960   2.059  11.467   6.394
 5753POPC   C3A73961   2.018  11.509   6.825
 5753POPC   C4A73962   2.209  11.306   7.136
 5753POPC   C1B73963   1.577  11.356   6.286
 5753POPC   C2B73964   1.724  11.115   6.674
 5753POPC   C3B73965   1.724  11.132   7.132
 5753POPC   C4B73966   1.839  11.364   7.519
 5754POPC   NC373967  32.295   7.382   5.374
 5754POPC   PO473968  32.607   6.869   5.715
 5754POPC   GL173969  32.404   7.292   5.870
 5754POPC   GL273970  32.077   7.520   5.814
 5754POPC   C1A73971  32.494   7.633   6.149
 5754POPC   D2A73972  32.323   7.618   6.558
 5754POPC   C3A73973  32.392   7.487   6.951
 5754POPC   C4A73974  32.362   7.712   7.328
 5754POPC   C1B73975  31.997   7.417   6.210
 5754POPC   C2B73976  31.896   7.341   6.644
 5754POPC   C3B73977  31.887   7.503   7.056
 5754POPC   C4B73978  31.620   7.834   7.139
 5755POPC   NC373979  26.651  11.603   5.545
 5755POPC   PO473980  27.216  11.048   5.613
 5755POPC   GL173981  26.845  11.217   5.821
 5755POPC   GL273982  26.999  11.223   6.128
 5755POPC   C1A73983  26.519  11.419   6.137
 5755POPC   D2A73984  26.423  11.652   6.518
 5755POPC   C3A73985  26.651  11.444   6.824
 5755POPC   C4A73986  26.577  11.409   7.241
 5755POPC   C1B73987  26.628  10.922   6.198
 5755POPC   C2B73988  26.620  10.740   6.605
 5755POPC   C3B73989  26.530  10.950   6.975
 5755POPC   C4B73990  26.658  10.962   7.418
 5756POPC   NC373991  33.455  30.643   5.178
 5756POPC   PO473992  34.029  30.926   5.453
 5756POPC   GL173993  34.058  30.657   5.834
 5756POPC   GL273994  33.747  30.486   5.886
 5756POPC   C1A73995  34.037  30.514   6.294
 5756POPC   D2A73996  33.787  30.713   6.633
 5756POPC   C3A73997  33.867  30.721   7.068
 5756POPC   C4A73998  33.939  31.050   7.401
 5756POPC   C1B73999  33.472  30.676   6.220
 5756POPC   C2B74000  33.294  30.869   6.553
 5756POPC   C3B74001  33.399  30.925   6.966
 5756POPC   C4B74002  33.490  30.829   7.383
 5757POPC   NC374003  43.727  40.782   5.387
 5757POPC   PO474004  43.903  41.380   5.136
 5757POPC   GL174005  43.804  41.227   5.622
 5757POPC   GL274006  44.118  41.120   5.764
 5757POPC   C1A74007  43.763  40.918   6.052
 5757POPC   D2A74008  43.904  40.543   6.348
 5757POPC   C3A74009  43.880  40.588   6.838
 5757POPC   C4A74010  43.779  40.915   7.137
 5757POPC   C1B74011  44.282  40.994   6.167
 5757POPC   C2B74012  44.283  40.807   6.579
 5757POPC   C3B74013  44.333  40.869   7.022
 5757POPC   C4B74014  44.194  41.029   7.400
 5758POPC   NC374015   1.874  27.823   5.590
 5758POPC   PO474016   2.548  27.885   5.594
 5758POPC   GL174017   2.363  27.634   5.926
 5758POPC   GL274018   2.082  27.420   5.864
 5758POPC   C1A74019   2.253  27.514   6.345
 5758POPC   D2A74020   2.355  27.635   6.731
 5758POPC   C3A74021   2.076  27.488   7.015
 5758POPC   C4A74022   1.823  27.618   7.293
 5758POPC   C1B74023   1.770  27.549   6.192
 5758POPC   C2B74024   1.813  27.398   6.598
 5758POPC   C3B74025   1.533  27.406   6.941
 5758POPC   C4B74026   1.482  27.245   7.339
 5759POPC   NC374027  26.207   7.388   5.441
 5759POPC   PO474028  25.845   7.885   5.392
 5759POPC   GL174029  26.011   7.648   5.824
 5759POPC   GL274030  25.837   7.288   5.812
 5759POPC   C1A74031  26.063   7.433   6.268
 5759POPC   D2A74032  25.816   7.447   6.686
 5759POPC   C3A74033  25.981   7.533   7.113
 5759POPC   C4A74034  26.133   7.542   7.556
 5759POPC   C1B74035  25.644   7.176   6.247
 5759POPC   C2B74036  25.603   6.962   6.677
 5759POPC   C3B74037  25.670   7.130   7.109
 5759POPC   C4B74038  25.658   7.336   7.527
 5760POPC   NC374039  38.673   1.452   5.061
 5760POPC   PO474040  38.555   2.031   5.480
 5760POPC   GL174041  38.415   1.786   5.807
 5760POPC   GL274042  38.195   2.038   5.878
 5760POPC   C1A74043  38.263   1.626   6.162
 5760POPC   D2A74044  38.299   1.796   6.552
 5760POPC   C3A74045  38.386   1.596   6.932
 5760POPC   C4A74046  38.537   1.731   7.345
 5760POPC   C1B74047  38.237   2.256   6.222
 5760POPC   C2B74048  38.515   2.272   6.545
 5760POPC   C3B74049  38.458   2.112   6.952
 5760POPC   C4B74050  38.301   2.336   7.308
 5761POPC   NC374051  27.448  36.204   5.342
 5761POPC   PO474052  27.043  35.620   5.324
 5761POPC   GL174053  27.283  35.856   5.689
 5761POPC   GL274054  27.353  36.215   5.835
 5761POPC   C1A74055  27.400  35.825   6.146
 5761POPC   D2A74056  27.386  35.989   6.562
 5761POPC   C3A74057  27.510  35.836   6.958
 5761POPC   C4A74058  27.795  35.969   7.271
 5761POPC   C1B74059  27.287  36.543   6.147
 5761POPC   C2B74060  27.305  36.485   6.600
 5761POPC   C3B74061  27.154  36.365   7.027
 5761POPC   C4B74062  27.348  36.205   7.399
 5762POPC   NC374063  31.255  15.854   5.498
 5762POPC   PO474064  30.594  15.859   5.392
 5762POPC   GL174065  30.804  15.813   5.756
 5762POPC   GL274066  30.948  16.098   5.951
 5762POPC   C1A74067  30.600  15.756   6.124
 5762POPC   D2A74068  30.736  15.807   6.546
 5762POPC   C3A74069  30.519  15.882   6.944
 5762POPC   C4A74070  30.623  15.838   7.369
 5762POPC   C1B74071  30.595  16.261   6.217
 5762POPC   C2B74072  30.531  16.302   6.649
 5762POPC   C3B74073  30.739  16.343   7.051
 5762POPC   C4B74074  31.014  16.146   7.302
 5763POPC   NC374075  20.014  34.574   5.513
 5763POPC   PO474076  19.481  34.974   5.537
 5763POPC   GL174077  19.623  34.671   5.878
 5763POPC   GL274078  19.383  34.377   5.990
 5763POPC   C1A74079  19.786  34.550   6.275
 5763POPC   D2A74080  19.689  34.404   6.663
 5763POPC   C3A74081  20.002  34.572   6.896
 5763POPC   C4A74082  20.093  34.709   7.269
 5763POPC   C1B74083  19.312  34.729   6.284
 5763POPC   C2B74084  19.341  34.918   6.714
 5763POPC   C3B74085  19.523  34.728   7.078
 5763POPC   C4B74086  19.640  34.572   7.463
 5764POPC   NC374087  23.872  34.489   5.063
 5764POPC   PO474088  23.561  34.153   5.597
 5764POPC   GL174089  23.747  34.420   5.870
 5764POPC   GL274090  23.843  34.699   5.670
 5764POPC   C1A74091  23.841  34.448   6.315
 5764POPC   D2A74092  23.481  34.539   6.559
 5764POPC   C3A74093  23.413  34.413   6.984
 5764POPC   C4A74094  23.476  34.668   7.351
 5764POPC   C1B74095  23.850  34.916   6.087
 5764POPC   C2B74096  23.947  34.923   6.526
 5764POPC   C3B74097  23.791  34.754   6.906
 5764POPC   C4B74098  23.965  34.609   7.284
 5765POPC   NC374099  17.166  28.671   5.512
 5765POPC   PO474100  17.349  29.210   5.647
 5765POPC   GL174101  17.381  29.408   5.982
 5765POPC   GL274102  17.084  29.545   5.979
 5765POPC   C1A74103  17.442  29.265   6.374
 5765POPC   D2A74104  17.376  28.942   6.692
 5765POPC   C3A74105  17.672  28.980   7.043
 5765POPC   C4A74106  17.667  29.366   7.255
 5765POPC   C1B74107  16.935  29.281   6.324
 5765POPC   C2B74108  16.924  29.189   6.767
 5765POPC   C3B74109  17.191  29.197   7.121
 5765POPC   C4B74110  17.218  29.355   7.512
 5766POPC   NC374111   0.531  24.195   5.556
 5766POPC   PO474112   0.801  24.756   5.411
 5766POPC   GL174113   0.534  24.671   5.764
 5766POPC   GL274114   0.298  24.951   5.723
 5766POPC   C1A74115   0.487  24.425   6.184
 5766POPC   D2A74116   0.702  24.421   6.604
 5766POPC   C3A74117   0.550  24.243   7.028
 5766POPC   C4A74118   0.534  24.353   7.491
 5766POPC   C1B74119   0.417  24.985   6.144
 5766POPC   C2B74120   0.256  24.773   6.482
 5766POPC   C3B74121   0.304  24.660   6.879
 5766POPC   C4B74122   0.349  24.834   7.288
 5767POPC   NC374123   8.283   2.654   5.101
 5767POPC   PO474124   7.880   2.976   5.485
 5767POPC   GL174125   8.129   2.906   5.834
 5767POPC   GL274126   8.500   3.027   5.808
 5767POPC   C1A74127   7.953   2.676   6.185
 5767POPC   D2A74128   8.183   2.612   6.532
 5767POPC   C3A74129   8.018   2.533   6.913
 5767POPC   C4A74130   7.995   2.498   7.354
 5767POPC   C1B74131   8.517   2.667   6.114
 5767POPC   C2B74132   8.697   2.604   6.529
 5767POPC   C3B74133   8.481   2.738   6.942
 5767POPC   C4B74134   8.422   3.169   7.109
 5768POPC   NC374135  35.795  19.428   5.409
 5768POPC   PO474136  36.063  18.768   5.386
 5768POPC   GL174137  36.154  18.947   5.788
 5768POPC   GL274138  36.068  19.269   5.847
 5768POPC   C1A74139  36.062  18.925   6.237
 5768POPC   D2A74140  36.292  18.877   6.618
 5768POPC   C3A74141  35.943  18.829   6.917
 5768POPC   C4A74142  35.925  18.767   7.356
 5768POPC   C1B74143  36.042  19.443   6.299
 5768POPC   C2B74144  35.988  19.294   6.723
 5768POPC   C3B74145  36.026  19.256   7.191
 5768POPC   C4B74146  36.042  19.248   7.661
 5769POPC   NC374147  29.985   9.332   5.347
 5769POPC   PO474148  29.601   9.943   5.463
 5769POPC   GL174149  29.880   9.777   5.807
 5769POPC   GL274150  30.067   9.470   5.823
 5769POPC   C1A74151  29.951   9.702   6.269
 5769POPC   D2A74152  30.020   9.965   6.651
 5769POPC   C3A74153  29.647   9.965   6.934
 5769POPC   C4A74154  29.598   9.622   7.242
 5769POPC   C1B74155  30.301   9.262   6.147
 5769POPC   C2B74156  30.247   9.354   6.574
 5769POPC   C3B74157  30.068   9.479   6.951
 5769POPC   C4B74158  30.311   9.510   7.315
 5770POPC   NC374159  33.885   5.209   5.334
 5770POPC   PO474160  33.307   5.032   5.391
 5770POPC   GL174161  33.577   4.835   5.733
 5770POPC   GL274162  33.938   4.878   5.745
 5770POPC   C1A74163  33.658   4.756   6.184
 5770POPC   D2A74164  33.560   5.061   6.495
 5770POPC   C3A74165  33.643   4.983   6.926
 5770POPC   C4A74166  33.548   5.158   7.296
 5770POPC   C1B74167  33.787   5.235   6.027
 5770POPC   C2B74168  33.954   5.393   6.428
 5770POPC   C3B74169  33.868   5.447   6.876
 5770POPC   C4B74170  34.118   5.448   7.265
 5771POPC   NC374171  13.843  10.205   5.302
 5771POPC   PO474172  13.633   9.571   5.370
 5771POPC   GL174173  13.631   9.753   5.785
 5771POPC   GL274174  13.853  10.023   5.793
 5771POPC   C1A74175  13.448   9.823   6.224
 5771POPC   D2A74176  13.481   9.570   6.607
 5771POPC   C3A74177  13.590   9.685   7.062
 5771POPC   C4A74178  13.853   9.489   7.409
 5771POPC   C1B74179  13.956   9.779   6.177
 5771POPC   C2B74180  13.878   9.904   6.582
 5771POPC   C3B74181  14.070   9.772   6.945
 5771POPC   C4B74182  14.056   9.937   7.313
 5772POPC   NC374183  14.906  30.682   5.442
 5772POPC   PO474184  14.381  31.136   5.422
 5772POPC   GL174185  14.465  30.768   5.763
 5772POPC   GL274186  14.163  30.491   5.809
 5772POPC   C1A74187  14.499  30.582   6.177
 5772POPC   D2A74188  14.395  30.826   6.544
 5772POPC   C3A74189  14.516  30.697   6.910
 5772POPC   C4A74190  14.405  30.904   7.244
 5772POPC   C1B74191  14.071  30.307   6.223
 5772POPC   C2B74192  14.238  30.336   6.655
 5772POPC   C3B74193  14.194  30.371   7.118
 5772POPC   C4B74194  14.323  30.417   7.540
 5773POPC   NC374195   4.950  23.082   5.227
 5773POPC   PO474196   5.478  22.720   5.362
 5773POPC   GL174197   5.249  22.990   5.730
 5773POPC   GL274198   4.939  23.212   5.734
 5773POPC   C1A74199   5.063  22.977   6.196
 5773POPC   D2A74200   4.966  22.962   6.662
 5773POPC   C3A74201   5.287  22.833   6.978
 5773POPC   C4A74202   5.504  22.661   7.333
 5773POPC   C1B74203   4.612  23.241   6.080
 5773POPC   C2B74204   4.559  23.423   6.494
 5773POPC   C3B74205   4.758  23.371   6.898
 5773POPC   C4B74206   4.837  23.020   7.184
 5774POPC   NC374207  37.308  11.549   5.501
 5774POPC   PO474208  37.913  11.361   5.370
 5774POPC   GL174209  37.672  11.189   5.726
 5774POPC   GL274210  37.891  10.891   5.738
 5774POPC   C1A74211  37.509  11.319   6.160
 5774POPC   D2A74212  37.664  11.527   6.574
 5774POPC   C3A74213  37.742  11.537   7.013
 5774POPC   C4A74214  37.751  11.283   7.423
 5774POPC   C1B74215  37.903  10.972   6.183
 5774POPC   C2B74216  37.625  10.992   6.548
 5774POPC   C3B74217  37.621  11.048   6.987
 5774POPC   C4B74218  37.895  10.830   7.282
 5775POPC   NC374219  15.466  18.152   5.454
 5775POPC   PO474220  14.853  18.468   5.182
 5775POPC   GL174221  14.988  18.408   5.684
 5775POPC   GL274222  15.300  18.538   5.751
 5775POPC   C1A74223  15.172  18.236   6.132
 5775POPC   D2A74224  15.220  18.322   6.569
 5775POPC   C3A74225  15.291  18.061   6.917
 5775POPC   C4A74226  15.181  18.232   7.276
 5775POPC   C1B74227  15.520  18.622   6.130
 5775POPC   C2B74228  15.564  18.693   6.570
 5775POPC   C3B74229  15.432  18.613   7.020
 5775POPC   C4B74230  15.564  18.496   7.478
 5776POPC   NC374231  25.181  36.412   5.282
 5776POPC   PO474232  25.226  35.735   5.213
 5776POPC   GL174233  25.241  35.882   5.688
 5776POPC   GL274234  25.300  36.240   5.746
 5776POPC   C1A74235  25.146  36.007   6.153
 5776POPC   D2A74236  25.290  35.965   6.584
 5776POPC   C3A74237  25.030  35.935   6.927
 5776POPC   C4A74238  25.064  36.118   7.306
 5776POPC   C1B74239  25.532  36.414   6.129
 5776POPC   C2B74240  25.641  36.369   6.582
 5776POPC   C3B74241  25.581  36.532   6.979
 5776POPC   C4B74242  25.350  36.551   7.334
 5777POPC   NC374243  37.956  42.012   5.599
 5777POPC   PO474244  37.552  41.554   5.270
 5777POPC   GL174245  37.373  41.728   5.693
 5777POPC   GL274246  37.596  41.922   5.939
 5777POPC   C1A74247  37.393  41.504   6.130
 5777POPC   D2A74248  37.679  41.465   6.502
 5777POPC   C3A74249  37.566  41.372   6.889
 5777POPC   C4A74250  37.519  41.682   7.191
 5777POPC   C1B74251  37.961  41.761   6.216
 5777POPC   C2B74252  38.083  41.954   6.615
 5777POPC   C3B74253  38.003  41.813   7.013
 5777POPC   C4B74254  38.109  41.473   7.243
 5778POPC   NC374255  21.296  35.727   5.514
 5778POPC   PO474256  21.714  35.113   5.414
 5778POPC   GL174257  21.504  35.306   5.737
 5778POPC   GL274258  21.479  34.985   5.911
 5778POPC   C1A74259  21.301  35.410   6.146
 5778POPC   D2A74260  21.379  35.568   6.562
 5778POPC   C3A74261  21.117  35.559   6.929
 5778POPC   C4A74262  21.310  35.566   7.328
 5778POPC   C1B74263  21.537  34.964   6.337
 5778POPC   C2B74264  21.574  34.955   6.764
 5778POPC   C3B74265  21.403  35.124   7.111
 5778POPC   C4B74266  21.493  35.149   7.564
 5779POPC   NC374267  31.601  33.506   5.594
 5779POPC   PO474268  31.452  32.858   5.772
 5779POPC   GL174269  31.522  33.193   5.993
 5779POPC   GL274270  31.260  33.394   5.990
 5779POPC   C1A74271  31.538  33.201   6.406
 5779POPC   D2A74272  31.269  33.009   6.660
 5779POPC   C3A74273  31.497  32.976   7.004
 5779POPC   C4A74274  31.753  32.918   7.348
 5779POPC   C1B74275  31.252  33.638   6.372
 5779POPC   C2B74276  31.354  33.508   6.790
 5779POPC   C3B74277  31.125  33.299   7.115
 5779POPC   C4B74278  31.073  33.388   7.555
 5780POPC   NC374279   5.471  21.534   5.515
 5780POPC   PO474280   6.158  21.347   5.449
 5780POPC   GL174281   6.093  21.275   5.843
 5780POPC   GL274282   5.759  21.148   5.698
 5780POPC   C1A74283   6.126  21.457   6.280
 5780POPC   D2A74284   6.196  21.352   6.727
 5780POPC   C3A74285   5.960  21.431   7.100
 5780POPC   C4A74286   6.115  21.511   7.525
 5780POPC   C1B74287   5.679  21.146   6.114
 5780POPC   C2B74288   5.767  21.123   6.530
 5780POPC   C3B74289   5.526  21.054   6.893
 5780POPC   C4B74290   5.642  21.025   7.308
 5781POPC   NC374291   9.316  25.368   5.494
 5781POPC   PO474292   9.817  25.034   5.162
 5781POPC   GL174293   9.743  25.018   5.677
 5781POPC   GL274294   9.460  25.122   5.899
 5781POPC   C1A74295   9.965  25.191   6.092
 5781POPC   D2A74296   9.806  25.321   6.513
 5781POPC   C3A74297  10.058  25.219   6.892
 5781POPC   C4A74298  10.055  25.464   7.272
 5781POPC   C1B74299   9.241  25.037   6.278
 5781POPC   C2B74300   9.363  25.063   6.700
 5781POPC   C3B74301   9.560  25.289   7.044
 5781POPC   C4B74302   9.335  25.118   7.367
 5782POPC   NC374303  41.127  24.038   5.361
 5782POPC   PO474304  41.772  23.766   5.306
 5782POPC   GL174305  41.656  23.725   5.730
 5782POPC   GL274306  41.305  23.794   5.794
 5782POPC   C1A74307  41.835  23.699   6.136
 5782POPC   D2A74308  41.742  23.532   6.517
 5782POPC   C3A74309  41.857  23.653   6.924
 5782POPC   C4A74310  41.780  23.566   7.362
 5782POPC   C1B74311  41.345  23.499   6.145
 5782POPC   C2B74312  41.116  23.522   6.544
 5782POPC   C3B74313  41.177  23.504   6.993
 5782POPC   C4B74314  41.169  23.808   7.303
 5783POPC   NC374315   4.613   5.569   5.400
 5783POPC   PO474316   4.577   6.196   5.647
 5783POPC   GL174317   4.377   5.949   5.961
 5783POPC   GL274318   4.316   5.605   5.828
 5783POPC   C1A74319   4.310   5.948   6.412
 5783POPC   D2A74320   4.005   6.122   6.719
 5783POPC   C3A74321   4.226   6.018   7.077
 5783POPC   C4A74322   4.298   5.604   7.239
 5783POPC   C1B74323   4.053   5.577   6.199
 5783POPC   C2B74324   3.959   5.603   6.654
 5783POPC   C3B74325   3.796   5.738   7.073
 5783POPC   C4B74326   3.889   5.696   7.531
 5784POPC   NC374327  41.045  26.977   5.077
 5784POPC   PO474328  40.552  26.703   5.352
 5784POPC   GL174329  40.683  26.742   5.797
 5784POPC   GL274330  41.003  26.887   5.866
 5784POPC   C1A74331  40.766  26.545   6.197
 5784POPC   D2A74332  41.001  26.388   6.516
 5784POPC   C3A74333  40.843  26.420   6.944
 5784POPC   C4A74334  40.882  26.554   7.362
 5784POPC   C1B74335  40.800  27.061   6.231
 5784POPC   C2B74336  40.794  26.853   6.614
 5784POPC   C3B74337  40.929  26.921   7.006
 5784POPC   C4B74338  40.665  27.023   7.299
 5785POPC   NC374339  14.526   4.033   5.359
 5785POPC   PO474340  14.262   4.594   5.503
 5785POPC   GL174341  14.361   4.234   5.801
 5785POPC   GL274342  14.635   3.963   5.849
 5785POPC   C1A74343  14.273   4.202   6.231
 5785POPC   D2A74344  14.161   4.507   6.546
 5785POPC   C3A74345  14.391   4.413   6.896
 5785POPC   C4A74346  14.229   4.198   7.213
 5785POPC   C1B74347  14.784   4.244   6.159
 5785POPC   C2B74348  14.866   4.273   6.591
 5785POPC   C3B74349  14.759   4.066   6.961
 5785POPC   C4B74350  14.704   4.224   7.331
 5786POPC   NC374351   5.568  39.669   5.380
 5786POPC   PO474352   5.596  40.332   5.201
 5786POPC   GL174353   5.661  40.052   5.683
 5786POPC   GL274354   5.909  39.863   5.873
 5786POPC   C1A74355   5.532  39.968   6.183
 5786POPC   D2A74356   5.649  39.919   6.649
 5786POPC   C3A74357   5.708  40.164   6.997
 5786POPC   C4A74358   5.665  40.092   7.409
 5786POPC   C1B74359   6.024  39.850   6.316
 5786POPC   C2B74360   6.161  39.879   6.759
 5786POPC   C3B74361   5.994  39.763   7.169
 5786POPC   C4B74362   5.908  39.668   7.613
 5787POPC   NC374363   7.842  38.706   5.416
 5787POPC   PO474364   7.392  38.262   5.407
 5787POPC   GL174365   7.423  38.428   5.811
 5787POPC   GL274366   7.755  38.335   5.810
 5787POPC   C1A74367   7.356  38.561   6.270
 5787POPC   D2A74368   7.157  38.460   6.677
 5787POPC   C3A74369   7.358  38.487   7.046
 5787POPC   C4A74370   7.192  38.613   7.482
 5787POPC   C1B74371   7.598  38.102   6.173
 5787POPC   C2B74372   7.648  38.228   6.607
 5787POPC   C3B74373   7.671  38.059   7.017
 5787POPC   C4B74374   7.431  38.127   7.393
 5788POPC   NC374375  27.514  23.357   5.488
 5788POPC   PO474376  27.891  23.958   5.326
 5788POPC   GL174377  27.830  23.709   5.723
 5788POPC   GL274378  27.492  23.776   5.785
 5788POPC   C1A74379  27.922  23.854   6.161
 5788POPC   D2A74380  28.118  23.728   6.557
 5788POPC   C3A74381  27.877  23.890   6.913
 5788POPC   C4A74382  27.752  23.766   7.342
 5788POPC   C1B74383  27.516  23.545   6.170
 5788POPC   C2B74384  27.547  23.736   6.566
 5788POPC   C3B74385  27.427  23.596   6.995
 5788POPC   C4B74386  27.289  23.563   7.463
 5789POPC   NC374387  35.728  14.122   5.329
 5789POPC   PO474388  35.236  14.586   5.402
 5789POPC   GL174389  35.452  14.375   5.774
 5789POPC   GL274390  35.206  14.113   5.873
 5789POPC   C1A74391  35.372  14.413   6.252
 5789POPC   D2A74392  35.050  14.625   6.534
 5789POPC   C3A74393  35.198  14.828   6.912
 5789POPC   C4A74394  35.218  14.589   7.284
 5789POPC   C1B74395  35.184  13.897   6.308
 5789POPC   C2B74396  35.359  13.911   6.750
 5789POPC   C3B74397  35.414  14.148   7.169
 5789POPC   C4B74398  35.185  14.207   7.612
 5790POPC   NC374399  39.895  29.535   5.444
 5790POPC   PO474400  40.098  28.928   5.378
 5790POPC   GL174401  40.090  29.149   5.802
 5790POPC   GL274402  39.759  29.349   5.916
 5790POPC   C1A74403  40.379  28.994   6.173
 5790POPC   D2A74404  40.594  28.906   6.595
 5790POPC   C3A74405  40.470  29.222   6.892
 5790POPC   C4A74406  40.107  29.177   7.147
 5790POPC   C1B74407  39.645  29.126   6.314
 5790POPC   C2B74408  39.680  28.919   6.732
 5790POPC   C3B74409  39.539  28.995   7.161
 5790POPC   C4B74410  39.629  28.969   7.625
 5791POPC   NC374411   8.603  41.551   5.587
 5791POPC   PO474412   9.283  41.857   5.468
 5791POPC   GL174413   9.018  41.822   5.808
 5791POPC   GL274414   9.020  41.453   5.857
 5791POPC   C1A74415   8.770  41.775   6.191
 5791POPC   D2A74416   8.725  41.619   6.594
 5791POPC   C3A74417   9.109  41.487   6.750
 5791POPC   C4A74418   9.174  41.385   7.163
 5791POPC   C1B74419   8.921  41.270   6.256
 5791POPC   C2B74420   8.769  41.096   6.643
 5791POPC   C3B74421   8.726  41.131   7.095
 5791POPC   C4B74422   8.702  41.419   7.393
 5792POPC   NC374423  11.376   6.100   4.898
 5792POPC   PO474424  11.400   5.742   5.510
 5792POPC   GL174425  11.076   5.821   5.843
 5792POPC   GL274426  11.031   6.192   5.788
 5792POPC   C1A74427  11.144   5.644   6.280
 5792POPC   D2A74428  11.471   5.650   6.615
 5792POPC   C3A74429  11.410   5.868   7.021
 5792POPC   C4A74430  11.315   5.711   7.424
 5792POPC   C1B74431  11.135   6.169   6.227
 5792POPC   C2B74432  11.044   6.002   6.637
 5792POPC   C3B74433  11.043   6.233   6.998
 5792POPC   C4B74434  10.997   6.112   7.399
 5793POPC   NC374435   9.868  44.821   5.355
 5793POPC   PO474436   9.600  44.329   5.670
 5793POPC   GL174437   9.483  44.477   5.984
 5793POPC   GL274438   9.148  44.195   5.840
 5793POPC   C1A74439   9.775  44.859   6.154
 5793POPC   D2A74440   9.954   0.141   6.518
 5793POPC   C3A74441   9.886  44.947   6.960
 5793POPC   C4A74442   9.685  44.677   7.291
 5793POPC   C1B74443   9.138  44.234   6.233
 5793POPC   C2B74444   9.371  44.450   6.524
 5793POPC   C3B74445   9.487  44.325   6.946
 5793POPC   C4B74446   9.404  44.251   7.374
 5794POPC   NC374447   1.585  14.039   5.583
 5794POPC   PO474448   0.958  14.147   5.457
 5794POPC   GL174449   1.175  14.248   5.824
 5794POPC   GL274450   1.296  14.593   5.937
 5794POPC   C1A74451   1.334  14.156   6.206
 5794POPC   D2A74452   1.293  14.469   6.476
 5794POPC   C3A74453   1.182  14.377   6.872
 5794POPC   C4A74454   1.099  14.200   7.279
 5794POPC   C1B74455   0.937  14.706   6.180
 5794POPC   C2B74456   0.878  14.795   6.617
 5794POPC   C3B74457   0.806  14.830   7.048
 5794POPC   C4B74458   0.921  14.643   7.463
 5795POPC   NC374459  39.256   8.812   5.287
 5795POPC   PO474460  39.643   9.399   5.383
 5795POPC   GL174461  39.353   9.141   5.694
 5795POPC   GL274462  39.337   8.759   5.777
 5795POPC   C1A74463  39.085   9.055   6.103
 5795POPC   D2A74464  38.937   8.957   6.548
 5795POPC   C3A74465  39.179   9.043   6.955
 5795POPC   C4A74466  39.091   8.976   7.428
 5795POPC   C1B74467  39.466   8.725   6.207
 5795POPC   C2B74468  39.342   8.629   6.646
 5795POPC   C3B74469  39.347   8.584   7.096
 5795POPC   C4B74470  39.519   8.716   7.495
 5796POPC   NC374471  34.773  14.673   5.355
 5796POPC   PO474472  34.304  14.237   5.350
 5796POPC   GL174473  34.405  14.479   5.686
 5796POPC   GL274474  34.730  14.336   5.751
 5796POPC   C1A74475  34.469  14.718   6.048
 5796POPC   D2A74476  34.539  14.584   6.455
 5796POPC   C3A74477  34.509  14.603   6.869
 5796POPC   C4A74478  34.740  14.781   7.176
 5796POPC   C1B74479  34.841  14.282   6.180
 5796POPC   C2B74480  34.803  14.149   6.606
 5796POPC   C3B74481  34.926  14.284   6.994
 5796POPC   C4B74482  34.732  14.336   7.388
 5797POPC   NC374483  33.096  27.068   5.572
 5797POPC   PO474484  32.860  27.638   5.334
 5797POPC   GL174485  32.907  27.604   5.767
 5797POPC   GL274486  32.743  27.279   5.859
 5797POPC   C1A74487  33.155  27.854   6.079
 5797POPC   D2A74488  33.119  27.999   6.502
 5797POPC   C3A74489  32.917  27.655   6.729
 5797POPC   C4A74490  33.019  27.645   7.151
 5797POPC   C1B74491  33.096  27.349   6.169
 5797POPC   C2B74492  33.235  27.224   6.547
 5797POPC   C3B74493  33.017  27.146   6.896
 5797POPC   C4B74494  33.019  27.157   7.336
 5798POPC   NC374495  44.275   0.811   5.421
 5798POPC   PO474496  44.045   0.188   5.441
 5798POPC   GL174497  43.884   0.441   5.791
 5798POPC   GL274498  43.988   0.760   5.856
 5798POPC   C1A74499  43.787   0.440   6.226
 5798POPC   D2A74500  43.992   0.184   6.547
 5798POPC   C3A74501  43.860   0.319   6.948
 5798POPC   C4A74502  43.534   0.245   7.188
 5798POPC   C1B74503  44.161   0.827   6.247
 5798POPC   C2B74504  43.998   0.703   6.628
 5798POPC   C3B74505  44.014   0.902   6.992
 5798POPC   C4B74506  43.935   0.831   7.433
 5799POPC   NC374507   9.848   9.827   5.394
 5799POPC   PO474508   9.384   9.313   5.406
 5799POPC   GL174509   9.519   9.369   5.820
 5799POPC   GL274510   9.816   9.528   5.816
 5799POPC   C1A74511   9.474   9.495   6.267
 5799POPC   D2A74512   9.417   9.811   6.608
 5799POPC   C3A74513   9.483   9.778   7.060
 5799POPC   C4A74514   9.485   9.622   7.509
 5799POPC   C1B74515   9.979   9.613   6.221
 5799POPC   C2B74516   9.926   9.846   6.581
 5799POPC   C3B74517   9.971   9.717   6.970
 5799POPC   C4B74518   9.945   9.920   7.370
 5800POPC   NC374519  40.304  24.442   5.495
 5800POPC   PO474520  39.643  24.643   5.450
 5800POPC   GL174521  39.891  24.571   5.835
 5800POPC   GL274522  40.126  24.293   5.933
 5800POPC   C1A74523  39.718  24.512   6.243
 5800POPC   D2A74524  39.817  24.345   6.642
 5800POPC   C3A74525  39.700  24.478   7.038
 5800POPC   C4A74526  39.809  24.405   7.462
 5800POPC   C1B74527  40.238  24.443   6.349
 5800POPC   C2B74528  40.226  24.698   6.722
 5800POPC   C3B74529  40.154  24.656   7.162
 5800POPC   C4B74530  40.257  24.547   7.649
 5801POPC   NC374531  37.004  12.289   5.331
 5801POPC   PO474532  36.500  11.920   5.570
 5801POPC   GL174533  36.733  12.148   5.920
 5801POPC   GL274534  37.054  12.340   5.834
 5801POPC   C1A74535  36.786  12.015   6.378
 5801POPC   D2A74536  36.846  11.719   6.746
 5801POPC   C3A74537  36.751  11.952   7.092
 5801POPC   C4A74538  36.738  12.355   7.245
 5801POPC   C1B74539  37.201  12.280   6.238
 5801POPC   C2B74540  37.152  12.272   6.702
 5801POPC   C3B74541  37.311  12.362   7.106
 5801POPC   C4B74542  37.221  12.480   7.530
 5802POPC   NC374543  40.639  26.117   5.388
 5802POPC   PO474544  41.266  26.019   5.551
 5802POPC   GL174545  40.918  26.209   5.839
 5802POPC   GL274546  40.517  26.257   5.842
 5802POPC   C1A74547  40.789  26.008   6.235
 5802POPC   D2A74548  40.750  25.780   6.643
 5802POPC   C3A74549  40.805  25.919   7.087
 5802POPC   C4A74550  40.752  25.823   7.549
 5802POPC   C1B74551  40.336  26.258   6.213
 5802POPC   C2B74552  40.502  26.243   6.596
 5802POPC   C3B74553  40.368  26.199   6.996
 5802POPC   C4B74554  40.509  26.232   7.390
 5803POPC   NC374555   8.805  10.651   5.427
 5803POPC   PO474556   9.422  10.879   5.731
 5803POPC   GL174557   9.074  10.651   5.861
 5803POPC   GL274558   9.053  10.308   5.734
 5803POPC   C1A74559   8.974  10.628   6.282
 5803POPC   D2A74560   9.202  10.721   6.654
 5803POPC   C3A74561   8.997  10.650   7.033
 5803POPC   C4A74562   9.233  10.617   7.419
 5803POPC   C1B74563   9.296  10.245   6.109
 5803POPC   C2B74564   9.137  10.215   6.519
 5803POPC   C3B74565   9.268  10.244   6.913
 5803POPC   C4B74566   8.991  10.196   7.255
 5804POPC   NC374567  23.216  26.182   5.355
 5804POPC   PO474568  22.791  25.780   5.564
 5804POPC   GL174569  22.903  26.151   5.831
 5804POPC   GL274570  23.263  26.283   5.838
 5804POPC   C1A74571  22.956  26.047   6.286
 5804POPC   D2A74572  23.201  25.955   6.628
 5804POPC   C3A74573  22.943  26.063   6.975
 5804POPC   C4A74574  22.993  26.003   7.394
 5804POPC   C1B74575  23.387  26.286   6.224
 5804POPC   C2B74576  23.276  26.510   6.529
 5804POPC   C3B74577  23.316  26.384   6.890
 5804POPC   C4B74578  23.412  26.187   7.224
 5805POPC   NC374579  34.074  15.386   5.412
 5805POPC   PO474580  33.592  14.936   5.422
 5805POPC   GL174581  33.542  15.081   5.823
 5805POPC   GL274582  33.740  15.332   5.798
 5805POPC   C1A74583  33.740  15.063   6.255
 5805POPC   D2A74584  33.632  14.963   6.671
 5805POPC   C3A74585  33.851  15.046   7.005
 5805POPC   C4A74586  33.637  15.089   7.394
 5805POPC   C1B74587  33.865  15.564   6.139
 5805POPC   C2B74588  34.062  15.489   6.523
 5805POPC   C3B74589  33.923  15.546   6.923
 5805POPC   C4B74590  33.971  15.463   7.355
 5806POPC   NC374591  33.481   8.518   5.698
 5806POPC   PO474592  33.155   8.143   5.241
 5806POPC   GL174593  33.037   8.235   5.703
 5806POPC   GL274594  33.353   8.034   5.769
 5806POPC   C1A74595  32.750   8.138   6.106
 5806POPC   D2A74596  32.530   8.096   6.538
 5806POPC   C3A74597  32.702   7.998   6.974
 5806POPC   C4A74598  33.008   8.024   7.355
 5806POPC   C1B74599  33.264   8.148   6.202
 5806POPC   C2B74600  33.058   8.081   6.566
 5806POPC   C3B74601  33.212   8.170   6.933
 5806POPC   C4B74602  33.510   7.994   7.200
 5807POPC   NC374603  15.531  28.614   5.604
 5807POPC   PO474604  15.866  28.080   5.437
 5807POPC   GL174605  15.744  28.179   5.854
 5807POPC   GL274606  15.855  28.488   5.974
 5807POPC   C1A74607  15.706  28.114   6.325
 5807POPC   D2A74608  15.949  28.161   6.725
 5807POPC   C3A74609  15.750  28.104   7.134
 5807POPC   C4A74610  15.924  28.073   7.559
 5807POPC   C1B74611  15.683  28.638   6.346
 5807POPC   C2B74612  15.805  28.659   6.797
 5807POPC   C3B74613  16.041  28.552   7.172
 5807POPC   C4B74614  15.738  28.569   7.490
 5808POPC   NC374615   4.087  15.821   5.402
 5808POPC   PO474616   4.452  16.419   5.400
 5808POPC   GL174617   4.268  16.150   5.759
 5808POPC   GL274618   4.181  15.778   5.900
 5808POPC   C1A74619   4.133  16.194   6.174
 5808POPC   D2A74620   4.143  15.927   6.551
 5808POPC   C3A74621   4.303  16.093   6.908
 5808POPC   C4A74622   4.171  16.170   7.292
 5808POPC   C1B74623   4.521  15.822   6.216
 5808POPC   C2B74624   4.696  15.881   6.646
 5808POPC   C3B74625   4.622  15.753   7.099
 5808POPC   C4B74626   4.184  15.657   7.179
 5809POPC   NC374627   8.951   2.977   5.510
 5809POPC   PO474628   8.804   2.370   5.365
 5809POPC   GL174629   8.912   2.524   5.820
 5809POPC   GL274630   9.003   2.846   5.979
 5809POPC   C1A74631   9.150   2.445   6.242
 5809POPC   D2A74632   9.265   2.357   6.668
 5809POPC   C3A74633   8.917   2.458   6.954
 5809POPC   C4A74634   8.879   2.616   7.349
 5809POPC   C1B74635   8.796   3.094   6.247
 5809POPC   C2B74636   8.640   3.117   6.648
 5809POPC   C3B74637   8.910   2.993   7.003
 5809POPC   C4B74638   9.186   3.034   7.327
 5810POPC   NC374639  36.445   0.377   5.402
 5810POPC   PO474640  35.798   0.425   5.474
 5810POPC   GL174641  36.131   0.613   5.765
 5810POPC   GL274642  36.435   0.422   5.911
 5810POPC   C1A74643  36.224   0.792   6.194
 5810POPC   D2A74644  36.443   0.551   6.536
 5810POPC   C3A74645  36.459   0.777   6.931
 5810POPC   C4A74646  36.201   0.729   7.292
 5810POPC   C1B74647  36.056   0.297   6.165
 5810POPC   C2B74648  35.936   0.442   6.568
 5810POPC   C3B74649  36.129   0.344   6.952
 5810POPC   C4B74650  36.036   0.126   7.321
 5811POPC   NC374651   7.531  22.594   5.493
 5811POPC   PO474652   7.408  23.214   5.353
 5811POPC   GL174653   7.467  23.037   5.785
 5811POPC   GL274654   7.169  22.805   5.857
 5811POPC   C1A74655   7.549  22.981   6.242
 5811POPC   D2A74656   7.223  23.054   6.574
 5811POPC   C3A74657   7.334  23.157   7.000
 5811POPC   C4A74658   7.657  23.174   7.335
 5811POPC   C1B74659   7.228  22.588   6.278
 5811POPC   C2B74660   7.519  22.604   6.672
 5811POPC   C3B74661   7.564  22.694   7.140
 5811POPC   C4B74662   7.679  22.709   7.606
 5812POPC   NC374663  18.135  28.911   5.448
 5812POPC   PO474664  17.838  29.290   5.293
 5812POPC   GL174665  17.904  29.298   5.783
 5812POPC   GL274666  18.266  29.183   5.889
 5812POPC   C1A74667  17.943  29.316   6.269
 5812POPC   D2A74668  17.820  29.335   6.723
 5812POPC   C3A74669  18.147  29.342   7.063
 5812POPC   C4A74670  18.486  29.344   7.391
 5812POPC   C1B74671  18.380  29.052   6.348
 5812POPC   C2B74672  18.190  28.930   6.763
 5812POPC   C3B74673  18.411  28.886   7.170
 5812POPC   C4B74674  18.879  28.940   7.227
 5813POPC   NC374675  10.708  22.041   5.003
 5813POPC   PO474676  10.474  22.520   5.526
 5813POPC   GL174677  10.588  22.313   5.891
 5813POPC   GL274678  10.678  21.993   5.741
 5813POPC   C1A74679  10.404  22.209   6.312
 5813POPC   D2A74680  10.337  22.080   6.747
 5813POPC   C3A74681  10.613  22.343   7.020
 5813POPC   C4A74682  10.626  22.356   7.456
 5813POPC   C1B74683  10.856  21.962   6.167
 5813POPC   C2B74684  10.835  22.151   6.574
 5813POPC   C3B74685  10.804  21.880   6.898
 5813POPC   C4B74686  10.593  21.874   7.243
 5814POPC   NC374687  15.460   7.147   5.671
 5814POPC   PO474688  15.548   6.511   5.419
 5814POPC   GL174689  15.217   6.678   5.716
 5814POPC   GL274690  15.444   6.730   5.964
 5814POPC   C1A74691  15.008   6.919   6.103
 5814POPC   D2A74692  15.167   7.007   6.540
 5814POPC   C3A74693  14.948   6.868   6.884
 5814POPC   C4A74694  14.965   6.578   7.186
 5814POPC   C1B74695  15.547   6.515   6.325
 5814POPC   C2B74696  15.616   6.753   6.675
 5814POPC   C3B74697  15.432   6.789   7.057
 5814POPC   C4B74698  15.456   6.514   7.351
 5815POPC   NC374699  31.508  34.967   5.397
 5815POPC   PO474700  31.334  34.324   5.457
 5815POPC   GL174701  31.524  34.398   5.835
 5815POPC   GL274702  31.643  34.735   5.833
 5815POPC   C1A74703  31.318  34.554   6.212
 5815POPC   D2A74704  31.100  34.799   6.519
 5815POPC   C3A74705  31.382  34.652   6.819
 5815POPC   C4A74706  31.381  34.571   7.217
 5815POPC   C1B74707  31.861  34.965   6.153
 5815POPC   C2B74708  31.989  34.870   6.579
 5815POPC   C3B74709  31.823  34.914   7.003
 5815POPC   C4B74710  31.711  34.904   7.437
 5816POPC   NC374711  44.584  17.755   5.628
 5816POPC   PO474712   0.026  17.239   5.508
 5816POPC   GL174713  44.938  17.490   5.887
 5816POPC   GL274714  44.885  17.854   6.012
 5816POPC   C1A74715  44.761  17.419   6.285
 5816POPC   D2A74716  44.660  17.577   6.671
 5816POPC   C3A74717  44.854  17.330   6.944
 5816POPC   C4A74718  44.665  17.066   7.243
 5816POPC   C1B74719  44.461  17.831   6.255
 5816POPC   C2B74720  44.359  18.053   6.638
 5816POPC   C3B74721  44.288  17.856   7.018
 5816POPC   C4B74722  44.624  17.631   7.251
 5817POPC   NC374723   3.944  20.760   5.403
 5817POPC   PO474724   4.495  20.500   5.471
 5817POPC   GL174725   4.291  20.686   5.819
 5817POPC   GL274726   4.095  20.973   5.827
 5817POPC   C1A74727   4.156  20.550   6.212
 5817POPC   D2A74728   4.443  20.418   6.534
 5817POPC   C3A74729   4.178  20.451   6.871
 5817POPC   C4A74730   3.955  20.483   7.247
 5817POPC   C1B74731   4.318  21.025   6.237
 5817POPC   C2B74732   4.369  20.917   6.682
 5817POPC   C3B74733   4.256  20.899   7.118
 5817POPC   C4B74734   4.274  20.987   7.564
 5818POPC   NC374735  10.275  22.880   5.291
 5818POPC   PO474736   9.649  23.187   5.430
 5818POPC   GL174737   9.664  23.007   5.834
 5818POPC   GL274738   9.424  23.185   6.004
 5818POPC   C1A74739   9.898  23.037   6.239
 5818POPC   D2A74740  10.015  23.208   6.646
 5818POPC   C3A74741   9.959  22.907   6.999
 5818POPC   C4A74742  10.240  22.652   7.232
 5818POPC   C1B74743   9.271  23.083   6.388
 5818POPC   C2B74744   9.510  22.998   6.715
 5818POPC   C3B74745   9.477  23.040   7.130
 5818POPC   C4B74746   9.409  22.751   7.438
 5819POPC   NC374747  20.915  23.577   5.114
 5819POPC   PO474748  21.450  24.002   5.326
 5819POPC   GL174749  21.426  23.813   5.727
 5819POPC   GL274750  21.153  24.043   5.786
 5819POPC   C1A74751  21.569  23.654   6.139
 5819POPC   D2A74752  21.524  23.767   6.584
 5819POPC   C3A74753  21.327  23.583   6.947
 5819POPC   C4A74754  21.440  23.726   7.365
 5819POPC   C1B74755  21.145  23.909   6.248
 5819POPC   C2B74756  21.001  23.912   6.689
 5819POPC   C3B74757  21.176  24.072   7.077
 5819POPC   C4B74758  21.134  24.072   7.554
 5820POPC   NC374759  43.227  12.403   5.416
 5820POPC   PO474760  43.327  11.728   5.427
 5820POPC   GL174761  43.203  11.991   5.774
 5820POPC   GL274762  43.527  12.015   5.868
 5820POPC   C1A74763  43.111  11.925   6.240
 5820POPC   D2A74764  42.815  12.125   6.552
 5820POPC   C3A74765  42.633  12.070   6.939
 5820POPC   C4A74766  42.823  12.140   7.323
 5820POPC   C1B74767  43.404  12.360   6.109
 5820POPC   C2B74768  43.284  12.335   6.524
 5820POPC   C3B74769  43.207  12.138   6.917
 5820POPC   C4B74770  43.286  12.322   7.299
 5821POPC   NC374771  44.027  26.536   5.403
 5821POPC   PO474772  43.360  26.852   5.520
 5821POPC   GL174773  43.718  26.785   5.744
 5821POPC   GL274774  43.639  26.444   5.777
 5821POPC   C1A74775  43.971  26.798   6.123
 5821POPC   D2A74776  43.874  27.017   6.494
 5821POPC   C3A74777  43.970  26.885   6.885
 5821POPC   C4A74778  44.058  27.127   7.228
 5821POPC   C1B74779  43.753  26.319   6.146
 5821POPC   C2B74780  43.831  26.477   6.519
 5821POPC   C3B74781  43.730  26.428   6.913
 5821POPC   C4B74782  44.101  26.462   7.154
 5822POPC   NC374783  35.652  26.513   5.507
 5822POPC   PO474784  35.058  26.799   5.374
 5822POPC   GL174785  35.248  26.681   5.769
 5822POPC   GL274786  35.049  26.397   5.845
 5822POPC   C1A74787  35.551  26.794   6.109
 5822POPC   D2A74788  35.606  26.692   6.531
 5822POPC   C3A74789  35.606  27.033   6.810
 5822POPC   C4A74790  35.441  26.898   7.179
 5822POPC   C1B74791  35.242  26.405   6.240
 5822POPC   C2B74792  35.251  26.320   6.668
 5822POPC   C3B74793  35.182  26.479   7.066
 5822POPC   C4B74794  35.053  26.580   7.469
 5823POPC   NC374795  27.930   3.500   5.385
 5823POPC   PO474796  28.557   3.764   5.242
 5823POPC   GL174797  28.510   3.670   5.711
 5823POPC   GL274798  28.301   3.366   5.738
 5823POPC   C1A74799  28.395   3.816   6.164
 5823POPC   D2A74800  28.039   3.978   6.443
 5823POPC   C3A74801  28.101   3.891   6.889
 5823POPC   C4A74802  28.439   3.717   7.134
 5823POPC   C1B74803  28.219   3.319   6.188
 5823POPC   C2B74804  28.429   3.476   6.588
 5823POPC   C3B74805  28.478   3.230   6.961
 5823POPC   C4B74806  28.364   3.312   7.408
 5824POPC   NC374807  28.241  15.702   5.636
 5824POPC   PO474808  28.622  16.281   5.387
 5824POPC   GL174809  28.502  16.068   5.814
 5824POPC   GL274810  28.726  15.748   5.826
 5824POPC   C1A74811  28.194  15.881   6.223
 5824POPC   D2A74812  27.999  15.768   6.660
 5824POPC   C3A74813  28.087  16.015   7.000
 5824POPC   C4A74814  28.328  15.941   7.354
 5824POPC   C1B74815  28.703  15.956   6.255
 5824POPC   C2B74816  28.512  15.788   6.646
 5824POPC   C3B74817  28.690  15.742   7.039
 5824POPC   C4B74818  28.824  15.987   7.366
 5825POPC   NC374819   8.763  13.662   5.460
 5825POPC   PO474820   9.426  13.531   5.545
 5825POPC   GL174821   9.124  13.486   5.869
 5825POPC   GL274822   8.980  13.824   5.894
 5825POPC   C1A74823   8.906  13.481   6.276
 5825POPC   D2A74824   8.693  13.767   6.578
 5825POPC   C3A74825   8.850  13.619   6.988
 5825POPC   C4A74826   8.725  13.207   7.123
 5825POPC   C1B74827   9.308  13.856   6.207
 5825POPC   C2B74828   9.201  13.836   6.644
 5825POPC   C3B74829   9.106  14.094   7.001
 5825POPC   C4B74830   9.408  14.260   7.274
 5826POPC   NC374831  30.822   3.949   5.382
 5826POPC   PO474832  30.664   4.654   5.440
 5826POPC   GL174833  30.764   4.530   5.833
 5826POPC   GL274834  30.835   4.194   5.815
 5826POPC   C1A74835  30.654   4.385   6.256
 5826POPC   D2A74836  30.797   4.550   6.633
 5826POPC   C3A74837  30.686   4.322   7.041
 5826POPC   C4A74838  30.436   4.171   7.429
 5826POPC   C1B74839  31.009   4.006   6.169
 5826POPC   C2B74840  30.936   4.055   6.591
 5826POPC   C3B74841  31.017   3.808   6.922
 5826POPC   C4B74842  30.776   3.806   7.281
 5827POPC   NC374843  37.172  40.945   5.496
 5827POPC   PO474844  37.156  40.286   5.586
 5827POPC   GL174845  37.047  40.649   5.895
 5827POPC   GL274846  36.758  40.872   5.812
 5827POPC   C1A74847  36.783  40.713   6.295
 5827POPC   D2A74848  37.111  40.699   6.576
 5827POPC   C3A74849  37.222  40.981   6.862
 5827POPC   C4A74850  37.156  40.778   7.231
 5827POPC   C1B74851  37.008  41.124   6.125
 5827POPC   C2B74852  36.859  41.175   6.546
 5827POPC   C3B74853  36.699  40.906   6.860
 5827POPC   C4B74854  36.751  41.098   7.232
 5828POPC   NC374855   6.027  18.387   5.469
 5828POPC   PO474856   5.582  18.815   5.734
 5828POPC   GL174857   5.622  18.354   5.824
 5828POPC   GL274858   5.452  17.986   5.860
 5828POPC   C1A74859   5.740  18.286   6.254
 5828POPC   D2A74860   5.877  18.437   6.680
 5828POPC   C3A74861   5.688  18.430   7.100
 5828POPC   C4A74862   5.885  18.337   7.492
 5828POPC   C1B74863   5.774  17.790   6.171
 5828POPC   C2B74864   5.859  17.928   6.613
 5828POPC   C3B74865   5.659  17.901   7.013
 5828POPC   C4B74866   5.440  18.071   7.374
 5829POPC   NC374867  10.668  34.213   5.160
 5829POPC   PO474868  10.726  33.686   5.600
 5829POPC   GL174869  10.430  33.749   5.892
 5829POPC   GL274870  10.398  34.097   5.859
 5829POPC   C1A74871  10.342  33.543   6.267
 5829POPC   D2A74872  10.573  33.611   6.614
 5829POPC   C3A74873  10.312  33.638   6.959
 5829POPC   C4A74874  10.591  33.602   7.308
 5829POPC   C1B74875  10.353  34.064   6.325
 5829POPC   C2B74876  10.456  34.095   6.760
 5829POPC   C3B74877  10.398  34.073   7.210
 5829POPC   C4B74878  10.554  34.021   7.666
 5830POPC   NC374879  37.156  37.745   5.541
 5830POPC   PO474880  36.698  37.757   4.984
 5830POPC   GL174881  36.655  37.643   5.537
 5830POPC   GL274882  36.891  37.438   5.832
 5830POPC   C1A74883  36.686  37.845   6.036
 5830POPC   D2A74884  36.734  37.947   6.526
 5830POPC   C3A74885  36.854  37.755   6.944
 5830POPC   C4A74886  36.821  37.935   7.328
 5830POPC   C1B74887  37.223  37.405   6.175
 5830POPC   C2B74888  37.083  37.489   6.582
 5830POPC   C3B74889  37.293  37.455   6.989
 5830POPC   C4B74890  37.114  37.530   7.421
 5831POPC   NC374891  12.124  16.077   5.611
 5831POPC   PO474892  11.608  15.656   5.593
 5831POPC   GL174893  11.822  15.825   5.920
 5831POPC   GL274894  12.143  15.691   5.951
 5831POPC   C1A74895  11.895  16.008   6.337
 5831POPC   D2A74896  12.048  16.062   6.769
 5831POPC   C3A74897  11.997  15.790   7.130
 5831POPC   C4A74898  12.133  16.107   7.416
 5831POPC   C1B74899  12.286  15.678   6.358
 5831POPC   C2B74900  12.362  15.636   6.790
 5831POPC   C3B74901  12.476  15.888   7.129
 5831POPC   C4B74902  12.413  15.726   7.598
 5832POPC   NC374903  16.973  16.672   5.371
 5832POPC   PO474904  16.571  17.140   5.442
 5832POPC   GL174905  16.794  16.965   5.824
 5832POPC   GL274906  17.092  16.786   5.875
 5832POPC   C1A74907  16.840  16.915   6.302
 5832POPC   D2A74908  16.992  16.965   6.728
 5832POPC   C3A74909  16.633  17.050   6.993
 5832POPC   C4A74910  16.248  16.794   7.011
 5832POPC   C1B74911  17.253  16.611   6.270
 5832POPC   C2B74912  17.193  16.502   6.738
 5832POPC   C3B74913  17.147  16.708   7.159
 5832POPC   C4B74914  17.104  16.739   7.633
 5833POPC   NC374915   9.365   2.091   5.342
 5833POPC   PO474916   8.906   1.622   5.440
 5833POPC   GL174917   8.950   1.992   5.723
 5833POPC   GL274918   9.272   2.167   5.819
 5833POPC   C1A74919   8.804   2.066   6.151
 5833POPC   D2A74920   8.851   2.087   6.601
 5833POPC   C3A74921   8.792   1.922   7.033
 5833POPC   C4A74922   9.024   1.685   7.356
 5833POPC   C1B74923   9.316   1.779   6.027
 5833POPC   C2B74924   9.274   1.846   6.446
 5833POPC   C3B74925   9.287   1.888   6.883
 5833POPC   C4B74926   9.240   2.188   7.208
 5834POPC   NC374927  36.570  21.756   5.577
 5834POPC   PO474928  37.017  21.521   5.060
 5834POPC   GL174929  37.018  21.369   5.560
 5834POPC   GL274930  37.009  21.632   5.834
 5834POPC   C1A74931  37.017  21.171   6.027
 5834POPC   D2A74932  37.125  21.371   6.467
 5834POPC   C3A74933  37.057  21.199   6.858
 5834POPC   C4A74934  37.118  21.348   7.269
 5834POPC   C1B74935  36.712  21.550   6.230
 5834POPC   C2B74936  36.596  21.326   6.641
 5834POPC   C3B74937  36.622  21.231   7.118
 5834POPC   C4B74938  36.384  21.305   7.482
 5835POPC   NC374939  41.206  36.311   5.471
 5835POPC   PO474940  40.555  36.092   5.320
 5835POPC   GL174941  40.622  36.123   5.769
 5835POPC   GL274942  40.810  36.466   5.801
 5835POPC   C1A74943  40.493  35.857   6.156
 5835POPC   D2A74944  40.653  35.717   6.575
 5835POPC   C3A74945  40.604  36.052   6.902
 5835POPC   C4A74946  40.810  36.160   7.286
 5835POPC   C1B74947  41.084  36.358   6.161
 5835POPC   C2B74948  40.932  36.337   6.577
 5835POPC   C3B74949  41.163  36.295   6.944
 5835POPC   C4B74950  41.222  36.470   7.359
 5836POPC   NC374951  38.277  39.147   5.282
 5836POPC   PO474952  38.839  39.181   5.561
 5836POPC   GL174953  38.549  39.171   5.893
 5836POPC   GL274954  38.205  39.179   5.784
 5836POPC   C1A74955  38.401  39.394   6.256
 5836POPC   D2A74956  38.376  39.347   6.692
 5836POPC   C3A74957  38.666  39.100   6.894
 5836POPC   C4A74958  38.851  39.071   7.274
 5836POPC   C1B74959  38.109  38.965   6.158
 5836POPC   C2B74960  37.999  39.040   6.589
 5836POPC   C3B74961  38.099  39.055   7.039
 5836POPC   C4B74962  38.364  39.286   7.267
 5837POPC   NC374963   7.872  18.661   5.488
 5837POPC   PO474964   7.265  18.315   5.427
 5837POPC   GL174965   7.307  18.183   5.811
 5837POPC   GL274966   7.623  18.055   5.890
 5837POPC   C1A74967   7.247  18.351   6.210
 5837POPC   D2A74968   7.416  18.422   6.615
 5837POPC   C3A74969   7.166  18.213   6.912
 5837POPC   C4A74970   7.257  18.290   7.317
 5837POPC   C1B74971   7.760  18.296   6.236
 5837POPC   C2B74972   7.804  18.076   6.621
 5837POPC   C3B74973   7.611  17.993   7.030
 5837POPC   C4B74974   7.617  17.971   7.497
 5838POPC   NC374975  38.465  10.143   5.047
 5838POPC   PO474976  38.141   9.683   5.456
 5838POPC   GL174977  38.118   9.507   5.815
 5838POPC   GL274978  38.436   9.740   5.898
 5838POPC   C1A74979  38.178   9.461   6.226
 5838POPC   D2A74980  38.317   9.777   6.476
 5838POPC   C3A74981  38.308   9.665   6.876
 5838POPC   C4A74982  38.200   9.395   7.204
 5838POPC   C1B74983  38.761   9.834   6.214
 5838POPC   C2B74984  38.804   9.727   6.653
 5838POPC   C3B74985  38.744   9.770   7.102
 5838POPC   C4B74986  38.463   9.755   7.439
 5839POPC   NC374987  24.322  32.422   5.332
 5839POPC   PO474988  24.871  32.763   5.242
 5839POPC   GL174989  24.718  32.444   5.650
 5839POPC   GL274990  24.484  32.140   5.727
 5839POPC   C1A74991  24.418  32.515   6.054
 5839POPC   D2A74992  24.164  32.297   6.381
 5839POPC   C3A74993  24.270  32.321   6.811
 5839POPC   C4A74994  24.314  32.658   7.100
 5839POPC   C1B74995  24.778  32.161   6.115
 5839POPC   C2B74996  24.719  32.130   6.610
 5839POPC   C3B74997  24.726  32.227   7.094
 5839POPC   C4B74998  24.649  31.981   7.505
 5840POPC   NC374999  33.426   9.264   5.597
 5840POPC   PO475000  33.809   8.704   5.428
 5840POPC   GL175001  33.916   8.988   5.736
 5840POPC   GL275002  33.618   8.944   5.956
 5840POPC   C1A75003  34.086   8.899   6.151
 5840POPC   D2A75004  33.814   8.964   6.511
 5840POPC   C3A75005  33.985   8.915   6.914
 5840POPC   C4A75006  33.862   8.792   7.330
 5840POPC   C1B75007  33.384   9.206   6.258
 5840POPC   C2B75008  33.522   9.384   6.636
 5840POPC   C3B75009  33.544   9.172   7.009
 5840POPC   C4B75010  33.601   9.207   7.426
 5841POPC   NC375011  28.950  31.068   5.276
 5841POPC   PO475012  29.283  31.628   5.415
 5841POPC   GL175013  29.153  31.338   5.709
 5841POPC   GL275014  29.509  31.246   5.774
 5841POPC   C1A75015  29.003  31.435   6.105
 5841POPC   D2A75016  29.125  31.592   6.483
 5841POPC   C3A75017  28.974  31.377   6.809
 5841POPC   C4A75018  28.958  31.550   7.192
 5841POPC   C1B75019  29.490  31.345   6.208
 5841POPC   C2B75020  29.499  31.240   6.632
 5841POPC   C3B75021  29.422  31.383   7.039
 5841POPC   C4B75022  29.583  31.696   7.332
 5842POPC   NC375023   6.936  14.772   5.613
 5842POPC   PO475024   6.668  15.206   5.187
 5842POPC   GL175025   6.790  15.307   5.661
 5842POPC   GL275026   6.485  15.383   5.834
 5842POPC   C1A75027   6.881  15.198   6.140
 5842POPC   D2A75028   6.781  15.193   6.598
 5842POPC   C3A75029   6.958  14.984   6.962
 5842POPC   C4A75030   6.823  15.139   7.362
 5842POPC   C1B75031   6.369  15.168   6.253
 5842POPC   C2B75032   6.340  14.941   6.654
 5842POPC   C3B75033   6.373  15.051   7.090
 5842POPC   C4B75034   6.334  14.863   7.494
 5843POPC   NC375035  42.008  21.641   5.500
 5843POPC   PO475036  42.303  22.294   5.514
 5843POPC   GL175037  42.415  22.183   5.882
 5843POPC   GL275038  42.532  21.833   5.907
 5843POPC   C1A75039  42.253  22.349   6.254
 5843POPC   D2A75040  42.127  22.550   6.612
 5843POPC   C3A75041  42.192  22.286   6.935
 5843POPC   C4A75042  42.210  22.260   7.311
 5843POPC   C1B75043  42.249  21.837   6.199
 5843POPC   C2B75044  42.255  21.869   6.640
 5843POPC   C3B75045  42.153  21.781   7.082
 5843POPC   C4B75046  42.075  21.838   7.545
 5844POPC   NC375047  24.532  16.998   5.640
 5844POPC   PO475048  24.646  16.272   5.723
 5844POPC   GL175049  24.561  16.639   6.015
 5844POPC   GL275050  24.221  16.723   6.118
 5844POPC   C1A75051  24.771  16.935   6.327
 5844POPC   D2A75052  24.786  17.050   6.774
 5844POPC   C3A75053  24.506  16.803   7.046
 5844POPC   C4A75054  24.789  16.621   7.334
 5844POPC   C1B75055  24.319  17.136   6.269
 5844POPC   C2B75056  24.281  17.135   6.714
 5844POPC   C3B75057  24.057  17.139   7.100
 5844POPC   C4B75058  24.122  17.068   7.550
 5845POPC   NC375059  21.027  11.644   5.414
 5845POPC   PO475060  20.326  11.514   5.351
 5845POPC   GL175061  20.445  11.519   5.804
 5845POPC   GL275062  20.773  11.692   5.873
 5845POPC   C1A75063  20.537  11.307   6.217
 5845POPC   D2A75064  20.749  11.218   6.634
 5845POPC   C3A75065  20.478  11.201   7.013
 5845POPC   C4A75066  20.342  10.825   7.266
 5845POPC   C1B75067  20.973  11.566   6.286
 5845POPC   C2B75068  21.040  11.652   6.721
 5845POPC   C3B75069  20.947  11.427   7.108
 5845POPC   C4B75070  20.772  11.086   7.424
 5846POPC   NC375071  31.447  19.655   5.058
 5846POPC   PO475072  31.406  20.201   5.374
 5846POPC   GL175073  31.421  19.926   5.742
 5846POPC   GL275074  31.111  19.768   5.919
 5846POPC   C1A75075  31.596  19.778   6.119
 5846POPC   D2A75076  31.430  19.787   6.521
 5846POPC   C3A75077  31.620  19.941   6.879
 5846POPC   C4A75078  31.801  19.952   7.250
 5846POPC   C1B75079  31.179  19.464   6.241
 5846POPC   C2B75080  31.225  19.328   6.669
 5846POPC   C3B75081  31.144  19.710   6.926
 5846POPC   C4B75082  31.312  19.872   7.286
 5847POPC   NC375083  35.716   5.443   5.332
 5847POPC   PO475084  36.286   5.199   5.544
 5847POPC   GL175085  35.882   5.181   5.795
 5847POPC   GL275086  36.042   4.919   6.031
 5847POPC   C1A75087  35.635   5.151   6.196
 5847POPC   D2A75088  35.843   4.972   6.548
 5847POPC   C3A75089  35.885   4.975   6.984
 5847POPC   C4A75090  36.327   4.910   7.092
 5847POPC   C1B75091  36.150   5.295   6.270
 5847POPC   C2B75092  36.162   5.366   6.712
 5847POPC   C3B75093  36.131   5.459   7.120
 5847POPC   C4B75094  36.279   5.295   7.475
 5848POPC   NC375095  29.557  42.803   5.366
 5848POPC   PO475096  29.154  42.306   5.364
 5848POPC   GL175097  29.038  42.226   5.811
 5848POPC   GL275098  28.690  42.307   5.807
 5848POPC   C1A75099  29.160  42.254   6.284
 5848POPC   D2A75100  29.180  42.040   6.700
 5848POPC   C3A75101  29.306  42.252   7.096
 5848POPC   C4A75102  29.378  42.203   7.559
 5848POPC   C1B75103  28.726  42.491   6.209
 5848POPC   C2B75104  28.687  42.256   6.578
 5848POPC   C3B75105  28.788  42.280   6.989
 5848POPC   C4B75106  28.903  42.294   7.402
 5849POPC   NC375107  34.676  29.579   5.075
 5849POPC   PO475108  34.661  30.151   5.437
 5849POPC   GL175109  34.513  30.028   5.842
 5849POPC   GL275110  34.251  29.767   5.787
 5849POPC   C1A75111  34.429  30.129   6.273
 5849POPC   D2A75112  34.347  30.298   6.686
 5849POPC   C3A75113  34.641  30.175   6.999
 5849POPC   C4A75114  34.503  30.053   7.369
 5849POPC   C1B75115  34.499  29.615   6.163
 5849POPC   C2B75116  34.651  29.498   6.573
 5849POPC   C3B75117  34.435  29.689   6.925
 5849POPC   C4B75118  34.198  29.417   7.207
 5850POPC   NC375119  28.257   5.939   5.472
 5850POPC   PO475120  28.738   5.498   5.263
 5850POPC   GL175121  28.608   5.625   5.670
 5850POPC   GL275122  28.696   5.977   5.716
 5850POPC   C1A75123  28.531   5.564   6.097
 5850POPC   D2A75124  28.480   5.725   6.511
 5850POPC   C3A75125  28.237   5.560   6.849
 5850POPC   C4A75126  28.400   5.709   7.252
 5850POPC   C1B75127  28.525   6.093   6.117
 5850POPC   C2B75128  28.259   6.189   6.472
 5850POPC   C3B75129  28.259   6.077   6.900
 5850POPC   C4B75130  28.253   6.216   7.298
 5851POPC   NC375131  29.091  23.412   5.594
 5851POPC   PO475132  29.346  24.046   5.637
 5851POPC   GL175133  29.086  23.837   5.873
 5851POPC   GL275134  28.802  23.964   5.815
 5851POPC   C1A75135  29.143  23.669   6.256
 5851POPC   D2A75136  29.427  23.679   6.573
 5851POPC   C3A75137  29.162  23.632   6.911
 5851POPC   C4A75138  29.233  23.644   7.316
 5851POPC   C1B75139  28.862  24.118   6.258
 5851POPC   C2B75140  28.889  24.024   6.705
 5851POPC   C3B75141  29.029  24.183   7.087
 5851POPC   C4B75142  28.848  24.220   7.481
 5852POPC   NC375143  10.695  26.326   5.119
 5852POPC   PO475144  10.604  27.088   5.197
 5852POPC   GL175145  10.578  26.735   5.573
 5852POPC   GL275146  10.868  26.560   5.749
 5852POPC   C1A75147  10.444  26.711   6.042
 5852POPC   D2A75148  10.313  26.942   6.452
 5852POPC   C3A75149  10.408  26.754   6.859
 5852POPC   C4A75150  10.357  26.745   7.333
 5852POPC   C1B75151  10.983  26.717   6.186
 5852POPC   C2B75152  10.923  26.695   6.667
 5852POPC   C3B75153  10.824  26.648   7.116
 5852POPC   C4B75154  10.850  26.731   7.585
 5853POPC   NC375155  16.184   0.176   5.336
 5853POPC   PO475156  15.740   0.551   5.423
 5853POPC   GL175157  15.925   0.600   5.853
 5853POPC   GL275158  15.643   0.801   5.910
 5853POPC   C1A75159  16.140   0.565   6.297
 5853POPC   D2A75160  16.038   0.691   6.719
 5853POPC   C3A75161  16.153   0.346   7.024
 5853POPC   C4A75162  15.926   0.071   7.332
 5853POPC   C1B75163  15.641   0.669   6.347
 5853POPC   C2B75164  15.537   0.696   6.785
 5853POPC   C3B75165  15.722   0.564   7.171
 5853POPC   C4B75166  15.553   0.378   7.555
 5854POPC   NC375167  26.498   1.963   5.570
 5854POPC   PO475168  26.922   2.312   5.218
 5854POPC   GL175169  27.044   2.116   5.621
 5854POPC   GL275170  26.907   2.368   5.845
 5854POPC   C1A75171  27.118   1.976   6.073
 5854POPC   D2A75172  27.137   2.192   6.493
 5854POPC   C3A75173  26.867   2.068   6.838
 5854POPC   C4A75174  26.945   1.762   7.195
 5854POPC   C1B75175  26.663   2.220   6.184
 5854POPC   C2B75176  26.564   2.389   6.562
 5854POPC   C3B75177  26.362   2.330   6.956
 5854POPC   C4B75178  26.490   1.976   7.211
 5855POPC   NC375179   8.128  33.266   5.646
 5855POPC   PO475180   8.255  33.827   5.149
 5855POPC   GL175181   8.127  33.825   5.607
 5855POPC   GL275182   8.256  34.131   5.757
 5855POPC   C1A75183   8.050  33.734   6.088
 5855POPC   D2A75184   8.277  33.644   6.477
 5855POPC   C3A75185   8.213  33.890   6.852
 5855POPC   C4A75186   8.174  33.807   7.289
 5855POPC   C1B75187   8.518  33.951   6.128
 5855POPC   C2B75188   8.737  33.881   6.554
 5855POPC   C3B75189   8.698  34.197   6.882
 5855POPC   C4B75190   8.362  34.271   7.205
 5856POPC   NC375191   9.464   3.580   5.309
 5856POPC   PO475192  10.072   3.707   5.337
 5856POPC   GL175193   9.878   3.673   5.751
 5856POPC   GL275194   9.738   3.327   5.832
 5856POPC   C1A75195  10.067   3.593   6.178
 5856POPC   D2A75196  10.198   3.513   6.620
 5856POPC   C3A75197   9.939   3.449   6.972
 5856POPC   C4A75198   9.689   3.748   7.195
 5856POPC   C1B75199   9.562   3.570   6.173
 5856POPC   C2B75200   9.563   3.541   6.633
 5856POPC   C3B75201   9.419   3.362   7.035
 5856POPC   C4B75202   9.510   3.354   7.529
 5857POPC   NC375203   4.094  38.941   5.526
 5857POPC   PO475204   3.461  39.110   5.324
 5857POPC   GL175205   3.528  39.142   5.758
 5857POPC   GL275206   3.842  39.247   5.861
 5857POPC   C1A75207   3.287  39.227   6.122
 5857POPC   D2A75208   3.274  39.507   6.495
 5857POPC   C3A75209   3.346  39.324   6.875
 5857POPC   C4A75210   3.363  39.094   7.264
 5857POPC   C1B75211   3.723  39.478   6.239
 5857POPC   C2B75212   3.844  39.438   6.705
 5857POPC   C3B75213   3.843  39.384   7.146
 5857POPC   C4B75214   3.912  39.017   7.360
 5858POPC   NC375215  26.724  40.280   5.377
 5858POPC   PO475216  26.649  39.628   5.372
 5858POPC   GL175217  26.636  39.819   5.790
 5858POPC   GL275218  26.989  39.778   5.758
 5858POPC   C1A75219  26.740  40.049   6.239
 5858POPC   D2A75220  27.004  40.165   6.628
 5858POPC   C3A75221  26.833  40.157   7.041
 5858POPC   C4A75222  26.459  39.981   7.099
 5858POPC   C1B75223  26.892  39.572   6.164
 5858POPC   C2B75224  26.995  39.637   6.609
 5858POPC   C3B75225  26.809  39.617   7.014
 5858POPC   C4B75226  26.934  39.732   7.424
 5859POPC   NC375227  34.134   9.431   5.311
 5859POPC   PO475228  33.465   9.660   5.366
 5859POPC   GL175229  33.759   9.859   5.615
 5859POPC   GL275230  33.852   9.541   5.756
 5859POPC   C1A75231  33.729   9.997   6.041
 5859POPC   D2A75232  33.749   9.810   6.439
 5859POPC   C3A75233  33.905   9.979   6.818
 5859POPC   C4A75234  33.670   9.865   7.183
 5859POPC   C1B75235  33.880   9.375   6.182
 5859POPC   C2B75236  34.070   9.443   6.604
 5859POPC   C3B75237  33.984   9.472   7.028
 5859POPC   C4B75238  33.985   9.527   7.461
 5860POPC   NC375239  41.386  34.738   5.410
 5860POPC   PO475240  41.741  34.255   5.137
 5860POPC   GL175241  41.722  34.233   5.676
 5860POPC   GL275242  41.727  34.611   5.772
 5860POPC   C1A75243  41.761  34.335   6.186
 5860POPC   D2A75244  41.500  34.512   6.541
 5860POPC   C3A75245  41.632  34.619   6.975
 5860POPC   C4A75246  41.431  34.365   7.267
 5860POPC   C1B75247  41.767  34.864   6.189
 5860POPC   C2B75248  41.576  35.020   6.606
 5860POPC   C3B75249  41.206  34.919   6.858
 5860POPC   C4B75250  41.146  34.784   7.270
 5861POPC   NC375251  38.103  11.805   5.375
 5861POPC   PO475252  37.401  12.063   5.452
 5861POPC   GL175253  37.797  12.076   5.698
 5861POPC   GL275254  37.812  11.714   5.796
 5861POPC   C1A75255  37.922  12.274   6.094
 5861POPC   D2A75256  37.644  12.381   6.439
 5861POPC   C3A75257  37.669  12.064   6.704
 5861POPC   C4A75258  37.808  12.060   7.078
 5861POPC   C1B75259  37.594  11.870   6.179
 5861POPC   C2B75260  37.272  11.825   6.507
 5861POPC   C3B75261  37.286  11.866   6.996
 5861POPC   C4B75262  37.396  11.650   7.382
 5862POPC   NC375263  16.603   8.153   5.448
 5862POPC   PO475264  16.365   8.649   5.725
 5862POPC   GL175265  16.692   8.390   5.904
 5862POPC   GL275266  16.416   8.201   6.039
 5862POPC   C1A75267  16.813   8.213   6.338
 5862POPC   D2A75268  16.583   8.275   6.738
 5862POPC   C3A75269  16.731   8.115   7.131
 5862POPC   C4A75270  17.018   8.278   7.423
 5862POPC   C1B75271  16.462   8.586   6.330
 5862POPC   C2B75272  16.360   8.756   6.692
 5862POPC   C3B75273  16.507   8.628   7.103
 5862POPC   C4B75274  16.512   8.581   7.536
 5863POPC   NC375275   7.039  15.530   5.275
 5863POPC   PO475276   7.451  14.933   5.362
 5863POPC   GL175277   7.593  15.195   5.722
 5863POPC   GL275278   7.307  15.431   5.702
 5863POPC   C1A75279   7.588  15.165   6.202
 5863POPC   D2A75280   7.316  15.076   6.589
 5863POPC   C3A75281   7.494  15.027   7.026
 5863POPC   C4A75282   7.304  14.901   7.417
 5863POPC   C1B75283   7.208  15.591   6.113
 5863POPC   C2B75284   7.021  15.633   6.537
 5863POPC   C3B75285   7.050  15.539   6.996
 5863POPC   C4B75286   7.260  15.450   7.401
 5864POPC   NC375287  11.872  19.373   5.403
 5864POPC   PO475288  12.367  18.939   5.505
 5864POPC   GL175289  12.198  19.220   5.782
 5864POPC   GL275290  11.841  19.063   5.808
 5864POPC   C1A75291  12.227  19.082   6.196
 5864POPC   D2A75292  12.191  18.764   6.508
 5864POPC   C3A75293  12.141  18.994   6.877
 5864POPC   C4A75294  12.000  18.868   7.265
 5864POPC   C1B75295  11.751  19.302   6.180
 5864POPC   C2B75296  11.685  19.404   6.626
 5864POPC   C3B75297  11.875  19.386   7.053
 5864POPC   C4B75298  11.712  19.230   7.461
 5865POPC   NC375299  29.088  12.393   5.528
 5865POPC   PO475300  29.269  11.905   5.095
 5865POPC   GL175301  29.344  11.880   5.655
 5865POPC   GL275302  29.069  11.723   5.891
 5865POPC   C1A75303  29.336  12.087   6.105
 5865POPC   D2A75304  28.941  12.090   6.349
 5865POPC   C3A75305  28.964  12.168   6.792
 5865POPC   C4A75306  29.137  12.181   7.229
 5865POPC   C1B75307  28.796  11.551   6.216
 5865POPC   C2B75308  28.824  11.676   6.650
 5865POPC   C3B75309  29.115  11.737   7.002
 5865POPC   C4B75310  29.032  11.607   7.442
 5866POPC   NC375311   6.527  30.007   5.464
 5866POPC   PO475312   6.034  30.444   5.560
 5866POPC   GL175313   6.306  30.176   5.894
 5866POPC   GL275314   6.354  29.782   5.887
 5866POPC   C1A75315   6.443  30.037   6.326
 5866POPC   D2A75316   6.390  30.083   6.783
 5866POPC   C3A75317   6.722  29.912   6.977
 5866POPC   C4A75318   6.896  30.126   7.277
 5866POPC   C1B75319   6.389  29.527   6.253
 5866POPC   C2B75320   6.493  29.510   6.692
 5866POPC   C3B75321   6.284  29.633   7.044
 5866POPC   C4B75322   6.348  29.970   7.327
 5867POPC   NC375323  32.952   2.385   5.433
 5867POPC   PO475324  32.542   2.972   5.251
 5867POPC   GL175325  32.765   2.999   5.747
 5867POPC   GL275326  33.081   2.778   5.730
 5867POPC   C1A75327  33.051   2.978   6.181
 5867POPC   D2A75328  33.017   2.781   6.609
 5867POPC   C3A75329  33.128   2.956   7.053
 5867POPC   C4A75330  33.158   2.977   7.535
 5867POPC   C1B75331  33.279   2.492   6.057
 5867POPC   C2B75332  33.345   2.402   6.498
 5867POPC   C3B75333  33.232   2.473   6.935
 5867POPC   C4B75334  33.322   2.491   7.336
 5868POPC   NC375335  22.943   9.720   5.338
 5868POPC   PO475336  22.612  10.002   5.506
 5868POPC   GL175337  22.856   9.836   5.879
 5868POPC   GL275338  22.810   9.482   5.859
 5868POPC   C1A75339  23.082   9.891   6.310
 5868POPC   D2A75340  23.257   9.993   6.726
 5868POPC   C3A75341  23.166  10.260   7.116
 5868POPC   C4A75342  23.150  10.155   7.587
 5868POPC   C1B75343  22.703   9.548   6.311
 5868POPC   C2B75344  22.818   9.691   6.717
 5868POPC   C3B75345  23.001   9.763   7.116
 5868POPC   C4B75346  22.775   9.819   7.510
 5869POPC   NC375347  21.541   2.704   5.377
 5869POPC   PO475348  21.229   3.250   5.518
 5869POPC   GL175349  21.295   2.946   5.805
 5869POPC   GL275350  21.646   3.030   5.753
 5869POPC   C1A75351  21.156   3.024   6.239
 5869POPC   D2A75352  21.298   2.928   6.668
 5869POPC   C3A75353  21.133   2.719   7.046
 5869POPC   C4A75354  21.400   2.825   7.401
 5869POPC   C1B75355  21.695   2.999   6.192
 5869POPC   C2B75356  21.779   2.778   6.587
 5869POPC   C3B75357  21.637   2.625   6.971
 5869POPC   C4B75358  21.812   2.517   7.357
 5870POPC   NC375359  30.349  30.187   5.373
 5870POPC   PO475360  30.196  29.520   5.407
 5870POPC   GL175361  30.049  29.797   5.753
 5870POPC   GL275362  29.986  30.178   5.767
 5870POPC   C1A75363  29.934  29.824   6.189
 5870POPC   D2A75364  30.129  29.737   6.570
 5870POPC   C3A75365  30.052  30.036   6.889
 5870POPC   C4A75366  29.943  29.925   7.293
 5870POPC   C1B75367  29.737  30.305   6.145
 5870POPC   C2B75368  29.669  30.177   6.551
 5870POPC   C3B75369  29.541  30.170   6.964
 5870POPC   C4B75370  29.756  30.394   7.246
 5871POPC   NC375371  40.284  27.880   5.429
 5871POPC   PO475372  39.872  27.295   5.557
 5871POPC   GL175373  39.992  27.609   5.850
 5871POPC   GL275374  40.323  27.741   5.917
 5871POPC   C1A75375  39.967  27.710   6.272
 5871POPC   D2A75376  40.291  27.700   6.571
 5871POPC   C3A75377  40.081  27.868   6.894
 5871POPC   C4A75378  39.676  27.775   7.051
 5871POPC   C1B75379  40.338  27.339   6.167
 5871POPC   C2B75380  40.408  27.194   6.599
 5871POPC   C3B75381  40.395  27.367   7.015
 5871POPC   C4B75382  40.177  27.600   7.320
 5872POPC   NC375383  16.759  26.975   5.432
 5872POPC   PO475384  16.954  26.527   5.778
 5872POPC   GL175385  16.834  26.920   5.948
 5872POPC   GL275386  16.488  26.947   5.924
 5872POPC   C1A75387  16.724  27.134   6.339
 5872POPC   D2A75388  16.444  26.989   6.650
 5872POPC   C3A75389  16.663  26.727   6.939
 5872POPC   C4A75390  16.681  26.791   7.375
 5872POPC   C1B75391  16.234  26.718   6.251
 5872POPC   C2B75392  16.061  26.613   6.669
 5872POPC   C3B75393  16.180  26.775   7.063
 5872POPC   C4B75394  16.423  27.160   7.138
 5873POPC   NC375395  24.460  25.181   5.447
 5873POPC   PO475396  24.946  24.775   5.607
 5873POPC   GL175397  24.557  24.907   5.885
 5873POPC   GL275398  24.484  25.291   5.927
 5873POPC   C1A75399  24.290  24.976   6.274
 5873POPC   D2A75400  24.117  25.179   6.651
 5873POPC   C3A75401  24.365  25.123   7.041
 5873POPC   C4A75402  24.301  24.909   7.455
 5873POPC   C1B75403  24.455  25.486   6.299
 5873POPC   C2B75404  24.499  25.516   6.713
 5873POPC   C3B75405  24.468  25.651   7.087
 5873POPC   C4B75406  24.769  25.411   7.244
 5874POPC   NC375407  23.397  17.639   5.370
 5874POPC   PO475408  23.836  17.163   5.209
 5874POPC   GL175409  23.870  17.447   5.614
 5874POPC   GL275410  23.594  17.555   5.830
 5874POPC   C1A75411  24.045  17.574   6.053
 5874POPC   D2A75412  24.106  17.570   6.507
 5874POPC   C3A75413  24.000  17.786   6.895
 5874POPC   C4A75414  24.064  17.600   7.347
 5874POPC   C1B75415  23.565  17.483   6.275
 5874POPC   C2B75416  23.622  17.461   6.715
 5874POPC   C3B75417  23.607  17.577   7.117
 5874POPC   C4B75418  23.333  17.870   7.263
 5875POPC   NC375419  10.234   6.430   5.613
 5875POPC   PO475420  10.483   6.920   5.205
 5875POPC   GL175421  10.396   6.924   5.671
 5875POPC   GL275422  10.712   6.957   5.879
 5875POPC   C1A75423  10.297   6.783   6.118
 5875POPC   D2A75424  10.552   6.874   6.418
 5875POPC   C3A75425  10.466   6.857   6.854
 5875POPC   C4A75426  10.334   6.791   7.259
 5875POPC   C1B75427  10.752   6.514   6.126
 5875POPC   C2B75428  10.707   6.394   6.590
 5875POPC   C3B75429  10.548   6.371   7.039
 5875POPC   C4B75430  10.681   6.490   7.484
 5876POPC   NC375431  15.449  19.725   5.408
 5876POPC   PO475432  14.988  20.134   5.400
 5876POPC   GL175433  14.937  20.084   5.820
 5876POPC   GL275434  15.273  19.925   5.876
 5876POPC   C1A75435  14.896  19.963   6.257
 5876POPC   D2A75436  15.126  20.013   6.663
 5876POPC   C3A75437  14.869  20.029   7.059
 5876POPC   C4A75438  14.749  20.139   7.486
 5876POPC   C1B75439  15.328  19.646   6.234
 5876POPC   C2B75440  15.425  19.580   6.666
 5876POPC   C3B75441  15.164  19.609   7.037
 5876POPC   C4B75442  15.316  19.470   7.426
 5877POPC   NC375443  25.860   6.184   5.393
 5877POPC   PO475444  26.078   6.928   5.462
 5877POPC   GL175445  26.108   6.655   5.823
 5877POPC   GL275446  25.846   6.391   5.866
 5877POPC   C1A75447  26.110   6.810   6.239
 5877POPC   D2A75448  26.109   7.034   6.633
 5877POPC   C3A75449  26.081   6.851   7.036
 5877POPC   C4A75450  26.088   7.030   7.452
 5877POPC   C1B75451  25.700   6.498   6.297
 5877POPC   C2B75452  25.780   6.390   6.701
 5877POPC   C3B75453  25.622   6.591   7.042
 5877POPC   C4B75454  25.831   6.367   7.322
 5878POPC   NC375455   0.070   8.915   5.415
 5878POPC   PO475456   0.669   9.149   5.239
 5878POPC   GL175457   0.478   9.094   5.706
 5878POPC   GL275458   0.357   8.767   5.838
 5878POPC   C1A75459   0.362   9.188   6.183
 5878POPC   D2A75460   0.182   9.099   6.642
 5878POPC   C3A75461   0.469   9.038   7.041
 5878POPC   C4A75462   0.532   9.060   7.524
 5878POPC   C1B75463   0.172   8.714   6.294
 5878POPC   C2B75464   0.239   8.610   6.763
 5878POPC   C3B75465   0.047   8.739   7.159
 5878POPC   C4B75466   0.135   8.710   7.653
 5879POPC   NC375467  29.153   2.442   5.286
 5879POPC   PO475468  28.943   2.997   5.380
 5879POPC   GL175469  29.021   2.773   5.763
 5879POPC   GL275470  28.857   2.477   5.821
 5879POPC   C1A75471  29.017   2.914   6.191
 5879POPC   D2A75472  29.360   3.018   6.475
 5879POPC   C3A75473  29.301   2.783   6.847
 5879POPC   C4A75474  29.183   2.999   7.242
 5879POPC   C1B75475  28.670   2.510   6.245
 5879POPC   C2B75476  28.896   2.515   6.656
 5879POPC   C3B75477  28.945   2.557   7.154
 5879POPC   C4B75478  28.800   2.587   7.614
 5880POPC   NC375479  41.694   1.207   5.293
 5880POPC   PO475480  41.489   0.597   5.585
 5880POPC   GL175481  41.656   0.985   5.806
 5880POPC   GL275482  41.816   1.347   5.809
 5880POPC   C1A75483  41.579   1.131   6.230
 5880POPC   D2A75484  41.406   1.160   6.652
 5880POPC   C3A75485  41.559   1.349   7.014
 5880POPC   C4A75486  41.458   1.056   7.280
 5880POPC   C1B75487  41.973   1.456   6.255
 5880POPC   C2B75488  42.024   1.312   6.710
 5880POPC   C3B75489  42.027   1.436   7.158
 5880POPC   C4B75490  41.785   1.340   7.543
 5881POPC   NC375491  12.707  18.599   5.468
 5881POPC   PO475492  13.169  18.124   5.321
 5881POPC   GL175493  12.869  18.192   5.716
 5881POPC   GL275494  12.689  17.894   5.807
 5881POPC   C1A75495  12.731  18.297   6.150
 5881POPC   D2A75496  12.631  18.472   6.570
 5881POPC   C3A75497  12.910  18.401   6.952
 5881POPC   C4A75498  12.999  18.408   7.423
 5881POPC   C1B75499  12.531  17.789   6.144
 5881POPC   C2B75500  12.518  17.928   6.519
 5881POPC   C3B75501  12.522  18.079   6.890
 5881POPC   C4B75502  12.736  18.015   7.259
 5882POPC   NC375503  30.624  17.254   5.506
 5882POPC   PO475504  30.879  17.864   5.389
 5882POPC   GL175505  30.821  17.732   5.787
 5882POPC   GL275506  30.464  17.827   5.785
 5882POPC   C1A75507  30.749  17.626   6.226
 5882POPC   D2A75508  30.885  17.700   6.644
 5882POPC   C3A75509  30.811  17.326   6.895
 5882POPC   C4A75510  30.743  17.363   7.328
 5882POPC   C1B75511  30.245  17.802   6.165
 5882POPC   C2B75512  30.212  17.623   6.571
 5882POPC   C3B75513  30.357  17.554   7.004
 5882POPC   C4B75514  30.408  17.765   7.441
 5883POPC   NC375515   2.474  36.665   5.483
 5883POPC   PO475516   2.714  37.277   5.554
 5883POPC   GL175517   2.573  37.041   5.865
 5883POPC   GL275518   2.848  36.790   5.849
 5883POPC   C1A75519   2.702  36.996   6.299
 5883POPC   D2A75520   2.485  36.979   6.700
 5883POPC   C3A75521   2.736  37.040   7.042
 5883POPC   C4A75522   2.794  36.821   7.424
 5883POPC   C1B75523   2.957  36.567   6.263
 5883POPC   C2B75524   2.866  36.649   6.699
 5883POPC   C3B75525   3.189  36.817   7.055
 5883POPC   C4B75526   3.294  36.842   7.520
 5884POPC   NC375527  27.362  16.113   5.449
 5884POPC   PO475528  27.833  15.669   5.443
 5884POPC   GL175529  27.720  15.854   5.856
 5884POPC   GL275530  27.442  16.117   5.944
 5884POPC   C1A75531  27.668  15.845   6.305
 5884POPC   D2A75532  27.465  15.866   6.713
 5884POPC   C3A75533  27.592  16.079   7.101
 5884POPC   C4A75534  27.531  16.364   7.449
 5884POPC   C1B75535  27.232  16.142   6.341
 5884POPC   C2B75536  27.043  16.136   6.754
 5884POPC   C3B75537  27.083  16.149   7.185
 5884POPC   C4B75538  27.149  16.099   7.649
 5885POPC   NC375539  44.161  32.230   5.448
 5885POPC   PO475540  44.779  32.184   5.308
 5885POPC   GL175541  44.790  32.058   5.768
 5885POPC   GL275542  44.592  32.316   5.866
 5885POPC   C1A75543  44.844  32.023   6.281
 5885POPC   D2A75544  44.974  32.281   6.680
 5885POPC   C3A75545   0.010  32.274   7.174
 5885POPC   C4A75546  44.824  32.103   7.582
 5885POPC   C1B75547  44.552  32.431   6.299
 5885POPC   C2B75548  44.444  32.190   6.640
 5885POPC   C3B75549  44.536  32.177   7.052
 5885POPC   C4B75550  44.362  32.019   7.397
 5886POPC   NC375551  39.207  36.565   5.492
 5886POPC   PO475552  39.272  37.246   5.410
 5886POPC   GL175553  39.215  36.999   5.812
 5886POPC   GL275554  39.479  36.737   5.860
 5886POPC   C1A75555  39.265  36.948   6.271
 5886POPC   D2A75556  39.223  37.119   6.669
 5886POPC   C3A75557  39.136  36.870   7.027
 5886POPC   C4A75558  38.903  36.976   7.392
 5886POPC   C1B75559  39.601  36.541   6.239
 5886POPC   C2B75560  39.354  36.589   6.624
 5886POPC   C3B75561  39.579  36.634   6.975
 5886POPC   C4B75562  39.689  36.467   7.314
 5887POPC   NC375563  41.597  17.038   4.992
 5887POPC   PO475564  41.363  16.638   5.288
 5887POPC   GL175565  41.410  16.664   5.770
 5887POPC   GL275566  41.661  16.927   5.880
 5887POPC   C1A75567  41.370  16.510   6.241
 5887POPC   D2A75568  41.670  16.287   6.553
 5887POPC   C3A75569  41.577  16.409   6.996
 5887POPC   C4A75570  41.230  16.617   7.189
 5887POPC   C1B75571  41.827  16.715   6.260
 5887POPC   C2B75572  41.791  16.780   6.711
 5887POPC   C3B75573  41.645  16.966   7.116
 5887POPC   C4B75574  41.799  17.230   7.484
 5888POPC   NC375575  22.785  39.966   5.584
 5888POPC   PO475576  23.305  39.587   5.582
 5888POPC   GL175577  23.117  39.790   5.944
 5888POPC   GL275578  23.098  40.190   5.950
 5888POPC   C1A75579  22.914  39.882   6.314
 5888POPC   D2A75580  22.967  40.151   6.629
 5888POPC   C3A75581  22.925  39.915   6.974
 5888POPC   C4A75582  22.837  39.879   7.395
 5888POPC   C1B75583  23.124  40.520   6.307
 5888POPC   C2B75584  23.198  40.588   6.766
 5888POPC   C3B75585  23.075  40.361   7.162
 5888POPC   C4B75586  23.084  40.253   7.628
 5889POPC   NC375587   2.511  27.053   5.580
 5889POPC   PO475588   2.003  26.631   5.471
 5889POPC   GL175589   2.046  26.896   5.810
 5889POPC   GL275590   2.299  26.672   5.915
 5889POPC   C1A75591   1.823  27.036   6.194
 5889POPC   D2A75592   1.533  26.980   6.581
 5889POPC   C3A75593   1.810  26.993   6.959
 5889POPC   C4A75594   1.948  26.642   7.143
 5889POPC   C1B75595   2.378  26.430   6.294
 5889POPC   C2B75596   2.295  26.539   6.748
 5889POPC   C3B75597   2.430  26.768   7.122
 5889POPC   C4B75598   2.417  27.209   7.235
 5890POPC   NC375599  14.711   9.741   5.612
 5890POPC   PO475600  14.251  10.186   5.503
 5890POPC   GL175601  14.344   9.937   5.888
 5890POPC   GL275602  14.264   9.546   5.847
 5890POPC   C1A75603  14.578   9.867   6.275
 5890POPC   D2A75604  14.506   9.720   6.693
 5890POPC   C3A75605  14.524   9.950   7.125
 5890POPC   C4A75606  14.656   9.900   7.620
 5890POPC   C1B75607  14.408   9.385   6.267
 5890POPC   C2B75608  14.604   9.214   6.645
 5890POPC   C3B75609  14.702   9.432   7.051
 5890POPC   C4B75610  14.361   9.521   7.342
 5891POPC   NC375611   5.833  22.531   5.126
 5891POPC   PO475612   5.734  21.918   5.426
 5891POPC   GL175613   5.793  22.028   5.852
 5891POPC   GL275614   5.778  21.656   5.936
 5891POPC   C1A75615   5.857  22.354   6.144
 5891POPC   D2A75616   5.916  22.307   6.563
 5891POPC   C3A75617   5.704  22.397   6.928
 5891POPC   C4A75618   5.996  22.588   7.159
 5891POPC   C1B75619   5.781  21.859   6.326
 5891POPC   C2B75620   6.005  21.823   6.697
 5891POPC   C3B75621   5.791  21.916   7.057
 5891POPC   C4B75622   5.716  21.822   7.483
 5892POPC   NC375623  16.144  40.265   5.412
 5892POPC   PO475624  15.673  39.807   5.420
 5892POPC   GL175625  15.890  39.951   5.791
 5892POPC   GL275626  16.141  39.770   5.864
 5892POPC   C1A75627  15.947  40.130   6.252
 5892POPC   D2A75628  16.063  39.983   6.700
 5892POPC   C3A75629  15.994  40.233   7.108
 5892POPC   C4A75630  15.708  40.421   7.447
 5892POPC   C1B75631  15.815  39.649   6.219
 5892POPC   C2B75632  15.876  39.508   6.632
 5892POPC   C3B75633  15.917  39.664   7.092
 5892POPC   C4B75634  16.157  39.878   7.430
 5893POPC   NC375635  43.844  35.096   5.333
 5893POPC   PO475636  43.977  35.639   5.750
 5893POPC   GL175637  43.906  35.228   5.887
 5893POPC   GL275638  43.581  35.079   5.812
 5893POPC   C1A75639  44.079  35.192   6.277
 5893POPC   D2A75640  44.083  35.424   6.606
 5893POPC   C3A75641  43.987  35.215   6.915
 5893POPC   C4A75642  44.044  35.418   7.310
 5893POPC   C1B75643  43.542  35.269   6.247
 5893POPC   C2B75644  43.549  35.371   6.688
 5893POPC   C3B75645  43.687  35.651   7.026
 5893POPC   C4B75646  43.593  35.656   7.474
 5894POPC   NC375647  37.066  44.353   5.481
 5894POPC   PO475648  36.737  44.995   5.466
 5894POPC   GL175649  36.912  44.737   5.824
 5894POPC   GL275650  36.755  44.415   5.889
 5894POPC   C1A75651  36.979  44.637   6.288
 5894POPC   D2A75652  36.998  44.866   6.686
 5894POPC   C3A75653  36.816  44.721   7.074
 5894POPC   C4A75654  37.018  44.445   7.344
 5894POPC   C1B75655  36.478  44.448   6.226
 5894POPC   C2B75656  36.565  44.522   6.650
 5894POPC   C3B75657  36.753  44.233   6.926
 5894POPC   C4B75658  36.592  44.164   7.309
 5895POPC   NC375659   1.993  10.673   5.450
 5895POPC   PO475660   1.894   9.997   5.347
 5895POPC   GL175661   1.887  10.280   5.764
 5895POPC   GL275662   2.210  10.444   5.909
 5895POPC   C1A75663   1.802  10.516   6.178
 5895POPC   D2A75664   1.918  10.627   6.597
 5895POPC   C3A75665   1.844  10.335   6.937
 5895POPC   C4A75666   1.999  10.311   7.361
 5895POPC   C1B75667   2.347  10.724   6.285
 5895POPC   C2B75668   2.244  11.000   6.668
 5895POPC   C3B75669   2.130  10.790   7.069
 5895POPC   C4B75670   2.395  10.637   7.414
 5896POPC   NC375671  13.509  31.963   5.316
 5896POPC   PO475672  13.836  32.514   5.300
 5896POPC   GL175673  13.758  32.406   5.750
 5896POPC   GL275674  13.658  32.074   5.808
 5896POPC   C1A75675  13.698  32.352   6.222
 5896POPC   D2A75676  13.801  32.498   6.624
 5896POPC   C3A75677  13.594  32.617   6.967
 5896POPC   C4A75678  13.948  32.547   7.224
 5896POPC   C1B75679  13.344  31.982   6.177
 5896POPC   C2B75680  13.411  32.103   6.599
 5896POPC   C3B75681  13.602  32.110   7.028
 5896POPC   C4B75682  13.876  32.086   7.423
 5897POPC   NC375683  43.012  35.728   5.576
 5897POPC   PO475684  43.209  35.135   5.410
 5897POPC   GL175685  42.922  35.250   5.748
 5897POPC   GL275686  43.153  35.467   5.984
 5897POPC   C1A75687  42.771  35.190   6.165
 5897POPC   D2A75688  43.006  35.069   6.507
 5897POPC   C3A75689  42.838  35.221   6.905
 5897POPC   C4A75690  42.771  35.273   7.375
 5897POPC   C1B75691  43.315  35.758   6.336
 5897POPC   C2B75692  43.247  35.784   6.781
 5897POPC   C3B75693  43.242  35.455   7.125
 5897POPC   C4B75694  43.586  35.182   7.202
 5898POPC   NC375695   1.659  31.392   5.734
 5898POPC   PO475696   1.122  31.329   5.319
 5898POPC   GL175697   1.134  31.254   5.748
 5898POPC   GL275698   1.136  31.609   5.848
 5898POPC   C1A75699   1.177  31.256   6.206
 5898POPC   D2A75700   0.974  31.283   6.602
 5898POPC   C3A75701   1.167  31.424   6.967
 5898POPC   C4A75702   1.308  31.311   7.361
 5898POPC   C1B75703   1.361  31.726   6.237
 5898POPC   C2B75704   1.535  31.524   6.609
 5898POPC   C3B75705   1.592  31.719   7.033
 5898POPC   C4B75706   1.471  31.803   7.467
 5899POPC   NC375707  25.266  14.867   5.344
 5899POPC   PO475708  24.960  14.191   5.398
 5899POPC   GL175709  25.147  14.399   5.729
 5899POPC   GL275710  25.496  14.274   5.759
 5899POPC   C1A75711  25.091  14.294   6.173
 5899POPC   D2A75712  25.308  14.359   6.546
 5899POPC   C3A75713  25.073  14.382   6.901
 5899POPC   C4A75714  25.078  14.351   7.321
 5899POPC   C1B75715  25.541  14.581   6.119
 5899POPC   C2B75716  25.681  14.716   6.565
 5899POPC   C3B75717  25.526  14.623   6.986
 5899POPC   C4B75718  25.578  14.735   7.435
 5900POPC   NC375719  24.115  30.371   5.529
 5900POPC   PO475720  24.458  30.988   5.415
 5900POPC   GL175721  24.392  30.730   5.764
 5900POPC   GL275722  24.318  30.945   5.969
 5900POPC   C1A75723  24.518  30.482   6.126
 5900POPC   D2A75724  24.840  30.506   6.418
 5900POPC   C3A75725  24.825  30.402   6.845
 5900POPC   C4A75726  24.640  30.480   7.223
 5900POPC   C1B75727  24.528  30.943   6.326
 5900POPC   C2B75728  24.419  30.749   6.664
 5900POPC   C3B75729  24.680  30.895   6.924
 5900POPC   C4B75730  24.738  31.009   7.305
 5901POPC   NC375731  32.755  21.563   5.048
 5901POPC   PO475732  32.344  21.294   5.563
 5901POPC   GL175733  32.093  21.334   5.888
 5901POPC   GL275734  32.137  21.668   5.843
 5901POPC   C1A75735  32.170  21.187   6.324
 5901POPC   D2A75736  32.485  20.975   6.617
 5901POPC   C3A75737  32.469  21.142   7.024
 5901POPC   C4A75738  32.093  21.128   7.255
 5901POPC   C1B75739  31.875  21.730   6.168
 5901POPC   C2B75740  31.951  21.615   6.561
 5901POPC   C3B75741  31.862  21.469   6.949
 5901POPC   C4B75742  31.851  21.633   7.345
 5902POPC   NC375743  26.285  41.963   5.175
 5902POPC   PO475744  25.984  42.548   5.366
 5902POPC   GL175745  26.135  42.443   5.750
 5902POPC   GL275746  26.312  42.159   5.662
 5902POPC   C1A75747  26.001  42.507   6.143
 5902POPC   D2A75748  26.043  42.673   6.527
 5902POPC   C3A75749  25.808  42.537   6.853
 5902POPC   C4A75750  25.980  42.497   7.249
 5902POPC   C1B75751  26.342  42.091   6.100
 5902POPC   C2B75752  26.276  42.235   6.508
 5902POPC   C3B75753  26.097  42.113   6.886
 5902POPC   C4B75754  26.239  42.061   7.286
 5903POPC   NC375755  25.137  27.441   5.510
 5903POPC   PO475756  25.515  27.955   5.400
 5903POPC   GL175757  25.542  27.847   5.806
 5903POPC   GL275758  25.644  27.510   5.699
 5903POPC   C1A75759  25.334  27.815   6.209
 5903POPC   D2A75760  25.195  27.475   6.482
 5903POPC   C3A75761  25.075  27.591   6.903
 5903POPC   C4A75762  25.077  27.596   7.388
 5903POPC   C1B75763  25.614  27.381   6.126
 5903POPC   C2B75764  25.784  27.628   6.450
 5903POPC   C3B75765  25.600  27.725   6.846
 5903POPC   C4B75766  25.475  27.408   7.151
 5904POPC   NC375767  21.341  16.044   5.532
 5904POPC   PO475768  20.868  15.582   5.376
 5904POPC   GL175769  20.968  15.760   5.810
 5904POPC   GL275770  20.966  16.145   5.863
 5904POPC   C1A75771  21.243  15.764   6.208
 5904POPC   D2A75772  21.579  15.716   6.546
 5904POPC   C3A75773  21.455  15.771   6.971
 5904POPC   C4A75774  21.556  15.731   7.408
 5904POPC   C1B75775  21.031  16.238   6.279
 5904POPC   C2B75776  21.333  16.202   6.568
 5904POPC   C3B75777  21.241  16.351   6.933
 5904POPC   C4B75778  21.477  16.225   7.247
 5905POPC   NC375779  11.795  27.043   5.552
 5905POPC   PO475780  12.273  26.596   5.449
 5905POPC   GL175781  12.137  26.773   5.838
 5905POPC   GL275782  12.158  27.144   5.910
 5905POPC   C1A75783  12.215  26.799   6.283
 5905POPC   D2A75784  11.933  26.786   6.617
 5905POPC   C3A75785  12.072  26.634   7.004
 5905POPC   C4A75786  11.771  26.750   7.285
 5905POPC   C1B75787  11.863  27.209   6.268
 5905POPC   C2B75788  11.680  27.258   6.695
 5905POPC   C3B75789  11.964  27.161   7.036
 5905POPC   C4B75790  12.274  27.174   7.360
 5906POPC   NC375791  29.702  26.078   5.415
 5906POPC   PO475792  30.377  26.316   5.446
 5906POPC   GL175793  30.116  26.055   5.725
 5906POPC   GL275794  30.251  26.191   5.985
 5906POPC   C1A75795  29.742  26.105   6.071
 5906POPC   D2A75796  29.563  26.307   6.453
 5906POPC   C3A75797  29.748  26.275   6.830
 5906POPC   C4A75798  29.794  26.062   7.202
 5906POPC   C1B75799  30.140  25.770   6.160
 5906POPC   C2B75800  30.126  25.790   6.603
 5906POPC   C3B75801  30.241  26.116   6.895
 5906POPC   C4B75802  30.280  26.118   7.316
 5907POPC   NC375803  39.815  33.473   5.610
 5907POPC   PO475804  40.257  33.963   5.332
 5907POPC   GL175805  39.987  33.949   5.731
 5907POPC   GL275806  39.640  34.106   5.704
 5907POPC   C1A75807  40.005  33.769   6.161
 5907POPC   D2A75808  40.203  33.706   6.551
 5907POPC   C3A75809  39.906  33.625   6.880
 5907POPC   C4A75810  40.036  33.793   7.269
 5907POPC   C1B75811  39.626  34.133   6.155
 5907POPC   C2B75812  39.802  34.050   6.589
 5907POPC   C3B75813  39.673  34.115   7.027
 5907POPC   C4B75814  39.720  34.129   7.497
 5908POPC   NC375815   0.875   2.925   5.507
 5908POPC   PO475816   1.583   2.944   5.456
 5908POPC   GL175817   1.498   2.677   5.844
 5908POPC   GL275818   1.121   2.577   5.809
 5908POPC   C1A75819   1.593   2.595   6.306
 5908POPC   D2A75820   1.389   2.724   6.702
 5908POPC   C3A75821   1.311   2.457   7.096
 5908POPC   C4A75822   1.441   2.468   7.597
 5908POPC   C1B75823   1.066   2.655   6.252
 5908POPC   C2B75824   0.849   2.772   6.615
 5908POPC   C3B75825   1.012   2.869   6.997
 5908POPC   C4B75826   0.901   2.796   7.353
 5909POPC   NC375827  36.826  24.330   5.515
 5909POPC   PO475828  36.895  24.982   5.413
 5909POPC   GL175829  36.810  24.733   5.811
 5909POPC   GL275830  37.060  24.497   5.948
 5909POPC   C1A75831  36.757  24.742   6.250
 5909POPC   D2A75832  36.963  24.537   6.575
 5909POPC   C3A75833  36.856  24.769   6.924
 5909POPC   C4A75834  36.814  24.723   7.350
 5909POPC   C1B75835  37.066  24.133   6.236
 5909POPC   C2B75836  36.828  23.990   6.585
 5909POPC   C3B75837  36.709  24.252   6.931
 5909POPC   C4B75838  37.121  24.362   7.141
 5910POPC   NC375839  17.823  38.595   5.384
 5910POPC   PO475840  17.399  38.058   5.433
 5910POPC   GL175841  17.410  38.335   5.845
 5910POPC   GL275842  17.678  38.565   5.869
 5910POPC   C1A75843  17.451  38.356   6.344
 5910POPC   D2A75844  17.524  38.504   6.803
 5910POPC   C3A75845  17.579  38.137   7.123
 5910POPC   C4A75846  17.475  37.983   7.545
 5910POPC   C1B75847  17.793  38.732   6.259
 5910POPC   C2B75848  17.858  38.879   6.641
 5910POPC   C3B75849  17.986  38.706   6.969
 5910POPC   C4B75850  17.737  38.594   7.297
 5911POPC   NC375851  25.667  24.477   5.254
 5911POPC   PO475852  26.380  24.433   5.190
 5911POPC   GL175853  26.139  24.533   5.707
 5911POPC   GL275854  25.893  24.333   5.906
 5911POPC   C1A75855  26.157  24.655   6.193
 5911POPC   D2A75856  25.954  24.555   6.609
 5911POPC   C3A75857  26.222  24.612   6.980
 5911POPC   C4A75858  26.199  24.509   7.428
 5911POPC   C1B75859  26.205  24.144   6.231
 5911POPC   C2B75860  26.312  24.178   6.677
 5911POPC   C3B75861  26.159  24.123   7.068
 5911POPC   C4B75862  25.783  24.371   7.128
 5912POPC   NC375863  17.636   8.280   5.311
 5912POPC   PO475864  17.033   8.317   5.432
 5912POPC   GL175865  17.339   8.229   5.746
 5912POPC   GL275866  17.536   7.917   5.696
 5912POPC   C1A75867  17.335   8.203   6.188
 5912POPC   D2A75868  17.226   8.349   6.593
 5912POPC   C3A75869  17.239   8.104   6.951
 5912POPC   C4A75870  17.489   8.308   7.248
 5912POPC   C1B75871  17.766   7.914   6.104
 5912POPC   C2B75872  17.604   7.954   6.549
 5912POPC   C3B75873  17.806   8.022   6.927
 5912POPC   C4B75874  17.759   7.902   7.357
 5913POPC   NC375875   8.105  31.543   5.494
 5913POPC   PO475876   8.507  31.044   5.296
 5913POPC   GL175877   8.468  31.244   5.732
 5913POPC   GL275878   8.414  31.602   5.902
 5913POPC   C1A75879   8.353  31.199   6.176
 5913POPC   D2A75880   8.366  31.419   6.590
 5913POPC   C3A75881   8.409  31.161   6.956
 5913POPC   C4A75882   8.272  31.200   7.386
 5913POPC   C1B75883   8.100  31.686   6.237
 5913POPC   C2B75884   7.844  31.545   6.620
 5913POPC   C3B75885   7.970  31.413   7.013
 5913POPC   C4B75886   8.257  31.701   7.232
 5914POPC   NC375887  22.590  42.260   5.381
 5914POPC   PO475888  22.034  42.626   5.269
 5914POPC   GL175889  21.936  42.505   5.724
 5914POPC   GL275890  22.201  42.615   5.921
 5914POPC   C1A75891  21.954  42.187   6.094
 5914POPC   D2A75892  22.291  42.147   6.426
 5914POPC   C3A75893  22.371  42.157   6.881
 5914POPC   C4A75894  22.215  42.410   7.243
 5914POPC   C1B75895  22.059  42.619   6.367
 5914POPC   C2B75896  22.326  42.643   6.747
 5914POPC   C3B75897  22.554  42.774   7.125
 5914POPC   C4B75898  22.620  42.904   7.568
 5915POPC   NC375899  38.789  23.459   5.464
 5915POPC   PO475900  39.349  23.819   5.256
 5915POPC   GL175901  39.182  23.797   5.659
 5915POPC   GL275902  39.291  23.461   5.676
 5915POPC   C1A75903  39.010  23.782   6.101
 5915POPC   D2A75904  39.034  23.612   6.533
 5915POPC   C3A75905  39.014  23.768   6.954
 5915POPC   C4A75906  38.873  23.530   7.310
 5915POPC   C1B75907  39.521  23.627   6.018
 5915POPC   C2B75908  39.634  23.487   6.408
 5915POPC   C3B75909  39.496  23.573   6.827
 5915POPC   C4B75910  39.381  23.455   7.236
 5916POPC   NC375911  26.594  20.664   5.417
 5916POPC   PO475912  27.151  21.162   5.350
 5916POPC   GL175913  27.011  20.918   5.750
 5916POPC   GL275914  27.066  20.574   5.749
 5916POPC   C1A75915  26.726  20.738   6.132
 5916POPC   D2A75916  26.714  20.506   6.571
 5916POPC   C3A75917  26.620  20.459   7.042
 5916POPC   C4A75918  26.574  20.423   7.494
 5916POPC   C1B75919  27.223  20.608   6.150
 5916POPC   C2B75920  27.106  20.839   6.503
 5916POPC   C3B75921  27.100  20.664   6.881
 5916POPC   C4B75922  27.007  20.719   7.287
 5917POPC   NC375923  35.044  36.671   5.557
 5917POPC   PO475924  35.748  36.620   5.572
 5917POPC   GL175925  35.536  36.893   5.871
 5917POPC   GL275926  35.278  37.163   5.780
 5917POPC   C1A75927  35.331  36.923   6.244
 5917POPC   D2A75928  35.127  36.936   6.632
 5917POPC   C3A75929  35.367  37.060   6.968
 5917POPC   C4A75930  35.695  36.922   7.222
 5917POPC   C1B75931  35.023  37.339   6.164
 5917POPC   C2B75932  34.955  37.437   6.620
 5917POPC   C3B75933  35.082  37.470   7.072
 5917POPC   C4B75934  35.151  37.193   7.451
 5918POPC   NC375935  33.243  34.532   5.373
 5918POPC   PO475936  32.635  34.622   5.621
 5918POPC   GL175937  32.785  34.367   5.907
 5918POPC   GL275938  33.134  34.468   5.872
 5918POPC   C1A75939  32.759  34.375   6.338
 5918POPC   D2A75940  32.772  34.590   6.738
 5918POPC   C3A75941  33.045  34.451   7.073
 5918POPC   C4A75942  32.980  34.329   7.484
 5918POPC   C1B75943  33.257  34.465   6.290
 5918POPC   C2B75944  33.311  34.657   6.674
 5918POPC   C3B75945  33.547  34.565   7.018
 5918POPC   C4B75946  33.471  34.206   7.264
 5919POPC   NC375947  34.200  36.828   5.399
 5919POPC   PO475948  34.916  37.122   5.422
 5919POPC   GL175949  34.771  37.039   5.820
 5919POPC   GL275950  34.471  36.882   5.840
 5919POPC   C1A75951  34.789  36.879   6.248
 5919POPC   D2A75952  34.592  37.021   6.641
 5919POPC   C3A75953  34.805  36.966   7.030
 5919POPC   C4A75954  34.683  36.538   7.127
 5919POPC   C1B75955  34.260  36.826   6.257
 5919POPC   C2B75956  34.235  36.570   6.620
 5919POPC   C3B75957  34.164  36.677   7.019
 5919POPC   C4B75958  34.297  37.043   7.182
 5920POPC   NC375959  35.710  12.409   5.513
 5920POPC   PO475960  36.132  13.035   5.438
 5920POPC   GL175961  36.189  13.075   5.850
 5920POPC   GL275962  36.036  12.755   5.919
 5920POPC   C1A75963  36.427  12.978   6.229
 5920POPC   D2A75964  36.235  12.708   6.520
 5920POPC   C3A75965  35.955  12.981   6.737
 5920POPC   C4A75966  35.920  13.071   7.158
 5920POPC   C1B75967  35.825  12.473   6.186
 5920POPC   C2B75968  35.702  12.564   6.609
 5920POPC   C3B75969  35.908  12.516   6.999
 5920POPC   C4B75970  35.864  12.566   7.432
 5921POPC   NC375971  21.540  18.657   5.525
 5921POPC   PO475972  21.123  18.169   5.288
 5921POPC   GL175973  21.269  18.315   5.797
 5921POPC   GL275974  21.494  18.024   5.992
 5921POPC   C1A75975  21.560  18.465   6.196
 5921POPC   D2A75976  21.794  18.148   6.496
 5921POPC   C3A75977  21.596  18.102   6.913
 5921POPC   C4A75978  21.291  18.423   7.097
 5921POPC   C1B75979  21.130  18.150   6.275
 5921POPC   C2B75980  20.996  18.151   6.731
 5921POPC   C3B75981  21.161  17.904   7.076
 5921POPC   C4B75982  21.176  17.940   7.557
 5922POPC   NC375983  31.269   3.337   5.278
 5922POPC   PO475984  31.349   3.940   5.583
 5922POPC   GL175985  31.568   3.692   5.858
 5922POPC   GL275986  31.622   3.383   5.683
 5922POPC   C1A75987  31.423   3.498   6.239
 5922POPC   D2A75988  31.219   3.249   6.557
 5922POPC   C3A75989  31.376   3.381   6.907
 5922POPC   C4A75990  31.480   3.718   7.142
 5922POPC   C1B75991  31.883   3.319   6.050
 5922POPC   C2B75992  31.885   3.436   6.480
 5922POPC   C3B75993  31.908   3.551   6.875
 5922POPC   C4B75994  31.791   3.306   7.208
 5923POPC   NC375995   4.155   4.319   5.441
 5923POPC   PO475996   4.674   3.891   5.389
 5923POPC   GL175997   4.451   4.056   5.797
 5923POPC   GL275998   4.495   4.412   5.890
 5923POPC   C1A75999   4.304   4.128   6.250
 5923POPC   D2A76000   4.497   4.315   6.612
 5923POPC   C3A76001   4.429   4.130   7.031
 5923POPC   C4A76002   4.100   4.288   7.268
 5923POPC   C1B76003   4.644   4.705   6.266
 5923POPC   C2B76004   4.685   4.780   6.745
 5923POPC   C3B76005   4.466   4.627   7.069
 5923POPC   C4B76006   4.522   4.507   7.489
 5924POPC   NC376007  28.012  39.588   5.404
 5924POPC   PO476008  27.500  39.208   5.369
 5924POPC   GL176009  27.397  39.076   5.780
 5924POPC   GL276010  27.304  39.389   5.897
 5924POPC   C1A76011  27.513  38.987   6.235
 5924POPC   D2A76012  27.418  38.976   6.706
 5924POPC   C3A76013  27.690  39.083   7.076
 5924POPC   C4A76014  27.561  38.977   7.499
 5924POPC   C1B76015  27.401  39.490   6.323
 5924POPC   C2B76016  27.486  39.489   6.769
 5924POPC   C3B76017  27.257  39.357   7.130
 5924POPC   C4B76018  27.325  39.414   7.565
 5925POPC   NC376019  33.023  42.847   5.518
 5925POPC   PO476020  32.545  43.373   5.622
 5925POPC   GL176021  32.892  43.187   5.874
 5925POPC   GL276022  33.198  43.365   5.967
 5925POPC   C1A76023  32.934  42.938   6.237
 5925POPC   D2A76024  32.766  43.089   6.645
 5925POPC   C3A76025  32.832  42.891   7.044
 5925POPC   C4A76026  32.604  42.844   7.425
 5925POPC   C1B76027  33.187  43.328   6.418
 5925POPC   C2B76028  33.274  42.932   6.646
 5925POPC   C3B76029  33.322  43.017   7.057
 5925POPC   C4B76030  33.197  43.407   7.162
 5926POPC   NC376031  18.925  21.749   5.441
 5926POPC   PO476032  19.487  21.997   5.198
 5926POPC   GL176033  19.353  21.970   5.673
 5926POPC   GL276034  19.016  22.183   5.724
 5926POPC   C1A76035  19.260  22.052   6.150
 5926POPC   D2A76036  19.467  22.138   6.543
 5926POPC   C3A76037  19.182  22.062   6.880
 5926POPC   C4A76038  18.967  22.380   7.144
 5926POPC   C1B76039  18.748  22.018   6.090
 5926POPC   C2B76040  18.823  21.928   6.519
 5926POPC   C3B76041  18.647  22.033   6.918
 5926POPC   C4B76042  18.574  22.115   7.337
 5927POPC   NC376043  34.795  42.449   5.450
 5927POPC   PO476044  34.142  42.585   5.531
 5927POPC   GL176045  34.425  42.279   5.819
 5927POPC   GL276046  34.809  42.181   5.869
 5927POPC   C1A76047  34.541  42.274   6.276
 5927POPC   D2A76048  34.622  42.249   6.710
 5927POPC   C3A76049  34.489  42.624   6.914
 5927POPC   C4A76050  34.558  42.764   7.285
 5927POPC   C1B76051  34.997  41.987   6.237
 5927POPC   C2B76052  35.091  42.031   6.682
 5927POPC   C3B76053  34.880  41.960   7.095
 5927POPC   C4B76054  34.504  42.067   7.302
 5928POPC   NC376055  30.381  15.402   5.455
 5928POPC   PO476056  30.963  15.077   5.586
 5928POPC   GL176057  30.696  15.257   5.888
 5928POPC   GL276058  30.429  15.016   5.852
 5928POPC   C1A76059  30.687  15.317   6.348
 5928POPC   D2A76060  30.439  15.415   6.731
 5928POPC   C3A76061  30.680  15.388   7.116
 5928POPC   C4A76062  31.002  15.148   7.338
 5928POPC   C1B76063  30.639  14.824   6.211
 5928POPC   C2B76064  30.575  14.917   6.636
 5928POPC   C3B76065  30.774  14.843   6.994
 5928POPC   C4B76066  30.605  14.786   7.387
 5929POPC   NC376067   9.932  43.843   5.490
 5929POPC   PO476068   9.438  44.225   5.207
 5929POPC   GL176069   9.490  43.857   5.719
 5929POPC   GL276070   9.749  43.638   5.909
 5929POPC   C1A76071   9.603  44.001   6.211
 5929POPC   D2A76072   9.477  43.911   6.629
 5929POPC   C3A76073   9.813  43.903   6.925
 5929POPC   C4A76074   9.866  44.043   7.325
 5929POPC   C1B76075  10.044  43.713   6.288
 5929POPC   C2B76076  10.020  43.490   6.697
 5929POPC   C3B76077   9.926  43.369   7.117
 5929POPC   C4B76078  10.008  43.602   7.501
 5930POPC   NC376079  17.657  20.436   5.212
 5930POPC   PO476080  17.168  20.856   5.471
 5930POPC   GL176081  17.293  20.867   5.927
 5930POPC   GL276082  17.254  20.535   6.057
 5930POPC   C1A76083  17.498  20.831   6.389
 5930POPC   D2A76084  17.756  21.037   6.748
 5930POPC   C3A76085  17.929  20.696   7.035
 5930POPC   C4A76086  17.838  20.288   7.209
 5930POPC   C1B76087  17.511  20.239   6.310
 5930POPC   C2B76088  17.534  20.250   6.755
 5930POPC   C3B76089  17.406  20.547   7.051
 5930POPC   C4B76090  17.077  20.472   7.308
 5931POPC   NC376091  38.838  28.326   5.420
 5931POPC   PO476092  38.155  28.254   5.423
 5931POPC   GL176093  38.443  28.199   5.770
 5931POPC   GL276094  38.637  28.515   5.850
 5931POPC   C1A76095  38.347  28.250   6.202
 5931POPC   D2A76096  38.451  28.112   6.593
 5931POPC   C3A76097  38.224  28.277   6.942
 5931POPC   C4A76098  38.032  28.019   7.243
 5931POPC   C1B76099  38.748  28.529   6.306
 5931POPC   C2B76100  38.749  28.489   6.747
 5931POPC   C3B76101  38.672  28.404   7.142
 5931POPC   C4B76102  38.927  28.520   7.409
 5932POPC   NC376103  10.101  40.056   5.315
 5932POPC   PO476104  10.750  39.975   5.347
 5932POPC   GL176105  10.403  39.909   5.708
 5932POPC   GL276106  10.163  40.201   5.796
 5932POPC   C1A76107  10.465  39.879   6.160
 5932POPC   D2A76108  10.443  39.649   6.546
 5932POPC   C3A76109  10.684  39.637   6.919
 5932POPC   C4A76110  10.554  39.866   7.282
 5932POPC   C1B76111  10.278  40.346   6.193
 5932POPC   C2B76112  10.359  40.192   6.596
 5932POPC   C3B76113  10.519  40.311   6.997
 5932POPC   C4B76114  10.307  40.499   7.364
 5933POPC   NC376115  14.106  16.767   5.232
 5933POPC   PO476116  14.311  17.264   5.473
 5933POPC   GL176117  14.075  17.098   5.832
 5933POPC   GL276118  14.107  16.736   5.775
 5933POPC   C1A76119  14.069  16.920   6.273
 5933POPC   D2A76120  14.210  16.785   6.669
 5933POPC   C3A76121  14.185  16.962   7.069
 5933POPC   C4A76122  14.093  16.884   7.499
 5933POPC   C1B76123  14.145  16.425   6.151
 5933POPC   C2B76124  14.398  16.329   6.555
 5933POPC   C3B76125  14.484  16.491   7.007
 5933POPC   C4B76126  14.441  16.384   7.453
 5934POPC   NC376127   5.575  10.878   5.029
 5934POPC   PO476128   5.886  10.298   5.330
 5934POPC   GL176129   5.945  10.425   5.749
 5934POPC   GL276130   6.019  10.778   5.783
 5934POPC   C1A76131   5.745  10.344   6.158
 5934POPC   D2A76132   5.670  10.073   6.538
 5934POPC   C3A76133   5.731  10.342   6.888
 5934POPC   C4A76134   6.049  10.327   7.179
 5934POPC   C1B76135   5.858  10.855   6.204
 5934POPC   C2B76136   5.683  10.813   6.624
 5934POPC   C3B76137   5.724  10.906   7.074
 5934POPC   C4B76138   5.566  10.910   7.516
 5935POPC   NC376139   7.953  19.467   5.597
 5935POPC   PO476140   8.281  18.923   5.387
 5935POPC   GL176141   8.139  19.038   5.830
 5935POPC   GL276142   8.321  19.350   5.935
 5935POPC   C1A76143   7.968  19.109   6.272
 5935POPC   D2A76144   8.045  19.189   6.747
 5935POPC   C3A76145   8.145  18.881   7.066
 5935POPC   C4A76146   8.316  18.960   7.470
 5935POPC   C1B76147   8.486  19.088   6.288
 5935POPC   C2B76148   8.537  18.989   6.727
 5935POPC   C3B76149   8.650  19.205   7.111
 5935POPC   C4B76150   8.775  19.146   7.540
 5936POPC   NC376151  17.084  11.012   5.455
 5936POPC   PO476152  16.404  10.842   5.268
 5936POPC   GL176153  16.650  10.704   5.619
 5936POPC   GL276154  16.430  10.847   5.854
 5936POPC   C1A76155  16.724  10.436   6.028
 5936POPC   D2A76156  16.834  10.465   6.506
 5936POPC   C3A76157  16.654  10.478   6.953
 5936POPC   C4A76158  16.735  10.289   7.393
 5936POPC   C1B76159  16.506  10.805   6.303
 5936POPC   C2B76160  16.581  10.949   6.730
 5936POPC   C3B76161  16.341  10.873   7.107
 5936POPC   C4B76162  16.433  10.676   7.526
 5937POPC   NC376163  39.855  31.102   5.546
 5937POPC   PO476164  40.173  30.576   5.366
 5937POPC   GL176165  40.036  30.581   5.795
 5937POPC   GL276166  39.939  30.874   5.987
 5937POPC   C1A76167  40.228  30.515   6.221
 5937POPC   D2A76168  40.354  30.717   6.619
 5937POPC   C3A76169  40.093  30.695   6.998
 5937POPC   C4A76170  39.849  30.425   7.249
 5937POPC   C1B76171  39.711  30.542   6.212
 5937POPC   C2B76172  39.736  30.495   6.663
 5937POPC   C3B76173  39.560  30.769   6.991
 5937POPC   C4B76174  39.428  30.650   7.406
 5938POPC   NC376175  34.831  15.426   5.481
 5938POPC   PO476176  34.351  14.952   5.387
 5938POPC   GL176177  34.408  15.196   5.774
 5938POPC   GL276178  34.623  15.475   5.949
 5938POPC   C1A76179  34.231  15.177   6.160
 5938POPC   D2A76180  34.233  15.000   6.566
 5938POPC   C3A76181  34.344  15.249   6.915
 5938POPC   C4A76182  34.269  15.034   7.278
 5938POPC   C1B76183  34.742  15.118   6.246
 5938POPC   C2B76184  34.754  15.036   6.694
 5938POPC   C3B76185  34.877  15.247   7.084
 5938POPC   C4B76186  35.127  15.058   7.388
 5939POPC   NC376187   1.782  42.304   5.077
 5939POPC   PO476188   2.312  42.488   5.367
 5939POPC   GL176189   2.023  42.525   5.719
 5939POPC   GL276190   1.813  42.231   5.725
 5939POPC   C1A76191   1.913  42.605   6.172
 5939POPC   D2A76192   1.723  42.567   6.603
 5939POPC   C3A76193   1.944  42.356   6.922
 5939POPC   C4A76194   1.848  42.332   7.320
 5939POPC   C1B76195   1.655  42.155   6.142
 5939POPC   C2B76196   1.932  42.108   6.475
 5939POPC   C3B76197   1.968  41.848   6.841
 5939POPC   C4B76198   2.115  41.919   7.250
 5940POPC   NC376199  28.300  23.790   5.204
 5940POPC   PO476200  28.816  23.487   5.208
 5940POPC   GL176201  28.564  23.585   5.598
 5940POPC   GL276202  28.313  23.875   5.698
 5940POPC   C1A76203  28.498  23.506   6.048
 5940POPC   D2A76204  28.638  23.679   6.423
 5940POPC   C3A76205  28.627  23.569   6.836
 5940POPC   C4A76206  28.728  23.787   7.234
 5940POPC   C1B76207  28.394  24.013   6.118
 5940POPC   C2B76208  28.420  24.197   6.520
 5940POPC   C3B76209  28.392  24.020   6.906
 5940POPC   C4B76210  28.228  23.886   7.264
 5941POPC   NC376211  31.347  27.166   5.228
 5941POPC   PO476212  30.642  26.965   5.327
 5941POPC   GL176213  30.746  26.997   5.773
 5941POPC   GL276214  31.056  27.172   5.697
 5941POPC   C1A76215  30.720  26.774   6.209
 5941POPC   D2A76216  30.817  26.928   6.644
 5941POPC   C3A76217  30.846  26.676   7.000
 5941POPC   C4A76218  30.547  26.582   7.279
 5941POPC   C1B76219  31.114  27.091   6.148
 5941POPC   C2B76220  31.287  27.124   6.570
 5941POPC   C3B76221  31.146  27.153   6.996
 5941POPC   C4B76222  31.099  26.912   7.362
 5942POPC   NC376223  21.046  41.756   5.524
 5942POPC   PO476224  21.332  41.143   5.384
 5942POPC   GL176225  21.314  41.373   5.807
 5942POPC   GL276226  21.650  41.476   5.967
 5942POPC   C1A76227  21.241  41.322   6.261
 5942POPC   D2A76228  21.202  41.088   6.665
 5942POPC   C3A76229  21.364  41.371   6.968
 5942POPC   C4A76230  21.271  41.452   7.369
 5942POPC   C1B76231  21.530  41.794   6.260
 5942POPC   C2B76232  21.289  41.752   6.624
 5942POPC   C3B76233  21.480  41.883   7.015
 5942POPC   C4B76234  21.612  41.828   7.430
 5943POPC   NC376235   9.975   0.678   5.444
 5943POPC   PO476236   9.576   0.186   5.280
 5943POPC   GL176237   9.631   0.396   5.705
 5943POPC   GL276238   9.987   0.373   5.850
 5943POPC   C1A76239   9.559   0.319   6.153
 5943POPC   D2A76240   9.546   0.522   6.554
 5943POPC   C3A76241   9.495   0.319   6.941
 5943POPC   C4A76242   9.587   0.583   7.256
 5943POPC   C1B76243   9.901   0.688   6.179
 5943POPC   C2B76244  10.052   0.693   6.594
 5943POPC   C3B76245  10.004   0.457   6.961
 5943POPC   C4B76246  10.080   0.588   7.365
 5944POPC   NC376247  44.979  31.720   5.363
 5944POPC   PO476248  44.551  31.219   5.433
 5944POPC   GL176249  44.644  31.553   5.748
 5944POPC   GL276250  44.358  31.816   5.832
 5944POPC   C1A76251  44.954  31.539   6.083
 5944POPC   D2A76252  44.965  31.486   6.519
 5944POPC   C3A76253  44.727  31.759   6.759
 5944POPC   C4A76254  44.858  31.788   7.177
 5944POPC   C1B76255  44.489  31.652   6.258
 5944POPC   C2B76256  44.527  31.232   6.448
 5944POPC   C3B76257  44.620  31.233   6.881
 5944POPC   C4B76258  44.384  31.554   7.123
 5945POPC   NC376259  44.084  36.837   5.552
 5945POPC   PO476260  43.649  37.236   5.484
 5945POPC   GL176261  43.743  37.047   5.906
 5945POPC   GL276262  44.038  36.836   6.040
 5945POPC   C1A76263  43.807  37.133   6.358
 5945POPC   D2A76264  44.033  36.862   6.645
 5945POPC   C3A76265  43.828  36.732   7.002
 5945POPC   C4A76266  43.609  37.124   7.093
 5945POPC   C1B76267  43.800  36.583   6.297
 5945POPC   C2B76268  43.986  36.350   6.665
 5945POPC   C3B76269  44.161  36.348   7.092
 5945POPC   C4B76270  44.026  36.475   7.531
 5946POPC   NC376271  10.315  20.285   5.600
 5946POPC   PO476272  10.755  20.830   5.322
 5946POPC   GL176273  10.657  20.627   5.739
 5946POPC   GL276274  10.844  20.316   5.682
 5946POPC   C1A76275  10.446  20.592   6.171
 5946POPC   D2A76276  10.253  20.415   6.544
 5946POPC   C3A76277  10.246  20.608   6.944
 5946POPC   C4A76278  10.634  20.824   7.046
 5946POPC   C1B76279  10.931  20.394   6.132
 5946POPC   C2B76280  10.786  20.510   6.553
 5946POPC   C3B76281  11.007  20.457   6.939
 5946POPC   C4B76282  11.023  20.656   7.323
 5947POPC   NC376283  26.966  22.280   5.192
 5947POPC   PO476284  26.444  21.869   5.377
 5947POPC   GL176285  26.637  22.005   5.742
 5947POPC   GL276286  26.311  22.028   5.889
 5947POPC   C1A76287  26.834  22.179   6.131
 5947POPC   D2A76288  26.957  22.405   6.514
 5947POPC   C3A76289  26.900  22.223   6.928
 5947POPC   C4A76290  27.000  22.387   7.339
 5947POPC   C1B76291  26.372  22.406   6.121
 5947POPC   C2B76292  26.459  22.511   6.526
 5947POPC   C3B76293  26.401  22.469   6.941
 5947POPC   C4B76294  26.514  22.241   7.279
 5948POPC   NC376295  38.044  23.714   5.470
 5948POPC   PO476296  38.673  23.925   5.512
 5948POPC   GL176297  38.503  23.650   5.867
 5948POPC   GL276298  38.150  23.487   5.914
 5948POPC   C1A76299  38.533  23.717   6.323
 5948POPC   D2A76300  38.562  23.502   6.709
 5948POPC   C3A76301  38.509  23.758   7.045
 5948POPC   C4A76302  38.435  23.731   7.484
 5948POPC   C1B76303  38.037  23.814   6.213
 5948POPC   C2B76304  37.879  23.883   6.661
 5948POPC   C3B76305  38.009  23.771   7.104
 5948POPC   C4B76306  37.937  23.785   7.567
 5949POPC   NC376307  42.566   2.541   5.431
 5949POPC   PO476308  42.687   3.105   5.661
 5949POPC   GL176309  42.451   2.759   5.865
 5949POPC   GL276310  42.119   2.671   5.751
 5949POPC   C1A76311  42.307   2.436   6.149
 5949POPC   D2A76312  42.160   2.530   6.553
 5949POPC   C3A76313  42.480   2.599   6.836
 5949POPC   C4A76314  42.292   2.438   7.172
 5949POPC   C1B76315  42.099   2.909   6.198
 5949POPC   C2B76316  42.210   3.027   6.659
 5949POPC   C3B76317  42.249   2.981   7.136
 5949POPC   C4B76318  42.136   3.155   7.586
 5950POPC   NC376319   4.657  14.351   5.427
 5950POPC   PO476320   4.382  14.935   5.513
 5950POPC   GL176321   4.192  14.594   5.790
 5950POPC   GL276322   4.387  14.270   5.876
 5950POPC   C1A76323   4.208  14.606   6.249
 5950POPC   D2A76324   4.539  14.682   6.566
 5950POPC   C3A76325   4.347  14.670   6.971
 5950POPC   C4A76326   4.289  14.396   7.342
 5950POPC   C1B76327   4.412  14.107   6.328
 5950POPC   C2B76328   4.422  14.102   6.807
 5950POPC   C3B76329   4.180  13.917   7.168
 5950POPC   C4B76330   4.164  14.005   7.641
 5951POPC   NC376331  31.078   7.208   5.039
 5951POPC   PO476332  30.685   7.325   5.539
 5951POPC   GL176333  30.735   7.406   5.956
 5951POPC   GL276334  30.379   7.326   5.957
 5951POPC   C1A76335  31.041   7.357   6.310
 5951POPC   D2A76336  31.054   7.056   6.634
 5951POPC   C3A76337  30.730   7.204   6.877
 5951POPC   C4A76338  30.652   7.388   7.256
 5951POPC   C1B76339  30.392   7.657   6.221
 5951POPC   C2B76340  30.653   7.630   6.555
 5951POPC   C3B76341  30.650   7.813   6.949
 5951POPC   C4B76342  30.260   7.697   7.165
 5952POPC   NC376343  40.041   8.210   5.436
 5952POPC   PO476344  39.568   7.732   5.581
 5952POPC   GL176345  39.807   8.004   5.849
 5952POPC   GL276346  39.656   8.344   5.821
 5952POPC   C1A76347  40.179   8.017   6.135
 5952POPC   D2A76348  40.225   8.223   6.553
 5952POPC   C3A76349  40.286   7.960   6.889
 5952POPC   C4A76350  40.151   8.092   7.279
 5952POPC   C1B76351  39.850   8.402   6.233
 5952POPC   C2B76352  39.888   8.616   6.669
 5952POPC   C3B76353  39.848   8.487   7.126
 5952POPC   C4B76354  39.817   8.315   7.581
 5953POPC   NC376355  19.061  24.458   5.366
 5953POPC   PO476356  18.582  24.052   5.202
 5953POPC   GL176357  18.753  24.176   5.684
 5953POPC   GL276358  19.154  24.165   5.785
 5953POPC   C1A76359  18.858  24.393   6.134
 5953POPC   D2A76360  18.921  24.340   6.618
 5953POPC   C3A76361  18.907  24.617   7.033
 5953POPC   C4A76362  18.849  24.663   7.506
 5953POPC   C1B76363  19.368  24.351   6.174
 5953POPC   C2B76364  19.434  24.267   6.625
 5953POPC   C3B76365  19.270  24.228   7.056
 5953POPC   C4B76366  19.306  24.416   7.473
 5954POPC   NC376367  34.283  28.009   5.275
 5954POPC   PO476368  34.683  27.451   5.484
 5954POPC   GL176369  34.602  27.543   5.906
 5954POPC   GL276370  34.329  27.322   5.895
 5954POPC   C1A76371  34.579  27.362   6.332
 5954POPC   D2A76372  34.818  27.331   6.679
 5954POPC   C3A76373  34.801  27.728   6.888
 5954POPC   C4A76374  34.690  27.874   7.285
 5954POPC   C1B76375  34.081  27.268   6.242
 5954POPC   C2B76376  34.195  27.119   6.618
 5954POPC   C3B76377  34.377  27.329   6.939
 5954POPC   C4B76378  34.690  27.338   7.197
 5955POPC   NC376379  18.320  42.743   5.470
 5955POPC   PO476380  18.526  43.454   5.446
 5955POPC   GL176381  18.289  43.324   5.839
 5955POPC   GL276382  18.225  42.956   5.932
 5955POPC   C1A76383  18.411  43.254   6.310
 5955POPC   D2A76384  18.478  42.908   6.604
 5955POPC   C3A76385  18.325  42.953   6.974
 5955POPC   C4A76386  18.183  43.340   7.045
 5955POPC   C1B76387  17.953  42.970   6.294
 5955POPC   C2B76388  17.856  43.064   6.754
 5955POPC   C3B76389  17.876  42.943   7.227
 5955POPC   C4B76390  17.921  42.777   7.672
 5956POPC   NC376391  32.284  29.724   5.062
 5956POPC   PO476392  31.973  29.756   5.638
 5956POPC   GL176393  32.014  30.039   5.997
 5956POPC   GL276394  32.345  30.150   5.900
 5956POPC   C1A76395  32.075  30.344   6.334
 5956POPC   D2A76396  32.016  30.316   6.788
 5956POPC   C3A76397  32.354  30.206   7.038
 5956POPC   C4A76398  32.064  29.922   7.217
 5956POPC   C1B76399  32.451  29.829   6.202
 5956POPC   C2B76400  32.424  29.913   6.624
 5956POPC   C3B76401  32.515  29.735   7.018
 5956POPC   C4B76402  32.511  29.905   7.453
 5957POPC   NC376403  28.095   5.044   5.431
 5957POPC   PO476404  27.466   5.086   5.334
 5957POPC   GL176405  27.666   5.059   5.736
 5957POPC   GL276406  27.343   5.103   5.861
 5957POPC   C1A76407  27.831   4.860   6.121
 5957POPC   D2A76408  27.669   4.821   6.559
 5957POPC   C3A76409  27.866   5.012   6.928
 5957POPC   C4A76410  28.061   4.809   7.275
 5957POPC   C1B76411  27.486   5.221   6.280
 5957POPC   C2B76412  27.408   5.257   6.741
 5957POPC   C3B76413  27.458   5.297   7.195
 5957POPC   C4B76414  27.419   5.181   7.635
 5958POPC   NC376415  34.144  33.742   5.454
 5958POPC   PO476416  33.569  34.135   5.462
 5958POPC   GL176417  33.801  34.024   5.826
 5958POPC   GL276418  33.632  33.726   5.824
 5958POPC   C1A76419  33.751  34.011   6.308
 5958POPC   D2A76420  33.456  33.781   6.600
 5958POPC   C3A76421  33.605  33.760   7.038
 5958POPC   C4A76422  34.023  33.854   7.187
 5958POPC   C1B76423  33.861  33.534   6.185
 5958POPC   C2B76424  33.938  33.545   6.623
 5958POPC   C3B76425  33.870  33.335   6.987
 5958POPC   C4B76426  33.843  33.439   7.427
 5959POPC   NC376427  36.602  27.598   5.395
 5959POPC   PO476428  37.278  27.813   5.235
 5959POPC   GL176429  37.086  27.705   5.626
 5959POPC   GL276430  36.990  27.384   5.644
 5959POPC   C1A76431  37.029  27.643   6.087
 5959POPC   D2A76432  37.119  27.450   6.494
 5959POPC   C3A76433  36.864  27.603   6.855
 5959POPC   C4A76434  36.555  27.931   7.018
 5959POPC   C1B76435  36.628  27.339   5.982
 5959POPC   C2B76436  36.567  27.362   6.436
 5959POPC   C3B76437  36.550  27.197   6.839
 5959POPC   C4B76438  36.617  27.342   7.259
 5960POPC   NC376439  39.303   0.789   5.189
 5960POPC   PO476440  38.898   0.266   5.187
 5960POPC   GL176441  39.333   0.417   5.523
 5960POPC   GL276442  39.545   0.190   5.749
 5960POPC   C1A76443  39.325   0.607   6.004
 5960POPC   D2A76444  39.182   0.406   6.445
 5960POPC   C3A76445  39.092   0.592   6.879
 5960POPC   C4A76446  39.135   0.445   7.303
 5960POPC   C1B76447  39.700   0.352   6.193
 5960POPC   C2B76448  39.654   0.600   6.557
 5960POPC   C3B76449  39.582   0.479   6.963
 5960POPC   C4B76450  39.647   0.251   7.347
 5961POPC   NC376451   1.860  15.228   5.362
 5961POPC   PO476452   2.486  14.899   5.529
 5961POPC   GL176453   2.121  15.089   5.791
 5961POPC   GL276454   1.745  14.946   5.815
 5961POPC   C1A76455   2.009  15.204   6.218
 5961POPC   D2A76456   1.843  15.123   6.632
 5961POPC   C3A76457   2.041  15.281   7.001
 5961POPC   C4A76458   2.230  14.964   7.257
 5961POPC   C1B76459   1.698  14.744   6.240
 5961POPC   C2B76460   1.745  14.609   6.682
 5961POPC   C3B76461   1.792  14.819   7.066
 5961POPC   C4B76462   1.597  15.211   7.244
 5962POPC   NC376463  21.383   6.949   5.159
 5962POPC   PO476464  21.678   6.700   5.398
 5962POPC   GL176465  21.430   6.679   5.819
 5962POPC   GL276466  21.285   7.000   5.931
 5962POPC   C1A76467  21.305   6.477   6.247
 5962POPC   D2A76468  21.185   6.566   6.687
 5962POPC   C3A76469  20.986   6.407   7.073
 5962POPC   C4A76470  21.241   6.374   7.462
 5962POPC   C1B76471  21.533   6.930   6.311
 5962POPC   C2B76472  21.466   6.989   6.747
 5962POPC   C3B76473  21.281   6.845   7.122
 5962POPC   C4B76474  21.457   6.827   7.538
 5963POPC   NC376475   3.748  18.288   5.365
 5963POPC   PO476476   3.212  17.877   5.414
 5963POPC   GL176477   3.380  18.160   5.734
 5963POPC   GL276478   3.734  18.074   5.831
 5963POPC   C1A76479   3.378  18.229   6.191
 5963POPC   D2A76480   3.284  18.465   6.569
 5963POPC   C3A76481   3.310  18.264   6.971
 5963POPC   C4A76482   3.311  18.052   7.375
 5963POPC   C1B76483   3.808  18.493   6.044
 5963POPC   C2B76484   3.793  18.594   6.497
 5963POPC   C3B76485   3.659  18.642   6.917
 5963POPC   C4B76486   3.788  18.290   7.170
 5964POPC   NC376487  26.180  21.544   5.184
 5964POPC   PO476488  25.609  21.308   5.492
 5964POPC   GL176489  25.861  21.320   5.903
 5964POPC   GL276490  26.202  21.465   5.786
 5964POPC   C1A76491  25.809  21.282   6.350
 5964POPC   D2A76492  25.799  21.627   6.619
 5964POPC   C3A76493  25.947  21.606   7.009
 5964POPC   C4A76494  25.878  21.496   7.428
 5964POPC   C1B76495  26.320  21.277   6.215
 5964POPC   C2B76496  26.273  21.394   6.670
 5964POPC   C3B76497  26.344  21.326   7.150
 5964POPC   C4B76498  26.541  21.446   7.571
 5965POPC   NC376499  30.672  36.416   5.493
 5965POPC   PO476500  30.435  35.854   5.325
 5965POPC   GL176501  30.700  35.969   5.724
 5965POPC   GL276502  30.626  36.301   5.974
 5965POPC   C1A76503  30.882  35.895   6.122
 5965POPC   D2A76504  30.776  35.786   6.567
 5965POPC   C3A76505  31.009  36.001   6.885
 5965POPC   C4A76506  31.067  36.409   7.042
 5965POPC   C1B76507  30.423  36.084   6.335
 5965POPC   C2B76508  30.338  36.084   6.775
 5965POPC   C3B76509  30.591  36.132   7.127
 5965POPC   C4B76510  30.585  35.971   7.513
 5966POPC   NC376511   2.345  11.241   5.544
 5966POPC   PO476512   2.886  11.648   5.395
 5966POPC   GL176513   2.809  11.379   5.783
 5966POPC   GL276514   2.955  11.040   5.733
 5966POPC   C1A76515   2.544  11.238   6.175
 5966POPC   D2A76516   2.525  11.419   6.587
 5966POPC   C3A76517   2.568  11.642   6.927
 5966POPC   C4A76518   2.754  11.442   7.270
 5966POPC   C1B76519   2.992  10.976   6.189
 5966POPC   C2B76520   2.769  10.957   6.598
 5966POPC   C3B76521   2.614  11.008   7.031
 5966POPC   C4B76522   2.811  10.943   7.442
 5967POPC   NC376523   9.025   9.337   5.682
 5967POPC   PO476524   9.063   8.813   5.362
 5967POPC   GL176525   8.864   8.854   5.803
 5967POPC   GL276526   8.796   8.505   5.855
 5967POPC   C1A76527   8.853   9.062   6.270
 5967POPC   D2A76528   8.984   9.340   6.649
 5967POPC   C3A76529   8.934   9.180   7.118
 5967POPC   C4A76530   9.118   9.239   7.556
 5967POPC   C1B76531   9.066   8.572   6.187
 5967POPC   C2B76532   9.077   8.734   6.604
 5967POPC   C3B76533   9.026   8.605   7.031
 5967POPC   C4B76534   9.033   8.754   7.471
 5968POPC   NC376535  35.578  27.489   5.300
 5968POPC   PO476536  36.187  27.797   5.288
 5968POPC   GL176537  36.169  27.581   5.705
 5968POPC   GL276538  35.810  27.520   5.759
 5968POPC   C1A76539  36.148  27.432   6.140
 5968POPC   D2A76540  36.014  27.328   6.573
 5968POPC   C3A76541  36.219  27.552   6.890
 5968POPC   C4A76542  36.160  27.578   7.280
 5968POPC   C1B76543  35.752  27.749   6.163
 5968POPC   C2B76544  35.673  27.767   6.594
 5968POPC   C3B76545  35.723  27.580   6.986
 5968POPC   C4B76546  35.698  27.811   7.395
 5969POPC   NC376547  29.555  19.255   5.531
 5969POPC   PO476548  29.085  18.799   5.313
 5969POPC   GL176549  29.335  18.827   5.726
 5969POPC   GL276550  29.070  18.918   5.992
 5969POPC   C1A76551  29.524  18.795   6.163
 5969POPC   D2A76552  29.380  18.706   6.599
 5969POPC   C3A76553  29.344  18.801   7.033
 5969POPC   C4A76554  28.927  18.952   7.145
 5969POPC   C1B76555  29.281  19.219   6.323
 5969POPC   C2B76556  29.313  19.317   6.781
 5969POPC   C3B76557  29.153  19.442   7.195
 5969POPC   C4B76558  29.017  19.449   7.656
 5970POPC   NC376559  11.754   3.030   5.369
 5970POPC   PO476560  12.149   2.546   5.534
 5970POPC   GL176561  11.840   2.684   5.840
 5970POPC   GL276562  11.825   3.048   5.888
 5970POPC   C1A76563  11.960   2.641   6.257
 5970POPC   D2A76564  12.189   2.543   6.614
 5970POPC   C3A76565  11.975   2.616   6.953
 5970POPC   C4A76566  12.090   2.594   7.327
 5970POPC   C1B76567  11.860   3.127   6.332
 5970POPC   C2B76568  12.121   3.040   6.679
 5970POPC   C3B76569  12.090   3.120   7.120
 5970POPC   C4B76570  11.797   2.995   7.377
 5971W        W76571  33.673  28.022   2.798
 5972W        W76572  42.348  17.208   1.712
 5973W        W76573  44.227  17.155   2.886
 5974W        W76574   5.762   5.504  12.424
 5975W        W76575  39.545  23.082   4.590
 5976W        W76576  11.089  41.400  12.852
 5977W        W76577  16.292  11.243  13.057
 5978W        W76578  23.045   0.774   0.869
 5979W        W76579  21.629  39.923   3.589
 5980W        W76580  29.066  29.629   1.327
 5981W        W76581   3.323  15.545   2.617
 5982W        W76582   9.892   1.403  14.334
 5983W        W76583  25.013   1.477  13.918
 5984W        W76584   6.730  37.297   4.919
 5985W        W76585   4.929  33.586  13.495
 5986W        W76586  30.224  14.152  13.347
 5987W        W76587  17.108   7.403   2.592
 5988W        W76588   6.732  14.673   2.418
 5989W        W76589  39.742  32.721  11.503
 5990W        W76590   9.688  30.035  10.974
 5991W        W76591  26.235  11.074  14.801
 5992W        W76592  40.932   7.631   3.333
 5993W        W76593   8.714  30.593   0.208
 5994W        W76594  11.802  16.656  13.962
 5995W        W76595  33.863  42.811  10.477
 5996W        W76596  14.622  20.950  13.983
 5997W        W76597  34.025  37.194  10.062
 5998W        W76598  41.442  42.391   0.291
 5999W        W76599  24.594  20.649   4.561
 6000W        W76600  28.244   8.458  12.663
 6001W        W76601  39.312  35.387   3.745
 6002W        W76602  35.060  27.495   4.244
 6003W        W76603  23.280  20.599   0.251
 6004W        W76604  41.869   3.422   1.783
 6005W        W76605  17.639  13.923  11.405
 6006W        W76606   0.430   1.717   1.311
 6007W        W76607  42.983   5.198   1.195
 6008W        W76608  27.849  10.306  10.709
 6009W        W76609  39.025  42.951  11.616
 6010W        W76610  19.088  38.798  12.799
 6011W        W76611   3.225   5.930   5.068
 6012W        W76612   4.449   3.285  13.004
 6013W        W76613  23.478  34.934  12.428
 6014W        W76614  43.510  30.126   0.271
 6015W        W76615  27.609  11.646   2.869
 6016W        W76616  11.645  12.766   4.556
 6017W        W76617  44.430  41.234  10.591
 6018W        W76618  27.611  25.540  14.816
 6019W        W76619  27.151   1.344   4.927
 6020W        W76620  13.074  26.740  13.305
 6021W        W76621  11.887   0.679   2.727
 6022W        W76622  25.712   7.298   4.272
 6023W        W76623  34.666  36.535   0.022
 6024W        W76624  36.533  34.336   4.229
 6025W        W76625  37.665  34.082  14.931
 6026W        W76626   6.443  21.637   0.037
 6027W        W76627   4.752  13.215   0.734
 6028W        W76628  42.960  41.531   3.698
 6029W        W76629  20.643  23.085  13.296
 6030W        W76630  22.015   0.519  12.890
 6031W        W76631   3.368  35.594   1.820
 6032W        W76632  36.065  12.109  11.249
 6033W        W76633  34.533  14.026  13.047
 6034W        W76634  23.048   9.938  12.072
 6035W        W76635   0.000  19.760   1.972
 6036W        W76636  19.136  22.257  10.823
 6037W        W76637  16.870  36.308  13.010
 6038W        W76638  21.142  20.460  10.763
 6039W        W76639  15.708  24.980  13.311
 6040W        W76640  41.250  19.813   3.647
 6041W        W76641  19.054  10.108  10.798
 6042W        W76642  24.787  22.273   1.285
 6043W        W76643  36.905  11.396   4.239
 6044W        W76644  42.860  33.607   1.459
 6045W        W76645  30.564  30.145   3.687
 6046W        W76646  10.333  34.348   0.366
 6047W        W76647  18.752   4.887   0.792
 6048W        W76648   6.721  10.143  12.917
 6049W        W76649  24.751   6.744  11.731
 6050W        W76650  33.813   2.975   2.917
 6051W        W76651   5.035  14.168   1.069
 6052W        W76652  19.281   0.455   1.834
 6053W        W76653  32.945  12.740   1.392
 6054W        W76654  10.944  34.315  13.077
 6055W        W76655   9.099  39.503  13.692
 6056W        W76656  30.380  25.046   4.170
 6057W        W76657  27.698  13.290   1.253
 6058W        W76658   1.936  27.404   0.948
 6059W        W76659  19.838  34.703  12.497
 6060W        W76660  42.276   2.305  11.170
 6061W        W76661  26.383   6.744   4.144
 6062W        W76662  27.427  39.950   3.735
 6063W        W76663   0.345  32.794   1.770
 6064W        W76664  12.567  18.052  11.187
 6065W        W76665  43.501  44.015  11.882
 6066W        W76666  18.242  27.988   3.323
 6067W        W76667   7.873  24.784  10.760
 6068W        W76668  18.714  33.871  10.519
 6069W        W76669  38.438  30.372  10.464
 6070W        W76670  31.652  25.101   1.881
 6071W        W76671  16.468  42.253  12.989
 6072W        W76672  44.737  28.111   2.629
 6073W        W76673  28.757   8.823  14.436
 6074W        W76674  39.052  28.209   4.966
 6075W        W76675  34.926  10.216   2.200
 6076W        W76676  10.089  37.955   4.680
 6077W        W76677  14.083  44.363   3.765
 6078W        W76678   6.394  31.667   4.282
 6079W        W76679  36.416  20.296  11.956
 6080W        W76680  23.478   7.433   3.075
 6081W        W76681   5.732  42.541  12.100
 6082W        W76682  11.153  15.363  14.298
 6083W        W76683   4.510  12.338   3.791
 6084W        W76684  13.099  44.664   3.779
 6085W        W76685   6.741  43.953  10.775
 6086W        W76686   7.708   1.963  13.608
 6087W        W76687  15.074  10.329   0.465
 6088W        W76688  32.903  13.605  10.746
 6089W        W76689  44.502  29.220   3.216
 6090W        W76690   4.666  39.411  12.975
 6091W        W76691   1.422  16.890   3.016
 6092W        W76692  43.728  25.403  11.242
 6093W        W76693  15.476  32.406   9.936
 6094W        W76694  35.893   4.207   3.513
 6095W        W76695   1.372  33.889   0.843
 6096W        W76696   3.555  22.030  14.346
 6097W        W76697  13.644  26.481  14.833
 6098W        W76698  37.359  23.521   0.645
 6099W        W76699  41.783  36.877   1.787
 6100W        W76700  16.673  11.879   3.201
 6101W        W76701  43.927   5.936  13.290
 6102W        W76702  30.954  12.106  13.523
 6103W        W76703  43.133  39.374  11.904
 6104W        W76704  23.660  41.532   2.162
 6105W        W76705  19.532   8.304  12.205
 6106W        W76706  41.483  28.107   4.105
 6107W        W76707  30.624  10.975   4.079
 6108W        W76708  43.579  43.001   4.497
 6109W        W76709  22.014  14.406   0.513
 6110W        W76710  30.079   2.326  13.503
 6111W        W76711  27.596   5.597   4.514
 6112W        W76712  32.544  17.214   0.388
 6113W        W76713  24.285  11.001   5.067
 6114W        W76714  42.910  18.570   0.880
 6115W        W76715   1.804  42.984   3.740
 6116W        W76716  44.962  19.607   1.475
 6117W        W76717   2.192  30.030  14.946
 6118W        W76718  33.932  23.566  12.080
 6119W        W76719  39.783  22.409  12.168
 6120W        W76720  28.990  10.258   2.752
 6121W        W76721   9.243  25.257  14.343
 6122W        W76722   2.755  30.332  10.970
 6123W        W76723  39.470  13.055   3.154
 6124W        W76724  15.622   7.700  13.091
 6125W        W76725  34.646  10.166  12.014
 6126W        W76726   5.787   0.760  11.177
 6127W        W76727  31.138   7.805  10.683
 6128W        W76728  34.602  38.549   0.298
 6129W        W76729  31.947  20.682   3.220
 6130W        W76730   8.559  14.807  14.178
 6131W        W76731   0.166  11.922   2.216
 6132W        W76732  15.052   0.660   1.873
 6133W        W76733  15.698   2.770   2.400
 6134W        W76734  43.091  20.117  14.216
 6135W        W76735  37.161  35.920  13.939
 6136W        W76736  15.561  21.130  12.359
 6137W        W76737  14.813  22.874   3.717
 6138W        W76738   6.139   9.286   1.205
 6139W        W76739  33.943  38.827   1.883
 6140W        W76740   6.847  21.748  11.494
 6141W        W76741   6.455  14.217  12.836
 6142W        W76742  21.186  39.909   3.305
 6143W        W76743  19.979  44.343  11.522
 6144W        W76744  10.608  22.223  11.606
 6145W        W76745  11.398  21.783  13.913
 6146W        W76746  13.898  21.300  11.247
 6147W        W76747  26.215  22.991  14.058
 6148W        W76748  32.993   8.278  11.302
 6149W        W76749  26.682  28.723   2.777
 6150W        W76750  14.224  38.098  12.677
 6151W        W76751  14.261  33.636  14.883
 6152W        W76752  11.369  24.728   3.175
 6153W        W76753   9.922  31.739  11.923
 6154W        W76754  21.030   7.359   3.358
 6155W        W76755  15.617  42.371   2.399
 6156W        W76756  34.974  11.355   1.164
 6157W        W76757  42.022   7.125   1.325
 6158W        W76758  25.161   2.464   0.188
 6159W        W76759  31.045  37.722  11.650
 6160W        W76760  31.439  43.912  13.621
 6161W        W76761   6.329  22.226   4.094
 6162W        W76762  30.427  27.126   0.155
 6163W        W76763  27.041  21.437  12.397
 6164W        W76764  15.211   5.998  14.980
 6165W        W76765  32.000   2.611  12.780
 6166W        W76766  23.940  32.024  10.453
 6167W        W76767  13.128  33.538   3.819
 6168W        W76768  23.088  27.272   0.764
 6169W        W76769  21.607  21.479   4.179
 6170W        W76770   8.618  41.522   2.455
 6171W        W76771   3.306  20.555  11.278
 6172W        W76772  35.810  19.119  14.382
 6173W        W76773  25.094   9.619   2.789
 6174W        W76774  38.815  14.390  10.093
 6175W        W76775  31.685  14.407  11.519
 6176W        W76776  42.100  34.657   1.734
 6177W        W76777   2.955  31.245  11.669
 6178W        W76778   6.215  26.645   4.120
 6179W        W76779  19.648  13.213   1.148
 6180W        W76780  44.494   7.887   1.737
 6181W        W76781  22.059   5.673  12.437
 6182W        W76782   0.718  12.149   3.357
 6183W        W76783  32.489  29.911   0.976
 6184W        W76784   6.629  11.184   4.570
 6185W        W76785   1.515   8.399   0.838
 6186W        W76786   6.263  27.932   0.497
 6187W        W76787  31.579   6.091   0.342
 6188W        W76788  35.413   2.912  12.508
 6189W        W76789  15.238  20.001  11.554
 6190W        W76790  25.088   8.886  14.895
 6191W        W76791  44.796  36.497   3.170
 6192W        W76792  36.064  29.235   3.413
 6193W        W76793   7.535   5.490   2.263
 6194W        W76794  15.418  16.497  11.012
 6195W        W76795  26.068   8.771   0.350
 6196W        W76796  36.942  19.624   2.190
 6197W        W76797  44.785  15.255  12.950
 6198W        W76798   0.750  30.815   2.695
 6199W        W76799  22.980  23.027   2.124
 6200W        W76800  11.620  37.903   1.380
 6201W        W76801  26.667  29.043  13.257
 6202W        W76802  34.804  37.049  12.556
 6203W        W76803  35.903  21.744  11.849
 6204W        W76804  44.009  28.659   1.720
 6205W        W76805   6.475  27.684  10.948
 6206W        W76806  13.028  12.827   2.360
 6207W        W76807  12.717  13.594   1.637
 6208W        W76808  25.850  31.128  12.859
 6209W        W76809  37.455  27.803  12.496
 6210W        W76810  29.066  27.981   3.551
 6211W        W76811   0.008  44.487  14.867
 6212W        W76812  29.140  24.718   3.436
 6213W        W76813  16.185  23.598   4.768
 6214W        W76814   7.537  28.670  11.508
 6215W        W76815  14.743  14.687  14.775
 6216W        W76816  23.960  41.023   0.206
 6217W        W76817  26.677  33.874   0.776
 6218W        W76818   9.838  29.876  12.543
 6219W        W76819   8.374  25.879   4.209
 6220W        W76820  36.460  35.285   0.272
 6221W        W76821  21.115  39.713   1.341
 6222W        W76822  22.204  34.766   4.083
 6223W        W76823   3.031   7.745  10.471
 6224W        W76824  37.364  38.211   1.760
 6225W        W76825  32.089   3.886   0.882
 6226W        W76826  16.274  39.826   4.299
 6227W        W76827  33.052   6.870   0.742
 6228W        W76828  44.284  14.854   3.989
 6229W        W76829  13.733  16.475  13.659
 6230W        W76830  15.255  25.010   4.468
 6231W        W76831  37.889  18.642  14.945
 6232W        W76832  40.894  43.627   1.606
 6233W        W76833  36.560  28.067  14.227
 6234W        W76834  35.602  27.321   3.141
 6235W        W76835   3.466   2.116   3.339
 6236W        W76836  11.773  23.016   4.556
 6237W        W76837   7.222  37.649  14.403
 6238W        W76838  22.310  41.077  12.056
 6239W        W76839   5.902  33.514  10.630
 6240W        W76840  34.979  13.370  13.485
 6241W        W76841   8.682  20.131  11.589
 6242W        W76842  15.586  44.212  14.669
 6243W        W76843  22.645  21.219   2.813
 6244W        W76844   9.498   1.263  11.257
 6245W        W76845  13.772  34.348   4.035
 6246W        W76846  16.095   7.204   0.633
 6247W        W76847  44.358  14.206  11.162
 6248W        W76848   6.345  30.415   3.687
 6249W        W76849  44.564  32.615   0.240
 6250W        W76850  14.350  25.558   2.329
 6251W        W76851   2.203   2.192   0.015
 6252W        W76852  32.589  16.654   0.271
 6253W        W76853  40.470  26.373   4.536
 6254W        W76854  38.874   4.301  11.120
 6255W        W76855  10.874  38.674  12.193
 6256W        W76856  35.220  22.343   0.451
 6257W        W76857  28.883  17.613   1.835
 6258W        W76858  20.748  23.157   0.817
 6259W        W76859   2.856  13.761  14.740
 6260W        W76860   8.027  11.617   3.758
 6261W        W76861  25.038  11.136  12.414
 6262W        W76862  18.174  40.176   3.298
 6263W        W76863  14.037  29.297  13.322
 6264W        W76864  35.526  23.470  13.955
 6265W        W76865  15.383   1.937  14.008
 6266W        W76866  38.961   3.168  10.410
 6267W        W76867   6.524   6.231  14.114
 6268W        W76868  30.619  33.088   2.831
 6269W        W76869  26.049   3.763  14.444
 6270W        W76870   1.955  39.778   2.825
 6271W        W76871  42.600  18.857  14.209
 6272W        W76872  36.202  15.378  14.962
 6273W        W76873  23.746   7.315  12.123
 6274W        W76874  29.929  43.309   3.137
 6275W        W76875   2.889  42.224   0.438
 6276W        W76876  12.672  43.581   3.226
 6277W        W76877  24.983  22.513  14.836
 6278W        W76878   4.980  34.455   3.239
 6279W        W76879   9.136  23.449  12.444
 6280W        W76880  44.813  10.350  11.588
 6281W        W76881   6.227  16.517  12.408
 6282W        W76882  43.443  11.447   2.401
 6283W        W76883  28.698   3.698  14.230
 6284W        W76884  25.154   0.383   3.646
 6285W        W76885  15.102  39.515   3.774
 6286W        W76886   1.321  44.858   2.336
 6287W        W76887   8.649   1.816  14.819
 6288W        W76888  29.876  41.113  14.109
 6289W        W76889   7.067  19.562  11.141
 6290W        W76890   4.530   4.791   3.233
 6291W        W76891  38.026  44.628   0.365
 6292W        W76892  38.555  37.652   0.535
 6293W        W76893  35.320  26.752  11.459
 6294W        W76894   3.170   7.381  14.560
 6295W        W76895  38.019  15.903  12.593
 6296W        W76896  40.406  33.314   4.937
 6297W        W76897  11.636  43.763  10.653
 6298W        W76898   4.919  39.758  14.478
 6299W        W76899  27.091  40.380  13.255
 6300W        W76900  35.927  20.439   2.592
 6301W        W76901  37.202  18.845  14.363
 6302W        W76902  31.904   1.218  11.112
 6303W        W76903  13.830  33.415   2.166
 6304W        W76904  16.742  24.640   3.423
 6305W        W76905  42.603  25.035  14.942
 6306W        W76906   8.421  42.228   2.730
 6307W        W76907  26.563  29.763   4.059
 6308W        W76908  32.426  23.802   1.370
 6309W        W76909   5.578  37.912   2.560
 6310W        W76910  17.356  30.675   2.745
 6311W        W76911  21.119  13.427  13.576
 6312W        W76912  23.864  34.640  10.362
 6313W        W76913   0.015  37.973   1.168
 6314W        W76914  39.742   3.246   3.763
 6315W        W76915   9.816  27.225  14.740
 6316W        W76916  29.393  24.958  12.844
 6317W        W76917  27.632   3.781  13.132
 6318W        W76918  42.756  24.882   2.426
 6319W        W76919  25.200  34.177  12.915
 6320W        W76920  20.839   0.067   1.783
 6321W        W76921  26.537  20.266  14.769
 6322W        W76922  24.824  16.551  11.084
 6323W        W76923  10.284   8.491  13.470
 6324W        W76924  37.628   3.797   0.537
 6325W        W76925   4.315  15.354   3.170
 6326W        W76926  28.962  32.014  12.054
 6327W        W76927  30.006  14.296  14.713
 6328W        W76928  13.068  23.053   1.262
 6329W        W76929   6.853   3.148  13.444
 6330W        W76930   2.618  27.969  12.597
 6331W        W76931  17.832  32.501   0.736
 6332W        W76932  24.167  15.289  12.351
 6333W        W76933  26.038  37.123  11.652
 6334W        W76934   8.459  38.232   3.708
 6335W        W76935  15.828  20.527   3.652
 6336W        W76936  34.205  36.374  11.167
 6337W        W76937  32.907   5.867   4.747
 6338W        W76938  33.455  40.015   2.318
 6339W        W76939  26.671  42.914  14.350
 6340W        W76940  36.893   7.819   1.401
 6341W        W76941  34.356  36.464   4.344
 6342W        W76942   2.322  41.991  13.105
 6343W        W76943  18.587  23.702  11.223
 6344W        W76944  28.162  39.802   0.881
 6345W        W76945  36.477  19.231  14.850
 6346W        W76946   1.953  29.049  13.482
 6347W        W76947  42.437   5.220   3.142
 6348W        W76948  42.338   9.191  11.612
 6349W        W76949  18.575   0.722  11.939
 6350W        W76950   8.153  39.270  13.408
 6351W        W76951  14.602  14.182  14.090
 6352W        W76952   0.390  33.158   4.527
 6353W        W76953   2.660  24.505  14.315
 6354W        W76954  30.254   3.938  11.900
 6355W        W76955  16.193   3.687   2.108
 6356W        W76956  28.567  42.415   1.685
 6357W        W76957  40.403  42.224  12.256
 6358W        W76958   9.821   4.353   3.119
 6359W        W76959  44.788   0.436   2.730
 6360W        W76960  32.786  40.811  13.411
 6361W        W76961  34.918  11.862   3.630
 6362W        W76962  16.786  32.956   1.937
 6363W        W76963   4.416   9.125   3.273
 6364W        W76964   2.495  27.045  12.333
 6365W        W76965  18.708  32.706   2.186
 6366W        W76966  13.004  38.534   4.103
 6367W        W76967  25.278  12.099  14.391
 6368W        W76968  14.631   0.916   1.736
 6369W        W76969   6.169  35.324  14.885
 6370W        W76970   6.721  17.837   0.533
 6371W        W76971  19.735  40.399  12.786
 6372W        W76972  40.403   1.024  12.365
 6373W        W76973  42.464  41.007   3.199
 6374W        W76974   5.141  41.522  10.915
 6375W        W76975   7.958  17.419   1.896
 6376W        W76976  19.539  32.994   1.237
 6377W        W76977  29.437  22.562  14.857
 6378W        W76978  19.732  23.265  14.142
 6379W        W76979  25.111  12.844  13.649
 6380W        W76980  43.609  29.862  14.507
 6381W        W76981  11.394   3.206  11.486
 6382W        W76982  19.429  24.753  12.015
 6383W        W76983  41.884   7.219  14.431
 6384W        W76984  18.691  18.041   0.685
 6385W        W76985  40.647  16.110   0.190
 6386W        W76986  36.099   3.338   3.520
 6387W        W76987   1.769  31.370   3.757
 6388W        W76988   2.490  11.379  12.873
 6389W        W76989  28.881   5.730  12.953
 6390W        W76990  32.689  26.582  13.999
 6391W        W76991  44.552  39.475  13.496
 6392W        W76992  40.965  33.496  12.929
 6393W        W76993  18.528  32.377   1.822
 6394W        W76994  39.881  27.510   3.858
 6395W        W76995  44.343  42.339   0.506
 6396W        W76996  20.637  27.700   0.518
 6397W        W76997  10.786  25.669  14.948
 6398W        W76998  22.734  41.537   2.577
 6399W        W76999  17.437  43.349   4.750
 6400W        W77000  28.918  33.592   2.486
 6401W        W77001  17.063   5.514  11.123
 6402W        W77002   6.050  26.692   1.819
 6403W        W77003  16.923  40.489  12.012
 6404W        W77004   0.252  33.014  11.674
 6405W        W77005  13.801  36.039   3.726
 6406W        W77006  43.422  14.604   2.667
 6407W        W77007  30.930  38.910   1.306
 6408W        W77008  13.393   7.838   4.115
 6409W        W77009  26.605  33.936   3.594
 6410W        W77010  36.061  41.927  12.460
 6411W        W77011  22.131  44.546   1.833
 6412W        W77012  16.222   8.885  12.571
 6413W        W77013  29.527  20.345   0.573
 6414W        W77014  10.619  26.628  13.852
 6415W        W77015  26.838  32.372   0.710
 6416W        W77016  12.856   4.824  10.370
 6417W        W77017  23.875  12.494   1.375
 6418W        W77018  14.200  40.271  14.269
 6419W        W77019  35.516   8.703  10.159
 6420W        W77020  25.719   4.914  13.474
 6421W        W77021  44.930   1.365   3.719
 6422W        W77022  36.605  13.147  13.022
 6423W        W77023  26.057  31.484   4.244
 6424W        W77024  25.698  20.063  14.170
 6425W        W77025   6.816   8.903   3.211
 6426W        W77026  27.021  17.148  13.315
 6427W        W77027  14.101  22.255   4.103
 6428W        W77028   4.470  13.268   1.687
 6429W        W77029  26.021  31.966   1.422
 6430W        W77030  13.151  18.934   2.684
 6431W        W77031   5.017  11.766   0.936
 6432W        W77032  42.247  19.725   0.380
 6433W        W77033   3.003  18.206   4.149
 6434W        W77034  16.418  37.992  10.805
 6435W        W77035  15.208  28.029  14.841
 6436W        W77036  43.412  35.954  14.695
 6437W        W77037  25.669  28.100  12.125
 6438W        W77038  42.314  22.536   2.652
 6439W        W77039  11.918  10.624   4.021
 6440W        W77040  19.548  36.841  14.405
 6441W        W77041  16.731  21.005   4.057
 6442W        W77042  28.010  40.124  11.999
 6443W        W77043   8.751  18.066  14.778
 6444W        W77044   8.730  20.306   2.602
 6445W        W77045  35.085  43.474  13.814
 6446W        W77046  25.693   6.767   2.757
 6447W        W77047  22.448  23.474   4.724
 6448W        W77048  26.122  16.719  13.457
 6449W        W77049  37.038  23.743   3.847
 6450W        W77050  22.209   5.985  11.108
 6451W        W77051  11.752  30.165   2.400
 6452W        W77052   7.017  11.250  14.992
 6453W        W77053  10.468  10.849   3.671
 6454W        W77054   5.809  39.950  13.226
 6455W        W77055  27.902  37.796  11.639
 6456W        W77056  17.281  26.098   3.171
 6457W        W77057  34.994  42.994   3.359
 6458W        W77058  14.060   6.739   2.345
 6459W        W77059  18.761  34.322  12.295
 6460W        W77060  38.902  13.823  13.939
 6461W        W77061  23.634  19.728   0.318
 6462W        W77062   5.860   4.685  13.618
 6463W        W77063  13.860  33.159  13.082
 6464W        W77064  13.604  25.660  13.466
 6465W        W77065   5.948   9.304   2.405
 6466W        W77066  27.179  38.747  11.511
 6467W        W77067  24.411  31.076  10.726
 6468W        W77068  42.104  15.350  11.320
 6469W        W77069  10.664  44.692  11.085
 6470W        W77070  18.818  43.760  10.694
 6471W        W77071  44.521   0.388   2.294
 6472W        W77072  43.334  20.656   2.223
 6473W        W77073  22.845   4.322  13.032
 6474W        W77074  15.059   1.697   1.794
 6475W        W77075  40.651  27.244  14.450
 6476W        W77076  37.018  29.057   2.911
 6477W        W77077  11.787  42.296  14.022
 6478W        W77078   4.272  33.814  14.942
 6479W        W77079  31.079   0.182  13.772
 6480W        W77080  34.498  38.866  14.533
 6481W        W77081  29.689  21.009   3.804
 6482W        W77082  27.584   3.718  10.891
 6483W        W77083   1.143  23.169   2.328
 6484W        W77084   8.877  30.980   4.617
 6485W        W77085  10.064  36.121   2.079
 6486W        W77086  37.096  25.930  12.059
 6487W        W77087  12.993  39.030   4.087
 6488W        W77088  24.575  30.136  10.545
 6489W        W77089  41.711  31.471  11.247
 6490W        W77090  36.503  25.422  14.447
 6491W        W77091  13.071  41.938  13.387
 6492W        W77092  22.560  40.469  11.170
 6493W        W77093  21.593  43.864   9.494
 6494W        W77094  40.530  37.522   0.144
 6495W        W77095  36.058  15.645   2.268
 6496W        W77096   5.459  27.755   2.172
 6497W        W77097   9.268   5.026  12.188
 6498W        W77098   5.663  12.036   2.991
 6499W        W77099  26.017  26.893  13.902
 6500W        W77100  42.790   0.784  12.767
 6501W        W77101   6.983   0.315  12.376
 6502W        W77102  43.916  25.197  13.047
 6503W        W77103  30.056  20.687  14.429
 6504W        W77104   1.512   6.314  11.460
 6505W        W77105  33.300  43.508  12.932
 6506W        W77106  25.546  32.923  11.810
 6507W        W77107  37.908   8.452  13.875
 6508W        W77108   4.906   0.389   4.197
 6509W        W77109  25.109  24.733   2.227
 6510W        W77110  30.801  33.020   1.418
 6511W        W77111   5.402   4.789  12.534
 6512W        W77112  19.137  13.627   3.774
 6513W        W77113  21.685  41.832   4.137
 6514W        W77114  25.620  25.533   2.228
 6515W        W77115  28.538   8.811   2.652
 6516W        W77116  17.199  13.755   0.802
 6517W        W77117   3.973  36.930  14.859
 6518W        W77118  28.893  21.598  10.891
 6519W        W77119  17.033  43.016  11.084
 6520W        W77120  22.860  38.675   2.338
 6521W        W77121  29.614  26.805   0.893
 6522W        W77122  28.642  33.056  11.919
 6523W        W77123  24.352  34.977   1.031
 6524W        W77124   0.039  17.774   1.875
 6525W        W77125  36.050  35.388   3.704
 6526W        W77126  12.540   3.445  11.177
 6527W        W77127  31.925  15.773   4.129
 6528W        W77128  31.593   6.711   1.718
 6529W        W77129  19.063  39.240   0.155
 6530W        W77130  40.783  17.824   4.582
 6531W        W77131  36.536  44.502   3.348
 6532W        W77132  15.760   8.988  12.288
 6533W        W77133  16.867  15.492   2.464
 6534W        W77134  44.968   7.046   0.108
 6535W        W77135   6.440  20.072  11.154
 6536W        W77136  13.921  10.578   1.958
 6537W        W77137   0.389  30.652   1.319
 6538W        W77138  41.252   7.365  13.678
 6539W        W77139   0.739  38.101  12.506
 6540W        W77140  21.584  29.406   0.933
 6541W        W77141  17.538  36.430  12.129
 6542W        W77142   6.913  13.104   2.362
 6543W        W77143  18.972  17.776  10.441
 6544W        W77144  12.798  15.250  13.854
 6545W        W77145  12.803  34.190  13.125
 6546W        W77146  33.744  27.714   1.428
 6547W        W77147  42.108   9.960   4.306
 6548W        W77148  14.645  24.176  12.188
 6549W        W77149  20.786  37.796   1.742
 6550W        W77150  11.950  12.486   4.148
 6551W        W77151  29.111  22.587   1.725
 6552W        W77152  41.006   3.668  10.163
 6553W        W77153  36.063  43.640  14.026
 6554W        W77154  21.841   8.040   3.563
 6555W        W77155   9.258  32.778  14.756
 6556W        W77156   5.316   6.236   0.147
 6557W        W77157  44.241  17.254  10.708
 6558W        W77158  33.320  36.001   3.111
 6559W        W77159  36.336  44.744  11.004
 6560W        W77160  37.090  36.894   1.951
 6561W        W77161  36.368   7.259   1.697
 6562W        W77162   6.366   7.873  12.508
 6563W        W77163   5.013  36.253  10.952
 6564W        W77164  16.278  25.589   2.335
 6565W        W77165  34.973   2.971  10.832
 6566W        W77166  32.491  27.958  14.689
 6567W        W77167  30.481  44.668  11.570
 6568W        W77168  33.351   7.730  12.094
 6569W        W77169  43.336  12.172  12.501
 6570W        W77170   3.450   5.224  11.166
 6571W        W77171  43.811  20.068   2.332
 6572W        W77172  26.027  37.395  13.635
 6573W        W77173  21.816  43.542   2.404
 6574W        W77174  31.901  17.318   2.330
 6575W        W77175  31.211  17.581  12.776
 6576W        W77176  39.530  19.212   3.161
 6577W        W77177  22.654  42.681   4.588
 6578W        W77178   2.143   8.095  12.982
 6579W        W77179  25.079   0.594   0.120
 6580W        W77180  35.365   7.828  11.707
 6581W        W77181  16.321  10.310   0.944
 6582W        W77182  10.920  37.911  11.965
 6583W        W77183  26.114  11.300  13.110
 6584W        W77184   5.880  12.303   4.179
 6585W        W77185  44.725   7.311  11.903
 6586W        W77186  12.201  32.932   2.832
 6587W        W77187  16.189   5.704  11.167
 6588W        W77188  24.057  42.217  13.351
 6589W        W77189  40.483  26.108   4.086
 6590W        W77190  20.614   7.656   3.938
 6591W        W77191  43.720  26.533  12.148
 6592W        W77192  32.892   1.521   4.208
 6593W        W77193   1.695   1.718   1.451
 6594W        W77194  43.907   8.333   4.556
 6595W        W77195  36.145  36.352   1.410
 6596W        W77196  19.656  35.725   1.834
 6597W        W77197   6.817  24.716  13.898
 6598W        W77198   2.236  39.226   4.476
 6599W        W77199  23.750   1.073  11.343
 6600W        W77200  41.639   8.591  14.763
 6601W        W77201   5.360  34.781  14.288
 6602W        W77202  43.065  11.832  13.057
 6603W        W77203   6.395  20.196   3.573
 6604W        W77204  14.270  38.311   3.678
 6605W        W77205  25.762  28.692   4.019
 6606W        W77206  20.283  18.317  14.925
 6607W        W77207  10.278  15.087  11.114
 6608W        W77208   6.303  15.757   0.802
 6609W        W77209  17.301  32.062   4.955
 6610W        W77210  30.958  42.601  10.220
 6611W        W77211  32.002   5.374  14.722
 6612W        W77212  33.158   3.115  11.087
 6613W        W77213  42.687  13.916  11.403
 6614W        W77214   7.939  36.829  11.897
 6615W        W77215  30.038   6.769  13.562
 6616W        W77216  22.985  34.289   1.871
 6617W        W77217  17.669   0.393   4.261
 6618W        W77218  17.768  27.945   3.112
 6619W        W77219  33.588  24.085  10.293
 6620W        W77220  23.792   3.254   1.788
 6621W        W77221  12.235   2.906  13.511
 6622W        W77222  26.420  15.610   0.500
 6623W        W77223   5.285  26.677  12.435
 6624W        W77224  33.943  13.390  13.180
 6625W        W77225  26.140  32.572   4.639
 6626W        W77226  15.702  20.095   4.201
 6627W        W77227  30.581  26.384  10.919
 6628W        W77228  43.362  27.132   4.046
 6629W        W77229  36.969  35.044  11.216
 6630W        W77230  38.802  10.370   2.764
 6631W        W77231  38.445  25.614  10.909
 6632W        W77232   7.438  20.108  12.027
 6633W        W77233  10.028   2.151  14.422
 6634W        W77234  17.924  10.270  13.851
 6635W        W77235  31.881   6.309  12.600
 6636W        W77236  41.326  25.790  12.833
 6637W        W77237  11.171  38.312  13.476
 6638W        W77238  40.978  24.014  14.753
 6639W        W77239  29.679  32.900  13.553
 6640W        W77240   7.851  37.773  11.552
 6641W        W77241  43.941   9.931   3.874
 6642W        W77242  39.287   3.498  12.527
 6643W        W77243  18.220   2.448  13.885
 6644W        W77244  30.286   3.101   2.320
 6645W        W77245  10.689  23.847  13.052
 6646W        W77246  32.504  11.970  13.972
 6647W        W77247   2.999  10.219  10.661
 6648W        W77248  16.716  37.382  14.667
 6649W        W77249  16.695  11.370  13.632
 6650W        W77250  20.102  16.355  14.765
 6651W        W77251  15.257  12.582   3.210
 6652W        W77252  17.644  31.763   2.430
 6653W        W77253  25.408  39.334  11.359
 6654W        W77254  44.820  10.267   0.417
 6655W        W77255  43.104  26.160   0.890
 6656W        W77256  18.461  19.197  11.530
 6657W        W77257   0.877   0.825  14.077
 6658W        W77258  37.537  38.291  12.103
 6659W        W77259  20.451   5.443  10.527
 6660W        W77260  31.004  42.555  12.018
 6661W        W77261  39.478  20.909   3.337
 6662W        W77262  25.649  28.108   3.242
 6663W        W77263  18.024  24.533  11.078
 6664W        W77264  18.827  42.036   0.942
 6665W        W77265   0.866  18.998   0.424
 6666W        W77266   7.151  18.597  14.558
 6667W        W77267  44.479  24.710   4.621
 6668W        W77268  22.894  35.672  12.105
 6669W        W77269  42.075  22.186   0.548
 6670W        W77270   5.001   2.316  11.031
 6671W        W77271  37.566   7.024   4.100
 6672W        W77272  29.999  32.296   0.812
 6673W        W77273  22.950   3.442  14.368
 6674W        W77274  28.420   9.386  11.576
 6675W        W77275  25.286  16.091   1.869
 6676W        W77276  20.591  41.895   1.861
 6677W        W77277  33.517  27.294  10.082
 6678W        W77278  23.630   3.406  12.564
 6679W        W77279   9.280   5.612   3.211
 6680W        W77280  25.859   1.136  11.897
 6681W        W77281  30.968   4.858   0.346
 6682W        W77282  26.760  23.741  12.503
 6683W        W77283   9.750  32.842  11.662
 6684W        W77284  24.353  40.070   2.156
 6685W        W77285  40.921  30.077  13.456
 6686W        W77286  26.187  27.636   1.394
 6687W        W77287  30.766  10.835  11.370
 6688W        W77288  27.138  31.418   3.297
 6689W        W77289   3.463   9.793   1.954
 6690W        W77290  15.608  20.482   1.225
 6691W        W77291  13.026  14.630  13.733
 6692W        W77292  27.210  31.645  14.331
 6693W        W77293  26.671  14.209  13.030
 6694W        W77294  34.417  38.424  14.781
 6695W        W77295  12.235  20.284   3.714
 6696W        W77296  15.950  17.874  14.773
 6697W        W77297  14.522  20.065  14.250
 6698W        W77298  28.228   8.214   0.524
 6699W        W77299   1.116  42.381   2.394
 6700W        W77300  15.586  14.809   0.283
 6701W        W77301  39.466  10.695  14.539
 6702W        W77302  42.824  35.201   5.023
 6703W        W77303  32.392  30.096  11.556
 6704W        W77304  43.355   0.785   5.024
 6705W        W77305  15.686  33.013  12.757
 6706W        W77306  24.017   7.332  11.465
 6707W        W77307   5.598  40.524  12.523
 6708W        W77308   1.866  15.579  13.042
 6709W        W77309  36.183  17.164  13.486
 6710W        W77310   5.448  27.055   4.212
 6711W        W77311  43.269  21.259   0.748
 6712W        W77312  17.634  13.482   2.222
 6713W        W77313  38.295  41.413  12.502
 6714W        W77314  28.198  43.940   2.966
 6715W        W77315  21.478  33.649  10.733
 6716W        W77316  34.149  24.745   3.828
 6717W        W77317  31.943  24.013  11.562
 6718W        W77318  31.545   5.198  14.927
 6719W        W77319   4.901   0.051   4.610
 6720W        W77320  33.109  31.150   2.911
 6721W        W77321  15.258  16.168   1.927
 6722W        W77322  18.515  23.551  14.331
 6723W        W77323  14.109  24.579   0.931
 6724W        W77324   3.204  15.213  10.584
 6725W        W77325  22.539  38.588   3.182
 6726W        W77326  11.152  26.277  14.453
 6727W        W77327  25.619  42.917   4.514
 6728W        W77328  17.630  26.189  12.127
 6729W        W77329  39.477  22.680   1.156
 6730W        W77330  40.508  19.357   3.184
 6731W        W77331  40.952  27.467  10.618
 6732W        W77332  31.613  35.136  13.826
 6733W        W77333   4.967   2.380  12.024
 6734W        W77334  26.661  41.422   2.720
 6735W        W77335   1.804  37.914   2.082
 6736W        W77336   1.740  32.804   2.128
 6737W        W77337  11.820  22.491  14.944
 6738W        W77338   2.917  19.715  11.047
 6739W        W77339  15.063  12.290  11.145
 6740W        W77340  27.456  23.125  12.892
 6741W        W77341  20.103   5.282   1.380
 6742W        W77342  13.235  24.222  13.195
 6743W        W77343  28.546   4.257   0.532
 6744W        W77344   8.700  18.063   1.365
 6745W        W77345   5.220  22.273   2.913
 6746W        W77346   9.247  40.018  11.125
 6747W        W77347  20.754  21.146  11.648
 6748W        W77348  20.936  27.733   0.927
 6749W        W77349   7.826  44.082  13.542
 6750W        W77350  13.190  31.977   4.066
 6751W        W77351  18.755  11.587   3.882
 6752W        W77352  27.758   1.378   2.252
 6753W        W77353  23.719  14.881   1.875
 6754W        W77354  36.100  40.462  14.912
 6755W        W77355  22.141  44.921  14.963
 6756W        W77356   7.428  19.161   3.346
 6757W        W77357  10.300   5.761  12.350
 6758W        W77358  32.761  16.817   3.707
 6759W        W77359  15.067   3.432   0.179
 6760W        W77360  30.927   4.413   3.766
 6761W        W77361  10.271   1.697  12.530
 6762W        W77362  42.640  28.454  10.676
 6763W        W77363  33.910  41.299   3.664
 6764W        W77364   0.775  30.849  13.720
 6765W        W77365   1.956  42.331  11.681
 6766W        W77366  34.870  23.736   4.210
 6767W        W77367   1.226  29.298  13.155
 6768W        W77368  11.667  15.243   2.892
 6769W        W77369  39.885  26.610   0.998
 6770W        W77370  25.077   1.793  13.478
 6771W        W77371   5.435  16.192  14.296
 6772W        W77372  27.991  20.064  13.939
 6773W        W77373  27.637  21.466   3.219
 6774W        W77374  11.455  24.451  12.448
 6775W        W77375  40.613  20.706  10.112
 6776W        W77376  13.186  32.499   2.203
 6777W        W77377  22.049  10.331   0.451
 6778W        W77378  22.148  41.920  10.482
 6779W        W77379   7.194  44.416   3.659
 6780W        W77380  15.094  23.781  13.931
 6781W        W77381   7.396   7.339   2.173
 6782W        W77382  29.582  17.316   3.471
 6783W        W77383  43.241  44.315  14.371
 6784W        W77384   2.930  25.714   1.795
 6785W        W77385   1.230  19.601  13.017
 6786W        W77386  40.749  37.516   5.063
 6787W        W77387   9.218   7.387  10.777
 6788W        W77388  36.808  30.078  11.631
 6789W        W77389   9.369  11.243   1.880
 6790W        W77390  14.062   6.154  11.103
 6791W        W77391  12.108  22.179  10.649
 6792W        W77392  17.556  40.406   3.716
 6793W        W77393  24.445  14.784   0.948
 6794W        W77394  32.150  23.120  13.542
 6795W        W77395  31.325  30.566   1.955
 6796W        W77396  31.685  20.358  12.570
 6797W        W77397  36.119  44.881   2.210
 6798W        W77398  34.235  35.765   3.264
 6799W        W77399  39.414  13.198  10.521
 6800W        W77400  42.296  26.232  13.735
 6801W        W77401  23.195  13.911  11.988
 6802W        W77402  31.092  40.565  12.891
 6803W        W77403  13.664  38.263   0.043
 6804W        W77404  38.358  21.492  12.050
 6805W        W77405  41.289   8.329  12.018
 6806W        W77406   0.375   1.704   2.646
 6807W        W77407   8.901  35.169  12.069
 6808W        W77408  18.169  14.550  12.545
 6809W        W77409  14.844  23.262  13.444
 6810W        W77410   8.880   2.804  10.876
 6811W        W77411  22.304  29.384  14.735
 6812W        W77412  18.910  14.807   0.915
 6813W        W77413  16.639  42.529   2.000
 6814W        W77414  38.843  15.709   2.181
 6815W        W77415  19.487  39.473  13.631
 6816W        W77416   4.574  42.462   3.565
 6817W        W77417  32.946  41.814   0.701
 6818W        W77418   1.279  22.637   2.372
 6819W        W77419  43.412  28.701  13.361
 6820W        W77420  32.306  15.417  11.123
 6821W        W77421  10.180   9.022  13.355
 6822W        W77422  11.140   1.706  14.778
 6823W        W77423  36.603  14.375   2.743
 6824W        W77424  39.842  29.243  10.679
 6825W        W77425  31.675  10.802  11.973
 6826W        W77426   5.678  29.918   3.605
 6827W        W77427  42.806  18.570   1.811
 6828W        W77428  35.561  31.094  14.267
 6829W        W77429  25.137  36.170   3.301
 6830W        W77430  31.390  25.893   3.139
 6831W        W77431   1.296   9.671   0.600
 6832W        W77432  12.271   4.670  11.600
 6833W        W77433   1.802  38.123  12.296
 6834W        W77434  28.126   6.443  10.642
 6835W        W77435  16.642  25.978  13.953
 6836W        W77436  37.895  44.868  10.740
 6837W        W77437  44.199  38.664   0.153
 6838W        W77438  41.969  44.913   1.228
 6839W        W77439   4.723  22.459   1.611
 6840W        W77440  20.737  42.639   4.632
 6841W        W77441  26.718  25.768   1.351
 6842W        W77442   9.384  10.163  11.046
 6843W        W77443   4.719  42.236  10.645
 6844W        W77444   6.386  24.738   4.111
 6845W        W77445  21.461  16.291  14.259
 6846W        W77446   8.677  24.269  14.956
 6847W        W77447   2.876  11.364   1.831
 6848W        W77448   7.592  38.941   2.300
 6849W        W77449   0.213   5.922  13.865
 6850W        W77450  29.057  15.090   3.675
 6851W        W77451  22.008  17.515   3.925
 6852W        W77452  30.570  28.771   3.814
 6853W        W77453  22.626  26.489   3.271
 6854W        W77454  12.731  40.989   2.771
 6855W        W77455  16.463  34.563  10.579
 6856W        W77456   2.277  40.842   2.225
 6857W        W77457  24.300  27.501   4.186
 6858W        W77458  28.666  26.142   3.525
 6859W        W77459  17.774  41.012  13.551
 6860W        W77460  32.333  23.125   1.697
 6861W        W77461  42.569  42.269  14.036
 6862W        W77462  19.746  25.114   0.414
 6863W        W77463  27.505   6.104   4.632
 6864W        W77464   1.510  27.749  13.882
 6865W        W77465   7.160  28.547  12.833
 6866W        W77466  10.788  38.942  10.540
 6867W        W77467  17.275  17.089  11.713
 6868W        W77468   7.308   3.472  13.391
 6869W        W77469   2.360  15.164  14.405
 6870W        W77470  37.978  28.713   0.665
 6871W        W77471  39.552  17.477   3.951
 6872W        W77472   7.768  14.337   0.368
 6873W        W77473  34.857   7.749  11.887
 6874W        W77474   7.459  39.016  11.219
 6875W        W77475  27.273   4.448  10.897
 6876W        W77476  32.738  24.238  12.035
 6877W        W77477  21.103   8.846  12.221
 6878W        W77478  20.772  13.032   0.234
 6879W        W77479   3.200  32.848  10.640
 6880W        W77480  11.813  33.882  14.904
 6881W        W77481  29.948  12.816  12.580
 6882W        W77482   6.970  19.381  14.435
 6883W        W77483  10.235   3.262  13.341
 6884W        W77484   9.696  21.944   3.548
 6885W        W77485  31.168  22.634  12.951
 6886W        W77486  16.302  23.580  12.481
 6887W        W77487  37.881  28.428  13.457
 6888W        W77488  34.711  31.407   4.278
 6889W        W77489  42.737  11.305  11.110
 6890W        W77490  23.636  15.212   3.951
 6891W        W77491  11.072   7.375  14.581
 6892W        W77492  40.003  22.913  11.188
 6893W        W77493  13.828  26.911   3.283
 6894W        W77494  13.187  14.368  12.487
 6895W        W77495  44.408  38.341   3.327
 6896W        W77496  38.045   2.705   4.272
 6897W        W77497  17.825   2.488   1.741
 6898W        W77498  28.936   7.295   2.903
 6899W        W77499  31.965  33.141   2.904
 6900W        W77500   2.795  44.292   4.238
 6901W        W77501  10.683  10.969  11.547
 6902W        W77502  16.670  26.724  13.416
 6903W        W77503  28.265   0.932  12.888
 6904W        W77504  43.966  37.655   0.310
 6905W        W77505  43.849  17.586  11.648
 6906W        W77506   1.288  17.134   1.449
 6907W        W77507  35.678  27.099  11.594
 6908W        W77508   2.351  36.696   2.329
 6909W        W77509  14.188  34.351  13.077
 6910W        W77510  24.021  16.926   1.283
 6911W        W77511  26.551  25.598  12.424
 6912W        W77512   9.162   8.413   0.271
 6913W        W77513   2.351   3.785  10.977
 6914W        W77514  25.930  34.061   2.348
 6915W        W77515  41.894   2.150   0.755
 6916W        W77516  27.187  44.406   4.782
 6917W        W77517   8.120  11.200  10.674
 6918W        W77518  41.002   1.698   1.018
 6919W        W77519  26.628   1.435  14.522
 6920W        W77520  25.041  20.622  12.184
 6921W        W77521  30.505  17.829  13.359
 6922W        W77522  41.861  29.594   0.158
 6923W        W77523  28.541   6.744  12.557
 6924W        W77524  34.711   9.530   4.622
 6925W        W77525   1.393  31.433  13.298
 6926W        W77526   9.652  14.167  14.430
 6927W        W77527  12.585   8.494  11.111
 6928W        W77528   8.226  42.348   3.627
 6929W        W77529  32.318  42.262   1.317
 6930W        W77530  11.388   5.142   0.768
 6931W        W77531  25.353  34.339   1.128
 6932W        W77532  20.230   1.367  14.976
 6933W        W77533  18.147  38.967   1.746
 6934W        W77534   9.203  39.437  14.199
 6935W        W77535  10.422  35.789   0.303
 6936W        W77536  34.145  43.406  11.686
 6937W        W77537   2.513  26.146  11.668
 6938W        W77538  37.297  10.874  10.811
 6939W        W77539  19.410  41.785  11.629
 6940W        W77540   4.506  43.772   4.173
 6941W        W77541  17.600  19.529  13.917
 6942W        W77542  13.817   5.481  12.966
 6943W        W77543  35.882  41.749   0.772
 6944W        W77544  34.593  16.265   4.656
 6945W        W77545  11.283  33.535  14.878
 6946W        W77546   3.761  13.402   2.095
 6947W        W77547  18.778  17.345  13.409
 6948W        W77548  32.138  38.772  11.224
 6949W        W77549  29.669  30.438  10.791
 6950W        W77550  25.906   4.420   0.209
 6951W        W77551  43.956  42.404  13.452
 6952W        W77552  37.661  14.634  10.957
 6953W        W77553   9.148  13.599  11.464
 6954W        W77554  10.579  38.456   9.938
 6955W        W77555  12.249  16.094   4.582
 6956W        W77556  43.567   1.978  12.093
 6957W        W77557   8.208  16.707  10.708
 6958W        W77558  36.948   8.140   4.680
 6959W        W77559   5.919   7.250  10.632
 6960W        W77560   4.099  17.122  10.541
 6961W        W77561  35.201  14.357  14.016
 6962W        W77562  38.115   4.208  11.579
 6963W        W77563  25.461  44.337  11.122
 6964W        W77564  19.538   7.712   3.182
 6965W        W77565  38.550  41.627   1.459
 6966W        W77566   4.806  26.804  13.006
 6967W        W77567   7.192  44.934   2.829
 6968W        W77568  21.716  38.987   0.307
 6969W        W77569  38.943  40.137  12.176
 6970W        W77570   6.728  43.962   2.692
 6971W        W77571  29.483  19.854  11.273
 6972W        W77572  19.524  44.056  12.339
 6973W        W77573  39.251  12.620   4.071
 6974W        W77574  38.359  19.644   2.477
 6975W        W77575   4.419   9.158  12.881
 6976W        W77576  44.511  37.532   2.761
 6977W        W77577  28.134  19.303  12.826
 6978W        W77578  14.693  27.638   3.702
 6979W        W77579   1.574  43.153   5.156
 6980W        W77580  25.603  24.007  12.049
 6981W        W77581  32.264  36.775   0.305
 6982W        W77582  19.250  21.833  13.691
 6983W        W77583   2.181   9.610  14.467
 6984W        W77584  35.375  30.132  11.489
 6985W        W77585   1.188   5.929   3.318
 6986W        W77586  18.305   8.936  11.702
 6987W        W77587  43.980   2.012  13.782
 6988W        W77588  40.154   1.288   2.295
 6989W        W77589   4.824  34.639   2.798
 6990W        W77590  22.212  27.185   0.967
 6991W        W77591   6.129   5.244   4.026
 6992W        W77592  13.907  33.434  11.556
 6993W        W77593  38.669  42.971  11.981
 6994W        W77594  30.878   3.176   4.080
 6995W        W77595  22.344  34.552   3.644
 6996W        W77596  23.298  40.902  10.984
 6997W        W77597  36.464  10.941  12.615
 6998W        W77598   7.430  30.441  11.587
 6999W        W77599  27.165  16.364   1.109
 7000W        W77600  36.754  43.614   3.731
 7001W        W77601  42.330  22.115   1.499
 7002W        W77602  21.166  29.716   1.704
 7003W        W77603   3.760  43.882   2.749
 7004W        W77604  44.043   3.459   2.323
 7005W        W77605  30.065  32.396  11.319
 7006W        W77606  11.644  16.824   4.741
 7007W        W77607  28.026  20.379  12.029
 7008W        W77608  40.800   5.474   2.371
 7009W        W77609  37.205  42.292  10.652
 7010W        W77610  27.993  36.168  14.397
 7011W        W77611  40.307  25.606  10.422
 7012W        W77612  33.013  18.024   3.435
 7013W        W77613  23.120  27.711  10.579
 7014W        W77614  34.980  10.349   4.584
 7015W        W77615  37.508  14.256   3.090
 7016W        W77616  23.520  36.017  12.031
 7017W        W77617   9.622  38.905   3.849
 7018W        W77618  23.056  15.390  13.828
 7019W        W77619  21.854  20.960   4.190
 7020W        W77620   4.059   8.838  11.704
 7021W        W77621  41.247   4.801  14.029
 7022W        W77622  33.517   6.459   0.057
 7023W        W77623  20.727  20.783  12.056
 7024W        W77624  26.000  40.428   0.213
 7025W        W77625  13.241  34.411   0.874
 7026W        W77626  24.994  20.001   2.791
 7027W        W77627  16.176  35.415   1.678
 7028W        W77628  18.402  17.877  13.910
 7029W        W77629  34.853  37.667   0.799
 7030W        W77630  30.858  19.325  11.864
 7031W        W77631  15.749  25.030   0.777
 7032W        W77632   3.797  29.642  11.577
 7033W        W77633   4.407  15.819   3.683
 7034W        W77634  24.638  36.560   1.648
 7035W        W77635  23.954   5.827  14.290
 7036W        W77636  39.220  26.856  12.646
 7037W        W77637  28.289  20.014   4.808
 7038W        W77638   7.865   2.003  11.056
 7039W        W77639  34.843  12.374   3.662
 7040W        W77640   4.375  25.009  13.015
 7041W        W77641  32.118  24.520   2.395
 7042W        W77642   0.147  24.251  14.961
 7043W        W77643  27.939  30.779  12.868
 7044W        W77644  43.949  38.641  13.867
 7045W        W77645  39.470  17.209  11.424
 7046W        W77646   0.691  15.874  14.443
 7047W        W77647  27.255  35.472   4.229
 7048W        W77648  30.723  38.722  12.427
 7049W        W77649   6.114  17.022  14.007
 7050W        W77650  30.622   1.831   1.541
 7051W        W77651  10.088   5.857  13.762
 7052W        W77652  28.407   2.788   0.837
 7053W        W77653   9.395  42.451   0.056
 7054W        W77654  10.401  15.596  13.450
 7055W        W77655   8.332  39.875   1.745
 7056W        W77656  33.512   7.663   1.433
 7057W        W77657  21.953   3.677   0.825
 7058W        W77658   4.013   3.064   0.715
 7059W        W77659  14.157  31.558  12.169
 7060W        W77660  32.585  10.619   4.089
 7061W        W77661   9.423  26.462  14.773
 7062W        W77662  44.252  36.379   2.324
 7063W        W77663  25.766   0.636   4.923
 7064W        W77664  31.551  12.393  10.661
 7065W        W77665  33.138   1.469   2.845
 7066W        W77666  20.078   9.862  11.119
 7067W        W77667  31.419   1.349   1.160
 7068W        W77668  10.347   6.653  13.802
 7069W        W77669  21.803  28.523  14.869
 7070W        W77670  12.112  19.678   4.858
 7071W        W77671   7.708   1.343   0.147
 7072W        W77672  37.936  33.991   3.236
 7073W        W77673  41.825   9.815  10.677
 7074W        W77674  44.421  41.493  13.090
 7075W        W77675   2.478  10.642   2.611
 7076W        W77676  14.182  37.436   3.660
 7077W        W77677   4.880   8.244   1.457
 7078W        W77678  24.626  39.503  10.675
 7079W        W77679  23.620   3.854   0.860
 7080W        W77680   9.476  38.934   2.614
 7081W        W77681  28.587  20.172   3.233
 7082W        W77682  16.760   7.081   3.497
 7083W        W77683  36.005  11.778   3.208
 7084W        W77684  39.479  20.533  12.138
 7085W        W77685   3.480   4.245  12.613
 7086W        W77686  24.308  39.606  10.270
 7087W        W77687  16.358   7.637  14.712
 7088W        W77688  32.229  16.804   3.730
 7089W        W77689  25.185  11.897  11.185
 7090W        W77690  33.657  39.598   5.889
 7091W        W77691   9.143  23.047   4.498
 7092W        W77692  27.673  34.523   4.956
 7093W        W77693  30.145  28.188  14.463
 7094W        W77694  30.193  40.712   2.326
 7095W        W77695  21.193  28.153   0.702
 7096W        W77696   9.129  12.659   1.177
 7097W        W77697  30.365   8.821  14.859
 7098W        W77698   1.030  42.880   2.194
 7099W        W77699  10.079  16.808   5.214
 7100W        W77700  36.816  38.268  12.516
 7101W        W77701   8.613  30.070   1.965
 7102W        W77702  37.488   8.299   1.740
 7103W        W77703  24.052  17.476   2.140
 7104W        W77704  32.720  14.566   0.025
 7105W        W77705  30.681  30.038  12.145
 7106W        W77706   4.783  33.941   0.752
 7107W        W77707   7.530  32.240  12.916
 7108W        W77708  35.413  13.283  14.783
 7109W        W77709  22.528   1.552  10.650
 7110W        W77710  34.357  22.500  10.726
 7111W        W77711  21.492  17.222   2.357
 7112W        W77712  33.392  25.952  13.097
 7113W        W77713   0.390  18.792  14.320
 7114W        W77714  32.376  20.450  11.173
 7115W        W77715   4.430   6.501   2.315
 7116W        W77716  24.655   8.313   2.744
 7117W        W77717   8.253   6.285   0.349
 7118W        W77718  23.173   6.434  12.146
 7119W        W77719  40.290  25.180  11.136
 7120W        W77720  27.462  34.054   3.892
 7121W        W77721  24.725  21.775  11.274
 7122W        W77722  21.717   8.743  14.024
 7123W        W77723  34.420   3.247  12.944
 7124W        W77724   1.728  19.584  12.844
 7125W        W77725  23.183  24.698   4.243
 7126W        W77726  21.532  21.531   1.851
 7127W        W77727  10.330   4.389   2.271
 7128W        W77728  39.430  23.003   3.815
 7129W        W77729  44.052  43.885   0.183
 7130W        W77730   2.688  31.347   0.815
 7131W        W77731  16.075  32.852   0.750
 7132W        W77732   3.241  44.444  11.206
 7133W        W77733  12.588  43.996   2.862
 7134W        W77734  18.147   5.782   1.186
 7135W        W77735  23.150  26.289  13.334
 7136W        W77736  11.619  23.917  13.498
 7137W        W77737  30.093   9.433  10.773
 7138W        W77738  41.186  31.932   4.652
 7139W        W77739  30.011  26.477   2.765
 7140W        W77740  21.586   3.869  13.855
 7141W        W77741  25.796  14.467  13.141
 7142W        W77742  29.526  41.295   4.954
 7143W        W77743  41.805  25.249  11.137
 7144W        W77744  26.043  24.988   2.819
 7145W        W77745   4.256  27.031   4.259
 7146W        W77746   1.988  24.963   1.425
 7147W        W77747  27.220  34.444  11.231
 7148W        W77748  41.731  42.377  14.855
 7149W        W77749  14.124  25.161   1.699
 7150W        W77750  19.108  40.502   3.340
 7151W        W77751  43.794  35.886  12.798
 7152W        W77752  36.537  27.743   0.019
 7153W        W77753  28.853  29.843  14.737
 7154W        W77754   3.598  36.747   1.129
 7155W        W77755  35.373  18.046   2.888
 7156W        W77756  35.631  33.550   0.450
 7157W        W77757  38.863  31.598  13.328
 7158W        W77758  39.339  15.669   3.448
 7159W        W77759  22.890  34.889   3.089
 7160W        W77760  17.228  33.765  12.024
 7161W        W77761   0.885  36.170   3.674
 7162W        W77762   5.162  15.775  12.051
 7163W        W77763   3.391   2.934  10.691
 7164W        W77764  18.896  25.488   1.199
 7165W        W77765  36.448   3.267   4.306
 7166W        W77766  28.138  44.479  10.912
 7167W        W77767  11.448  30.462  13.833
 7168W        W77768  18.790  19.271  11.101
 7169W        W77769   2.747  43.775   1.856
 7170W        W77770  19.988  23.727   3.135
 7171W        W77771  31.117  33.872  13.945
 7172W        W77772   7.443  10.388  10.818
 7173W        W77773  26.512   6.238  12.796
 7174W        W77774  21.588   5.542  14.486
 7175W        W77775  38.049  28.948   1.521
 7176W        W77776  30.439   0.273  10.647
 7177W        W77777   3.259  33.913   4.189
 7178W        W77778  13.844   8.739   3.555
 7179W        W77779  10.691  21.490   2.373
 7180W        W77780  20.717  14.137   4.487
 7181W        W77781  12.129   7.531  14.378
 7182W        W77782   8.906  29.320   2.709
 7183W        W77783  28.663  18.189   0.464
 7184W        W77784   7.907   4.359  14.244
 7185W        W77785  44.846   8.851  14.762
 7186W        W77786  10.017   6.239  10.632
 7187W        W77787  11.789  25.284  14.966
 7188W        W77788  31.401  10.091   0.061
 7189W        W77789  33.624   2.746   0.397
 7190W        W77790  36.912   5.922  10.948
 7191W        W77791  35.664  10.804  13.955
 7192W        W77792  22.040  38.999   0.711
 7193W        W77793  16.645   5.450  12.400
 7194W        W77794   3.404  23.222   1.834
 7195W        W77795  26.961  30.204  14.864
 7196W        W77796  23.108   4.767   4.175
 7197W        W77797  43.392  24.161  11.941
 7198W        W77798  15.610  24.948   2.264
 7199W        W77799  44.485  25.519   2.308
 7200W        W77800  30.537  43.356  14.233
 7201W        W77801  43.571  27.448  11.920
 7202W        W77802  37.532  26.373   1.633
 7203W        W77803  13.063  27.537   1.854
 7204W        W77804  15.847  25.640   1.267
 7205W        W77805  35.472   6.005   1.637
 7206W        W77806  26.859  25.251   3.823
 7207W        W77807  37.861  13.746   2.315
 7208W        W77808   7.886  36.633  10.730
 7209W        W77809  33.968  35.062   2.223
 7210W        W77810   2.226  30.905   2.816
 7211W        W77811  16.513  40.987   4.186
 7212W        W77812  38.049   1.584  12.642
 7213W        W77813  11.064  32.628   0.308
 7214W        W77814  27.960   6.502   0.367
 7215W        W77815  19.574  11.953   1.238
 7216W        W77816  38.109  44.430   1.297
 7217W        W77817  25.696   5.228  11.615
 7218W        W77818  21.748  40.839   1.620
 7219W        W77819  34.931  28.879  11.610
 7220W        W77820  29.274  17.629  13.312
 7221W        W77821  36.678  41.277   0.423
 7222W        W77822   6.277  38.358  14.090
 7223W        W77823  35.392   2.289   4.698
 7224W        W77824   9.093  32.125   4.768
 7225W        W77825  32.079   7.771  12.993
 7226W        W77826  13.733  13.390   2.185
 7227W        W77827   4.799   7.723   3.239
 7228W        W77828   5.385  32.550  12.471
 7229W        W77829  17.691  44.487   0.222
 7230W        W77830   7.476  42.998  11.246
 7231W        W77831  32.100  18.063   4.547
 7232W        W77832  40.799  40.791  13.946
 7233W        W77833  20.799  38.650  13.003
 7234W        W77834  15.872  18.184   1.225
 7235W        W77835  25.510  39.510   2.496
 7236W        W77836   4.414  37.726   2.847
 7237W        W77837  31.952   4.803   3.257
 7238W        W77838  44.843  31.189  11.302
 7239W        W77839  27.478  20.696  14.810
 7240W        W77840   7.667  26.077   1.831
 7241W        W77841   8.949  20.189   3.057
 7242W        W77842  33.814  31.521  12.337
 7243W        W77843   6.490  39.957   1.853
 7244W        W77844  40.337  32.972  11.032
 7245W        W77845   9.802  35.053  10.432
 7246W        W77846  25.548  21.658  11.805
 7247W        W77847  38.070  27.741  12.012
 7248W        W77848  26.726  38.455  13.919
 7249W        W77849  17.471  35.575   0.814
 7250W        W77850   7.257  16.702  10.864
 7251W        W77851  12.544  36.021  11.016
 7252W        W77852   8.828   4.479  13.853
 7253W        W77853   2.026  18.359  14.816
 7254W        W77854  13.083   6.398  14.984
 7255W        W77855   4.020   0.821  14.057
 7256W        W77856  30.086  37.775   0.261
 7257W        W77857   1.700   6.889  13.346
 7258W        W77858  24.406  31.318  12.083
 7259W        W77859  41.487  39.575   0.015
 7260W        W77860  42.777  28.143  14.311
 7261W        W77861  26.096   4.625   4.146
 7262W        W77862  19.807  26.552   0.839
 7263W        W77863  14.110  11.560   3.792
 7264W        W77864  15.398  31.053  12.413
 7265W        W77865  22.225  17.248  10.496
 7266W        W77866  31.930  35.660   0.862
 7267W        W77867  32.074  14.924   1.505
 7268W        W77868   8.291  19.030   4.629
 7269W        W77869  22.753  37.070   2.825
 7270W        W77870  11.533  16.487  11.654
 7271W        W77871  28.638  12.751  11.156
 7272W        W77872  15.620  44.395   3.653
 7273W        W77873  18.998  10.069  11.334
 7274W        W77874  33.089   3.382   3.619
 7275W        W77875  10.282   5.804   1.636
 7276W        W77876   3.337  29.743  12.467
 7277W        W77877  23.779  37.333  14.668
 7278W        W77878   7.936  42.846   5.007
 7279W        W77879  30.105   3.744   2.913
 7280W        W77880  25.546  30.515   0.894
 7281W        W77881  29.642   9.149   4.652
 7282W        W77882  43.202   2.252  11.865
 7283W        W77883  27.846  37.008   0.279
 7284W        W77884  43.836  19.197  11.198
 7285W        W77885  14.523  38.957  10.584
 7286W        W77886  21.935  32.337   1.697
 7287W        W77887  27.135  21.914   4.787
 7288W        W77888   2.339   2.968  13.312
 7289W        W77889  33.127  15.346  12.966
 7290W        W77890  35.009   9.494  14.843
 7291W        W77891   3.826   4.736   0.721
 7292W        W77892  28.447  18.161  10.703
 7293W        W77893  37.741   0.217   4.581
 7294W        W77894   2.341  32.476   0.488
 7295W        W77895   7.814  13.621  13.422
 7296W        W77896   7.501  17.195  10.525
 7297W        W77897  11.617  29.071   3.172
 7298W        W77898  11.183  28.016   2.380
 7299W        W77899   6.377  14.008  13.838
 7300W        W77900  42.272  16.753  10.737
 7301W        W77901  17.050  35.447   5.320
 7302W        W77902   3.642   5.687  10.995
 7303W        W77903  18.059   0.865   3.141
 7304W        W77904  18.800  22.663  11.348
 7305W        W77905  19.451  35.428  13.545
 7306W        W77906  19.716  35.135   1.763
 7307W        W77907  42.422  43.737   1.639
 7308W        W77908  43.864  19.922   4.968
 7309W        W77909  32.126   3.220  13.346
 7310W        W77910   4.672   2.829  13.118
 7311W        W77911  37.176  42.256   3.167
 7312W        W77912  17.499  19.812   2.263
 7313W        W77913  43.741  12.212   1.218
 7314W        W77914  13.833  35.676  13.941
 7315W        W77915   9.373  29.779  12.276
 7316W        W77916  25.732  13.416   4.547
 7317W        W77917  10.859  43.101   1.651
 7318W        W77918  26.164  21.105   4.634
 7319W        W77919  18.295  38.975  10.678
 7320W        W77920  11.088  22.363  11.543
 7321W        W77921  32.536   0.753   4.350
 7322W        W77922  16.215  38.391   0.789
 7323W        W77923  41.754  20.785  11.442
 7324W        W77924  25.124  37.826   1.113
 7325W        W77925  19.598  28.242   5.227
 7326W        W77926  30.459  28.066   1.312
 7327W        W77927   7.270  12.415   4.711
 7328W        W77928  40.011   7.733   3.793
 7329W        W77929  22.699  12.140   2.749
 7330W        W77930  30.476   5.169  10.696
 7331W        W77931  36.646  36.001  14.033
 7332W        W77932  32.957  38.598   1.797
 7333W        W77933  18.161  11.199  14.821
 7334W        W77934  28.145  14.812  11.601
 7335W        W77935  42.484   8.350  12.620
 7336W        W77936  14.210  36.491  11.675
 7337W        W77937  17.330  23.063   1.306
 7338W        W77938  24.406   6.230   3.349
 7339W        W77939  33.701  13.779  14.582
 7340W        W77940  12.746  25.014  14.479
 7341W        W77941  33.607  36.504  12.153
 7342W        W77942   1.714  44.347  14.083
 7343W        W77943   5.759  32.048  13.882
 7344W        W77944  35.297  21.563  12.475
 7345W        W77945   2.804  32.075  10.638
 7346W        W77946  33.058   6.496   0.356
 7347W        W77947  36.415  23.019  12.368
 7348W        W77948  38.884   2.809  12.011
 7349W        W77949  26.537  15.811   0.972
 7350W        W77950  26.076  12.035  12.454
 7351W        W77951  43.315   2.397  12.348
 7352W        W77952   7.311  14.626  11.262
 7353W        W77953  44.965   7.218   3.364
 7354W        W77954  23.376  27.583   0.417
 7355W        W77955  26.699  36.989  13.310
 7356W        W77956  10.127  21.205   1.328
 7357W        W77957   1.724   6.667   0.658
 7358W        W77958   5.547  38.112  12.755
 7359W        W77959  25.435  14.354  11.814
 7360W        W77960   3.890  16.652   3.574
 7361W        W77961  32.158  31.250  11.377
 7362W        W77962   3.804  36.915  13.765
 7363W        W77963  12.647  14.627   1.722
 7364W        W77964  29.967  10.603   1.402
 7365W        W77965  16.322  42.525   2.926
 7366W        W77966   8.399  17.970  11.092
 7367W        W77967  31.013  44.066   0.675
 7368W        W77968  32.009   0.616  13.010
 7369W        W77969  12.815  27.887   0.069
 7370W        W77970  10.646   7.286  10.737
 7371W        W77971  15.145   6.655   0.949
 7372W        W77972  20.767  16.119   2.377
 7373W        W77973  31.402  12.139   2.279
 7374W        W77974  36.561  13.682   4.183
 7375W        W77975  26.197  41.468  14.352
 7376W        W77976  44.000  43.477  10.662
 7377W        W77977  23.902   5.577   4.719
 7378W        W77978  25.812  20.986  13.533
 7379W        W77979  42.592  27.576  13.110
 7380W        W77980  13.529  42.023  14.582
 7381W        W77981  30.897   2.331  11.090
 7382W        W77982  33.125  16.667  12.910
 7383W        W77983  42.666  21.938   3.683
 7384W        W77984   8.204  13.260  13.054
 7385W        W77985  14.562  11.030  12.021
 7386W        W77986  22.975  25.659  14.826
 7387W        W77987  25.638   6.823  13.969
 7388W        W77988   6.455  11.934   0.477
 7389W        W77989   4.953  43.195   4.616
 7390W        W77990  16.566   8.233  11.505
 7391W        W77991  20.298  17.105   0.292
 7392W        W77992  30.996   5.292   1.185
 7393W        W77993  16.186  17.001   0.638
 7394W        W77994  38.546   0.315  11.887
 7395W        W77995  42.200  27.117   2.940
 7396W        W77996   4.765  15.054   0.291
 7397W        W77997   4.907  18.717  11.225
 7398W        W77998   6.624  43.233  12.938
 7399W        W77999  40.224   3.424  14.813
 7400W        W78000  27.562   1.933  12.584
 7401W        W78001  21.555  33.035   1.311
 7402W        W78002   4.464  39.123   1.450
 7403W        W78003  29.545  39.456  14.751
 7404W        W78004  14.065  31.754  14.483
 7405W        W78005  41.102  44.547  14.760
 7406W        W78006  32.295  21.609  12.022
 7407W        W78007  33.897  40.723  11.659
 7408W        W78008   5.488  44.371   2.772
 7409W        W78009   2.752  29.162  13.958
 7410W        W78010  11.326   2.394   4.312
 7411W        W78011  30.489   0.990  11.832
 7412W        W78012  36.624   0.019  11.328
 7413W        W78013   8.247  37.862   4.038
 7414W        W78014  44.019  38.496  12.519
 7415W        W78015  31.445  37.616   1.897
 7416W        W78016  33.204  43.486   4.601
 7417W        W78017   3.831  37.151  10.255
 7418W        W78018  19.615  11.720  12.034
 7419W        W78019   4.785  15.207   4.474
 7420W        W78020  19.622  18.897   3.208
 7421W        W78021  44.387  22.487   0.812
 7422W        W78022  38.151  39.252   3.212
 7423W        W78023  26.448  11.691  12.980
 7424W        W78024  23.198  12.642   0.234
 7425W        W78025  41.931  10.449   0.958
 7426W        W78026  25.946   2.402   4.844
 7427W        W78027  44.206  15.784   1.898
 7428W        W78028  22.425  29.475   2.292
 7429W        W78029  14.746  27.384   1.239
 7430W        W78030  41.773  11.279   1.259
 7431W        W78031  14.354  16.596  11.128
 7432W        W78032  43.733   1.627   4.515
 7433W        W78033  14.248   1.956   2.202
 7434W        W78034   6.233  33.909   4.657
 7435W        W78035  35.433  34.379  10.631
 7436W        W78036  36.965  28.655  14.877
 7437W        W78037  28.801   7.949  11.426
 7438W        W78038  13.677  34.702  14.151
 7439W        W78039  36.955  34.582  13.907
 7440W        W78040  12.692  10.215  14.439
 7441W        W78041   7.341  41.114   2.343
 7442W        W78042  36.395  15.136  12.033
 7443W        W78043   3.547  13.790   4.611
 7444W        W78044  13.148  37.349   0.421
 7445W        W78045   2.260  12.111  14.798
 7446W        W78046  25.945  23.223   0.033
 7447W        W78047  20.624   2.553   1.846
 7448W        W78048  16.458  21.003  12.415
 7449W        W78049  34.174  34.532  11.050
 7450W        W78050   2.389  25.218   3.334
 7451W        W78051  34.954  22.182   2.475
 7452W        W78052   6.172  33.868  14.673
 7453W        W78053  32.965  35.374  14.128
 7454W        W78054  37.776  25.423  13.590
 7455W        W78055  10.128  20.696   3.338
 7456W        W78056   3.174  16.114  12.972
 7457W        W78057  16.339  11.318   1.887
 7458W        W78058   3.820  27.084   0.293
 7459W        W78059  20.120  26.095   4.219
 7460W        W78060  28.214  28.109  10.277
 7461W        W78061  14.847   5.273  12.924
 7462W        W78062  27.684   7.209  11.099
 7463W        W78063  17.306  36.386   0.416
 7464W        W78064  19.294  42.245  11.876
 7465W        W78065  39.996   3.670  11.553
 7466W        W78066  36.054  33.677   0.740
 7467W        W78067  41.324  29.492  10.716
 7468W        W78068  26.283  14.190  10.234
 7469W        W78069  39.502  44.344  14.761
 7470W        W78070  24.741   4.951   0.027
 7471W        W78071  26.229  21.204  12.872
 7472W        W78072  10.162   5.126   3.331
 7473W        W78073   2.682  10.848   0.118
 7474W        W78074  28.542   2.358   3.608
 7475W        W78075  23.588   0.327   0.009
 7476W        W78076  27.261  39.971  14.988
 7477W        W78077   1.405  31.765  12.301
 7478W        W78078  25.687   8.210   0.037
 7479W        W78079  43.336  41.380   2.220
 7480W        W78080  33.351  30.724   3.079
 7481W        W78081   7.635  39.985   0.527
 7482W        W78082   8.656   6.854   4.190
 7483W        W78083  11.747  28.167   9.908
 7484W        W78084   0.774  14.407   2.662
 7485W        W78085  30.420  21.985  14.465
 7486W        W78086  24.896   8.662  12.580
 7487W        W78087  21.357  24.982  11.124
 7488W        W78088  43.415   9.611   0.979
 7489W        W78089  26.911  33.142   1.204
 7490W        W78090  32.363  33.557  13.482
 7491W        W78091   8.867  38.818  12.400
 7492W        W78092  22.501  41.843  14.290
 7493W        W78093  38.304  29.172  14.928
 7494W        W78094  18.937   5.870   3.259
 7495W        W78095   0.775  20.538  13.533
 7496W        W78096   3.242  34.852   1.488
 7497W        W78097  29.591  29.859  12.504
 7498W        W78098  33.472   1.718  12.477
 7499W        W78099  43.527  40.207   3.551
 7500W        W78100  13.594  39.034  10.740
 7501W        W78101  12.657  40.937   1.596
 7502W        W78102  31.343  24.942   2.244
 7503W        W78103  28.633  26.691   4.674
 7504W        W78104   9.505  43.955   3.704
 7505W        W78105   5.624  18.790   3.756
 7506W        W78106   0.343  20.708  11.452
 7507W        W78107  17.517  21.005  12.488
 7508W        W78108   9.087  20.643   3.278
 7509W        W78109  18.180  17.239   0.491
 7510W        W78110  19.299   8.545   4.180
 7511W        W78111  32.708  36.927   2.635
 7512W        W78112  13.800  12.082  10.703
 7513W        W78113  14.546   9.371   3.777
 7514W        W78114   5.744   8.796   3.574
 7515W        W78115  10.944  41.960   3.515
 7516W        W78116  23.915  26.044   1.311
 7517W        W78117  23.516  12.260  11.456
 7518W        W78118  40.028  29.112   1.164
 7519W        W78119   5.155   1.236  11.233
 7520W        W78120   7.684  13.785   2.742
 7521W        W78121   7.274  38.539   2.316
 7522W        W78122   9.799  23.448   3.335
 7523W        W78123  17.260   1.474  12.133
 7524W        W78124  21.040  27.253   3.249
 7525W        W78125   2.467  29.042  13.558
 7526W        W78126   3.417  38.151  11.567
 7527W        W78127  33.458  28.658  14.819
 7528W        W78128   9.170  28.667   3.036
 7529W        W78129  21.265  16.771  12.064
 7530W        W78130  31.012   3.138   3.122
 7531W        W78131   9.508  27.493  12.614
 7532W        W78132  25.197  10.577   3.865
 7533W        W78133  18.909  34.983   0.474
 7534W        W78134  33.434  28.636   3.322
 7535W        W78135  15.583  14.230  14.318
 7536W        W78136  44.832  17.620  12.932
 7537W        W78137   0.009  16.560   3.197
 7538W        W78138  25.204  18.575  10.940
 7539W        W78139  40.849  12.729  11.195
 7540W        W78140  39.555  26.013   3.615
 7541W        W78141  34.671   2.474  14.953
 7542W        W78142  26.740  25.673   0.389
 7543W        W78143  32.523  44.507  10.775
 7544W        W78144  40.061   0.409  11.078
 7545W        W78145  26.268  20.450   1.072
 7546W        W78146  31.640  24.154   3.717
 7547W        W78147  22.996  26.257   3.644
 7548W        W78148   7.326  40.324  10.606
 7549W        W78149  40.549  22.960   3.290
 7550W        W78150  11.350  11.278   4.686
 7551W        W78151  32.494  38.556  13.459
 7552W        W78152  23.307  18.055   3.345
 7553W        W78153  38.622   9.275  10.559
 7554W        W78154   0.888  10.604   3.774
 7555W        W78155   9.363  21.000  11.665
 7556W        W78156  35.671  18.300  10.950
 7557W        W78157   5.338   0.980   1.925
 7558W        W78158  28.018  14.495   4.196
 7559W        W78159   9.420  15.784  13.996
 7560W        W78160  42.016  37.647  12.122
 7561W        W78161  16.582  34.072   3.703
 7562W        W78162  38.534  44.950   3.626
 7563W        W78163  10.727  24.495   2.044
 7564W        W78164  28.077  26.444  14.323
 7565W        W78165  17.810  15.761  11.382
 7566W        W78166   5.174  26.658   2.883
 7567W        W78167  30.877  18.516  11.128
 7568W        W78168  25.989  10.001   2.764
 7569W        W78169  40.799  25.060   3.119
 7570W        W78170  44.396  19.765  12.841
 7571W        W78171  10.024  12.188   3.611
 7572W        W78172  39.287  44.329  10.482
 7573W        W78173   4.243  15.329   0.053
 7574W        W78174  27.282  37.546   9.869
 7575W        W78175  10.431  28.227  14.587
 7576W        W78176  41.555  23.078   3.297
 7577W        W78177   2.343  26.942   1.840
 7578W        W78178   0.967  16.040   0.821
 7579W        W78179   1.905  30.364   1.249
 7580W        W78180  29.982  24.048   1.387
 7581W        W78181  18.044  13.818  11.122
 7582W        W78182  25.437  26.746  13.859
 7583W        W78183  34.503  17.054   0.766
 7584W        W78184  16.871  11.224  12.948
 7585W        W78185  15.400   3.023  12.491
 7586W        W78186  15.289  33.354   4.534
 7587W        W78187  44.052  15.128  11.639
 7588W        W78188   6.472  16.733  13.417
 7589W        W78189  14.373  17.097  14.167
 7590W        W78190  44.745  32.964   2.232
 7591W        W78191  41.489  22.038  11.598
 7592W        W78192  11.143   7.278  12.899
 7593W        W78193  23.213  39.614   1.984
 7594W        W78194  23.575   4.630   1.773
 7595W        W78195   3.213  36.362  10.837
 7596W        W78196  42.989   4.709  11.315
 7597W        W78197  11.762  39.054   0.866
 7598W        W78198  36.986  33.583  14.890
 7599W        W78199  17.032  31.637  11.881
 7600W        W78200  34.976  43.635   4.073
 7601W        W78201   1.920  17.099  10.704
 7602W        W78202  40.998  28.375  14.872
 7603W        W78203   3.023  12.154  12.480
 7604W        W78204  42.463  32.656  11.044
 7605W        W78205   1.385   9.854   4.133
 7606W        W78206  20.729  38.597   1.436
 7607W        W78207   3.385  16.624  13.997
 7608W        W78208  20.720  24.008   1.906
 7609W        W78209  19.334  13.265  12.446
 7610W        W78210  39.539  37.804  12.421
 7611W        W78211  30.544   1.291   0.778
 7612W        W78212  40.919  21.219  12.455
 7613W        W78213  33.135   1.232  12.494
 7614W        W78214  13.063  34.871   4.093
 7615W        W78215  22.698  21.624  10.595
 7616W        W78216  20.661  28.543  11.950
 7617W        W78217  22.707   3.873   0.266
 7618W        W78218  10.060  21.033  13.195
 7619W        W78219   8.905  21.130  14.969
 7620W        W78220  41.266   1.738   2.857
 7621W        W78221  15.323   1.488   1.369
 7622W        W78222  28.011  42.070   0.296
 7623W        W78223  21.297  42.493  14.437
 7624W        W78224  15.309  33.168   2.427
 7625W        W78225  43.016  31.669  11.755
 7626W        W78226  22.900   2.265  12.061
 7627W        W78227  42.516  28.662   3.302
 7628W        W78228  14.061  33.777   4.198
 7629W        W78229   8.313   8.876   3.090
 7630W        W78230   1.505  13.433  13.576
 7631W        W78231  29.554   3.236   3.274
 7632W        W78232  42.241  26.022   2.189
 7633W        W78233  26.714  44.751  11.428
 7634W        W78234  27.071  17.108  11.580
 7635W        W78235  14.858   8.748  13.565
 7636W        W78236   5.744  23.654  13.974
 7637W        W78237  22.257  38.380  14.881
 7638W        W78238  17.862  19.468   2.713
 7639W        W78239   2.449  28.230  13.923
 7640W        W78240  34.982  43.852   4.537
 7641W        W78241  37.998   5.402  12.619
 7642W        W78242  27.099  37.411  14.952
 7643W        W78243  32.395  10.709  13.107
 7644W        W78244  28.184   2.292   0.930
 7645W        W78245  26.029  27.447  13.770
 7646W        W78246  37.896  19.052  11.937
 7647W        W78247  34.536  23.649  13.889
 7648W        W78248  12.673  10.659   4.446
 7649W        W78249  37.100  28.141   0.875
 7650W        W78250  41.018  10.819   4.137
 7651W        W78251  42.498  28.123   3.249
 7652W        W78252  11.498  19.538   0.316
 7653W        W78253  19.633   6.841  14.877
 7654W        W78254  18.394  18.175  12.978
 7655W        W78255  34.921  33.590  12.575
 7656W        W78256  38.389  19.840   3.641
 7657W        W78257  18.597  30.491  13.891
 7658W        W78258  29.347  10.325  12.948
 7659W        W78259  35.103  13.852   2.793
 7660W        W78260   9.300   4.713  10.652
 7661W        W78261   1.523  35.823   0.823
 7662W        W78262  10.088   5.312   0.284
 7663W        W78263  17.008  34.143  13.018
 7664W        W78264  38.828  10.084  14.938
 7665W        W78265  32.719  26.530  11.106
 7666W        W78266  11.826  28.591   2.337
 7667W        W78267  28.998   1.769  11.565
 7668W        W78268  36.688  17.200  13.546
 7669W        W78269  29.487  25.379  13.135
 7670W        W78270  30.155  27.092   0.867
 7671W        W78271   2.865  12.107   2.840
 7672W        W78272  15.105  42.045  12.287
 7673W        W78273  25.535  13.816  11.948
 7674W        W78274   4.501  11.771   5.036
 7675W        W78275  29.561  26.978   3.572
 7676W        W78276   6.842  16.814   1.149
 7677W        W78277   7.616  29.150   0.905
 7678W        W78278  31.458   5.057   4.256
 7679W        W78279   0.617   6.788  12.533
 7680W        W78280  41.816   7.503   0.380
 7681W        W78281   7.262  21.183  13.395
 7682W        W78282  42.570   4.742   3.296
 7683W        W78283   0.627   6.294   4.667
 7684W        W78284  38.020  42.988  14.362
 7685W        W78285  37.444   8.117  12.399
 7686W        W78286  28.219  23.058  14.395
 7687W        W78287  31.547  41.758  14.452
 7688W        W78288  38.911  26.391   1.300
 7689W        W78289  27.106  43.465   0.218
 7690W        W78290  23.665  41.866  14.067
 7691W        W78291   2.214  26.504  11.898
 7692W        W78292  37.944  29.018  10.616
 7693W        W78293  28.699  11.288   4.086
 7694W        W78294  18.112  13.219   3.127
 7695W        W78295  18.723  24.291  13.551
 7696W        W78296  31.911   6.581   3.791
 7697W        W78297  30.917  18.162   2.792
 7698W        W78298   2.679  31.076   2.249
 7699W        W78299   1.973  32.211  11.015
 7700W        W78300  12.106  15.225  13.390
 7701W        W78301   1.314   0.931   3.360
 7702W        W78302  23.006  36.404   2.683
 7703W        W78303   5.211   2.267  14.969
 7704W        W78304  33.449  38.529   4.246
 7705W        W78305  28.652  17.179  11.722
 7706W        W78306  16.133   7.363   2.861
 7707W        W78307  31.783  13.214  10.345
 7708W        W78308  22.324  32.684   0.879
 7709W        W78309  24.129  40.417   3.366
 7710W        W78310  26.592  23.279  11.017
 7711W        W78311  31.645  32.656  13.948
 7712W        W78312   3.967  23.400  10.585
 7713W        W78313  30.912   0.896   3.257
 7714W        W78314  30.035  40.247  13.447
 7715W        W78315  21.652   2.484  12.431
 7716W        W78316   8.647  25.095   1.881
 7717W        W78317  40.713  29.862  11.079
 7718W        W78318  39.401  37.123  13.414
 7719W        W78319  22.326  36.606  13.519
 7720W        W78320  14.879   4.423  11.427
 7721W        W78321  16.601  16.495  10.563
 7722W        W78322  33.474   5.889   0.901
 7723W        W78323  35.345  10.903  11.058
 7724W        W78324  38.105  36.010  13.839
 7725W        W78325  22.611  32.578  14.489
 7726W        W78326  27.205  10.851  12.316
 7727W        W78327  25.615   2.473   2.012
 7728W        W78328  40.170  29.207  14.319
 7729W        W78329  29.076  43.860   1.880
 7730W        W78330  40.067  19.384  11.550
 7731W        W78331  29.634   9.669   0.332
 7732W        W78332  44.336  40.157   3.895
 7733W        W78333  27.710  19.784   4.145
 7734W        W78334  16.889  27.191  13.508
 7735W        W78335  16.840  38.539   0.818
 7736W        W78336  17.756  29.401   1.678
 7737W        W78337  43.550  20.521   3.601
 7738W        W78338  24.294  11.376  13.477
 7739W        W78339  11.787   6.833   4.666
 7740W        W78340   4.947  15.330  12.197
 7741W        W78341  21.479  42.047  12.939
 7742W        W78342  40.924  22.766   4.712
 7743W        W78343  34.276   2.957   3.359
 7744W        W78344  21.182  20.698   0.845
 7745W        W78345  21.042   0.623  11.646
 7746W        W78346  35.480  28.117  13.845
 7747W        W78347  43.901  28.666   3.690
 7748W        W78348  17.081  17.794  11.010
 7749W        W78349  22.050  37.259   0.878
 7750W        W78350  11.234   4.153   0.045
 7751W        W78351  31.943   5.298   2.201
 7752W        W78352  42.490  21.455   3.757
 7753W        W78353   8.342  20.140  13.972
 7754W        W78354  27.086  23.372   4.557
 7755W        W78355  11.482  16.225  12.897
 7756W        W78356  20.448  36.968  14.925
 7757W        W78357   4.032  34.200  14.096
 7758W        W78358  27.699  25.283   0.301
 7759W        W78359  32.029   7.748   2.958
 7760W        W78360   2.389  16.976   0.440
 7761W        W78361  28.103   4.978   1.637
 7762W        W78362  30.914  23.903   4.137
 7763W        W78363  43.260  25.217   1.729
 7764W        W78364  20.139  24.172   2.461
 7765W        W78365   3.861  38.853   1.670
 7766W        W78366  12.866  22.237   4.430
 7767W        W78367  29.753   1.869   5.053
 7768W        W78368  19.708  27.222   1.230
 7769W        W78369   4.246   8.739   0.027
 7770W        W78370   1.709  18.176  13.632
 7771W        W78371   1.699  38.077   3.718
 7772W        W78372  10.600  39.294   3.673
 7773W        W78373  29.920  23.162   1.927
 7774W        W78374  39.807  14.295   2.277
 7775W        W78375  17.221   4.898  13.897
 7776W        W78376  34.320  31.500  13.439
 7777W        W78377  20.173  28.371   2.617
 7778W        W78378  25.760  41.063  11.961
 7779W        W78379  18.008  24.619  14.255
 7780W        W78380  26.459  43.136  10.996
 7781W        W78381  43.438  31.982  14.106
 7782W        W78382  15.100  25.250   3.490
 7783W        W78383  41.513   3.986  13.033
 7784W        W78384  32.038  27.208   1.326
 7785W        W78385  17.609  28.400   3.300
 7786W        W78386  10.722  19.623  13.034
 7787W        W78387  22.812  31.910  11.522
 7788W        W78388  41.077   3.289   3.866
 7789W        W78389  11.355   5.431   4.601
 7790W        W78390  14.326  31.183   3.373
 7791W        W78391  44.045  16.118  12.523
 7792W        W78392  30.631  32.163  10.021
 7793W        W78393  36.376  36.915  13.652
 7794W        W78394   9.382  25.968  11.366
 7795W        W78395  38.830   7.205  11.205
 7796W        W78396  22.152   6.271  14.898
 7797W        W78397  12.676  42.743   0.090
 7798W        W78398  32.371  25.778  12.086
 7799W        W78399  31.067  22.122  12.894
 7800W        W78400  17.643  40.432   1.739
 7801W        W78401  25.478   8.187   2.722
 7802W        W78402   6.975  40.963  13.163
 7803W        W78403   4.883  41.794  11.414
 7804W        W78404  12.853  31.835  10.716
 7805W        W78405  23.153  27.302  13.375
 7806W        W78406  28.156  11.431  13.941
 7807W        W78407  18.121  41.069  14.509
 7808W        W78408  39.904   4.970   1.820
 7809W        W78409  36.870   6.273  13.868
 7810W        W78410   9.591  29.387  14.368
 7811W        W78411  11.345   5.935   1.681
 7812W        W78412   5.682  20.441   0.555
 7813W        W78413  28.154  37.348   2.785
 7814W        W78414  21.663  24.045   3.293
 7815W        W78415  37.057  24.325  10.376
 7816W        W78416  11.251  15.019   1.862
 7817W        W78417  21.826  44.478   2.742
 7818W        W78418  16.731  37.802  11.980
 7819W        W78419  19.205  19.698   3.325
 7820W        W78420  10.241  20.596   1.825
 7821W        W78421  16.286   3.430  11.593
 7822W        W78422  44.239   9.024  14.090
 7823W        W78423   1.760  28.218   1.858
 7824W        W78424   5.317   3.140   0.733
 7825W        W78425  33.935   1.980  11.572
 7826W        W78426  22.372   0.738   2.397
 7827W        W78427   2.555  16.502   0.402
 7828W        W78428  31.925  39.355   3.884
 7829W        W78429  37.706   9.712  14.781
 7830W        W78430   4.370  31.172  10.430
 7831W        W78431   2.018  30.165   1.724
 7832W        W78432  19.722  30.800   4.228
 7833W        W78433  22.005  36.237  11.987
 7834W        W78434  21.202  16.640  11.132
 7835W        W78435  13.407   5.609  12.033
 7836W        W78436   2.308   8.310   4.722
 7837W        W78437  14.208  29.443   2.389
 7838W        W78438  24.563  35.906  10.753
 7839W        W78439  28.212  10.773  11.383
 7840W        W78440  21.667  39.515   4.950
 7841W        W78441  31.386  29.453   1.248
 7842W        W78442  13.170  34.991   4.600
 7843W        W78443  22.953  42.920  12.501
 7844W        W78444  24.111  20.758  14.076
 7845W        W78445  14.745  24.454   0.217
 7846W        W78446  28.961  24.053   2.902
 7847W        W78447   2.264  28.332  12.470
 7848W        W78448  43.519  27.764   2.458
 7849W        W78449  36.775  16.204  14.908
 7850W        W78450  21.296  13.523   2.252
 7851W        W78451  29.878  19.484   0.905
 7852W        W78452  32.517   3.963   4.449
 7853W        W78453  17.903  35.995   3.173
 7854W        W78454  24.632  34.353   0.457
 7855W        W78455  33.419  23.839   1.380
 7856W        W78456  42.662  40.135   2.250
 7857W        W78457  41.159   2.223   2.795
 7858W        W78458  35.084  11.739  11.487
 7859W        W78459  23.544   0.143   1.361
 7860W        W78460   2.832  23.002   4.696
 7861W        W78461  29.026  28.486  11.887
 7862W        W78462  13.619  37.137   0.543
 7863W        W78463  27.301  18.747   2.286
 7864W        W78464  12.058  11.835   1.848
 7865W        W78465  26.979   3.787   2.407
 7866W        W78466  18.580  32.027  11.673
 7867W        W78467  12.657  36.693   0.610
 7868W        W78468  25.153   5.902  14.025
 7869W        W78469  21.718  35.839  10.633
 7870W        W78470  31.328  32.499   2.613
 7871W        W78471   5.172  13.634   0.482
 7872W        W78472   4.711  43.777  13.053
 7873W        W78473  30.373  11.979   4.070
 7874W        W78474  40.932  20.168   0.195
 7875W        W78475  11.359  40.555   0.323
 7876W        W78476  42.394  44.683   2.063
 7877W        W78477   4.859  16.509  14.773
 7878W        W78478  39.573  44.132   4.679
 7879W        W78479  33.103  17.584  10.532
 7880W        W78480  27.193  34.435   2.316
 7881W        W78481  39.238  10.816   2.428
 7882W        W78482  43.424   9.281  13.380
 7883W        W78483  35.713  12.163  14.453
 7884W        W78484   1.727  38.941   3.148
 7885W        W78485   7.644   1.466   3.243
 7886W        W78486   9.292  16.997   0.434
 7887W        W78487  21.028   1.014   1.841
 7888W        W78488  44.782  42.299  11.945
 7889W        W78489  15.016  13.203   3.757
 7890W        W78490  13.205  19.491   2.634
 7891W        W78491   7.797  29.185   5.326
 7892W        W78492  22.037  21.532  14.489
 7893W        W78493  32.838   6.384  11.083
 7894W        W78494  41.201   0.772   1.319
 7895W        W78495   0.200  21.216  11.485
 7896W        W78496  17.617  41.751  14.953
 7897W        W78497  18.310  38.360  11.820
 7898W        W78498   3.125  28.205   0.785
 7899W        W78499  43.270   0.873   0.389
 7900W        W78500  10.977  34.999   0.479
 7901W        W78501  30.923  28.637  11.476
 7902W        W78502  30.657  27.696   2.375
 7903W        W78503  39.396  37.850  11.897
 7904W        W78504  34.489  30.466  11.406
 7905W        W78505  10.192  41.611   3.806
 7906W        W78506  18.377  40.063  12.952
 7907W        W78507  37.945  38.183  13.435
 7908W        W78508   7.706  10.390  10.371
 7909W        W78509  37.124  30.573  14.335
 7910W        W78510  38.540  16.275  14.297
 7911W        W78511  28.119  22.616  14.121
 7912W        W78512  41.735   4.766   1.392
 7913W        W78513   1.798  26.152  12.023
 7914W        W78514  25.951  15.272  10.696
 7915W        W78515  18.964   1.995  14.926
 7916W        W78516  43.609  38.056   0.399
 7917W        W78517  23.519  15.089  13.851
 7918W        W78518  26.403  29.311  14.967
 7919W        W78519  34.917  34.474   2.470
 7920W        W78520   1.666   7.776   2.776
 7921W        W78521  27.968  12.318   2.754
 7922W        W78522  24.349  42.348   4.563
 7923W        W78523  33.154  11.830   3.162
 7924W        W78524  23.135  26.526   3.206
 7925W        W78525  17.677  30.893  13.905
 7926W        W78526  14.360  44.957  12.999
 7927W        W78527  33.009  42.630   1.234
 7928W        W78528  28.168  10.722  12.839
 7929W        W78529   0.843  28.991   4.583
 7930W        W78530   6.703  27.861   3.579
 7931W        W78531   6.041  14.624   1.843
 7932W        W78532  28.431  22.298  13.834
 7933W        W78533  30.569   8.142  12.104
 7934W        W78534   4.663  39.659  13.978
 7935W        W78535   0.971  19.101  13.984
 7936W        W78536  18.951  15.198  12.542
 7937W        W78537  14.360  24.710   3.336
 7938W        W78538  16.335  35.492  12.086
 7939W        W78539  42.701  29.178   4.675
 7940W        W78540   8.225  11.254  13.404
 7941W        W78541  33.013   8.721   3.307
 7942W        W78542  27.531  21.698  13.289
 7943W        W78543  10.227  22.567   2.289
 7944W        W78544  43.269  37.790   3.145
 7945W        W78545  36.840   0.219  12.516
 7946W        W78546  26.131  18.585   3.627
 7947W        W78547  27.443  26.029   4.530
 7948W        W78548  36.433  16.576   3.625
 7949W        W78549  40.024  29.045   0.652
 7950W        W78550   1.786   2.326   3.319
 7951W        W78551  12.899  17.139  12.093
 7952W        W78552   0.530  10.708  13.932
 7953W        W78553  26.139  18.165   3.315
 7954W        W78554  10.666  39.271   4.611
 7955W        W78555  40.319  32.437   3.212
 7956W        W78556  20.753   5.199   0.545
 7957W        W78557  33.646  29.491  12.544
 7958W        W78558  20.102  26.020   3.716
 7959W        W78559  11.159  33.849   0.272
 7960W        W78560  38.047  26.731   0.808
 7961W        W78561   8.625  44.982   4.680
 7962W        W78562   0.998  39.630   1.903
 7963W        W78563  33.945  26.508   3.149
 7964W        W78564  28.725  20.328   1.934
 7965W        W78565  44.840  29.430   1.434
 7966W        W78566  44.850  21.165  13.778
 7967W        W78567  13.236  34.917  12.889
 7968W        W78568   4.241  16.124   1.374
 7969W        W78569  19.843  35.502   1.400
 7970W        W78570  35.991  30.258   0.749
 7971W        W78571  31.558   0.369  13.035
 7972W        W78572   9.615  16.687  14.917
 7973W        W78573  31.826  26.727   1.331
 7974W        W78574  28.191   0.579   1.791
 7975W        W78575  33.783  25.225   4.552
 7976W        W78576  13.336   0.290  11.470
 7977W        W78577  35.066   6.336  11.584
 7978W        W78578   8.327   4.136   0.877
 7979W        W78579   4.330  26.550   2.167
 7980W        W78580  25.601  36.398   3.169
 7981W        W78581  13.666  29.172  14.414
 7982W        W78582  42.885  25.209   4.975
 7983W        W78583  24.639  12.020   0.115
 7984W        W78584  19.519  21.791  14.545
 7985W        W78585   9.374  41.014   4.615
 7986W        W78586  44.212  27.452   0.481
 7987W        W78587  10.231  18.345   0.848
 7988W        W78588  16.845   3.984   0.265
 7989W        W78589   2.784  31.416  11.178
 7990W        W78590  43.742  24.889  11.504
 7991W        W78591   6.791  34.720  13.933
 7992W        W78592  38.475  23.915  13.117
 7993W        W78593   4.143  33.744   3.828
 7994W        W78594   4.457  10.978  12.968
 7995W        W78595  13.634  40.836   4.959
 7996W        W78596  31.317  18.091  14.102
 7997W        W78597  39.566  30.062   2.788
 7998W        W78598   4.192  39.211   1.884
 7999W        W78599  28.122  16.151  10.651
 8000W        W78600  23.418  16.248  10.624
 8001W        W78601  38.956  32.650  13.849
 8002W        W78602  31.918  37.809  11.557
 8003W        W78603  24.387   1.882   0.157
 8004W        W78604  19.218  20.382  13.703
 8005W        W78605  24.013  12.815  11.205
 8006W        W78606  39.284   4.757   2.227
 8007W        W78607   2.921  42.878  12.412
 8008W        W78608  29.433  18.715   0.489
 8009W        W78609   5.788  39.556  12.415
 8010W        W78610  41.568  32.551  13.951
 8011W        W78611  34.831  39.250   0.151
 8012W        W78612  11.779   5.335  13.968
 8013W        W78613   4.662  36.935   0.762
 8014W        W78614  15.787  17.941  13.441
 8015W        W78615  34.040   1.211  11.772
 8016W        W78616   0.253  13.229   2.591
 8017W        W78617  15.138   0.602   0.872
 8018W        W78618  42.905  20.034  10.679
 8019W        W78619  19.189  42.384   0.633
 8020W        W78620  20.053  25.490   5.343
 8021W        W78621  30.107   0.123  13.984
 8022W        W78622  14.893  36.826  12.102
 8023W        W78623  17.005  11.603   0.340
 8024W        W78624  20.302  40.244  10.623
 8025W        W78625  28.164  14.528   4.707
 8026W        W78626  34.716   5.799   1.419
 8027W        W78627  34.225  22.120  11.905
 8028W        W78628  10.066  31.284  13.544
 8029W        W78629  39.581  26.388   3.188
 8030W        W78630  23.240   2.157  12.901
 8031W        W78631  25.491  13.861  10.602
 8032W        W78632  28.666   4.706   3.742
 8033W        W78633  16.533  25.138  14.977
 8034W        W78634  32.541  15.850   1.704
 8035W        W78635   4.203  22.068  10.663
 8036W        W78636   1.278  13.478   0.019
 8037W        W78637  44.519  23.249   1.500
 8038W        W78638  44.916  38.575   3.236
 8039W        W78639  14.788  38.817   2.601
 8040W        W78640  25.737  30.936  14.831
 8041W        W78641  32.686  28.752  11.977
 8042W        W78642   2.871  23.518  14.040
 8043W        W78643  30.849   1.704   2.006
 8044W        W78644  28.933   5.720  12.072
 8045W        W78645  11.417  24.772  11.171
 8046W        W78646  44.946   5.112  12.227
 8047W        W78647  32.996  32.517   0.927
 8048W        W78648  25.961  30.093   3.682
 8049W        W78649  18.786  23.277  12.548
 8050W        W78650  21.712  25.611   0.414
 8051W        W78651  41.676  40.515  13.811
 8052W        W78652  15.263   0.089   3.205
 8053W        W78653  16.630  29.448   3.684
 8054W        W78654   5.198  16.847  14.937
 8055W        W78655  20.985  17.147  13.039
 8056W        W78656  23.641  39.099  12.490
 8057W        W78657  12.481   7.722   2.401
 8058W        W78658  27.940  18.698   0.921
 8059W        W78659  19.850   4.001  13.749
 8060W        W78660  20.475   8.410   1.775
 8061W        W78661   3.563  34.069   4.572
 8062W        W78662  20.774  36.885   0.335
 8063W        W78663  20.680  36.813  11.894
 8064W        W78664  12.825   4.742   2.316
 8065W        W78665   3.678  13.846  13.967
 8066W        W78666  32.438  21.168   2.379
 8067W        W78667   2.167  14.696  11.212
 8068W        W78668  42.467  22.032  12.720
 8069W        W78669  31.969  15.566  10.369
 8070W        W78670  11.662  39.941   3.974
 8071W        W78671  14.890  25.986  11.292
 8072W        W78672  33.096  36.132  13.387
 8073W        W78673  41.106   0.084   4.682
 8074W        W78674  34.015   6.582   2.654
 8075W        W78675  13.835  17.939  13.411
 8076W        W78676   8.182  20.062  11.549
 8077W        W78677  26.191   8.393   0.912
 8078W        W78678  44.887  24.493   1.285
 8079W        W78679  41.737  21.573   1.614
 8080W        W78680  13.445  23.567   3.470
 8081W        W78681  20.578  29.438   2.346
 8082W        W78682   3.450  29.137   4.336
 8083W        W78683  28.168  21.068   0.771
 8084W        W78684   1.344  14.585  14.398
 8085W        W78685  44.372  19.265   2.193
 8086W        W78686   6.832  21.073   0.705
 8087W        W78687  11.687  33.886   0.417
 8088W        W78688   5.466   2.986   3.149
 8089W        W78689  40.019  27.513   1.213
 8090W        W78690  31.663  18.123   3.284
 8091W        W78691  34.033   2.899  12.282
 8092W        W78692  17.646  15.868   2.741
 8093W        W78693   6.343  43.772   4.132
 8094W        W78694   1.458   1.416   3.706
 8095W        W78695  29.144   3.806   3.751
 8096W        W78696  38.835  23.993  12.009
 8097W        W78697  42.266  41.815  11.399
 8098W        W78698  37.906  38.991   4.906
 8099W        W78699   0.962  21.636   1.714
 8100W        W78700  24.116   3.921   0.752
 8101W        W78701  28.889  41.599   2.599
 8102W        W78702  33.399  35.018  13.286
 8103W        W78703  35.602  32.900  11.681
 8104W        W78704  16.398  37.499   4.709
 8105W        W78705  37.470  31.452   3.419
 8106W        W78706  32.597  20.915   3.756
 8107W        W78707   8.774  25.516   1.204
 8108W        W78708  23.322  22.138  13.381
 8109W        W78709  13.343  40.019   2.331
 8110W        W78710   9.777  28.739   2.425
 8111W        W78711   0.475  26.425  10.054
 8112W        W78712  18.363  28.235   1.177
 8113W        W78713  34.669  43.445   0.317
 8114W        W78714  10.248  34.384   2.681
 8115W        W78715   1.947  32.616  13.419
 8116W        W78716  38.556  23.003  11.979
 8117W        W78717  16.180   8.826   4.414
 8118W        W78718  26.783  42.642   5.054
 8119W        W78719  39.590  19.072   2.357
 8120W        W78720   6.229  34.563  13.493
 8121W        W78721  14.846  17.780   2.395
 8122W        W78722  22.195  11.824  12.022
 8123W        W78723  18.682   7.735   4.315
 8124W        W78724  23.389  23.055   1.827
 8125W        W78725  27.133  41.062  14.413
 8126W        W78726  32.569  14.265   2.679
 8127W        W78727  29.771  13.746  11.679
 8128W        W78728  28.079  15.381   3.758
 8129W        W78729  27.849   2.402  11.228
 8130W        W78730   8.185  41.355   2.796
 8131W        W78731  13.062  14.394   4.320
 8132W        W78732  21.214  36.372  10.455
 8133W        W78733  13.915  44.451  11.065
 8134W        W78734  33.499   6.498   3.212
 8135W        W78735   4.325   6.019  14.443
 8136W        W78736  20.250   9.360  13.652
 8137W        W78737  15.018  27.957   0.329
 8138W        W78738  36.927   1.949   4.643
 8139W        W78739  23.235  23.937  13.303
 8140W        W78740  27.103  35.667  13.508
 8141W        W78741   0.480   8.412   2.208
 8142W        W78742  12.789  31.861  14.095
 8143W        W78743   8.457  40.194  12.482
 8144W        W78744  41.318  30.508  12.993
 8145W        W78745  36.832  26.205   4.473
 8146W        W78746  39.491  37.377  13.894
 8147W        W78747  19.513  26.260  11.900
 8148W        W78748   8.773  19.824  14.039
 8149W        W78749  30.949  33.841  12.408
 8150W        W78750  20.676   3.212  12.132
 8151W        W78751  12.181   2.332   3.752
 8152W        W78752  44.723  15.907  11.149
 8153W        W78753  38.430  43.805   2.131
 8154W        W78754  18.365  41.118  10.335
 8155W        W78755   5.771  35.122  14.395
 8156W        W78756  33.124  25.002  12.607
 8157W        W78757  35.098  29.338   2.384
 8158W        W78758   2.171   5.742  11.067
 8159W        W78759  15.075  30.988   1.804
 8160W        W78760  22.850   0.587   1.321
 8161W        W78761  29.893  10.720   3.605
 8162W        W78762   8.188   8.356  12.658
 8163W        W78763  37.987  39.426   4.587
 8164W        W78764  40.402  42.323  13.313
 8165W        W78765  38.959  17.952   4.929
 8166W        W78766  19.106  32.023  13.819
 8167W        W78767  15.078  28.203   1.271
 8168W        W78768  20.031  35.101  12.782
 8169W        W78769  12.751   4.888  14.425
 8170W        W78770  43.760  18.987   1.581
 8171W        W78771  25.016  43.020   3.168
 8172W        W78772  22.246  39.064   3.227
 8173W        W78773  42.819  26.064  11.932
 8174W        W78774  44.214   7.269   5.119
 8175W        W78775  23.515  27.031  11.559
 8176W        W78776  22.502  15.224   0.995
 8177W        W78777  41.026  36.384  13.815
 8178W        W78778  43.417  11.675   2.899
 8179W        W78779  17.087  44.040   4.074
 8180W        W78780  40.594  20.862   0.817
 8181W        W78781  24.688  15.100  13.102
 8182W        W78782  13.908  38.041   4.862
 8183W        W78783  13.126  44.564   2.072
 8184W        W78784  42.965  42.378   4.319
 8185W        W78785  15.789  35.153   0.506
 8186W        W78786  21.994  33.975   1.403
 8187W        W78787  38.483  17.757  12.199
 8188W        W78788  17.972  44.008  13.699
 8189W        W78789  17.771   6.403  14.570
 8190W        W78790  34.345  27.755  11.169
 8191W        W78791  44.141  23.053  10.977
 8192W        W78792   1.471  23.070  10.703
 8193W        W78793  19.133  26.147  12.792
 8194W        W78794  26.583   2.873   3.408
 8195W        W78795  17.782   2.274   3.141
 8196W        W78796  32.120  35.068   4.991
 8197W        W78797  27.760  39.836  12.408
 8198W        W78798  12.854  12.057  10.702
 8199W        W78799   6.695  34.230  11.943
 8200W        W78800  39.966  21.701   4.389
 8201W        W78801  13.197  11.594  12.520
 8202W        W78802   5.517  12.301  12.553
 8203W        W78803  42.403   9.222   0.546
 8204W        W78804  13.795  42.008  14.142
 8205W        W78805  12.901   6.740   1.953
 8206W        W78806  29.654  23.870  12.523
 8207W        W78807   2.299   9.493   0.812
 8208W        W78808  28.121  36.561  11.945
 8209W        W78809  19.155   2.274   4.518
 8210W        W78810  19.946  34.645  10.122
 8211W        W78811  43.486  20.275   0.832
 8212W        W78812  19.980   3.490   4.149
 8213W        W78813  38.852  37.747   5.236
 8214W        W78814  34.017  12.107  13.407
 8215W        W78815   3.858   9.706   0.747
 8216W        W78816  30.623  11.778  13.253
 8217W        W78817  42.639  18.564   4.164
 8218W        W78818  35.608   1.739  12.985
 8219W        W78819  23.687  19.490  10.908
 8220W        W78820  44.719   7.163  12.410
 8221W        W78821  34.055  42.405   2.228
 8222W        W78822  31.155  28.728   3.192
 8223W        W78823  26.482   8.769   4.483
 8224W        W78824  30.364  30.468   2.366
 8225W        W78825  13.335  31.304   1.135
 8226W        W78826  35.738  26.032   2.852
 8227W        W78827  42.484   7.768  13.117
 8228W        W78828  10.835  31.720  13.772
 8229W        W78829  44.563  33.155   4.370
 8230W        W78830  38.277   3.562  14.852
 8231W        W78831   0.386  28.799   5.142
 8232W        W78832  34.409  16.234   3.146
 8233W        W78833  22.831   1.732  12.098
 8234W        W78834  41.274   3.435   2.398
 8235W        W78835  39.613   9.882  13.359
 8236W        W78836  44.925  33.827  14.390
 8237W        W78837  24.038  37.096   2.214
 8238W        W78838   9.630  32.159  14.125
 8239W        W78839  12.287  18.064   2.656
 8240W        W78840  29.527  33.398  13.836
 8241W        W78841  35.886  35.091   2.359
 8242W        W78842  19.059  40.413   2.828
 8243W        W78843   5.034  22.584   5.119
 8244W        W78844  35.673  36.052  10.689
 8245W        W78845  40.051  24.739  12.707
 8246W        W78846   0.803  21.599   4.266
 8247W        W78847  15.667   4.993  11.063
 8248W        W78848  32.457   4.153  12.542
 8249W        W78849  12.436  16.915  13.477
 8250W        W78850   0.734  17.881  11.531
 8251W        W78851   4.654  13.122   4.669
 8252W        W78852  26.938   7.184  10.589
 8253W        W78853  11.865  44.397  13.261
 8254W        W78854   0.853  16.095   3.305
 8255W        W78855  24.085   1.460  11.031
 8256W        W78856  28.283  22.552   2.818
 8257W        W78857  22.572  32.467   0.383
 8258W        W78858  18.724  44.342   0.262
 8259W        W78859  31.174  42.265   1.752
 8260W        W78860  25.911  26.449  11.774
 8261W        W78861  32.446   3.506   0.971
 8262W        W78862  20.016  16.686  13.918
 8263W        W78863  23.763   5.284  14.175
 8264W        W78864  34.877  35.888   4.793
 8265W        W78865  34.414   2.582   2.749
 8266W        W78866  13.034  33.965   3.251
 8267W        W78867   9.199  39.339   2.844
 8268W        W78868   4.321  28.235   2.793
 8269W        W78869  27.407  40.097  11.547
 8270W        W78870  14.283  33.792  11.561
 8271W        W78871  33.237  16.250  10.766
 8272W        W78872   4.389   1.282   5.134
 8273W        W78873  35.350  22.526   2.763
 8274W        W78874  12.298   6.416   0.268
 8275W        W78875  42.521  39.773  13.581
 8276W        W78876   7.160  33.102   1.265
 8277W        W78877  11.428   8.391   2.186
 8278W        W78878  15.491  15.329   1.866
 8279W        W78879  19.346   0.803  14.475
 8280W        W78880  11.270  27.058   3.622
 8281W        W78881  37.559  43.768  11.633
 8282W        W78882   6.921  25.939   4.242
 8283W        W78883   6.521   5.131   1.385
 8284W        W78884  42.863   3.901  13.565
 8285W        W78885  21.403  19.149  12.571
 8286W        W78886   8.918  38.612  10.391
 8287W        W78887  41.228  25.962   1.600
 8288W        W78888  17.143  25.490   9.729
 8289W        W78889   0.026   2.546  12.054
 8290W        W78890  25.264  10.917  12.845
 8291W        W78891   7.156   4.403  11.629
 8292W        W78892  36.280  35.030  11.956
 8293W        W78893  27.147   9.619  11.555
 8294W        W78894  12.993  33.748  13.384
 8295W        W78895  24.597   9.122   2.322
 8296W        W78896   4.365  26.013  11.692
 8297W        W78897  31.840  36.334  13.146
 8298W        W78898  18.213  23.716   5.020
 8299W        W78899   8.601  36.325   0.199
 8300W        W78900  30.065  25.007   1.312
 8301W        W78901  30.408   6.757   3.289
 8302W        W78902   5.866  23.719   3.075
 8303W        W78903   1.769  25.752  11.640
 8304W        W78904  37.964  36.420   0.416
 8305W        W78905  13.821   5.894   3.288
 8306W        W78906  29.465  20.778   4.214
 8307W        W78907  14.553  39.439  11.487
 8308W        W78908  32.100  14.101  10.637
 8309W        W78909  40.100  31.978  12.534
 8310W        W78910   4.816  15.291   2.437
 8311W        W78911  23.416   3.356   2.305
 8312W        W78912  10.546  22.003   1.676
 8313W        W78913  20.697  16.692  10.919
 8314W        W78914  18.007  21.605  13.185
 8315W        W78915  24.589  42.521  10.709
 8316W        W78916  36.946  39.432   2.476
 8317W        W78917   0.490  17.328   3.253
 8318W        W78918  16.593  29.916  13.824
 8319W        W78919  30.417  33.113   0.478
 8320W        W78920  20.579  21.765  12.214
 8321W        W78921  28.465  19.476   0.330
 8322W        W78922  19.717  21.714  11.668
 8323W        W78923  18.505  10.738  11.734
 8324W        W78924  43.820  21.581  14.979
 8325W        W78925   8.644  29.136   0.003
 8326W        W78926  31.449  30.662  10.434
 8327W        W78927  13.354   3.423  13.868
 8328W        W78928  10.487  11.185   4.475
 8329W        W78929  17.565   9.771   1.299
 8330W        W78930  27.218   7.924  13.241
 8331W        W78931  34.488  21.487   2.751
 8332W        W78932  31.531  44.540  14.889
 8333W        W78933   7.604  30.496  14.678
 8334W        W78934   5.381  24.168   4.249
 8335W        W78935  17.533  33.457   1.718
 8336W        W78936  25.194   2.914  14.950
 8337W        W78937   6.383   5.306  13.877
 8338W        W78938   8.291  34.889  13.289
 8339W        W78939   6.336  13.166   1.322
 8340W        W78940  40.436  37.008  11.584
 8341W        W78941   3.943  27.566   3.253
 8342W        W78942  36.694  23.889   2.521
 8343W        W78943  23.040  12.798  12.802
 8344W        W78944  25.119   6.884  10.913
 8345W        W78945  20.754  19.249  10.612
 8346W        W78946   4.248   6.518   2.820
 8347W        W78947  35.591  23.027  14.916
 8348W        W78948  43.928  33.286  14.481
 8349W        W78949   5.800  28.459  10.496
 8350W        W78950   7.388  44.923  13.791
 8351W        W78951   5.026  11.955   1.624
 8352W        W78952  27.999  38.653   0.142
 8353W        W78953  24.046  27.940  12.010
 8354W        W78954  32.155   2.051   2.513
 8355W        W78955  43.537  38.313   1.242
 8356W        W78956  11.593  35.015   3.182
 8357W        W78957  35.295  27.024   0.825
 8358W        W78958   5.520  22.530  11.518
 8359W        W78959  26.118  20.958   1.198
 8360W        W78960   7.341  14.064   1.665
 8361W        W78961  31.850  28.534  11.784
 8362W        W78962  36.914  24.059  11.214
 8363W        W78963  43.735  33.795  14.413
 8364W        W78964  30.582  37.828  11.905
 8365W        W78965  34.006   3.777   2.299
 8366W        W78966   3.248  39.012   0.419
 8367W        W78967  16.046  15.273  12.396
 8368W        W78968  11.056   9.693   0.503
 8369W        W78969  26.878  22.029  10.266
 8370W        W78970  25.517  10.255   4.604
 8371W        W78971  36.441   2.871  14.056
 8372W        W78972  40.296  17.623  14.385
 8373W        W78973  18.101  20.165  11.357
 8374W        W78974  19.539   4.239  11.591
 8375W        W78975  23.777  20.809  12.070
 8376W        W78976   5.284  23.776  10.441
 8377W        W78977  21.359  35.577  11.560
 8378W        W78978  21.030  14.692  13.145
 8379W        W78979  30.967  33.456  14.848
 8380W        W78980  21.297  20.766  12.037
 8381W        W78981   3.266  33.005   0.461
 8382W        W78982  33.041  33.536  11.886
 8383W        W78983  10.737  16.270  10.594
 8384W        W78984  43.415  44.253   1.394
 8385W        W78985   8.451   0.092  13.933
 8386W        W78986  12.245  15.853   4.114
 8387W        W78987  14.362  10.381   3.315
 8388W        W78988  11.808  39.874   3.476
 8389W        W78989   2.844  16.039  14.315
 8390W        W78990  27.318  23.699   1.357
 8391W        W78991  35.041  26.737  14.329
 8392W        W78992  12.625  28.625   0.727
 8393W        W78993  15.268  15.393   3.182
 8394W        W78994  14.067  34.000   9.817
 8395W        W78995   3.154  21.065   2.571
 8396W        W78996  10.706  10.872  14.367
 8397W        W78997   7.378  36.390   0.795
 8398W        W78998  16.056  30.960  11.585
 8399W        W78999  15.061  35.555   5.018
 8400W        W79000  42.490   9.870  13.813
 8401W        W79001  11.044  31.005   1.038
 8402W        W79002  21.723  24.316   0.888
 8403W        W79003  29.105  21.368   1.367
 8404W        W79004   4.352  33.801   1.989
 8405W        W79005   9.608  13.275  11.223
 8406W        W79006  38.079  11.715  10.676
 8407W        W79007  42.239  20.727   1.864
 8408W        W79008   1.910  13.224  10.595
 8409W        W79009  37.210  11.455   2.776
 8410W        W79010  31.341   3.399  14.316
 8411W        W79011  41.554  35.969  13.334
 8412W        W79012  23.117  30.433   1.242
 8413W        W79013  27.954  28.333   4.243
 8414W        W79014   8.114  39.885   2.266
 8415W        W79015  13.573  10.527   2.338
 8416W        W79016  35.789  19.027   2.620
 8417W        W79017   3.336  13.757  14.374
 8418W        W79018  31.003  30.217   3.183
 8419W        W79019  10.832  27.351   2.287
 8420W        W79020  31.914  17.746   4.144
 8421W        W79021  21.080  20.546   4.070
 8422W        W79022   6.631  24.523   0.709
 8423W        W79023  30.651  31.912   1.191
 8424W        W79024  31.540  44.520  10.652
 8425W        W79025   3.696  38.182   0.272
 8426W        W79026  18.721  25.407  10.673
 8427W        W79027   4.686  16.425  13.885
 8428W        W79028  25.786  23.080  13.844
 8429W        W79029  13.919  28.710  14.472
 8430W        W79030  24.411   6.779  13.471
 8431W        W79031  24.958   0.092  14.945
 8432W        W79032  43.467  34.032  10.997
 8433W        W79033  41.223  38.117   4.607
 8434W        W79034  44.113  25.137   2.148
 8435W        W79035   1.006   5.344   4.317
 8436W        W79036  35.686   2.325   5.089
 8437W        W79037  10.802  26.031   1.235
 8438W        W79038  34.972   7.734  11.398
 8439W        W79039  17.972  13.907   4.186
 8440W        W79040   3.539   2.678   0.857
 8441W        W79041  28.509   1.723  13.599
 8442W        W79042  44.524  23.897   3.241
 8443W        W79043  12.368  37.306   3.100
 8444W        W79044  17.039  36.640  12.262
 8445W        W79045   1.402  12.398   0.464
 8446W        W79046   7.389  34.783  11.191
 8447W        W79047  23.730  10.434   2.914
 8448W        W79048  31.166  18.236   4.650
 8449W        W79049  37.038  28.065  11.112
 8450W        W79050  19.072  30.601  10.712
 8451W        W79051  42.304  16.470   3.720
 8452W        W79052  15.742  16.181  13.497
 8453W        W79053  35.975  28.291  13.792
 8454W        W79054  11.344  19.157  12.740
 8455W        W79055  26.688  22.735   5.040
 8456W        W79056   6.233  36.394   0.935
 8457W        W79057  24.992  29.661   0.694
 8458W        W79058  18.603  25.437   1.633
 8459W        W79059  44.351  18.313   3.172
 8460W        W79060   8.990  30.104   1.126
 8461W        W79061  43.752  29.993  11.619
 8462W        W79062   2.089  33.936  14.316
 8463W        W79063  40.816  35.150   4.236
 8464W        W79064  19.454  33.351   1.632
 8465W        W79065  18.053  39.816  10.995
 8466W        W79066  21.215  44.023   9.836
 8467W        W79067   6.176  27.674  14.339
 8468W        W79068  39.696  42.038  11.638
 8469W        W79069  14.620  21.482   4.323
 8470W        W79070  38.165  28.505  11.264
 8471W        W79071  28.218  12.669  12.092
 8472W        W79072  36.448  10.880   3.699
 8473W        W79073   8.448  23.483  11.156
 8474W        W79074  29.414   8.123  12.421
 8475W        W79075   3.253  12.234   3.189
 8476W        W79076  11.326  32.901   2.815
 8477W        W79077  39.045  38.019  10.097
 8478W        W79078  37.492  24.419  13.435
 8479W        W79079  13.147   3.251  10.679
 8480W        W79080  28.234  32.619  12.557
 8481W        W79081  30.352  42.425  14.032
 8482W        W79082   6.335   8.217  11.021
 8483W        W79083  20.574   2.885  12.940
 8484W        W79084  13.149  29.513  11.174
 8485W        W79085  36.824  38.598   2.821
 8486W        W79086  29.151   5.609  13.887
 8487W        W79087  31.923  31.412   1.382
 8488W        W79088  14.752  43.957   1.282
 8489W        W79089  38.844  17.260   3.227
 8490W        W79090  35.121   8.337   1.341
 8491W        W79091  22.808  36.536  14.543
 8492W        W79092  19.435   9.931  11.096
 8493W        W79093  14.673  23.039   0.202
 8494W        W79094  36.190  22.609   0.825
 8495W        W79095   6.798   8.846   0.835
 8496W        W79096   3.044  31.675   3.202
 8497W        W79097  43.277  24.344  12.388
 8498W        W79098  24.082  10.689  10.592
 8499W        W79099  22.801  10.279  11.262
 8500W        W79100   1.338  24.798   4.048
 8501W        W79101   2.406  19.548  11.562
 8502W        W79102  10.235  12.363   1.213
 8503W        W79103  28.859  17.793   2.326
 8504W        W79104  42.902   9.239  14.310
 8505W        W79105  38.883   6.505  11.486
 8506W        W79106   3.472  29.247  12.562
 8507W        W79107  33.883   1.528   0.821
 8508W        W79108  21.583  17.613  13.471
 8509W        W79109  10.151  19.247  13.508
 8510W        W79110   4.950   6.902  11.160
 8511W        W79111  11.314   0.443   3.418
 8512W        W79112  31.182  20.511  12.896
 8513W        W79113  39.077   7.296  12.936
 8514W        W79114  26.691  11.294   4.175
 8515W        W79115  35.880  39.287  12.969
 8516W        W79116  16.121  37.397   4.205
 8517W        W79117  10.225   2.402   4.080
 8518W        W79118  25.912  13.002  11.465
 8519W        W79119  28.444  38.826  10.516
 8520W        W79120  36.821   7.856   2.915
 8521W        W79121  14.136  21.997  12.513
 8522W        W79122   5.421  24.210   1.280
 8523W        W79123  34.943  18.631  10.778
 8524W        W79124  22.016  10.827  10.303
 8525W        W79125   3.199   3.529  13.324
 8526W        W79126  38.763   5.057  10.748
 8527W        W79127  16.058   3.932  13.841
 8528W        W79128  36.875  41.900  10.819
 8529W        W79129   0.822  27.376  14.458
 8530W        W79130  39.852  11.159  13.098
 8531W        W79131  22.141  14.617   2.329
 8532W        W79132  17.169  10.367   2.672
 8533W        W79133   0.298  19.602   0.852
 8534W        W79134  10.207  21.612   0.460
 8535W        W79135  27.034   2.773  12.645
 8536W        W79136  36.589   2.282   3.130
 8537W        W79137  12.284   4.613  12.964
 8538W        W79138  44.793   1.034   4.515
 8539W        W79139   2.534  16.587  12.078
 8540W        W79140  40.337  29.054  13.838
 8541W        W79141  26.587  12.078  12.059
 8542W        W79142  34.815  44.245  10.063
 8543W        W79143   2.454   6.861   0.078
 8544W        W79144  12.071  16.541  13.540
 8545W        W79145  37.219   0.959   1.421
 8546W        W79146  22.231  42.988  13.032
 8547W        W79147  14.336   2.070  11.179
 8548W        W79148  44.366  12.979   4.576
 8549W        W79149  19.293  22.793   4.496
 8550W        W79150  34.856  19.845  13.692
 8551W        W79151  16.558  14.096   2.400
 8552W        W79152  34.576  18.008  14.603
 8553W        W79153  24.174  16.391   0.601
 8554W        W79154  43.731  10.898   0.255
 8555W        W79155   4.464  22.039  11.117
 8556W        W79156  38.001  42.744  14.809
 8557W        W79157  14.115  29.943  14.690
 8558W        W79158  20.425   6.701  13.563
 8559W        W79159  29.223   6.676   3.667
 8560W        W79160   5.861  26.248  13.304
 8561W        W79161  16.130  11.200  14.543
 8562W        W79162  17.694  10.290   1.201
 8563W        W79163   5.256  15.925   4.128
 8564W        W79164  23.938   6.902  13.319
 8565W        W79165  14.069  10.750   2.416
 8566W        W79166   2.718   8.611   3.182
 8567W        W79167  42.869   8.641   4.524
 8568W        W79168  25.478  12.137   3.384
 8569W        W79169  20.558  31.986   0.867
 8570W        W79170  26.177  20.525   2.867
 8571W        W79171  18.612   1.975   0.709
 8572W        W79172  27.140   7.490  12.975
 8573W        W79173  34.005  44.613   0.402
 8574W        W79174  31.051  28.609  13.288
 8575W        W79175  17.670   4.161  11.756
 8576W        W79176  36.337  44.985  12.381
 8577W        W79177  31.654  26.450   2.351
 8578W        W79178  10.432  37.235  10.378
 8579W        W79179  25.500  27.788   1.704
 8580W        W79180  33.043  15.630   0.523
 8581W        W79181  38.463  14.775  14.244
 8582W        W79182  36.641  34.427  11.081
 8583W        W79183  35.272   8.444  14.412
 8584W        W79184  32.248  35.108  12.473
 8585W        W79185   3.771   8.762   1.713
 8586W        W79186  33.998  37.035   0.790
 8587W        W79187  16.241  25.480  10.474
 8588W        W79188  43.996  18.304  13.039
 8589W        W79189   3.526  21.620  10.923
 8590W        W79190  23.059   9.412  12.114
 8591W        W79191  17.831  11.633   1.784
 8592W        W79192  10.316   4.789   1.317
 8593W        W79193  24.591  26.981  12.431
 8594W        W79194  23.130  33.830  12.981
 8595W        W79195   1.353  43.535  13.783
 8596W        W79196  20.145  38.122   4.697
 8597W        W79197  21.089  16.717  10.592
 8598W        W79198  32.162  25.150  14.982
 8599W        W79199  27.229  27.610  14.534
 8600W        W79200  43.444  23.190  14.334
 8601W        W79201  16.221  21.223   1.121
 8602W        W79202  29.111  23.641   1.049
 8603W        W79203  31.092  28.893  13.934
 8604W        W79204   9.113   3.264   5.082
 8605W        W79205  24.600  33.617  12.236
 8606W        W79206  20.125  14.341   1.944
 8607W        W79207  20.088  42.535   2.220
 8608W        W79208  12.749  26.158  14.386
 8609W        W79209  38.537  19.116  14.469
 8610W        W79210  16.892  18.187  13.977
 8611W        W79211  16.580  39.445  10.705
 8612W        W79212   7.822  18.326   0.560
 8613W        W79213  41.786   7.205  11.509
 8614W        W79214  13.217  28.993   1.323
 8615W        W79215  12.182  15.691   0.327
 8616W        W79216  36.859  21.067  13.501
 8617W        W79217   7.451   4.632  11.999
 8618W        W79218  44.050  25.202   3.721
 8619W        W79219  31.001  39.912   1.362
 8620W        W79220  17.154  15.318  14.624
 8621W        W79221  29.973   9.369  12.602
 8622W        W79222  26.713  20.251  11.099
 8623W        W79223   8.873  25.989   4.426
 8624W        W79224   7.745  15.796   4.667
 8625W        W79225  34.521  31.575  12.913
 8626W        W79226  25.745  40.559  11.930
 8627W        W79227  15.613  41.716   0.820
 8628W        W79228   1.828  14.060  13.966
 8629W        W79229  36.232   2.372   0.792
 8630W        W79230  22.187  40.631  14.449
 8631W        W79231   0.034  35.912  12.148
 8632W        W79232  17.701  20.337   3.640
 8633W        W79233  31.374  22.348  12.511
 8634W        W79234  39.949  18.518   3.139
 8635W        W79235  42.925  33.424  13.045
 8636W        W79236  40.433  34.527   4.118
 8637W        W79237  22.725   2.716  13.376
 8638W        W79238  10.248  27.405  11.375
 8639W        W79239  43.219  38.427   2.234
 8640W        W79240  11.035  33.070   4.188
 8641W        W79241  29.266  11.942  14.508
 8642W        W79242   7.876  37.882   1.838
 8643W        W79243   2.389  36.249   4.087
 8644W        W79244  36.360  23.434   0.196
 8645W        W79245  22.877  23.481  12.429
 8646W        W79246  10.531  28.212  11.946
 8647W        W79247  29.038  36.972  11.874
 8648W        W79248   1.207  43.363  12.338
 8649W        W79249  20.055  39.367  14.845
 8650W        W79250  26.138  42.192   4.354
 8651W        W79251  37.807   9.246  13.430
 8652W        W79252  20.195  11.420  12.477
 8653W        W79253  37.247  39.565  14.895
 8654W        W79254   1.411  18.853   3.356
 8655W        W79255  44.195  10.169   1.230
 8656W        W79256   6.963  31.171   2.292
 8657W        W79257  36.800  21.013   2.661
 8658W        W79258   2.236  17.095   1.405
 8659W        W79259  25.187  31.681   1.836
 8660W        W79260  35.139   4.187   0.282
 8661W        W79261   9.831   5.638   3.904
 8662W        W79262  21.039   2.898   3.860
 8663W        W79263  26.096   8.768   4.165
 8664W        W79264   3.446  34.166   3.223
 8665W        W79265  28.254  15.184   2.339
 8666W        W79266   5.697   0.797  12.941
 8667W        W79267   3.068  18.623  14.913
 8668W        W79268   6.316  37.802   0.418
 8669W        W79269   1.508  38.445  11.072
 8670W        W79270   6.020   7.685   1.656
 8671W        W79271   3.932  12.154   2.935
 8672W        W79272   0.059   5.857   2.966
 8673W        W79273  22.004   1.819   2.469
 8674W        W79274  37.639  44.405   4.206
 8675W        W79275   5.497  41.851   1.444
 8676W        W79276  32.453   6.414   2.317
 8677W        W79277  22.238   4.751   4.854
 8678W        W79278  39.248  26.164  14.060
 8679W        W79279  31.870  42.812   3.401
 8680W        W79280  44.522   6.379   3.074
 8681W        W79281  36.747  38.976  14.447
 8682W        W79282  44.070  17.138  13.983
 8683W        W79283   8.688  19.155   5.147
 8684W        W79284  12.580  11.720   1.887
 8685W        W79285   6.814   5.019  13.985
 8686W        W79286   0.829  37.392  12.175
 8687W        W79287  21.674  42.593   0.141
 8688W        W79288  33.398  12.282   4.464
 8689W        W79289   8.118  15.830   1.870
 8690W        W79290  40.914  44.243   1.749
 8691W        W79291  18.649   6.395   3.303
 8692W        W79292  18.621  42.033  10.851
 8693W        W79293  13.573   5.464  13.416
 8694W        W79294  25.214  25.030  12.490
 8695W        W79295  27.065   6.882   4.591
 8696W        W79296  40.349  16.553   0.814
 8697W        W79297   4.411  25.113   3.640
 8698W        W79298  26.910  13.835   3.717
 8699W        W79299  13.203   3.362  14.831
 8700W        W79300  28.172   5.426  10.052
 8701W        W79301  43.262  27.459   1.003
 8702W        W79302  27.687   6.839  11.974
 8703W        W79303  11.945  17.002  13.304
 8704W        W79304  38.359  37.997   4.759
 8705W        W79305   0.941  28.723  12.417
 8706W        W79306   6.176  24.632  13.462
 8707W        W79307   4.740  24.987   0.387
 8708W        W79308  38.789  20.391  13.049
 8709W        W79309  13.063   6.724  14.394
 8710W        W79310  23.000  25.009  14.055
 8711W        W79311   5.246  26.540  12.935
 8712W        W79312  33.971  33.527   0.017
 8713W        W79313  39.779  38.363  13.343
 8714W        W79314  22.846  28.056   1.902
 8715W        W79315   4.148  20.340   2.115
 8716W        W79316  17.401  33.113   3.604
 8717W        W79317   5.350   2.452   1.873
 8718W        W79318  12.816  38.168   3.798
 8719W        W79319  11.726  39.009  13.374
 8720W        W79320  26.646  32.897   3.913
 8721W        W79321  43.419   4.907   2.726
 8722W        W79322  35.858   7.677   2.300
 8723W        W79323  33.190  39.065   3.645
 8724W        W79324   0.298  44.254   2.802
 8725W        W79325  32.551  33.077  13.597
 8726W        W79326  38.916   9.313   1.635
 8727W        W79327  31.676   4.608   4.375
 8728W        W79328  32.312  38.107   0.711
 8729W        W79329  29.009  14.276   3.723
 8730W        W79330  13.150  10.227  12.674
 8731W        W79331  39.076   3.879   1.940
 8732W        W79332  18.095  26.510  14.695
 8733W        W79333   3.248  16.240   2.251
 8734W        W79334  16.756  28.993   2.360
 8735W        W79335  42.868  42.914  11.242
 8736W        W79336  38.849  43.659  10.868
 8737W        W79337  26.632  35.564  12.057
 8738W        W79338   6.948  21.850   3.669
 8739W        W79339  34.343  40.720   1.167
 8740W        W79340  44.802  43.642  12.257
 8741W        W79341  42.795  41.964   0.967
 8742W        W79342  38.059  16.007  11.130
 8743W        W79343  24.331  41.009  14.458
 8744W        W79344  30.180  29.422  13.803
 8745W        W79345   7.013   7.444  12.938
 8746W        W79346   0.312  20.841  12.369
 8747W        W79347  36.989   9.261  14.434
 8748W        W79348   2.930  17.989   0.649
 8749W        W79349  32.621  29.868  11.133
 8750W        W79350  42.428   3.953  13.858
 8751W        W79351   6.116   1.480   4.621
 8752W        W79352  25.014   3.073   2.656
 8753W        W79353   9.745  18.269  13.880
 8754W        W79354  44.049   8.662  14.450
 8755W        W79355  13.627  30.906  13.538
 8756W        W79356  11.590  17.065   1.751
 8757W        W79357  13.027   3.225  14.348
 8758W        W79358  30.173  28.128   4.162
 8759W        W79359  25.970  23.938   0.818
 8760W        W79360  30.135  27.255  12.421
 8761W        W79361  30.567  34.217  13.580
 8762W        W79362  30.611   6.387   0.867
 8763W        W79363  15.112  14.173  13.770
 8764W        W79364  36.049   1.286  13.888
 8765W        W79365  26.465  16.296  11.631
 8766W        W79366  38.030  26.469  10.681
 8767W        W79367  18.789   9.474   2.700
 8768W        W79368   1.872  32.735  12.902
 8769W        W79369  35.624  32.508  13.534
 8770W        W79370  35.832   0.167  12.511
 8771W        W79371  31.720   7.786  14.748
 8772W        W79372  38.281  32.627   2.237
 8773W        W79373  27.119  44.021  12.432
 8774W        W79374  13.477  19.026   0.945
 8775W        W79375  21.476   7.713   3.391
 8776W        W79376  10.378   5.780  11.468
 8777W        W79377  30.559  23.717  12.709
 8778W        W79378   5.697  15.892   0.113
 8779W        W79379   2.459  25.535  10.541
 8780W        W79380   3.787  21.481  11.596
 8781W        W79381  31.822   6.875  14.316
 8782W        W79382  39.943  16.735  12.986
 8783W        W79383  18.287   8.894   2.240
 8784W        W79384  20.241  15.116   0.792
 8785W        W79385  26.716  30.777  13.343
 8786W        W79386  28.339  29.676   2.262
 8787W        W79387  19.034  17.243   1.730
 8788W        W79388  40.576   9.985   3.717
 8789W        W79389  25.102  34.639   0.525
 8790W        W79390   9.243  14.516  13.555
 8791W        W79391  26.095  12.120  13.995
 8792W        W79392  10.429   8.351  13.949
 8793W        W79393   0.898  11.901   2.710
 8794W        W79394   5.933  44.268   0.334
 8795W        W79395  37.908   8.961   1.244
 8796W        W79396  33.553  15.004   0.257
 8797W        W79397   1.440  14.044  12.428
 8798W        W79398   1.352  35.614  13.684
 8799W        W79399  44.003   6.682   0.939
 8800W        W79400  30.692   0.726   4.266
 8801W        W79401  32.096   0.494   0.534
 8802W        W79402  38.426  16.859   3.683
 8803W        W79403  30.141  31.585  12.036
 8804W        W79404  31.652  17.267   0.922
 8805W        W79405  36.930  39.913   1.715
 8806W        W79406  33.106  44.853  11.089
 8807W        W79407  14.964   0.818   2.716
 8808W        W79408  35.352  23.606  14.441
 8809W        W79409  19.340  35.899   2.216
 8810W        W79410   0.777  33.486  14.931
 8811W        W79411   8.914  44.542  11.638
 8812W        W79412  10.759   1.148   2.046
 8813W        W79413  27.948   3.544  13.433
 8814W        W79414  24.188  31.659  11.747
 8815W        W79415   2.888  22.985   2.257
 8816W        W79416  42.951  32.641   0.242
 8817W        W79417  33.071  38.201   4.403
 8818W        W79418  26.076  42.426   0.053
 8819W        W79419  43.422  39.045   0.844
 8820W        W79420  32.424   7.274   0.252
 8821W        W79421  36.637  11.880  14.898
 8822W        W79422  22.824  33.875  13.845
 8823W        W79423   2.260  33.491  12.881
 8824W        W79424   0.021  28.302  12.598
 8825W        W79425  20.328  25.037   3.761
 8826W        W79426  18.235   3.219  13.475
 8827W        W79427  38.882  21.937  13.930
 8828W        W79428  22.578  15.201  13.936
 8829W        W79429  36.011  20.665  11.303
 8830W        W79430  43.539  35.495  12.590
 8831W        W79431   9.708  30.321  11.420
 8832W        W79432  16.574  40.483  11.616
 8833W        W79433  25.962  14.970   4.140
 8834W        W79434  30.342  36.969  12.429
 8835W        W79435  35.831  22.566  14.910
 8836W        W79436   9.614  29.465   1.450
 8837W        W79437  32.901  38.337  13.193
 8838W        W79438  37.031   1.213   1.001
 8839W        W79439   2.422  11.411   2.149
 8840W        W79440  18.549  30.180   2.749
 8841W        W79441  43.335  17.224   0.982
 8842W        W79442  11.548  42.839   3.504
 8843W        W79443  29.708  27.255   1.128
 8844W        W79444  19.244  12.908   2.108
 8845W        W79445  29.342  33.394  14.319
 8846W        W79446   0.341   8.714   0.949
 8847W        W79447  28.050  23.042  13.835
 8848W        W79448  17.769  39.443   0.457
 8849W        W79449  44.703  15.171   3.174
 8850W        W79450  33.422  43.185   1.421
 8851W        W79451  32.580  12.121   3.382
 8852W        W79452   6.246  36.622   2.434
 8853W        W79453   8.964  14.493  14.086
 8854W        W79454  27.458  16.391   3.247
 8855W        W79455  27.063  33.203   3.838
 8856W        W79456  21.299  14.544   4.085
 8857W        W79457  36.673  12.879   0.967
 8858W        W79458  27.324  13.032   0.562
 8859W        W79459   1.447  12.039   0.918
 8860W        W79460  19.205   7.282   4.255
 8861W        W79461  14.585   1.785   0.860
 8862W        W79462  11.738   2.001  14.961
 8863W        W79463  34.810  14.342  10.196
 8864W        W79464  12.094  36.655   1.285
 8865W        W79465   1.377  20.705   0.911
 8866W        W79466   1.422  15.860   3.218
 8867W        W79467   2.409  23.113   0.705
 8868W        W79468  31.399  33.977   2.766
 8869W        W79469   0.048  33.036  14.762
 8870W        W79470   0.795  44.300   1.907
 8871W        W79471  37.302   0.037   4.284
 8872W        W79472  13.194  16.183   4.427
 8873W        W79473   2.370  38.308   0.374
 8874W        W79474  26.532  16.588   3.124
 8875W        W79475  31.509  27.613  11.457
 8876W        W79476  38.614   2.183   3.361
 8877W        W79477  12.859   2.399   1.658
 8878W        W79478  41.441   0.219   1.440
 8879W        W79479   4.170   9.240   2.831
 8880W        W79480  16.134  29.440  14.794
 8881W        W79481  25.083  21.650  12.024
 8882W        W79482  12.103  24.961   0.267
 8883W        W79483  23.453  42.593  11.989
 8884W        W79484  30.090   1.918   0.701
 8885W        W79485  30.414  17.233  12.269
 8886W        W79486   1.205  16.109   2.244
 8887W        W79487  14.758   4.748  14.434
 8888W        W79488  30.441  35.477  13.805
 8889W        W79489  44.552  18.109   1.817
 8890W        W79490  12.207  21.441  11.100
 8891W        W79491   9.762  44.034  10.757
 8892W        W79492  44.327  20.783   2.235
 8893W        W79493  11.338   3.739  11.569
 8894W        W79494  34.541   1.394  14.097
 8895W        W79495  36.635   9.752  12.144
 8896W        W79496  35.152   9.693   1.696
 8897W        W79497  17.329  27.570   0.262
 8898W        W79498   6.136  41.497   4.670
 8899W        W79499  31.061  16.051   0.151
 8900W        W79500  39.774  17.553  12.980
 8901W        W79501  28.566  12.348  13.472
 8902W        W79502  38.524  37.810   1.356
 8903W        W79503   1.878  20.264   2.375
 8904W        W79504   1.383  39.323   3.273
 8905W        W79505  35.395  21.648  11.942
 8906W        W79506  17.973  18.536   0.038
 8907W        W79507   1.737  21.078   0.902
 8908W        W79508  42.798  41.836   3.280
 8909W        W79509  11.253  38.690  10.425
 8910W        W79510  24.441  23.697  10.772
 8911W        W79511  23.983  29.710   2.268
 8912W        W79512  26.170   5.919   2.306
 8913W        W79513  18.768  40.830   2.424
 8914W        W79514   1.285  17.861  12.617
 8915W        W79515  32.874  12.697  10.539
 8916W        W79516   7.656  16.180  13.545
 8917W        W79517  32.406  15.687  10.695
 8918W        W79518  34.023  43.976  14.199
 8919W        W79519   9.873  23.620  12.494
 8920W        W79520  16.164  36.849   2.776
 8921W        W79521   7.309  13.644  13.499
 8922W        W79522  20.126   7.425   2.315
 8923W        W79523  42.337  35.892   2.714
 8924W        W79524  10.550  22.963   2.330
 8925W        W79525  21.320   9.297  14.787
 8926W        W79526  41.936  31.032  11.101
 8927W        W79527  29.869  41.254   0.279
 8928W        W79528  18.594  30.447   3.811
 8929W        W79529   3.636  16.158  10.643
 8930W        W79530   6.911  35.980   2.380
 8931W        W79531  44.399  31.967  14.503
 8932W        W79532   0.195  36.199  14.585
 8933W        W79533  15.362  32.168  14.268
 8934W        W79534  15.299  11.793  11.872
 8935W        W79535  38.839   9.703  12.927
 8936W        W79536  15.753   0.345   4.496
 8937W        W79537  28.729  43.515  14.818
 8938W        W79538  12.642   2.767   4.369
 8939W        W79539  12.172  12.417   2.352
 8940W        W79540  29.184  21.335   0.012
 8941W        W79541  30.391  25.572   4.921
 8942W        W79542  44.312   7.844  10.283
 8943W        W79543   7.554   3.851  14.636
 8944W        W79544  43.810  34.175  13.472
 8945W        W79545   3.425   5.900   1.916
 8946W        W79546  32.656  30.847  13.416
 8947W        W79547  42.316  10.341  12.962
 8948W        W79548   9.215  34.845  11.148
 8949W        W79549  42.860  29.518   1.164
 8950W        W79550  21.140   9.403  13.375
 8951W        W79551  10.670  37.027   3.381
 8952W        W79552  32.985   2.858  13.787
 8953W        W79553   9.847  36.287  14.495
 8954W        W79554  19.313  39.726   2.916
 8955W        W79555   3.797  29.624   4.792
 8956W        W79556  12.531  20.563   0.225
 8957W        W79557  41.555  25.238  11.574
 8958W        W79558  41.551  43.433  13.869
 8959W        W79559   5.199  37.610  10.878
 8960W        W79560  20.104  23.153  10.554
 8961W        W79561  32.134  28.624  14.389
 8962W        W79562  15.070  23.790  12.847
 8963W        W79563  27.655  28.564   4.595
 8964W        W79564  37.070  40.769  12.902
 8965W        W79565  39.097  14.167   3.627
 8966W        W79566  25.474   3.812   1.392
 8967W        W79567  23.671  37.883   4.394
 8968W        W79568   6.264  27.114  13.630
 8969W        W79569  26.747   4.911   1.203
 8970W        W79570  18.157  38.412   0.926
 8971W        W79571   4.597  17.183  10.723
 8972W        W79572  17.589  12.120   4.197
 8973W        W79573   0.827  27.184   1.442
 8974W        W79574  28.611  12.884   3.257
 8975W        W79575  27.685  40.768  11.896
 8976W        W79576  12.848  21.938   0.575
 8977W        W79577  38.803  28.158  10.719
 8978W        W79578  33.445  13.887  12.686
 8979W        W79579   7.277  39.822  10.763
 8980W        W79580  23.188  43.521  12.210
 8981W        W79581  44.402   9.519  14.899
 8982W        W79582  38.009  27.174  12.034
 8983W        W79583  39.290  23.164  12.448
 8984W        W79584  26.166   5.514  10.750
 8985W        W79585  36.377  21.596  11.644
 8986W        W79586   7.474  28.435  13.777
 8987W        W79587  27.569  20.747  12.000
 8988W        W79588  36.376  22.111   0.900
 8989W        W79589  42.884  17.523  10.747
 8990W        W79590   9.505  15.059  13.501
 8991W        W79591  12.672   5.835   4.692
 8992W        W79592  36.386  24.957   0.341
 8993W        W79593  13.823  16.505   1.708
 8994W        W79594  36.031   1.783  13.721
 8995W        W79595  43.739   1.876   0.080
 8996W        W79596  23.515  24.930  11.117
 8997W        W79597  11.416  32.088  14.523
 8998W        W79598  33.533  41.250   1.380
 8999W        W79599  30.253  21.668   0.701
 9000W        W79600  18.749   1.016  11.557
 9001W        W79601   9.979  44.420   1.782
 9002W        W79602  35.021  35.984   2.032
 9003W        W79603  26.216   1.929   0.760
 9004W        W79604  13.841  28.153  11.470
 9005W        W79605   4.453  29.948   0.285
 9006W        W79606  28.409  28.162  12.420
 9007W        W79607  37.080  28.659   0.820
 9008W        W79608  20.296  38.429   3.149
 9009W        W79609  11.068  12.865   3.154
 9010W        W79610  36.463  39.845  11.641
 9011W        W79611  34.903   6.236   3.192
 9012W        W79612   2.238  19.948   3.881
 9013W        W79613  11.463  41.538  13.231
 9014W        W79614   7.799  40.570  10.782
 9015W        W79615   8.648  18.792   2.344
 9016W        W79616  22.141  19.306   3.604
 9017W        W79617  36.564  36.661   0.469
 9018W        W79618  12.155  10.332  13.563
 9019W        W79619  17.100  39.665   2.649
 9020W        W79620   2.022  17.755  13.832
 9021W        W79621   8.185   0.677  11.929
 9022W        W79622  31.564  44.528  13.864
 9023W        W79623   6.727  20.086  11.596
 9024W        W79624   3.430   6.512  11.629
 9025W        W79625   4.764  11.684  12.661
 9026W        W79626   5.408  11.749   4.899
 9027W        W79627  42.885  34.176  13.478
 9028W        W79628  19.572  38.727  12.976
 9029W        W79629  16.555  23.212   4.735
 9030W        W79630  38.342  35.505  13.842
 9031W        W79631  41.782  26.706   4.663
 9032W        W79632  31.966  15.753   4.675
 9033W        W79633  30.574   8.678  13.395
 9034W        W79634  27.109  35.180   2.831
 9035W        W79635  10.279  22.501   3.623
 9036W        W79636  42.894  26.482   0.496
 9037W        W79637  32.175   8.790  13.289
 9038W        W79638  33.639  43.278   4.837
 9039W        W79639  28.264  17.310  12.025
 9040W        W79640   7.757  32.399  12.098
 9041W        W79641  42.985  36.566   2.701
 9042W        W79642  42.382  19.132   3.798
 9043W        W79643  11.685  13.759  13.366
 9044W        W79644   8.708  10.628   1.696
 9045W        W79645  43.113  14.659  10.692
 9046W        W79646  36.635   6.714   4.288
 9047W        W79647  18.197  18.383  12.335
 9048W        W79648  44.342  12.806  14.914
 9049W        W79649  38.618  23.581   0.078
 9050W        W79650  38.943  24.177   1.892
 9051W        W79651  30.929  12.874  11.191
 9052W        W79652   2.840  11.063   1.393
 9053W        W79653   9.142  15.058   1.256
 9054W        W79654  36.542  25.769   0.712
 9055W        W79655  10.834   1.193  10.386
 9056W        W79656  40.764  33.521  12.058
 9057W        W79657  23.047  24.908   0.484
 9058W        W79658  10.612  42.738  13.875
 9059W        W79659  44.527  38.296  11.579
 9060W        W79660  12.126  34.907   4.425
 9061W        W79661  31.065  42.044   1.260
 9062W        W79662  36.451  43.256  12.903
 9063W        W79663  31.203  43.675  14.011
 9064W        W79664  24.127  41.276   1.397
 9065W        W79665  21.524  34.050   1.205
 9066W        W79666   8.299  20.276   3.661
 9067W        W79667  30.517  38.522  14.533
 9068W        W79668  41.136  11.420   3.701
 9069W        W79669  14.808   3.247   1.394
 9070W        W79670   5.982  35.308  12.985
 9071W        W79671   2.732  40.673   3.661
 9072W        W79672   8.748  29.411   3.215
 9073W        W79673  39.574  14.264   2.723
 9074W        W79674  10.316   4.380   3.769
 9075W        W79675  22.966  16.341  12.168
 9076W        W79676  15.185  26.538   0.827
 9077W        W79677  12.961  37.316  11.072
 9078W        W79678  12.747  18.807  11.587
 9079W        W79679  43.882   1.721   2.644
 9080W        W79680  35.411  15.269   1.443
 9081W        W79681  26.688  19.237   1.796
 9082W        W79682   5.084  17.235   2.647
 9083W        W79683   5.808   8.583  11.681
 9084W        W79684  16.657  20.131   4.427
 9085W        W79685  29.013  10.910   1.389
 9086W        W79686   2.140  26.020   3.628
 9087W        W79687  27.249  43.853  12.902
 9088W        W79688  32.523   3.077   4.201
 9089W        W79689   0.201   3.203   2.879
 9090W        W79690  10.419   1.990   4.309
 9091W        W79691  34.018  25.281   2.656
 9092W        W79692  35.013  38.891   4.074
 9093W        W79693  35.919  25.677   4.603
 9094W        W79694  37.673  29.990   4.503
 9095W        W79695  14.751  14.359  11.608
 9096W        W79696  26.264  19.489  13.935
 9097W        W79697   3.253  18.259  11.184
 9098W        W79698  41.567  27.063   1.964
 9099W        W79699   1.818  10.120  13.944
 9100W        W79700  15.637  32.448  11.122
 9101W        W79701  18.134  38.517  10.457
 9102W        W79702   6.042  38.070   0.888
 9103W        W79703  10.152  43.817   4.979
 9104W        W79704  36.077  29.061   3.891
 9105W        W79705   8.591  28.634  11.491
 9106W        W79706  33.213  21.903   1.674
 9107W        W79707  23.978  15.542   3.788
 9108W        W79708  11.879  37.166  14.758
 9109W        W79709  27.233  40.432   0.210
 9110W        W79710  43.210   8.673  14.866
 9111W        W79711  13.605  43.908  13.570
 9112W        W79712   1.714  37.048   3.993
 9113W        W79713  43.749  12.082  10.571
 9114W        W79714  10.985   7.210   2.860
 9115W        W79715  18.653  13.281   1.517
 9116W        W79716  44.393  35.444   3.820
 9117W        W79717  30.136  38.886   2.759
 9118W        W79718  37.457   8.406   3.853
 9119W        W79719  35.101  39.952  13.978
 9120W        W79720  33.533  33.218   3.402
 9121W        W79721   7.652   2.356   2.139
 9122W        W79722  20.797  27.329  10.230
 9123W        W79723  38.443  21.722  13.782
 9124W        W79724  21.763  16.594  12.508
 9125W        W79725  11.358  26.541   3.493
 9126W        W79726  18.302   7.884   1.392
 9127W        W79727  39.644  32.891  12.030
 9128W        W79728  26.213  16.131   1.790
 9129W        W79729  23.229  14.779   0.539
 9130W        W79730  38.916  30.037  10.962
 9131W        W79731  15.734   2.934   1.921
 9132W        W79732  23.909  14.141   1.774
 9133W        W79733  23.081  31.708  14.126
 9134W        W79734  14.570  38.532  14.904
 9135W        W79735  39.315  30.912   4.119
 9136W        W79736  41.847  38.239  13.374
 9137W        W79737  28.109  34.933   3.147
 9138W        W79738  25.283   5.211  13.507
 9139W        W79739   3.621   0.881  10.271
 9140W        W79740   7.630  25.607   1.209
 9141W        W79741   3.430   2.620   3.393
 9142W        W79742  32.759  41.544  13.105
 9143W        W79743  34.699   8.889   4.159
 9144W        W79744  31.683   9.988   0.488
 9145W        W79745  14.221  30.071  13.015
 9146W        W79746   6.129  32.442  13.799
 9147W        W79747  21.813  38.840   2.129
 9148W        W79748  41.315   2.723  11.422
 9149W        W79749  44.309  42.455  12.106
 9150W        W79750  11.802  27.647   3.282
 9151W        W79751   0.081  21.257   3.168
 9152W        W79752  40.533  22.855  12.762
 9153W        W79753  14.349   7.797   3.647
 9154W        W79754  19.178  10.589   4.185
 9155W        W79755   9.600   9.773   0.452
 9156W        W79756  26.032  12.062  10.458
 9157W        W79757  30.603  18.539  10.702
 9158W        W79758  15.594  31.941  11.129
 9159W        W79759  35.842  35.569  13.131
 9160W        W79760  18.786  12.617  10.758
 9161W        W79761  25.939  10.262  13.553
 9162W        W79762  39.882  12.349  14.229
 9163W        W79763  27.394  43.998  10.440
 9164W        W79764  37.100  13.972  11.572
 9165W        W79765  17.847  34.300   3.656
 9166W        W79766  34.132  37.914  10.694
 9167W        W79767   2.437  37.822  13.922
 9168W        W79768  26.982  43.721   4.550
 9169W        W79769  19.902  33.285  13.197
 9170W        W79770  21.058   2.051   4.321
 9171W        W79771  29.621   4.939   3.359
 9172W        W79772  28.633  12.675   0.475
 9173W        W79773  18.186  22.177  11.959
 9174W        W79774  23.599  41.171  10.613
 9175W        W79775  19.528  43.233   0.797
 9176W        W79776  40.854  16.799   0.823
 9177W        W79777  19.462  34.929  13.388
 9178W        W79778  29.993  38.243  12.507
 9179W        W79779  20.292  13.840   1.291
 9180W        W79780  43.380  27.579   4.658
 9181W        W79781  43.825   7.354  11.419
 9182W        W79782   3.548  32.935  14.648
 9183W        W79783  25.517  40.781   4.514
 9184W        W79784  13.857   5.275  11.476
 9185W        W79785  44.403  37.526  12.678
 9186W        W79786  22.155  16.849  13.475
 9187W        W79787   9.428  39.493  12.810
 9188W        W79788   6.368  28.505  14.930
 9189W        W79789   8.148   0.255  11.591
 9190W        W79790  14.822  24.738  12.545
 9191W        W79791   2.986  25.519  13.787
 9192W        W79792  39.741  15.830  11.075
 9193W        W79793   7.274  19.668   4.105
 9194W        W79794   5.753  44.669   3.220
 9195W        W79795  23.925   6.316   0.847
 9196W        W79796  30.211  22.722   1.216
 9197W        W79797  18.561  34.547   3.218
 9198W        W79798  42.743  20.757   1.723
 9199W        W79799  31.787   8.562  12.017
 9200W        W79800  24.545  29.966  11.896
 9201W        W79801   6.662  25.051   3.302
 9202W        W79802  31.900  39.007   5.297
 9203W        W79803  27.555  39.551  10.672
 9204W        W79804  24.102   2.054   1.417
 9205W        W79805  39.597   6.800   4.579
 9206W        W79806  31.823  16.428   1.632
 9207W        W79807  30.058   5.389   2.416
 9208W        W79808  38.409  15.910   0.978
 9209W        W79809   5.131  29.656  13.126
 9210W        W79810  41.895  31.627   3.282
 9211W        W79811  43.987  15.650  13.760
 9212W        W79812  36.522  40.456   2.349
 9213W        W79813  24.287  38.747   1.295
 9214W        W79814  31.376  19.477   4.119
 9215W        W79815  35.609  21.141  10.685
 9216W        W79816  12.371   8.050   1.969
 9217W        W79817  26.076  21.149   4.117
 9218W        W79818  11.184  14.497   0.885
 9219W        W79819  30.715   2.205   2.742
 9220W        W79820  13.167  12.225   3.575
 9221W        W79821  12.114  23.348  12.354
 9222W        W79822  10.295  14.258  10.037
 9223W        W79823  24.503  33.151   1.272
 9224W        W79824  19.747  16.630  13.408
 9225W        W79825  43.557  40.923   1.461
 9226W        W79826   9.318   9.770  13.448
 9227W        W79827   0.288  17.223   4.081
 9228W        W79828  39.914  14.237   3.123
 9229W        W79829  33.940  12.149   2.709
 9230W        W79830  17.992   1.330  11.603
 9231W        W79831  27.184   0.751   4.221
 9232W        W79832   0.304  19.312  14.332
 9233W        W79833  30.109  27.691   3.258
 9234W        W79834  17.058  24.428  11.166
 9235W        W79835  11.003  27.573   0.953
 9236W        W79836  10.316  44.903   4.671
 9237W        W79837   6.757  21.310  13.360
 9238W        W79838   2.877   8.194  14.572
 9239W        W79839  19.101  16.704   0.240
 9240W        W79840   9.952  23.717  11.974
 9241W        W79841  39.520  11.088   4.676
 9242W        W79842  25.645   2.732  11.548
 9243W        W79843  37.918  21.493   5.050
 9244W        W79844  28.273  31.634   0.023
 9245W        W79845  17.689  16.187  12.146
 9246W        W79846  34.319  38.662  11.467
 9247W        W79847  24.066   1.257   1.884
 9248W        W79848  40.553  33.449   3.049
 9249W        W79849  40.340  10.319  11.384
 9250W        W79850  42.652  19.714  13.848
 9251W        W79851  17.139   4.889  14.808
 9252W        W79852  41.171  40.421  13.764
 9253W        W79853   3.254  23.332  14.756
 9254W        W79854  17.392  36.112  13.058
 9255W        W79855   3.923  30.983  12.066
 9256W        W79856  29.693  31.643  10.395
 9257W        W79857  36.466  13.201  10.682
 9258W        W79858  30.003  20.696   3.151
 9259W        W79859   4.026  40.329   3.247
 9260W        W79860  22.729  12.565  12.027
 9261W        W79861  37.408   9.088   1.049
 9262W        W79862  16.471  17.400   0.415
 9263W        W79863  21.686  16.057  11.097
 9264W        W79864   9.831  16.773   3.261
 9265W        W79865  19.763   6.262   4.871
 9266W        W79866  26.936  16.174   0.282
 9267W        W79867  17.811  41.879   0.954
 9268W        W79868  29.298  13.862  14.473
 9269W        W79869   6.370  21.656  14.007
 9270W        W79870  18.609  13.716  13.072
 9271W        W79871  44.847  17.002   2.280
 9272W        W79872   1.977  20.593   1.713
 9273W        W79873  16.011  16.126  12.986
 9274W        W79874  11.160  36.479  14.350
 9275W        W79875  38.341  26.503  13.894
 9276W        W79876  18.958  40.024   3.130
 9277W        W79877  19.113   8.771  13.513
 9278W        W79878   1.265  34.911   3.619
 9279W        W79879  25.657   4.361  12.426
 9280W        W79880   6.844   8.670  14.457
 9281W        W79881  31.474  16.268   2.598
 9282W        W79882   9.634  20.692   3.271
 9283W        W79883  14.290  15.773  14.330
 9284W        W79884  10.858  15.326  13.480
 9285W        W79885  39.335  28.522   3.221
 9286W        W79886  24.150   9.290   2.487
 9287W        W79887  28.558  15.604   3.667
 9288W        W79888  44.997  11.517  14.641
 9289W        W79889  39.871  42.313   2.920
 9290W        W79890  38.975  28.972   2.033
 9291W        W79891  33.780  33.632   2.735
 9292W        W79892   2.217  41.787  14.091
 9293W        W79893  43.912  19.834  14.573
 9294W        W79894  38.850   8.271  11.120
 9295W        W79895  13.113  26.598  14.901
 9296W        W79896  20.650   1.518  13.973
 9297W        W79897   3.485   0.344   4.637
 9298W        W79898  13.244  43.240   0.966
 9299W        W79899  34.638   9.836  14.934
 9300W        W79900  36.214  31.137  10.817
 9301W        W79901  31.935  24.511  12.182
 9302W        W79902  10.740  21.009  12.024
 9303W        W79903  32.511  25.444  10.696
 9304W        W79904  43.470  15.466  14.385
 9305W        W79905  24.232  44.532  12.040
 9306W        W79906  30.128  25.533  11.852
 9307W        W79907  11.629  28.524  14.973
 9308W        W79908  26.076  22.150   1.960
 9309W        W79909  38.781  32.919   1.183
 9310W        W79910  34.100  20.937  13.903
 9311W        W79911  21.971  15.628   1.193
 9312W        W79912  39.801  37.593  11.632
 9313W        W79913  14.059  38.309   1.419
 9314W        W79914  39.257  12.549  14.852
 9315W        W79915  21.637   0.051  11.211
 9316W        W79916  11.564  10.745   2.212
 9317W        W79917  44.120  38.164   0.347
 9318W        W79918   1.513  25.605   2.945
 9319W        W79919   4.881  32.164  14.411
 9320W        W79920  21.818  35.298  14.383
 9321W        W79921  29.453  31.206  11.393
 9322W        W79922  33.880  14.713  12.350
 9323W        W79923  12.531  19.051   4.097
 9324W        W79924  22.874  39.476   4.186
 9325W        W79925  25.100  14.705   3.600
 9326W        W79926   7.741  21.980  12.383
 9327W        W79927  10.633   6.073   0.392
 9328W        W79928  30.619  30.800  13.430
 9329W        W79929  23.148  38.774  10.451
 9330W        W79930  40.106  15.292   5.016
 9331W        W79931  40.536  40.871  14.748
 9332W        W79932  31.760  30.535   1.624
 9333W        W79933  43.025  12.750  13.410
 9334W        W79934  32.658  27.963   4.325
 9335W        W79935  37.582  21.504  12.532
 9336W        W79936  24.170  10.314  13.356
 9337W        W79937  25.651  28.339   1.781
 9338W        W79938  17.481  21.480   3.616
 9339W        W79939  10.460  15.571   4.194
 9340W        W79940   3.852   3.833  12.590
 9341W        W79941  11.805  38.766   4.641
 9342W        W79942  37.542  13.311  14.016
 9343W        W79943  27.706  29.864   2.211
 9344W        W79944  40.536  14.819   0.318
 9345W        W79945  19.993  39.441  13.478
 9346W        W79946  29.875  36.796  12.453
 9347W        W79947  42.298  38.913  13.315
 9348W        W79948  38.934  16.963   3.650
 9349W        W79949   5.009  24.292  11.554
 9350W        W79950  13.268  27.286  11.378
 9351W        W79951  33.215  26.932   0.085
 9352W        W79952  43.014  21.192   1.900
 9353W        W79953   9.938  20.167  12.132
 9354W        W79954   1.870  32.636   4.029
 9355W        W79955   3.686   5.846   1.240
 9356W        W79956   6.474  19.187  10.015
 9357W        W79957  31.604   2.360  12.351
 9358W        W79958  18.206  37.405  10.522
 9359W        W79959  41.044   5.342  14.757
 9360W        W79960  37.435  27.659  13.649
 9361W        W79961  39.028  17.629  12.056
 9362W        W79962  18.231  37.606   4.632
 9363W        W79963  13.263  39.990   3.193
 9364W        W79964  27.823  16.299   3.610
 9365W        W79965  29.908   0.253  12.385
 9366W        W79966  27.072  18.879  12.121
 9367W        W79967  15.842   1.503   3.140
 9368W        W79968  37.687  35.349  14.578
 9369W        W79969  41.495  36.923  13.297
 9370W        W79970  20.186  25.099   4.577
 9371W        W79971  26.591   4.167  13.868
 9372W        W79972   3.914  21.679  14.535
 9373W        W79973   3.885   6.109  10.212
 9374W        W79974  29.235   2.444  11.167
 9375W        W79975   2.097   6.583   3.713
 9376W        W79976  32.584  36.158  13.528
 9377W        W79977   2.940   1.236  14.333
 9378W        W79978  22.288   4.427  14.980
 9379W        W79979   2.424  21.744   2.875
 9380W        W79980  18.329   1.844   3.002
 9381W        W79981  42.296  29.155   1.938
 9382W        W79982   4.514  43.416  14.941
 9383W        W79983  26.566  38.432   0.236
 9384W        W79984  36.374  16.799   2.737
 9385W        W79985  27.401  27.658  13.877
 9386W        W79986  37.947  20.191  14.958
 9387W        W79987  37.215  23.848   2.434
 9388W        W79988  15.111   8.942  13.164
 9389W        W79989  34.683  32.405   0.927
 9390W        W79990  41.354   7.862   3.150
 9391W        W79991  18.600  31.070   1.386
 9392W        W79992  10.701  17.967   0.056
 9393W        W79993  18.605   7.386   1.165
 9394W        W79994  28.458  37.857   1.425
 9395W        W79995  37.273  28.794  10.877
 9396W        W79996  35.956   7.145   0.392
 9397W        W79997  33.947  29.416  12.124
 9398W        W79998  26.993  25.179   2.354
 9399W        W79999   5.672  11.778  12.460
 9400W        W80000  12.620   6.230   4.357
 9401W        W80001  24.998  34.018  14.284
 9402W        W80002   2.511  21.984   1.242
 9403W        W80003  13.580  10.739   4.598
 9404W        W80004  30.562  22.080   2.221
 9405W        W80005   0.229  32.304   1.678
 9406W        W80006   8.693  15.139  12.993
 9407W        W80007   8.388  15.740  11.849
 9408W        W80008  11.944  23.089  14.572
 9409W        W80009  37.383  17.319  11.622
 9410W        W80010  25.695  18.501  13.300
 9411W        W80011  32.267   4.071  13.031
 9412W        W80012  27.105   6.100   2.068
 9413W        W80013  11.147  36.719   3.223
 9414W        W80014  17.263  22.190  11.408
 9415W        W80015   0.907  28.149  10.758
 9416W        W80016   3.370  26.985  13.764
 9417W        W80017  30.569  13.257  12.420
 9418W        W80018  12.178   5.985   4.234
 9419W        W80019  34.533  39.413   1.331
 9420W        W80020  23.385   2.663  12.968
 9421W        W80021  28.123  43.493  11.409
 9422W        W80022  14.382  38.257  14.365
 9423W        W80023   7.317  29.487   4.098
 9424W        W80024   2.447  34.146  11.724
 9425W        W80025  21.473  10.176  12.094
 9426W        W80026   5.834  29.009   2.404
 9427W        W80027  26.784  26.685  13.478
 9428W        W80028  27.073   2.497  12.120
 9429W        W80029  11.082   3.752   0.423
 9430W        W80030  35.759  19.786  13.793
 9431W        W80031  24.060  18.807  11.452
 9432W        W80032  24.056   8.881  12.935
 9433W        W80033  23.810  40.213   1.265
 9434W        W80034  22.758  36.988   1.479
 9435W        W80035  13.415  27.014   4.614
 9436W        W80036  21.640  28.921  10.864
 9437W        W80037  18.700  18.957   0.079
 9438W        W80038  31.660  28.353  14.483
 9439W        W80039  18.834   7.818   1.356
 9440W        W80040  23.435  25.925  11.619
 9441W        W80041  18.166   6.282  10.674
 9442W        W80042   4.723  18.750  13.085
 9443W        W80043  43.947  18.605   4.488
 9444W        W80044  32.995  37.443  14.855
 9445W        W80045  13.244  29.597  13.003
 9446W        W80046  39.450  19.745   3.153
 9447W        W80047  22.517  14.883   3.274
 9448W        W80048  35.938  36.144   3.222
 9449W        W80049  36.221   2.841  12.035
 9450W        W80050  42.842  17.044   1.759
 9451W        W80051  15.003  41.360   1.745
 9452W        W80052  21.975  37.938  10.907
 9453W        W80053  22.769  18.105   4.276
 9454W        W80054  22.483   4.861   0.460
 9455W        W80055  28.121  39.840  14.285
 9456W        W80056  12.873  39.740   4.574
 9457W        W80057  30.581  41.997   0.269
 9458W        W80058  17.499  15.705  10.988
 9459W        W80059  15.272  21.829   3.875
 9460W        W80060  10.958  14.124  12.136
 9461W        W80061  42.425  41.705   1.259
 9462W        W80062  44.664  37.601   1.936
 9463W        W80063  13.250  25.438  10.750
 9464W        W80064  28.840  18.134   1.930
 9465W        W80065  30.541  44.207   2.442
 9466W        W80066  25.713  12.873   0.792
 9467W        W80067  31.880  30.661   3.990
 9468W        W80068  37.990  25.679  12.128
 9469W        W80069   9.420   2.290   1.082
 9470W        W80070  26.285  20.709   2.362
 9471W        W80071   3.809  32.471   4.296
 9472W        W80072  32.404  21.905   3.768
 9473W        W80073  37.405   4.745   2.814
 9474W        W80074   8.197  29.237   4.190
 9475W        W80075  31.937  33.596   0.979
 9476W        W80076   6.726   1.264  11.206
 9477W        W80077  13.229  27.615   0.951
 9478W        W80078  44.223  31.975  11.887
 9479W        W80079   6.941  39.500   2.162
 9480W        W80080   6.692   5.382  10.698
 9481W        W80081   7.748  35.742  13.767
 9482W        W80082   7.454  28.527   3.397
 9483W        W80083  41.342   7.316  14.584
 9484W        W80084   6.929   6.746  11.925
 9485W        W80085  22.073  12.703   1.481
 9486W        W80086   0.832  38.023   1.639
 9487W        W80087  33.575   6.798  13.800
 9488W        W80088  29.706  35.565   0.397
 9489W        W80089  14.107  10.800  11.929
 9490W        W80090  31.063  21.044   3.551
 9491W        W80091  15.463  10.468   2.298
 9492W        W80092  37.750  27.682  12.892
 9493W        W80093  42.630  26.514  14.034
 9494W        W80094  43.323  19.647  14.730
 9495W        W80095  15.184  15.828  10.606
 9496W        W80096  24.364  22.145  11.727
 9497W        W80097  40.790  42.015   4.774
 9498W        W80098   3.894  27.210   0.866
 9499W        W80099   7.312   6.241  14.790
 9500W        W80100  40.729  17.972   1.364
 9501W        W80101  35.371  22.001   2.753
 9502W        W80102  40.915  40.804   4.895
 9503W        W80103   6.846  24.512   1.572
 9504W        W80104  43.876  28.250   2.521
 9505W        W80105  39.967  34.058  11.290
 9506W        W80106  19.660  38.580   1.999
 9507W        W80107  35.382  43.830  12.141
 9508W        W80108   9.814  24.623   2.862
 9509W        W80109   6.400  32.666   2.699
 9510W        W80110  18.369  17.645   3.395
 9511W        W80111  11.582  34.343  13.475
 9512W        W80112  18.010  22.825  13.725
 9513W        W80113  31.104  15.004  14.870
 9514W        W80114  37.685  20.975   0.274
 9515W        W80115  35.746   9.952  10.822
 9516W        W80116  35.041  31.768  11.232
 9517W        W80117  26.446  25.469   1.682
 9518W        W80118  32.446   3.460  14.916
 9519W        W80119   4.189  38.207   2.873
 9520W        W80120  42.321  29.563  10.950
 9521W        W80121   3.751  44.409  11.171
 9522W        W80122  35.806   8.309  10.840
 9523W        W80123   6.852   5.817  10.486
 9524W        W80124  17.558   1.167  11.793
 9525W        W80125  38.573  31.922  11.650
 9526W        W80126   6.561  26.524  14.423
 9527W        W80127  32.851   1.287  12.044
 9528W        W80128  25.778   1.082   2.729
 9529W        W80129   8.257  31.514  13.970
 9530W        W80130  25.442  27.650  14.466
 9531W        W80131  38.491  20.140   4.267
 9532W        W80132  17.076  11.347   2.803
 9533W        W80133  44.227   3.859  12.172
 9534W        W80134  26.148  38.791  13.831
 9535W        W80135  31.918  43.841  12.445
 9536W        W80136  23.260   9.187  12.535
 9537W        W80137  13.136  15.377   1.486
 9538W        W80138  40.363  17.040   4.615
 9539W        W80139   1.248  43.877   3.600
 9540W        W80140  16.144  33.476  14.213
 9541W        W80141   7.393  10.802   1.305
 9542W        W80142  36.995  14.729   2.894
 9543W        W80143  20.962   3.647   0.499
 9544W        W80144   6.299  23.250   4.279
 9545W        W80145   0.954  38.403   3.190
 9546W        W80146   1.828  21.021   0.400
 9547W        W80147  41.313  22.489  14.616
 9548W        W80148   6.900  35.481   2.649
 9549W        W80149  37.579  39.822   2.897
 9550W        W80150  19.229  16.218  10.575
 9551W        W80151  44.281  22.164   4.604
 9552W        W80152  11.678  34.680   1.701
 9553W        W80153   3.827  15.569  14.338
 9554W        W80154  19.249  19.302  12.895
 9555W        W80155  43.620   1.492  11.123
 9556W        W80156   4.419  33.378  11.935
 9557W        W80157   2.446  32.356   5.018
 9558W        W80158   1.917  27.209   2.790
 9559W        W80159  39.378  42.441   4.272
 9560W        W80160  33.399  27.709  10.570
 9561W        W80161  21.154   3.442  10.750
 9562W        W80162  42.881  16.241   3.683
 9563W        W80163  18.202  18.019  14.394
 9564W        W80164  34.560  26.086   1.380
 9565W        W80165  30.913  44.502  13.094
 9566W        W80166  17.273  34.854   3.227
 9567W        W80167  23.649   9.217  11.491
 9568W        W80168  36.534  13.072  12.037
 9569W        W80169   1.465   2.264   4.584
 9570W        W80170  11.178  13.137  10.944
 9571W        W80171   9.048  14.056   1.234
 9572W        W80172  38.254  15.212   4.921
 9573W        W80173  33.463  18.074   4.241
 9574W        W80174  41.768  22.070   2.339
 9575W        W80175  24.275  25.093   1.382
 9576W        W80176  25.685   3.920  12.056
 9577W        W80177   9.885  33.209   2.491
 9578W        W80178  28.321  30.623  13.740
 9579W        W80179  18.810  43.410  11.100
 9580W        W80180  26.566  44.377  11.945
 9581W        W80181  22.497  27.977  10.740
 9582W        W80182  17.890  44.633   2.154
 9583W        W80183  42.818   1.313   4.223
 9584W        W80184  27.466  29.815   1.313
 9585W        W80185  24.046  43.204   2.747
 9586W        W80186   2.561   3.210   2.102
 9587W        W80187  41.671  37.858  11.139
 9588W        W80188   5.473   1.993   1.607
 9589W        W80189  30.408   6.445  11.164
 9590W        W80190  11.430  24.195  12.902
 9591W        W80191   4.346   6.472  14.687
 9592W        W80192  37.065   6.062   1.925
 9593W        W80193  36.281  32.044   4.474
 9594W        W80194  20.091   0.822  11.988
 9595W        W80195  12.096  30.867   4.237
 9596W        W80196   5.402  31.939  11.091
 9597W        W80197  27.194  11.819  14.882
 9598W        W80198  39.805  36.298   1.414
 9599W        W80199  24.223   0.807   0.285
 9600W        W80200   8.001  37.895  12.463
 9601W        W80201  18.648  39.373   2.437
 9602W        W80202  36.497  41.917  13.304
 9603W        W80203   3.932   2.348  13.785
 9604W        W80204  21.139   0.781   2.308
 9605W        W80205   0.080  15.120  12.547
 9606W        W80206  22.588   6.879   4.698
 9607W        W80207  35.085  24.065  11.329
 9608W        W80208  17.628   7.151  10.561
 9609W        W80209   4.621  23.392   1.738
 9610W        W80210   0.583  21.725   1.369
 9611W        W80211  16.708  44.654   3.134
 9612W        W80212  44.300  42.452   2.201
 9613W        W80213   3.503   9.594  12.558
 9614W        W80214   5.174  32.995   1.238
 9615W        W80215  40.491  41.316  11.231
 9616W        W80216  31.931  28.347   4.928
 9617W        W80217  36.079  43.101  14.198
 9618W        W80218   6.878  27.682  11.843
 9619W        W80219  30.319   9.017   5.092
 9620W        W80220  29.698   2.475  11.762
 9621W        W80221  39.591  24.184   3.135
 9622W        W80222   0.100  26.076  12.845
 9623W        W80223  18.898  29.370  11.462
 9624W        W80224  44.757  31.067   1.855
 9625W        W80225   5.758  38.396   2.380
 9626W        W80226  38.092  35.693   0.878
 9627W        W80227  20.068  38.237  14.247
 9628W        W80228  44.067   2.362  10.742
 9629W        W80229  30.142   4.747  13.609
 9630W        W80230   4.929  37.424   0.868
 9631W        W80231  21.570  13.130   2.507
 9632W        W80232   0.738   3.979   1.467
 9633W        W80233  25.977  36.334  11.910
 9634W        W80234   7.763  23.745   4.519
 9635W        W80235   5.163  39.445   0.754
 9636W        W80236   8.391  27.416  11.117
 9637W        W80237  41.022   4.016   1.278
 9638W        W80238  30.613   0.285   0.061
 9639W        W80239  34.948  43.492   1.169
 9640W        W80240   1.780  44.102   0.395
 9641W        W80241  44.043  18.067  13.959
 9642W        W80242  34.992   8.669  10.651
 9643W        W80243  36.350   0.267   0.246
 9644W        W80244  27.212  17.612   0.409
 9645W        W80245   0.748  39.648   3.699
 9646W        W80246   6.936  44.913  11.673
 9647W        W80247   4.321  29.541   0.552
 9648W        W80248  43.265  25.004  11.664
 9649W        W80249   9.236  30.830  12.018
 9650W        W80250   3.951  23.525  13.505
 9651W        W80251  12.028   9.453  12.516
 9652W        W80252  27.684   6.671  14.922
 9653W        W80253  33.987  25.493   3.308
 9654W        W80254   6.320  44.806  12.781
 9655W        W80255  33.211  37.441  13.306
 9656W        W80256  16.580  31.010  14.808
 9657W        W80257   7.731  42.296   4.253
 9658W        W80258  15.849   1.182   2.710
 9659W        W80259  13.621   8.345   3.786
 9660W        W80260   2.633  19.272  13.773
 9661W        W80261  42.402  44.541  13.363
 9662W        W80262  23.616  21.518   2.284
 9663W        W80263  23.517   7.294  11.643
 9664W        W80264  44.901   7.685   2.546
 9665W        W80265  35.832  15.189   1.163
 9666W        W80266   4.738  17.646  12.121
 9667W        W80267  39.881   6.508  11.868
 9668W        W80268  16.001   2.491  12.031
 9669W        W80269   0.412  31.076   0.999
 9670W        W80270   8.687  39.430   3.837
 9671W        W80271  31.972   1.906  11.754
 9672W        W80272   8.119   2.774  10.509
 9673W        W80273   3.273  35.446  13.399
 9674W        W80274  44.317  17.584   0.520
 9675W        W80275  24.495  26.698  13.005
 9676W        W80276  18.257  22.728   3.611
 9677W        W80277  41.890  16.803   2.310
 9678W        W80278  14.078  27.221   2.490
 9679W        W80279  41.791   0.276  11.210
 9680W        W80280  36.775  34.096  13.800
 9681W        W80281  11.310   1.822  14.296
 9682W        W80282   4.720  14.329   1.439
 9683W        W80283  38.166   4.254   1.302
 9684W        W80284  25.228  23.891   4.965
 9685W        W80285  41.334  37.603   0.472
 9686W        W80286   3.508  35.076  11.168
 9687W        W80287   5.884  19.813   0.342
 9688W        W80288   2.549  15.170   3.691
 9689W        W80289  15.413  34.460   2.312
 9690W        W80290  30.960   0.955  13.079
 9691W        W80291  30.433   0.710   1.257
 9692W        W80292   0.041  44.148  11.517
 9693W        W80293   5.594   7.913   4.887
 9694W        W80294   2.770  14.376  12.463
 9695W        W80295   5.737   2.508   2.292
 9696W        W80296  44.182  32.541   2.179
 9697W        W80297  18.557   4.405  14.336
 9698W        W80298  31.615  35.520  14.438
 9699W        W80299  30.110  26.979   3.636
 9700W        W80300  23.628  17.106   0.986
 9701W        W80301   2.337  27.894   0.900
 9702W        W80302   8.407   7.657   2.309
 9703W        W80303  44.968  23.566   2.165
 9704W        W80304   5.208  26.814   3.361
 9705W        W80305  34.695  38.087   0.498
 9706W        W80306  43.230   3.236   1.381
 9707W        W80307   2.108  13.883   0.435
 9708W        W80308  28.713   1.289   1.282
 9709W        W80309  14.269  22.025   0.922
 9710W        W80310  42.069  25.084  11.527
 9711W        W80311   9.349  22.740   1.326
 9712W        W80312  10.403  28.205   3.299
 9713W        W80313  24.404   4.076   1.922
 9714W        W80314  29.890  17.085  12.959
 9715W        W80315   7.125  37.502   3.429
 9716W        W80316   8.317  22.599  12.034
 9717W        W80317  25.494  40.437   0.014
 9718W        W80318   9.823  13.080  13.246
 9719W        W80319  37.555  17.331  12.456
 9720W        W80320   2.239  15.962  10.247
 9721W        W80321  15.157   2.495   0.388
 9722W        W80322  42.267  31.694   3.676
 9723W        W80323   7.771  35.817   1.871
 9724W        W80324  42.185   5.542   3.485
 9725W        W80325   3.272  29.126   0.688
 9726W        W80326  15.518  17.333  11.184
 9727W        W80327   8.148  24.010   1.258
 9728W        W80328   2.362  35.497   0.830
 9729W        W80329  22.013  18.618  10.826
 9730W        W80330  10.619  33.007  10.581
 9731W        W80331  34.024  35.688   0.330
 9732W        W80332  28.668  32.345   3.756
 9733W        W80333  15.030  30.523   1.213
 9734W        W80334   9.658  40.367  12.936
 9735W        W80335   1.204  39.820   3.182
 9736W        W80336  23.153  25.981   2.357
 9737W        W80337   6.259  18.152   3.667
 9738W        W80338  26.930   2.583   1.798
 9739W        W80339   0.814   5.241   3.629
 9740W        W80340  21.591   1.849   2.141
 9741W        W80341  40.405  35.494   4.089
 9742W        W80342   0.812  11.393   2.636
 9743W        W80343  14.809  40.844   4.583
 9744W        W80344   7.313  16.164  13.922
 9745W        W80345  35.925  40.729   0.756
 9746W        W80346  27.131   7.391  12.477
 9747W        W80347  18.236   9.869   0.028
 9748W        W80348  40.393  18.167   3.107
 9749W        W80349  11.453  13.588   0.943
 9750W        W80350  33.575   7.772  11.625
 9751W        W80351   5.746  42.488  12.995
 9752W        W80352  35.229  29.586  11.734
 9753W        W80353  38.472   7.306   1.737
 9754W        W80354  36.403  34.660  12.961
 9755W        W80355  39.626  28.742   3.970
 9756W        W80356  31.111  33.984   1.152
 9757W        W80357  31.860  42.426   2.611
 9758W        W80358  37.772  28.759  11.036
 9759W        W80359  37.489   5.398  14.408
 9760W        W80360  13.352  10.416   0.432
 9761W        W80361  42.745  26.167  11.041
 9762W        W80362  44.840  10.060   2.864
 9763W        W80363  38.786  13.757   3.726
 9764W        W80364  42.477  26.003   4.764
 9765W        W80365   3.989  23.701   3.095
 9766W        W80366  30.027  42.960  10.644
 9767W        W80367  26.981  43.082   0.972
 9768W        W80368  32.360  13.389  13.325
 9769W        W80369  40.914  21.702  10.968
 9770W        W80370  31.061  22.310   2.075
 9771W        W80371  13.102  26.082   4.215
 9772W        W80372  34.994  17.070   5.069
 9773W        W80373   3.669  32.298  10.531
 9774W        W80374  10.199   0.400   4.505
 9775W        W80375  36.186  15.614  12.001
 9776W        W80376  38.408  24.454   3.683
 9777W        W80377  17.607  20.145   4.179
 9778W        W80378   2.746  13.058   0.298
 9779W        W80379   5.884  13.361  11.914
 9780W        W80380  10.376  17.089  13.811
 9781W        W80381  12.090  22.100  12.869
 9782W        W80382  23.301   9.434   5.060
 9783W        W80383   8.813  30.106   4.589
 9784W        W80384  10.475  41.349   3.310
 9785W        W80385  15.221  18.279  12.824
 9786W        W80386  31.856  25.911   0.899
 9787W        W80387  34.430  44.559  11.036
 9788W        W80388  29.857  17.025  10.960
 9789W        W80389  10.126  29.514   1.700
 9790W        W80390  34.996  28.797   2.217
 9791W        W80391   7.754  19.578  14.866
 9792W        W80392  30.434  15.106  12.970
 9793W        W80393  25.776  25.627   4.134
 9794W        W80394   0.964  22.456   2.763
 9795W        W80395  25.645  18.067  11.034
 9796W        W80396  10.346   1.727   2.932
 9797W        W80397  30.173  33.128   3.120
 9798W        W80398  10.093  35.120  14.897
 9799W        W80399  23.148  42.336  12.954
 9800W        W80400   4.851  18.270  10.525
 9801W        W80401  20.754  10.880   1.268
 9802W        W80402   9.301   2.709  14.825
 9803W        W80403   6.299  39.766   0.004
 9804W        W80404  17.704  39.604  12.004
 9805W        W80405  14.091  32.075  13.831
 9806W        W80406  20.442  26.063  13.092
 9807W        W80407  24.983  10.552   2.481
 9808W        W80408  21.528  29.224  12.538
 9809W        W80409  11.344  43.327  14.938
 9810W        W80410  36.686  28.254  10.247
 9811W        W80411  30.628  21.115   2.629
 9812W        W80412  33.506   6.743   0.483
 9813W        W80413  21.061  38.611  10.045
 9814W        W80414  14.759  38.305  11.122
 9815W        W80415  17.466  44.921   2.147
 9816W        W80416  12.807  25.316  12.994
 9817W        W80417  44.559  32.143   0.515
 9818W        W80418  39.773   1.251  14.525
 9819W        W80419  39.059  32.529  11.187
 9820W        W80420  24.141   3.364  12.621
 9821W        W80421  18.066  11.576   4.486
 9822W        W80422   9.323  20.746  10.319
 9823W        W80423  44.426  17.766   4.290
 9824W        W80424  35.944  26.474  14.856
 9825W        W80425  15.406  29.547  12.374
 9826W        W80426  26.422  31.157   2.740
 9827W        W80427  35.973  21.554  12.974
 9828W        W80428   5.943  38.279   3.403
 9829W        W80429  32.470   2.315  11.071
 9830W        W80430  11.567  33.080   1.959
 9831W        W80431  33.022   2.001  13.538
 9832W        W80432  42.800   9.654  14.931
 9833W        W80433  24.123  34.836  13.862
 9834W        W80434  35.500  41.758  13.568
 9835W        W80435  39.530  35.136  13.712
 9836W        W80436  12.089  38.111   4.197
 9837W        W80437  20.848  28.583  11.078
 9838W        W80438  40.906  31.008   1.816
 9839W        W80439  38.107  25.618   4.234
 9840W        W80440   5.788   4.223   3.109
 9841W        W80441  43.367  21.762   0.822
 9842W        W80442  29.006  43.879   1.363
 9843W        W80443  44.655   7.215   1.244
 9844W        W80444  23.117  12.712   4.854
 9845W        W80445  35.821  24.296  13.996
 9846W        W80446  39.267   5.332   0.992
 9847W        W80447  20.829  24.998  13.356
 9848W        W80448  43.816  42.910   5.044
 9849W        W80449  28.484  26.139  11.401
 9850W        W80450  42.208  42.923  10.598
 9851W        W80451  22.794  11.163   4.629
 9852W        W80452  16.839  43.744  13.015
 9853W        W80453  26.946  35.478  14.341
 9854W        W80454  13.815  27.482  13.072
 9855W        W80455  23.961   0.088   2.687
 9856W        W80456   0.405  11.399  13.200
 9857W        W80457  24.961  13.534  12.619
 9858W        W80458  21.722  15.170   3.363
 9859W        W80459   8.625   8.648  12.872
 9860W        W80460   9.713  34.239   4.788
 9861W        W80461  40.321  25.206   3.052
 9862W        W80462  25.749   9.194   4.284
 9863W        W80463   5.896  41.878  11.379
 9864W        W80464  15.261  16.342  11.462
 9865W        W80465  18.793  43.407   4.381
 9866W        W80466  27.557  29.604  11.434
 9867W        W80467   5.484  31.521   0.461
 9868W        W80468  28.930   3.249  14.326
 9869W        W80469  33.711  43.365   0.438
 9870W        W80470   7.337  42.841  10.748
 9871W        W80471  38.542  31.017   4.710
 9872W        W80472  30.296  44.323  11.902
 9873W        W80473   4.293   1.878  12.984
 9874W        W80474  25.998  36.996  11.139
 9875W        W80475  21.634  40.705  12.453
 9876W        W80476  21.776  13.869  11.602
 9877W        W80477  40.983  28.111   3.964
 9878W        W80478  19.156  23.148   4.151
 9879W        W80479  35.815  37.751   4.367
 9880W        W80480  18.155  39.032  12.561
 9881W        W80481  42.933  29.105  11.039
 9882W        W80482  28.800  39.430   0.636
 9883W        W80483  34.898   2.922  11.873
 9884W        W80484  13.664  14.193  12.595
 9885W        W80485  35.047  38.278  14.481
 9886W        W80486  40.540   7.127   0.691
 9887W        W80487  39.303  41.326   0.802
 9888W        W80488   2.786  38.381   4.385
 9889W        W80489   1.414  27.416   4.040
 9890W        W80490  30.374  19.433  13.793
 9891W        W80491  12.555  21.122   3.663
 9892W        W80492  19.732  44.866  14.537
 9893W        W80493  41.973  27.103   3.517
 9894W        W80494  15.689   8.677   0.088
 9895W        W80495  33.480   5.591   3.516
 9896W        W80496  31.559  20.787  14.570
 9897W        W80497  26.231  29.995   0.605
 9898W        W80498  13.545  14.226  11.538
 9899W        W80499  24.456  13.343   4.273
 9900W        W80500  16.387   4.876  10.773
 9901W        W80501  26.655  25.514  14.356
 9902W        W80502  34.151  24.957  13.585
 9903W        W80503  41.853  22.287   4.647
 9904W        W80504  26.696  30.931  13.841
 9905W        W80505   5.426  23.517   0.281
 9906W        W80506   0.380  24.065   0.837
 9907W        W80507  22.520  25.401   3.720
 9908W        W80508  36.439  25.757   2.790
 9909W        W80509   0.860  37.898  13.437
 9910W        W80510  28.931  32.520   1.496
 9911W        W80511  19.291  16.823   1.833
 9912W        W80512   2.284  38.026   1.874
 9913W        W80513  18.080  11.934   2.184
 9914W        W80514  12.893  21.612  13.846
 9915W        W80515  28.489  34.578  12.984
 9916W        W80516  10.091  18.552   2.325
 9917W        W80517   8.549   0.140   2.711
 9918W        W80518   3.718  38.432  12.903
 9919W        W80519   8.723  21.189   4.610
 9920W        W80520  22.465   8.477   3.031
 9921W        W80521  34.357   8.514  13.113
 9922W        W80522   9.339  35.797  10.040
 9923W        W80523  15.697  15.374   4.537
 9924W        W80524  35.278  29.142   1.925
 9925W        W80525  44.550  18.024  11.111
 9926W        W80526   3.745  32.630  14.256
 9927W        W80527  20.451  38.913  10.757
 9928W        W80528   1.806  41.450  14.717
 9929W        W80529  31.959  44.190   4.051
 9930W        W80530  27.454  16.818  10.735
 9931W        W80531  15.311  27.304  14.515
 9932W        W80532  20.046   7.643  11.978
 9933W        W80533  39.369  21.568  13.941
 9934W        W80534  26.206  36.505  10.994
 9935W        W80535  20.769   3.668  11.924
 9936W        W80536  14.112  16.298  12.954
 9937W        W80537   1.218  31.376  11.960
 9938W        W80538  26.714  39.315  12.456
 9939W        W80539  42.005   3.918  13.558
 9940W        W80540   0.953   2.369   4.581
 9941W        W80541  19.326  36.407  13.575
 9942W        W80542   9.152  11.318   0.022
 9943W        W80543  14.677  20.177   4.642
 9944W        W80544  25.692   1.872   0.070
 9945W        W80545   0.966   0.250   0.802
 9946W        W80546  29.539  13.843   2.983
 9947W        W80547  22.717  20.146   4.714
 9948W        W80548  16.355  41.817  13.434
 9949W        W80549  22.092   1.332   2.665
 9950W        W80550  14.658   2.964  14.043
 9951W        W80551  43.516  40.521   1.851
 9952W        W80552  38.826  29.219  10.374
 9953W        W80553  29.309  25.199   4.169
 9954W        W80554  23.455  14.366  12.003
 9955W        W80555  26.977  29.469   4.097
 9956W        W80556  30.627  25.697  11.784
 9957W        W80557  23.950  44.465  13.933
 9958W        W80558  34.047   8.167   4.049
 9959W        W80559  31.789   8.423   4.113
 9960W        W80560   2.763  44.524  13.933
 9961W        W80561  14.809  18.042  13.043
 9962W        W80562  25.483   0.136   9.862
 9963W        W80563  40.999  26.119  11.414
 9964W        W80564  43.321   4.270  14.367
 9965W        W80565  35.932  40.412  12.313
 9966W        W80566  13.550  36.421   1.007
 9967W        W80567  36.310  19.051  11.910
 9968W        W80568  43.927  34.657   2.310
 9969W        W80569  33.958  22.242   3.601
 9970W        W80570  42.747   9.419  13.843
 9971W        W80571   4.711  21.710  12.016
 9972W        W80572  15.391  42.813   0.311
 9973W        W80573  40.208   8.153  12.082
 9974W        W80574  18.832  42.785  10.705
 9975W        W80575   0.467  40.346  14.504
 9976W        W80576  29.366  24.462  13.004
 9977W        W80577  29.471   7.719  12.089
 9978W        W80578   5.182  19.263   0.264
 9979W        W80579  37.358   3.142   1.052
 9980W        W80580  22.512  19.724   2.681
 9981W        W80581   4.944  25.223  14.960
 9982W        W80582  18.732  36.769  12.957
 9983W        W80583  35.332  22.604  10.527
 9984W        W80584  19.692  25.141  12.628
 9985W        W80585  12.538  12.774   1.019
 9986W        W80586   6.359   1.729  12.105
 9987W        W80587   7.236  42.522  13.871
 9988W        W80588  12.301  22.167   1.958
 9989W        W80589  14.324  12.837   4.117
 9990W        W80590   7.379  28.436  11.085
 9991W        W80591  15.993  40.847  14.276
 9992W        W80592   2.365  34.475   1.194
 9993W        W80593  14.730  16.270  13.555
 9994W        W80594  22.158  21.726   0.630
 9995W        W80595  32.095   6.061   0.385
 9996W        W80596  35.447  39.377   3.400
 9997W        W80597  23.780  16.070  12.723
 9998W        W80598  40.269  34.775   5.002
 9999W        W80599  39.489  39.763  14.066
10000W        W80600   1.782   0.724   3.267
10001W        W80601  11.356  21.492   1.315
10002W        W80602   1.407   0.422   3.077
10003W        W80603  17.519  42.755  10.218
10004W        W80604   3.511  15.769   2.210
10005W        W80605  33.560  43.650  14.323
10006W        W80606  23.552  43.454   4.801
10007W        W80607  32.284  13.705   2.886
10008W        W80608   2.458  15.923  10.723
10009W        W80609   0.466  31.449  13.545
10010W        W80610  26.407  22.510   2.861
10011W        W80611  14.486  17.379  10.713
10012W        W80612  27.081  14.494   0.655
10013W        W80613  27.181  32.160  14.384
10014W        W80614  43.524  24.626   3.671
10015W        W80615  19.028   0.431  11.156
10016W        W80616   2.701  38.011  14.449
10017W        W80617  11.915   9.215  12.036
10018W        W80618  13.720   1.143   2.304
10019W        W80619   6.884  28.336  13.335
10020W        W80620  38.375  25.195   4.112
10021W        W80621  32.059   3.964  13.895
10022W        W80622  12.800  43.539  10.167
10023W        W80623  17.530  15.203  12.498
10024W        W80624  10.348  15.215   0.201
10025W        W80625  44.922  26.227  14.540
10026W        W80626  35.458  14.277   0.049
10027W        W80627  25.291   8.981   4.564
10028W        W80628   1.323  39.270   2.386
10029W        W80629  40.354   3.746  12.564
10030W        W80630  15.678  19.765   0.722
10031W        W80631  11.654  14.707   0.728
10032W        W80632  44.835  41.240   1.324
10033W        W80633  16.003  25.052  10.298
10034W        W80634  41.073  25.192  10.757
10035W        W80635  16.527  28.581  10.822
10036W        W80636  13.512  18.329  12.474
10037W        W80637  31.749  22.196  14.936
10038W        W80638  43.466  41.802   4.208
10039W        W80639   3.018  10.713   4.249
10040W        W80640  14.356  32.631   1.836
10041W        W80641  21.642  33.516  11.749
10042W        W80642  43.010  22.418   0.343
10043W        W80643  18.636  11.675   0.855
10044W        W80644  28.451  33.847   2.373
10045W        W80645  38.686  26.457  14.810
10046W        W80646   4.465  42.355  14.452
10047W        W80647   3.134   2.001   1.302
10048W        W80648  38.588   9.758   4.134
10049W        W80649   2.270  20.558  11.712
10050W        W80650  12.897  21.722  12.144
10051W        W80651  34.459  32.181  11.434
10052W        W80652   3.846   4.841   3.843
10053W        W80653  25.093  17.561  13.051
10054W        W80654   6.640   0.051  12.076
10055W        W80655  10.959  32.506  14.772
10056W        W80656   8.604  42.185  11.517
10057W        W80657  43.584  37.292   3.692
10058W        W80658  22.938  35.014  13.048
10059W        W80659  33.145  32.146  12.490
10060W        W80660   9.248  38.452   2.764
10061W        W80661   1.430  18.224   0.426
10062W        W80662  35.636   2.502  10.969
10063W        W80663  30.520  23.745  11.498
10064W        W80664  42.047  40.076  12.469
10065W        W80665   9.261  42.428   4.696
10066W        W80666  10.583  31.017  13.481
10067W        W80667  10.277  28.039  12.644
10068W        W80668  34.837  35.291   2.728
10069W        W80669   3.868  24.620   1.340
10070W        W80670  44.743  41.644  12.494
10071W        W80671  15.442  36.694  12.086
10072W        W80672  42.409  29.405   1.409
10073W        W80673  43.818  40.474   4.537
10074W        W80674   7.662  14.809   4.891
10075W        W80675  32.678  43.662  14.435
10076W        W80676  20.810  39.096   4.941
10077W        W80677  39.077   8.132  14.818
10078W        W80678  24.696  43.793  13.021
10079W        W80679   6.356  41.556   0.975
10080W        W80680  36.723  12.213  14.509
10081W        W80681   7.013  14.898   1.745
10082W        W80682  42.564  29.935  10.654
10083W        W80683  31.000  27.984   3.777
10084W        W80684   3.920   8.827   5.032
10085W        W80685  29.518  19.021   4.239
10086W        W80686  28.333  17.643  13.363
10087W        W80687   4.356  30.863  11.848
10088W        W80688   9.560  15.173   2.384
10089W        W80689  38.094  23.696  14.483
10090W        W80690  28.677  25.760  13.240
10091W        W80691  40.667   4.668  13.466
10092W        W80692  11.298  17.273   0.716
10093W        W80693  16.765   1.447  10.713
10094W        W80694   3.250   1.259  13.907
10095W        W80695  25.962  15.356  12.553
10096W        W80696  15.288  37.783  11.393
10097W        W80697  17.619  22.247   3.202
10098W        W80698   4.503  19.134   3.240
10099W        W80699  30.136   5.480  11.841
10100W        W80700   3.704  12.786  11.699
10101W        W80701  19.492  42.424  13.165
10102W        W80702  18.087   5.793   1.695
10103W        W80703  23.316  17.295  11.918
10104W        W80704  30.911  36.423   0.934
10105W        W80705  22.226   1.418   4.577
10106W        W80706  38.205   4.127   0.795
10107W        W80707  24.433  40.533  14.744
10108W        W80708  20.664  37.611  13.062
10109W        W80709  13.668  18.990  11.209
10110W        W80710  13.210  40.785   2.782
10111W        W80711   8.392  32.929  11.602
10112W        W80712  38.516  22.719   0.708
10113W        W80713  15.168   1.199  13.343
10114W        W80714  24.983  44.095  14.407
10115W        W80715  13.144  28.238  10.201
10116W        W80716  31.319  41.695  14.924
10117W        W80717   3.463  24.878   2.739
10118W        W80718  29.508   9.797   4.530
10119W        W80719  16.793  12.153   1.921
10120W        W80720  12.137   1.539  13.869
10121W        W80721  23.112   7.440   0.850
10122W        W80722  37.973  25.726   0.844
10123W        W80723  31.004  20.629  14.788
10124W        W80724  42.567   5.955  12.957
10125W        W80725   5.917   0.150  14.482
10126W        W80726  18.226  25.058  14.506
10127W        W80727  44.979  13.670   3.317
10128W        W80728   6.828  35.610  14.332
10129W        W80729   9.505   4.932  13.439
10130W        W80730  38.941  32.913  10.447
10131W        W80731  29.177   0.913  14.026
10132W        W80732  25.581  31.165   3.967
10133W        W80733  27.719  23.529  12.544
10134W        W80734   7.698   1.683  14.625
10135W        W80735  31.119  44.531   0.501
10136W        W80736  26.120  34.784   3.685
10137W        W80737  32.788  18.739   3.635
10138W        W80738  25.748  35.524  11.541
10139W        W80739   3.536   6.713   3.538
10140W        W80740   1.425   7.286   2.807
10141W        W80741  13.612  32.364  13.732
10142W        W80742  27.793   5.461  14.067
10143W        W80743   5.804  37.871   3.667
10144W        W80744   2.479  26.511  12.913
10145W        W80745  25.998  20.639   4.419
10146W        W80746  27.993   7.284  10.225
10147W        W80747  21.778  33.504   1.334
10148W        W80748   1.475  32.403   2.421
10149W        W80749  25.624  25.472  11.137
10150W        W80750  21.788  34.064   0.733
10151W        W80751  31.162  32.222   3.137
10152W        W80752  31.979  11.667  10.758
10153W        W80753  35.993  32.527  10.974
10154W        W80754  39.369  10.216   3.208
10155W        W80755   4.141   2.936  12.044
10156W        W80756   9.062  11.396   3.660
10157W        W80757   8.289  33.998  11.619
10158W        W80758   5.693  41.395  11.386
10159W        W80759  10.356  30.498   2.111
10160W        W80760  24.852   8.119   3.532
10161W        W80761  21.053  42.546  13.582
10162W        W80762  43.740  21.085  12.421
10163W        W80763  13.087  38.069  12.778
10164W        W80764  21.997  29.334   3.201
10165W        W80765  35.050  22.072   1.373
10166W        W80766  12.589  42.501   2.834
10167W        W80767   5.773  32.015   4.846
10168W        W80768  35.961   9.482   0.923
10169W        W80769  37.729   0.298  12.922
10170W        W80770  36.870  41.235   4.125
10171W        W80771  12.484   3.770   2.658
10172W        W80772  40.223  39.792  12.874
10173W        W80773   9.442  40.265  14.873
10174W        W80774  22.764  20.229  10.703
10175W        W80775  22.648  29.675   1.861
10176W        W80776  34.362  27.613  12.071
10177W        W80777  38.881  13.810  10.509
10178W        W80778  21.220   9.654  13.849
10179W        W80779  23.529  41.942  14.999
10180W        W80780  31.454   8.975   0.362
10181W        W80781  44.746   3.943   4.669
10182W        W80782  28.389  30.445  12.961
10183W        W80783  44.002  38.244  13.022
10184W        W80784  33.793  39.785  14.786
10185W        W80785  18.576   8.616   2.888
10186W        W80786  17.409   0.456  14.456
10187W        W80787  30.568   5.530  13.851
10188W        W80788  37.610   8.345  13.389
10189W        W80789  43.409  16.002  14.521
10190W        W80790  39.559  23.111  12.909
10191W        W80791   9.326  19.570  12.032
10192W        W80792  14.558  33.521   3.153
10193W        W80793  39.940  30.619   4.932
10194W        W80794   2.642  23.850   3.304
10195W        W80795  26.055  39.763  13.835
10196W        W80796  12.364  13.169   4.145
10197W        W80797  32.583  13.195  14.545
10198W        W80798  13.099   6.938   3.969
10199W        W80799  43.932  19.228   4.575
10200W        W80800  10.503  23.966   0.787
10201W        W80801   7.376  33.559  14.427
10202W        W80802  25.203  29.937   0.253
10203W        W80803  12.603  41.726   2.276
10204W        W80804  29.822  25.893   2.224
10205W        W80805  21.746  36.093   1.912
10206W        W80806  19.048   3.491   3.350
10207W        W80807  24.971  34.957  12.530
10208W        W80808  27.671  15.729   3.617
10209W        W80809  17.017  40.710   1.236
10210W        W80810  22.803  19.886  14.692
10211W        W80811  12.608  13.693  14.509
10212W        W80812  44.105  11.248   2.723
10213W        W80813   6.481  18.185  10.257
10214W        W80814  24.662  42.119   3.389
10215W        W80815  44.260  38.355  14.191
10216W        W80816  11.323  30.145   4.727
10217W        W80817  37.560  13.943  12.469
10218W        W80818  25.496  39.744   4.738
10219W        W80819  17.923   1.361  14.494
10220W        W80820  21.507  16.651  13.876
10221W        W80821  29.403  25.595  14.927
10222W        W80822  36.326  32.855  11.188
10223W        W80823  27.000  31.566  12.720
10224W        W80824  25.873  28.161   0.611
10225W        W80825  19.613  21.676  10.669
10226W        W80826  38.499  44.789   1.174
10227W        W80827  41.263  33.520  11.940
10228W        W80828   9.370  33.970   2.316
10229W        W80829  22.673  29.939  13.936
10230W        W80830  31.144  11.615  11.691
10231W        W80831  18.827  14.141   4.530
10232W        W80832  35.751  42.950   4.967
10233W        W80833  32.983  38.873   0.474
10234W        W80834  44.920  43.671  13.790
10235W        W80835   0.231   0.201  12.084
10236W        W80836  30.002   2.819  14.974
10237W        W80837  12.376  21.438  13.888
10238W        W80838   1.950  17.169   4.195
10239W        W80839  29.100   6.181  12.988
10240W        W80840  43.270  42.044   4.628
10241W        W80841  19.510  13.634  10.628
10242W        W80842  36.484  27.105  13.857
10243W        W80843  25.348  16.160   2.442
10244W        W80844  17.334  36.624  12.929
10245W        W80845   9.324  43.882  11.018
10246W        W80846  36.431  21.096   3.063
10247W        W80847  35.904  25.705   0.460
10248W        W80848   8.840   3.524   1.432
10249W        W80849  14.251  18.148   2.309
10250W        W80850   2.882  27.491   4.235
10251W        W80851   3.038   1.246   4.476
10252W        W80852  22.619  39.893  14.159
10253W        W80853   1.863  27.165   4.220
10254W        W80854   1.213  41.787  12.544
10255W        W80855  44.482  14.605   3.574
10256W        W80856  11.621   0.638  12.018
10257W        W80857  40.780  32.188   4.889
10258W        W80858  31.954  19.575   4.894
10259W        W80859  24.447  39.898   3.262
10260W        W80860  15.877  33.569  11.594
10261W        W80861  18.222  34.376  13.417
10262W        W80862   0.017  19.097   0.967
10263W        W80863  32.149  41.383  14.954
10264W        W80864  26.687  43.879   4.124
10265W        W80865   2.801  31.206  12.605
10266W        W80866  31.886  23.341  13.910
10267W        W80867  12.327   6.337   2.160
10268W        W80868  37.647  30.529  11.605
10269W        W80869  25.742   4.197  10.663
10270W        W80870   6.832  33.407   0.145
10271W        W80871  39.543   9.906   1.702
10272W        W80872   4.686  18.737   0.871
10273W        W80873  17.474  21.565  14.766
10274W        W80874   9.250  24.492   0.819
10275W        W80875  34.771   5.251   3.607
10276W        W80876   5.240   6.209  11.244
10277W        W80877  37.832   6.721   1.358
10278W        W80878  32.410  41.367   4.780
10279W        W80879  23.731  18.020  14.762
10280W        W80880  39.449   5.877   2.765
10281W        W80881  31.066  28.360  14.797
10282W        W80882  35.587  33.619   2.808
10283W        W80883  29.157  35.340   4.119
10284W        W80884   5.850  28.663   3.283
10285W        W80885  11.730  18.692   2.324
10286W        W80886   4.728  39.123  13.830
10287W        W80887  38.852  35.412   2.579
10288W        W80888  35.043  20.350  10.711
10289W        W80889   5.515  27.949   0.168
10290W        W80890  17.016  34.089  13.546
10291W        W80891  35.042  21.640  11.517
10292W        W80892  30.015  15.275   5.032
10293W        W80893  18.509   0.744  13.797
10294W        W80894  11.661  14.521   4.117
10295W        W80895  41.947  27.784   0.923
10296W        W80896  34.082  39.324   0.711
10297W        W80897  35.792  42.825   2.410
10298W        W80898   6.186  42.672   4.534
10299W        W80899  18.102  14.183  10.420
10300W        W80900  10.607  28.595  14.914
10301W        W80901  13.086  21.401  11.111
10302W        W80902  37.406  32.676  12.080
10303W        W80903  33.587  27.222  12.440
10304W        W80904   6.918  27.006   3.383
10305W        W80905  13.878  17.808  12.905
10306W        W80906  21.614  15.185   2.829
10307W        W80907  19.463   8.181   1.915
10308W        W80908  25.087  32.178  11.510
10309W        W80909  33.878   7.372  12.774
10310W        W80910   0.188  31.492   0.493
10311W        W80911  18.073  32.122   4.558
10312W        W80912  38.550  10.093  12.055
10313W        W80913  42.823  25.007   0.440
10314W        W80914   9.362   0.315   3.792
10315W        W80915   2.401   0.450   1.967
10316W        W80916   6.385   3.944  13.494
10317W        W80917   9.199  11.653  13.368
10318W        W80918  42.811   8.658   0.966
10319W        W80919  24.031  19.510   4.532
10320W        W80920  40.103  40.643  14.935
10321W        W80921  10.777  24.912   2.865
10322W        W80922   3.342  34.553  11.264
10323W        W80923  37.534  12.210  13.376
10324W        W80924   9.117  40.400  12.874
10325W        W80925  19.791  34.238  11.788
10326W        W80926   4.437  29.623  11.520
10327W        W80927  37.616  35.904  13.671
10328W        W80928  18.688  29.637   4.879
10329W        W80929  17.457   5.339   0.655
10330W        W80930  40.949   2.875   1.808
10331W        W80931   2.641  27.373   0.388
10332W        W80932   4.976  34.386  11.108
10333W        W80933   8.343  44.131   0.399
10334W        W80934  24.407  35.401   4.351
10335W        W80935  15.802  37.485  10.757
10336W        W80936  18.009  23.580  13.388
10337W        W80937  10.615   4.426   4.590
10338W        W80938  30.123   2.928  13.898
10339W        W80939  13.197  19.628   3.818
10340W        W80940   5.485   5.420  13.906
10341W        W80941  18.674   7.866   3.819
10342W        W80942  12.618  44.919  14.435
10343W        W80943  11.366  30.708   0.341
10344W        W80944  31.434  28.993   1.460
10345W        W80945   7.020  26.995   1.688
10346W        W80946  44.129   2.781  11.112
10347W        W80947  35.108  13.717   1.869
10348W        W80948   9.280  34.057   4.582
10349W        W80949  44.978  37.338  13.793
10350W        W80950  33.129  17.186   2.438
10351W        W80951  30.951  34.078  10.624
10352W        W80952   6.795  20.220  13.165
10353W        W80953  44.394  36.167  11.506
10354W        W80954  11.911  19.268   2.334
10355W        W80955   7.638  34.883   3.107
10356W        W80956  20.707  34.620  14.399
10357W        W80957  35.457  31.827  12.069
10358W        W80958   7.907  30.602  10.672
10359W        W80959  25.012   4.997  12.379
10360W        W80960   4.753  19.972   2.824
10361W        W80961  11.574  28.044  12.086
10362W        W80962  17.563  32.914   0.911
10363W        W80963  16.811  34.936   2.631
10364W        W80964   3.207   3.680   3.251
10365W        W80965  27.427  40.454   0.668
10366W        W80966  36.956   8.216   4.045
10367W        W80967  31.887  39.242  11.954
10368W        W80968  27.981  18.836   4.003
10369W        W80969  21.180  26.617  13.117
10370W        W80970  34.828  43.854  13.526
10371W        W80971  29.050   0.033  10.559
10372W        W80972   3.417  19.023   1.134
10373W        W80973  22.492  10.595   2.897
10374W        W80974  28.201   9.854  14.494
10375W        W80975  22.368  24.177   4.535
10376W        W80976  42.473  24.237   4.150
10377W        W80977  35.169  22.180   4.316
10378W        W80978   3.536   7.265  13.418
10379W        W80979  25.982  14.946  12.897
10380W        W80980  40.457  29.741  11.960
10381W        W80981  35.123  12.864  13.523
10382W        W80982   8.657  10.387  14.401
10383W        W80983  17.371   0.336  10.538
10384W        W80984   0.720   4.856  11.896
10385W        W80985   4.154   9.934  14.218
10386W        W80986  16.260  17.556  11.427
10387W        W80987  12.165   6.273   5.249
10388W        W80988  41.938  34.022   2.811
10389W        W80989  34.911  33.970   1.164
10390W        W80990  20.284  23.955   0.077
10391W        W80991  43.320  14.856  12.121
10392W        W80992   7.608  29.411  14.335
10393W        W80993  20.952  31.048  12.911
10394W        W80994  42.464   9.702  10.731
10395W        W80995  29.097  16.006   3.333
10396W        W80996  27.444  36.735   4.755
10397W        W80997   1.743  37.485  11.710
10398W        W80998  29.690  23.886   4.619
10399W        W80999  25.132   4.335   3.091
10400W        W81000  23.594   9.149   2.379
10401W        W81001  25.489  43.378  14.517
10402W        W81002  39.873  12.344   3.204
10403W        W81003  26.692   4.443   0.939
10404W        W81004  18.654   4.300   0.667
10405W        W81005  25.652   3.274  11.585
10406W        W81006   4.767  43.678   4.611
10407W        W81007  13.460   0.498   2.491
10408W        W81008  42.547  35.262  12.915
10409W        W81009  38.431  31.367  14.030
10410W        W81010  35.850  21.177   3.285
10411W        W81011  22.067  38.946   1.672
10412W        W81012  13.804  28.760  12.779
10413W        W81013  11.755  32.094   4.655
10414W        W81014  17.736  19.532  11.863
10415W        W81015  36.687  32.023   3.688
10416W        W81016  19.699  32.686  12.380
10417W        W81017  41.869   1.062   4.850
10418W        W81018   3.259  29.386   1.958
10419W        W81019  38.574  24.074   2.310
10420W        W81020  18.573   5.579   2.399
10421W        W81021  32.283  10.213  12.221
10422W        W81022  22.116   0.330   3.308
10423W        W81023  27.273  18.485  14.785
10424W        W81024  22.745  42.847  11.182
10425W        W81025  19.720  11.151   4.572
10426W        W81026  25.933   9.601   2.413
10427W        W81027  21.539  37.541  10.740
10428W        W81028  11.051  42.037  12.982
10429W        W81029  28.514   1.246   1.769
10430W        W81030   4.546  13.979   3.240
10431W        W81031  30.730  39.536  11.170
10432W        W81032  20.241  42.282  11.997
10433W        W81033  26.573   5.303   1.491
10434W        W81034  15.628  32.833  12.277
10435W        W81035  23.612  23.332  14.311
10436W        W81036  11.521   1.552   3.781
10437W        W81037   8.741  25.283  11.522
10438W        W81038   0.807  43.140   4.092
10439W        W81039  35.356  17.245  13.944
10440W        W81040  32.768  40.564  12.725
10441W        W81041  28.908  17.606  14.827
10442W        W81042  30.825  33.288  10.845
10443W        W81043  11.773  40.035   2.480
10444W        W81044  19.099  20.567   1.020
10445W        W81045  10.583  43.842  10.536
10446W        W81046  21.984  37.697   4.476
10447W        W81047  30.648  13.798  12.065
10448W        W81048  34.991  26.995   1.992
10449W        W81049  11.054  32.341   1.395
10450W        W81050  14.621  35.693   3.636
10451W        W81051  30.901  30.598   0.219
10452W        W81052  39.954  22.818   1.958
10453W        W81053  40.750  40.374   1.789
10454W        W81054  16.525  26.645  12.882
10455W        W81055  40.009   3.172  14.421
10456W        W81056   2.392  14.942  11.619
10457W        W81057  44.945  10.272   1.859
10458W        W81058   0.553  14.171  10.197
10459W        W81059  30.949   6.673   4.201
10460W        W81060  16.597  27.620  13.768
10461W        W81061  39.618  35.279  14.422
10462W        W81062  32.937  37.399   2.756
10463W        W81063  10.128  24.071  12.461
10464W        W81064   3.380   1.860   2.668
10465W        W81065  23.104  31.624   3.663
10466W        W81066  22.290  31.214  11.412
10467W        W81067   2.338  26.563   3.697
10468W        W81068   4.320  23.636   2.647
10469W        W81069   6.163   3.321   4.471
10470W        W81070  27.417  21.480  14.197
10471W        W81071  21.233  14.678  12.334
10472W        W81072   7.897  38.527   2.031
10473W        W81073  10.562  16.075  13.909
10474W        W81074  25.947  32.539  11.208
10475W        W81075  17.796  33.315  11.563
10476W        W81076  18.066  24.246  10.624
10477W        W81077  37.852   0.102  13.401
10478W        W81078  12.365  17.449  13.485
10479W        W81079  32.596   2.227   3.122
10480W        W81080  18.495   3.441   4.161
10481W        W81081  29.472  38.291  12.939
10482W        W81082  34.839  15.244  12.034
10483W        W81083  40.489  31.712   4.212
10484W        W81084  38.412  35.102   3.683
10485W        W81085  29.250  26.496   0.120
10486W        W81086  43.009  41.888   5.064
10487W        W81087  22.255   2.966  12.051
10488W        W81088  10.670  19.188   0.452
10489W        W81089   6.933  35.697   3.313
10490W        W81090  12.034   6.308   1.167
10491W        W81091  40.793  23.788  13.438
10492W        W81092  33.627   7.726  10.188
10493W        W81093  35.971  36.824   0.296
10494W        W81094  26.291  19.107  11.576
10495W        W81095  44.899  35.143   3.376
10496W        W81096  41.092  12.964  12.531
10497W        W81097   9.454  34.736   1.870
10498W        W81098   6.707  19.740  10.795
10499W        W81099   4.453  13.846   2.326
10500W        W81100  36.009  19.024   4.479
10501W        W81101   6.693  15.172   4.283
10502W        W81102   7.257  18.811   4.153
10503W        W81103  24.449   8.171   2.265
10504W        W81104  13.241  24.593  12.847
10505W        W81105   0.497   2.991  13.565
10506W        W81106  19.590   1.728   2.103
10507W        W81107   8.609  37.568  13.048
10508W        W81108  38.116  34.338  13.705
10509W        W81109  10.328   2.839   3.679
10510W        W81110  39.333  34.563  12.496
10511W        W81111  14.249  42.800   2.919
10512W        W81112  43.877  19.594  10.851
10513W        W81113   5.205   5.399  11.673
10514W        W81114   8.879  37.061  11.924
10515W        W81115   6.799  12.298  11.754
10516W        W81116  40.554  23.931   3.329
10517W        W81117  18.529  44.941   0.960
10518W        W81118  27.512   9.345  10.652
10519W        W81119   9.051   4.182  12.431
10520W        W81120  25.055   0.860  13.010
10521W        W81121  42.005  26.173   2.936
10522W        W81122  27.938  27.680  13.829
10523W        W81123  24.239   5.019  10.261
10524W        W81124  19.712  29.550  14.560
10525W        W81125  40.118  16.060  10.831
10526W        W81126  17.469   9.426  14.917
10527W        W81127  21.758   2.763  13.372
10528W        W81128   9.799  42.830   3.603
10529W        W81129  32.897  24.142  12.623
10530W        W81130   9.175  20.046   2.616
10531W        W81131  30.195   7.910  10.677
10532W        W81132   8.200  25.989  13.471
10533W        W81133  43.500  12.036  11.720
10534W        W81134  15.857   0.690  12.134
10535W        W81135  12.889  27.482   1.332
10536W        W81136  16.287  25.556  10.984
10537W        W81137  11.834  21.145  14.478
10538W        W81138   2.198  28.009   4.040
10539W        W81139  23.621   9.446   3.672
10540W        W81140   7.525  11.514   0.177
10541W        W81141  24.087  23.509   0.055
10542W        W81142  44.460  39.854   1.220
10543W        W81143  30.480  20.305   3.867
10544W        W81144   1.355  42.568   1.896
10545W        W81145   9.984  42.030   1.025
10546W        W81146  37.819  12.814  11.520
10547W        W81147  43.201   9.284  12.899
10548W        W81148  43.052  36.029   3.736
10549W        W81149  33.590  17.223   0.775
10550W        W81150  37.142  24.182   5.069
10551W        W81151  19.616  41.003   0.076
10552W        W81152   5.011  18.301  13.113
10553W        W81153  17.150  28.042   0.163
10554W        W81154  22.172  25.065  13.890
10555W        W81155  23.280  36.475   4.175
10556W        W81156  18.271  10.413   4.625
10557W        W81157  32.686   4.209   3.379
10558W        W81158  29.497   3.812   2.436
10559W        W81159  21.500  24.660   4.150
10560W        W81160  10.313  23.073  10.544
10561W        W81161  30.829  16.648  11.738
10562W        W81162  21.119  35.094   2.626
10563W        W81163  11.500  27.258  11.188
10564W        W81164   1.023  43.792   3.116
10565W        W81165  12.373  20.687  13.511
10566W        W81166   9.644   8.244  14.497
10567W        W81167  44.261  14.722   4.481
10568W        W81168  16.649  20.933  14.883
10569W        W81169  40.960  43.909  12.854
10570W        W81170  37.246  32.710   2.246
10571W        W81171  28.260  38.191   2.262
10572W        W81172  18.684  21.711   4.051
10573W        W81173  29.911  25.619  14.865
10574W        W81174   6.812  22.717   4.755
10575W        W81175  35.072   6.435   1.841
10576W        W81176   0.919  32.857   0.303
10577W        W81177  29.087  28.947  12.089
10578W        W81178   1.357  18.728  12.505
10579W        W81179  17.103   5.742   3.659
10580W        W81180  21.285  32.665  14.008
10581W        W81181   6.864   3.187   3.124
10582W        W81182  38.061  36.995  12.345
10583W        W81183  20.599  19.416  12.371
10584W        W81184  29.490   1.739  10.716
10585W        W81185  33.500  21.714   2.404
10586W        W81186  26.524  24.979  12.995
10587W        W81187  31.582   8.065   4.982
10588W        W81188  32.976  26.410   1.831
10589W        W81189  17.168  27.254  11.654
10590W        W81190  21.372  43.657   2.154
10591W        W81191  43.984   7.335   0.342
10592W        W81192   6.520   4.157  14.307
10593W        W81193  27.811  10.574  13.910
10594W        W81194  25.172  36.331   3.808
10595W        W81195  29.618   0.848   0.928
10596W        W81196  24.450  17.141  14.634
10597W        W81197  41.290   3.586   5.488
10598W        W81198  42.865  40.426  11.293
10599W        W81199  12.798  17.068   2.012
10600W        W81200  24.614  30.541   4.151
10601W        W81201  44.306  19.872  10.598
10602W        W81202  39.581  40.912  13.841
10603W        W81203  16.120  14.804   0.297
10604W        W81204  10.057  28.469  11.740
10605W        W81205  41.806  24.461  14.471
10606W        W81206  24.635   8.912   0.972
10607W        W81207  28.372  37.528  11.171
10608W        W81208  11.711  43.423  12.018
10609W        W81209  27.465   7.087   1.934
10610W        W81210   7.822  22.040   0.695
10611W        W81211  44.798  13.339   4.601
10612W        W81212  41.143  44.802   2.490
10613W        W81213  19.238  32.440  14.136
10614W        W81214  21.318  42.758   3.747
10615W        W81215  19.276   4.392   3.373
10616W        W81216  35.130  37.010   1.767
10617W        W81217   0.419  34.072   4.327
10618W        W81218  25.664   9.656  10.641
10619W        W81219  35.413  40.985   4.718
10620W        W81220  17.128  15.949  11.194
10621W        W81221  19.521  42.851   1.966
10622W        W81222   2.543  14.791  12.092
10623W        W81223  21.217  14.982   3.814
10624W        W81224  13.160  27.637  14.788
10625W        W81225  33.302   1.414   0.402
10626W        W81226   0.482  22.267   2.254
10627W        W81227   6.159   2.487   4.721
10628W        W81228  31.281  35.078   1.356
10629W        W81229  42.541  40.916   0.461
10630W        W81230   6.674  21.078   1.205
10631W        W81231  44.467  11.684  13.112
10632W        W81232  37.287   0.470  12.396
10633W        W81233  21.544   4.143  13.320
10634W        W81234  35.433  23.590  12.939
10635W        W81235  34.000   7.480   4.838
10636W        W81236  25.577  18.765   3.744
10637W        W81237  37.878  12.869  12.506
10638W        W81238   8.357  17.777  13.525
10639W        W81239  28.610   4.908   2.917
10640W        W81240  14.366  23.519  13.460
10641W        W81241  24.350  11.151  10.686
10642W        W81242  37.602  32.528   4.043
10643W        W81243  10.292  17.401  12.887
10644W        W81244   0.747  42.359  10.983
10645W        W81245  16.612  39.109   3.822
10646W        W81246  19.569  39.618  12.419
10647W        W81247  35.837  35.887   0.452
10648W        W81248  40.309  10.608  13.568
10649W        W81249  36.872   1.776   2.208
10650W        W81250  18.219  19.186   0.712
10651W        W81251  44.997  25.560  13.746
10652W        W81252  24.447  15.753  12.526
10653W        W81253  18.506   8.281  13.015
10654W        W81254  15.299  39.510   0.841
10655W        W81255   1.404  22.761  12.054
10656W        W81256  10.372   3.479   2.161
10657W        W81257  34.065  22.219   0.024
10658W        W81258   2.207  12.670  11.629
10659W        W81259  23.263  20.493  10.844
10660W        W81260  11.866  25.915  14.397
10661W        W81261   1.941   3.667   4.615
10662W        W81262   0.069  20.518   4.295
10663W        W81263  34.391  16.550  12.438
10664W        W81264   8.788  40.382   0.523
10665W        W81265   8.833  14.601  10.576
10666W        W81266  31.846   8.751   4.511
10667W        W81267  28.599  28.178   0.075
10668W        W81268   8.777  25.858  12.789
10669W        W81269  16.716  33.064   3.407
10670W        W81270  18.791  35.506   4.955
10671W        W81271  24.123  37.607   4.070
10672W        W81272  14.011   5.508  12.000
10673W        W81273  13.612  34.952  10.677
10674W        W81274  10.597  30.023   2.774
10675W        W81275  21.630  15.690   3.305
10676W        W81276   6.156  21.081   1.241
10677W        W81277  34.400   7.145   1.868
10678W        W81278   0.263  16.705   0.804
10679W        W81279  24.691  19.575  11.171
10680W        W81280  30.079  26.472  10.659
10681W        W81281   3.357  38.603  14.052
10682W        W81282  42.832  18.313   2.267
10683W        W81283  31.235  40.874  12.511
10684W        W81284  11.271   3.459  13.758
10685W        W81285  22.437  41.283  12.929
10686W        W81286  37.459  12.407  10.534
10687W        W81287  33.413  25.539  14.862
10688W        W81288   4.164  29.938   3.697
10689W        W81289  36.804  23.413  14.897
10690W        W81290  38.956  39.975   2.353
10691W        W81291   4.179  20.151   0.490
10692W        W81292  13.174  20.761  12.919
10693W        W81293  37.452  31.927   3.228
10694W        W81294   2.189  41.377   0.441
10695W        W81295  10.480  12.586  10.195
10696W        W81296   3.700  40.950  13.042
10697W        W81297  20.729  20.215   2.397
10698W        W81298  27.340  17.534   3.087
10699W        W81299  14.854  18.807  12.618
10700W        W81300  21.664  33.982   2.287
10701W        W81301  44.307  39.024   1.912
10702W        W81302  28.408  39.791  10.704
10703W        W81303  44.355   0.319   0.920
10704W        W81304  11.774   3.413   2.412
10705W        W81305   7.648  18.154   1.457
10706W        W81306  19.035  35.376  14.473
10707W        W81307  18.838   1.933   3.101
10708W        W81308  13.590  35.883   1.752
10709W        W81309  18.364   0.577   3.652
10710W        W81310  42.275   8.620  10.424
10711W        W81311  32.083  22.550   4.400
10712W        W81312  38.849  14.294   0.902
10713W        W81313  23.614  14.847   3.590
10714W        W81314  28.426  33.462  12.165
10715W        W81315  41.543  31.985   3.176
10716W        W81316  25.870  39.645  12.085
10717W        W81317  38.442  19.444   9.399
10718W        W81318  39.338  40.844  12.461
10719W        W81319  40.780  10.514  13.932
10720W        W81320  20.204  25.598  13.021
10721W        W81321  43.242  29.941   1.717
10722W        W81322  43.889  27.620  13.740
10723W        W81323  24.406   2.358   3.801
10724W        W81324  40.288  22.190   1.408
10725W        W81325   1.988  23.052  14.097
10726W        W81326  10.343  31.224  14.586
10727W        W81327  12.058  20.823  11.919
10728W        W81328  34.335   4.608   1.759
10729W        W81329   2.142   9.477  13.191
10730W        W81330  34.943  21.773   0.923
10731W        W81331   4.005  19.151   3.284
10732W        W81332  23.547  31.530  11.047
10733W        W81333  15.800  15.119  13.172
10734W        W81334   3.131  11.115  10.733
10735W        W81335   1.488  11.336  13.082
10736W        W81336   6.866   4.205   0.450
10737W        W81337  31.093  36.900   0.868
10738W        W81338  39.410  37.059   4.340
10739W        W81339  19.691  40.057   2.153
10740W        W81340  36.546   2.747   0.940
10741W        W81341  26.775  24.266  14.763
10742W        W81342  35.386  44.868   3.539
10743W        W81343  43.027  14.038  14.850
10744W        W81344   6.877   3.964   1.690
10745W        W81345  18.046  36.569  12.365
10746W        W81346   9.170  44.980   1.706
10747W        W81347  12.016   4.767  11.153
10748W        W81348  19.876  37.451  11.952
10749W        W81349  10.198  30.484  11.328
10750W        W81350  35.951  33.369  14.312
10751W        W81351  37.722  10.641  12.995
10752W        W81352  40.833  40.738  10.839
10753W        W81353  33.985  36.365  13.080
10754W        W81354  11.275  34.022  14.044
10755W        W81355  28.245  40.314  13.068
10756W        W81356  29.877   4.739   1.692
10757W        W81357   4.840  37.398  14.966
10758W        W81358   6.129  21.188  14.191
10759W        W81359  30.670  27.311  10.909
10760W        W81360  24.162  14.797  14.963
10761W        W81361   5.256  26.638  13.849
10762W        W81362   4.392  20.751  12.465
10763W        W81363  19.665  17.493  11.597
10764W        W81364   6.879  10.553   4.940
10765W        W81365  33.558  12.624   3.309
10766W        W81366   4.795   1.985  12.796
10767W        W81367  44.903  29.173   4.640
10768W        W81368  16.491  12.327   3.397
10769W        W81369   8.885  24.907   2.866
10770W        W81370  13.733   2.477   1.895
10771W        W81371  15.314  19.274   4.020
10772W        W81372   6.275   6.122   4.210
10773W        W81373  14.710  26.770  10.629
10774W        W81374  29.084  38.629   1.268
10775W        W81375  19.122  32.320  11.703
10776W        W81376  12.302  40.782   0.719
10777W        W81377  35.455  22.643   1.774
10778W        W81378  14.729   2.718   3.653
10779W        W81379   3.013  29.384  12.313
10780W        W81380  20.065  21.043  12.123
10781W        W81381  29.100  42.282  13.381
10782W        W81382  29.499  27.817   3.292
10783W        W81383   4.166  39.241  12.135
10784W        W81384  14.229  41.153   3.639
10785W        W81385  42.499  41.018   2.365
10786W        W81386   2.469  23.968   3.776
10787W        W81387  23.225  39.077   2.209
10788W        W81388  38.084  35.178  12.716
10789W        W81389  33.902  19.874   2.902
10790W        W81390   8.120   0.699  11.026
10791W        W81391  35.739  36.091  11.586
10792W        W81392  34.754  28.034  12.560
10793W        W81393  22.319   2.668   2.198
10794W        W81394  44.770  19.606  14.986
10795W        W81395  32.501   3.727   3.353
10796W        W81396  19.589  16.606   0.345
10797W        W81397  31.481   3.304   1.535
10798W        W81398  43.243  21.705   1.714
10799W        W81399  20.941  37.416   0.375
10800W        W81400  30.907  40.194   4.419
10801W        W81401  32.080  38.566   4.545
10802W        W81402  26.006   2.700  14.200
10803W        W81403   1.260  37.371   4.842
10804W        W81404  35.444  37.572   4.795
10805W        W81405  21.495  11.830   4.346
10806W        W81406   5.388  39.205  14.872
10807W        W81407  44.178  43.925   4.862
10808W        W81408  13.837   7.602   2.694
10809W        W81409   0.328   5.833   0.324
10810W        W81410   6.816  44.647  10.416
10811W        W81411   9.798   9.822  13.125
10812W        W81412  42.837  41.041  11.371
10813W        W81413  34.586  13.660   4.601
10814W        W81414   4.822  38.741  11.537
10815W        W81415  24.693  12.536  13.832
10816W        W81416  35.342  11.377   0.792
10817W        W81417  21.943  18.036  11.473
10818W        W81418  19.864  39.898   0.807
10819W        W81419   1.224  30.241   1.280
10820W        W81420   6.906  42.231   0.287
10821W        W81421  27.748  40.542   3.072
10822W        W81422  18.123  43.950   2.667
10823W        W81423  10.829   4.829   4.189
10824W        W81424  40.709  42.234  11.127
10825W        W81425  18.790  22.318  14.857
10826W        W81426  43.820  42.274  12.099
10827W        W81427  13.252  39.528  11.179
10828W        W81428  38.673  40.004  13.447
10829W        W81429  22.557  34.137   4.545
10830W        W81430  40.823  41.710  11.105
10831W        W81431   2.160   7.896   1.586
10832W        W81432  31.173  16.151  11.111
10833W        W81433  31.197  36.024   0.803
10834W        W81434  12.773  21.443  11.687
10835W        W81435  37.796  29.547  14.292
10836W        W81436   9.331  14.615   3.613
10837W        W81437  12.131  38.962  10.767
10838W        W81438  31.968  31.624  14.557
10839W        W81439  13.880  42.866   2.186
10840W        W81440  26.622  14.643  11.692
10841W        W81441  17.142   5.789   1.694
10842W        W81442   4.444  34.452   3.126
10843W        W81443  41.222   4.643  13.525
10844W        W81444  32.451  24.309   1.313
10845W        W81445  42.228  32.918   3.426
10846W        W81446  35.437  36.499  11.632
10847W        W81447   2.065  19.810   2.154
10848W        W81448  15.210  10.386  11.266
10849W        W81449  29.611  44.589   1.272
10850W        W81450   3.796  21.112   0.217
10851W        W81451  38.036  38.430  12.995
10852W        W81452  38.542  17.148  11.504
10853W        W81453  36.292  23.571   1.234
10854W        W81454  16.143  28.989   0.090
10855W        W81455  40.947  40.757  14.458
10856W        W81456  13.665  11.696   0.488
10857W        W81457  12.458  43.930   0.443
10858W        W81458   8.827  37.330   4.148
10859W        W81459  11.166  40.502  14.842
10860W        W81460  24.057  42.990   1.701
10861W        W81461  40.693  15.820  11.688
10862W        W81462  39.010  42.309   3.702
10863W        W81463  14.743  33.493   3.638
10864W        W81464  43.571  10.179   4.144
10865W        W81465  30.032  24.061  13.463
10866W        W81466  31.676  17.659   0.298
10867W        W81467  25.473  10.847  12.377
10868W        W81468  10.450  18.068  12.421
10869W        W81469  21.194  34.865  13.918
10870W        W81470  16.791  34.663   0.049
10871W        W81471  18.577   3.758  13.908
10872W        W81472  27.080   3.033  13.608
10873W        W81473  38.521  44.003   2.620
10874W        W81474  18.872  18.118   2.239
10875W        W81475  41.229  16.470  12.962
10876W        W81476   6.824  42.700   1.245
10877W        W81477  22.452  25.610  12.782
10878W        W81478   1.350  19.874   4.630
10879W        W81479  44.041   3.988   2.309
10880W        W81480  43.365  44.239   3.219
10881W        W81481  16.608  40.943   0.275
10882W        W81482   0.996  43.712  11.576
10883W        W81483  35.242  28.677   3.666
10884W        W81484   5.129  22.648   2.481
10885W        W81485  18.697   1.376   4.184
10886W        W81486  24.908  42.829  11.955
10887W        W81487  43.374  26.491   1.210
10888W        W81488  38.046  22.241   3.869
10889W        W81489  17.807  15.804  13.134
10890W        W81490  26.085  16.700  10.610
10891W        W81491  31.701  21.703  11.328
10892W        W81492  10.100  33.129  14.908
10893W        W81493  19.735  11.127  11.231
10894W        W81494  28.956  12.346   4.040
10895W        W81495   8.727  16.249   0.489
10896W        W81496  28.941  25.698   1.921
10897W        W81497  39.096  17.034  12.720
10898W        W81498  14.296  24.787  13.925
10899W        W81499  16.702  40.978  13.440
10900W        W81500   8.737  24.548   0.827
10901W        W81501  14.343   4.614  11.162
10902W        W81502  20.293  22.634   2.005
10903W        W81503  38.280  22.995   2.374
10904W        W81504  22.099  41.447  10.669
10905W        W81505   6.293  16.496   1.298
10906W        W81506  28.259   7.135   5.130
10907W        W81507  27.060   4.985   4.021
10908W        W81508  41.414  15.476   3.216
10909W        W81509  10.948   5.468  13.493
10910W        W81510   5.128  40.511   1.187
10911W        W81511  44.990   1.795   4.023
10912W        W81512  25.035  41.853   3.680
10913W        W81513  21.994  20.990   0.863
10914W        W81514   7.322  24.508  14.045
10915W        W81515  15.883  43.554   0.355
10916W        W81516  10.778  35.143  14.460
10917W        W81517  14.550  35.131   2.307
10918W        W81518  44.270  39.021   4.658
10919W        W81519   3.936  10.853  11.924
10920W        W81520  36.160  26.050   3.790
10921W        W81521  10.097  22.585   0.836
10922W        W81522   9.835  44.304  12.083
10923W        W81523   1.884  32.654   2.605
10924W        W81524  42.951  27.143   1.682
10925W        W81525  38.383   7.318  11.482
10926W        W81526  19.866  19.808  14.240
10927W        W81527  32.024  15.367   0.286
10928W        W81528  17.208  11.759  10.538
10929W        W81529  44.833  23.709  13.249
10930W        W81530   1.097   7.321   1.458
10931W        W81531  21.919  14.741  11.088
10932W        W81532  41.500  13.751  11.991
10933W        W81533  25.630  22.823  14.819
10934W        W81534  13.351   5.351  11.574
10935W        W81535  22.735  12.531  10.642
10936W        W81536  38.409  24.397  11.978
10937W        W81537  24.987  29.198   0.931
10938W        W81538  17.280   6.850   4.224
10939W        W81539  16.969  17.554   0.391
10940W        W81540  39.340  42.012   4.603
10941W        W81541  22.665  14.537  10.865
10942W        W81542  41.367  43.922   2.352
10943W        W81543  18.154  40.756  13.301
10944W        W81544  17.239  34.922  11.111
10945W        W81545   9.191  13.308  10.903
10946W        W81546  12.333   2.355   4.240
10947W        W81547  11.134  20.478   1.266
10948W        W81548  27.595   4.256   3.466
10949W        W81549  23.795  36.546   2.266
10950W        W81550  30.126  18.582   1.774
10951W        W81551   6.264  35.506  10.837
10952W        W81552   3.662   6.185  14.001
10953W        W81553  26.974  31.671  13.219
10954W        W81554  44.132  19.403  13.677
10955W        W81555  43.293  36.378  13.877
10956W        W81556  33.910   9.786   3.206
10957W        W81557  25.588  44.074  10.666
10958W        W81558  13.840  34.395   2.232
10959W        W81559  23.502  12.118   2.375
10960W        W81560  14.679  31.632  12.095
10961W        W81561  22.258  10.091   1.704
10962W        W81562  41.835   6.975   9.745
10963W        W81563  17.914  19.802  11.055
10964W        W81564  17.703  34.481   0.012
10965W        W81565   9.163  10.856   4.588
10966W        W81566  13.832  17.071  12.918
10967W        W81567  13.146  13.291   0.003
10968W        W81568  11.144  27.254   1.751
10969W        W81569   2.388  37.483   4.572
10970W        W81570  23.517  20.261   3.633
10971W        W81571   6.127  29.978   3.918
10972W        W81572   8.863  27.275  10.475
10973W        W81573  34.509   2.498  13.446
10974W        W81574  30.436  12.544  11.163
10975W        W81575  24.367  28.239   4.730
10976W        W81576  44.183  27.489   4.099
10977W        W81577   5.516  31.634  14.101
10978W        W81578  27.629  27.894   2.490
10979W        W81579   6.424  24.231   4.093
10980W        W81580  17.527   0.687   0.016
10981W        W81581   6.672   9.771   3.328
10982W        W81582  30.688  43.679   3.460
10983W        W81583  34.301  40.353   4.242
10984W        W81584  15.845  26.408  11.141
10985W        W81585   4.072  22.133  14.372
10986W        W81586  42.751  25.637  11.064
10987W        W81587  32.024  10.634  12.384
10988W        W81588   5.777  18.293   3.776
10989W        W81589  12.825   9.186   0.404
10990W        W81590   1.304  14.697   3.933
10991W        W81591   6.333  44.388  13.596
10992W        W81592  14.268   4.499   1.233
10993W        W81593  10.210  12.647   2.262
10994W        W81594  15.960   5.229  14.443
10995W        W81595  10.717  12.543   0.494
10996W        W81596  21.411  21.258   0.195
10997W        W81597  16.508  44.336  14.735
10998W        W81598   1.536  19.804   2.266
10999W        W81599  29.713  25.928  12.512
11000W        W81600  23.986  33.434   0.023
11001W        W81601   5.193  14.505   3.746
11002W        W81602  10.640   3.709   1.433
11003W        W81603  41.342   2.775  14.397
11004W        W81604  37.325  20.092  10.841
11005W        W81605  28.629  15.103  14.817
11006W        W81606  23.008  11.813  12.994
11007W        W81607   8.344   1.350  10.369
11008W        W81608  41.717  20.627   0.283
11009W        W81609  32.521  16.780  14.334
11010W        W81610   9.792  12.276  11.428
11011W        W81611   6.124  21.561  12.132
11012W        W81612   5.420  19.160  10.720
11013W        W81613   7.411  32.982  10.738
11014W        W81614  30.981  18.031  13.266
11015W        W81615  24.399  43.507  10.232
11016W        W81616  33.566  25.946  11.033
11017W        W81617  28.017  32.385  13.564
11018W        W81618  36.459  42.225   0.394
11019W        W81619   2.249   9.342   4.098
11020W        W81620  11.487  22.868   4.112
11021W        W81621  26.612  28.565  14.534
11022W        W81622  21.900  22.240  13.842
11023W        W81623   0.274   3.581   0.046
11024W        W81624  34.442  24.230   1.172
11025W        W81625  23.213  29.442   1.283
11026W        W81626  40.090   6.946   0.924
11027W        W81627  44.450  44.981  14.617
11028W        W81628  36.372   5.979   3.137
11029W        W81629   8.846   2.458  14.000
11030W        W81630  17.751   6.076  13.207
11031W        W81631   4.873  15.297  12.691
11032W        W81632   6.010  14.445   3.177
11033W        W81633   1.493   3.387  11.698
11034W        W81634   0.980  26.107   1.852
11035W        W81635  16.291  42.780   0.252
11036W        W81636  39.250  19.679   0.373
11037W        W81637  23.143  44.319  10.804
11038W        W81638  17.668  43.941   3.224
11039W        W81639  35.606  36.865  11.136
11040W        W81640  42.448  12.855  10.652
11041W        W81641   0.284  30.621  13.064
11042W        W81642   2.518  38.331  13.861
11043W        W81643  23.915   8.748  11.533
11044W        W81644  14.104  16.956   4.584
11045W        W81645  28.225  15.898  11.103
11046W        W81646   6.304  31.107  14.412
11047W        W81647  36.456  11.311  11.091
11048W        W81648   4.928  23.241  10.832
11049W        W81649  19.263  11.604   1.764
11050W        W81650   7.137  25.784  11.119
11051W        W81651  38.761  40.317  13.909
11052W        W81652  23.196   4.308  11.601
11053W        W81653   7.685  23.630   5.117
11054W        W81654   3.173  35.810  14.941
11055W        W81655   0.384  34.982   4.157
11056W        W81656  32.425  25.551  14.770
11057W        W81657  30.444  10.229   4.585
11058W        W81658   8.128  10.813  11.066
11059W        W81659  29.104  28.277  12.961
11060W        W81660   4.998   2.463  14.423
11061W        W81661  17.057   9.701  14.782
11062W        W81662  41.871  11.246  14.207
11063W        W81663  29.422   7.309   4.683
11064W        W81664   3.811  22.006  11.516
11065W        W81665  26.719  18.035  13.100
11066W        W81666   8.651  12.448   0.390
11067W        W81667  17.983  40.429  14.810
11068W        W81668  26.884   8.940   0.766
11069W        W81669   7.416  23.437  12.198
11070W        W81670  31.485  19.828   0.877
11071W        W81671  15.199  43.014   0.754
11072W        W81672  43.847  31.578  10.704
11073W        W81673  16.194  27.647   1.010
11074W        W81674  17.716  34.186   2.403
11075W        W81675  34.288  33.528   2.867
11076W        W81676   2.758  21.006   0.299
11077W        W81677  27.218  28.291  13.315
11078W        W81678  40.992  11.644  14.929
11079W        W81679  39.341   0.792   1.393
11080W        W81680  11.302  14.873  14.027
11081W        W81681  26.494  36.994   3.403
11082W        W81682  29.708  28.989   3.306
11083W        W81683  43.998  15.081   0.840
11084W        W81684  35.028  23.650  13.292
11085W        W81685   8.533  19.415   1.041
11086W        W81686  12.356   8.586  14.454
11087W        W81687  22.041  28.661  14.053
11088W        W81688  38.621  17.171  10.463
11089W        W81689  43.855  36.333  14.791
11090W        W81690   2.613  39.310  13.798
11091W        W81691  29.357  22.573   3.857
11092W        W81692  19.799   0.279  10.756
11093W        W81693  42.953  17.842   1.342
11094W        W81694  29.866  19.774  10.452
11095W        W81695  37.577  11.250  12.058
11096W        W81696  23.956   3.696   1.404
11097W        W81697  25.070   9.326   2.292
11098W        W81698  42.335  31.058  11.497
11099W        W81699  40.288  18.257   0.534
11100W        W81700  36.669  24.213  14.414
11101W        W81701  28.628  38.578   4.638
11102W        W81702  25.236  26.127  13.921
11103W        W81703  40.495  11.620   2.224
11104W        W81704  28.762  17.239  12.243
11105W        W81705  28.301   7.195  12.579
11106W        W81706  18.771  26.516  12.902
11107W        W81707   1.131  28.926   4.150
11108W        W81708  14.676  22.201   2.093
11109W        W81709  40.480  11.113   2.348
11110W        W81710   9.333  42.994   3.816
11111W        W81711  41.474  22.444   1.726
11112W        W81712   9.465  13.218  13.596
11113W        W81713  39.353  16.164   4.554
11114W        W81714  11.501   4.182   4.174
11115W        W81715  19.111  33.159   3.345
11116W        W81716  43.588   7.342   2.965
11117W        W81717  43.820  18.970  14.941
11118W        W81718  18.188  21.290   0.385
11119W        W81719  27.994  26.981   3.904
11120W        W81720  22.121   6.400  10.250
11121W        W81721  25.253   4.231  13.051
11122W        W81722  35.893  25.064   3.320
11123W        W81723   2.295  12.867  14.383
11124W        W81724  15.065  36.509   4.011
11125W        W81725  32.471  10.174  13.039
11126W        W81726  12.346  32.287   0.454
11127W        W81727  24.287  27.116  11.204
11128W        W81728   4.723  36.483   4.023
11129W        W81729  31.045  13.638   4.613
11130W        W81730  29.604  37.968  12.241
11131W        W81731   3.723  29.346   2.257
11132W        W81732  31.904  14.168  14.017
11133W        W81733  22.856   5.790   1.490
11134W        W81734  44.116  30.195  11.885
11135W        W81735  44.525  12.169   3.660
11136W        W81736   0.219  21.026   2.716
11137W        W81737  31.137  39.719  11.591
11138W        W81738  20.677  30.589  10.690
11139W        W81739  41.993  37.087  10.660
11140W        W81740  35.372  23.487  11.933
11141W        W81741  33.118   9.209   3.186
11142W        W81742   5.787  15.716   0.876
11143W        W81743  16.617   4.352  14.384
11144W        W81744   2.264   8.977   0.804
11145W        W81745  33.443  42.436   0.543
11146W        W81746  40.555   7.235   1.208
11147W        W81747  22.811  43.329   0.707
11148W        W81748  17.547  28.981  11.142
11149W        W81749  26.169  10.808   0.973
11150W        W81750  16.236  16.453   9.928
11151W        W81751  42.849   6.814  14.279
11152W        W81752  40.086  31.500  14.399
11153W        W81753  41.169   1.734  10.409
11154W        W81754  28.033  17.879   1.462
11155W        W81755   3.957  11.656   0.767
11156W        W81756  15.614  29.107  12.102
11157W        W81757  30.855  41.207  12.541
11158W        W81758  18.967   4.896  12.452
11159W        W81759  16.081  37.890   2.656
11160W        W81760  18.305  28.500  12.183
11161W        W81761   9.768  40.801   1.349
11162W        W81762  17.040  29.930   0.464
11163W        W81763  37.337  35.803   0.382
11164W        W81764   9.794  15.068   3.369
11165W        W81765  21.820   1.456  11.205
11166W        W81766  36.037  16.867   0.246
11167W        W81767  17.703  38.921   0.366
11168W        W81768  12.089  41.921  12.028
11169W        W81769  31.823   2.749   4.682
11170W        W81770  21.174  14.614   0.902
11171W        W81771  41.831  44.449  13.915
11172W        W81772  15.672  40.402   4.544
11173W        W81773  10.694  43.229  13.756
11174W        W81774  31.900  35.584  12.005
11175W        W81775   2.830   5.933  10.777
11176W        W81776  28.520  30.688  14.226
11177W        W81777  28.227  20.107   3.571
11178W        W81778  20.091   4.286  13.365
11179W        W81779  27.227   3.450  13.327
11180W        W81780  14.198   8.026  13.851
11181W        W81781  43.045  18.058  10.713
11182W        W81782   0.328  10.630  10.665
11183W        W81783  30.075  11.138  12.088
11184W        W81784   3.173  10.629   0.253
11185W        W81785  40.238  17.210   2.872
11186W        W81786  22.151  35.647  13.849
11187W        W81787  29.874  19.675   2.195
11188W        W81788  22.063  22.695   4.773
11189W        W81789  21.426  38.342   2.486
11190W        W81790  15.095  39.601  10.689
11191W        W81791  38.676  23.701  14.509
11192W        W81792  19.354  23.106  14.438
11193W        W81793  32.368  25.784  13.409
11194W        W81794   2.675  37.042  12.517
11195W        W81795   7.717   7.164   1.799
11196W        W81796   8.070  37.490   2.627
11197W        W81797  44.486  19.815  12.319
11198W        W81798  15.792  34.632  13.480
11199W        W81799  33.946  30.108  12.862
11200W        W81800   0.661  37.068  12.569
11201W        W81801  25.933  18.624  12.851
11202W        W81802  30.350  33.391   4.110
11203W        W81803  27.598  27.692   1.518
11204W        W81804  31.990  43.845   3.641
11205W        W81805  26.975   4.505   3.221
11206W        W81806  28.628  18.121   0.977
11207W        W81807  33.873  21.471  10.903
11208W        W81808   2.792  22.159   1.668
11209W        W81809  11.771  15.623   4.152
11210W        W81810  33.464  32.919  12.299
11211W        W81811   0.797  36.659   0.738
11212W        W81812   3.099   6.886   3.717
11213W        W81813  28.633   5.477  13.870
11214W        W81814  43.012  37.487  12.379
11215W        W81815   1.185  22.582  12.470
11216W        W81816  38.371  24.659   1.462
11217W        W81817  12.285   9.439  14.256
11218W        W81818  20.215  11.578  14.909
11219W        W81819  27.642  19.042   1.210
11220W        W81820  30.601  12.402  12.072
11221W        W81821   0.193  14.660  11.568
11222W        W81822   4.045  31.780  14.461
11223W        W81823  12.580  15.578  11.132
11224W        W81824   2.527   4.515  12.080
11225W        W81825  27.740  30.287   1.273
11226W        W81826  31.594  42.236   4.188
11227W        W81827  22.993  13.795  10.769
11228W        W81828  15.337  40.499   3.783
11229W        W81829   9.702  38.912  12.363
11230W        W81830  40.326  42.442  10.837
11231W        W81831  21.009  30.032  11.672
11232W        W81832   9.145  19.031  11.915
11233W        W81833   8.730  29.086   4.616
11234W        W81834  20.089  20.968  14.548
11235W        W81835  38.555  19.550   3.251
11236W        W81836  43.318   6.892  12.517
11237W        W81837  26.993  41.855   2.304
11238W        W81838  37.951   0.536   3.690
11239W        W81839   5.406  31.001   0.343
11240W        W81840   8.673  33.822   3.913
11241W        W81841  18.707  27.070  11.208
11242W        W81842  41.147  13.864   2.856
11243W        W81843  35.557  27.028   4.463
11244W        W81844  33.849  29.238   3.269
11245W        W81845  41.569  40.912   0.090
11246W        W81846  38.582   9.264  12.911
11247W        W81847  10.061  28.009   3.693
11248W        W81848  19.198  19.607  11.106
11249W        W81849  33.528  19.540   2.678
11250W        W81850   6.185  16.758  12.946
11251W        W81851  30.959  15.813   1.014
11252W        W81852  36.346   3.416  11.905
11253W        W81853  24.095  29.900  13.539
11254W        W81854  37.763  42.614   5.072
11255W        W81855  41.737  12.317  10.369
11256W        W81856  14.128   1.921  10.264
11257W        W81857  14.259  28.870   1.532
11258W        W81858  43.485   5.877  12.377
11259W        W81859   9.120   5.912   1.941
11260W        W81860   5.316  39.850  13.364
11261W        W81861  29.096  11.169   3.563
11262W        W81862  23.144   1.073   5.367
11263W        W81863  22.086  40.561  13.421
11264W        W81864  40.386  11.325  10.326
11265W        W81865   6.395  41.415  12.573
11266W        W81866  13.402  22.716   0.370
11267W        W81867  20.156  32.968   3.716
11268W        W81868  31.037  35.905  10.315
11269W        W81869   9.176  41.777   4.209
11270W        W81870  11.206   6.435   1.807
11271W        W81871   4.033  13.162  11.580
11272W        W81872  33.232  18.635  14.788
11273W        W81873  11.542  36.515  14.879
11274W        W81874  12.506  28.952  14.973
11275W        W81875  41.058   2.322   3.747
11276W        W81876  18.598  29.930   3.827
11277W        W81877  23.975  35.145  12.978
11278W        W81878  10.326   5.435   3.706
11279W        W81879  32.181  38.472   2.330
11280W        W81880  23.791  42.773   3.736
11281W        W81881  23.023  39.309   0.521
11282W        W81882  10.379  29.039   3.872
11283W        W81883  41.675   9.630  12.410
11284W        W81884  27.039  26.492   1.503
11285W        W81885  22.735  41.554   3.669
11286W        W81886  34.543  36.717  12.860
11287W        W81887   3.415  37.406   4.455
11288W        W81888  44.142   7.600  11.774
11289W        W81889   5.877  21.094  12.129
11290W        W81890  25.527  20.319   4.218
11291W        W81891   0.013  18.614   1.272
11292W        W81892  38.167  23.564  13.890
11293W        W81893  14.243   6.933   1.387
11294W        W81894  40.898   7.686  13.961
11295W        W81895   1.347  43.320  13.318
11296W        W81896  35.045   3.972  14.763
11297W        W81897  20.705  20.565  12.865
11298W        W81898  19.332  18.074  10.745
11299W        W81899   7.869  31.669   2.047
11300W        W81900  17.768  36.869   3.068
11301W        W81901   6.725  17.785   1.461
11302W        W81902  11.808  24.247  12.126
11303W        W81903  14.189   1.781   4.354
11304W        W81904  17.106   7.392  13.417
11305W        W81905  33.301  21.023   4.132
11306W        W81906  30.663  17.547   0.253
11307W        W81907  24.528   5.541   2.879
11308W        W81908  38.556  27.277  14.455
11309W        W81909  44.101  20.283  10.312
11310W        W81910  37.418  30.532   0.787
11311W        W81911  35.685  17.580   2.792
11312W        W81912  27.544  27.601   0.882
11313W        W81913  24.487  18.723   1.922
11314W        W81914  10.388   1.506   0.288
11315W        W81915  19.624  22.962  11.363
11316W        W81916   2.271  32.938  11.491
11317W        W81917  39.372   2.344  12.432
11318W        W81918   4.695  34.426   2.344
11319W        W81919  37.673   9.939   4.716
11320W        W81920   2.552  36.019   0.732
11321W        W81921  23.615  28.185   1.667
11322W        W81922  35.143  36.154   4.347
11323W        W81923   7.311  21.726  11.719
11324W        W81924  42.842  10.285   1.301
11325W        W81925  37.440   1.044   4.716
11326W        W81926   1.265  27.210   1.171
11327W        W81927  41.399  12.082  14.307
11328W        W81928  22.283   9.805  13.502
11329W        W81929  15.870  37.494   4.644
11330W        W81930  26.883  36.883   1.177
11331W        W81931  17.558   3.747   2.699
11332W        W81932  28.187  34.238   4.151
11333W        W81933   3.845  41.486  12.115
11334W        W81934  22.265  32.517  12.505
11335W        W81935  13.355  34.117   0.207
11336W        W81936  34.831  38.801   2.782
11337W        W81937  32.511  18.697   2.172
11338W        W81938  15.179  39.784   4.244
11339W        W81939   0.047  38.171  14.384
11340W        W81940  32.882  12.877   4.747
11341W        W81941   0.788  13.108  13.112
11342W        W81942  38.440  12.216   2.705
11343W        W81943  43.791   3.012   2.272
11344W        W81944  34.334  19.706   4.399
11345W        W81945   0.341  33.163  13.031
11346W        W81946  35.612  26.959  14.030
11347W        W81947  31.733   1.231   2.881
11348W        W81948  13.175  15.718   1.920
11349W        W81949  33.524  27.490   0.240
11350W        W81950   8.334  18.665  11.522
11351W        W81951  38.034   1.971   3.795
11352W        W81952  16.031  31.653  11.039
11353W        W81953  24.225  23.943   3.610
11354W        W81954  17.138  16.774  10.928
11355W        W81955   1.766  43.956   4.860
11356W        W81956  15.607  38.113  13.868
11357W        W81957  35.561  12.785  13.790
11358W        W81958   5.857   1.368  13.834
11359W        W81959  14.063   1.874   2.844
11360W        W81960   5.470  17.511  13.944
11361W        W81961  42.045  30.167   1.274
11362W        W81962   5.654  37.535  13.435
11363W        W81963  42.950  44.790   0.324
11364W        W81964  24.713  28.163  10.784
11365W        W81965  10.400  24.183   4.849
11366W        W81966   6.663  31.331   4.629
11367W        W81967  32.069  33.958   3.581
11368W        W81968   6.470  34.523  11.060
11369W        W81969  24.558   7.480   0.100
11370W        W81970  26.645  13.091   1.613
11371W        W81971  10.033  32.208  11.105
11372W        W81972  20.050  12.741   5.013
11373W        W81973  29.862  44.950   2.779
11374W        W81974  21.152  41.668   4.794
11375W        W81975  34.058  17.628   2.193
11376W        W81976  20.004  24.667   1.272
11377W        W81977   4.922   2.514   4.886
11378W        W81978  18.761   0.262  14.594
11379W        W81979  43.271   7.329  14.438
11380W        W81980  40.457  12.170  10.616
11381W        W81981   9.877  33.302  12.867
11382W        W81982  35.573   7.907   3.090
11383W        W81983  31.105  27.190   0.373
11384W        W81984  27.005  25.240  13.029
11385W        W81985  44.344   4.873   4.775
11386W        W81986   9.844  30.418   0.256
11387W        W81987  43.827  33.180   1.816
11388W        W81988  18.141  37.900   0.956
11389W        W81989   5.795  17.327  13.416
11390W        W81990  18.283   7.441  11.987
11391W        W81991  12.414  36.933   0.992
11392W        W81992   6.478  31.623   3.350
11393W        W81993  24.318   8.746   1.364
11394W        W81994  19.759   8.962   4.019
11395W        W81995  29.054   4.700  12.364
11396W        W81996   5.924  32.882   3.062
11397W        W81997  36.849   9.465   4.315
11398W        W81998   5.302  10.141   4.390
11399W        W81999  11.876  43.817  14.269
11400W        W82000   4.761   6.161  11.556
11401W        W82001  12.976  30.822   2.386
11402W        W82002   7.092   9.310  10.847
11403W        W82003  12.788  35.070   2.669
11404W        W82004  30.207  20.711  10.474
11405W        W82005   9.392  14.060  11.472
11406W        W82006  21.297  21.640   1.372
11407W        W82007  12.871  37.125  12.445
11408W        W82008   1.366  33.066  10.552
11409W        W82009  22.603  16.737  12.881
11410W        W82010   6.799   3.389   4.725
11411W        W82011  32.415  37.379   2.681
11412W        W82012   5.278  36.371  12.870
11413W        W82013  28.330  19.062   0.014
11414W        W82014   3.933   5.811   1.825
11415W        W82015  25.468  25.686   2.694
11416W        W82016  27.680  22.038   0.548
11417W        W82017   6.208  28.003   5.005
11418W        W82018  30.035   0.625  13.941
11419W        W82019  11.563   8.473  11.200
11420W        W82020  23.272  39.137   4.200
11421W        W82021   2.403   8.346   1.871
11422W        W82022  25.156  23.223   4.762
11423W        W82023  30.881  12.085  11.642
11424W        W82024   6.772  31.819  13.822
11425W        W82025   6.698   6.119   3.911
11426W        W82026  13.754  36.882  14.073
11427W        W82027  37.290  21.571   1.938
11428W        W82028  13.207  17.588   4.805
11429W        W82029  42.303  11.347   2.205
11430W        W82030  16.367  12.587  14.503
11431W        W82031  24.132  40.908   1.014
11432W        W82032   7.890  33.151  10.846
11433W        W82033  39.547  23.248  11.122
11434W        W82034  20.787  10.739   3.315
11435W        W82035   3.790  42.780   4.571
11436W        W82036  11.061  19.383   3.226
11437W        W82037  39.146  31.019   2.807
11438W        W82038  30.580  40.765   0.341
11439W        W82039   6.100   6.720  14.968
11440W        W82040  27.233  35.106  11.478
11441W        W82041  31.120  13.103   1.550
11442W        W82042   5.066  25.474   4.792
11443W        W82043   8.833  11.929  13.080
11444W        W82044  30.179  29.953   2.472
11445W        W82045  20.758  13.827   0.785
11446W        W82046  17.665  23.172  13.945
11447W        W82047  39.566   8.763  14.433
11448W        W82048  31.031   3.656  11.530
11449W        W82049  13.723  28.935   1.203
11450W        W82050  33.440  23.215   4.179
11451W        W82051  36.595  29.902   3.518
11452W        W82052  14.329   0.730   0.853
11453W        W82053   4.393  17.555   0.349
11454W        W82054  32.380  39.009  14.475
11455W        W82055  20.103  24.867  12.345
11456W        W82056  15.751  15.183   2.292
11457W        W82057  37.473  16.136  13.867
11458W        W82058  33.075  37.821   3.322
11459W        W82059  14.105  29.973  11.611
11460W        W82060  38.988  28.173   4.290
11461W        W82061  33.966   8.688   1.870
11462W        W82062  33.374  14.843   3.823
11463W        W82063   2.245  14.382   4.180
11464W        W82064  31.159  21.108  14.721
11465W        W82065  24.484  24.633   1.253
11466W        W82066  18.309  35.903   2.744
11467W        W82067  40.612  18.113   3.583
11468W        W82068   0.279   2.432   3.765
11469W        W82069   5.367   8.292  12.631
11470W        W82070  15.165   2.054   3.266
11471W        W82071   7.484  38.079   2.209
11472W        W82072  12.116  24.763   4.231
11473W        W82073  27.876  35.357   1.821
11474W        W82074  32.117   4.714   4.674
11475W        W82075   3.255  35.855  10.759
11476W        W82076  26.583  36.391  11.572
11477W        W82077  10.772  42.245  14.019
11478W        W82078  33.067  39.067  14.963
11479W        W82079  32.875  25.249   3.592
11480W        W82080  40.325  36.036  12.375
11481W        W82081  35.282  16.172  14.416
11482W        W82082  11.964  23.352   0.352
11483W        W82083  24.760  28.909   1.302
11484W        W82084  31.167  42.588  12.844
11485W        W82085  33.938  39.709  13.037
11486W        W82086  14.810  28.237   2.156
11487W        W82087  43.012  23.175   1.040
11488W        W82088  25.093  37.143   2.128
11489W        W82089  35.014  43.306   0.701
11490W        W82090  13.168  32.380   4.462
11491W        W82091   9.201   5.659  11.058
11492W        W82092  19.571   1.313   4.358
11493W        W82093   8.665   3.436   4.952
11494W        W82094  27.696   8.116  14.792
11495W        W82095  17.419   5.642  14.406
11496W        W82096   9.352   8.153   3.210
11497W        W82097  20.142  13.215  10.792
11498W        W82098  26.952  14.748  10.922
11499W        W82099  24.556   4.399   3.726
11500W        W82100  32.359  27.040   4.654
11501W        W82101   5.199  17.556   1.319
11502W        W82102   2.443   0.426   3.192
11503W        W82103  27.211  12.515   0.943
11504W        W82104   8.244  40.871   2.614
11505W        W82105  30.113  37.157   1.760
11506W        W82106  10.638  29.347   0.559
11507W        W82107  32.047  43.543  11.851
11508W        W82108  43.083  32.466  13.003
11509W        W82109  30.023   0.873  13.481
11510W        W82110  25.730  40.940  13.007
11511W        W82111   8.158  20.646  11.048
11512W        W82112  18.801  31.207   4.198
11513W        W82113  30.582  28.208  12.579
11514W        W82114  38.389  23.952  13.623
11515W        W82115  39.134  36.896  13.046
11516W        W82116  23.553  21.219  12.969
11517W        W82117  37.954   8.872   2.379
11518W        W82118  34.896  13.213  12.227
11519W        W82119  11.443  32.485  14.987
11520W        W82120  16.693  43.874   2.328
11521W        W82121  30.948   7.941   3.523
11522W        W82122  34.140  18.945  11.295
11523W        W82123   6.948   3.457   1.766
11524W        W82124  16.320  26.407   1.791
11525W        W82125   8.537   7.790   4.244
11526W        W82126   5.456   4.132  13.355
11527W        W82127  32.058  26.043   3.870
11528W        W82128   6.707  15.622   4.894
11529W        W82129  14.330  15.122   3.671
11530W        W82130  41.876  34.817   4.339
11531W        W82131  29.227   9.389   0.198
11532W        W82132  31.427  15.772   0.797
11533W        W82133  39.656   4.442  11.671
11534W        W82134  21.924  14.747   0.112
11535W        W82135  14.124  24.709  11.639
11536W        W82136  18.624   7.303   3.190
11537W        W82137  34.398  15.677  11.596
11538W        W82138   2.321  31.202  14.756
11539W        W82139  23.487  42.365   3.740
11540W        W82140  32.067  42.437   0.897
11541W        W82141  32.537  41.610   5.225
11542W        W82142  38.453  11.596   3.111
11543W        W82143  24.662  31.515  10.723
11544W        W82144  11.631  21.950  12.545
11545W        W82145  32.432  31.565   3.647
11546W        W82146   9.394   3.768   4.487
11547W        W82147  32.949  13.206   4.358
11548W        W82148  27.004   7.467  14.468
11549W        W82149   3.370  27.495   3.262
11550W        W82150  11.784   1.721   2.958
11551W        W82151  18.455  30.508  10.814
11552W        W82152  37.418  38.338   0.380
11553W        W82153  20.044  41.398  10.189
11554W        W82154  42.398   3.826   4.549
11555W        W82155  30.669  12.403   4.059
11556W        W82156  30.649  34.694   4.887
11557W        W82157  19.534  30.868  10.464
11558W        W82158  32.022  27.661   3.139
11559W        W82159  10.725   8.374  12.364
11560W        W82160  43.292  43.432   0.288
11561W        W82161  42.724  16.965  11.622
11562W        W82162   3.945  18.958  13.389
11563W        W82163  10.196  33.872  10.801
11564W        W82164   0.720  39.293   4.074
11565W        W82165   3.348  44.740  14.796
11566W        W82166  17.666  19.912  11.524
11567W        W82167   4.810  40.782   1.511
11568W        W82168  18.551  18.481  11.075
11569W        W82169  19.687  14.111   0.316
11570W        W82170  19.999  43.728   0.092
11571W        W82171  33.085  28.213   0.410
11572W        W82172  25.093   0.745   1.183
11573W        W82173  21.003  42.960  11.964
11574W        W82174  37.875  28.000   4.194
11575W        W82175   1.657  33.185  10.963
11576W        W82176  29.574   9.530   4.088
11577W        W82177  13.923  11.208   4.237
11578W        W82178  24.482   8.238   1.399
11579W        W82179  36.414   4.360  13.087
11580W        W82180  26.422  17.069  12.043
11581W        W82181  34.494  40.544   3.485
11582W        W82182  22.712   2.068   3.043
11583W        W82183  42.266  35.710  12.949
11584W        W82184  34.952  40.914  14.811
11585W        W82185  44.256  25.144  14.250
11586W        W82186  24.780  32.593  11.517
11587W        W82187   1.699  36.937   0.280
11588W        W82188  14.120   2.867  11.910
11589W        W82189  17.460  35.464   0.286
11590W        W82190  32.232  27.730   1.340
11591W        W82191  16.675  44.739  12.109
11592W        W82192   9.657   4.001  14.806
11593W        W82193  29.417  32.905   0.942
11594W        W82194  34.413  15.456  14.842
11595W        W82195  31.656  26.209   4.839
11596W        W82196  15.707  44.980  12.866
11597W        W82197  42.290  29.958  12.508
11598W        W82198   7.465  11.895  12.869
11599W        W82199  39.274   7.910   1.363
11600W        W82200  25.953  30.400  13.866
11601W        W82201  40.528  29.375  14.990
11602W        W82202   8.370  15.393  14.896
11603W        W82203  27.538  27.095   4.110
11604W        W82204   2.664  36.447   1.934
11605W        W82205  16.481  37.625  13.241
11606W        W82206  10.496  24.398  13.174
11607W        W82207   9.646  28.391  12.585
11608W        W82208  12.118  42.118  11.069
11609W        W82209  13.964   7.968  12.094
11610W        W82210  30.603  27.185   1.121
11611W        W82211  31.220  32.154  12.559
11612W        W82212  26.934  17.361  12.001
11613W        W82213  30.867  35.276  13.577
11614W        W82214  36.457  16.718  13.336
11615W        W82215  21.146  41.688  13.117
11616W        W82216  40.994  17.336   2.399
11617W        W82217  34.989  44.823  13.130
11618W        W82218  24.236  41.067  13.019
11619W        W82219   2.105  33.470  14.515
11620W        W82220  22.498  18.553   4.263
11621W        W82221  12.224  38.855   2.294
11622W        W82222   0.981   0.849  10.177
11623W        W82223  43.285  16.689  12.963
11624W        W82224  29.011  31.126  10.752
11625W        W82225  26.693  22.488   0.707
11626W        W82226  11.409  30.913  12.146
11627W        W82227  27.875  28.655   0.699
11628W        W82228  39.696   2.334  12.017
11629W        W82229  18.025   9.270  12.000
11630W        W82230  43.460   3.426   4.543
11631W        W82231  21.205  19.090   3.138
11632W        W82232   9.399  37.819   1.910
11633W        W82233  35.569  20.742  13.056
11634W        W82234  40.334   4.015   4.626
11635W        W82235   5.937  34.652  12.621
11636W        W82236  14.830  23.794  13.493
11637W        W82237  41.639  16.863   1.841
11638W        W82238  11.911  41.440  11.983
11639W        W82239  16.174  20.455   2.770
11640W        W82240  30.443  18.557   5.141
11641W        W82241   0.597  29.379  10.562
11642W        W82242  36.687   9.692   4.771
11643W        W82243  42.518  42.011  10.538
11644W        W82244  41.517  40.536  12.933
11645W        W82245  25.985  23.626  10.875
11646W        W82246  40.098  33.440   4.554
11647W        W82247  11.256  23.165  11.860
11648W        W82248  26.188  17.529   3.693
11649W        W82249  24.088  40.090   2.957
11650W        W82250  19.967  23.350  10.099
11651W        W82251  42.096  14.589   1.047
11652W        W82252  15.564  18.790   3.280
11653W        W82253  23.156  38.302  12.569
11654W        W82254  35.238  43.234  10.728
11655W        W82255  22.216  28.917   0.469
11656W        W82256  23.232  30.025  12.840
11657W        W82257  43.910  25.003  10.448
11658W        W82258  23.589  26.471   0.881
11659W        W82259  34.820  35.080  10.742
11660W        W82260  33.623  31.069  11.498
11661W        W82261  28.499  20.818   4.233
11662W        W82262  28.624   5.725  12.502
11663W        W82263  22.009  24.783  12.904
11664W        W82264  22.547   8.855   2.272
11665W        W82265  33.097  18.117  10.620
11666W        W82266  33.152  17.775  12.387
11667W        W82267  32.167  10.755   3.387
11668W        W82268  21.959   7.231   3.723
11669W        W82269  16.812   9.368  12.052
11670W        W82270  25.307  38.675   0.870
11671W        W82271  17.183  32.667   3.592
11672W        W82272  33.362  34.405   1.814
11673W        W82273  30.565   4.773   4.520
11674W        W82274  20.608  35.378   0.655
11675W        W82275  34.335  16.393  11.554
11676W        W82276  35.386  17.105   4.527
11677W        W82277  13.033  37.199  11.567
11678W        W82278  28.374  33.060   4.959
11679W        W82279  14.840  38.555  10.683
11680W        W82280  44.104  38.278   4.189
11681W        W82281   1.015  14.119   0.780
11682W        W82282  19.978  28.006  14.013
11683W        W82283  43.066  35.523  12.431
11684W        W82284  33.382  16.350  11.645
11685W        W82285  27.959   2.324   4.741
11686W        W82286  31.964   9.836  14.463
11687W        W82287  34.976  15.881  12.837
11688W        W82288   5.680   9.836  10.482
11689W        W82289   3.456  29.644  12.952
11690W        W82290  38.657  42.787  12.901
11691W        W82291  20.510  39.888  14.197
11692W        W82292   7.135   7.152  12.485
11693W        W82293  41.660  12.142  12.175
11694W        W82294   2.158  44.327  14.383
11695W        W82295   3.501  29.909   3.299
11696W        W82296  39.302  17.643  11.611
11697W        W82297   8.203  15.513   0.382
11698W        W82298  33.101   1.889   0.390
11699W        W82299  39.464  44.924  11.616
11700W        W82300  10.719   7.166   0.374
11701W        W82301  38.638  21.617  12.473
11702W        W82302   6.218  34.670   2.659
11703W        W82303  31.208  10.769   3.227
11704W        W82304  26.458  37.343   1.337
11705W        W82305  30.857  15.909   2.944
11706W        W82306  26.256  37.773  11.904
11707W        W82307  33.575  12.407   1.204
11708W        W82308   6.250   8.306  13.753
11709W        W82309  38.672  33.482  13.441
11710W        W82310  21.199   7.814   2.054
11711W        W82311  16.956  35.806  12.509
11712W        W82312  27.040  16.694   4.684
11713W        W82313  38.378  11.681   2.569
11714W        W82314  43.971  28.176  11.389
11715W        W82315  13.917  16.443  14.841
11716W        W82316   4.275  33.892  11.584
11717W        W82317  34.380  20.091   2.717
11718W        W82318  35.379  26.075  12.953
11719W        W82319   9.564  44.965  14.403
11720W        W82320  34.493  10.128   1.429
11721W        W82321  15.971  44.633   0.420
11722W        W82322  41.098   5.439  13.863
11723W        W82323  14.263  19.302  14.000
11724W        W82324  33.041  27.139   1.433
11725W        W82325   1.085  18.062  12.187
11726W        W82326  21.320  11.392   1.783
11727W        W82327  22.959  38.525   3.642
11728W        W82328  35.382   3.370  13.239
11729W        W82329  27.492  41.043  10.264
11730W        W82330  19.824  36.589   0.451
11731W        W82331  22.471  39.404  14.845
11732W        W82332  34.456   1.971  14.906
11733W        W82333  36.903  26.838  13.646
11734W        W82334  24.956   3.628   4.145
11735W        W82335  20.997  26.745   9.647
11736W        W82336   0.955  14.858   0.363
11737W        W82337   9.723  26.654   5.194
11738W        W82338  13.355  11.670   2.668
11739W        W82339  26.750  30.647   0.012
11740W        W82340  23.521  40.763   2.638
11741W        W82341  25.243  22.216   2.234
11742W        W82342  41.312  41.385   0.276
11743W        W82343  21.990  14.000   4.762
11744W        W82344  40.529  23.028  12.026
11745W        W82345  13.391  20.702   4.635
11746W        W82346  39.169   4.564   4.798
11747W        W82347  29.731  42.936  14.316
11748W        W82348   9.318  31.036   1.369
11749W        W82349   7.070  39.944  11.603
11750W        W82350  35.956  27.812  12.466
11751W        W82351  28.950  11.213  11.433
11752W        W82352  28.213  31.995  13.862
11753W        W82353   4.415  38.692  12.617
11754W        W82354  32.810   6.693  14.393
11755W        W82355   3.057  14.183  14.499
11756W        W82356  14.534  21.069   4.579
11757W        W82357  34.154  43.498   2.343
11758W        W82358   6.910   1.251   3.716
11759W        W82359  10.789  18.610  11.604
11760W        W82360  24.148  17.192   3.109
11761W        W82361   8.791  28.459  13.558
11762W        W82362  21.458  19.622   4.244
11763W        W82363  10.313  12.229  10.583
11764W        W82364  20.236  30.297   0.393
11765W        W82365  44.951  41.530   4.707
11766W        W82366   4.009  29.198  12.669
11767W        W82367  36.324  28.197  11.865
11768W        W82368  43.248   6.322  13.775
11769W        W82369  40.889  42.668   1.262
11770W        W82370  37.562  19.359  13.726
11771W        W82371  20.138  14.337   3.389
11772W        W82372  29.985  27.045  13.375
11773W        W82373  21.139  39.996   0.366
11774W        W82374  25.764   4.214  12.898
11775W        W82375  41.495  32.056  13.902
11776W        W82376  43.306   3.938  12.555
11777W        W82377  19.177  37.957  14.302
11778W        W82378  33.197  18.415   3.734
11779W        W82379  14.673  16.249   2.118
11780W        W82380  36.102  33.210  13.088
11781W        W82381  33.678  44.979  12.891
11782W        W82382  44.322  31.376   0.028
11783W        W82383  25.936  33.427  11.184
11784W        W82384  14.721  28.138  11.426
11785W        W82385   6.415  23.100   3.087
11786W        W82386  31.244  17.285   4.310
11787W        W82387  17.269  10.764  14.682
11788W        W82388  39.509  15.136  11.430
11789W        W82389   4.367  31.472  12.651
11790W        W82390  22.773  37.162  12.095
11791W        W82391  15.403  41.375  13.449
11792W        W82392  20.762  32.156  13.442
11793W        W82393  36.948  27.126  14.103
11794W        W82394  42.810  44.582  13.675
11795W        W82395  14.798  40.293  14.032
11796W        W82396   4.751  19.593   4.825
11797W        W82397  36.410  35.616  12.613
11798W        W82398  10.105  15.182  14.164
11799W        W82399  36.416  36.571  14.957
11800W        W82400  24.510  40.257   3.664
11801W        W82401  23.638  32.177   2.360
11802W        W82402  36.435   8.965  11.148
11803W        W82403  44.990  13.944   1.255
11804W        W82404  29.151  11.826  12.971
11805W        W82405  14.355  38.770   0.337
11806W        W82406  18.038  24.738  13.061
11807W        W82407   4.696   0.238  13.992
11808W        W82408  44.829  14.207   0.345
11809W        W82409  16.701  43.415  11.696
11810W        W82410  17.889  32.727  12.295
11811W        W82411  19.480  32.075   3.857
11812W        W82412  14.182  23.180  10.664
11813W        W82413  21.975  20.429   3.017
11814W        W82414  24.824  39.408  12.023
11815W        W82415   4.271  30.705   2.806
11816W        W82416   2.431  20.767  11.073
11817W        W82417  38.884  24.688   2.818
11818W        W82418  43.995  14.650   2.312
11819W        W82419  19.706  25.144   1.842
11820W        W82420  20.555  28.193  12.378
11821W        W82421   4.967  21.501   1.762
11822W        W82422  36.405  16.360   2.306
11823W        W82423  28.900  40.577   0.066
11824W        W82424  14.847  39.328  12.944
11825W        W82425  26.421  38.343  12.962
11826W        W82426   4.965   5.622   3.210
11827W        W82427   9.826  42.400  12.053
11828W        W82428  32.426   0.400  11.399
11829W        W82429   8.354  23.527   1.301
11830W        W82430  40.607  23.990   2.448
11831W        W82431   1.819  37.552  10.689
11832W        W82432  33.039  15.082   0.434
11833W        W82433  32.343  35.953  11.409
11834W        W82434  21.782  30.506   0.346
11835W        W82435  10.627  26.247   0.765
11836W        W82436  13.439  28.098   0.898
11837W        W82437  31.111  31.472   1.788
11838W        W82438  14.171   2.027  13.921
11839W        W82439  27.034   7.612  12.025
11840W        W82440  33.178  14.871   5.064
11841W        W82441  39.596  24.523  12.906
11842W        W82442  36.175  33.596  10.646
11843W        W82443  32.694  12.612   3.235
11844W        W82444  28.158   8.887  12.349
11845W        W82445  17.697  36.291  12.617
11846W        W82446  14.198  33.109  14.717
11847W        W82447  39.293   6.249   3.928
11848W        W82448  11.916  34.811  11.151
11849W        W82449  36.954  27.134   1.795
11850W        W82450  31.984  37.164   0.957
11851W        W82451  16.286  23.708  13.460
11852W        W82452  43.305  22.089   4.522
11853W        W82453   1.922  15.769  12.111
11854W        W82454  34.466  27.539  13.462
11855W        W82455  15.153  16.358   3.228
11856W        W82456  22.557  27.530  12.086
11857W        W82457  28.713  29.540   0.232
11858W        W82458  28.199  21.207   4.044
11859W        W82459   5.456  13.175  11.179
11860W        W82460   6.443   8.103  14.934
11861W        W82461   1.878  26.650   1.874
11862W        W82462  35.923  29.456  12.819
11863W        W82463  42.461   6.033   3.515
11864W        W82464  35.256   5.200  11.138
11865W        W82465  36.665  17.159   5.041
11866W        W82466   5.691  25.113  13.997
11867W        W82467  44.731  12.385  11.517
11868W        W82468  27.025  34.591  14.481
11869W        W82469  29.277  36.469   0.355
11870W        W82470  12.218  15.709  10.747
11871W        W82471   0.782  13.189  12.601
11872W        W82472  32.936  16.670   3.174
11873W        W82473  21.242  23.234   1.426
11874W        W82474  20.804  11.968  11.271
11875W        W82475  12.581  41.951  13.188
11876W        W82476  41.580  21.005  10.696
11877W        W82477  32.175  18.212   0.025
11878W        W82478  24.870   3.294  10.691
11879W        W82479  34.925  34.138  12.501
11880W        W82480  41.025  18.628   4.640
11881W        W82481   9.653  25.052   0.737
11882W        W82482  38.753   1.964  11.072
11883W        W82483   0.534  21.962  14.267
11884W        W82484  36.031  38.063  12.384
11885W        W82485  42.389  36.627   5.012
11886W        W82486   4.518  14.583  13.882
11887W        W82487  21.544  42.236   1.622
11888W        W82488  23.623  42.880  14.508
11889W        W82489  37.563  33.977  10.830
11890W        W82490   7.397   4.122   3.096
11891W        W82491  14.582  26.143  13.951
11892W        W82492   4.770   6.665  11.581
11893W        W82493  27.388  40.192  14.024
11894W        W82494  35.982  29.150   4.857
11895W        W82495  37.044  20.235   4.630
11896W        W82496   7.018  20.591  12.867
11897W        W82497   0.704  39.141   2.762
11898W        W82498  33.013  39.571  14.882
11899W        W82499   2.309   9.635   2.590
11900W        W82500  26.513  20.756  11.099
11901W        W82501   5.003  16.373   2.609
11902W        W82502  15.826  39.135   2.644
11903W        W82503  36.370  40.663  10.301
11904W        W82504  41.936   0.777  11.162
11905W        W82505  27.637  13.245  12.169
11906W        W82506   6.661  16.544  12.981
11907W        W82507  29.652  31.861   0.863
11908W        W82508  23.184  40.843   4.124
11909W        W82509  19.297  15.765   4.721
11910W        W82510  18.784  16.643  13.037
11911W        W82511  40.330  38.430   0.764
11912W        W82512   8.347  33.955  10.641
11913W        W82513  32.091   5.938   3.030
11914W        W82514  16.832  38.541   1.751
11915W        W82515   7.518  21.282   1.924
11916W        W82516  32.857  36.447  10.950
11917W        W82517  13.593  12.896   2.325
11918W        W82518  16.641  20.102   3.156
11919W        W82519  21.009  33.144  12.470
11920W        W82520   5.660  12.790   4.179
11921W        W82521   2.981  10.643  14.720
11922W        W82522  38.568  25.163  13.430
11923W        W82523  26.473  19.241   3.943
11924W        W82524   7.227  41.541   0.965
11925W        W82525  22.027  33.980  14.263
11926W        W82526  17.178  35.909   4.541
11927W        W82527  19.705  19.220  13.623
11928W        W82528  11.927  24.709   3.203
11929W        W82529  35.386  36.829   0.632
11930W        W82530  25.335   1.923   0.459
11931W        W82531  44.531  22.540  10.024
11932W        W82532  35.905  19.138  12.635
11933W        W82533  26.757  31.643   1.901
11934W        W82534  21.994  36.785  13.096
11935W        W82535  29.944  33.839  12.142
11936W        W82536   4.424   1.566  14.431
11937W        W82537  25.934  42.936  12.811
11938W        W82538  14.195  44.320   5.351
11939W        W82539  16.528   5.688  11.946
11940W        W82540  31.973  27.393   2.682
11941W        W82541  13.247  36.171   4.083
11942W        W82542  11.792  31.564   3.756
11943W        W82543  39.900  29.135   4.251
11944W        W82544  21.848  23.610  13.955
11945W        W82545  20.838  20.783   0.222
11946W        W82546  33.124   6.774  11.199
11947W        W82547  14.144   0.414   3.762
11948W        W82548  28.483  12.710  10.665
11949W        W82549  11.066  11.615   0.906
11950W        W82550  35.885  27.523  13.428
11951W        W82551  44.557  34.008  14.751
11952W        W82552   1.498  35.266  14.571
11953W        W82553  33.106  14.364   3.885
11954W        W82554   0.863  39.083  13.416
11955W        W82555  18.637  44.847  10.763
11956W        W82556  36.330  19.643   4.683
11957W        W82557  32.514  16.186   4.792
11958W        W82558  43.794  40.995   1.927
11959W        W82559  19.546  43.778  11.459
11960W        W82560   1.707  42.433   0.913
11961W        W82561  29.895  14.290  12.977
11962W        W82562   5.470  34.346   0.230
11963W        W82563  35.536  18.955  13.776
11964W        W82564  27.187  14.039  12.661
11965W        W82565  27.388  31.529   4.694
11966W        W82566  18.462  43.407   4.865
11967W        W82567  35.456   7.854  13.549
11968W        W82568  44.435   0.253  13.074
11969W        W82569   6.851  29.210  10.981
11970W        W82570  35.143  38.883  11.892
11971W        W82571  18.822   0.357   1.013
11972W        W82572  22.673   0.971  11.115
11973W        W82573  20.294  21.581   2.315
11974W        W82574  36.544  36.560   4.630
11975W        W82575  20.264  40.896   2.611
11976W        W82576   4.788  43.506  12.306
11977W        W82577  38.269   6.114   2.382
11978W        W82578  20.098  34.993  11.379
11979W        W82579  14.084  42.815   4.422
11980W        W82580  33.896  25.561  11.176
11981W        W82581  38.621  14.759   0.754
11982W        W82582  26.096   9.559  13.767
11983W        W82583   3.020  12.851  12.886
11984W        W82584  38.065  43.714   0.721
11985W        W82585  44.443   6.594  10.778
11986W        W82586  13.223  27.106   1.187
11987W        W82587  10.751  32.782  11.028
11988W        W82588  32.605  12.149   1.284
11989W        W82589  16.641  25.248   4.124
11990W        W82590   9.738  14.070   5.103
11991W        W82591  28.101  17.564  14.247
11992W        W82592  42.080  15.466  10.816
11993W        W82593  39.589  23.218   0.911
11994W        W82594  20.962  23.463   3.147
11995W        W82595   1.509  35.528  11.627
11996W        W82596  24.882  10.366  14.267
11997W        W82597  36.500   5.788   2.149
11998W        W82598  36.855  15.712   4.271
11999W        W82599   3.313  41.458   1.447
12000W        W82600  14.465   9.213   2.869
12001W        W82601  28.043   4.428  11.027
12002W        W82602   0.993  18.205  12.885
12003W        W82603  43.401  41.152   3.314
12004W        W82604   2.889  33.282   1.680
12005W        W82605  26.973  44.087   3.201
12006W        W82606  11.410  29.056   2.701
12007W        W82607  20.622  30.567  12.670
12008W        W82608   5.543  27.417  11.457
12009W        W82609  22.619  12.634   2.787
12010W        W82610  19.981  24.538  13.847
12011W        W82611  21.657   9.825   3.202
12012W        W82612   9.963  24.619   0.399
12013W        W82613  21.806   0.203  14.281
12014W        W82614  28.093  29.829  12.114
12015W        W82615  37.235  29.384   0.276
12016W        W82616  18.640  22.905   3.237
12017W        W82617  16.582  11.677  13.018
12018W        W82618  22.206   6.145   4.419
12019W        W82619  34.324  34.938  10.756
12020W        W82620  40.076  30.002   2.723
12021W        W82621  20.997  11.669  13.056
12022W        W82622   9.279  20.325   1.797
12023W        W82623  16.620  22.253  13.736
12024W        W82624   6.863  25.180   2.306
12025W        W82625   8.695  44.062   2.769
12026W        W82626   4.039  31.480  11.712
12027W        W82627  28.173  28.740   4.522
12028W        W82628  41.594  44.849   2.222
12029W        W82629  31.601  37.445   2.405
12030W        W82630  23.631  36.953   2.540
12031W        W82631  11.113  29.245  14.856
12032W        W82632   1.314  16.370   3.157
12033W        W82633  25.062  39.906  12.098
12034W        W82634  13.712  12.079   4.382
12035W        W82635  34.388  43.483   3.221
12036W        W82636  43.227  28.574   4.079
12037W        W82637  37.336  16.411  13.433
12038W        W82638  30.970  30.745   3.132
12039W        W82639  37.048   4.469  13.584
12040W        W82640  24.683  28.408   0.992
12041W        W82641   7.971  25.011   3.775
12042W        W82642  25.301  32.178   1.852
12043W        W82643   6.698  35.912   0.721
12044W        W82644  33.346   8.351   2.658
12045W        W82645  37.858  38.560  11.179
12046W        W82646  15.230  20.153  10.675
12047W        W82647   0.729  29.234  13.055
12048W        W82648  24.102  21.685  11.900
12049W        W82649  26.288  21.676   1.822
12050W        W82650  32.665  41.518  13.929
12051W        W82651   4.497  18.117   2.848
12052W        W82652  12.283   4.435   3.111
12053W        W82653  29.408  31.124   2.889
12054W        W82654  19.669  23.474  10.673
12055W        W82655  43.788  26.759  14.947
12056W        W82656  30.422  36.364   1.853
12057W        W82657  20.254  30.793   0.432
12058W        W82658  16.665  36.954   2.802
12059W        W82659   1.159   6.024  13.985
12060W        W82660  36.393  23.416   3.625
12061W        W82661  22.141  12.130  14.062
12062W        W82662  14.374   3.191   1.705
12063W        W82663  21.240  23.133  11.580
12064W        W82664   7.118  34.481   0.937
12065W        W82665  22.731  35.045   1.630
12066W        W82666  38.590  25.543  12.492
12067W        W82667  43.938   4.800  13.910
12068W        W82668  36.313  14.094   4.438
12069W        W82669  14.390  32.020  14.950
12070W        W82670  15.405  23.800   0.306
12071W        W82671  40.869  40.105   3.101
12072W        W82672  36.380  33.332   3.360
12073W        W82673  34.371   7.144   5.036
12074W        W82674   5.316  12.783  10.855
12075W        W82675  10.889  26.937   4.556
12076W        W82676   8.834  32.442   1.709
12077W        W82677  44.980   3.946  13.525
12078W        W82678   3.794  23.490   2.659
12079W        W82679  37.332  27.519  13.146
12080W        W82680  12.715   6.091   0.328
12081W        W82681  44.531  36.470   1.315
12082W        W82682  43.769  29.096   1.872
12083W        W82683  23.634  35.980   3.093
12084W        W82684  37.312   6.758  10.749
12085W        W82685  20.562  21.655   1.853
12086W        W82686  40.859  40.932   2.422
12087W        W82687  13.136   9.378   3.107
12088W        W82688  10.297   2.000  10.347
12089W        W82689  37.170  38.200  13.863
12090W        W82690  30.385  36.405   0.006
12091W        W82691  14.581  25.874  10.894
12092W        W82692  31.474  35.833  12.423
12093W        W82693   5.159  44.382   0.566
12094W        W82694  37.476   9.246  14.667
12095W        W82695   8.429  37.711   3.551
12096W        W82696  44.441   6.992   0.823
12097W        W82697  35.038  18.621   3.610
12098W        W82698   4.384  33.551  13.390
12099W        W82699   6.152  37.033   3.717
12100W        W82700  30.582  44.806  12.647
12101W        W82701   4.316  36.042   0.644
12102W        W82702  23.648  20.240   0.273
12103W        W82703  16.736  18.280   2.087
12104W        W82704  44.182   6.079  11.638
12105W        W82705  19.108   5.914  11.549
12106W        W82706   8.494  25.474  14.894
12107W        W82707  18.916  38.316  12.564
12108W        W82708  14.771  38.874  13.155
12109W        W82709  38.725   3.156   4.204
12110W        W82710  22.014  22.770  13.901
12111W        W82711  42.789   1.980  14.363
12112W        W82712  40.141  39.478   5.069
12113W        W82713  41.296   9.585   4.926
12114W        W82714   9.875   0.543   2.745
12115W        W82715   0.171  40.335  14.913
12116W        W82716   3.918   4.323  14.543
12117W        W82717  43.508  34.841   0.231
12118W        W82718  31.888  41.211  13.493
12119W        W82719  24.923  30.494  10.758
12120W        W82720  40.341   3.190  13.414
12121W        W82721   4.151  24.074   4.909
12122W        W82722  43.486   0.888   1.751
12123W        W82723   9.934   1.468  11.454
12124W        W82724   2.721  17.026  11.004
12125W        W82725   1.367  40.894   1.281
12126W        W82726  19.505   9.426  11.101
12127W        W82727  12.638  41.990   2.893
12128W        W82728   4.254   8.415  13.699
12129W        W82729  26.497  29.225   4.042
12130W        W82730  25.440  16.155  11.501
12131W        W82731  21.993   9.737   4.150
12132W        W82732  10.708  42.676  14.868
12133W        W82733  30.390  19.166  11.991
12134W        W82734  24.744  24.103   4.928
12135W        W82735  12.770  26.749   0.790
12136W        W82736  35.281   7.413   0.903
12137W        W82737  11.298  39.919  10.906
12138W        W82738   1.865   1.386  11.806
12139W        W82739  19.277  37.578   3.767
12140W        W82740  42.072   0.055   2.242
12141W        W82741   9.647  29.625   3.824
12142W        W82742  38.280  35.089  14.764
12143W        W82743  29.379  42.358   1.423
12144W        W82744  32.653  39.368  10.686
12145W        W82745  41.254  44.885  12.508
12146W        W82746  42.967   0.447   1.856
12147W        W82747  30.920  26.009   2.953
12148W        W82748  11.154  29.613  11.997
12149W        W82749  18.662  18.771  14.543
12150W        W82750  43.497  13.396  14.904
12151W        W82751  20.342   0.102   0.065
12152W        W82752  37.803   2.197   4.285
12153W        W82753  28.512   8.708  11.016
12154W        W82754  21.970  27.076  13.351
12155W        W82755  29.030  18.456  12.585
12156W        W82756  10.062  41.319  13.043
12157W        W82757   5.363  38.486   3.679
12158W        W82758  29.121   7.611  14.823
12159W        W82759  16.122  39.344   4.045
12160W        W82760  33.667  17.576   1.834
12161W        W82761  40.568  33.579   4.028
12162W        W82762  11.974   3.410  14.297
12163W        W82763  35.677  15.657  12.058
12164W        W82764  21.768   0.296  13.381
12165W        W82765  40.378  28.358   2.829
12166W        W82766   7.547  41.927  10.546
12167W        W82767  15.158  19.654   3.067
12168W        W82768  35.985   1.533   2.455
12169W        W82769  19.104   3.225  13.302
12170W        W82770  14.665  42.093  14.503
12171W        W82771   7.687  14.554   0.858
12172W        W82772  16.105  36.948  12.530
12173W        W82773  26.247  14.296  11.507
12174W        W82774  13.337  27.571   2.836
12175W        W82775  36.770   3.428  10.674
12176W        W82776  20.070  37.941  11.929
12177W        W82777  22.632   1.041   1.530
12178W        W82778  17.184  41.392  10.375
12179W        W82779  40.543  30.129   1.851
12180W        W82780  39.917  26.017   1.709
12181W        W82781  17.109  14.492   0.469
12182W        W82782   1.336   1.787  12.918
12183W        W82783  44.449  40.103  14.639
12184W        W82784  17.253  23.197  11.584
12185W        W82785  43.178  16.051   4.869
12186W        W82786   1.356  38.563   0.808
12187W        W82787  37.003  31.523   1.489
12188W        W82788  42.564  34.429   1.729
12189W        W82789  10.079  29.716   5.080
12190W        W82790  21.505  42.955  10.713
12191W        W82791  13.447  19.682   5.088
12192W        W82792  44.545  41.554   5.010
12193W        W82793  18.982  31.896   5.479
12194W        W82794   8.248   4.907  10.349
12195W        W82795  19.675   8.179   1.409
12196W        W82796  36.035   9.736  11.206
12197W        W82797  27.086  18.625   3.687
12198W        W82798  13.831   8.730   0.303
12199W        W82799  36.367  25.092   1.169
12200W        W82800  44.779   5.526  11.983
12201W        W82801  37.416  30.900   1.855
12202W        W82802  25.594   7.394  12.148
12203W        W82803   1.450  43.281   4.662
12204W        W82804  35.894  40.369  14.439
12205W        W82805   3.152  44.446   5.164
12206W        W82806   6.047   4.950   1.400
12207W        W82807  15.671   7.604   3.348
12208W        W82808  13.283  12.826  10.512
12209W        W82809  24.406   8.300  13.800
12210W        W82810  26.127  29.959   4.288
12211W        W82811   7.939  36.633   2.277
12212W        W82812  31.816  16.154  14.604
12213W        W82813   4.934   4.337  14.457
12214W        W82814   4.210  25.939  14.945
12215W        W82815  33.091  28.490  14.464
12216W        W82816  31.371  23.940   5.056
12217W        W82817   8.955   3.373   9.848
12218W        W82818  36.859  37.583   2.190
12219W        W82819   4.880   8.000  13.450
12220W        W82820   7.189   4.396   2.654
12221W        W82821  23.223  28.110  10.902
12222W        W82822  18.893  40.950  10.705
12223W        W82823  42.543  39.458  13.110
12224W        W82824  31.126   7.130   3.309
12225W        W82825  40.299  10.094  14.459
12226W        W82826   4.324   7.771   0.017
12227W        W82827  42.442  40.839  13.916
12228W        W82828  22.212  13.793  12.375
12229W        W82829  16.517  38.330   3.652
12230W        W82830  43.833  26.083   3.665
12231W        W82831   4.255  10.480   2.420
12232W        W82832  16.811  14.666   0.855
12233W        W82833  42.038   2.716  13.339
12234W        W82834   7.754  19.070   4.643
12235W        W82835  14.227  13.267  11.819
12236W        W82836  42.199  36.018   4.366
12237W        W82837  32.519  28.180  10.362
12238W        W82838  31.875   7.129   5.002
12239W        W82839  14.548  32.420   4.516
12240W        W82840  12.685  11.560   4.140
12241W        W82841   1.723  42.055   4.610
12242W        W82842  12.812  32.065   1.266
12243W        W82843  17.040  29.462   2.393
12244W        W82844  10.401  28.682   3.070
12245W        W82845  43.235  23.153  12.349
12246W        W82846   0.805  29.867   4.242
12247W        W82847  31.576  38.684   3.262
12248W        W82848   6.247   5.257  14.483
12249W        W82849  11.468  22.421   0.502
12250W        W82850   6.864  14.634  10.654
12251W        W82851  41.896  41.835   2.232
12252W        W82852   3.901  15.650   3.630
12253W        W82853  13.710  39.935  10.125
12254W        W82854   8.119  21.056   2.754
12255W        W82855   2.142  40.517   4.269
12256W        W82856  15.673   1.683  12.843
12257W        W82857  25.225   5.545  10.767
12258W        W82858  14.095  11.778   4.249
12259W        W82859  17.758  40.476  13.467
12260W        W82860  36.046  12.840   2.241
12261W        W82861  43.349  33.674  14.007
12262W        W82862   3.092  27.174  13.342
12263W        W82863  18.052  11.589   2.599
12264W        W82864   2.541  17.772   0.292
12265W        W82865  17.229  40.076  11.993
12266W        W82866  10.261  40.784  11.259
12267W        W82867  25.033  43.590  13.394
12268W        W82868  44.755   6.713   0.465
12269W        W82869   0.936   4.817   2.608
12270W        W82870  19.281  37.960  12.458
12271W        W82871  12.629  39.018  14.914
12272W        W82872  24.102  19.489   3.998
12273W        W82873  33.432   0.034   1.811
12274W        W82874  21.442   8.946   1.608
12275W        W82875  21.481  31.471   3.098
12276W        W82876  39.872  23.576   4.696
12277W        W82877  37.942  33.626   4.665
12278W        W82878   2.370  12.598   1.698
12279W        W82879  20.131  43.476  13.359
12280W        W82880  22.342  42.524   4.117
12281W        W82881   3.411  35.038  10.406
12282W        W82882  31.138  26.682   3.202
12283W        W82883  23.477  44.548   0.900
12284W        W82884   8.294  20.053   4.481
12285W        W82885  36.359  28.511  13.467
12286W        W82886  37.987   8.803  10.980
12287W        W82887  37.284  42.390  14.339
12288W        W82888  30.907  38.627   9.802
12289W        W82889   8.745  20.677  14.680
12290W        W82890  20.940  36.607   2.237
12291W        W82891   2.880  35.986  12.508
12292W        W82892  42.780   3.863  12.590
12293W        W82893  36.342  35.945  12.092
12294W        W82894  28.207  30.138   4.201
12295W        W82895  34.917  36.003  12.831
12296W        W82896  40.592  44.675  11.165
12297W        W82897  43.544  23.519  12.508
12298W        W82898  44.818  34.423   2.279
12299W        W82899  38.402   5.857   0.680
12300W        W82900  31.369  10.217  11.106
12301W        W82901   6.320   1.389  14.081
12302W        W82902  17.797  27.375  13.380
12303W        W82903   1.978  16.206   0.866
12304W        W82904  17.172   4.430  10.437
12305W        W82905  38.397  44.352   4.772
12306W        W82906  40.521   8.155   3.957
12307W        W82907  33.459   2.563   2.657
12308W        W82908  22.930   3.012   1.509
12309W        W82909   8.389   9.170   2.676
12310W        W82910  14.744   1.713   4.132
12311W        W82911  12.159  24.495  13.952
12312W        W82912  23.249  23.252   3.622
12313W        W82913   0.886   2.649  13.728
12314W        W82914  18.747  34.902   1.838
12315W        W82915  24.013  44.996   1.232
12316W        W82916  15.742   6.597  13.914
12317W        W82917  15.526  23.362  11.626
12318W        W82918  36.577  18.117   4.475
12319W        W82919  36.876   9.765  14.306
12320W        W82920  42.003  44.234  13.453
12321W        W82921  35.303  33.659  11.117
12322W        W82922  16.749  38.601   4.545
12323W        W82923  13.900   9.531   1.833
12324W        W82924  14.256  28.132  11.131
12325W        W82925  20.056  35.029   4.231
12326W        W82926   2.634  44.811   2.748
12327W        W82927  10.724  18.479   5.073
12328W        W82928  20.897  43.797   2.360
12329W        W82929  38.060  17.270  14.908
12330W        W82930  31.580  23.792   1.234
12331W        W82931  15.065  16.544  13.860
12332W        W82932  34.919  35.501  13.031
12333W        W82933  41.964  15.721  10.392
12334W        W82934   3.991  19.937  10.784
12335W        W82935  23.749  25.880  13.664
12336W        W82936   8.305  43.765   0.776
12337W        W82937  26.723  11.108  11.424
12338W        W82938  20.500   7.022   5.468
12339W        W82939  21.271  43.248   0.175
12340W        W82940  15.495  33.424   0.319
12341W        W82941  12.185  35.582  11.532
12342W        W82942  28.157  13.155   0.031
12343W        W82943  15.742  22.057   0.186
12344W        W82944  40.478  38.340   2.422
12345W        W82945  33.200  11.128   1.014
12346W        W82946  40.930  14.154   3.258
12347W        W82947  39.863  18.044  13.099
12348W        W82948  16.754  12.169  14.243
12349W        W82949   4.870  38.393  14.831
12350W        W82950   3.464  37.894  13.069
12351W        W82951  11.242   0.528  10.392
12352W        W82952   9.081  27.106   1.389
12353W        W82953  23.975  11.705   4.550
12354W        W82954  32.642   8.559  11.074
12355W        W82955  29.848  34.613  13.854
12356W        W82956  39.237  43.266   3.713
12357W        W82957   5.327  39.391  12.563
12358W        W82958  11.824  21.457   4.237
12359W        W82959   5.189  40.992  12.211
12360W        W82960  37.049  21.731   2.370
12361W        W82961   7.427  15.128   4.527
12362W        W82962  24.963  20.853   1.648
12363W        W82963  37.897   0.502  14.767
12364W        W82964  37.906  43.795   1.982
12365W        W82965  32.669  18.077  13.491
12366W        W82966   5.233  15.731   3.341
12367W        W82967  31.435  37.875   0.966
12368W        W82968  31.316  26.544  14.464
12369W        W82969  28.996   4.084  12.873
12370W        W82970  25.416   9.478   4.566
12371W        W82971   2.249  41.935  11.643
12372W        W82972  14.037  20.507   1.707
12373W        W82973  26.712  24.199   3.626
12374W        W82974  32.319  35.548   4.242
12375W        W82975  29.335   9.822  14.921
12376W        W82976  14.838  27.451   0.304
12377W        W82977  28.539   8.068  11.862
12378W        W82978   6.840  29.116  13.822
12379W        W82979  14.958  23.710  10.965
12380W        W82980   7.994  38.078   2.294
12381W        W82981  32.172   9.466  14.918
12382W        W82982  16.700  11.893  10.662
12383W        W82983  42.739  21.689   3.212
12384W        W82984  15.106   2.062  12.569
12385W        W82985  44.775   5.241   1.730
12386W        W82986  40.437  15.203   4.116
12387W        W82987  19.068  24.443   0.327
12388W        W82988  19.147   1.213  13.070
12389W        W82989  12.730  27.793  14.558
12390W        W82990  44.335  44.817   4.615
12391W        W82991  26.195  22.647   0.709
12392W        W82992  25.655  27.402   4.720
12393W        W82993   8.051  25.382  11.045
12394W        W82994  41.747  24.747   3.184
12395W        W82995  14.809  40.691   0.804
12396W        W82996   6.386  12.305   2.293
12397W        W82997  17.573  13.671  13.545
12398W        W82998  31.555  33.999   4.448
12399W        W82999  10.809  41.111   1.940
12400W        W83000  40.290  44.007  12.664
12401W        W83001  14.075  10.769   4.731
12402W        W83002  14.242  43.827   3.749
12403W        W83003  35.840  14.374  12.203
12404W        W83004  41.001  32.775  11.221
12405W        W83005  31.915  11.050  11.565
12406W        W83006   3.876  30.652  12.565
12407W        W83007  30.294  28.711  14.449
12408W        W83008  13.890   9.022   1.990
12409W        W83009  21.133  27.683  11.636
12410W        W83010  41.242  43.094   9.951
12411W        W83011  33.681  32.827   2.005
12412W        W83012  29.174  39.521   0.240
12413W        W83013  30.512   4.851   3.015
12414W        W83014   4.301  11.047   3.158
12415W        W83015  23.401  37.276  13.817
12416W        W83016  33.102  43.354   2.902
12417W        W83017  23.058   5.320   3.438
12418W        W83018  40.829  19.749   3.067
12419W        W83019   3.351  18.964  12.625
12420W        W83020   2.272  32.083   3.372
12421W        W83021  42.930  14.333   2.821
12422W        W83022  14.554  38.964  12.145
12423W        W83023   7.897   6.083  12.931
12424W        W83024   9.941  30.947   0.350
12425W        W83025  40.559  15.125  14.894
12426W        W83026  23.778  16.183  13.334
12427W        W83027  36.840  31.051  10.754
12428W        W83028   2.739  22.404  12.523
12429W        W83029  10.793  27.273   1.363
12430W        W83030  39.793  17.376  10.311
12431W        W83031  26.186  44.766  13.147
12432W        W83032  16.623   6.229   1.444
12433W        W83033  42.006  17.184  12.961
12434W        W83034  32.173  13.302  12.833
12435W        W83035  20.795  19.309  11.914
12436W        W83036  19.288  18.128  14.803
12437W        W83037   8.939  33.008   2.395
12438W        W83038  19.052  42.181   1.373
12439W        W83039   7.128  28.137   2.232
12440W        W83040  33.231   0.193  12.476
12441W        W83041  13.537   8.797   5.040
12442W        W83042  19.028  42.968   3.294
12443W        W83043  27.989  41.071   3.664
12444W        W83044   9.658  32.147  13.614
12445W        W83045  40.207  34.155  10.482
12446W        W83046  23.012  44.749  12.611
12447W        W83047  10.162  21.039   3.747
12448W        W83048  19.335  37.472  14.427
12449W        W83049  19.304   2.461   3.201
12450W        W83050  26.607  16.299  12.562
12451W        W83051  23.138   7.351   1.392
12452W        W83052   7.731   2.125  14.344
12453W        W83053  37.012  27.530  12.741
12454W        W83054  18.610  31.939   0.821
12455W        W83055  11.810   2.768   3.111
12456W        W83056   7.285  11.295  14.190
12457W        W83057  14.317  41.279   9.700
12458W        W83058  19.215   6.679  13.950
12459W        W83059  14.651  35.000   3.174
12460W        W83060  35.957   9.865   3.301
12461W        W83061  19.528  43.259   3.729
12462W        W83062   2.999  22.058   0.206
12463W        W83063  21.382  16.135   3.774
12464W        W83064  24.091  30.114  14.023
12465W        W83065  43.451  24.907   4.505
12466W        W83066  38.332  37.428   3.276
12467W        W83067  12.298  32.354  11.047
12468W        W83068   5.844  33.414  13.785
12469W        W83069  21.979   4.757   1.429
12470W        W83070  35.895   1.466  13.331
12471W        W83071  21.990  20.091  11.873
12472W        W83072   9.447  42.219   4.160
12473W        W83073  12.518  38.599  10.767
12474W        W83074   1.825  18.826   3.670
12475W        W83075  14.106   0.610  14.983
12476W        W83076   0.718  13.337   1.335
12477W        W83077  39.997  18.710   3.645
12478W        W83078   0.040  27.393  11.602
12479W        W83079  37.284   2.238   0.900
12480W        W83080  15.585  43.777  12.934
12481W        W83081   3.287   8.837  14.977
12482W        W83082  11.547  25.469   3.692
12483W        W83083  39.136  35.861  13.869
12484W        W83084  43.329  17.559  12.824
12485W        W83085   6.165  14.656  12.898
12486W        W83086   2.008  42.697  13.877
12487W        W83087  19.074  13.643  13.603
12488W        W83088  29.910  40.705  13.629
12489W        W83089  41.905  35.635  12.076
12490W        W83090  12.595  28.319  12.431
12491W        W83091  37.440  36.252  14.737
12492W        W83092  41.427   2.107   4.629
12493W        W83093   0.473  44.443  11.436
12494W        W83094   8.384  19.541   4.626
12495W        W83095  22.736  39.888  14.943
12496W        W83096   5.729  14.785  14.216
12497W        W83097  14.254   6.374   3.494
12498W        W83098  27.304  30.862   0.564
12499W        W83099  37.623  19.999   1.256
12500W        W83100  37.058   0.073   3.834
12501W        W83101   8.660  20.028  13.555
12502W        W83102  28.385   1.293  14.065
12503W        W83103  39.493  44.904   3.164
12504W        W83104  39.332   2.891  13.660
12505W        W83105  17.168  40.285   4.502
12506W        W83106  41.882  43.951   2.199
12507W        W83107  16.878  33.917   3.319
12508W        W83108  15.315  18.181  11.968
12509W        W83109   2.753  13.117   1.226
12510W        W83110  32.008  26.358  14.835
12511W        W83111  18.530  35.342  13.538
12512W        W83112   4.473  25.951   4.090
12513W        W83113  34.836  30.475   1.748
12514W        W83114  35.293  34.930  13.404
12515W        W83115  28.592  16.115  13.475
12516W        W83116   3.345  22.875  14.969
12517W        W83117   9.374   2.898   0.301
12518W        W83118  33.585  35.680  10.735
12519W        W83119  37.039  43.240   4.667
12520W        W83120   6.458  13.935   2.181
12521W        W83121  16.524  38.937   0.793
12522W        W83122  39.750  37.475  13.440
12523W        W83123   8.197   0.505  12.957
12524W        W83124  13.371   6.600  10.713
12525W        W83125  12.933  29.720  12.398
12526W        W83126  13.102  16.513  12.412
12527W        W83127  21.365  24.279  12.958
12528W        W83128  43.457  11.969   2.401
12529W        W83129   7.415  38.340  10.892
12530W        W83130  29.531  31.086   0.269
12531W        W83131  32.135   5.067  10.409
12532W        W83132   6.807  12.810   1.929
12533W        W83133  16.850   7.227  12.978
12534W        W83134  43.578   5.905  13.707
12535W        W83135  43.522   3.670   0.030
12536W        W83136  26.232  22.582  12.534
12537W        W83137  38.271   5.207  10.684
12538W        W83138  18.995  31.002   2.691
12539W        W83139  43.089   1.269  13.529
12540W        W83140  42.389  43.792   2.141
12541W        W83141   3.757   7.180   3.349
12542W        W83142   2.880   3.073   2.839
12543W        W83143  22.504  13.681  10.621
12544W        W83144   6.847  31.061   3.680
12545W        W83145  30.035  10.395  12.433
12546W        W83146  18.294   9.171   1.777
12547W        W83147  22.032  23.212   2.145
12548W        W83148  42.885  30.667  10.303
12549W        W83149  32.025  30.365   2.576
12550W        W83150  44.389   3.308  10.357
12551W        W83151  32.410  17.638  13.481
12552W        W83152  33.765  11.816   1.883
12553W        W83153  28.421   4.270  13.515
12554W        W83154  38.163  35.046   3.208
12555W        W83155  33.007  23.762   2.623
12556W        W83156   9.188  31.958  13.967
12557W        W83157  40.258  17.745  12.938
12558W        W83158   4.660  12.738   0.359
12559W        W83159  17.792   4.998   3.368
12560W        W83160  12.735  13.682  10.605
12561W        W83161  16.999  28.553  14.724
12562W        W83162  10.305  38.889   4.612
12563W        W83163   9.417  17.215   2.209
12564W        W83164  22.171  35.913   1.709
12565W        W83165  23.559  41.820  10.653
12566W        W83166  10.094  12.383   4.099
12567W        W83167  15.630  30.937  13.440
12568W        W83168  18.874  35.441   1.260
12569W        W83169   0.971   1.858   3.195
12570W        W83170   1.944  24.160   1.151
12571W        W83171  11.367  10.195  13.002
12572W        W83172  12.639  41.287  12.820
12573W        W83173   6.837  32.658   2.379
12574W        W83174   7.183  33.438  10.893
12575W        W83175   8.812   6.310   2.535
12576W        W83176  27.437  11.836  12.926
12577W        W83177  24.793  31.926   4.603
12578W        W83178  17.322   1.943  14.572
12579W        W83179  14.192  25.000  13.345
12580W        W83180  33.574  33.617   1.480
12581W        W83181   1.298   3.195   0.829
12582W        W83182   4.844  40.581  11.277
12583W        W83183   4.214  25.872   4.537
12584W        W83184   5.835  19.714  12.334
12585W        W83185  20.728  44.460   3.533
12586W        W83186  29.306  44.456  14.489
12587W        W83187  32.943  16.022  13.973
12588W        W83188  13.710  22.591   3.255
12589W        W83189  22.568  17.070   1.383
12590W        W83190  27.180  20.477   0.342
12591W        W83191  41.857   6.672   2.311
12592W        W83192  33.564  33.427  11.151
12593W        W83193  28.973   5.497   4.800
12594W        W83194  28.459  17.047   3.857
12595W        W83195   1.431  29.972  10.684
12596W        W83196  27.684   4.192  10.670
12597W        W83197  13.912  29.117   2.642
12598W        W83198   1.771  43.925   3.806
12599W        W83199  14.625  10.256  14.526
12600W        W83200  26.356  36.440   1.767
12601W        W83201  39.067  19.364   1.511
12602W        W83202   8.686   3.898  12.666
12603W        W83203  42.006  16.010  11.512
12604W        W83204   6.575   5.849   0.026
12605W        W83205  40.085   3.383  13.009
12606W        W83206  26.611  29.490   3.620
12607W        W83207  44.586  10.048  11.225
12608W        W83208  38.646  43.136   2.843
12609W        W83209  36.820  27.546  13.223
12610W        W83210  34.891   2.296   4.681
12611W        W83211  36.107  28.960   4.384
12612W        W83212  11.858  25.189  12.123
12613W        W83213  41.293  23.704  13.374
12614W        W83214  41.152   8.437  12.921
12615W        W83215  16.568  38.354   0.404
12616W        W83216  18.357  12.604   4.998
12617W        W83217  36.799  26.872   1.364
12618W        W83218  17.631  19.838   3.631
12619W        W83219  22.128  24.182   3.145
12620W        W83220  42.887   0.198  14.417
12621W        W83221  32.931  18.739  13.013
12622W        W83222  24.896  21.181   0.796
12623W        W83223  21.888   3.708  13.479
12624W        W83224  28.157  18.649   2.544
12625W        W83225  16.708   5.797   1.147
12626W        W83226  21.276  15.633  10.247
12627W        W83227  12.191  24.793   4.752
12628W        W83228  16.152  43.764  13.581
12629W        W83229  36.514   0.320   2.316
12630W        W83230  22.331  34.492   2.729
12631W        W83231  23.279  17.755  11.654
12632W        W83232  11.796  37.761   4.418
12633W        W83233  27.025  25.640  12.661
12634W        W83234  27.702  14.048  12.568
12635W        W83235  30.076  19.289   3.308
12636W        W83236  27.167   0.671   0.991
12637W        W83237  30.099   9.706  13.959
12638W        W83238  37.558  14.332   0.298
12639W        W83239   5.545  32.047  13.397
12640W        W83240  20.619  39.401  10.781
12641W        W83241  33.759   7.314   0.920
12642W        W83242  37.395   5.213   1.043
12643W        W83243  35.096   5.321  10.415
12644W        W83244  15.806  17.635   2.591
12645W        W83245  34.534   4.438   4.345
12646W        W83246  11.862  38.722   3.303
12647W        W83247  31.232  13.352  11.129
12648W        W83248   4.950   4.646  13.807
12649W        W83249  29.181  30.690  12.558
12650W        W83250  21.618  16.723   2.259
12651W        W83251  21.030  40.921  14.879
12652W        W83252  32.437  34.556   3.232
12653W        W83253  27.413   3.420  12.854
12654W        W83254  39.584  26.518  12.450
12655W        W83255  39.501  33.627  10.676
12656W        W83256  22.088  40.546   2.520
12657W        W83257  30.112  19.635   1.747
12658W        W83258   5.235  20.101  13.343
12659W        W83259  16.656  18.280  13.518
12660W        W83260  31.007   1.468  13.070
12661W        W83261  39.273  34.024  14.236
12662W        W83262  38.704  36.927   1.907
12663W        W83263  22.463  15.568   1.385
12664W        W83264  44.803  13.625  12.924
12665W        W83265  39.997  43.565   3.458
12666W        W83266  31.871  13.125  13.759
12667W        W83267  12.720  30.546  11.183
12668W        W83268   9.570  19.150   3.821
12669W        W83269   5.490   2.370  14.524
12670W        W83270  23.715   0.337  12.785
12671W        W83271  40.474  28.419   1.178
12672W        W83272  16.210  14.096   3.664
12673W        W83273   6.108   4.319   0.838
12674W        W83274   1.791  25.902   2.414
12675W        W83275  31.503  28.750   1.920
12676W        W83276   8.595  40.708  10.788
12677W        W83277  13.415  15.682  14.556
12678W        W83278  20.925  35.418  13.359
12679W        W83279  32.161  39.776   2.850
12680W        W83280  33.070  17.340   0.511
12681W        W83281  21.816  21.682   1.439
12682W        W83282  22.527   1.709  11.691
12683W        W83283  21.849   1.919  13.926
12684W        W83284  15.619  20.272   0.765
12685W        W83285  26.728   3.590  11.422
12686W        W83286  18.251   0.824  14.293
12687W        W83287  19.543  37.483   3.352
12688W        W83288  37.620  44.182  11.309
12689W        W83289  32.935  31.460  11.897
12690W        W83290   0.627  40.034  13.500
12691W        W83291  34.640   9.431   2.780
12692W        W83292  25.990  15.588   2.415
12693W        W83293  27.167  17.804  12.938
12694W        W83294  18.622  13.431  13.520
12695W        W83295   9.314   1.312   1.150
12696W        W83296  30.674   9.838  10.409
12697W        W83297  23.747  25.166   1.415
12698W        W83298  29.875  15.224  11.995
12699W        W83299  26.073  35.343   2.838
12700W        W83300  23.570  11.624  14.337
12701W        W83301  23.084  38.774  14.385
12702W        W83302  12.138  10.318   4.815
12703W        W83303  21.763  26.507   0.868
12704W        W83304  35.464  38.173   2.643
12705W        W83305  42.561  43.566  11.168
12706W        W83306  42.829  43.246  13.533
12707W        W83307  39.009  33.435  10.676
12708W        W83308  22.327   9.120  14.967
12709W        W83309  33.485  10.904   4.185
12710W        W83310  30.881  35.690  12.009
12711W        W83311  25.220  18.588   3.195
12712W        W83312  29.648  38.581   4.562
12713W        W83313  27.986  11.309   1.026
12714W        W83314   3.310  26.272   5.079
12715W        W83315  23.646  11.133  11.932
12716W        W83316  38.350  41.850   0.544
12717W        W83317  12.647  18.320  12.491
12718W        W83318  44.557  19.563  11.881
12719W        W83319  38.981  37.192   4.087
12720W        W83320  30.134  21.144   2.879
12721W        W83321  24.146   3.703  13.859
12722W        W83322  28.145  11.261  14.947
12723W        W83323   5.703  26.404  12.288
12724W        W83324  28.992  22.140   3.064
12725W        W83325  22.028   1.634  14.362
12726W        W83326   6.204   5.157   4.542
12727W        W83327  10.808  23.102   1.909
12728W        W83328  38.151   9.799  14.505
12729W        W83329  26.040  32.486   1.343
12730W        W83330  16.546  19.350  14.138
12731W        W83331   2.621  26.505   4.174
12732W        W83332  39.182  38.226  11.562
12733W        W83333   3.398  15.653  14.061
12734W        W83334  37.829  21.997   1.017
12735W        W83335  12.771  22.541  14.884
12736W        W83336  43.789  41.417   1.276
12737W        W83337   9.830  17.143   1.283
12738W        W83338  39.515   2.771   0.657
12739W        W83339  10.617  43.268   0.451
12740W        W83340  24.966  26.774  14.909
12741W        W83341  25.510   1.282  11.158
12742W        W83342  39.233  20.188  11.041
12743W        W83343   1.777  42.067   3.692
12744W        W83344  36.354  22.643  14.323
12745W        W83345   6.524  10.667  12.362
12746W        W83346  15.499  31.434  13.659
12747W        W83347   2.807  10.724  12.348
12748W        W83348  24.435  33.945   2.221
12749W        W83349  32.436  16.139   3.759
12750W        W83350   2.897   8.387   0.507
12751W        W83351  14.171  26.041   2.301
12752W        W83352  30.433  38.443  10.184
12753W        W83353  43.366   7.404  12.651
12754W        W83354  11.365  17.986   2.861
12755W        W83355  40.089  28.527  13.929
12756W        W83356   0.007  15.928  12.199
12757W        W83357  37.981  34.304   2.710
12758W        W83358  32.608   1.895   1.778
12759W        W83359  24.389  17.290  11.506
12760W        W83360   2.111  27.853  12.652
12761W        W83361  40.329   5.750   1.756
12762W        W83362  18.225   5.799  13.265
12763W        W83363   3.863  16.242  11.840
12764W        W83364  28.159  32.448   3.762
12765W        W83365   6.874  25.221   2.851
12766W        W83366  39.206  12.249  11.231
12767W        W83367  37.596  42.047   1.384
12768W        W83368  11.824  24.044  14.539
12769W        W83369  35.983  43.314  11.123
12770W        W83370  29.834  28.940   0.862
12771W        W83371  10.938  23.387   1.490
12772W        W83372  27.412  21.245   4.483
12773W        W83373  32.040   5.261   3.808
12774W        W83374   5.668  36.858   3.717
12775W        W83375  28.526  19.168  10.727
12776W        W83376  34.512  16.511  13.910
12777W        W83377  20.696  37.704   4.223
12778W        W83378  35.907   9.899  14.463
12779W        W83379  38.685  35.021   3.239
12780W        W83380   7.251  13.299   0.935
12781W        W83381  30.516  32.131   4.890
12782W        W83382  39.303  20.344  10.187
12783W        W83383  35.921  17.608  13.445
12784W        W83384   3.595   9.211   4.229
12785W        W83385   7.727  24.642   2.720
12786W        W83386  26.617  28.933   3.625
12787W        W83387  36.179  37.674  12.044
12788W        W83388  25.387  23.716  14.550
12789W        W83389   8.744  33.316   0.336
12790W        W83390  25.537  43.418  13.303
12791W        W83391  13.701  36.792   0.036
12792W        W83392   2.409  22.008  12.562
12793W        W83393  26.600  35.988   4.191
12794W        W83394   7.499  20.074  12.893
12795W        W83395  18.755   4.878   2.606
12796W        W83396   8.315  20.307  13.245
12797W        W83397  26.583  42.675   0.198
12798W        W83398  22.969  25.012  12.451
12799W        W83399  43.082   8.674   5.004
12800W        W83400  23.734   2.283   2.728
12801W        W83401  11.112   2.990  14.349
12802W        W83402  40.834  44.912  14.984
12803W        W83403   5.934  35.026   3.703
12804W        W83404   1.393  27.672   4.493
12805W        W83405  15.663  23.557  14.501
12806W        W83406  12.245  32.956   1.354
12807W        W83407  18.167  17.407  10.720
12808W        W83408  31.494  23.605   1.708
12809W        W83409   6.952  17.582   3.712
12810W        W83410  17.833   9.309   2.017
12811W        W83411   4.358   7.428  14.205
12812W        W83412  21.729  21.091  12.952
12813W        W83413  30.381   7.759   1.122
12814W        W83414  34.126  39.107  14.281
12815W        W83415  24.542  30.103   4.425
12816W        W83416  12.307  31.942  10.684
12817W        W83417  11.838  20.426   1.751
12818W        W83418  15.309  19.115  10.483
12819W        W83419  32.924  32.473  12.151
12820W        W83420  17.197  38.744  12.136
12821W        W83421  10.906  41.867   0.833
12822W        W83422  37.115  32.989  13.072
12823W        W83423  27.620  14.778  14.450
12824W        W83424  11.115  20.592  14.362
12825W        W83425  15.648  17.890   1.601
12826W        W83426   9.754  39.883  12.779
12827W        W83427  39.091  26.558  13.538
12828W        W83428  36.481  30.171  10.806
12829W        W83429  28.581  31.175  11.877
12830W        W83430   7.544  33.525   4.842
12831W        W83431  18.575  39.760  14.276
12832W        W83432  35.061   7.962   4.715
12833W        W83433  16.125   4.993   1.716
12834W        W83434   2.063  20.147   0.944
12835W        W83435   6.272  25.296  11.996
12836W        W83436  14.071  44.870  11.350
12837W        W83437  44.162  37.528  10.285
12838W        W83438  15.769  19.153   1.320
12839W        W83439  16.683  22.559   2.894
12840W        W83440  33.548  34.075   4.456
12841W        W83441  42.331  11.659   4.142
12842W        W83442   8.505  34.483   2.207
12843W        W83443  40.279  14.090   4.704
12844W        W83444  35.836  39.479   2.669
12845W        W83445  16.761  25.403  11.179
12846W        W83446  23.014  25.240   2.823
12847W        W83447  17.417  42.305   3.911
12848W        W83448  14.754  31.994   2.203
12849W        W83449   3.229  20.697   4.253
12850W        W83450  37.604   3.392  10.527
12851W        W83451  22.299  39.473  14.257
12852W        W83452  17.815   5.596  14.077
12853W        W83453  20.115  15.116  11.080
12854W        W83454  10.514  27.874  10.482
12855W        W83455  39.609  12.820   0.823
12856W        W83456   7.051  37.902  12.059
12857W        W83457  20.983   1.542   4.134
12858W        W83458  40.748  22.084  12.090
12859W        W83459   5.036  34.894  11.137
12860W        W83460  35.909   7.092  13.535
12861W        W83461  14.732  17.827  10.628
12862W        W83462  27.758   0.930   2.804
12863W        W83463  21.512  25.885  12.476
12864W        W83464   6.353   6.223   5.302
12865W        W83465  21.710  19.113   0.939
12866W        W83466  35.136  39.486   0.772
12867W        W83467  30.904  14.855  11.228
12868W        W83468  29.021   7.591   3.758
12869W        W83469  26.820  13.830   2.957
12870W        W83470  33.572  19.567   4.165
12871W        W83471  44.347  24.962  14.742
12872W        W83472  13.179   1.884   0.776
12873W        W83473   4.257  36.313  12.515
12874W        W83474  35.956  15.299   3.731
12875W        W83475   4.888  29.664   2.285
12876W        W83476  16.681  29.506   1.673
12877W        W83477  29.203   9.244   3.853
12878W        W83478  18.949  14.751   2.346
12879W        W83479  24.110  36.153  10.727
12880W        W83480  39.585  23.136  13.754
12881W        W83481  40.534  12.861  12.587
12882W        W83482  26.734  40.906   0.982
12883W        W83483  16.564  10.496  13.695
12884W        W83484   3.332   2.887   4.670
12885W        W83485  23.738  27.220  14.753
12886W        W83486  33.121  12.859  11.504
12887W        W83487  17.387  31.597   0.402
12888W        W83488  12.257  12.479   0.679
12889W        W83489  32.606  17.725  13.937
12890W        W83490  27.388  30.488  14.085
12891W        W83491  14.444  10.709  14.730
12892W        W83492   3.242  34.490   0.283
12893W        W83493  25.220  11.079   3.994
12894W        W83494  39.435  11.607   4.589
12895W        W83495  38.715  18.777  13.874
12896W        W83496  22.559  37.437  11.729
12897W        W83497  28.560  36.994   3.747
12898W        W83498  11.608   4.020   3.713
12899W        W83499  22.685   2.374   3.673
12900W        W83500  26.499  38.537   2.129
12901W        W83501   6.097   2.548  13.381
12902W        W83502  17.700   8.806  13.046
12903W        W83503  15.743  35.636   3.461
12904W        W83504  35.868  12.313  13.536
12905W        W83505  28.420  15.086  12.799
12906W        W83506   9.402  42.868  14.202
12907W        W83507  24.878   5.288   4.578
12908W        W83508  30.886  40.928   1.689
12909W        W83509   6.804  17.311   0.403
12910W        W83510  41.380  38.935   3.235
12911W        W83511  21.164  25.456   2.767
12912W        W83512  42.330  14.800  13.995
12913W        W83513  34.334  44.806   0.752
12914W        W83514  41.426  18.706   0.781
12915W        W83515  35.379  44.444  11.281
12916W        W83516  43.487   9.376  10.919
12917W        W83517  33.510  13.309  13.506
12918W        W83518  40.894   2.476  14.381
12919W        W83519  17.820  20.735  11.140
12920W        W83520  26.649  29.173   1.660
12921W        W83521  14.875  43.846  13.976
12922W        W83522  40.508  39.386  12.929
12923W        W83523  38.930  22.602   4.513
12924W        W83524  41.335   5.520  11.308
12925W        W83525  24.994  11.051   2.648
12926W        W83526   6.319  22.751   4.129
12927W        W83527  38.927  17.496   2.772
12928W        W83528  31.052   4.178  11.539
12929W        W83529  13.332   5.494   2.819
12930W        W83530  12.314  28.001  12.040
12931W        W83531   6.360  23.986   3.076
12932W        W83532  22.067  28.735  11.114
12933W        W83533   5.041  11.907   4.141
12934W        W83534   7.417  16.164   0.877
12935W        W83535  24.713  10.849   2.010
12936W        W83536  24.585  36.220  12.508
12937W        W83537   1.963  11.289   1.922
12938W        W83538  29.055  30.904  11.215
12939W        W83539  14.815  40.835  14.080
12940W        W83540  36.842  17.226   1.651
12941W        W83541  32.796   5.397  12.554
12942W        W83542  38.730  20.141  11.160
12943W        W83543   0.388  26.510   0.810
12944W        W83544  41.287  37.523   3.202
12945W        W83545  39.314   6.787   3.284
12946W        W83546  19.683  10.661   0.774
12947W        W83547  22.027   3.218  13.393
12948W        W83548  42.132  15.247   1.687
12949W        W83549   7.884  34.391   0.392
12950W        W83550  38.285  45.000   2.560
12951W        W83551  39.173   0.957   4.029
12952W        W83552  36.314  15.573   1.837
12953W        W83553  41.029  21.240  11.169
12954W        W83554  22.108  38.837  11.969
12955W        W83555   9.662  22.438  12.508
12956W        W83556  36.124  30.061  12.430
12957W        W83557  42.660  13.501  14.413
12958W        W83558  38.823  44.044  11.219
12959W        W83559   0.963  20.514  10.675
12960W        W83560  11.426  13.038  11.388
12961W        W83561  29.569  25.744  11.082
12962W        W83562  26.891  20.622  11.430
12963W        W83563  32.541  16.397  13.979
12964W        W83564   4.636  28.186   3.191
12965W        W83565  34.879  13.780  11.502
12966W        W83566  43.538   4.674  14.739
12967W        W83567  33.104   3.697   2.201
12968W        W83568  20.281   3.603  10.620
12969W        W83569  13.623  42.651   1.810
12970W        W83570  10.303  16.962   3.138
12971W        W83571  24.987  42.990  13.438
12972W        W83572  42.163  30.449   4.157
12973W        W83573  27.231   0.103  13.773
12974W        W83574   2.425  41.863  13.607
12975W        W83575  29.947   8.741  14.005
12976W        W83576   2.049  34.219   9.757
12977W        W83577  41.576  23.988   4.318
12978W        W83578   0.287  20.287  14.312
12979W        W83579  40.277  29.877   2.223
12980W        W83580  18.617   1.530  12.443
12981W        W83581  28.389   8.266  10.413
12982W        W83582  15.746  44.137  10.708
12983W        W83583  24.560  10.185   2.363
12984W        W83584   8.869  19.876  10.360
12985W        W83585   3.960  10.151  13.042
12986W        W83586  41.350   5.185   3.129
12987W        W83587  17.287  21.950  10.947
12988W        W83588   7.750  37.295  11.729
12989W        W83589  21.049  35.878  10.248
12990W        W83590  28.147  42.558  12.781
12991W        W83591  23.148  31.169   0.420
12992W        W83592  21.555  22.526  12.154
12993W        W83593  15.365  20.714   2.232
12994W        W83594  13.766  21.673   4.439
12995W        W83595  27.627   2.946  12.763
12996W        W83596   7.786  32.558   2.601
12997W        W83597  22.043  26.042   4.484
12998W        W83598  34.213  27.015  13.255
12999W        W83599  28.463   2.689  13.343
13000W        W83600   0.894  12.854   1.983
13001W        W83601  18.699  35.939  13.946
13002W        W83602  42.495   7.425   3.499
13003W        W83603   8.196  31.632  12.018
13004W        W83604   3.489  42.418  11.432
13005W        W83605  16.991  38.485   3.451
13006W        W83606  35.851   2.087  10.730
13007W        W83607  33.154  12.740   4.283
13008W        W83608  41.387  25.201  14.293
13009W        W83609  33.636  43.901   3.248
13010W        W83610   3.517  27.216  10.660
13011W        W83611  25.178  22.156   4.528
13012W        W83612  11.342   8.836   1.948
13013W        W83613  28.046  31.855  12.010
13014W        W83614  44.509  15.155  13.403
13015W        W83615  12.742   1.992  11.894
13016W        W83616   1.735  21.843  11.989
13017W        W83617  39.587   2.889   0.163
13018W        W83618  43.769  20.136  12.459
13019W        W83619  30.928   8.617  13.966
13020W        W83620  16.278  22.713  11.207
13021W        W83621  29.940   2.499   3.637
13022W        W83622   3.848  33.310   3.147
13023W        W83623   8.411  32.430  11.583
13024W        W83624  10.227  20.281  13.530
13025W        W83625  26.049  31.315   3.057
13026W        W83626  14.520  14.693   0.386
13027W        W83627  20.134  42.802   1.382
13028W        W83628   6.617  40.461   2.152
13029W        W83629  37.419  29.589   3.651
13030W        W83630  30.514  44.782   4.185
13031W        W83631  18.982  22.373   2.536
13032W        W83632  36.591   2.320  14.059
13033W        W83633  42.461  25.608   2.863
13034W        W83634  23.573  13.184   2.110
13035W        W83635  32.630  18.255   3.728
13036W        W83636  40.821  29.024   2.964
13037W        W83637  16.263  23.583   3.186
13038W        W83638  27.215  19.612  14.446
13039W        W83639  23.243  40.383   2.295
13040W        W83640   7.622   9.609   0.399
13041W        W83641  33.766  11.681  14.436
13042W        W83642  12.802  28.262  11.973
13043W        W83643  44.500   6.804  10.309
13044W        W83644   1.156  12.810  11.575
13045W        W83645  17.716  24.698   0.243
13046W        W83646  19.543  44.871   0.874
13047W        W83647  21.747  26.067   0.639
13048W        W83648  14.773  19.285   3.208
13049W        W83649  29.070  18.548   4.874
13050W        W83650   1.449  43.447  10.840
13051W        W83651  30.285  14.582   0.039
13052W        W83652  16.299  13.611   3.524
13053W        W83653  22.333  27.972   1.834
13054W        W83654   3.434  25.669   1.602
13055W        W83655  23.222  22.804   3.397
13056W        W83656  29.067  11.295   2.696
13057W        W83657  32.145  42.489  11.125
13058W        W83658  18.962  34.223   3.171
13059W        W83659   9.407   5.310  13.847
13060W        W83660  18.269  32.936   2.378
13061W        W83661   1.538  29.501  10.885
13062W        W83662  44.735  38.971   4.129
13063W        W83663   1.017  23.995  14.919
13064W        W83664   4.007  37.460  11.552
13065W        W83665  15.304  36.046   4.118
13066W        W83666  30.768  29.089  12.984
13067W        W83667  43.399  37.972  10.798
13068W        W83668  36.520   0.792   0.027
13069W        W83669   1.842  27.097   0.304
13070W        W83670   5.625   5.880   2.698
13071W        W83671  35.582  24.473  11.980
13072W        W83672  10.389   7.552  13.401
13073W        W83673  23.865  40.432  11.915
13074W        W83674  34.117  34.998  14.917
13075W        W83675  41.794   7.921  13.408
13076W        W83676  10.732  32.061   3.046
13077W        W83677  13.056   2.821  10.932
13078W        W83678  32.982  20.793  13.951
13079W        W83679  24.573  30.169   2.881
13080W        W83680  19.782  22.124   3.867
13081W        W83681   8.413  33.400   4.170
13082W        W83682  32.487  32.081  10.745
13083W        W83683  26.475  23.713   1.257
13084W        W83684  39.521  12.615   0.345
13085W        W83685  25.269   7.902  13.984
13086W        W83686  30.461   0.814   2.720
13087W        W83687   4.012  19.070  11.136
13088W        W83688  18.600  28.048  10.243
13089W        W83689  18.595  33.168   1.224
13090W        W83690  33.128  16.639   0.210
13091W        W83691  38.594   4.361   4.114
13092W        W83692  14.533   6.938  11.872
13093W        W83693   2.344  10.010   0.775
13094W        W83694  12.532  41.396   0.443
13095W        W83695  24.476  36.953   1.949
13096W        W83696  19.126   2.023   0.861
13097W        W83697   3.321  35.384   0.717
13098W        W83698   3.254  25.051   2.247
13099W        W83699  37.319   3.384  11.548
13100W        W83700  44.903  43.878  10.718
13101W        W83701  26.044  39.902  13.009
13102W        W83702  18.670   7.639   2.800
13103W        W83703   9.266  33.698  12.932
13104W        W83704   5.730   7.028   3.547
13105W        W83705  31.837  21.189   4.986
13106W        W83706   4.948  40.590   2.808
13107W        W83707  41.909  37.780   5.052
13108W        W83708   9.303  18.353  11.830
13109W        W83709  28.017  44.378  11.928
13110W        W83710  22.642  16.539   1.252
13111W        W83711  18.291  13.137   4.069
13112W        W83712  36.997  41.290  12.921
13113W        W83713   2.344  31.989  11.924
13114W        W83714  20.857  14.743   1.303
13115W        W83715  25.233  29.438   3.565
13116W        W83716  42.170  12.085   0.349
13117W        W83717   2.421  14.871  10.746
13118W        W83718  44.559  35.110   2.675
13119W        W83719  42.028  17.588   0.975
13120W        W83720   1.016  31.590  11.543
13121W        W83721   3.933   0.759   0.436
13122W        W83722  26.920  26.625   2.357
13123W        W83723   6.344  22.319   0.729
13124W        W83724  13.785  35.803   4.193
13125W        W83725  40.267  13.613   2.841
13126W        W83726  26.890   6.773   4.126
13127W        W83727  28.046  38.956  13.785
13128W        W83728  31.936  20.049   0.965
13129W        W83729  43.306  15.861  11.098
13130W        W83730  19.627  44.079  14.071
13131W        W83731  44.022  42.003   2.300
13132W        W83732  39.063   6.804   0.009
13133W        W83733  28.576  23.402  10.764
13134W        W83734  20.599  14.806   3.713
13135W        W83735   9.245  16.311  12.007
13136W        W83736  39.358   3.048   4.552
13137W        W83737  41.392  11.899   3.714
13138W        W83738  29.196  13.265   2.412
13139W        W83739   1.439  17.511   1.114
13140W        W83740  16.374   6.822   4.243
13141W        W83741  17.862  11.096   1.816
13142W        W83742   6.379   7.998  13.356
13143W        W83743  20.901  16.262  10.732
13144W        W83744  36.452  41.230  11.165
13145W        W83745  44.273  24.777   0.233
13146W        W83746  18.549  38.023   1.915
13147W        W83747  16.258  37.469   0.986
13148W        W83748  43.453  35.061  13.815
13149W        W83749  19.179  35.243   0.831
13150W        W83750   5.735  37.067  11.461
13151W        W83751  32.563  34.903   2.695
13152W        W83752  44.697  27.190   2.191
13153W        W83753   9.253  28.738  12.099
13154W        W83754  30.108  37.506   3.272
13155W        W83755   3.353   4.555   1.754
13156W        W83756  13.391  40.359   1.770
13157W        W83757  34.884  15.039   3.579
13158W        W83758  16.903  39.771   3.836
13159W        W83759  38.397  18.072  13.437
13160W        W83760  36.031   2.651   4.600
13161W        W83761  24.162  20.682  13.532
13162W        W83762  28.883  22.465   0.306
13163W        W83763  22.154  14.639  12.089
13164W        W83764  28.604  21.614   1.359
13165W        W83765   1.316   3.954   0.331
13166W        W83766   2.531   4.330   2.712
13167W        W83767  21.722  12.871  13.989
13168W        W83768  44.171  39.836   1.651
13169W        W83769   2.494  38.026   2.390
13170W        W83770  20.583  31.993  14.904
13171W        W83771   1.319  15.556   1.899
13172W        W83772  15.537  32.406   2.732
13173W        W83773  36.321   7.615  14.871
13174W        W83774  44.502  28.461  12.521
13175W        W83775  12.880  28.757  11.881
13176W        W83776  39.781  37.380   3.622
13177W        W83777  41.413  11.259  13.262
13178W        W83778  24.100  35.653   3.084
13179W        W83779  25.724  40.918  14.967
13180W        W83780   6.157  20.401   3.155
13181W        W83781   4.181  21.608  13.607
13182W        W83782  34.847  28.328  10.821
13183W        W83783  18.003   8.396  12.919
13184W        W83784  39.047   6.031  12.349
13185W        W83785  19.898  44.023   2.656
13186W        W83786  14.154   7.648  13.483
13187W        W83787  42.779  38.260  12.012
13188W        W83788   0.373   4.475  10.553
13189W        W83789  25.950  19.300  12.561
13190W        W83790  16.802  40.450  11.166
13191W        W83791   6.495  12.184  10.435
13192W        W83792  19.096   6.927  11.406
13193W        W83793  30.861  11.229   2.283
13194W        W83794   0.240  33.369  11.273
13195W        W83795   6.301   2.457   3.310
13196W        W83796   3.877   9.085  14.885
13197W        W83797  18.742  14.092  14.299
13198W        W83798  12.724   0.257   0.254
13199W        W83799  37.258  28.554   0.292
13200W        W83800  39.478  12.677  11.145
13201W        W83801  27.538  32.188   3.298
13202W        W83802  13.725  16.105  11.253
13203W        W83803  32.016  27.232  10.950
13204W        W83804  24.287  23.991  13.878
13205W        W83805  35.980   7.662   0.332
13206W        W83806  14.567  38.077  10.702
13207W        W83807  21.942  40.478  14.888
13208W        W83808  33.394   7.542   3.357
13209W        W83809   5.998   7.489  12.656
13210W        W83810  30.990   8.217   2.363
13211W        W83811  13.863   4.215  12.408
13212W        W83812  28.184   4.819  13.575
13213W        W83813  30.402   7.869  13.018
13214W        W83814  31.571  13.686   4.587
13215W        W83815   8.862   1.499  13.320
13216W        W83816   6.406  33.418   1.379
13217W        W83817  35.003  35.551   2.323
13218W        W83818  20.605  10.134  13.500
13219W        W83819  39.796  38.898  11.225
13220W        W83820  23.153   7.081   2.297
13221W        W83821   7.384  32.197   4.120
13222W        W83822  40.343   8.244   0.671
13223W        W83823   9.351  35.070   1.130
13224W        W83824  11.367   1.518   4.333
13225W        W83825  44.883  19.635  13.607
13226W        W83826  18.089  14.602  13.824
13227W        W83827  36.982  30.838   3.628
13228W        W83828   6.603   7.760   0.758
13229W        W83829  42.200  35.150   1.603
13230W        W83830   8.151  35.057   4.387
13231W        W83831  19.620   1.987  13.237
13232W        W83832  13.361  40.006  13.221
13233W        W83833  25.483  29.605  10.795
13234W        W83834   0.006  12.645   2.276
13235W        W83835  20.051  38.438  11.789
13236W        W83836  20.852   9.178  14.573
13237W        W83837   6.787  37.975  14.398
13238W        W83838  33.618  42.500  12.631
13239W        W83839  27.923  28.897  11.389
13240W        W83840  25.464  19.443  11.353
13241W        W83841  10.869  17.121   2.383
13242W        W83842   9.165  22.730   1.826
13243W        W83843  12.609  38.141   0.295
13244W        W83844  19.641  41.675  10.653
13245W        W83845  14.383  22.540   3.769
13246W        W83846  13.842  34.352  14.477
13247W        W83847  41.944  32.911  13.678
13248W        W83848  44.804  26.954   0.382
13249W        W83849  29.500  25.582   0.455
13250W        W83850  15.594  35.758  10.457
13251W        W83851  21.699  26.454  14.455
13252W        W83852  41.933  38.359   0.176
13253W        W83853   0.390  24.594   1.288
13254W        W83854   1.873  19.703   4.149
13255W        W83855  15.841  17.685   3.605
13256W        W83856  22.184  38.801  11.454
13257W        W83857  18.764  20.080  13.585
13258W        W83858  36.532  22.733   1.198
13259W        W83859  30.180  30.122  12.059
13260W        W83860  18.326  17.175   3.597
13261W        W83861  17.799  12.451  10.569
13262W        W83862  13.250  31.839   0.259
13263W        W83863  20.296  29.733  12.888
13264W        W83864  15.360   0.189  13.250
13265W        W83865  41.359  25.284  12.891
13266W        W83866  14.771  10.131  12.056
13267W        W83867  16.006   6.526  13.479
13268W        W83868   6.962  15.111  11.966
13269W        W83869  38.093  39.078  13.571
13270W        W83870  36.898  18.284  10.731
13271W        W83871  37.386  14.234   1.722
13272W        W83872  14.012   6.686   3.903
13273W        W83873  14.865   8.572   2.156
13274W        W83874  18.925  35.866  11.475
13275W        W83875  42.832  38.387  10.650
13276W        W83876  33.114  26.893  12.430
13277W        W83877  32.546   6.712   3.047
13278W        W83878  26.632  12.322  11.584
13279W        W83879  43.717  23.988  12.442
13280W        W83880  41.537  32.600   0.489
13281W        W83881   4.869   8.708   2.181
13282W        W83882  14.306  41.933   3.462
13283W        W83883  39.349   1.961  10.478
13284W        W83884  39.853   8.703  12.456
13285W        W83885   8.516  34.409   0.508
13286W        W83886  27.992  16.817   3.758
13287W        W83887  16.243  17.827   3.244
13288W        W83888  14.802  29.593  10.766
13289W        W83889  13.593  41.906   2.264
13290W        W83890  23.755  35.612   3.858
13291W        W83891  25.241  36.368  13.452
13292W        W83892   6.632  30.581   0.051
13293W        W83893  13.368  30.096  12.987
13294W        W83894  21.103   6.037  10.664
13295W        W83895   1.203  10.076  10.276
13296W        W83896  24.211   3.451   3.237
13297W        W83897  34.941  42.527  13.373
13298W        W83898  26.693  22.762   3.246
13299W        W83899  30.147  21.546  14.388
13300W        W83900  15.098  25.950  14.835
13301W        W83901  21.824  17.998  12.844
13302W        W83902   3.888  22.966   4.300
13303W        W83903  15.741  32.431  14.000
13304W        W83904  22.709   9.167  13.027
13305W        W83905   4.199   9.225  14.455
13306W        W83906  30.525  13.322   4.340
13307W        W83907  22.026  25.266   4.503
13308W        W83908  26.496  20.794  12.037
13309W        W83909  21.981  10.303   9.542
13310W        W83910  41.799  27.520   1.841
13311W        W83911  32.073  36.371  12.673
13312W        W83912  30.043  19.672  14.979
13313W        W83913  33.911  13.894  12.959
13314W        W83914  11.153  34.249  11.017
13315W        W83915   2.786  29.180   0.477
13316W        W83916  34.209  19.245   3.205
13317W        W83917  26.318  11.918  11.657
13318W        W83918  19.160  22.727  10.557
13319W        W83919  43.569  13.680   3.080
13320W        W83920  18.068  20.707   1.240
13321W        W83921  40.387  30.940   1.826
13322W        W83922   6.402  26.126   0.471
13323W        W83923  44.024  22.504  13.479
13324W        W83924  24.516  29.147  12.373
13325W        W83925  39.642  22.718  14.309
13326W        W83926  22.956  21.645  12.602
13327W        W83927  24.552  30.064   3.908
13328W        W83928   5.690  34.379  10.754
13329W        W83929  40.381  42.730   2.254
13330W        W83930   4.845  28.783   1.274
13331W        W83931  30.671  14.781   0.929
13332W        W83932  11.556  19.162   0.965
13333W        W83933  15.146  19.124  13.542
13334W        W83934  18.619  23.022   2.511
13335W        W83935   2.425  30.688   4.090
13336W        W83936  41.750  26.975  14.337
13337W        W83937  31.513   8.264  14.766
13338W        W83938  28.975  16.669  12.430
13339W        W83939   8.933  13.268  14.921
13340W        W83940  38.056  18.746  10.061
13341W        W83941  36.419  29.049   0.038
13342W        W83942  10.013   7.789   4.107
13343W        W83943   8.297  40.447  12.062
13344W        W83944   7.566   7.229  14.346
13345W        W83945  25.007  10.571  11.523
13346W        W83946  37.974   2.417  10.623
13347W        W83947  28.726  31.227  13.302
13348W        W83948  43.346  31.152  11.191
13349W        W83949   2.510  44.772  11.629
13350W        W83950  16.559   4.902   0.186
13351W        W83951  30.940  27.276   2.368
13352W        W83952  44.157  31.170   1.794
13353W        W83953  29.146  37.801   3.094
13354W        W83954  15.904  26.921  13.480
13355W        W83955  39.457   6.317   4.452
13356W        W83956  12.214  19.699   0.028
13357W        W83957  33.931  31.261  14.758
13358W        W83958  27.294  41.111  12.051
13359W        W83959  17.234  15.874   3.287
13360W        W83960   5.447  19.316  11.617
13361W        W83961  10.132  10.805   1.896
13362W        W83962   1.210   9.220  14.276
13363W        W83963  21.495  33.967  11.527
13364W        W83964  27.328   4.365  12.815
13365W        W83965  39.527  43.409   2.250
13366W        W83966  18.644  16.795  11.055
13367W        W83967   3.851   0.896   4.111
13368W        W83968  13.056   5.550   0.187
13369W        W83969  35.977  36.121   2.327
13370W        W83970   7.739  12.121   3.407
13371W        W83971  39.825  29.912   3.201
13372W        W83972  19.967   1.842  14.845
13373W        W83973  29.145   9.400  12.024
13374W        W83974  17.523  22.745   3.250
13375W        W83975  34.073  21.916  12.985
13376W        W83976  26.135  22.461  13.037
13377W        W83977   3.778  11.700   3.745
13378W        W83978   5.421  10.435  11.622
13379W        W83979   6.154  33.037  14.958
13380W        W83980  31.974  12.268   0.642
13381W        W83981  33.916  17.474  14.625
13382W        W83982   8.818  33.542  13.832
13383W        W83983  42.268  20.343   3.139
13384W        W83984  33.049  25.267  13.916
13385W        W83985   1.757  37.265  13.036
13386W        W83986  36.002   6.426  11.210
13387W        W83987  27.305  30.480   1.989
13388W        W83988  37.400  36.365  11.151
13389W        W83989  18.170  32.425  11.849
13390W        W83990   0.727   1.726   4.679
13391W        W83991   5.891   0.855  14.767
13392W        W83992  38.422  28.901   3.414
13393W        W83993  18.988  37.895   2.365
13394W        W83994  44.930  37.512  12.752
13395W        W83995  19.348  22.682  11.031
13396W        W83996  43.738  34.548   4.237
13397W        W83997  34.684  16.546  10.699
13398W        W83998  29.682  27.355   3.198
13399W        W83999  41.350   7.816  14.404
13400W        W84000  42.636  39.898  10.760
13401W        W84001  17.677  21.950   3.624
13402W        W84002  19.613   3.298  11.597
13403W        W84003   2.814  12.199  13.894
13404W        W84004  31.876  34.445  14.745
13405W        W84005  39.141   4.340  11.704
13406W        W84006  25.733  18.535   3.284
13407W        W84007  33.492   7.872   2.478
13408W        W84008  15.785   6.390  11.774
13409W        W84009   1.963  14.591  13.945
13410W        W84010  38.385  14.080  13.748
13411W        W84011  18.633  43.776  14.403
13412W        W84012  15.639   0.876  12.566
13413W        W84013   3.033  43.799  14.230
13414W        W84014  32.606  27.208   3.777
13415W        W84015  44.827  37.508  14.544
13416W        W84016   5.329   4.620  13.444
13417W        W84017  33.976  17.660  10.899
13418W        W84018   0.118  33.957   0.576
13419W        W84019  43.015  33.493   2.412
13420W        W84020   5.980  18.002   0.855
13421W        W84021  26.846  42.347   1.196
13422W        W84022  17.585  28.632  12.842
13423W        W84023  33.573  12.749   5.470
13424W        W84024   9.280   5.962   0.507
13425W        W84025  36.660  19.455  10.287
13426W        W84026  15.329  22.221  10.684
13427W        W84027  38.439  39.092   1.706
13428W        W84028  33.860  35.562   2.981
13429W        W84029  15.312  35.102  12.479
13430W        W84030  41.943  22.276  10.717
13431W        W84031   6.385  10.587   3.607
13432W        W84032  31.607  12.450  12.961
13433W        W84033   8.463  38.118   0.243
13434W        W84034  18.251  36.086   4.130
13435W        W84035  37.258  28.019   1.358
13436W        W84036   7.281  36.331   2.269
13437W        W84037  19.661  10.947  11.964
13438W        W84038  19.050   1.690  14.488
13439W        W84039  11.854   3.708  14.712
13440W        W84040  20.993  27.103   0.401
13441W        W84041  16.226   5.880   1.389
13442W        W84042  25.257  17.160   4.004
13443W        W84043  42.401  35.668   0.316
13444W        W84044   7.769  30.870   3.679
13445W        W84045  22.667   2.337   4.570
13446W        W84046  11.610  22.780  10.258
13447W        W84047  18.681  22.214  13.593
13448W        W84048  32.551  33.345   3.709
13449W        W84049  18.935  13.043  12.204
13450W        W84050  20.398   6.670   4.203
13451W        W84051  35.654  25.475   1.674
13452W        W84052  32.181   4.353  11.575
13453W        W84053  30.528  43.797  11.597
13454W        W84054  16.134  17.782   0.318
13455W        W84055  10.810  33.540  11.580
13456W        W84056   9.292  36.532   2.149
13457W        W84057  10.367  22.967   3.843
13458W        W84058   1.181  17.831  14.847
13459W        W84059  26.625  27.144  12.573
13460W        W84060  25.684  35.183  11.919
13461W        W84061  41.286  31.524   4.952
13462W        W84062  26.568  43.744   3.200
13463W        W84063  23.118  37.360   1.484
13464W        W84064  27.401  30.970  12.855
13465W        W84065  30.869  35.957   5.087
13466W        W84066   3.912   1.354   2.155
13467W        W84067   4.193  31.394   0.817
13468W        W84068  21.156  26.498   0.442
13469W        W84069  44.201  31.110   4.850
13470W        W84070   3.735  40.816  13.909
13471W        W84071  25.546  19.550  11.848
13472W        W84072   8.781  28.959  12.138
13473W        W84073  36.358  14.404  11.508
13474W        W84074  32.276  22.894   3.645
13475W        W84075  20.963   3.289   2.340
13476W        W84076  37.978  25.049  12.895
13477W        W84077   2.898  41.059  11.659
13478W        W84078  27.153  32.109   1.058
13479W        W84079  40.163   0.894  11.201
13480W        W84080   4.732  33.209   2.461
13481W        W84081   2.321   1.525  14.012
13482W        W84082  26.597  17.040  12.950
13483W        W84083  44.006   2.764   1.815
13484W        W84084  28.123  40.998   1.671
13485W        W84085  29.282  40.275  14.090
13486W        W84086   0.992  24.748   2.885
13487W        W84087  15.591  33.595   1.726
13488W        W84088   5.871  42.305   2.744
13489W        W84089   2.679  14.325   1.314
13490W        W84090  34.616  33.426  14.026
13491W        W84091  36.436   4.432  14.026
13492W        W84092   5.055  39.047  11.908
13493W        W84093   3.948  18.607  11.537
13494W        W84094  26.271  17.498  11.238
13495W        W84095  39.281  16.158  13.016
13496W        W84096   0.462  33.668   0.279
13497W        W84097   7.316  22.009   4.629
13498W        W84098   1.790   4.013   1.230
13499W        W84099  15.273  41.448  12.953
13500W        W84100  36.463  12.206   4.405
13501W        W84101  13.873  19.980  10.993
13502W        W84102  17.772  21.102  10.717
13503W        W84103  18.747  29.175   4.537
13504W        W84104  16.201   1.977  11.996
13505W        W84105  17.367  19.184  11.946
13506W        W84106   1.882  14.800   2.219
13507W        W84107  19.561  15.171   0.437
13508W        W84108  33.463  35.772   2.237
13509W        W84109  22.756   1.471  10.204
13510W        W84110  42.840  11.204   2.241
13511W        W84111  17.830   5.630  12.290
13512W        W84112  26.094  41.500   0.820
13513W        W84113  25.674  21.040   1.452
13514W        W84114   1.380  42.524   0.518
13515W        W84115   6.033  22.615  11.524
13516W        W84116  24.533  33.167  13.386
13517W        W84117   9.251  41.416  14.005
13518W        W84118  24.145  22.206   4.559
13519W        W84119  20.190  29.863   0.088
13520W        W84120  10.964  12.951   2.645
13521W        W84121  25.776  24.540   1.787
13522W        W84122   6.844  42.173   1.299
13523W        W84123  27.151  39.086  11.065
13524W        W84124  38.983  24.663   4.487
13525W        W84125  18.523  16.121   0.736
13526W        W84126  20.566  24.123   4.860
13527W        W84127   8.332  25.636   2.202
13528W        W84128  38.021   2.585  13.024
13529W        W84129  39.396  43.281  14.978
13530W        W84130  15.742  20.343   2.165
13531W        W84131   5.931  10.048  12.946
13532W        W84132  42.026   6.448   2.793
13533W        W84133  35.170   9.457   2.150
13534W        W84134   9.739  29.036  12.000
13535W        W84135  37.056  10.153   1.859
13536W        W84136  24.487  41.929  14.462
13537W        W84137   5.466   5.755   3.265
13538W        W84138  14.040   6.940  12.073
13539W        W84139   2.208  30.156   3.214
13540W        W84140  29.038  20.050  14.861
13541W        W84141  22.284  11.291   4.545
13542W        W84142  36.490  15.557   1.367
13543W        W84143  44.017  12.818   3.287
13544W        W84144   7.224  37.925   3.111
13545W        W84145  40.994  33.314   4.331
13546W        W84146   4.677  14.313   2.239
13547W        W84147  20.566  25.132   4.201
13548W        W84148  23.090   2.352  13.340
13549W        W84149   8.149   3.944   1.353
13550W        W84150   2.795  13.791  14.249
13551W        W84151  22.620   2.311   0.092
13552W        W84152  37.746  40.571  13.517
13553W        W84153  32.656  44.934  12.986
13554W        W84154  34.496  30.669  11.867
13555W        W84155  27.985  40.235   4.144
13556W        W84156  35.566  26.125  12.475
13557W        W84157  15.640   8.311  11.422
13558W        W84158  22.523  26.269   2.168
13559W        W84159  31.599  32.819   4.489
13560W        W84160  23.655  39.679  11.860
13561W        W84161  17.716   2.692  12.113
13562W        W84162  14.927   4.490   4.260
13563W        W84163   2.714  20.780   2.865
13564W        W84164  10.501  19.700  14.452
13565W        W84165  23.500  26.506  10.457
13566W        W84166   6.207  16.986  10.644
13567W        W84167  44.271  12.667   4.979
13568W        W84168  18.054  32.580   2.743
13569W        W84169   2.769  29.996  12.993
13570W        W84170  44.311  33.500   0.745
13571W        W84171  40.737   0.769   1.055
13572W        W84172   5.893  22.173   4.744
13573W        W84173   2.926  38.790   4.047
13574W        W84174   8.274  38.354  10.957
13575W        W84175  16.072   7.396   1.680
13576W        W84176  40.878  40.673   4.256
13577W        W84177  42.295  32.861   4.217
13578W        W84178   6.124  14.982  12.478
13579W        W84179  39.046  17.031   0.409
13580W        W84180  40.961  23.962  13.899
13581W        W84181  21.146  22.525  10.180
13582W        W84182  25.628   1.004   1.239
13583W        W84183   5.489   6.403  11.667
13584W        W84184  32.182  32.330  11.158
13585W        W84185   1.106  41.437   3.633
13586W        W84186  17.598  30.115   1.482
13587W        W84187  26.802   9.585  12.363
13588W        W84188  20.193  15.778   4.582
13589W        W84189  26.123  16.755   4.425
13590W        W84190   3.208  21.126  14.365
13591W        W84191  15.887  14.085  11.542
13592W        W84192  42.819  40.580  11.773
13593W        W84193  21.958  39.506   4.069
13594W        W84194  14.683  13.802  12.482
13595W        W84195  33.920  27.977   1.863
13596W        W84196   9.227  29.739   3.526
13597W        W84197  22.123  37.932   2.071
13598W        W84198  39.330  29.848   0.805
13599W        W84199  10.942  19.151  10.724
13600W        W84200  14.263  29.230   3.860
13601W        W84201  34.456  25.398   0.374
13602W        W84202  17.600   3.761  12.135
13603W        W84203  42.978   7.248   4.440
13604W        W84204  27.706  43.585  10.600
13605W        W84205   0.377  41.323   0.226
13606W        W84206  24.697  28.267  13.622
13607W        W84207   3.185  39.828  11.939
13608W        W84208  37.613  25.634   5.144
13609W        W84209  31.686   7.175  10.740
13610W        W84210  37.603   7.789   1.808
13611W        W84211  44.298   5.721  11.979
13612W        W84212   7.714  30.169   3.115
13613W        W84213  30.905  28.146   0.386
13614W        W84214  12.882  36.677   4.766
13615W        W84215  11.580  27.395   2.895
13616W        W84216  19.574  29.460   4.388
13617W        W84217   2.258  12.849  13.474
13618W        W84218  10.391  12.782   0.173
13619W        W84219  11.834  17.297   4.648
13620W        W84220  41.550   3.779   3.231
13621W        W84221  16.240  20.748   1.842
13622W        W84222  15.201   6.171   3.339
13623W        W84223  40.784  13.877  14.418
13624W        W84224  42.025  29.120   0.414
13625W        W84225  15.328   8.029   1.290
13626W        W84226  24.169  41.530  14.332
13627W        W84227  22.221  27.907   3.324
13628W        W84228  37.375  18.035  12.958
13629W        W84229  39.673   8.143   3.726
13630W        W84230   8.976  23.551  12.975
13631W        W84231  12.239  33.139  13.283
13632W        W84232  13.651   3.552  11.436
13633W        W84233  35.026  34.477  13.379
13634W        W84234  42.825  18.712   0.371
13635W        W84235  30.684  13.112   3.505
13636W        W84236  20.309  39.889   4.408
13637W        W84237  25.645  25.032   1.610
13638W        W84238  39.469  25.280   0.928
13639W        W84239   2.338  25.925   2.918
13640W        W84240  19.689   0.260  12.532
13641W        W84241  40.243  11.912   1.220
13642W        W84242  34.925   1.548   3.693
13643W        W84243  15.266  37.174  12.022
13644W        W84244  34.907  33.207  13.633
13645W        W84245   7.860  42.953  14.348
13646W        W84246  38.542   3.191  10.728
13647W        W84247  25.889   3.866  12.526
13648W        W84248  36.544   7.337   3.117
13649W        W84249  12.209  42.622  10.987
13650W        W84250  44.522   8.590   2.944
13651W        W84251   7.160  26.074   1.808
13652W        W84252  28.762   4.397   4.181
13653W        W84253  36.468  13.681   1.359
13654W        W84254  37.976   3.239  13.914
13655W        W84255  11.255  29.771  13.368
13656W        W84256   2.920   4.382  14.801
13657W        W84257  21.857  24.686   1.809
13658W        W84258   1.828   7.653   3.262
13659W        W84259  23.705   8.281  13.386
13660W        W84260  40.648  13.972   2.717
13661W        W84261  32.669   3.273  11.850
13662W        W84262  29.861   8.810  11.882
13663W        W84263   4.302   4.498   4.652
13664W        W84264  13.787  15.625  11.077
13665W        W84265   7.291  16.116   0.366
13666W        W84266   7.891  26.864   3.738
13667W        W84267  44.314  34.420   0.016
13668W        W84268  12.789   4.291  13.756
13669W        W84269  20.811  18.263   3.292
13670W        W84270  13.501   3.011   4.343
13671W        W84271  15.585  43.241  12.987
13672W        W84272   2.287   0.253  11.684
13673W        W84273  14.429  19.688   2.105
13674W        W84274   9.731  23.276   2.842
13675W        W84275  38.934  16.185  11.704
13676W        W84276  33.104  36.937  10.450
13677W        W84277   8.212  35.903  13.929
13678W        W84278  40.434  23.504   4.632
13679W        W84279  14.535  32.290   3.504
13680W        W84280   6.638  37.508  14.660
13681W        W84281   0.003  15.531   0.406
13682W        W84282  15.662  10.636  11.397
13683W        W84283  27.372   5.984  11.606
13684W        W84284  24.695   5.956  11.084
13685W        W84285  23.244  13.812  11.215
13686W        W84286  30.721  26.112   3.744
13687W        W84287  22.810  38.555  13.942
13688W        W84288  23.764  27.165   2.309
13689W        W84289  36.491  22.912   4.522
13690W        W84290   6.538  11.231  11.893
13691W        W84291  13.675  32.787   2.760
13692W        W84292  14.929   2.608   4.140
13693W        W84293  16.805   3.298   4.697
13694W        W84294  41.254   2.909   3.580
13695W        W84295   1.159  30.530  13.547
13696W        W84296   5.050  24.808  11.408
13697W        W84297   3.479  32.261   5.046
13698W        W84298  17.290  40.285   1.346
13699W        W84299  43.696  43.020  13.952
13700W        W84300  28.561  44.895   4.741
13701W        W84301   2.349  32.577  14.985
13702W        W84302  15.168  42.007  14.395
13703W        W84303  27.404  22.962   0.417
13704W        W84304   9.942  27.441  12.338
13705W        W84305  30.699  11.525   4.029
13706W        W84306  17.706   3.236  12.085
13707W        W84307  44.537  35.263  10.163
13708W        W84308  33.269  44.828   2.252
13709W        W84309  34.415  19.733   1.371
13710W        W84310  31.441  36.564  11.935
13711W        W84311  32.406  30.402  13.472
13712W        W84312   3.185  13.662   2.848
13713W        W84313  37.492  44.487  12.334
13714W        W84314  27.654  18.955  13.448
13715W        W84315   2.883  34.646   2.730
13716W        W84316  21.368   3.138  12.416
13717W        W84317  38.046   5.715  11.787
13718W        W84318  31.533  31.855   0.842
13719W        W84319  20.896  35.556   2.343
13720W        W84320  11.351  17.850  14.376
13721W        W84321  33.494  20.023   1.750
13722W        W84322  24.034  44.990  14.853
13723W        W84323  27.483  38.895  12.494
13724W        W84324  12.751  30.966   0.336
13725W        W84325  27.202  12.318   1.439
13726W        W84326  28.117  16.774  10.284
13727W        W84327  30.346  31.594  11.058
13728W        W84328  23.171  24.374   1.713
13729W        W84329  23.685  27.667  14.988
13730W        W84330   4.686  37.462  10.744
13731W        W84331  25.932  18.255   1.163
13732W        W84332   6.311   8.610  14.949
13733W        W84333  18.117  22.039   0.843
13734W        W84334  21.043  30.206   3.371
13735W        W84335   1.852  31.289   0.001
13736W        W84336   8.236  14.238  13.465
13737W        W84337  17.672  42.928  11.605
13738W        W84338  19.195   8.363  13.087
13739W        W84339   4.230  42.379  10.730
13740W        W84340   5.720  29.838   1.272
13741W        W84341  41.941  15.848  12.875
13742W        W84342  32.384   6.298   3.306
13743W        W84343  19.742   3.786   0.422
13744W        W84344  30.696   8.875  11.288
13745W        W84345   8.698  38.538   0.470
13746W        W84346   8.728  14.285  13.119
13747W        W84347  14.821   8.257  11.981
13748W        W84348  39.740  13.702  13.544
13749W        W84349  17.340  20.432  14.799
13750W        W84350  16.078  19.638   2.439
13751W        W84351  27.929  12.095  11.072
13752W        W84352   8.540  15.644   3.206
13753W        W84353  18.667   3.373   1.402
13754W        W84354   8.883  31.420   4.247
13755W        W84355  35.319  24.476  11.545
13756W        W84356  13.885  23.764  13.426
13757W        W84357   5.706  38.497  10.766
13758W        W84358   4.196  13.648   1.916
13759W        W84359   1.763  35.543  12.840
13760W        W84360  37.579  24.986   2.705
13761W        W84361  43.833  25.465  10.734
13762W        W84362  39.972  34.634  12.840
13763W        W84363  39.311  23.888   2.808
13764W        W84364  11.366   8.366  14.322
13765W        W84365  19.494  11.126   1.678
13766W        W84366  26.036   4.963   3.186
13767W        W84367   6.239  30.546  13.696
13768W        W84368  22.037  31.980   4.422
13769W        W84369   7.243  18.349  11.642
13770W        W84370  29.626  11.848   4.710
13771W        W84371  20.528  21.828  14.068
13772W        W84372  40.591  28.002   0.905
13773W        W84373  24.420  36.081   2.816
13774W        W84374   1.253  31.652   0.288
13775W        W84375  40.738  29.904   0.647
13776W        W84376  24.246  29.217   0.290
13777W        W84377  42.417  14.300  14.009
13778W        W84378  37.596  30.590   3.371
13779W        W84379  37.604  12.591   1.123
13780W        W84380   3.205  21.191  10.687
13781W        W84381  28.436  35.548  14.381
13782W        W84382  22.194   7.131   1.395
13783W        W84383  39.774   2.073   2.728
13784W        W84384  18.117  32.947   0.902
13785W        W84385  31.394  44.159   2.427
13786W        W84386  28.557   1.527  12.554
13787W        W84387  11.884  35.812   5.113
13788W        W84388  25.180  27.230  13.988
13789W        W84389  31.069  19.936  13.710
13790W        W84390  16.640  22.477  10.455
13791W        W84391  40.048  10.963   2.558
13792W        W84392  43.944  35.013   3.356
13793W        W84393  43.359   5.173  13.316
13794W        W84394  14.368  23.509  12.366
13795W        W84395  24.500  10.194  13.952
13796W        W84396  14.712  32.259   2.634
13797W        W84397  38.125  32.682   4.068
13798W        W84398   8.639  19.131  12.616
13799W        W84399  30.504   3.610  11.591
13800W        W84400  35.082  24.106  10.814
13801W        W84401   3.056   2.435   4.550
13802W        W84402  43.202   9.477   4.724
13803W        W84403  16.052   3.893  13.306
13804W        W84404  33.842  23.059  13.805
13805W        W84405  26.429  32.411   4.123
13806W        W84406   2.849  17.773   4.413
13807W        W84407   4.845   7.482   4.523
13808W        W84408  43.330  17.614  11.558
13809W        W84409  19.013  23.784  13.525
13810W        W84410  16.709  42.771   3.665
13811W        W84411  36.921  23.125   3.628
13812W        W84412   8.901  22.919   5.122
13813W        W84413   6.899   6.966   4.297
13814W        W84414  37.481  28.706  14.807
13815W        W84415  42.988  37.523  10.113
13816W        W84416  20.157  21.963  10.980
13817W        W84417  41.249  16.895   0.404
13818W        W84418  32.913  11.199   0.044
13819W        W84419  19.094  37.033  14.511
13820W        W84420  30.592  21.936  12.986
13821W        W84421  37.335  31.722   2.424
13822W        W84422  23.509  11.409   3.927
13823W        W84423   4.243  15.450  12.842
13824W        W84424  24.802  33.212  12.914
13825W        W84425  15.583   9.276   0.216
13826W        W84426  41.508  17.644   0.864
13827W        W84427  12.395   7.680   4.517
13828W        W84428   0.290  24.688   0.242
13829W        W84429  34.604  31.020  13.441
13830W        W84430  35.527   1.053  14.089
13831W        W84431  24.259  21.627   1.829
13832W        W84432  10.443   2.420   0.746
13833W        W84433  10.519   7.108   2.735
13834W        W84434  12.977  30.690  11.629
13835W        W84435  24.210  14.298   3.290
13836W        W84436  17.093  17.308   0.857
13837W        W84437  28.697  42.326   4.782
13838W        W84438  30.982  40.851  11.040
13839W        W84439  37.330  28.897   4.250
13840W        W84440   8.192  13.657   0.219
13841W        W84441  30.139  34.104   2.136
13842W        W84442   1.742   9.284  10.489
13843W        W84443  13.632  33.429   3.075
13844W        W84444  27.916   9.637   0.030
13845W        W84445  34.418  28.239  12.892
13846W        W84446  25.783  22.861  14.317
13847W        W84447  22.807  22.503   2.513
13848W        W84448  28.377  23.048   2.492
13849W        W84449   9.761  38.495   2.628
13850W        W84450  17.649   6.279   0.580
13851W        W84451  13.204  30.651   0.846
13852W        W84452  36.816  25.677   0.284
13853W        W84453  23.302  21.002  12.088
13854W        W84454  23.984   9.363  11.126
13855W        W84455  40.079  32.035  10.534
13856W        W84456  28.665  23.629   2.833
13857W        W84457   3.262  16.279   1.351
13858W        W84458  30.929  37.846  13.411
13859W        W84459  11.315  34.577   4.552
13860W        W84460  15.440  22.743  11.542
13861W        W84461  38.444  32.889   4.496
13862W        W84462  14.876  14.860  12.489
13863W        W84463  21.903  24.788   0.758
13864W        W84464  36.382  22.637   1.721
13865W        W84465  33.210  35.462  13.126
13866W        W84466   6.443  25.106   3.762
13867W        W84467  32.413   9.767   4.135
13868W        W84468  21.684  18.480  12.071
13869W        W84469  16.452  29.689   3.256
13870W        W84470  19.007  17.632  10.928
13871W        W84471  15.449  27.132  11.137
13872W        W84472   3.719   7.135   1.444
13873W        W84473  20.255   0.866  12.848
13874W        W84474  28.125  25.008  11.717
13875W        W84475   5.616  36.456  12.489
13876W        W84476  14.563  12.911  14.705
13877W        W84477   3.339  24.223  14.855
13878W        W84478  42.916   3.448  14.497
13879W        W84479   3.205  24.654   0.091
13880W        W84480  40.469  15.750   1.581
13881W        W84481  28.221   0.929  11.998
13882W        W84482  17.820  20.063  12.564
13883W        W84483  25.207  11.184  13.286
13884W        W84484  10.341  20.757  11.628
13885W        W84485   4.673  11.674  14.610
13886W        W84486  32.707  39.408  14.464
13887W        W84487   6.849  29.483   3.859
13888W        W84488  30.993  32.215   1.471
13889W        W84489   0.361  22.534  12.786
13890W        W84490  19.645  41.099  11.104
13891W        W84491  41.435  35.579   4.899
13892W        W84492  40.923   2.255   4.667
13893W        W84493  40.823  17.772   0.067
13894W        W84494  33.545   0.440  11.159
13895W        W84495  40.511  13.282   4.108
13896W        W84496  24.741  44.562  11.923
13897W        W84497  33.716  23.156  13.308
13898W        W84498  35.484  41.337  11.561
13899W        W84499  31.144  23.962   4.587
13900W        W84500  11.643  31.588  14.505
13901W        W84501  33.873   0.359   2.475
13902W        W84502  21.987  21.812   1.908
13903W        W84503  21.117   1.975   1.809
13904W        W84504  35.349  16.314   1.330
13905W        W84505  34.842  16.511   1.219
13906W        W84506  32.693  11.756  12.454
13907W        W84507   8.919   6.441   2.061
13908W        W84508  27.519  26.550  12.543
13909W        W84509   3.349  43.802   1.526
13910W        W84510  15.578   7.802  13.611
13911W        W84511  43.464  42.250   1.650
13912W        W84512  15.298  15.265  11.508
13913W        W84513  10.244  33.625  11.610
13914W        W84514   7.272  25.252  14.284
13915W        W84515  26.973  43.288  11.112
13916W        W84516  34.958  39.823   2.872
13917W        W84517  21.908  22.325   1.872
13918W        W84518  27.999  26.012  11.221
13919W        W84519  35.987  22.065  10.882
13920W        W84520  34.856  28.287   2.118
13921W        W84521  25.717  16.817   1.754
13922W        W84522  30.805  31.142   0.678
13923W        W84523  26.662   3.918  12.983
13924W        W84524  20.187  40.348  13.063
13925W        W84525  23.411   1.809   0.221
13926W        W84526   8.836  20.779  12.893
13927W        W84527  19.515  17.635   4.653
13928W        W84528  28.046  24.654   3.668
13929W        W84529  31.014  30.991   2.135
13930W        W84530   7.232  38.006   0.003
13931W        W84531  16.543  36.451   0.877
13932W        W84532  32.491  43.166   1.220
13933W        W84533  34.051   5.584   2.630
13934W        W84534  12.753   4.461  12.830
13935W        W84535  42.329  15.055  13.540
13936W        W84536   8.203  12.378   4.917
13937W        W84537  25.614  27.180  13.662
13938W        W84538  26.652   4.445   1.966
13939W        W84539  34.785  15.340   0.749
13940W        W84540   9.499  19.802  13.391
13941W        W84541  34.268   6.885  14.562
13942W        W84542  24.141  42.910  13.032
13943W        W84543  24.987  13.608   0.099
13944W        W84544  29.969   4.915   4.258
13945W        W84545   7.428  23.755  11.084
13946W        W84546  41.245  34.202   4.451
13947W        W84547  13.867  22.689   1.335
13948W        W84548  14.921   0.300  12.451
13949W        W84549   4.917  14.886  13.976
13950W        W84550  29.983  20.281   4.089
13951W        W84551   7.681   1.001  11.078
13952W        W84552  22.256   6.388   1.951
13953W        W84553   6.461  25.070   4.624
13954W        W84554  11.222  27.096   0.814
13955W        W84555  17.042  21.228   2.164
13956W        W84556   5.022  44.935   1.142
13957W        W84557  41.459  41.542  13.151
13958W        W84558   4.925   0.646  10.239
13959W        W84559  24.818  12.361  14.312
13960W        W84560  28.966   9.363  10.717
13961W        W84561  10.599  44.322  13.975
13962W        W84562  26.578  11.868  12.521
13963W        W84563  19.605   6.417  13.548
13964W        W84564  38.895  33.126   0.715
13965W        W84565  43.339  10.117   1.229
13966W        W84566  40.326  27.102   1.377
13967W        W84567  30.875  23.061   0.879
13968W        W84568   4.188  12.611   2.955
13969W        W84569   6.706   9.088   1.872
13970W        W84570  13.364  30.552  14.339
13971W        W84571  24.998  30.040   1.193
13972W        W84572  25.545  32.089  12.026
13973W        W84573  20.236  39.479  13.009
13974W        W84574   3.299  38.568   3.740
13975W        W84575   5.149  31.359   3.730
13976W        W84576   3.368  42.621  12.277
13977W        W84577  31.426  12.423   4.532
13978W        W84578  28.753  31.761   0.897
13979W        W84579  42.478  21.192   1.882
13980W        W84580   0.912  38.386  11.089
13981W        W84581   8.227  15.591   4.411
13982W        W84582  29.158  37.036   0.380
13983W        W84583   5.015   4.733   3.098
13984W        W84584  42.334  33.374   4.144
13985W        W84585  30.107   6.170   0.963
13986W        W84586  39.983  17.670   3.719
13987W        W84587   6.014   2.888   3.134
13988W        W84588   4.148  12.187   0.998
13989W        W84589   0.938  32.838  14.293
13990W        W84590  22.868   9.823   2.291
13991W        W84591  18.732  20.796   0.681
13992W        W84592  18.593  31.385  13.850
13993W        W84593  20.412  44.105  14.458
13994W        W84594  16.121  36.684   4.974
13995W        W84595  30.484   4.746   1.627
13996W        W84596   7.319  12.536  13.906
13997W        W84597  15.849   0.390  12.576
13998W        W84598  15.974  33.555   3.230
13999W        W84599  22.671   3.810  11.418
14000W        W84600  21.066  26.136   1.404
14001W        W84601  15.776  13.364   0.396
14002W        W84602   8.623  44.125  12.527
14003W        W84603   2.904  41.794   4.194
14004W        W84604  25.189  30.935  13.883
14005W        W84605  15.508  21.751  14.470
14006W        W84606  39.542  21.357  13.485
14007W        W84607   0.511  20.219   4.507
14008W        W84608  44.522  31.560   1.820
14009W        W84609  29.952  30.222  13.525
14010W        W84610  15.867   7.479  13.873
14011W        W84611  17.539  11.779   4.584
14012W        W84612  37.007  14.923   1.359
14013W        W84613  42.509  39.007  14.347
14014W        W84614  40.467  26.634  11.595
14015W        W84615  32.999   0.710  14.808
14016W        W84616  31.130   0.270   2.616
14017W        W84617  44.226  24.118   1.426
14018W        W84618  36.344  44.032  14.400
14019W        W84619  29.656  16.028  10.765
14020W        W84620   6.794  21.411  12.570
14021W        W84621  18.985  34.133  13.335
14022W        W84622  28.123  22.104  11.149
14023W        W84623  17.288  13.242   5.096
14024W        W84624  11.353  14.276   2.179
14025W        W84625  37.503  32.960   1.713
14026W        W84626  11.038  44.623  12.701
14027W        W84627  33.355  13.212   4.018
14028W        W84628  29.582  32.995  12.362
14029W        W84629  30.885  38.043   2.253
14030W        W84630  30.680  43.887   1.026
14031W        W84631   9.161  18.538   2.140
14032W        W84632  20.084  10.414   2.238
14033W        W84633  34.586   3.005   4.197
14034W        W84634  32.577  24.032   4.235
14035W        W84635  21.656  19.072   0.424
14036W        W84636  31.974  21.971   1.267
14037W        W84637  32.513   0.501  13.931
14038W        W84638   5.420  24.315   3.340
14039W        W84639   0.077  20.061   2.892
14040W        W84640  39.330  27.909   0.289
14041W        W84641  36.328  35.899   1.291
14042W        W84642  30.184  35.361  11.579
14043W        W84643  36.860  34.126   3.025
14044W        W84644  41.522  28.264   3.097
14045W        W84645  33.349   0.722   3.337
14046W        W84646  43.093  11.147   4.109
14047W        W84647   7.660  43.235  13.962
14048W        W84648  32.467  13.599   2.415
14049W        W84649  22.984  36.849  11.145
14050W        W84650  33.912   5.392  12.606
14051W        W84651   3.255  21.758   3.227
14052W        W84652   0.420  16.200  12.332
14053W        W84653  42.063   6.192   0.007
14054W        W84654  24.244  15.069   3.787
14055W        W84655  42.062  28.088   3.525
14056W        W84656  20.257  30.035   4.406
14057W        W84657  13.144  42.559   0.367
14058W        W84658   9.364  35.233   1.741
14059W        W84659  23.564  41.514  11.472
14060W        W84660  42.844  43.067   3.676
14061W        W84661   0.469  18.577   4.772
14062W        W84662   9.313  11.708  12.891
14063W        W84663  37.637  40.602  12.986
14064W        W84664  21.327  32.802  11.201
14065W        W84665  15.744  36.093  13.965
14066W        W84666  33.285  41.084   4.656
14067W        W84667  11.230   1.244   2.895
14068W        W84668  33.206  27.569  12.863
14069W        W84669  17.675  35.487   1.727
14070W        W84670  42.446  29.478  11.949
14071W        W84671   9.691  30.588  11.878
14072W        W84672   2.779  17.359   2.845
14073W        W84673  36.477  40.917  10.743
14074W        W84674  18.274  20.601   2.124
14075W        W84675  36.120   2.070  11.586
14076W        W84676  41.872  14.814  14.285
14077W        W84677  22.454  30.041  10.730
14078W        W84678  34.545   0.477  12.987
14079W        W84679  31.953  40.414  14.461
14080W        W84680  13.260  24.120   3.417
14081W        W84681  44.274  18.744  12.876
14082W        W84682  32.506   7.883   1.347
14083W        W84683   3.789   1.002  12.407
14084W        W84684  15.082  23.080  11.592
14085W        W84685  16.365  34.412   0.212
14086W        W84686  19.745   5.395   1.794
14087W        W84687  41.350  11.342  11.465
14088W        W84688  19.310  23.299   4.647
14089W        W84689   4.915  32.890  10.827
14090W        W84690  26.072  39.737  10.517
14091W        W84691  10.121  32.225   4.265
14092W        W84692  35.393  25.156   3.362
14093W        W84693  43.220  43.234  14.811
14094W        W84694  24.158  17.263  10.603
14095W        W84695  37.033  26.585   4.147
14096W        W84696  11.536  28.997  14.797
14097W        W84697   2.482   5.201   0.440
14098W        W84698  15.431  29.726   3.179
14099W        W84699  33.654  33.493  13.603
14100W        W84700  26.531  12.757   0.243
14101W        W84701  32.768  28.062   3.828
14102W        W84702  20.042  16.090  12.921
14103W        W84703  12.221  21.582   2.789
14104W        W84704  36.155  18.705  14.381
14105W        W84705  29.895  15.070   2.763
14106W        W84706  38.026  10.232  10.849
14107W        W84707   8.842   4.300  14.324
14108W        W84708  24.025  21.693   4.556
14109W        W84709  33.228  33.570   0.521
14110W        W84710  16.609   3.726   1.782
14111W        W84711   3.097  31.075  13.035
14112W        W84712  36.980  42.863   2.718
14113W        W84713   3.917  36.840   4.649
14114W        W84714   2.845  10.670  10.907
14115W        W84715  25.388  22.652   2.800
14116W        W84716   0.692  36.879   0.203
14117W        W84717  24.695  36.424   3.132
14118W        W84718  41.834  37.546  10.453
14119W        W84719  18.511  44.883  13.559
14120W        W84720  23.111   7.333  12.395
14121W        W84721  43.900  16.317   4.152
14122W        W84722  43.456  18.285  10.497
14123W        W84723  36.935  29.400  10.768
14124W        W84724   3.523   5.329  13.529
14125W        W84725  19.095  28.496   2.145
14126W        W84726  42.798  33.095   3.171
14127W        W84727  40.910  23.914   3.711
14128W        W84728  20.683  39.906   1.193
14129W        W84729  20.571   9.803  12.717
14130W        W84730  38.242  23.605   0.467
14131W        W84731  41.913  27.532   2.767
14132W        W84732  13.579  38.252  14.037
14133W        W84733  39.073  40.619  12.029
14134W        W84734   4.702  20.612  10.165
14135W        W84735  34.559  25.474  12.690
14136W        W84736  36.109  31.616  13.790
14137W        W84737  20.202  29.024   4.325
14138W        W84738  39.465  17.281   0.553
14139W        W84739  36.597   3.777   4.372
14140W        W84740  13.298  22.171   3.626
14141W        W84741  32.881  27.517  11.670
14142W        W84742   4.297  18.264  12.181
14143W        W84743  16.792  24.497  12.490
14144W        W84744   6.442   9.229   2.292
14145W        W84745  39.899  17.585   2.724
14146W        W84746   2.589  21.333  11.211
14147W        W84747  21.824   4.627   2.749
14148W        W84748  26.193   3.146  11.101
14149W        W84749  17.305  14.863   1.765
14150W        W84750  25.722  15.041   4.587
14151W        W84751   7.275  14.087   4.935
14152W        W84752  29.160   8.454  14.435
14153W        W84753   0.412  28.888  10.563
14154W        W84754  32.031  14.791   2.527
14155W        W84755  25.012  11.176   1.727
14156W        W84756  40.270  19.131   2.692
14157W        W84757  34.744  34.347   4.572
14158W        W84758   0.756  39.614  10.659
14159W        W84759  24.638  10.116   3.286
14160W        W84760  43.888  32.654  13.531
14161W        W84761  20.787   5.851  11.566
14162W        W84762  42.317   1.293   4.114
14163W        W84763   5.415   0.466   3.684
14164W        W84764  16.417  24.701  11.721
14165W        W84765   2.538  39.648  11.175
14166W        W84766  10.749  33.330   2.335
14167W        W84767  19.973  29.981  11.656
14168W        W84768  43.445  40.425  12.367
14169W        W84769  22.310  25.625   3.191
14170W        W84770  36.147  27.973   2.147
14171W        W84771  35.550   3.047  13.955
14172W        W84772  24.263  24.558  12.433
14173W        W84773  14.084  21.239   4.322
14174W        W84774  32.011   9.390  13.530
14175W        W84775   8.020  15.668  12.752
14176W        W84776  31.960  31.632   0.589
14177W        W84777  16.061  11.283   0.479
14178W        W84778  16.205   4.050   4.229
14179W        W84779   2.015  13.603  14.980
14180W        W84780  17.348  39.045   1.336
14181W        W84781  43.013  34.444  11.517
14182W        W84782   5.892   9.150  12.937
14183W        W84783   4.900  28.700  10.320
14184W        W84784   4.818  16.151   3.482
14185W        W84785  14.127   1.920  14.780
14186W        W84786   0.797  22.241  10.609
14187W        W84787  16.549  16.592  14.411
14188W        W84788   3.210  33.446  12.530
14189W        W84789  19.577  10.937  13.306
14190W        W84790  16.296  23.222   2.386
14191W        W84791  43.906  14.324  13.444
14192W        W84792  26.262  44.992   9.319
14193W        W84793  41.336  23.319   2.113
14194W        W84794  27.032  22.867   3.626
14195W        W84795  32.495   6.938   0.892
14196W        W84796   2.896  39.411  12.494
14197W        W84797  20.528   7.020  10.312
14198W        W84798  13.143  34.987  14.847
14199W        W84799  13.780   8.102   2.491
14200W        W84800  44.346   5.909   4.583
14201W        W84801  29.730  10.069  10.338
14202W        W84802  19.684   7.367   3.631
14203W        W84803  10.425   0.348  12.597
14204W        W84804  25.347  11.538  13.848
14205W        W84805  18.629  21.731   4.560
14206W        W84806  39.303  19.499   2.733
14207W        W84807  37.045  31.374   3.704
14208W        W84808  32.149  29.435  13.083
14209W        W84809   4.226   8.337   4.152
14210W        W84810  28.082  25.508  14.486
14211W        W84811  35.011  23.525   1.805
14212W        W84812  36.788  35.488   1.812
14213W        W84813   8.312  24.071   3.711
14214W        W84814   7.751   6.951   1.345
14215W        W84815  41.005  20.111   1.391
14216W        W84816  14.164  14.945   4.619
14217W        W84817   6.220   4.666   4.701
14218W        W84818  14.819   8.800  11.230
14219W        W84819  13.909   2.354  11.237
14220W        W84820   4.268   7.782   1.919
14221W        W84821  31.453  19.291  14.461
14222W        W84822  22.118  23.036  10.754
14223W        W84823  15.962  34.891  13.011
14224W        W84824  29.569   7.700  13.564
14225W        W84825  27.169  34.996  14.210
14226W        W84826  29.034  29.571   3.153
14227W        W84827  42.471  39.410   4.503
14228W        W84828  42.290  23.959  11.123
14229W        W84829   8.655  43.870  11.200
14230W        W84830  28.878  23.104   3.855
14231W        W84831  17.063   2.310  14.300
14232W        W84832  31.433  43.522   5.426
14233W        W84833   7.354   0.186   4.142
14234W        W84834  18.656   2.740  13.989
14235W        W84835  28.257  14.749   0.273
14236W        W84836  16.713  17.264  13.462
14237W        W84837  31.995  34.928  11.105
14238W        W84838  27.476  31.380   4.207
14239W        W84839  23.720  43.293   0.196
14240W        W84840  16.900  20.598  13.480
14241W        W84841  22.902   8.656   2.786
14242W        W84842   8.910  19.357  12.238
14243W        W84843  22.130   5.199   3.261
14244W        W84844   6.359  20.597   1.252
14245W        W84845  37.421  30.494  10.602
14246W        W84846  18.106  38.581   0.388
14247W        W84847  35.530  42.247  13.433
14248W        W84848  33.908  26.043  12.936
14249W        W84849  33.616  44.243   0.407
14250W        W84850  23.162  32.354   3.187
14251W        W84851  18.828  26.145   0.832
14252W        W84852  35.135  26.878  13.798
14253W        W84853  33.090  22.814   1.908
14254W        W84854  29.191  22.774   1.239
14255W        W84855   3.802  28.938   1.947
14256W        W84856  35.388  31.656   3.131
14257W        W84857  29.080  17.567   4.611
14258W        W84858  24.248  42.927  13.897
14259W        W84859  28.712   0.828  12.025
14260W        W84860   7.262  37.038   1.405
14261W        W84861   2.527  31.618  11.604
14262W        W84862  14.805  23.456  11.782
14263W        W84863  41.098  10.724   0.424
14264W        W84864   2.279  30.715   2.290
14265W        W84865  35.016  24.993   4.129
14266W        W84866  36.862  33.149   3.394
14267W        W84867  15.640  29.521  14.889
14268W        W84868   5.832  18.750   1.925
14269W        W84869  29.622   9.646  11.652
14270W        W84870  37.042  30.008   3.292
14271W        W84871  13.731  24.924   3.158
14272W        W84872   7.462  28.682   0.698
14273W        W84873  29.362  13.058   1.945
14274W        W84874  38.977  39.829   1.852
14275W        W84875  30.639  29.166   4.169
14276W        W84876  28.839  20.144   2.796
14277W        W84877  25.915   2.114  13.306
14278W        W84878  36.980  21.825   3.148
14279W        W84879  31.053  10.123  10.665
14280W        W84880   1.707  21.628   4.135
14281W        W84881   3.640   5.146   4.214
14282W        W84882  36.495   8.399   3.856
14283W        W84883  31.322  35.375   4.144
14284W        W84884   1.180  24.648  14.842
14285W        W84885   7.987  37.560  12.077
14286W        W84886   8.359  36.437   1.190
14287W        W84887  32.685   1.813  14.784
14288W        W84888  34.294  29.645   1.029
14289W        W84889  36.329  10.389   1.136
14290W        W84890  22.166   7.616  11.731
14291W        W84891  21.285  38.283   4.013
14292W        W84892  35.301  43.848   1.873
14293W        W84893  16.225  38.753   0.379
14294W        W84894  29.473  42.903   1.065
14295W        W84895   8.509  20.592  14.226
14296W        W84896  13.647  42.833  12.568
14297W        W84897  37.095   0.947   0.531
14298W        W84898  11.294  30.427  12.331
14299W        W84899  34.948  38.136  13.889
14300W        W84900  29.236   7.735   2.144
14301W        W84901   9.666  17.072   2.833
14302W        W84902  25.360  19.897   1.735
14303W        W84903  35.942  12.646   4.335
14304W        W84904  28.298  34.468   1.582
14305W        W84905  38.949  30.671   4.566
14306W        W84906  39.270  37.270   3.575
14307W        W84907  35.495  21.241  11.190
14308W        W84908  18.490  14.279  13.907
14309W        W84909  19.515   4.866  12.252
14310W        W84910  44.201  24.146  12.563
14311W        W84911  29.583  22.643   3.402
14312W        W84912   1.129   0.295  13.356
14313W        W84913   9.802  26.862  13.328
14314W        W84914  34.815  40.106   4.680
14315W        W84915  27.460  18.368   4.576
14316W        W84916  21.859  30.211  14.397
14317W        W84917  41.547  34.679  11.219
14318W        W84918  40.539  34.055   1.300
14319W        W84919  18.726   7.322  14.165
14320W        W84920   5.702  13.436   2.336
14321W        W84921  15.271  44.729  12.931
14322W        W84922  27.163   4.327   4.686
14323W        W84923  25.244  31.879  12.893
14324W        W84924   5.820  12.294  14.293
14325W        W84925  16.695  35.686   4.550
14326W        W84926  20.667  40.837   0.867
14327W        W84927  27.624  24.140  10.562
14328W        W84928  32.450  17.867   2.778
14329W        W84929  15.571  37.042   0.180
14330W        W84930  41.892  41.727  14.060
14331W        W84931  37.248   5.622  13.972
14332W        W84932  32.939  33.450   0.956
14333W        W84933  28.820  15.041   1.361
14334W        W84934  13.121   3.687  11.993
14335W        W84935  16.771  41.321  11.856
14336W        W84936  20.222   5.401  13.289
14337W        W84937  17.198   1.792  10.625
14338W        W84938   6.751  20.756  10.817
14339W        W84939  37.114   1.484  11.998
14340W        W84940  42.147  42.976   0.269
14341W        W84941   7.866  38.341  10.632
14342W        W84942  23.023  40.382  10.913
14343W        W84943   0.484  23.072   2.701
14344W        W84944  10.892   9.107   4.115
14345W        W84945  23.383  21.596   0.313
14346W        W84946  13.269  19.676   0.743
14347W        W84947  23.575  15.204  12.420
14348W        W84948   5.852  16.656   4.533
14349W        W84949  44.216  18.072  13.474
14350W        W84950   6.276  28.310  10.279
14351W        W84951  35.367  31.086  12.897
14352W        W84952  13.782  31.324   1.403
14353W        W84953  16.902  43.972   3.578
14354W        W84954   4.449   2.523   3.201
14355W        W84955  16.101  25.728  13.244
14356W        W84956  37.606  30.481  14.560
14357W        W84957  12.048  13.110  12.582
14358W        W84958  13.370  37.436   4.707
14359W        W84959  15.804  10.068   1.860
14360W        W84960   0.599  23.153  13.994
14361W        W84961   8.644   8.495  13.505
14362W        W84962  35.149  30.050   3.764
14363W        W84963  13.144   6.853   2.950
14364W        W84964  38.434  19.063   3.297
14365W        W84965  38.592  14.042  12.408
14366W        W84966  22.954  36.673  12.016
14367W        W84967  38.101   4.786  14.250
14368W        W84968  38.003  25.519   1.319
14369W        W84969  18.620  25.288   3.106
14370W        W84970   0.898   2.524   1.351
14371W        W84971  31.263  26.889  14.900
14372W        W84972  24.267   2.898   0.900
14373W        W84973  11.130   8.753   4.439
14374W        W84974  11.724  14.167  11.433
14375W        W84975  23.092  32.174  11.143
14376W        W84976   4.567   1.992  10.985
14377W        W84977  22.526  14.760   4.764
14378W        W84978  40.967  39.673   4.081
14379W        W84979   3.162  14.650   4.510
14380W        W84980  23.765  34.409  12.516
14381W        W84981  28.549  23.100   4.278
14382W        W84982  40.426  43.500   1.148
14383W        W84983  16.445   8.708  10.543
14384W        W84984  39.358   1.265  11.188
14385W        W84985  40.365  16.119  11.369
14386W        W84986  44.261  28.514   1.303
14387W        W84987  26.224  15.660  14.212
14388W        W84988  40.240   5.364   3.230
14389W        W84989  27.767  18.615  14.506
14390W        W84990  39.404  25.672  13.986
14391W        W84991  44.998  18.066  13.907
14392W        W84992   2.324   6.767  11.619
14393W        W84993  38.922  21.401   1.311
14394W        W84994   1.280   6.818  11.589
14395W        W84995  17.240  34.026  11.376
14396W        W84996   3.746  39.093  13.415
14397W        W84997  23.153   4.830  14.828
14398W        W84998  19.868   5.260   4.344
14399W        W84999  34.506   1.722  12.412
14400W        W85000  38.003  38.715  13.953
14401W        W85001  43.108  41.454  11.583
14402W        W85002  27.053  35.685  11.829
14403W        W85003  44.834  39.746  10.766
14404W        W85004  36.024  12.247   2.760
14405W        W85005   5.783   0.002  10.583
14406W        W85006   6.818  43.428  14.871
14407W        W85007  35.211   6.026   0.908
14408W        W85008  35.027  16.108   1.683
14409W        W85009  27.267  43.809   0.923
14410W        W85010  29.451  21.791   2.806
14411W        W85011  36.064  14.449  10.550
14412W        W85012  29.304  11.811   3.735
14413W        W85013  29.861  24.099   1.896
14414W        W85014  12.715  21.680   2.969
14415W        W85015   0.462  38.585   0.036
14416W        W85016  18.879  20.688  12.442
14417W        W85017   9.147  41.960  12.123
14418W        W85018  39.789  24.093  12.410
14419W        W85019  17.209  12.647   3.096
14420W        W85020  38.023  28.629  14.745
14421W        W85021   9.911  36.129  13.087
14422W        W85022   1.023  40.005   4.590
14423W        W85023   8.433  21.679   3.764
14424W        W85024  27.749  23.201  14.237
14425W        W85025   3.952  39.713   1.959
14426W        W85026  12.126  44.803  12.198
14427W        W85027  16.722  14.247   1.410
14428W        W85028  29.874  31.396  14.329
14429W        W85029  32.691   6.340   4.144
14430W        W85030   2.156  32.023  11.449
14431W        W85031  41.856  36.810  12.596
14432W        W85032  29.885  38.804   4.134
14433W        W85033  21.330  31.433  12.928
14434W        W85034  20.705  42.553  12.579
14435W        W85035  23.189  31.402  10.633
14436W        W85036   1.312  35.534  13.170
14437W        W85037  41.295  15.589   2.324
14438W        W85038  35.830  11.648  13.072
14439W        W85039  23.048  30.433   4.154
14440W        W85040  12.126  27.756   4.775
14441W        W85041   7.631   0.307   4.632
14442W        W85042  34.772  26.507  13.913
14443W        W85043  12.241  31.093   3.253
14444W        W85044  24.134  31.502   3.651
14445W        W85045  12.584  18.509  10.525
14446W        W85046   6.886  11.253   2.314
14447W        W85047  28.608  15.589   1.251
14448W        W85048  21.450   6.692  11.226
14449W        W85049  29.504   5.654  10.727
14450W        W85050  28.308   9.855   2.661
14451W        W85051  33.835  18.288  12.938
14452W        W85052  43.224  31.831  12.506
14453W        W85053  32.479   9.819  11.488
14454W        W85054  31.541  20.027  10.984
14455W        W85055  43.082  42.754  14.946
14456W        W85056  12.765  10.756  13.538
14457W        W85057  44.474  14.741   2.042
14458W        W85058  15.906  20.025   3.670
14459W        W85059   0.358  32.363  11.199
14460W        W85060   6.239  22.807   0.825
14461W        W85061  18.011  29.384   4.155
14462W        W85062   8.748  21.828  13.768
14463W        W85063   6.674   9.804  11.559
14464W        W85064  37.537   5.723  10.123
14465W        W85065  31.231  40.429  11.228
14466W        W85066  15.079   4.253   2.445
14467W        W85067  19.316   6.201   2.519
14468W        W85068  17.323  16.830  10.448
14469W        W85069   7.499  15.082   1.815
14470W        W85070  34.143   8.991   2.263
14471W        W85071  39.834  34.451  13.321
14472W        W85072  36.108  37.325   4.218
14473W        W85073  12.585   2.981  13.872
14474W        W85074  13.272  23.857   2.674
14475W        W85075  16.174  38.609  14.468
14476W        W85076   6.846   7.439   2.869
14477W        W85077  32.567  29.705  13.015
14478W        W85078  26.945  29.680  12.097
14479W        W85079  41.340  32.918   1.442
14480W        W85080  31.906  12.567   3.682
14481W        W85081  20.138  12.651   4.059
14482W        W85082  28.700  38.013   1.851
14483W        W85083  33.606  31.725   0.577
14484W        W85084  43.559   2.665  11.963
14485W        W85085  39.501  39.498  14.511
14486W        W85086   9.614  36.910  12.558
14487W        W85087  10.825  16.063  11.056
14488W        W85088  31.035  32.649  12.345
14489W        W85089   6.607   3.048   1.762
14490W        W85090  26.506   7.466   0.896
14491W        W85091  19.322  28.964   2.260
14492W        W85092  25.740  25.938   0.776
14493W        W85093  22.057  21.184  11.936
14494W        W85094   7.634   2.433  12.564
14495W        W85095  23.612   9.957   3.792
14496W        W85096  10.930  39.265   1.455
14497W        W85097  27.767   0.973  12.729
14498W        W85098  14.281  22.464   2.366
14499W        W85099   4.727   6.710   2.822
14500W        W85100  39.956  14.163  13.601
14501W        W85101   9.703  37.074  13.073
14502W        W85102   2.817  10.655  10.407
14503W        W85103  17.185  18.271  13.558
14504W        W85104  30.404   2.890  11.601
14505W        W85105  36.502  17.257   2.992
14506W        W85106  12.043  17.870  14.377
14507W        W85107  34.160  12.415   2.326
14508W        W85108  23.980   2.821   2.703
14509W        W85109   4.652   8.103  14.774
14510W        W85110   7.751   0.205   3.766
14511W        W85111   2.539  29.523   3.590
14512W        W85112  15.557  37.558  12.991
14513W        W85113  23.954  35.563  14.700
14514W        W85114   3.950  42.360   4.304
14515W        W85115  41.015  29.139  11.495
14516W        W85116  44.316  22.262  13.830
14517W        W85117  38.613  29.017   1.665
14518W        W85118  13.279  35.537   2.044
14519W        W85119   6.273  38.168  13.253
14520W        W85120  28.923  21.753   2.743
14521W        W85121  10.159   7.305  11.715
14522W        W85122  21.159  40.526  14.538
14523W        W85123  36.141  44.351   0.997
14524W        W85124  36.824  34.807  12.549
14525W        W85125  22.004  39.827  11.184
14526W        W85126  11.587  14.205   1.088
14527W        W85127  39.564   1.019   1.792
14528W        W85128  35.525  17.849   3.349
14529W        W85129  28.931  27.137  12.497
14530W        W85130  44.486  34.058   1.805
14531W        W85131  26.940  14.724   4.249
14532W        W85132  15.299  21.709  10.575
14533W        W85133   6.622  11.717   2.436
14534W        W85134   5.823  32.865   1.727
14535W        W85135  34.138   0.924   3.605
14536W        W85136   3.735  30.735   2.847
14537W        W85137  28.400   1.530   0.398
14538W        W85138  12.804  34.646  12.907
14539W        W85139  10.871  43.001   4.783
14540W        W85140  13.778  40.541   5.345
14541W        W85141  17.765  32.261   2.293
14542W        W85142   9.001   1.896  12.081
14543W        W85143  14.164  28.349   1.463
14544W        W85144  40.947  10.264   5.051
14545W        W85145  38.018  36.494  12.145
14546W        W85146  36.387  29.469  12.553
14547W        W85147  35.470  20.034  10.553
14548W        W85148   6.361  28.173  14.095
14549W        W85149  13.726   3.425   2.853
14550W        W85150  39.362   7.279   0.766
14551W        W85151  29.695  43.942   3.668
14552W        W85152  34.464   7.823  11.414
14553W        W85153  15.494  36.401  12.518
14554W        W85154  12.521  32.764   3.291
14555W        W85155  28.680  14.612  11.580
14556W        W85156  44.239  38.486   2.277
14557W        W85157   3.424  27.513   1.917
14558W        W85158  38.318   8.818  10.570
14559W        W85159  17.589   2.326  14.327
14560W        W85160  24.770  21.265  12.586
14561W        W85161  38.221  14.593  13.816
14562W        W85162   0.567  33.647  12.238
14563W        W85163  10.681  27.042  11.535
14564W        W85164  15.735  39.308   4.924
14565W        W85165  29.745  34.358  11.081
14566W        W85166  29.386  14.106   4.467
14567W        W85167  20.779  26.393  13.365
14568W        W85168  44.973  12.435   1.398
14569W        W85169  27.927  15.672  10.697
14570W        W85170  43.206  23.555   3.149
14571W        W85171   7.353  12.252   2.424
14572W        W85172  34.394  23.860   2.172
14573W        W85173  12.658  43.734  13.874
14574W        W85174   3.956  11.208  14.911
14575W        W85175  14.059   8.875   4.920
14576W        W85176  23.626  19.283   4.161
14577W        W85177  11.217   6.703  10.751
14578W        W85178  19.354  33.590   4.550
14579W        W85179  18.556  22.350   0.809
14580W        W85180  34.190  27.167  13.739
14581W        W85181  22.885  39.618  14.511
14582W        W85182  38.738   7.328   4.670
14583W        W85183   9.663  34.849  11.644
14584W        W85184  29.668   8.728  13.542
14585W        W85185  38.509  32.451   1.214
14586W        W85186  33.626  40.475   0.873
14587W        W85187  40.279  20.581   1.100
14588W        W85188   6.468  34.939   4.687
14589W        W85189   7.013  36.557  10.600
14590W        W85190  27.304  16.203  11.120
14591W        W85191  38.349   0.399   2.862
14592W        W85192  29.322  24.947   2.227
14593W        W85193   3.240  30.613  11.129
14594W        W85194  19.762  15.646   2.672
14595W        W85195   2.396  20.529   0.743
14596W        W85196  39.002  42.316  11.017
14597W        W85197  23.691   7.652   3.914
14598W        W85198  42.009  22.019  11.150
14599W        W85199  42.951   6.345  11.151
14600W        W85200   2.788  13.635   1.159
14601W        W85201  20.647  30.016   0.266
14602W        W85202  10.369   3.827  10.725
14603W        W85203   7.365  13.207   1.469
14604W        W85204  25.004  34.652  12.967
14605W        W85205  40.596  26.519   9.897
14606W        W85206  25.579  34.287  14.509
14607W        W85207  25.715  32.627   3.393
14608W        W85208   8.337  34.439  10.848
14609W        W85209   0.584  40.409   1.784
14610W        W85210  11.182   0.459   1.181
14611W        W85211  10.087  35.400   1.257
14612W        W85212  31.309  17.761   3.460
14613W        W85213   0.030  14.188  11.676
14614W        W85214  27.667  29.004   0.999
14615W        W85215  25.648  39.956  12.495
14616W        W85216  12.322   5.255  11.531
14617W        W85217   6.958  37.374   1.697
14618W        W85218  42.784  29.444   3.197
14619W        W85219  42.884  35.331  12.002
14620W        W85220  34.048  40.819   4.180
14621W        W85221   0.852   7.242   0.632
14622W        W85222   5.397  41.364  14.720
14623W        W85223  35.106  10.274   0.361
14624W        W85224  16.825  31.658  13.498
14625W        W85225  15.116  13.394  13.322
14626W        W85226  25.874   3.411   3.640
14627W        W85227  32.190  17.857  12.121
14628W        W85228  31.047  21.467  13.988
14629W        W85229  43.884   4.133  10.518
14630W        W85230  30.446   7.960  13.895
14631W        W85231   5.231  40.033  11.022
14632W        W85232  18.098  31.871   3.235
14633W        W85233  29.534   8.414  12.885
14634W        W85234  44.282   2.378   4.083
14635W        W85235   0.229  39.440  14.533
14636W        W85236  15.925  25.638   3.599
14637W        W85237  16.218  23.234  10.589
14638W        W85238  12.908   4.141   4.230
14639W        W85239  17.587  39.472   3.914
14640W        W85240  35.595   5.458  12.496
14641W        W85241  28.867  19.730   3.158
14642W        W85242  33.280  36.434  11.235
14643W        W85243  18.226  27.463   0.760
14644W        W85244  40.271  42.117  11.659
14645W        W85245  30.265  37.958  10.068
14646W        W85246  13.821  10.076  11.404
14647W        W85247  39.446  34.899  12.068
14648W        W85248  23.214  15.163   1.732
14649W        W85249  20.106  36.040   4.561
14650W        W85250   5.440  21.640   2.676
14651W        W85251  10.087  44.338  14.943
14652W        W85252  23.101   2.965  14.521
14653W        W85253  41.030  38.903  10.666
14654W        W85254  38.462   2.759  12.295
14655W        W85255  16.298  32.957  14.810
14656W        W85256   0.945  10.320  10.672
14657W        W85257  41.486   8.343  10.601
14658W        W85258  15.249   1.886   4.090
14659W        W85259  16.023  21.690   1.851
14660W        W85260  24.980  21.730  10.491
14661W        W85261  18.323  26.414   1.713
14662W        W85262  22.777  18.214   1.019
14663W        W85263  33.059  43.907  13.568
14664W        W85264  36.486  11.737  14.367
14665W        W85265  14.071  44.773   1.893
14666W        W85266   6.658  38.645   2.261
14667W        W85267   1.761   7.480   4.612
14668W        W85268  41.511  14.198   4.114
14669W        W85269  40.184   3.336  10.097
14670W        W85270  37.533  25.400   0.732
14671W        W85271   2.842  42.892   1.959
14672W        W85272  42.504   8.215   0.886
14673W        W85273  14.747  19.691   0.889
14674W        W85274  42.712  23.049   1.933
14675W        W85275   8.221  23.722  12.328
14676W        W85276  10.935  19.535   2.760
14677W        W85277  39.041  40.828   0.720
14678W        W85278  20.235  31.498  12.041
14679W        W85279  27.981  21.672   4.049
14680W        W85280  35.810  27.963  10.543
14681W        W85281  13.745  34.534  11.888
14682W        W85282  25.700  15.640  14.370
14683W        W85283  23.175  23.145  13.440
14684W        W85284  39.964   1.931   3.187
14685W        W85285   3.256   3.988   2.243
14686W        W85286  27.202   6.369  14.888
14687W        W85287  43.088  39.911   3.711
14688W        W85288   0.379  40.240  11.163
14689W        W85289  32.947   9.236  10.726
14690W        W85290  24.782   1.802  14.804
14691W        W85291  44.859  43.479  11.057
14692W        W85292  18.324  31.477   1.995
14693W        W85293   9.214   5.582   4.607
14694W        W85294  18.599  17.558   0.452
14695W        W85295  32.029   6.867   3.036
14696W        W85296   2.921  37.814  11.070
14697W        W85297  44.145  26.413   0.221
14698W        W85298   7.182  14.781   0.889
14699W        W85299  34.794   5.865  13.800
14700W        W85300  15.729  42.012   3.177
14701W        W85301  13.331  28.858   1.810
14702W        W85302   6.909  28.689  10.970
14703W        W85303  12.782  24.461  13.246
14704W        W85304  31.605  28.078  12.196
14705W        W85305  19.855  32.820  10.672
14706W        W85306  29.019  32.461  13.773
14707W        W85307  37.316  24.409   0.730
14708W        W85308  34.057  10.833   1.900
14709W        W85309  30.866  34.907   2.737
14710W        W85310  32.829  15.312   0.882
14711W        W85311  40.665  19.000  12.394
14712W        W85312   4.005  28.634   4.131
14713W        W85313  14.625  17.091  12.451
14714W        W85314  44.361  39.753  10.555
14715W        W85315  35.281  32.379   3.838
14716W        W85316   4.614  11.651  13.551
14717W        W85317   9.158  41.098   2.633
14718W        W85318  29.154  18.177   4.136
14719W        W85319  40.548   4.004   0.398
14720W        W85320  18.790  15.724   3.909
14721W        W85321  24.534  14.480   1.431
14722W        W85322   1.309  41.135  13.911
14723W        W85323  30.565   3.064  10.745
14724W        W85324  27.122  39.746   2.271
14725W        W85325  10.036  35.362  13.366
14726W        W85326  26.186  29.118  12.467
14727W        W85327  14.481  42.398  13.432
14728W        W85328  37.482  18.015   3.514
14729W        W85329  15.969  41.502   1.865
14730W        W85330  44.245  21.987   2.747
14731W        W85331  23.733   6.355  13.979
14732W        W85332  42.795   3.596   1.368
14733W        W85333  40.904   7.960  11.941
14734W        W85334   6.993  41.297  11.000
14735W        W85335   8.871  11.157  11.236
14736W        W85336  34.002  31.455  12.823
14737W        W85337  42.721  10.221  10.357
14738W        W85338  44.615   1.401  11.900
14739W        W85339  36.985  32.666   4.257
14740W        W85340   1.379  34.357   2.724
14741W        W85341  44.117  36.758   1.755
14742W        W85342  18.033  41.509   1.788
14743W        W85343  41.924  12.305   2.886
14744W        W85344  26.680  30.244  13.420
14745W        W85345  43.845  34.102  11.931
14746W        W85346  44.053   8.845   2.902
14747W        W85347  34.782  42.427   4.720
14748W        W85348  29.977  35.459  13.555
14749W        W85349  44.544  22.893   1.133
14750W        W85350  23.783   8.766   3.095
14751W        W85351  15.589  30.879  12.911
14752W        W85352  28.543  32.580   0.288
14753W        W85353   6.210   0.798  12.992
14754W        W85354  22.990  25.367   1.872
14755W        W85355  26.013   0.735   1.467
14756W        W85356  29.494  19.240  12.119
14757W        W85357  42.534  10.847  11.091
14758W        W85358  32.876  11.706   4.036
14759W        W85359   2.639   0.383   1.516
14760W        W85360   1.647   4.335   0.451
14761W        W85361  28.633  42.951  14.866
14762W        W85362  37.146   8.173   2.656
14763W        W85363  42.912   7.165  11.465
14764W        W85364  37.402  23.014  11.943
14765W        W85365  15.767  26.575  12.412
14766W        W85366   5.203  39.147   2.696
14767W        W85367  25.327   7.264   1.927
14768W        W85368  33.856  34.552   1.843
14769W        W85369   9.971  16.586  12.423
14770W        W85370  32.061  38.277  13.361
14771W        W85371   7.457  41.891  12.851
14772W        W85372  38.444  28.627   1.374
14773W        W85373  18.610  10.597  13.370
14774W        W85374  33.075  26.184   1.362
14775W        W85375  42.074  36.348   0.394
14776W        W85376  32.118  38.794  12.094
14777W        W85377  11.200  14.840  14.920
14778W        W85378  18.826  19.280   1.427
14779W        W85379  24.183  26.509  12.029
14780W        W85380  13.730  13.911   0.364
14781W        W85381  40.943  43.439   1.120
14782W        W85382  14.973  17.323  10.486
14783W        W85383  37.985  38.307   2.599
14784W        W85384  36.937  39.453   1.455
14785W        W85385  21.171  12.193  13.008
14786W        W85386   4.550   7.020   2.450
14787W        W85387  20.059  14.342   4.963
14788W        W85388  25.563  32.686   1.292
14789W        W85389  22.056   2.289   0.904
14790W        W85390  25.589  31.915   2.694
14791W        W85391   4.063  38.904   0.124
14792W        W85392   2.290   5.834   0.914
14793W        W85393  14.546  31.139  12.120
14794W        W85394  13.237  37.972   2.845
14795W        W85395  40.639  27.127   0.935
14796W        W85396   9.492  39.532  13.327
14797W        W85397  25.085   0.302   5.416
14798W        W85398  42.611  19.756  11.069
14799W        W85399  34.779  16.191  14.558
14800W        W85400  43.409  12.360  14.795
14801W        W85401  38.363  11.411  14.762
14802W        W85402  18.440  29.095  14.815
14803W        W85403  14.126   5.741  11.450
14804W        W85404  13.788  36.564   4.757
14805W        W85405  31.927  38.965   2.233
14806W        W85406  31.623  28.970   3.259
14807W        W85407  13.172  11.314   4.781
14808W        W85408   2.374  33.933  13.156
14809W        W85409  40.357  23.748  12.011
14810W        W85410   0.388  26.886  12.338
14811W        W85411  44.447  34.593  13.952
14812W        W85412  43.851   2.756  11.552
14813W        W85413  37.907   3.252   2.236
14814W        W85414  24.908   2.420   3.769
14815W        W85415  13.434   3.866  12.408
14816W        W85416  43.933  41.254  12.978
14817W        W85417  19.420  10.788   3.774
14818W        W85418  32.617  20.309  12.490
14819W        W85419   2.014  42.495  13.389
14820W        W85420  28.630  31.203  11.372
14821W        W85421  29.031   6.958   4.556
14822W        W85422  41.009   6.069  12.621
14823W        W85423  27.440   0.250  11.517
14824W        W85424   2.812  22.087   3.087
14825W        W85425  16.679   9.364  14.536
14826W        W85426   4.522  17.384   1.841
14827W        W85427  15.775  16.554   1.155
14828W        W85428  32.986  19.340   2.689
14829W        W85429  24.712  13.359  11.452
14830W        W85430  39.513  16.562   4.240
14831W        W85431  11.642  44.716  12.354
14832W        W85432  13.031  31.132   0.732
14833W        W85433  33.558  34.436   0.494
14834W        W85434  36.045  25.446  14.844
14835W        W85435  37.209  21.228   2.368
14836W        W85436  14.695  19.036  14.433
14837W        W85437   7.404   4.616   1.324
14838W        W85438   1.262  35.564  12.671
14839W        W85439  28.973  19.574   0.343
14840W        W85440  43.397   2.204   4.113
14841W        W85441  35.494  12.074   2.348
14842W        W85442  38.109  44.211   1.750
14843W        W85443  36.630  24.954  11.599
14844W        W85444   9.259  16.186   3.719
14845W        W85445  20.985  31.951   2.972
14846W        W85446  14.368   2.701   0.843
14847W        W85447   9.632   6.843  11.553
14848W        W85448  34.549  11.709  13.889
14849W        W85449  39.106  17.068  13.514
14850W        W85450  18.321  35.714   2.229
14851W        W85451   3.447  32.868  11.962
14852W        W85452  35.778  18.505  13.847
14853W        W85453   5.321  28.461  14.425
14854W        W85454  18.349  24.201   2.783
14855W        W85455  28.695  10.142   2.335
14856W        W85456  38.344   8.834  13.053
14857W        W85457   0.805   0.663   1.110
14858W        W85458  41.554  25.168  13.788
14859W        W85459  21.280  36.450   0.823
14860W        W85460   5.360  12.670   3.771
14861W        W85461  33.880   0.694  13.077
14862W        W85462  19.592  20.670   2.804
14863W        W85463  23.107  20.618   5.049
14864W        W85464   5.497  36.540   1.606
14865W        W85465  36.825   4.920  12.634
14866W        W85466  12.176   0.957  13.468
14867W        W85467  24.566   8.119  14.620
14868W        W85468  24.186  34.112   0.332
14869W        W85469   8.140  30.443   4.896
14870W        W85470   7.269   0.947  14.271
14871W        W85471  22.738  37.407  14.697
14872W        W85472   9.775  28.192   0.826
14873W        W85473  14.192  44.323  14.405
14874W        W85474  34.999   4.801   3.335
14875W        W85475  32.671  27.984   0.628
14876W        W85476  10.300  36.365   2.809
14877W        W85477  25.597  33.893  13.119
14878W        W85478   3.391   3.154  13.014
14879W        W85479  17.121   8.863   3.401
14880W        W85480   3.724  33.603  13.161
14881W        W85481  28.143  20.741   0.380
14882W        W85482  20.121  41.791   4.752
14883W        W85483  16.145  28.188  10.774
14884W        W85484   9.887   9.946   3.419
14885W        W85485  38.328  39.644  11.006
14886W        W85486  23.550  10.593   1.969
14887W        W85487  25.822  26.124   3.703
14888W        W85488  12.295   0.456  13.516
14889W        W85489  44.683   1.451   1.700
14890W        W85490   7.929  39.813   3.800
14891W        W85491  26.681  10.603   3.865
14892W        W85492  14.386  13.702   1.309
14893W        W85493  44.989   7.344   2.162
14894W        W85494   0.661  31.896  10.222
14895W        W85495  26.203  24.415   0.787
14896W        W85496  20.795  16.723  12.433
14897W        W85497  23.522   5.848   4.477
14898W        W85498   3.657  32.147  14.408
14899W        W85499  19.230  22.597   0.017
14900W        W85500   3.725  32.378  13.727
14901W        W85501   3.310   7.338   2.704
14902W        W85502  44.521  28.281  10.677
14903W        W85503  29.963   7.449  10.541
14904W        W85504  35.524  28.953   1.494
14905W        W85505  10.654   5.648   1.310
14906W        W85506  14.106  15.157  10.569
14907W        W85507  26.729  39.832  12.467
14908W        W85508  18.367  17.759  11.581
14909W        W85509   4.447  21.350   1.731
14910W        W85510   7.394   7.439   4.757
14911W        W85511   9.280  18.060  13.850
14912W        W85512  40.626  11.326  13.833
14913W        W85513  14.156  26.914  14.929
14914W        W85514  40.398  10.540  12.721
14915W        W85515  34.996  10.460  11.089
14916W        W85516   5.859  42.387   4.874
14917W        W85517   0.916  35.572   4.558
14918W        W85518  32.411  11.054  14.385
14919W        W85519   3.929  25.233   0.024
14920W        W85520  31.042   3.349  13.883
14921W        W85521  15.749  37.616  11.553
14922W        W85522  41.617  17.882   0.212
14923W        W85523  16.770   1.391   3.088
14924W        W85524  22.975  19.850   1.481
14925W        W85525  42.402  11.744  10.704
14926W        W85526   7.495  24.495   2.114
14927W        W85527  15.485   5.988  14.513
14928W        W85528  32.465  28.400  11.218
14929W        W85529  43.798  33.709   1.854
14930W        W85530  16.264  13.258  12.405
14931W        W85531  39.610  44.418   0.260
14932W        W85532  42.004   3.039   4.138
14933W        W85533  44.327  14.649   1.190
14934W        W85534  44.988  28.692  14.418
14935W        W85535  18.409   7.693  14.028
14936W        W85536  34.538  29.063  10.704
14937W        W85537  28.514  31.195  14.249
14938W        W85538  34.658   8.220   1.504
14939W        W85539  42.146  13.313  13.351
14940W        W85540  23.330   3.355  14.795
14941W        W85541  18.554  20.122  11.115
14942W        W85542  36.749  31.954   1.455
14943W        W85543   1.551  21.298   0.029
14944W        W85544   4.732  30.433   2.690
14945W        W85545  43.366  20.321  10.701
14946W        W85546  27.793  24.387   4.079
14947W        W85547   4.427  36.319  13.271
14948W        W85548   6.132  43.463   3.717
14949W        W85549   7.618  27.139  13.783
14950W        W85550   2.197  41.059   3.196
14951W        W85551  25.019  15.171  11.772
14952W        W85552   9.808   1.882   2.264
14953W        W85553  33.988  16.587  14.720
14954W        W85554   5.807  24.925  12.129
14955W        W85555   5.767  31.620  13.559
14956W        W85556   2.388  13.131   1.645
14957W        W85557  44.520   7.344  10.181
14958W        W85558  12.113   9.902   3.856
14959W        W85559   9.839  33.132  12.074
14960W        W85560   4.855   2.418  13.921
14961W        W85561  43.968   0.672  13.486
14962W        W85562   8.731  22.593  11.518
14963W        W85563  23.157   0.996   0.350
14964W        W85564  34.478  11.191   1.340
14965W        W85565  36.459  23.399  10.675
14966W        W85566  10.296  18.640  11.821
14967W        W85567  17.997  37.077  12.453
14968W        W85568  13.576  25.485   1.847
14969W        W85569  35.067   3.686   0.412
14970W        W85570  13.026   1.032   3.365
14971W        W85571  27.680  23.981  14.508
14972W        W85572  32.382   2.997   4.714
14973W        W85573  14.748   5.930  12.094
14974W        W85574   0.312  19.282   4.302
14975W        W85575  19.330  29.493  14.928
14976W        W85576  43.789  30.330   2.419
14977W        W85577  43.581  14.282  13.824
14978W        W85578  23.833  40.680  11.442
14979W        W85579   3.404  41.478  11.372
14980W        W85580   2.366   6.109   5.099
14981W        W85581  40.877  20.655  11.566
14982W        W85582   3.730   4.251   0.905
14983W        W85583  16.382   7.657   3.747
14984W        W85584   4.211  38.565   3.306
14985W        W85585  14.818  37.074  13.915
14986W        W85586  41.848  10.652   3.766
14987W        W85587  12.526  17.507  12.086
14988W        W85588  37.139  35.304   3.267
14989W        W85589  35.046  12.352   2.257
14990W        W85590   7.124  12.937  14.943
14991W        W85591  44.761  12.226  14.066
14992W        W85592  11.603  36.194  14.333
14993W        W85593   8.662  27.068   3.268
14994W        W85594  16.463  32.014   4.511
14995W        W85595  27.564  41.464   3.702
14996W        W85596  17.447  25.984  13.516
14997W        W85597  24.419  25.729   1.738
14998W        W85598  10.645  34.716   3.769
14999W        W85599   8.229  27.613   1.646
15000W        W85600  24.776  15.058  11.110
15001W        W85601  39.490  23.577  11.639
15002W        W85602  25.655   9.864   3.703
15003W        W85603  37.843  14.793   4.631
15004W        W85604  22.883   6.271   4.851
15005W        W85605   1.738  16.163   4.078
15006W        W85606  34.558  40.574   4.652
15007W        W85607  11.219   8.227   4.359
15008W        W85608  41.332  26.412   1.894
15009W        W85609  10.870  40.994   4.405
15010W        W85610  11.871  32.920  11.964
15011W        W85611  14.872  26.764   2.807
15012W        W85612  10.912  32.462  14.242
15013W        W85613  21.500  31.086   1.360
15014W        W85614   0.761  28.444   0.154
15015W        W85615  28.617  11.460  14.901
15016W        W85616  16.812  20.754  11.233
15017W        W85617   1.760  19.833   1.304
15018W        W85618   5.383   1.004   3.056
15019W        W85619  37.840   3.323   1.322
15020W        W85620  32.641   6.809  11.321
15021W        W85621  39.496  33.864   3.662
15022W        W85622   4.494   2.883  11.471
15023W        W85623   9.388   7.786  11.495
15024W        W85624   7.650  42.493   3.399
15025W        W85625  34.973  38.162   0.913
15026W        W85626  27.718  43.963   4.194
15027W        W85627  20.259   7.690   2.766
15028W        W85628  22.386   7.205  13.604
15029W        W85629  13.692   2.034   0.889
15030W        W85630  22.583  24.208   2.910
15031W        W85631  36.560  21.485   4.290
15032W        W85632  20.392  17.826   4.563
15033W        W85633  14.091  25.231   4.165
15034W        W85634  34.894   3.460  10.683
15035W        W85635   8.910  39.989   3.584
15036W        W85636   8.382  17.291  10.327
15037W        W85637  26.612  10.760   2.959
15038W        W85638  22.012  15.143   1.080
15039W        W85639  40.368  42.556   2.766
15040W        W85640  32.448  28.983  10.637
15041W        W85641  27.235   4.614  11.923
15042W        W85642  15.196  39.889  10.257
15043W        W85643  16.051  37.909  13.395
15044W        W85644  40.625  18.115  13.861
15045W        W85645  39.546   2.378  10.752
15046W        W85646  17.054  42.385   4.775
15047W        W85647  35.132  34.354   2.948
15048W        W85648  30.689   0.311   0.989
15049W        W85649  15.991  42.465   3.346
15050W        W85650  20.037  14.151   2.917
15051W        W85651  42.907   5.871   2.786
15052W        W85652   4.535  13.096  11.691
15053W        W85653   1.276  30.467  11.446
15054W        W85654  17.725  12.353  14.247
15055W        W85655  36.670  15.196   1.728
15056W        W85656  36.980   0.520  13.563
15057W        W85657  25.502   7.436  14.615
15058W        W85658  12.472  16.937   4.172
15059W        W85659  44.776  12.936   1.274
15060W        W85660  16.709  39.473  12.455
15061W        W85661  32.166   7.016  10.614
15062W        W85662  24.973  31.187  14.479
15063W        W85663   3.493  42.136  13.551
15064W        W85664  16.827   7.398  11.143
15065W        W85665   3.665  35.971   3.545
15066W        W85666  43.235   1.886   0.197
15067W        W85667  26.884  13.113  13.770
15068W        W85668   6.576  30.811  12.339
15069W        W85669  37.002  18.769   0.244
15070W        W85670  31.113  15.315  11.475
15071W        W85671  23.355  11.077   5.717
15072W        W85672  10.496  34.042  12.286
15073W        W85673  25.999  43.777  13.460
15074W        W85674  44.893   6.545  14.962
15075W        W85675  15.451  28.679  14.891
15076W        W85676  34.867  35.102  12.395
15077W        W85677   9.134  16.952  14.948
15078W        W85678   8.935  24.993   1.422
15079W        W85679  25.686  39.512  14.926
15080W        W85680  18.754  22.817  14.943
15081W        W85681  36.617  11.165  13.070
15082W        W85682  36.946  40.233  13.798
15083W        W85683   3.731  32.204  12.673
15084W        W85684  14.782  29.020   1.807
15085W        W85685  37.886   4.760   3.204
15086W        W85686  15.384  25.790   2.126
15087W        W85687  22.019  43.536   1.901
15088W        W85688  29.217  38.465   3.601
15089W        W85689  35.680  38.568   1.383
15090W        W85690  44.698  21.782   2.372
15091W        W85691  33.116  35.831  14.398
15092W        W85692  13.971  42.763  10.705
15093W        W85693  29.839  25.157  10.140
15094W        W85694  26.965  29.073   2.271
15095W        W85695  11.254  21.718  14.775
15096W        W85696  12.631  21.195  11.255
15097W        W85697  13.547  21.607  10.988
15098W        W85698  28.336  14.275   2.589
15099W        W85699  18.095  31.205  13.788
15100W        W85700  17.767  33.662  13.001
15101W        W85701  44.919  14.702   0.013
15102W        W85702  18.797   9.282  14.286
15103W        W85703   6.233   2.332   2.341
15104W        W85704  19.991  31.580  11.183
15105W        W85705  30.921  29.296  12.090
15106W        W85706   6.333  30.375  11.205
15107W        W85707  18.096  20.157  11.861
15108W        W85708  37.038  40.273   4.147
15109W        W85709  32.108   0.802  14.797
15110W        W85710   9.338  28.211   1.706
15111W        W85711  11.637  43.981  11.413
15112W        W85712  33.630  42.764   2.812
15113W        W85713  44.030  33.708  10.553
15114W        W85714  20.723  15.166  12.879
15115W        W85715   8.128   6.758  10.726
15116W        W85716  29.470   8.720  10.812
15117W        W85717  22.176   9.243   2.230
15118W        W85718   0.759  14.004  10.648
15119W        W85719  28.553  14.223  12.908
15120W        W85720  36.913   0.868   3.201
15121W        W85721   6.749  43.362  13.942
15122W        W85722   5.703  27.056   0.345
15123W        W85723  39.754  37.009   0.849
15124W        W85724   0.521   4.755  12.365
15125W        W85725   5.513  28.686  13.930
15126W        W85726  13.716  26.696   4.302
15127W        W85727  31.933   7.340  10.251
15128W        W85728  37.412  32.521  12.978
15129W        W85729  35.140  20.432  13.240
15130W        W85730  29.665   0.315  13.080
15131W        W85731  24.136  20.859   3.309
15132W        W85732  10.398  37.381   2.425
15133W        W85733  31.806  10.053   4.847
15134W        W85734  25.474   2.219  12.451
15135W        W85735  37.295  21.173   3.611
15136W        W85736  32.081   9.763  12.962
15137W        W85737  30.113  39.354   1.354
15138W        W85738  15.935  31.322  10.221
15139W        W85739  15.940   0.105  13.861
15140W        W85740  36.028  39.813   1.879
15141W        W85741  10.985  24.624  12.571
15142W        W85742  27.497  44.534   1.351
15143W        W85743   5.732  37.358   3.756
15144W        W85744   0.525  33.729  13.790
15145W        W85745  40.762   3.575   2.493
15146W        W85746  28.044  10.812   1.184
15147W        W85747  27.137  20.757   2.372
15148W        W85748  43.568  14.744   0.713
15149W        W85749  21.732  35.552   4.223
15150W        W85750  33.432  13.027  11.138
15151W        W85751   1.234   2.800   4.636
15152W        W85752  27.526   1.687  14.452
15153W        W85753  24.675  12.852  13.334
15154W        W85754  29.685   0.808   3.740
15155W        W85755   2.341  20.562   3.176
15156W        W85756   0.547  35.950  14.262
15157W        W85757  26.035  31.505   0.375
15158W        W85758  24.528  24.395  14.168
15159W        W85759  23.000  42.752   3.280
15160W        W85760  21.620  16.360   4.579
15161W        W85761  33.072   8.467   1.764
15162W        W85762  27.080  31.084   4.637
15163W        W85763  24.608  21.036  10.707
15164W        W85764  26.162  25.426   3.850
15165W        W85765   8.234   7.268   4.881
15166W        W85766   9.807  11.110  11.099
15167W        W85767  12.819  25.440   2.333
15168W        W85768   0.791  23.703  14.572
15169W        W85769  26.251   7.423   0.404
15170W        W85770   9.249  11.199  13.110
15171W        W85771  38.347   7.657  10.658
15172W        W85772  39.842   0.345   4.876
15173W        W85773  22.021  13.847   1.774
15174W        W85774  14.570  12.050  11.076
15175W        W85775  20.656  33.851   4.681
15176W        W85776  36.589  15.886   2.134
15177W        W85777  16.179  24.027   4.396
15178W        W85778   1.802  37.294   1.914
15179W        W85779  39.893  31.388  13.815
15180W        W85780  20.607  22.598  11.923
15181W        W85781   5.364   9.166  13.009
15182W        W85782  29.533  33.977  12.597
15183W        W85783  23.344  23.559   1.156
15184W        W85784  32.155  36.373   4.529
15185W        W85785  35.048   3.896  12.821
15186W        W85786   5.346  17.042   0.399
15187W        W85787  29.668  31.358   3.834
15188W        W85788  10.055  43.601   1.279
15189W        W85789  41.826  37.289  14.434
15190W        W85790  36.610  20.002   1.894
15191W        W85791  16.869  10.177   3.228
15192W        W85792   8.903  20.207  14.831
15193W        W85793  44.756  26.549   3.627
15194W        W85794  35.493  35.500   0.501
15195W        W85795  43.987  40.976  10.659
15196W        W85796  43.103  37.252   5.002
15197W        W85797  29.328  35.795   2.342
15198W        W85798  16.517   3.895  13.566
15199W        W85799  28.639  10.967  14.964
15200W        W85800   2.260  44.322  11.691
15201W        W85801  27.610  13.857   2.396
15202W        W85802  22.025  28.845   3.328
15203W        W85803  12.759  13.130  11.481
15204W        W85804  30.573  42.841   1.566
15205W        W85805  11.634  15.180  14.290
15206W        W85806  37.890   5.298   2.980
15207W        W85807  24.600   9.497  11.412
15208W        W85808   5.766  17.852   0.360
15209W        W85809   6.796  17.287   1.339
15210W        W85810  32.124  36.866   1.888
15211W        W85811  11.083   4.944   1.726
15212W        W85812  23.020   5.740   4.659
15213W        W85813  12.787  28.494  11.010
15214W        W85814  37.391  25.303  14.736
15215W        W85815  30.661  18.565   2.556
15216W        W85816  36.814  19.088   2.755
15217W        W85817  14.205  32.012  10.189
15218W        W85818  38.878  18.716  11.051
15219W        W85819   7.304  35.329  11.112
15220W        W85820  26.187   2.853  10.674
15221W        W85821   3.390  10.413  13.961
15222W        W85822  39.061  10.174  10.760
15223W        W85823  27.019  33.649  10.379
15224W        W85824  34.950  39.579  12.982
15225W        W85825   0.047  25.973  10.601
15226W        W85826   9.899  18.705   2.801
15227W        W85827  21.067   4.855   0.065
15228W        W85828  21.144  37.689  14.336
15229W        W85829  17.471  35.823  12.592
15230W        W85830  19.681  24.668   2.711
15231W        W85831   4.225  41.331   4.366
15232W        W85832   4.928  21.562   0.008
15233W        W85833   6.396  44.868  14.322
15234W        W85834  33.404  22.985  11.224
15235W        W85835  22.215  22.217   4.142
15236W        W85836  13.128  41.841  14.857
15237W        W85837  44.226   0.489  14.042
15238W        W85838  23.588  41.895   3.982
15239W        W85839  37.005  32.698  14.735
15240W        W85840   3.901  43.975  14.825
15241W        W85841  38.769  14.370  13.037
15242W        W85842  27.461  41.753   0.763
15243W        W85843  32.308  44.770  12.024
15244W        W85844   3.262  21.647   4.673
15245W        W85845  28.499  21.645   0.441
15246W        W85846  23.718  34.052  12.106
15247W        W85847  16.552  23.684  12.944
15248W        W85848   1.926  12.666  13.954
15249W        W85849  42.363  36.871  10.937
15250W        W85850  26.436  22.132  11.210
15251W        W85851   6.607  27.355   3.627
15252W        W85852  38.396  28.111  13.889
15253W        W85853   1.688   3.807   2.948
15254W        W85854  12.155  25.199  11.346
15255W        W85855  16.020  17.392  11.000
15256W        W85856  42.854  17.784   2.292
15257W        W85857  14.118  43.318   3.624
15258W        W85858  11.906  14.642   1.219
15259W        W85859   1.983  37.717  13.143
15260W        W85860  11.407  16.564   1.808
15261W        W85861   2.059  27.157  13.458
15262W        W85862  29.007  29.389  14.447
15263W        W85863   4.808  11.882   2.117
15264W        W85864  24.067  23.489   4.160
15265W        W85865  33.115  19.044   4.245
15266W        W85866  34.337  11.116   3.238
15267W        W85867  35.134  25.731  10.443
15268W        W85868   4.721   7.702  13.855
15269W        W85869  27.012  25.939  12.046
15270W        W85870  18.495  37.854  10.672
15271W        W85871  10.744  33.507  10.759
15272W        W85872  42.301  21.512   2.291
15273W        W85873  11.436  27.922  14.520
15274W        W85874   3.256  14.702  14.470
15275W        W85875  31.141   3.282  10.667
15276W        W85876  33.175  22.186   1.182
15277W        W85877  41.410  21.003  12.439
15278W        W85878  28.396  28.859  12.085
15279W        W85879  15.093  15.203   3.954
15280W        W85880  40.875  18.354  13.451
15281W        W85881  34.565   9.698  11.151
15282W        W85882  14.013  20.026   2.462
15283W        W85883  21.800   1.199  13.481
15284W        W85884  30.907  33.952  11.494
15285W        W85885  26.371  31.140  13.501
15286W        W85886  22.156  25.354   0.560
15287W        W85887  35.504  30.379  12.846
15288W        W85888  37.122  21.688   0.521
15289W        W85889  23.032  39.026   2.705
15290W        W85890  17.621  38.886  12.429
15291W        W85891   1.943   1.942   2.402
15292W        W85892  41.987  30.000   3.334
15293W        W85893  20.548   9.365   5.141
15294W        W85894  42.537   5.965  13.829
15295W        W85895  40.809  20.577   4.104
15296W        W85896   6.248  18.114   0.366
15297W        W85897   8.391  12.797  12.735
15298W        W85898  33.883  20.529   1.507
15299W        W85899  30.420  29.001   4.609
15300W        W85900  27.430  20.667   1.742
15301W        W85901  21.976  17.020   3.738
15302W        W85902  31.295  44.407  14.421
15303W        W85903  37.143  36.844  12.682
15304W        W85904  28.744  38.611  12.577
15305W        W85905  24.511  29.699  10.847
15306W        W85906  18.763  24.032   0.461
15307W        W85907   9.775  41.293   3.758
15308W        W85908  11.844  10.400  11.568
15309W        W85909   1.326  38.216   4.685
15310W        W85910  34.207  19.505   2.749
15311W        W85911  35.584  18.539  13.367
15312W        W85912  12.686  30.353   3.261
15313W        W85913   9.275  35.907  10.561
15314W        W85914   8.237  29.402  10.608
15315W        W85915  29.711  34.000  11.678
15316W        W85916   6.375  13.052  11.684
15317W        W85917   0.488   4.950   2.282
15318W        W85918   6.575  30.094   4.980
15319W        W85919  28.342  29.524  12.991
15320W        W85920  27.465   0.479  14.080
15321W        W85921  43.302  15.580   1.940
15322W        W85922  33.381  14.549  11.106
15323W        W85923  40.303  28.497  11.083
15324W        W85924  43.700  14.953   2.011
15325W        W85925  13.591   7.372  12.892
15326W        W85926   3.532  34.917   0.526
15327W        W85927  38.577  10.376   3.607
15328W        W85928  23.790  40.020   4.240
15329W        W85929  35.338  37.593  11.598
15330W        W85930  36.541  31.014   3.842
15331W        W85931  44.197  27.016   2.205
15332W        W85932  34.080   7.250  13.257
15333W        W85933   9.723  44.538  12.989
15334W        W85934  35.552  34.621   2.781
15335W        W85935  42.057  35.451  11.622
15336W        W85936   2.927  34.112   0.069
15337W        W85937  30.606  36.687   3.144
15338W        W85938  17.032  32.513   1.768
15339W        W85939  16.226  27.522   2.871
15340W        W85940  36.028   0.352  13.913
15341W        W85941  16.846  29.711  14.487
15342W        W85942  24.316   0.677  11.328
15343W        W85943  20.009  14.058  11.191
15344W        W85944   1.360   1.835   2.822
15345W        W85945  19.647  15.099   1.903
15346W        W85946   7.624   6.202   4.507
15347W        W85947   4.682  21.965  11.571
15348W        W85948  41.592   9.218   4.640
15349W        W85949  10.221  37.114  12.971
15350W        W85950  17.522  36.306  13.926
15351W        W85951  41.063  25.282  11.611
15352W        W85952  44.889  10.181  10.805
15353W        W85953  40.571  16.936  14.886
15354W        W85954   4.853  29.687   0.546
15355W        W85955  42.028  18.267   0.307
15356W        W85956   6.634  29.480  12.584
15357W        W85957  18.216  44.766   3.947
15358W        W85958  23.278   1.525   1.332
15359W        W85959  24.665   6.804  11.216
15360W        W85960   1.323  28.173   4.584
15361W        W85961  24.697  39.363   1.883
15362W        W85962  32.924  22.259  12.476
15363W        W85963  33.121  23.290   0.828
15364W        W85964  41.444  17.289  12.512
15365W        W85965   4.821   8.224  10.686
15366W        W85966  34.864  17.040  13.942
15367W        W85967  44.768  14.014   2.399
15368W        W85968  11.482   7.292   2.832
15369W        W85969   1.863  31.856   4.517
15370W        W85970  31.156  34.305  12.434
15371W        W85971  23.181  38.120   4.042
15372W        W85972  13.787  25.969  14.743
15373W        W85973  13.204  26.403  14.434
15374W        W85974  28.249  35.266   4.169
15375W        W85975  37.473  12.941   0.179
15376W        W85976  21.510   1.882  13.462
15377W        W85977   2.809   6.787   0.972
15378W        W85978   5.907  31.206   0.466
15379W        W85979  24.901  36.908  14.811
15380W        W85980   3.654  10.803   0.681
15381W        W85981  33.105   7.737   0.613
15382W        W85982  14.808   4.714   3.349
15383W        W85983   4.213  27.594   0.684
15384W        W85984  32.480  27.776  11.851
15385W        W85985  36.926  17.146  14.015
15386W        W85986  14.363   8.668  11.406
15387W        W85987   4.442  26.978  12.289
15388W        W85988  30.113  21.464  12.159
15389W        W85989  33.107  14.117   4.383
15390W        W85990  21.500  20.927  14.339
15391W        W85991  41.396  34.915   0.049
15392W        W85992   1.717   0.548   4.158
15393W        W85993  25.721  19.514   3.160
15394W        W85994   0.460   8.318   1.372
15395W        W85995  29.070  35.261  13.982
15396W        W85996  28.463  28.398   4.180
15397W        W85997  15.236  40.059   0.806
15398W        W85998   6.399   6.377   0.825
15399W        W85999  43.352  43.163  14.323
15400W        W86000  24.215  17.692  12.460
15401W        W86001  23.434   4.905  10.811
15402W        W86002   3.652  28.668   4.529
15403W        W86003  11.201  37.859   4.213
15404W        W86004   6.706   6.005  14.545
15405W        W86005  30.843  13.372   1.966
15406W        W86006  15.565  43.859  12.414
15407W        W86007   9.893  31.046   1.671
15408W        W86008   9.759  23.466   4.984
15409W        W86009  42.532  32.669   3.798
15410W        W86010  38.758   0.364   0.120
15411W        W86011  22.617   4.933  12.020
15412W        W86012  11.898   7.203   0.696
15413W        W86013  42.430  12.175   2.934
15414W        W86014  38.776  22.126   4.390
15415W        W86015   3.369   6.486  14.317
15416W        W86016   7.891  31.630  14.767
15417W        W86017  12.702  24.981  12.625
15418W        W86018  27.291  19.178   3.581
15419W        W86019  37.296  40.838   4.666
15420W        W86020  10.695  44.936  12.438
15421W        W86021  16.040  39.495  10.699
15422W        W86022  20.044  25.514   3.622
15423W        W86023  13.086   8.219   4.243
15424W        W86024   2.213  36.994   0.909
15425W        W86025  16.249  44.338  10.786
15426W        W86026  35.603  18.807   4.260
15427W        W86027  25.848  24.117  11.606
15428W        W86028  12.441  30.579  14.405
15429W        W86029  41.814   1.493  14.505
15430W        W86030   2.781  43.974   0.223
15431W        W86031  25.724  15.082  13.445
15432W        W86032   6.833  40.119  14.416
15433W        W86033  10.357  33.514   4.587
15434W        W86034   8.881  44.824  13.049
15435W        W86035   3.789  40.832   0.296
15436W        W86036   5.181   2.452   1.364
15437W        W86037  27.669   0.721   1.896
15438W        W86038   3.214  11.664   2.506
15439W        W86039  25.469  26.853   1.678
15440W        W86040  36.286  41.673   4.503
15441W        W86041  21.790  12.057   1.879
15442W        W86042  28.554  19.548  11.143
15443W        W86043   9.329  12.300   4.302
15444W        W86044   5.506  36.057   1.376
15445W        W86045  12.279   5.226  13.862
15446W        W86046  11.376  42.230   1.409
15447W        W86047  10.676  14.640  12.085
15448W        W86048  17.579   4.848  12.949
15449W        W86049   6.487  19.632   2.837
15450W        W86050  30.293  26.003  10.594
15451W        W86051   4.364  30.548   2.307
15452W        W86052  31.921  29.030  11.616
15453W        W86053  15.890   4.897  12.435
15454W        W86054  37.486  12.682   2.088
15455W        W86055   5.705  40.312  11.086
15456W        W86056   7.621   0.383  13.764
15457W        W86057  13.693  42.827   0.044
15458W        W86058  19.138  15.442  11.220
15459W        W86059  14.157   3.616  11.083
15460W        W86060   9.735  11.846   2.299
15461W        W86061  19.788  35.483   2.315
15462W        W86062  26.755  41.777   1.144
15463W        W86063  23.988  35.412  13.819
15464W        W86064  27.630  14.189  10.703
15465W        W86065  43.467  23.606  14.028
15466W        W86066   1.050  36.391  12.673
15467W        W86067  38.159  34.166   0.028
15468W        W86068  34.855  29.500  14.844
15469W        W86069  16.838  43.876  11.996
15470W        W86070  34.791  10.568  10.609
15471W        W86071   3.091  11.778  14.874
15472W        W86072  24.652  18.188   2.221
15473W        W86073  16.782  14.964  12.017
15474W        W86074   5.318  29.086  14.748
15475W        W86075  16.008  22.932   1.759
15476W        W86076   6.410   7.230   0.220
15477W        W86077  40.376   9.959   2.364
15478W        W86078  41.862  14.622  11.858
15479W        W86079   3.468  42.242   5.104
15480W        W86080  35.849  17.752  11.609
15481W        W86081  14.860   5.668   0.258
15482W        W86082   9.676  32.056   4.015
15483W        W86083  11.825   8.741   2.161
15484W        W86084   5.259  17.850  14.971
15485W        W86085  11.718  18.683   0.792
15486W        W86086  38.335  42.744   0.592
15487W        W86087   6.682  44.525  14.927
15488W        W86088  39.295   8.736  12.046
15489W        W86089  25.639  15.769   1.664
15490W        W86090  35.671  14.180  12.666
15491W        W86091  17.661  34.810  13.894
15492W        W86092  37.791  44.509  14.295
15493W        W86093  42.536  20.293   1.847
15494W        W86094  30.096   6.219  13.295
15495W        W86095  16.994  39.627   0.187
15496W        W86096  34.319  24.765  11.613
15497W        W86097  33.813  16.380   2.392
15498W        W86098  37.403  44.686   1.831
15499W        W86099  37.440  14.804   0.029
15500W        W86100   9.050  19.332   1.802
15501W        W86101  43.331  13.332   3.940
15502W        W86102  28.888  18.661   0.611
15503W        W86103   5.398  23.296  10.631
15504W        W86104  39.077  30.523   2.245
15505W        W86105  20.609  16.175  11.155
15506W        W86106  33.106  38.948  13.968
15507W        W86107  40.922  26.713   2.018
15508W        W86108  10.299   3.900  11.701
15509W        W86109  38.012  34.088  11.024
15510W        W86110  27.564  31.939   1.404
15511W        W86111  14.292  44.416  12.957
15512W        W86112  29.915  13.135   0.518
15513W        W86113   1.342   8.229   2.852
15514W        W86114  12.152  37.136   1.419
15515W        W86115   4.723   5.793   2.211
15516W        W86116  17.052  14.222   0.980
15517W        W86117   2.469   9.139  10.711
15518W        W86118  35.100   2.967  14.450
15519W        W86119   0.236  27.620  14.274
15520W        W86120  40.562  25.221  10.702
15521W        W86121  14.210  25.598  14.624
15522W        W86122  39.983  24.159  10.547
15523W        W86123  38.884  43.851   0.219
15524W        W86124  18.751  24.747  14.771
15525W        W86125  28.881  26.469   3.854
15526W        W86126  11.131   9.966  13.458
15527W        W86127  14.063  38.564  14.968
15528W        W86128  34.357   8.428  11.625
15529W        W86129  38.505   2.424  13.618
15530W        W86130   7.460  19.566  13.002
15531W        W86131  42.563  37.319  11.078
15532W        W86132  20.088  22.047   0.754
15533W        W86133   6.671   4.271   2.618
15534W        W86134  38.270  42.646  11.932
15535W        W86135  30.524  40.278   2.267
15536W        W86136   0.223  23.962  11.992
15537W        W86137   6.942   5.790   3.594
15538W        W86138  10.642  14.343   4.301
15539W        W86139  36.097  35.993  12.965
15540W        W86140  30.611  13.899   3.681
15541W        W86141  29.247  22.942  14.439
15542W        W86142   1.845   6.878   4.604
15543W        W86143  36.785   1.158   1.858
15544W        W86144  26.209  15.622   5.058
15545W        W86145  28.123  15.395   1.386
15546W        W86146  12.579  42.983   2.674
15547W        W86147   6.254  13.235   2.947
15548W        W86148  13.773  27.127  10.681
15549W        W86149   3.361  38.782   2.799
15550W        W86150  28.161  23.290   3.411
15551W        W86151  14.142  27.244   3.052
15552W        W86152   5.148  12.242  10.719
15553W        W86153   6.183  38.809   2.403
15554W        W86154  37.573  33.632  10.435
15555W        W86155  37.344  39.135   5.364
15556W        W86156  22.124  10.062   1.204
15557W        W86157  42.830   0.478  11.540
15558W        W86158  19.166  17.801   0.733
15559W        W86159  19.103  37.114   0.887
15560W        W86160  16.690  20.479  11.661
15561W        W86161   6.879  24.800   0.319
15562W        W86162  36.614  18.185   0.933
15563W        W86163  19.563   7.109   0.752
15564W        W86164  42.437   7.412  12.747
15565W        W86165  24.538   4.029  11.205
15566W        W86166  26.739   8.291   1.796
15567W        W86167   5.117   0.002   3.775
15568W        W86168   7.126  40.946  10.645
15569W        W86169  28.286   5.094   0.245
15570W        W86170   3.760  13.317   4.605
15571W        W86171   3.409  26.203  12.606
15572W        W86172   1.366   6.007   1.181
15573W        W86173   8.265  38.351   0.707
15574W        W86174   9.511  19.886  14.533
15575W        W86175  14.223  40.385  10.949
15576W        W86176  11.348  19.657   4.336
15577W        W86177  32.526  30.521  12.543
15578W        W86178  34.958  34.100   0.307
15579W        W86179  13.327   2.371  14.859
15580W        W86180  37.100  43.362  12.835
15581W        W86181   9.637   6.334  10.969
15582W        W86182  25.119   7.653  13.555
15583W        W86183  32.627   6.188   2.872
15584W        W86184  15.957  14.501  10.744
15585W        W86185  40.498  38.965  11.724
15586W        W86186  30.125  27.084   1.393
15587W        W86187  21.228   3.459   2.746
15588W        W86188  10.610  27.511  11.754
15589W        W86189  26.815  15.599  14.754
15590W        W86190  20.767  36.656  10.776
15591W        W86191   2.725   1.592   4.258
15592W        W86192   3.634  12.104   0.868
15593W        W86193  10.138  11.254  10.674
15594W        W86194   2.330  35.914   1.256
15595W        W86195  12.152   1.047  13.969
15596W        W86196   0.539  31.881   0.452
15597W        W86197  39.878  18.416  11.834
15598W        W86198  27.617  16.307  12.543
15599W        W86199  16.673   8.794   3.135
15600W        W86200  22.576  43.356  14.694
15601W        W86201  37.586  10.889  13.873
15602W        W86202  23.540   5.820   2.101
15603W        W86203  23.457   5.988  10.846
15604W        W86204  11.135  35.978  14.521
15605W        W86205  19.767   6.918   1.551
15606W        W86206  29.388  38.987   0.379
15607W        W86207  11.438  14.800   2.827
15608W        W86208  36.848  37.806   0.765
15609W        W86209  26.947  43.421   4.101
15610W        W86210  30.737  24.629  11.538
15611W        W86211   8.830  26.925   3.737
15612W        W86212   1.007  38.954  14.341
15613W        W86213  40.537   8.653  13.757
15614W        W86214  32.671  28.017   1.152
15615W        W86215  22.537  33.093  14.404
15616W        W86216  18.503  39.981   2.906
15617W        W86217  31.398  26.748   0.389
15618W        W86218  26.587   8.923  10.468
15619W        W86219   2.334  14.012   4.525
15620W        W86220   7.317  33.388  14.919
15621W        W86221  36.730  36.164   0.365
15622W        W86222  35.423   1.830   4.493
15623W        W86223  14.641  22.715  12.545
15624W        W86224  37.364   4.212   2.770
15625W        W86225   3.980  22.506   0.919
15626W        W86226  21.812  11.852  14.803
15627W        W86227  13.113  35.705  12.979
15628W        W86228  18.093   3.966  13.755
15629W        W86229  25.134  16.465  13.510
15630W        W86230   5.660   8.690  13.025
15631W        W86231   0.832  32.680  10.456
15632W        W86232  24.288  26.043   3.608
15633W        W86233  21.122   9.314   3.090
15634W        W86234  30.793  43.439   2.190
15635W        W86235  32.141  37.939   0.247
15636W        W86236  10.219  16.316  10.695
15637W        W86237  10.091  28.663   1.649
15638W        W86238  34.138   6.794   2.201
15639W        W86239   0.948   2.869   4.212
15640W        W86240  16.574  37.327  11.871
15641W        W86241  18.283   5.907   0.297
15642W        W86242  16.800  14.814   3.632
15643W        W86243  17.982  35.310   0.290
15644W        W86244  34.410  19.773   2.292
15645W        W86245  10.071  28.447   1.186
15646W        W86246   6.989  29.904   4.107
15647W        W86247   0.253  10.708   0.808
15648W        W86248  26.069  37.444   4.088
15649W        W86249  11.117  15.509  12.590
15650W        W86250  20.244  23.692  12.424
15651W        W86251  21.534  14.413   0.039
15652W        W86252  15.367   1.271  12.860
15653W        W86253  18.825  39.536   2.878
15654W        W86254  20.272  17.651   3.443
15655W        W86255   6.795  44.184  12.836
15656W        W86256  12.843  19.074  13.908
15657W        W86257   5.352  32.141  12.925
15658W        W86258   2.333  35.943   3.670
15659W        W86259  38.251  18.891  14.100
15660W        W86260  32.830  37.347  10.689
15661W        W86261  41.997  42.295   1.814
15662W        W86262  38.365  24.898  13.827
15663W        W86263  34.599  30.633   2.235
15664W        W86264  20.230  15.255  14.639
15665W        W86265  18.228  21.525  14.909
15666W        W86266  38.567  17.224  14.778
15667W        W86267  42.758   7.331  14.389
15668W        W86268  35.707  37.039  10.664
15669W        W86269  16.253  16.678  13.910
15670W        W86270  39.740  10.717   1.474
15671W        W86271   9.445   0.935  10.604
15672W        W86272  14.576  44.980   0.248
15673W        W86273  13.334  16.451  13.330
15674W        W86274  39.894  42.988  10.139
15675W        W86275   8.391  12.754   0.719
15676W        W86276  19.174  15.836   1.766
15677W        W86277  28.693   5.843   2.397
15678W        W86278  15.423   9.964  12.116
15679W        W86279   8.236   0.776   1.668
15680W        W86280  39.332  13.354   2.740
15681W        W86281  27.047   7.017   2.835
15682W        W86282   9.738   2.986  11.189
15683W        W86283  43.565  13.672   1.637
15684W        W86284   8.889  40.747  13.889
15685W        W86285  43.064  34.720  13.647
15686W        W86286  11.398  20.282   2.367
15687W        W86287  38.295  11.709   0.303
15688W        W86288  26.356  26.972   3.823
15689W        W86289   2.264  18.317  10.633
15690W        W86290  15.018   4.296   0.519
15691W        W86291   8.209  29.968  11.599
15692W        W86292  19.299  36.916  11.258
15693W        W86293  17.338  16.703  13.110
15694W        W86294   1.059  31.124  14.059
15695W        W86295  29.899   9.774  14.899
15696W        W86296  38.282  26.025  11.197
15697W        W86297   1.770   8.819  12.103
15698W        W86298  29.990  28.390  14.011
15699W        W86299  21.436  37.113   1.757
15700W        W86300  38.140   9.881  11.839
15701W        W86301   6.850  43.647  11.168
15702W        W86302  26.668  36.473  13.211
15703W        W86303  20.922   8.413  12.608
15704W        W86304  11.118  10.692   2.469
15705W        W86305  39.575  33.610   0.866
15706W        W86306  14.122  10.115  13.919
15707W        W86307  40.046   8.869   3.225
15708W        W86308  22.105  19.142  11.976
15709W        W86309  23.322   1.020   2.138
15710W        W86310  15.451  35.019  12.961
15711W        W86311  12.259   8.408   2.371
15712W        W86312  12.076  10.814  14.877
15713W        W86313   6.882  20.808  13.304
15714W        W86314   3.723  37.761   3.794
15715W        W86315  41.059  35.168  14.698
15716W        W86316  30.460   5.756  14.357
15717W        W86317  17.786  44.301   2.895
15718W        W86318  31.919  31.623   3.640
15719W        W86319  18.816  17.208   3.706
15720W        W86320   9.488   0.304   0.866
15721W        W86321   6.666   3.213   2.662
15722W        W86322  11.851  38.520  11.180
15723W        W86323   4.958  33.649   2.312
15724W        W86324  19.232  11.470   0.873
15725W        W86325  33.405  36.489   3.850
15726W        W86326  23.253  10.337   2.662
15727W        W86327  32.166  34.979   3.074
15728W        W86328  13.687  24.122   0.761
15729W        W86329  26.955  37.197  11.513
15730W        W86330   8.887  10.108   4.084
15731W        W86331   6.216  18.669  14.970
15732W        W86332  40.598  12.258  11.985
15733W        W86333  20.483  28.015   2.408
15734W        W86334   5.792  11.809   0.235
15735W        W86335  37.327  39.300  11.856
15736W        W86336  36.175  10.694  14.834
15737W        W86337  26.702  13.198  12.839
15738W        W86338  13.893  33.996  13.537
15739W        W86339  25.021   1.528   2.484
15740W        W86340  34.936  28.508  12.524
15741W        W86341  41.066  17.237   3.806
15742W        W86342  24.944  27.533  13.108
15743W        W86343  10.633  34.327   1.843
15744W        W86344  15.106   5.632   2.409
15745W        W86345  38.350  12.584   2.150
15746W        W86346  39.492  35.988   2.200
15747W        W86347  36.433  21.462   1.739
15748W        W86348  20.468  32.053   2.859
15749W        W86349  36.479  15.199  10.599
15750W        W86350  41.106   3.816   5.041
15751W        W86351   0.904  35.262  13.322
15752W        W86352  26.962  40.902   1.452
15753W        W86353   4.196  16.039  14.595
15754W        W86354  26.319  16.106  11.151
15755W        W86355  35.647   8.811   1.700
15756W        W86356  25.005  38.689  13.599
15757W        W86357  32.643  43.338   2.676
15758W        W86358  21.715  34.828   1.964
15759W        W86359  36.175  39.627  11.211
15760W        W86360  11.701  19.072   0.392
15761W        W86361   5.906  19.784  14.283
15762W        W86362  27.926   9.472  10.940
15763W        W86363   8.202  33.512  12.968
15764W        W86364  35.774  16.119   1.585
15765W        W86365  13.698  18.319  11.995
15766W        W86366  28.528  15.307  13.849
15767W        W86367  29.636  27.598   4.591
15768W        W86368   4.513  29.979   4.086
15769W        W86369   2.021  21.837  13.379
15770W        W86370  25.689  42.823   5.020
15771W        W86371  16.815  16.156  14.354
15772W        W86372  25.654  33.986  13.637
15773W        W86373  42.406  40.295  11.535
15774W        W86374  11.711  25.228  12.640
15775W        W86375  21.745  27.058  14.995
15776W        W86376   8.719  15.658   4.212
15777W        W86377  22.621   0.867  14.092
15778W        W86378  25.208  34.188  14.846
15779W        W86379  35.054  27.823  11.668
15780W        W86380   4.144  30.098   2.195
15781W        W86381  34.013   1.744  14.771
15782W        W86382  34.033  44.473   4.601
15783W        W86383   2.301  44.881  14.913
15784W        W86384   8.354  33.140   0.997
15785W        W86385  11.274   5.299   0.293
15786W        W86386  30.170  29.183  11.190
15787W        W86387  25.951   8.272   4.233
15788W        W86388  36.614  18.272  13.544
15789W        W86389   2.676  40.763  12.073
15790W        W86390  44.563  30.166  14.379
15791W        W86391  34.842  10.348   3.101
15792W        W86392  19.145  14.178   0.377
15793W        W86393   4.029   2.221   4.930
15794W        W86394  20.438  27.342  12.077
15795W        W86395   0.550  26.664  14.928
15796W        W86396  38.075   7.244  12.785
15797W        W86397  29.778  41.407   1.130
15798W        W86398  42.739   7.921  13.557
15799W        W86399  24.058   8.865  14.667
15800W        W86400  21.430  29.888  14.396
15801W        W86401  41.832  23.055  13.333
15802W        W86402  22.296  17.348  12.365
15803W        W86403  27.642   4.297   4.887
15804W        W86404   8.943  27.588  11.445
15805W        W86405  29.675  19.509   5.039
15806W        W86406  20.738  26.739   2.587
15807W        W86407  20.887  42.812  11.463
15808W        W86408  33.923   9.188   4.149
15809W        W86409  36.442  40.926   2.568
15810W        W86410  43.573  31.658  12.872
15811W        W86411  36.902  18.489  14.819
15812W        W86412   3.875  10.813   2.225
15813W        W86413   5.207  42.203  14.956
15814W        W86414  18.570   0.516  12.875
15815W        W86415  15.174  27.370   1.974
15816W        W86416  19.697  15.315  12.119
15817W        W86417  24.259  23.018  11.002
15818W        W86418  40.857  21.264  11.661
15819W        W86419  22.805  39.949   4.521
15820W        W86420  37.466   5.464   3.270
15821W        W86421  17.302  10.417  11.246
15822W        W86422  15.904   3.996   2.857
15823W        W86423  30.109  17.505  13.184
15824W        W86424  18.091  15.328   1.864
15825W        W86425  10.291  13.706  13.983
15826W        W86426  42.311   2.912  12.917
15827W        W86427  30.863   7.315   0.853
15828W        W86428  41.733   8.732  12.338
15829W        W86429  15.174  24.494   4.436
15830W        W86430  29.619  43.196   1.777
15831W        W86431  40.535  40.081   3.865
15832W        W86432  12.784   2.033  12.412
15833W        W86433  44.008   9.624   2.335
15834W        W86434  12.486  43.257   2.231
15835W        W86435   3.415  19.068   0.617
15836W        W86436  14.872  11.602   1.788
15837W        W86437  26.869  31.254  13.482
15838W        W86438   9.162  28.754  13.336
15839W        W86439  10.423  24.459   3.617
15840W        W86440  12.179   8.109   4.275
15841W        W86441  19.326  28.504  12.944
15842W        W86442   9.363  10.231  12.914
15843W        W86443   8.411  12.846  12.218
15844W        W86444  16.311   1.613  11.043
15845W        W86445  12.148  41.290   0.777
15846W        W86446  36.110  39.389  12.521
15847W        W86447  11.774   5.235  12.539
15848W        W86448  26.907  20.699   3.158
15849W        W86449  13.571  26.228   3.725
15850W        W86450   0.408  34.339   3.467
15851W        W86451  32.583  23.586   2.368
15852W        W86452   0.243  27.125  14.024
15853W        W86453  20.064  19.067  14.463
15854W        W86454  26.500  40.664  11.346
15855W        W86455  13.197   6.932   0.783
15856W        W86456  17.038  38.424   0.186
15857W        W86457  40.735   5.493   0.922
15858W        W86458  27.975  42.391   3.387
15859W        W86459   7.646  28.126  10.693
15860W        W86460  30.047   0.470   2.017
15861W        W86461  30.403  14.827   3.179
15862W        W86462  42.001  10.933  11.084
15863W        W86463  42.617  34.941  14.090
15864W        W86464   7.105  11.765   0.000
15865W        W86465  37.438  17.091   4.565
15866W        W86466  38.899  30.535   5.152
15867W        W86467   1.077  17.462   0.479
15868W        W86468   4.482  29.920   3.273
15869W        W86469  39.019  27.697   0.764
15870W        W86470  42.572  22.092   2.890
15871W        W86471  27.604  30.175  10.932
15872W        W86472  32.113  32.937   1.848
15873W        W86473   6.229   0.903   3.265
15874W        W86474  44.990  39.917   1.260
15875W        W86475  16.539  38.413   1.239
15876W        W86476  44.470   7.943  12.719
15877W        W86477  19.367   5.191  13.473
15878W        W86478  11.311  29.051   3.591
15879W        W86479  32.914  27.926  12.590
15880W        W86480  25.978  18.662  11.409
15881W        W86481  10.619  35.878   0.797
15882W        W86482  42.328  37.228  14.253
15883W        W86483  35.065  33.906   3.657
15884W        W86484   9.444  36.686   4.198
15885W        W86485  10.863  38.393   4.985
15886W        W86486  31.528  15.560   0.319
15887W        W86487   7.439  17.306  11.857
15888W        W86488  24.344  34.056   4.206
15889W        W86489  41.068  41.614   4.263
15890W        W86490  13.563  25.443  11.566
15891W        W86491  20.285  21.552   3.222
15892W        W86492  22.823  28.714   0.304
15893W        W86493  13.591  39.829   3.542
15894W        W86494  35.870   8.274  12.440
15895W        W86495   2.745  28.660  13.842
15896W        W86496  35.489  16.681  14.928
15897W        W86497  28.100  38.665   2.089
15898W        W86498  22.314  17.851   1.924
15899W        W86499  15.771   7.824  11.558
15900W        W86500   9.676  37.873  11.291
15901W        W86501  24.701  13.148   3.652
15902W        W86502  39.285   4.210  13.890
15903W        W86503  42.897  13.589   0.822
15904W        W86504  32.508  44.428  13.973
15905W        W86505  27.061  21.803   2.331
15906W        W86506  35.726  29.834   0.933
15907W        W86507  23.175  20.777   4.279
15908W        W86508  32.295  23.670  12.842
15909W        W86509   4.767   3.856  12.267
15910W        W86510  25.647  18.240   4.567
15911W        W86511  22.039   4.013  13.078
15912W        W86512  18.646  41.713  14.140
15913W        W86513  29.657  37.825  11.748
15914W        W86514  15.263  38.263  11.152
15915W        W86515  34.052  20.606  13.489
15916W        W86516  13.237  31.221   1.614
15917W        W86517  13.305   2.200   1.915
15918W        W86518   2.688  19.341  10.791
15919W        W86519   7.717  23.784  12.444
15920W        W86520  19.714   8.743   2.567
15921W        W86521   0.646  39.114  10.586
15922W        W86522  42.819  37.147  14.089
15923W        W86523   0.288  24.584   4.214
15924W        W86524  32.743  28.843  13.551
15925W        W86525  24.780   9.971   1.075
15926W        W86526  36.506  24.680  14.897
15927W        W86527  17.401  23.256  14.397
15928W        W86528   5.815  34.902  14.887
15929W        W86529  10.502  41.587  10.258
15930W        W86530  15.840  36.525   3.589
15931W        W86531   4.937  27.998   0.312
15932W        W86532  26.581  31.439   0.989
15933W        W86533  16.368   8.187   3.700
15934W        W86534  34.117  44.545   3.711
15935W        W86535  23.531   1.277   0.101
15936W        W86536  19.604  12.705  14.539
15937W        W86537   2.937   0.785  12.083
15938W        W86538  35.600  27.219  14.976
15939W        W86539   8.630   2.639  10.456
15940W        W86540  13.817  34.074   1.830
15941W        W86541  24.705  13.365   4.750
15942W        W86542   1.427  14.379  14.871
15943W        W86543  43.301  43.733  14.857
15944W        W86544  41.564  35.462  12.550
15945W        W86545  41.428  23.993   2.898
15946W        W86546  21.043  11.228   0.054
15947W        W86547   6.749  22.526   0.455
15948W        W86548  44.795  36.640   1.736
15949W        W86549  12.319  34.685  13.905
15950W        W86550  41.933  37.071  11.728
15951W        W86551  30.647  42.387  12.738
15952W        W86552  39.954  36.287   2.409
15953W        W86553  38.386   0.709  14.024
15954W        W86554   0.724  44.930  12.139
15955W        W86555  36.109  38.610  13.988
15956W        W86556  21.135  39.192  10.764
15957W        W86557  34.172  35.928   2.746
15958W        W86558  36.292  17.757   2.300
15959W        W86559  11.900   9.365   0.388
15960W        W86560  22.034   4.752  14.681
15961W        W86561   7.383  14.430  10.493
15962W        W86562  26.957  41.531   1.861
15963W        W86563  37.700   1.831  14.493
15964W        W86564  29.553   2.182   3.787
15965W        W86565  25.996   2.929  13.728
15966W        W86566  27.508  12.329   2.175
15967W        W86567  32.020  12.687   0.924
15968W        W86568  43.394  13.004   1.348
15969W        W86569  36.026  33.576  13.849
15970W        W86570  41.075  31.675   0.445
15971W        W86571  23.500  27.121   4.214
15972W        W86572  44.808  34.290   1.437
15973W        W86573  33.930   9.188  13.624
15974W        W86574  26.155   2.043   0.215
15975W        W86575   7.888  43.582   1.386
15976W        W86576  36.520  39.904  14.452
15977W        W86577   0.784   6.315   1.788
15978W        W86578  38.893  20.874   1.301
15979W        W86579  16.281  43.856  10.563
15980W        W86580   5.221  38.299  11.668
15981W        W86581   6.398   2.963   4.798
15982W        W86582  17.237  30.417   0.306
15983W        W86583  23.310  16.477  11.179
15984W        W86584   3.924   6.610  11.626
15985W        W86585  19.537  29.065  14.715
15986W        W86586  23.464  31.112   2.819
15987W        W86587  33.489  11.776  13.989
15988W        W86588  16.660  28.115  10.649
15989W        W86589   3.619  21.084   2.866
15990W        W86590   6.597  16.233  13.535
15991W        W86591  13.796   4.664  12.074
15992W        W86592  33.277  33.859   9.963
15993W        W86593  15.813  39.011  11.517
15994W        W86594   7.354  28.940   4.079
15995W        W86595  33.847  28.519   2.792
15996W        W86596   5.258  11.626   2.432
15997W        W86597  32.133  39.497   2.134
15998W        W86598   4.752  16.953   3.312
15999W        W86599   7.457  36.153   2.739
16000W        W86600  29.995  39.358  14.025
16001W        W86601   8.884   4.772  10.958
16002W        W86602  30.452  30.191  14.951
16003W        W86603  29.063  22.500  11.414
16004W        W86604  22.842  38.953  13.627
16005W        W86605  30.558  42.947  10.258
16006W        W86606  30.918  33.166  14.294
16007W        W86607  27.555  30.132  10.428
16008W        W86608  41.989  44.886   4.237
16009W        W86609  39.373  42.631   4.943
16010W        W86610   4.613  36.341   1.346
16011W        W86611  37.917   4.339  12.031
16012W        W86612  21.363  21.133  12.504
16013W        W86613   7.304  34.106   0.623
16014W        W86614  37.009  13.788   4.463
16015W        W86615  35.908  44.958  12.027
16016W        W86616  36.385  36.889  11.959
16017W        W86617  12.587  41.896  11.094
16018W        W86618  42.031  23.042   1.361
16019W        W86619  28.149  12.184   1.379
16020W        W86620   3.978  34.732   0.327
16021W        W86621   2.878  15.081  14.388
16022W        W86622  29.203  11.304  11.006
16023W        W86623   3.231   8.012  10.889
16024W        W86624   5.741   5.932  14.563
16025W        W86625  28.247  13.757   2.551
16026W        W86626  32.310  19.603   0.301
16027W        W86627   0.511  18.309   3.147
16028W        W86628  41.750  34.048   2.271
16029W        W86629  19.339   9.893   3.720
16030W        W86630  24.434  24.510   5.049
16031W        W86631  17.282   0.738  11.583
16032W        W86632  30.234   8.632   3.114
16033W        W86633  17.882  12.720   2.520
16034W        W86634  22.048  12.039   0.957
16035W        W86635  27.732  15.411   4.140
16036W        W86636  35.544   9.239  12.886
16037W        W86637  23.939  28.526   1.431
16038W        W86638  25.268  41.812   4.159
16039W        W86639  12.190  43.678  13.019
16040W        W86640   2.160  21.673  11.182
16041W        W86641   7.231  14.865  13.931
16042W        W86642  42.959  13.498  14.864
16043W        W86643  43.431  24.823  12.482
16044W        W86644   6.982  26.796   4.723
16045W        W86645  36.921  32.546  10.713
16046W        W86646  14.696   9.214  13.379
16047W        W86647  44.322  34.631  11.514
16048W        W86648  33.536  30.997   1.954
16049W        W86649   6.630   4.437   0.881
16050W        W86650  16.371  15.164   3.720
16051W        W86651  25.621   2.331   0.373
16052W        W86652  24.681  17.861   3.144
16053W        W86653  44.837  42.430  14.962
16054W        W86654   5.187  13.382   2.237
16055W        W86655  27.156  10.697   1.135
16056W        W86656   9.475  10.676   1.326
16057W        W86657  44.340  39.466   0.885
16058W        W86658  41.852  39.534   1.732
16059W        W86659   0.572   6.397   0.442
16060W        W86660  37.429  12.762   2.636
16061W        W86661  16.845  10.915  13.872
16062W        W86662  10.706   3.613  11.949
16063W        W86663  30.132  41.703   0.263
16064W        W86664  43.382   8.458   4.609
16065W        W86665  11.304  43.809  13.584
16066W        W86666  27.192  22.177  11.511
16067W        W86667  19.096  31.901   2.529
16068W        W86668  40.187  10.827  10.446
16069W        W86669  30.613   5.006  13.848
16070W        W86670  10.686  40.297   1.469
16071W        W86671   9.974  24.908  13.917
16072W        W86672   6.666  13.607  14.018
16073W        W86673  34.302  19.047  11.790
16074W        W86674  40.810  13.718  10.750
16075W        W86675  42.850  25.292   2.722
16076W        W86676  31.655   1.290   3.785
16077W        W86677  16.292  24.194  10.677
16078W        W86678   0.520  20.001  12.915
16079W        W86679   1.759   1.978   0.265
16080W        W86680  17.128  12.163  13.529
16081W        W86681  18.815  37.831   0.028
16082W        W86682  13.606  29.450   1.276
16083W        W86683   5.233   4.922  11.537
16084W        W86684  21.518  42.605   2.816
16085W        W86685   9.925   9.351  14.755
16086W        W86686  32.377  28.153   4.718
16087W        W86687  29.991  16.252   2.283
16088W        W86688  31.137   4.339  13.823
16089W        W86689  20.380  17.843  13.126
16090W        W86690  32.363  24.289  13.917
16091W        W86691  37.427  29.990  11.326
16092W        W86692  22.742   1.823  14.853
16093W        W86693  41.712  14.354   1.308
16094W        W86694  20.683   4.390  12.535
16095W        W86695  16.572  25.764   4.146
16096W        W86696  13.657  21.690   2.944
16097W        W86697  11.364  42.989  13.033
16098W        W86698   2.472  21.746   0.773
16099W        W86699  37.050  44.688   4.629
16100W        W86700  32.350  41.920  13.843
16101W        W86701  15.391   4.457  11.399
16102W        W86702  28.687  10.861   1.807
16103W        W86703  17.054  31.070  10.686
16104W        W86704  27.740   4.669  14.467
16105W        W86705  32.915  10.285   0.867
16106W        W86706   5.785  17.643  13.015
16107W        W86707  23.772  43.565  11.909
16108W        W86708   7.185   9.589  14.734
16109W        W86709  19.174   2.696  13.410
16110W        W86710  34.979  25.583   2.474
16111W        W86711   9.939  16.591  14.468
16112W        W86712  41.926  35.853   0.424
16113W        W86713  28.261  22.119  14.309
16114W        W86714  38.597  13.894   4.179
16115W        W86715  25.211  43.846   1.170
16116W        W86716  26.863  43.480   0.675
16117W        W86717  10.889  34.527   4.211
16118W        W86718  24.219  18.659   4.643
16119W        W86719  24.805  26.231  13.337
16120W        W86720  40.672  39.016   0.369
16121W        W86721   8.255  27.992  11.911
16122W        W86722  12.121   5.980  11.982
16123W        W86723   0.888  37.075   1.809
16124W        W86724   1.701  44.456   5.021
16125W        W86725  23.236  39.948   0.796
16126W        W86726  27.124  14.375   2.438
16127W        W86727  10.248  21.015  11.180
16128W        W86728  34.629  15.105  10.693
16129W        W86729   4.527  15.473   0.513
16130W        W86730  11.894  34.498   0.386
16131W        W86731  27.289  13.672   2.764
16132W        W86732  33.149  27.926   2.871
16133W        W86733  21.362  37.533   3.637
16134W        W86734  30.553  23.566   2.297
16135W        W86735   8.561  23.759  14.996
16136W        W86736  24.505  15.603   2.187
16137W        W86737  35.394  43.354  11.928
16138W        W86738  29.972  32.936   2.678
16139W        W86739   1.797  15.358   0.671
16140W        W86740  41.767  44.367   4.190
16141W        W86741  15.726  29.907  13.142
16142W        W86742  40.738  25.799  13.461
16143W        W86743  12.223  39.751  11.407
16144W        W86744   5.318  41.941  11.182
16145W        W86745  30.006  33.816   0.792
16146W        W86746  41.004  10.545  12.809
16147W        W86747  34.991  34.730   3.301
16148W        W86748  23.802  19.056   4.600
16149W        W86749  26.977  40.237  13.732
16150W        W86750   6.347  24.391  10.843
16151W        W86751  15.831  41.103  13.349
16152W        W86752   0.773  23.599  13.166
16153W        W86753  31.407  39.056  14.569
16154W        W86754   7.859  30.196  12.867
16155W        W86755  30.943  39.030   3.081
16156W        W86756   8.704   2.490  12.558
16157W        W86757  39.375  42.202   2.816
16158W        W86758  16.638  14.505   3.215
16159W        W86759  30.245   4.453   4.210
16160W        W86760  20.059  19.563  10.935
16161W        W86761  32.992  39.106  12.115
16162W        W86762   6.850  33.665   2.056
16163W        W86763  44.360   2.855   1.409
16164W        W86764  37.268   0.197   1.827
16165W        W86765  30.672  42.951   4.652
16166W        W86766  12.417  21.619  12.037
16167W        W86767  11.922  43.821   1.364
16168W        W86768  23.457   2.939  13.852
16169W        W86769  38.006   3.928   4.622
16170W        W86770  16.252   2.628  12.569
16171W        W86771  20.464  27.488  14.692
16172W        W86772  38.046  14.534   0.350
16173W        W86773  16.639   1.882   2.869
16174W        W86774  38.471  42.918  14.571
16175W        W86775   0.401   1.972   1.766
16176W        W86776  43.030  24.405  14.463
16177W        W86777   0.189  43.885   1.855
16178W        W86778  38.821  42.674   0.755
16179W        W86779  24.205  34.527   2.169
16180W        W86780   2.416  22.765  13.885
16181W        W86781  14.300  43.787   4.452
16182W        W86782  11.762   9.890   3.302
16183W        W86783  29.602   7.845   0.686
16184W        W86784  25.139   2.921   4.643
16185W        W86785  44.939   1.948  14.566
16186W        W86786  32.025  27.147   3.130
16187W        W86787   6.417  26.532   0.927
16188W        W86788  18.219  31.592  14.208
16189W        W86789  33.084  41.991  11.165
16190W        W86790  30.029  25.907   2.743
16191W        W86791  21.525  39.126  14.808
16192W        W86792  19.026  25.725   1.697
16193W        W86793   3.402  13.586  12.068
16194W        W86794  21.957  25.644   4.856
16195W        W86795   5.195  18.735  13.411
16196W        W86796   0.736   6.817   1.799
16197W        W86797  38.085  35.554  14.923
16198W        W86798  22.795  28.709  13.035
16199W        W86799   0.822  20.047   1.923
16200W        W86800  13.829  28.407  11.926
16201W        W86801  37.997  40.034  10.849
16202W        W86802  17.149  29.192  13.982
16203W        W86803  41.013   5.124  13.464
16204W        W86804  29.837  43.537   2.233
16205W        W86805  15.735  41.685  11.172
16206W        W86806  17.557  18.654   1.263
16207W        W86807  32.100   2.475  12.300
16208W        W86808  36.877   6.827   0.500
16209W        W86809   0.500  25.565  13.950
16210W        W86810  25.309  35.142  14.817
16211W        W86811  34.005   3.333   2.613
16212W        W86812  18.917  27.072  10.738
16213W        W86813  15.708  19.772  11.421
16214W        W86814  24.695  32.454  10.719
16215W        W86815  43.651  10.651  13.034
16216W        W86816  34.784   8.740   1.175
16217W        W86817   7.045  17.676  11.562
16218W        W86818   4.764  15.117   1.944
16219W        W86819  41.324  28.752  10.489
16220W        W86820  13.290   9.912  13.476
16221W        W86821   2.407   1.196  14.984
16222W        W86822  36.532  12.210   2.872
16223W        W86823  11.856  22.652  13.841
16224W        W86824  18.442  31.993  14.457
16225W        W86825  41.994  19.604  14.557
16226W        W86826  32.464  41.526   2.929
16227W        W86827  22.749   5.841   3.760
16228W        W86828  42.827  37.368   2.296
16229W        W86829  23.423  22.153  12.849
16230W        W86830  13.844  15.806   1.268
16231W        W86831  44.754  22.503  14.005
16232W        W86832  44.068   2.521  13.813
16233W        W86833  11.940  16.016  14.448
16234W        W86834  21.329  24.926  14.231
16235W        W86835  19.636  12.263  10.745
16236W        W86836  42.407  24.412  13.320
16237W        W86837   4.202  33.364  12.439
16238W        W86838  11.597   6.627   2.367
16239W        W86839  13.229  16.664  14.995
16240W        W86840  26.366  41.037  13.772
16241W        W86841  29.820  38.002   2.249
16242W        W86842   5.898  24.112   3.422
16243W        W86843  12.793  11.856   0.980
16244W        W86844  41.977  11.982  10.039
16245W        W86845  14.801   5.342  11.212
16246W        W86846  36.283  30.970   0.510
16247W        W86847  27.035  36.512   3.440
16248W        W86848   2.440  25.247  11.392
16249W        W86849  23.771  26.370   1.712
16250W        W86850  30.593  25.176   3.710
16251W        W86851  12.630  20.704  14.334
16252W        W86852  35.328  35.987   1.220
16253W        W86853  41.275  23.966  14.336
16254W        W86854  42.022  31.855  11.188
16255W        W86855  37.295  11.805   4.620
16256W        W86856  36.694  30.985   4.362
16257W        W86857  38.317  21.273  14.016
16258W        W86858  24.995  24.933   0.877
16259W        W86859   1.037  39.972  14.357
16260W        W86860  18.083   0.357   3.289
16261W        W86861  14.168   0.750   3.365
16262W        W86862  11.413   2.846  12.962
16263W        W86863  29.013  36.828   1.858
16264W        W86864  13.043  33.028   2.288
16265W        W86865  24.208  16.947   2.100
16266W        W86866  14.305  24.508  13.403
16267W        W86867  32.443  37.088  14.385
16268W        W86868  37.900   5.434  13.124
16269W        W86869  11.345  41.108   4.550
16270W        W86870   7.222   1.453  14.404
16271W        W86871   3.614  15.936   3.270
16272W        W86872  17.143  30.111  14.407
16273W        W86873  21.042  25.483  13.439
16274W        W86874  43.830  38.825  11.583
16275W        W86875   3.102   6.850  12.370
16276W        W86876   2.252  21.645   2.296
16277W        W86877   4.787  35.660  13.540
16278W        W86878  20.589  15.302   2.735
16279W        W86879  44.068  44.409  12.452
16280W        W86880  19.310  15.110   4.134
16281W        W86881  16.087  26.590  11.559
16282W        W86882  43.486  22.280   0.868
16283W        W86883  14.367  28.783   3.288
16284W        W86884  42.777  44.932  13.256
16285W        W86885  22.246  22.681   0.231
16286W        W86886  19.240  31.575   0.941
16287W        W86887  28.256  35.315  11.562
16288W        W86888   8.243  19.793  13.283
16289W        W86889  35.001   8.740   3.356
16290W        W86890   7.980  32.895  14.593
16291W        W86891  31.804  17.688   3.637
16292W        W86892  23.222  44.410   4.509
16293W        W86893  14.388  39.523   4.550
16294W        W86894   6.231  28.694  10.652
16295W        W86895  12.106  17.621   3.855
16296W        W86896   6.409   6.182  11.379
16297W        W86897  24.690  17.098  12.557
16298W        W86898  15.756  31.677   1.519
16299W        W86899   2.700  36.532   2.955
16300W        W86900  31.187  20.963  13.816
16301W        W86901  25.531  27.311   0.787
16302W        W86902  24.779  28.163   2.857
16303W        W86903   9.847  13.094  10.799
16304W        W86904  26.625  27.421   3.756
16305W        W86905  30.461   3.679  14.721
16306W        W86906  40.393  22.676   0.689
16307W        W86907  32.923  12.791  11.042
16308W        W86908  28.165  11.749  12.487
16309W        W86909  44.105  18.652   2.355
16310W        W86910  10.407  11.285  14.334
16311W        W86911  12.474   8.655  13.018
16312W        W86912   3.893  12.259  13.012
16313W        W86913  12.321  19.077  13.940
16314W        W86914  17.265  11.217   0.003
16315W        W86915  20.321  12.200   0.567
16316W        W86916  34.438  30.958  11.184
16317W        W86917  10.383  17.786  10.657
16318W        W86918  17.625   7.466  13.336
16319W        W86919  42.529  36.735  14.312
16320W        W86920  30.661  43.425  12.017
16321W        W86921   2.958  42.345  13.042
16322W        W86922  35.969  17.576   4.116
16323W        W86923   1.758  26.702  10.703
16324W        W86924   8.515  23.876  13.298
16325W        W86925  35.567   3.466  14.230
16326W        W86926  26.654  11.380  14.987
16327W        W86927  24.679  29.165  13.429
16328W        W86928  33.519  38.557  10.485
16329W        W86929  14.489   3.189  11.098
16330W        W86930  19.566  14.725   3.612
16331W        W86931   6.364   8.424  11.517
16332W        W86932  12.692   8.797  10.654
16333W        W86933  12.276  19.070   2.724
16334W        W86934   3.948  26.550   4.468
16335W        W86935   1.495  41.361  12.649
16336W        W86936  32.568  34.671   1.263
16337W        W86937  10.358  11.623   2.275
16338W        W86938  30.078  32.325  14.743
16339W        W86939  16.655  40.246  12.896
16340W        W86940  29.027  21.415  14.515
16341W        W86941  35.149   5.201   4.075
16342W        W86942  41.382   2.447  10.575
16343W        W86943  26.296   4.228  10.628
16344W        W86944   9.900   3.654  10.576
16345W        W86945  36.514   0.796   4.169
16346W        W86946   1.998  36.619  11.176
16347W        W86947   7.142  44.372   4.175
16348W        W86948  31.344  23.373  12.676
16349W        W86949  35.648  33.965  14.898
16350W        W86950  15.052  44.008  12.353
16351W        W86951  12.781   1.394   4.154
16352W        W86952  32.201  25.952  14.493
16353W        W86953   8.327  11.575   1.897
16354W        W86954  37.149  27.161   0.021
16355W        W86955  34.179  14.344   0.306
16356W        W86956  42.505  42.420   4.555
16357W        W86957  38.413  40.593   0.019
16358W        W86958  42.693   6.844  11.114
16359W        W86959  37.891   6.108  10.007
16360W        W86960  17.609   4.863   2.415
16361W        W86961   1.954  43.945  13.328
16362W        W86962  16.360  29.942  11.023
16363W        W86963  32.495  37.442   3.648
16364W        W86964   7.137  14.633  11.731
16365W        W86965  41.000  32.336  14.755
16366W        W86966  20.094   3.468   1.846
16367W        W86967  15.770  33.145  13.271
16368W        W86968  15.295  13.800  13.005
16369W        W86969  10.185  24.061  12.971
16370W        W86970  15.635  19.776  14.234
16371W        W86971  33.504  18.204   0.628
16372W        W86972  18.132  13.187  10.562
16373W        W86973  36.475  28.540   0.005
16374W        W86974  42.211  40.501   0.683
16375W        W86975  43.413  10.174  12.825
16376W        W86976  35.728   0.286   1.926
16377W        W86977  11.846   4.415   2.327
16378W        W86978  31.619  44.090   4.465
16379W        W86979  32.609   7.677  12.802
16380W        W86980  43.748  39.922   3.168
16381W        W86981  29.714  39.028  14.957
16382W        W86982   1.220  22.631  14.863
16383W        W86983   0.389  30.140   2.233
16384W        W86984  42.543   3.326   4.610
16385W        W86985   2.483   2.925   4.339
16386W        W86986  28.418  23.747  11.126
16387W        W86987   1.074  13.615   4.162
16388W        W86988  31.661   0.756  11.185
16389W        W86989  10.903  42.228   2.164
16390W        W86990  27.250  13.525   0.394
16391W        W86991   5.668  12.131   4.623
16392W        W86992   6.592  26.584  12.313
16393W        W86993  19.366   5.213   4.192
16394W        W86994  10.832  38.863   3.248
16395W        W86995   8.454  15.441   1.783
16396W        W86996  44.992  38.303  12.300
16397W        W86997  27.024  26.428  10.762
16398W        W86998  16.204   0.951   0.252
16399W        W86999  13.783  41.536  12.529
16400W        W87000  11.593   9.747   4.820
16401W        W87001   6.623  18.561   3.626
16402W        W87002  19.956  20.690   2.071
16403W        W87003  17.103  23.977   0.720
16404W        W87004  38.895  21.940  10.791
16405W        W87005  32.293  21.145   4.140
16406W        W87006  18.675  25.469  11.505
16407W        W87007  12.913  33.236   1.279
16408W        W87008   8.721  27.486   0.294
16409W        W87009   0.758   5.486  12.486
16410W        W87010  18.103  28.004   0.341
16411W        W87011  44.994  22.218   4.106
16412W        W87012   9.229  39.299  11.792
16413W        W87013  19.178  28.662  13.445
16414W        W87014   6.350  32.625   3.206
16415W        W87015  34.383  16.222  12.032
16416W        W87016  29.158   4.823   3.623
16417W        W87017  43.308  11.446  13.662
16418W        W87018  14.378  26.922  12.079
16419W        W87019  23.987  38.202  11.669
16420W        W87020  20.290  19.163   3.608
16421W        W87021  16.626  18.784   1.195
16422W        W87022  11.874  27.517  12.100
16423W        W87023  35.355   3.271  10.539
16424W        W87024  43.117  10.125   4.967
16425W        W87025  41.034  19.140   2.324
16426W        W87026  41.344  16.289  13.828
16427W        W87027  37.508   5.379  12.401
16428W        W87028  12.134  21.154  12.721
16429W        W87029  20.443  44.705   1.394
16430W        W87030   5.086  41.649  14.373
16431W        W87031   7.340  40.771   2.761
16432W        W87032   1.577  13.330   0.964
16433W        W87033  18.807   1.396   1.723
16434W        W87034  16.297  29.450  10.862
16435W        W87035   9.426   5.917  12.585
16436W        W87036   9.224  37.028  11.004
16437W        W87037  30.068  13.793   3.741
16438W        W87038  16.578  28.102   3.774
16439W        W87039  34.056  39.767  13.938
16440W        W87040  43.191  22.396  12.212
16441W        W87041   9.338   4.665   4.923
16442W        W87042  26.426  37.550   2.695
16443W        W87043  28.421  34.556   3.305
16444W        W87044   2.692  37.027  10.699
16445W        W87045  32.425  15.394   2.599
16446W        W87046  24.129  41.418   2.366
16447W        W87047  25.463   7.892  11.063
16448W        W87048  26.919  44.798   0.835
16449W        W87049  33.728   4.759   2.802
16450W        W87050  13.884  24.604  12.076
16451W        W87051  37.565  43.225  11.528
16452W        W87052  31.648   2.741   2.341
16453W        W87053  15.645  23.178  12.955
16454W        W87054  35.869  28.067  12.045
16455W        W87055  31.526  26.160   1.738
16456W        W87056  13.675  37.586  13.434
16457W        W87057  20.714  29.153  10.556
16458W        W87058  21.557  35.779   0.527
16459W        W87059  24.178   1.271  14.333
16460W        W87060  27.488  35.614  10.936
16461W        W87061  29.843   4.820   5.171
16462W        W87062   8.347  32.683   1.853
16463W        W87063  25.933  44.303  10.114
16464W        W87064  13.257   5.298  13.822
16465W        W87065  16.879  25.930  10.392
16466W        W87066   7.844   3.418   0.973
16467W        W87067   5.693  10.879  10.939
16468W        W87068  27.420  10.404  13.354
16469W        W87069  37.052  29.390  13.395
16470W        W87070  23.876   3.831  13.422
16471W        W87071   8.759   8.820   3.698
16472W        W87072  23.904  19.511   2.300
16473W        W87073   2.231  16.181  11.106
16474W        W87074   8.666  13.674  12.366
16475W        W87075  31.646  37.947   4.598
16476W        W87076  18.611  37.425   0.263
16477W        W87077  12.143  37.492   5.055
16478W        W87078  13.415  38.046  14.652
16479W        W87079  12.271  41.230   2.862
16480W        W87080  15.327  21.756   0.412
16481W        W87081  31.134  24.367   4.026
16482W        W87082  40.476  39.018   0.848
16483W        W87083  18.608  44.810  14.384
16484W        W87084  10.191  29.475   4.103
16485W        W87085   5.232  28.737   2.253
16486W        W87086  33.016   3.899  10.633
16487W        W87087   0.444  25.701   0.416
16488W        W87088  10.541  32.297  11.076
16489W        W87089  20.129   5.743   1.629
16490W        W87090  42.903  25.814   2.672
16491W        W87091  22.846  43.048   4.971
16492W        W87092  41.471  13.406  12.392
16493W        W87093  12.259  39.921   2.356
16494W        W87094  32.682  28.582   0.381
16495W        W87095  35.928  28.985  11.640
16496W        W87096  39.860   1.411  10.545
16497W        W87097  33.083   8.909  12.074
16498W        W87098  20.790  16.157  11.654
16499W        W87099   1.229  20.823  13.448
16500W        W87100  29.503  44.075   1.312
16501W        W87101  23.541  21.619   4.212
16502W        W87102  43.972   8.300  11.222
16503W        W87103  28.048  32.020  11.526
16504W        W87104  11.984  16.718   1.844
16505W        W87105  30.023   6.463   3.521
16506W        W87106  19.808  39.911  13.642
16507W        W87107   2.004  13.176   2.674
16508W        W87108  36.134  15.786  13.292
16509W        W87109  25.288   4.661  14.280
16510W        W87110  38.769  27.226  12.660
16511W        W87111  21.780  23.119  14.221
16512W        W87112   4.288  32.580   2.940
16513W        W87113   9.357   0.082   2.185
16514W        W87114  13.381  20.168  11.059
16515W        W87115  40.514  15.101   0.756
16516W        W87116  20.624  24.075  11.868
16517W        W87117  33.910   2.396   3.810
16518W        W87118  29.378   5.394  13.463
16519W        W87119  22.037  23.193   0.122
16520W        W87120  38.095  37.596  11.875
16521W        W87121  34.619  24.321   2.031
16522W        W87122  32.434  12.932  11.181
16523W        W87123  34.003  32.956   4.080
16524W        W87124  34.467  20.568   4.182
16525W        W87125  31.052  11.473   0.258
16526W        W87126  43.520  34.008   2.704
16527W        W87127  29.017  12.810  14.734
16528W        W87128   9.857   6.619   1.748
16529W        W87129  40.558  11.698   3.080
16530W        W87130  18.873  12.352  12.893
16531W        W87131  26.247   8.192  14.817
16532W        W87132  22.808  41.959   2.844
16533W        W87133   2.630  28.467   4.244
16534W        W87134  31.627  28.055  11.702
16535W        W87135  27.195  37.834   0.306
16536W        W87136   2.198   8.839   4.022
16537W        W87137  14.981  34.937  10.037
16538W        W87138   1.946  23.886  11.225
16539W        W87139  35.722  15.267  13.566
16540W        W87140   6.482   3.856   2.278
16541W        W87141   1.318   4.942   4.312
16542W        W87142  37.082  30.503  12.878
16543W        W87143  27.925  22.512  12.298
16544W        W87144  26.615  23.044  14.379
16545W        W87145  41.392  37.602   4.511
16546W        W87146   1.730  10.547   4.585
16547W        W87147  40.284  30.715   4.119
16548W        W87148  32.985   5.279  13.045
16549W        W87149  39.228  40.987   3.402
16550W        W87150   1.390  37.418   3.793
16551W        W87151  15.789  23.541  12.613
16552W        W87152  33.465   8.075  11.235
16553W        W87153   0.356   7.586   1.905
16554W        W87154  28.887  32.020   3.385
16555W        W87155   7.037  19.259   4.319
16556W        W87156  36.878  32.434   0.736
16557W        W87157   1.252  30.087   3.559
16558W        W87158  18.036  21.253   2.355
16559W        W87159  22.147  32.963  11.557
16560W        W87160  16.773  38.857   0.351
16561W        W87161  35.630  21.660  10.911
16562W        W87162  25.602  30.024   4.245
16563W        W87163  12.586  21.130  13.102
16564W        W87164  24.618  38.033   4.384
16565W        W87165  44.495   9.918   4.589
16566W        W87166  21.650   3.686  13.020
16567W        W87167   1.922  19.162   4.057
16568W        W87168  12.585   0.459  11.995
16569W        W87169  16.128  15.794  11.165
16570W        W87170   1.744   0.783   0.986
16571W        W87171   5.787  22.307  14.123
16572W        W87172  39.496  24.571   1.178
16573W        W87173  23.485   8.487   0.422
16574W        W87174  36.897  13.286   1.336
16575W        W87175  17.746  11.413  12.477
16576W        W87176  37.556  41.523   1.493
16577W        W87177  35.033  38.020   3.825
16578W        W87178  22.977  17.651  14.977
16579W        W87179  25.412  23.994  13.022
16580W        W87180  31.625  23.501  11.636
16581W        W87181   9.351  11.205   1.356
16582W        W87182   2.630  16.104  13.014
16583W        W87183  30.073  38.336   9.772
16584W        W87184  18.557  40.540  10.709
16585W        W87185  19.364   8.125  12.637
16586W        W87186  35.385  10.802  14.396
16587W        W87187  17.309  22.137   1.939
16588W        W87188   3.764  29.416   0.483
16589W        W87189  15.731  19.078  10.807
16590W        W87190  31.194   0.110  13.279
16591W        W87191  42.267  24.202  14.549
16592W        W87192   8.453  24.706  14.468
16593W        W87193   9.097  22.990  13.085
16594W        W87194  36.958  21.206  10.571
16595W        W87195  23.210  28.497  13.910
16596W        W87196  19.595  40.338  13.876
16597W        W87197  31.146  15.050   4.452
16598W        W87198  33.857  22.615  12.145
16599W        W87199  42.935  28.263   4.473
16600W        W87200  28.031  27.911   1.705
16601W        W87201   8.062  21.281  13.029
16602W        W87202  28.266  18.263  13.808
16603W        W87203  27.035  40.988   4.563
16604W        W87204  43.426  37.576   0.374
16605W        W87205  40.253  15.729  14.277
16606W        W87206  13.413   2.527  11.156
16607W        W87207  14.287   3.574   2.042
16608W        W87208  28.481  18.195  13.355
16609W        W87209  15.372  24.081  11.652
16610W        W87210  18.334  23.100  14.083
16611W        W87211  30.224   2.081  12.830
16612W        W87212  27.186  34.841   0.135
16613W        W87213   1.816   7.310  14.528
16614W        W87214  38.967   5.345   0.107
16615W        W87215  22.658   2.809  12.444
16616W        W87216  22.087  33.342  13.347
16617W        W87217  42.834  14.548  13.840
16618W        W87218  38.104   5.788   2.758
16619W        W87219  29.629  34.610   4.261
16620W        W87220  23.625  30.912  13.711
16621W        W87221  44.753   1.791   4.562
16622W        W87222  42.527  16.668   4.133
16623W        W87223  14.121  12.658  14.749
16624W        W87224  20.089   8.197  13.069
16625W        W87225  28.373   5.262  12.362
16626W        W87226  19.528  15.583  13.140
16627W        W87227  30.106  34.913   4.391
16628W        W87228  36.437   4.359   0.454
16629W        W87229  43.426  28.106   4.789
16630W        W87230  12.427  30.114   1.439
16631W        W87231  44.741  39.903  13.287
16632W        W87232  44.358  17.976   3.584
16633W        W87233  39.334  13.797   0.376
16634W        W87234  28.620  38.315  14.784
16635W        W87235  19.021  27.462  14.337
16636W        W87236  24.781  19.717  13.896
16637W        W87237  16.884   0.253   2.794
16638W        W87238  24.643  36.953  13.916
16639W        W87239  32.208  12.791   3.254
16640W        W87240   8.378   3.169  14.854
16641W        W87241  21.600   0.483  10.890
16642W        W87242  16.512   7.310   1.964
16643W        W87243   1.311  43.046   0.427
16644W        W87244  25.202  41.999   2.149
16645W        W87245  24.618  27.381   0.773
16646W        W87246   4.489  18.260   0.811
16647W        W87247  44.314  22.357  12.335
16648W        W87248  17.755   6.960   4.119
16649W        W87249  42.624  22.719   4.921
16650W        W87250  26.009  19.044   3.879
16651W        W87251  18.734  34.872  12.908
16652W        W87252  16.096  38.711  13.576
16653W        W87253  44.062  20.128   9.785
16654W        W87254  42.937  32.455  11.103
16655W        W87255   3.027   0.336   4.343
16656W        W87256  16.200  26.194   0.483
16657W        W87257  27.180  16.336   1.731
16658W        W87258  33.649  36.069   4.086
16659W        W87259  41.436  20.495  12.417
16660W        W87260   8.436  36.955   4.239
16661W        W87261  36.478  20.815  12.964
16662W        W87262  37.887  32.506   3.155
16663W        W87263  24.497  34.526  11.242
16664W        W87264  13.611  41.084   5.432
16665W        W87265  14.339   1.332  12.891
16666W        W87266  24.199  33.384  12.464
16667W        W87267  28.712  35.044   4.165
16668W        W87268  14.196   8.223   1.801
16669W        W87269  24.621   1.248   3.357
16670W        W87270  42.957   6.751  13.748
16671W        W87271   9.197  32.716  12.469
16672W        W87272  14.618  17.851  11.147
16673W        W87273  28.339  24.237  13.916
16674W        W87274  12.640  31.393   3.654
16675W        W87275  32.016  43.261   3.749
16676W        W87276  25.039  40.223   1.322
16677W        W87277  24.803   1.902   4.532
16678W        W87278   2.429  21.961   3.412
16679W        W87279  13.923  27.702   2.316
16680W        W87280  44.521  34.900  11.101
16681W        W87281  44.853  33.360  10.151
16682W        W87282  18.626  44.911   0.436
16683W        W87283   1.727   9.732  13.540
16684W        W87284  27.437  23.505  14.540
16685W        W87285  42.984  13.077   4.213
16686W        W87286  32.535  27.451  14.491
16687W        W87287   6.027   5.871  12.106
16688W        W87288   8.666  30.494  10.055
16689W        W87289  19.753  14.163  10.751
16690W        W87290  22.082   3.703  14.499
16691W        W87291  26.122  20.598   1.588
16692W        W87292   6.198  27.379   1.930
16693W        W87293  23.831  41.015   2.257
16694W        W87294  30.550  10.338  13.110
16695W        W87295  29.041  34.859   3.207
16696W        W87296  43.722  11.482  14.643
16697W        W87297  38.927  32.711   4.552
16698W        W87298   9.102  40.131   2.311
16699W        W87299  36.169  15.170   1.542
16700W        W87300   5.461   1.214   4.124
16701W        W87301   5.195  11.539   1.911
16702W        W87302  11.470   8.202   1.667
16703W        W87303  14.481   0.697   5.172
16704W        W87304   2.964   0.329   3.342
16705W        W87305  27.433  36.971  11.558
16706W        W87306  13.845  41.605   3.277
16707W        W87307  33.825  36.066   3.189
16708W        W87308  26.727  33.176  12.466
16709W        W87309  26.688  42.998  11.455
16710W        W87310  38.735  17.655   0.967
16711W        W87311  16.234  39.959  13.856
16712W        W87312   3.839  25.637  13.133
16713W        W87313  35.354  30.671  11.463
16714W        W87314  10.449  35.648   2.322
16715W        W87315  22.636   8.154  12.843
16716W        W87316  23.702  44.154  14.883
16717W        W87317  11.145   3.914  14.570
16718W        W87318  29.680   0.815  12.905
16719W        W87319   7.405  11.284   2.368
16720W        W87320   6.047  42.812  11.406
16721W        W87321  25.219   3.118   1.232
16722W        W87322   2.673  10.110   4.432
16723W        W87323  29.008   5.345   4.305
16724W        W87324  24.198  19.287  14.778
16725W        W87325  17.841   5.305   1.848
16726W        W87326  31.933  16.032   2.705
16727W        W87327  16.446  35.004  14.495
16728W        W87328  29.595  15.060   4.793
16729W        W87329  23.705  34.087   4.251
16730W        W87330  44.406  11.631  11.446
16731W        W87331  35.679   4.433  14.499
16732W        W87332  40.905  14.886   3.816
16733W        W87333  30.160  23.730   2.643
16734W        W87334  26.864   2.309   1.350
16735W        W87335  43.015  11.719   2.227
16736W        W87336  29.013   8.536  12.144
16737W        W87337  12.279  19.768   3.856
16738W        W87338  41.328   8.900  11.435
16739W        W87339  17.833   9.256   0.448
16740W        W87340  16.228  24.645  10.932
16741W        W87341  43.972  26.428   2.350
16742W        W87342  35.526  27.973   3.677
16743W        W87343  27.985  31.695   1.216
16744W        W87344  37.986  40.908   0.716
16745W        W87345  37.984  23.100  11.213
16746W        W87346  16.182  22.257   4.502
16747W        W87347  37.067  39.562   0.844
16748W        W87348  10.852  44.052   4.895
16749W        W87349  28.811  16.755  11.951
16750W        W87350  36.357  35.399   4.131
16751W        W87351  22.314  43.400  12.748
16752W        W87352  44.541  12.816   3.438
16753W        W87353   9.817  21.018   0.970
16754W        W87354  12.372  16.228  11.348
16755W        W87355   8.339  43.354  12.503
16756W        W87356  16.106  14.365   2.397
16757W        W87357  22.658  27.359  14.053
16758W        W87358  43.291   0.807  13.840
16759W        W87359  29.935  20.591  11.383
16760W        W87360  12.190  40.565  11.062
16761W        W87361  39.620  10.844   2.797
16762W        W87362  43.716  22.321  14.524
16763W        W87363  10.595  25.114   5.364
16764W        W87364  41.025  42.445   2.075
16765W        W87365  33.221  32.884  14.876
16766W        W87366  16.124  34.590   0.651
16767W        W87367  42.395  42.833   3.657
16768W        W87368  43.222  20.103  13.359
16769W        W87369  42.003   3.159  14.074
16770W        W87370   7.296   8.636   3.302
16771W        W87371  13.249  12.704  13.243
16772W        W87372  16.191   7.499  11.258
16773W        W87373   9.740  32.029   3.509
16774W        W87374   3.266  37.874   0.326
16775W        W87375   9.763  43.466   2.140
16776W        W87376   3.415  33.043  11.096
16777W        W87377  15.410  17.878   1.146
16778W        W87378  21.094  36.276  13.098
16779W        W87379  16.800  17.103  11.498
16780W        W87380  37.509  42.980   1.039
16781W        W87381  19.688  39.294  14.073
16782W        W87382  16.636  29.376   9.972
16783W        W87383  22.701   1.725   2.147
16784W        W87384  19.070  30.391  11.621
16785W        W87385  23.983  39.814   1.932
16786W        W87386  27.422  40.248   2.756
16787W        W87387   5.990   3.041  11.946
16788W        W87388  22.300  28.709   2.889
16789W        W87389  41.364  29.155   3.235
16790W        W87390  14.269  12.980   0.142
16791W        W87391  26.698  17.587   2.327
16792W        W87392  15.787  22.576  11.104
16793W        W87393  35.126  17.852   4.082
16794W        W87394  42.896  25.969  12.444
16795W        W87395  37.077  31.935  11.742
16796W        W87396  35.579  28.159  13.331
16797W        W87397  25.040   2.329   1.699
16798W        W87398  32.484  37.318  14.864
16799W        W87399  30.498  20.707   0.964
16800W        W87400  40.796  44.537  14.345
16801W        W87401  38.397  29.149  11.736
16802W        W87402  27.155   3.946   4.332
16803W        W87403  43.725  32.351   2.263
16804W        W87404  27.714  17.688  11.289
16805W        W87405   3.398   5.406   2.785
16806W        W87406   6.789  36.376   4.351
16807W        W87407  14.107   4.806   4.116
16808W        W87408   6.811   8.374   3.189
16809W        W87409   2.027  15.122   2.782
16810W        W87410   8.692  40.757   5.190
16811W        W87411  21.676  43.451   5.425
16812W        W87412  44.489   9.152  11.016
16813W        W87413  36.331  44.490  11.454
16814W        W87414  39.587  26.504  14.719
16815W        W87415  13.570  41.293  12.944
16816W        W87416   0.351   6.527   0.905
16817W        W87417  22.247  28.160  11.185
16818W        W87418  28.439  25.727   1.402
16819W        W87419   3.928  40.309  13.904
16820W        W87420  30.586  13.110  14.431
16821W        W87421  14.083  36.086   2.592
16822W        W87422   4.872  19.078   4.589
16823W        W87423  35.565  33.353   0.914
16824W        W87424  42.862   6.966   0.363
16825W        W87425  27.396  34.562   1.360
16826W        W87426   4.408  11.056  11.973
16827W        W87427   7.907  39.010  14.379
16828W        W87428  35.290  34.717   0.803
16829W        W87429  23.516  16.823  13.917
16830W        W87430   5.893  29.593   3.139
16831W        W87431  33.704  15.232   4.072
16832W        W87432  38.914  44.563  12.441
16833W        W87433  42.927  12.354   2.882
16834W        W87434  32.204  25.455  13.027
16835W        W87435  17.029  22.563  13.693
16836W        W87436  21.491   3.567  11.131
16837W        W87437  42.372   3.450   2.912
16838W        W87438  36.974  24.239   2.149
16839W        W87439  28.712  38.804  14.893
16840W        W87440  38.464   9.635  13.736
16841W        W87441  30.970  20.854   0.286
16842W        W87442  10.804   9.614  11.156
16843W        W87443   6.884  22.626  11.750
16844W        W87444  12.302  33.593  12.548
16845W        W87445  38.814  26.844  14.476
16846W        W87446  31.619  37.494  12.469
16847W        W87447   2.036  35.896   0.838
16848W        W87448  11.270  20.089  14.406
16849W        W87449  20.915  20.654  13.364
16850W        W87450  31.135  43.523  12.737
16851W        W87451  20.027  40.437   2.669
16852W        W87452  37.982   7.655  13.597
16853W        W87453  14.895  20.630  13.331
16854W        W87454  19.753   4.455   4.281
16855W        W87455  33.500  42.845  10.847
16856W        W87456  21.655  17.692   3.109
16857W        W87457  15.622  19.692   3.352
16858W        W87458  28.227  34.746   4.195
16859W        W87459  29.863  12.184  11.432
16860W        W87460  16.085   0.777  12.841
16861W        W87461   9.291  37.810  11.635
16862W        W87462  13.809  30.430  11.108
16863W        W87463  18.299  39.643   0.172
16864W        W87464  41.528   2.535   2.682
16865W        W87465  25.647  10.564  12.798
16866W        W87466  27.868  28.708  12.940
16867W        W87467   2.474  18.199  11.482
16868W        W87468  22.997   5.736   3.123
16869W        W87469   3.287  34.407   1.744
16870W        W87470  30.515  16.080   1.390
16871W        W87471  19.504  18.684   1.410
16872W        W87472  14.660   4.417  13.453
16873W        W87473  33.492   2.271  13.438
16874W        W87474  23.403  38.457  13.061
16875W        W87475  13.688   4.192   4.549
16876W        W87476   4.385   1.717   2.330
16877W        W87477  39.782  17.587  14.345
16878W        W87478  44.069   4.090  11.743
16879W        W87479  32.002  27.395   3.597
16880W        W87480   7.335  17.987  12.790
16881W        W87481   7.758   5.044   4.661
16882W        W87482  16.409  29.902   3.800
16883W        W87483  36.127   4.358   4.304
16884W        W87484  18.009  13.370   0.728
16885W        W87485  29.184  32.275   3.710
16886W        W87486  10.688  10.350  14.367
16887W        W87487   2.779  14.530  13.551
16888W        W87488  44.426  32.568   5.181
16889W        W87489  44.580   2.827  10.144
16890W        W87490  15.954  24.477   3.215
16891W        W87491  37.905   4.001  12.561
16892W        W87492  29.854   3.874   1.097
16893W        W87493  40.795  22.817   2.834
16894W        W87494  26.163  23.325  13.495
16895W        W87495  15.070  20.494   1.184
16896W        W87496  13.648  29.462   2.938
16897W        W87497  10.766   3.750   2.341
16898W        W87498  11.582   1.709   2.038
16899W        W87499  11.159  24.230  13.935
16900W        W87500  14.038  23.070   0.365
16901W        W87501  44.557  43.298  13.057
16902W        W87502  20.722  10.259   1.877
16903W        W87503   4.833  43.005   1.978
16904W        W87504  31.013  12.054  10.792
16905W        W87505  29.452  33.405   0.760
16906W        W87506  18.388  32.947  14.583
16907W        W87507  16.034  10.417   0.520
16908W        W87508  13.184  36.207  12.861
16909W        W87509  31.089  38.567  12.931
16910W        W87510  14.023  30.850  14.873
16911W        W87511  12.370  15.726  10.261
16912W        W87512  32.129  13.826  11.074
16913W        W87513  23.808   7.945  14.601
16914W        W87514  43.255  44.363   0.322
16915W        W87515  31.441   2.036   4.143
16916W        W87516  14.844  37.139   1.309
16917W        W87517  25.145  30.635  13.412
16918W        W87518  30.148  27.662   2.263
16919W        W87519  24.869  18.584   0.012
16920W        W87520  15.056  21.132  12.146
16921W        W87521   0.302  37.578  14.905
16922W        W87522  14.651  35.837  10.575
16923W        W87523   0.370  42.404  12.464
16924W        W87524   5.714  36.570  11.602
16925W        W87525  42.531  43.974  14.422
16926W        W87526  27.678  12.590   1.708
16927W        W87527  26.735  19.048   0.910
16928W        W87528   2.773  37.418   2.313
16929W        W87529  43.972  27.882   2.150
16930W        W87530  17.086  29.021  14.490
16931W        W87531  15.354   0.859   3.546
16932W        W87532   1.773   4.533  11.127
16933W        W87533  13.384  43.915   0.218
16934W        W87534  18.541  24.401   0.150
16935W        W87535   8.713   9.883  12.742
16936W        W87536  41.082  38.026   0.718
16937W        W87537  21.756   7.823   2.955
16938W        W87538  21.297  30.889   2.299
16939W        W87539  37.428  24.546   2.414
16940W        W87540  12.243  42.960   3.162
16941W        W87541   6.482  41.723   1.844
16942W        W87542  42.359  27.730  14.428
16943W        W87543  25.043  17.230   2.563
16944W        W87544  23.166   1.181  11.143
16945W        W87545  24.473   7.588   0.890
16946W        W87546   1.058  13.806   1.973
16947W        W87547   4.945  10.819   4.289
16948W        W87548  31.349  13.297  12.012
16949W        W87549  11.019   2.660   0.038
16950W        W87550   5.404  41.421   1.191
16951W        W87551  17.716  10.712  14.420
16952W        W87552  42.446  13.091  11.630
16953W        W87553   9.292  30.686   4.599
16954W        W87554   9.342  39.755  11.559
16955W        W87555   3.422   6.364   2.620
16956W        W87556  41.629   1.025  14.448
16957W        W87557  17.395   6.758  14.401
16958W        W87558  36.405  34.850   3.306
16959W        W87559  21.495  27.527   1.755
16960W        W87560  28.533  15.090  11.823
16961W        W87561  37.142  41.463   0.591
16962W        W87562  20.177   8.680   2.797
16963W        W87563  16.294  27.838  10.409
16964W        W87564  34.392  30.977   4.278
16965W        W87565  43.823  11.974  12.603
16966W        W87566  11.706   8.046  14.584
16967W        W87567  13.550  30.073   2.467
16968W        W87568  36.264   8.830  13.912
16969W        W87569  33.327   9.854  13.819
16970W        W87570   7.029  35.547  10.728
16971W        W87571   3.438   3.894   4.530
16972W        W87572  33.115  25.760  14.056
16973W        W87573   6.892   4.914   0.830
16974W        W87574  33.911   8.696  10.773
16975W        W87575  31.061  24.956   3.719
16976W        W87576  43.547  30.212  13.371
16977W        W87577  42.542  18.078  10.684
16978W        W87578  44.553   5.693   1.930
16979W        W87579  39.865   3.703   1.734
16980W        W87580  40.263   7.247  10.935
16981W        W87581  20.286   3.817  13.540
16982W        W87582  19.161  43.539   1.900
16983W        W87583  24.539  42.760   0.480
16984W        W87584  13.252  21.199   1.793
16985W        W87585  44.768  29.300  10.846
16986W        W87586  42.389  14.614  12.625
16987W        W87587  33.057  34.934   0.017
16988W        W87588  16.108  30.144   4.153
16989W        W87589  36.891   1.449  14.139
16990W        W87590  41.777   0.749   0.197
16991W        W87591  19.713  44.420   3.797
16992W        W87592   7.971  19.689   1.202
16993W        W87593  21.140   0.083  11.647
16994W        W87594  25.776  36.113  13.804
16995W        W87595   5.254  14.449   2.803
16996W        W87596   4.772  18.309   0.349
16997W        W87597   0.926   4.818  13.256
16998W        W87598  26.741  35.612   4.543
16999W        W87599   7.071   8.011  12.086
17000W        W87600  16.678   3.925   4.032
17001W        W87601  37.182  44.216   1.778
17002W        W87602  10.174  42.477   3.644
17003W        W87603  16.641  21.275   4.591
17004W        W87604  26.620   7.944  10.554
17005W        W87605  30.857   4.369  11.106
17006W        W87606  11.231  25.577   1.119
17007W        W87607   0.979  22.020   0.513
17008W        W87608  39.522   4.439   0.752
17009W        W87609  23.082   3.207  10.796
17010W        W87610  25.061  32.372   4.500
17011W        W87611  41.151  25.768   0.992
17012W        W87612  38.294  15.123  13.893
17013W        W87613  27.112  21.122   4.050
17014W        W87614   7.939   4.467  10.495
17015W        W87615  11.391  21.393  13.076
17016W        W87616  18.157  23.533   2.111
17017W        W87617  21.111  32.113   3.463
17018W        W87618  22.491   1.381   5.026
17019W        W87619  15.367  39.425  14.806
17020W        W87620  30.408   0.279  12.494
17021W        W87621  19.247  15.331   0.851
17022W        W87622  12.737  15.575  11.992
17023W        W87623   4.802  37.338  13.839
17024W        W87624  25.029  44.100  13.267
17025W        W87625  21.714  38.515   1.467
17026W        W87626  34.324  39.437  11.982
17027W        W87627  34.628  12.102  11.152
17028W        W87628  43.112  25.087   0.009
17029W        W87629   0.478  39.260   9.964
17030W        W87630  24.275  36.133   5.050
17031W        W87631  30.614  39.336   2.247
17032W        W87632  25.140  32.119   4.979
17033W        W87633  34.169   7.674  12.482
17034W        W87634  42.987  38.881  10.673
17035W        W87635  21.224  41.062   2.378
17036W        W87636  42.719  13.328   1.359
17037W        W87637  35.879  26.067  14.516
17038W        W87638  27.026   6.676  10.654
17039W        W87639  36.405  11.093   0.060
17040W        W87640  25.898  33.067   3.154
17041W        W87641   2.355  12.346   5.019
17042W        W87642   0.778  37.788  14.815
17043W        W87643  34.048  23.988  13.492
17044W        W87644  24.669  28.355  14.225
17045W        W87645  40.920  14.629  10.854
17046W        W87646  32.999  24.265   2.685
17047W        W87647  37.606  17.166   3.747
17048W        W87648  43.412  14.353   4.952
17049W        W87649  37.390  15.789   2.610
17050W        W87650  20.424   6.127   0.417
17051W        W87651  44.332   8.744  11.737
17052W        W87652   9.660  17.752   2.191
17053W        W87653   8.022  31.130  14.768
17054W        W87654  30.026   4.375  12.523
17055W        W87655  29.513  35.464  13.821
17056W        W87656   5.810  28.728  10.932
17057W        W87657  36.523  30.544   4.155
17058W        W87658  39.448  29.978   4.934
17059W        W87659  35.062  20.636   3.545
17060W        W87660  26.156  42.094   0.824
17061W        W87661  38.884  22.307  12.281
17062W        W87662  38.437  39.651   0.379
17063W        W87663  11.891   2.072  10.074
17064W        W87664  42.542  38.038  14.418
17065W        W87665  27.897   2.403  14.470
17066W        W87666   2.488  22.211   3.859
17067W        W87667  13.241   3.746  13.448
17068W        W87668  16.957  42.006   3.184
17069W        W87669  42.516  21.088  13.137
17070W        W87670   9.914  38.781  13.143
17071W        W87671   0.269  32.183   4.786
17072W        W87672  36.774  28.868  13.993
17073W        W87673  22.068  36.150   4.557
17074W        W87674  42.469   4.225   9.907
17075W        W87675  11.214  19.740   4.856
17076W        W87676  27.347  30.414   4.420
17077W        W87677   0.863  10.125   1.919
17078W        W87678  29.993   6.642   0.090
17079W        W87679  22.133   0.316   2.252
17080W        W87680   8.284  44.763   4.347
17081W        W87681  33.042  40.946   3.284
17082W        W87682  17.301  44.237   2.728
17083W        W87683  22.954  36.075  13.633
17084W        W87684  14.649   6.146  14.057
17085W        W87685   8.352  27.148   3.699
17086W        W87686  19.956  28.978   3.219
17087W        W87687  34.661  29.917   0.119
17088W        W87688  37.208   0.204   9.912
17089W        W87689  29.199  13.611  11.724
17090W        W87690  32.949   2.099  14.426
17091W        W87691   1.207  15.235   2.409
17092W        W87692  12.715   0.786  12.353
17093W        W87693   6.637  15.683  13.745
17094W        W87694  38.869  10.626  10.617
17095W        W87695  23.183  28.297  11.843
17096W        W87696  23.189  10.429  12.082
17097W        W87697  10.567  19.063  11.851
17098W        W87698  35.321   4.782   4.662
17099W        W87699   6.128  40.339  11.382
17100W        W87700  15.499  21.684   1.905
17101W        W87701  11.786  43.927  11.897
17102W        W87702  38.788  14.676  13.462
17103W        W87703   9.757  43.507  10.724
17104W        W87704  14.416  16.242   4.455
17105W        W87705   2.819  39.733  12.891
17106W        W87706   2.335  14.605   2.017
17107W        W87707  21.573  35.452   0.965
17108W        W87708  43.805  18.351  14.374
17109W        W87709  21.345  11.890   1.670
17110W        W87710  34.061  16.856  12.746
17111W        W87711  21.042  19.554   3.938
17112W        W87712  39.283  23.829   4.194
17113W        W87713  17.487   0.282  11.828
17114W        W87714  39.551  19.120  11.551
17115W        W87715  17.119  19.102   3.677
17116W        W87716  14.132  20.756  11.882
17117W        W87717  28.969   8.848  10.812
17118W        W87718  28.253  25.856  13.508
17119W        W87719  21.063  10.418  13.451
17120W        W87720   9.293  26.541   4.946
17121W        W87721  34.503   6.956  11.882
17122W        W87722  40.896  39.601   2.608
17123W        W87723  18.278  35.614  13.881
17124W        W87724  39.960  26.756  13.373
17125W        W87725  41.419  33.389   1.197
17126W        W87726  42.861  39.785  12.091
17127W        W87727   1.194  34.380  12.457
17128W        W87728  15.185   2.426  13.094
17129W        W87729  34.078  15.707   4.192
17130W        W87730  11.971  14.272   0.714
17131W        W87731  37.770  43.329   3.677
17132W        W87732  39.744  33.567  14.832
17133W        W87733  29.444  38.327   3.132
17134W        W87734  30.544   4.966  14.749
17135W        W87735  22.789  32.620  12.674
17136W        W87736  27.247   0.484  13.428
17137W        W87737  42.837  42.848  10.737
17138W        W87738  14.174   9.126  13.470
17139W        W87739  26.127  21.483  12.454
17140W        W87740  18.596   3.778  11.207
17141W        W87741  37.994  12.710   3.364
17142W        W87742   8.257   8.908   0.425
17143W        W87743   6.308  16.300   3.141
17144W        W87744  25.355  21.284  13.419
17145W        W87745  14.164  24.070   1.035
17146W        W87746  17.163  11.660   0.833
17147W        W87747   2.936   0.187  14.353
17148W        W87748   6.277  28.444   0.462
17149W        W87749  37.051  18.144  13.333
17150W        W87750  23.901  23.981   1.690
17151W        W87751   8.047   9.092  11.136
17152W        W87752  30.820  44.998   3.221
17153W        W87753  22.599  12.745  10.162
17154W        W87754  25.453  10.762   2.640
17155W        W87755  11.347   7.079  13.694
17156W        W87756  44.093  37.923  11.947
17157W        W87757  10.574  33.879   1.552
17158W        W87758   7.798  31.538   4.367
17159W        W87759   7.782  38.265   4.383
17160W        W87760  20.043  10.385  10.663
17161W        W87761  41.432   5.561   4.040
17162W        W87762  36.887  28.600  12.460
17163W        W87763  21.054  30.330   2.816
17164W        W87764  17.669  10.352  12.491
17165W        W87765  10.761  43.243  11.702
17166W        W87766  35.920  43.893   1.319
17167W        W87767   4.742   4.767   2.663
17168W        W87768  35.569  13.219   4.516
17169W        W87769  16.795  23.483  11.656
17170W        W87770   4.745  29.902   2.755
17171W        W87771   2.393   2.862  12.810
17172W        W87772  40.987  18.668  14.984
17173W        W87773  25.655  33.454   1.928
17174W        W87774   8.896  40.890   1.948
17175W        W87775  35.596  35.138  12.972
17176W        W87776  33.787  32.140   1.016
17177W        W87777  23.077  13.107   4.495
17178W        W87778  16.688  14.746  11.531
17179W        W87779  42.490  31.211  14.256
17180W        W87780  20.401   3.901   1.545
17181W        W87781  32.050  30.178   1.163
17182W        W87782  27.144   9.936   4.567
17183W        W87783   7.944  11.877  11.616
17184W        W87784   7.785   7.893   3.840
17185W        W87785  29.967  21.981   2.980
17186W        W87786  35.038  39.064  12.776
17187W        W87787   6.961  31.649   0.687
17188W        W87788  27.484  21.796   2.837
17189W        W87789  13.606  13.280  14.714
17190W        W87790  38.321  19.306   2.856
17191W        W87791  15.811  13.015  12.428
17192W        W87792   5.676   4.956   4.130
17193W        W87793  31.906  11.089   2.683
17194W        W87794  37.117   4.340   3.844
17195W        W87795  14.824   7.262  13.791
17196W        W87796   9.713  29.443   0.292
17197W        W87797  31.910   1.773   4.205
17198W        W87798  15.171  38.547   3.345
17199W        W87799  12.072  23.200   2.294
17200W        W87800   0.209   6.443  12.361
17201W        W87801  32.962   4.580   2.433
17202W        W87802  29.483   9.116  12.579
17203W        W87803  40.429  30.402   4.957
17204W        W87804  21.140  35.464  12.559
17205W        W87805  29.174  34.071   4.660
17206W        W87806  11.564  17.035   4.274
17207W        W87807  19.060   1.242   4.522
17208W        W87808  28.962  21.177  10.580
17209W        W87809   7.475   3.521   2.213
17210W        W87810   9.299  39.352  14.719
17211W        W87811  24.219  28.495   1.918
17212W        W87812  22.217  35.599  11.507
17213W        W87813   0.855  23.383  11.855
17214W        W87814  16.601  35.932  11.978
17215W        W87815   4.284  34.562   3.609
17216W        W87816  17.310   6.727  12.407
17217W        W87817  16.578  28.093  13.531
17218W        W87818  19.642  36.894  12.961
17219W        W87819   0.302  15.617   4.581
17220W        W87820  15.299   8.426  12.049
17221W        W87821  43.946   3.881  13.733
17222W        W87822  42.520  38.529  13.045
17223W        W87823  32.655  14.873  13.964
17224W        W87824  26.546   9.470   2.088
17225W        W87825   6.370  34.109   0.653
17226W        W87826   7.922  13.409  14.837
17227W        W87827  10.219  16.132   3.849
17228W        W87828  41.798   5.531   3.114
17229W        W87829  13.168  19.572  10.399
17230W        W87830   7.434   5.286  11.890
17231W        W87831  13.391  16.604   4.179
17232W        W87832  16.692   3.764  11.622
17233W        W87833  16.789   1.952   0.313
17234W        W87834  17.792  16.671  10.318
17235W        W87835  23.126  19.224   2.707
17236W        W87836  31.129   4.543   2.864
17237W        W87837   0.918  34.905   3.241
17238W        W87838  33.656  29.067  11.290
17239W        W87839   3.421  40.361  13.767
17240W        W87840  31.952   3.346   1.240
17241W        W87841   5.422  42.825   3.672
17242W        W87842  11.139  18.634  10.677
17243W        W87843  21.541  36.911  12.833
17244W        W87844  19.375  34.437  14.951
17245W        W87845  11.887  32.912  14.439
17246W        W87846  27.551  14.305   3.668
17247W        W87847  41.957   7.889  12.132
17248W        W87848   0.349   9.997  14.257
17249W        W87849  32.841  17.669   3.763
17250W        W87850  30.855  25.304  13.852
17251W        W87851   2.845  29.416   1.643
17252W        W87852  42.442  10.161   1.723
17253W        W87853  17.638  33.547  11.114
17254W        W87854  15.265  37.314   4.673
17255W        W87855  35.897  13.420  11.554
17256W        W87856   6.129  42.219  13.933
17257W        W87857  12.865  44.819   0.007
17258W        W87858  44.186  31.979  13.320
17259W        W87859  30.367  15.304  10.675
17260W        W87860  34.789  18.988  14.298
17261W        W87861  30.691  16.177   3.386
17262W        W87862  38.913  39.775  11.799
17263W        W87863  22.074  27.998  14.402
17264W        W87864  26.824  17.338  11.175
17265W        W87865  13.089  18.160   1.400
17266W        W87866   2.782  42.529  11.058
17267W        W87867  30.903   8.871  12.574
17268W        W87868  10.469  34.672  13.883
17269W        W87869   0.759   9.882   2.404
17270W        W87870  34.776  14.659   2.229
17271W        W87871   5.845  41.812  13.691
17272W        W87872  11.887  33.913   1.953
17273W        W87873   6.478   2.969   0.126
17274W        W87874  14.318  40.823   0.822
17275W        W87875  40.773   8.953   1.915
17276W        W87876  32.160  27.567  12.197
17277W        W87877  35.407  29.510  14.231
17278W        W87878  20.765   3.007   0.984
17279W        W87879  33.816   0.014   4.569
17280W        W87880   4.904  16.244  14.322
17281W        W87881  13.363  13.599  14.394
17282W        W87882  25.685  30.979   4.432
17283W        W87883  12.640  26.250   1.886
17284W        W87884  38.873  25.646  10.630
17285W        W87885   2.603  44.760  13.015
17286W        W87886  22.543  40.937  13.821
17287W        W87887  39.428  31.694   0.934
17288W        W87888   5.706  37.798  11.106
17289W        W87889  42.256  12.198   2.440
17290W        W87890  14.108   2.764   1.718
17291W        W87891  20.321  40.860  14.552
17292W        W87892  42.498  12.195  11.440
17293W        W87893   8.688  13.944   0.404
17294W        W87894   7.852  36.940  12.871
17295W        W87895  30.495  31.428   0.994
17296W        W87896  18.057  36.573   4.400
17297W        W87897  38.226   9.738   1.848
17298W        W87898  29.105  23.817  13.386
17299W        W87899  27.381   5.751  13.074
17300W        W87900  14.403  33.922  10.810
17301W        W87901  31.930  13.114  13.240
17302W        W87902  27.049  42.632   4.605
17303W        W87903   8.358   5.614   3.182
17304W        W87904  15.949  44.040   2.755
17305W        W87905  13.321   6.825  14.828
17306W        W87906  16.548  36.612   1.816
17307W        W87907  10.166   9.054  14.343
17308W        W87908  41.828  29.338  13.525
17309W        W87909  16.281   8.940  10.998
17310W        W87910  16.376  16.065   0.808
17311W        W87911  44.819  34.636   2.771
17312W        W87912  21.222   2.984   4.363
17313W        W87913  40.951  41.941   2.210
17314W        W87914   8.868   7.923  11.499
17315W        W87915   0.531  16.732  12.974
17316W        W87916  26.067   0.892  13.164
17317W        W87917  12.784  23.692   5.064
17318W        W87918   3.803  34.078   0.985
17319W        W87919   4.086   1.960  11.171
17320W        W87920   9.381  19.218   3.340
17321W        W87921  15.376  40.284   0.349
17322W        W87922   3.852  14.243   2.726
17323W        W87923  44.733  13.293   3.599
17324W        W87924  17.408  44.125   3.661
17325W        W87925  16.192   1.053   1.263
17326W        W87926  11.617  19.319   1.487
17327W        W87927  31.623  33.591   4.112
17328W        W87928  38.841  26.639  11.803
17329W        W87929  31.407  28.996   0.933
17330W        W87930   8.665  35.651  12.084
17331W        W87931  14.449   6.727  12.319
17332W        W87932  20.724  13.615   3.406
17333W        W87933  42.942  32.144   4.092
17334W        W87934   1.411  44.316  10.650
17335W        W87935  37.560  28.205  12.806
17336W        W87936  20.513  28.514   1.670
17337W        W87937  30.667   4.243   1.685
17338W        W87938   5.134   5.625  12.113
17339W        W87939  20.456  33.533   3.835
17340W        W87940  33.507  14.105   0.604
17341W        W87941  13.987  29.548   4.253
17342W        W87942  34.081  27.174   4.077
17343W        W87943  33.093  17.606   4.267
17344W        W87944  25.905  44.684   0.403
17345W        W87945  19.766   7.260  11.769
17346W        W87946  31.114  17.336   0.046
17347W        W87947  14.444  37.514  11.580
17348W        W87948  23.629  19.070   2.382
17349W        W87949   1.982  10.380   5.003
17350W        W87950   1.248  33.643   9.880
17351W        W87951  28.644  35.377  11.169
17352W        W87952   7.989   2.719   2.878
17353W        W87953  27.114  42.369   2.199
17354W        W87954  30.188  11.602   2.758
17355W        W87955  42.451  22.047   2.010
17356W        W87956  22.600  25.126   0.365
17357W        W87957  20.027  41.521   4.281
17358W        W87958  23.164  20.906   2.820
17359W        W87959  27.107   9.420   4.385
17360W        W87960   0.943  37.502   1.327
17361W        W87961  30.480  30.934   3.286
17362W        W87962  24.705   5.724   0.222
17363W        W87963   4.993   1.828   1.755
17364W        W87964   5.707  38.081  11.531
17365W        W87965  24.397  12.786   4.383
17366W        W87966  13.010  34.484   1.723
17367W        W87967  22.029  14.540   4.712
17368W        W87968   7.013   3.781   2.170
17369W        W87969   2.353   2.991   1.393
17370W        W87970   6.800  34.032  12.415
17371W        W87971  43.710  17.276  10.765
17372W        W87972  23.530   5.430  10.817
17373W        W87973  38.866  22.599  11.872
17374W        W87974  16.693  37.427   0.167
17375W        W87975   4.343   5.011   4.689
17376W        W87976  17.495  16.631  11.781
17377W        W87977   9.791   7.288  13.994
17378W        W87978  21.120  16.695   4.578
17379W        W87979  42.378  20.104  13.604
17380W        W87980   6.521   7.796   4.567
17381W        W87981  36.875   2.667   3.308
17382W        W87982  19.238  28.546   0.768
17383W        W87983   7.658  32.308   0.773
17384W        W87984  28.600  20.037   1.209
17385W        W87985  24.788  38.147  14.469
17386W        W87986  33.056  14.428   4.796
17387W        W87987  31.961  19.779   4.103
17388W        W87988  27.312  39.925   4.696
17389W        W87989   7.298  12.825  11.372
17390W        W87990  21.656  11.252  14.366
17391W        W87991  25.574  44.690  13.784
17392W        W87992  12.548   1.424   0.832
17393W        W87993  33.995   4.578   4.809
17394W        W87994   6.359  21.763  12.542
17395W        W87995  30.280  22.384   0.470
17396W        W87996  22.032  18.036   2.887
17397W        W87997   2.782   2.660  13.372
17398W        W87998  25.668  30.080  14.960
17399W        W87999  19.028  24.645  12.853
17400W        W88000   1.783  37.040  11.436
17401W        W88001   5.775  39.303   3.357
17402W        W88002  33.720   2.500  12.199
17403W        W88003  41.797   5.905   1.897
17404W        W88004  23.004   3.024   0.047
17405W        W88005  28.424  26.054  10.396
17406W        W88006   5.507  21.548  10.722
17407W        W88007   3.586  27.954   3.312
17408W        W88008  40.384  11.625   4.101
17409W        W88009  40.273  22.217   0.519
17410W        W88010  23.754  37.317   0.450
17411W        W88011  22.205  33.770  12.045
17412W        W88012   3.065  35.394   0.255
17413W        W88013  34.496   7.836   4.071
17414W        W88014  18.614  24.910  10.702
17415W        W88015   1.335  22.655   1.071
17416W        W88016  32.512   6.557   1.782
17417W        W88017  42.554   0.807   4.336
17418W        W88018  43.414   0.924  12.866
17419W        W88019  20.538  20.134  14.974
17420W        W88020  35.048  33.039   2.273
17421W        W88021  34.523  33.995   3.765
17422W        W88022  28.946  41.992  13.788
17423W        W88023   7.517   8.685  13.927
17424W        W88024  15.870  36.942   4.228
17425W        W88025  23.507  41.856   4.481
17426W        W88026  30.670  23.152  13.597
17427W        W88027  18.643  18.988   4.241
17428W        W88028  36.598  43.047  14.257
17429W        W88029  23.508  22.848  12.086
17430W        W88030  11.906   0.912   1.945
17431W        W88031  30.708  25.129  14.995
17432W        W88032  10.181  10.425   3.678
17433W        W88033   7.109   5.340  10.371
17434W        W88034  36.684  16.746  13.781
17435W        W88035  11.461  40.636  13.521
17436W        W88036   3.364  35.244   9.934
17437W        W88037  13.887  28.202   2.282
17438W        W88038  13.355  39.030   2.814
17439W        W88039  31.055  42.778   3.739
17440W        W88040  32.601  13.704  12.404
17441W        W88041  39.247  31.635  10.718
17442W        W88042  10.686  37.439  12.016
17443W        W88043   0.230  11.131  12.381
17444W        W88044   9.016  23.023  10.474
17445W        W88045   7.742  18.796   1.320
17446W        W88046  36.307  20.994  14.733
17447W        W88047  12.721  22.505   3.202
17448W        W88048  15.724  18.089   0.209
17449W        W88049  35.034  28.580   4.161
17450W        W88050  34.758  39.483  11.155
17451W        W88051  22.729  26.585   4.262
17452W        W88052  31.307   1.192   4.585
17453W        W88053   8.719  30.037   5.079
17454W        W88054  33.493  34.084   3.940
17455W        W88055   3.273  29.579   0.330
17456W        W88056  32.978  16.661   4.180
17457W        W88057   0.188  42.258   3.616
17458W        W88058   1.749   8.154   3.197
17459W        W88059  22.477  36.402  11.203
17460W        W88060  24.745  26.848   2.383
17461W        W88061  40.007  19.497  13.526
17462W        W88062  18.153  40.505   2.906
17463W        W88063  14.573  36.812  10.902
17464W        W88064  14.777  18.282  13.508
17465W        W88065  41.380  23.182  14.961
17466W        W88066  35.022  35.297  11.158
17467W        W88067   1.935  20.964  12.990
17468W        W88068   1.017  21.050   4.708
17469W        W88069  36.258  10.064   4.020
17470W        W88070  13.176   1.919   2.334
17471W        W88071   2.915  25.769  12.794
17472W        W88072  17.746  21.067   0.486
17473W        W88073  21.482  25.033  14.706
17474W        W88074  29.677  27.954   4.192
17475W        W88075  13.893  39.692   3.134
17476W        W88076   8.404  38.062   1.153
17477W        W88077  25.262  19.325   0.896
17478W        W88078  19.066  26.889   1.252
17479W        W88079  41.604  33.464   4.977
17480W        W88080  16.603  38.894   2.091
17481W        W88081  38.408   2.398   0.534
17482W        W88082  11.181  18.725   0.829
17483W        W88083  32.401  34.042  11.839
17484W        W88084  12.570  22.520  10.761
17485W        W88085  24.159  34.111  13.005
17486W        W88086  29.157  23.549   3.009
17487W        W88087  37.562   9.214   2.271
17488W        W88088  41.482   1.896  11.626
17489W        W88089  23.193  34.488  14.347
17490W        W88090  22.741   4.742  14.472
17491W        W88091  38.648  35.418  10.667
17492W        W88092  37.376   9.858   2.189
17493W        W88093  11.738  10.629   4.880
17494W        W88094  11.986   0.882  10.729
17495W        W88095  14.809  23.924   3.750
17496W        W88096  44.269  27.866   4.769
17497W        W88097  11.657   2.183   1.438
17498W        W88098  42.968  23.626   0.008
17499W        W88099  44.227   9.707  12.570
17500W        W88100  38.377  22.102   2.392
17501W        W88101  35.563  33.662  14.489
17502W        W88102  22.469   5.310   0.720
17503W        W88103  35.584  15.134  12.902
17504W        W88104  27.609  27.539   4.793
17505W        W88105  32.165  42.457  12.535
17506W        W88106  34.443  27.102  12.100
17507W        W88107  33.997  29.459   4.910
17508W        W88108   5.628  38.366   1.272
17509W        W88109  39.783  20.738  12.964
17510W        W88110  23.160  37.742   4.378
17511W        W88111  15.711  10.316   3.684
17512W        W88112  32.339  23.255  11.905
17513W        W88113   1.872  37.102  10.426
17514W        W88114  39.079  11.650   0.030
17515W        W88115  15.611  12.249  13.023
17516W        W88116   4.292   0.514  13.269
17517W        W88117  20.424  40.885  13.611
17518W        W88118  31.408  36.569  14.899
17519W        W88119  26.221  39.983   0.867
17520W        W88120  10.539  34.117   3.685
17521W        W88121  19.524   5.178   0.272
17522W        W88122   7.094  42.382  10.740
17523W        W88123  43.337  29.735  14.069
17524W        W88124  42.708  12.854   3.861
17525W        W88125  30.892  29.639  13.470
17526W        W88126  28.671  27.616   4.594
17527W        W88127   3.748  39.433  13.959
17528W        W88128  27.503   1.897  11.360
17529W        W88129  11.099  28.709  14.835
17530W        W88130  14.642  20.747   2.890
17531W        W88131   0.018  41.418  14.869
17532W        W88132  20.031  33.901  12.627
17533W        W88133   8.248  22.015   1.314
17534W        W88134  36.902  13.792  13.070
17535W        W88135  28.106  35.480   2.283
17536W        W88136   1.550  19.696  10.822
17537W        W88137  13.112  37.066   1.451
17538W        W88138  33.580  38.716  12.897
17539W        W88139  15.122  11.682   0.221
17540W        W88140  10.389  13.595  12.645
17541W        W88141  20.584  14.563   1.732
17542W        W88142  18.241   0.252  13.175
17543W        W88143  41.942  30.375  13.731
17544W        W88144  35.761   8.806  11.561
17545W        W88145  40.245  36.979   1.840
17546W        W88146  24.655   7.594  14.615
17547W        W88147   2.473  31.519  12.861
17548W        W88148   3.307   8.852  10.954
17549W        W88149  14.166  24.141  12.993
17550W        W88150   0.122  31.643   2.297
17551W        W88151   6.163  31.929   3.680
17552W        W88152  23.661  37.400  10.745
17553W        W88153   3.608  29.290  14.410
17554W        W88154   9.160   3.953  12.891
17555W        W88155  12.556  16.696  11.541
17556W        W88156  22.654  27.769  10.284
17557W        W88157  33.051  13.911  13.037
17558W        W88158  23.824  30.502   1.813
17559W        W88159   4.422  23.104  10.618
17560W        W88160  18.709  30.563  12.381
17561W        W88161   4.269  17.813   1.742
17562W        W88162  18.717   2.813   4.493
17563W        W88163  43.340  39.226   3.457
17564W        W88164  13.660  26.729   3.780
17565W        W88165  29.706  22.676   1.216
17566W        W88166  10.035   4.320  12.608
17567W        W88167  12.198   9.732   1.494
17568W        W88168  34.931  34.444  14.505
17569W        W88169   4.912  35.083   1.895
17570W        W88170  43.177   5.744   1.251
17571W        W88171  31.110  13.094  10.712
17572W        W88172  13.198  27.515  14.296
17573W        W88173   5.240  17.322  12.957
17574W        W88174   1.877   3.692   1.988
17575W        W88175  12.810  16.380  14.625
17576W        W88176   2.236  27.706   3.594
17577W        W88177  25.924  19.747  14.960
17578W        W88178   8.158  43.065   0.246
17579W        W88179  31.886  19.598   2.215
17580W        W88180  39.409  44.488   0.731
17581W        W88181  37.523  25.937   0.685
17582W        W88182  29.657   6.351  14.106
17583W        W88183  28.027  34.519   2.788
17584W        W88184  14.191  29.938  12.535
17585W        W88185  24.892  31.881   3.612
17586W        W88186   5.803  29.574  11.857
17587W        W88187  22.698  15.031   1.867
17588W        W88188  37.345  12.706  11.308
17589W        W88189  17.274   4.969  12.087
17590W        W88190  27.985  30.663   2.109
17591W        W88191  13.221  13.121  10.935
17592W        W88192   6.102  13.085  14.668
17593W        W88193  20.195  25.531  14.355
17594W        W88194   1.224  12.888   3.711
17595W        W88195  41.970   6.804   0.896
17596W        W88196   5.875  21.212   1.834
17597W        W88197  32.396  22.068  11.614
17598W        W88198   2.764  31.021  14.934
17599W        W88199   2.689  28.073   1.666
17600W        W88200  30.011  31.862  14.496
17601W        W88201  32.435  43.391   3.147
17602W        W88202  14.256  20.015  10.627
17603W        W88203  30.087  10.721  13.959
17604W        W88204  17.580   5.708  11.046
17605W        W88205  26.506   4.228  13.370
17606W        W88206  20.732  20.215   2.907
17607W        W88207  44.406  17.332  12.906
17608W        W88208   1.984   1.372   0.819
17609W        W88209  12.758  10.791  11.898
17610W        W88210  21.982  40.152  14.433
17611W        W88211  16.066  43.435   3.659
17612W        W88212  20.516  33.901  12.487
17613W        W88213  35.727  19.467   2.934
17614W        W88214   2.297  25.950  13.512
17615W        W88215  25.003  12.307  12.049
17616W        W88216  40.695   4.980   2.246
17617W        W88217  17.317  44.367  11.018
17618W        W88218  20.503  43.007  10.609
17619W        W88219  38.246  18.186   1.679
17620W        W88220  34.386  26.521   3.677
17621W        W88221  22.153   7.462  11.224
17622W        W88222  10.837  36.594  12.036
17623W        W88223  32.452  36.008  12.607
17624W        W88224  38.351  18.278   0.254
17625W        W88225  19.798  23.405   4.901
17626W        W88226  30.551  30.693   2.824
17627W        W88227  13.241  39.450   3.692
17628W        W88228  26.048  19.620   4.718
17629W        W88229   5.811  18.066   3.313
17630W        W88230  21.600  19.611   1.178
17631W        W88231  11.266  39.955   0.795
17632W        W88232  37.580  31.495  13.002
17633W        W88233  28.667  34.533   0.526
17634W        W88234  22.471  37.961  13.318
17635W        W88235  36.810  35.867  12.449
17636W        W88236  38.613  17.202   1.186
17637W        W88237  20.292  21.957  14.798
17638W        W88238  36.435   3.836   0.491
17639W        W88239   8.768  26.404   0.497
17640W        W88240   8.988  15.512  10.749
17641W        W88241  17.803  39.289   1.434
17642W        W88242  40.815  42.799  11.185
17643W        W88243  15.749   2.974  13.351
17644W        W88244  16.660   7.202   2.970
17645W        W88245  32.182   1.695  11.019
17646W        W88246   2.493  34.045   0.368
17647W        W88247  20.313  42.239   2.982
17648W        W88248  14.651  44.050  14.409
17649W        W88249  27.531  43.425   4.572
17650W        W88250  29.376   2.867  11.943
17651W        W88251  10.230   0.280   2.452
17652W        W88252  20.904  24.280  12.686
17653W        W88253  22.569  13.129   4.403
17654W        W88254  10.163  16.162   4.358
17655W        W88255  22.230  25.699   4.116
17656W        W88256  32.061  18.314  11.599
17657W        W88257  28.082   1.329  10.763
17658W        W88258  13.014  44.062   1.920
17659W        W88259  20.992  11.875   1.288
17660W        W88260  27.976   8.708   1.874
17661W        W88261  17.093  43.528  13.406
17662W        W88262  37.838  16.057  13.052
17663W        W88263  34.229  26.455  12.133
17664W        W88264   4.055  28.194   4.410
17665W        W88265  33.610  15.679   3.259
17666W        W88266  15.220   3.843  14.337
17667W        W88267   0.372   8.856  11.546
17668W        W88268   8.423   1.877   1.300
17669W        W88269   1.979  22.784  11.911
17670W        W88270  38.875  23.996  12.775
17671W        W88271  30.830  17.796   3.229
17672W        W88272  33.545   1.690  14.542
17673W        W88273  14.421  11.996   4.975
17674W        W88274  44.016  23.959   3.191
17675W        W88275  34.662   1.462  13.117
17676W        W88276  18.162  10.133   3.652
17677W        W88277  38.652  35.195  11.133
17678W        W88278   9.253  19.987  13.851
17679W        W88279  36.006  42.902  11.391
17680W        W88280  13.437  10.812   3.193
17681W        W88281  11.257  17.994   4.684
17682W        W88282  31.907  37.363   2.815
17683W        W88283  21.631   4.155  14.291
17684W        W88284  22.027  19.739  12.653
17685W        W88285  28.853   9.318  13.623
17686W        W88286  33.495  43.726  13.348
17687W        W88287   1.457   4.973  12.595
17688W        W88288  36.448   4.239   2.650
17689W        W88289  15.294  44.570   3.268
17690W        W88290  20.971  34.624   2.421
17691W        W88291   3.483  31.245   0.408
17692W        W88292  26.858   0.887   1.352
17693W        W88293  36.181  25.409   0.797
17694W        W88294  33.334   6.816   2.809
17695W        W88295  11.056  42.883   0.853
17696W        W88296  23.458  16.044   4.495
17697W        W88297  25.198   8.830   2.334
17698W        W88298  39.767   4.253  10.324
17699W        W88299  20.916  17.796  10.669
17700W        W88300  10.834  18.127   2.870
17701W        W88301  14.304  35.130   3.630
17702W        W88302  13.199   2.919   0.756
17703W        W88303  25.191   7.139   2.397
17704W        W88304   0.331   5.437   3.604
17705W        W88305   5.530   4.230  11.983
17706W        W88306  27.417  16.258   0.631
17707W        W88307   1.222  28.431   4.157
17708W        W88308  37.665  32.137   2.811
17709W        W88309  34.099  21.480   0.481
17710W        W88310   1.897  17.824   3.780
17711W        W88311  44.296  12.811   1.448
17712W        W88312  11.206  44.310   2.295
17713W        W88313  15.250  28.221   4.188
17714W        W88314   1.794  22.055  13.824
17715W        W88315  25.592  20.476   0.416
17716W        W88316  34.116  32.603   4.646
17717W        W88317  27.923  21.414  13.518
17718W        W88318   1.867   4.907  13.883
17719W        W88319  14.172  18.177   0.402
17720W        W88320  11.665  30.565   4.107
17721W        W88321  13.149  29.383   2.240
17722W        W88322  33.281  14.623   4.287
17723W        W88323  17.529  18.114  11.578
17724W        W88324  13.717  40.496   3.995
17725W        W88325  21.200   5.392   0.335
17726W        W88326  31.923  19.193  13.077
17727W        W88327   2.243  18.166   3.663
17728W        W88328  29.917   2.955  11.747
17729W        W88329  28.337  41.291  10.633
17730W        W88330  24.098   7.269   0.218
17731W        W88331  19.447   1.879  14.824
17732W        W88332  15.113   6.139   2.409
17733W        W88333  32.084  17.311  14.989
17734W        W88334  34.347  16.165   0.299
17735W        W88335   4.826  32.509   0.895
17736W        W88336   6.182   9.078   3.714
17737W        W88337  19.300  20.221   2.766
17738W        W88338  25.352  39.498  11.950
17739W        W88339  22.242  12.319   0.486
17740W        W88340  39.069  21.967   2.898
17741W        W88341  22.105  19.096   3.109
17742W        W88342  11.316  40.354   3.143
17743W        W88343  26.136  18.210   4.872
17744W        W88344  41.484  27.075  14.765
17745W        W88345  22.099  20.465   4.180
17746W        W88346   3.157  41.318   0.728
17747W        W88347  19.139  18.872   4.102
17748W        W88348  33.180  34.025   2.623
17749W        W88349  14.112   5.685   3.914
17750W        W88350  31.638  35.359   2.989
17751W        W88351  18.825   9.251   1.713
17752W        W88352  39.002  32.301   1.810
17753W        W88353   6.802  30.886   4.938
17754W        W88354  33.053   1.770  12.040
17755W        W88355  41.446  22.988  14.484
17756W        W88356  35.846  31.634   3.342
17757W        W88357  23.236  32.845   1.015
17758W        W88358  35.577  35.157   3.668
17759W        W88359  30.960  44.033  12.803
17760W        W88360  36.849  19.104   0.942
17761W        W88361  19.529  11.090  14.861
17762W        W88362   9.205  31.386   0.387
17763W        W88363   8.410  44.471   3.931
17764W        W88364  13.208   1.304  14.360
17765W        W88365  20.566   6.299  11.527
17766W        W88366  17.753  30.561   0.466
17767W        W88367  21.603  18.295   4.452
17768W        W88368  41.263   1.352  12.421
17769W        W88369  17.107   0.674  10.253
17770W        W88370  18.088  16.090  14.012
17771W        W88371  37.500  32.556  14.932
17772W        W88372   2.338  44.033   2.617
17773W        W88373   1.879  31.087   3.304
17774W        W88374  15.849  14.752   5.042
17775W        W88375  20.141  43.251  14.906
17776W        W88376  11.372  32.678   2.260
17777W        W88377  20.931  29.297   1.927
17778W        W88378  24.481   9.412  14.351
17779W        W88379   2.382  14.791  14.939
17780W        W88380  29.168  17.592  13.835
17781W        W88381  28.706  42.382   3.873
17782W        W88382  18.953   8.994   2.838
17783W        W88383  23.257  44.930   9.757
17784W        W88384   1.848  27.437   4.657
17785W        W88385   5.870  18.788   4.723
17786W        W88386  12.218  28.654  13.312
17787W        W88387  10.895   9.006  14.840
17788W        W88388  19.046   5.828   2.266
17789W        W88389  26.727  21.468   3.644
17790W        W88390  16.749  33.787  11.169
17791W        W88391  38.739   1.667   2.894
17792W        W88392  13.227  44.424  12.616
17793W        W88393  23.995  37.047   0.814
17794W        W88394  17.095  33.663   2.330
17795W        W88395  39.939  35.798   3.214
17796W        W88396   2.077  18.854  14.974
17797W        W88397  28.148  39.805   3.210
17798W        W88398  23.816   3.144   4.848
17799W        W88399  43.922  37.230  12.773
17800W        W88400  11.002  27.167  11.150
17801W        W88401  15.120  15.217   0.923
17802W        W88402   0.563  11.147   1.710
17803W        W88403  35.067  12.636  13.048
17804W        W88404  10.873   0.311   4.105
17805W        W88405  16.823  30.371   5.072
17806W        W88406   6.937  12.136   0.327
17807W        W88407  37.607  42.241  11.469
17808W        W88408  42.488   8.259   4.444
17809W        W88409  14.638  31.293  13.268
17810W        W88410   4.175  16.557   0.355
17811W        W88411  34.412  27.774   4.276
17812W        W88412  40.100   0.288  12.463
17813W        W88413  32.578  22.759  13.077
17814W        W88414   0.352   6.205  14.973
17815W        W88415  24.436  38.491  11.554
17816W        W88416  20.874   2.308   0.118
17817W        W88417   8.237  42.800   2.787
17818W        W88418   2.658  25.079   1.677
17819W        W88419   5.528  34.293  14.329
17820W        W88420  11.741   2.997  10.513
17821W        W88421   1.329   0.781  14.903
17822W        W88422  14.804  43.398  12.523
17823W        W88423   8.505  38.344  13.533
17824W        W88424  41.791  14.309  14.381
17825W        W88425  25.616   7.440   3.329
17826W        W88426  42.082  24.485   1.447
17827W        W88427   7.002  14.245  12.038
17828W        W88428  20.565  32.394  13.855
17829W        W88429  32.033  25.972  13.036
17830W        W88430  33.055   6.799   4.673
17831W        W88431  43.758   7.341  14.867
17832W        W88432  31.488  19.334  12.514
17833W        W88433  34.455   8.364   1.029
17834W        W88434  22.126  23.159   4.977
17835W        W88435  32.970  23.498  10.822
17836W        W88436  19.481  23.992   3.213
17837W        W88437   8.802  41.943  14.360
17838W        W88438  36.369  20.539   0.638
17839W        W88439  32.148   4.762   3.733
17840W        W88440  44.417  44.782  12.421
17841W        W88441  42.376  13.347  14.812
17842W        W88442  37.422  26.226   1.155
17843W        W88443  23.251  19.827   3.375
17844W        W88444   1.473  19.639  13.473
17845W        W88445   2.868  10.130   3.285
17846W        W88446  34.353  20.503  14.820
17847W        W88447  29.067  19.023  11.304
17848W        W88448  29.350  26.678  10.102
17849W        W88449  20.357  13.830  14.004
17850W        W88450   7.414  13.967  11.962
17851W        W88451  11.026   0.874   4.220
17852W        W88452  37.881   7.091   3.672
17853W        W88453  33.167  33.474  12.839
17854W        W88454  11.606  39.449  14.014
17855W        W88455  14.010  38.853   9.711
17856W        W88456  36.080   5.666   1.289
17857W        W88457  31.934  26.215  10.785
17858W        W88458  44.434   8.121  13.221
17859W        W88459   9.758  41.391   3.253
17860W        W88460   7.540  28.569   4.388
17861W        W88461   2.559  13.981   4.032
17862W        W88462  29.538  33.488  11.970
17863W        W88463  39.549   6.819   0.941
17864W        W88464  35.356  15.166   2.742
17865W        W88465  22.062   4.876   0.170
17866W        W88466  28.352  17.247  10.208
17867W        W88467  32.540  23.252  13.226
17868W        W88468   4.513   5.230  13.786
17869W        W88469  37.328  31.005  14.065
17870W        W88470  42.351  38.947   3.300
17871W        W88471  13.393  33.527  11.585
17872W        W88472  10.548  27.921   0.448
17873W        W88473  41.467   4.689  14.910
17874W        W88474  36.045  41.672  14.825
17875W        W88475   4.236  44.671   2.772
17876W        W88476   6.785  23.492   0.757
17877W        W88477  17.835  12.830  14.050
17878W        W88478  38.803  24.368  12.388
17879W        W88479  36.320  11.923   2.465
17880W        W88480  15.630  37.865  12.499
17881W        W88481  10.321  41.889   1.939
17882W        W88482  20.533  21.178   0.436
17883W        W88483  22.818  19.374  14.750
17884W        W88484  37.445  10.969   0.329
17885W        W88485   9.759  11.696   4.289
17886W        W88486  20.069  10.933   3.263
17887W        W88487  25.399  11.903  12.977
17888W        W88488  41.222   6.740   5.473
17889W        W88489   5.332  25.225   1.340
17890W        W88490  32.537  23.734  12.004
17891W        W88491   5.903  43.971  13.984
17892W        W88492  41.253   1.864   5.071
17893W        W88493   7.442  36.836   2.722
17894W        W88494  24.561  43.470   0.524
17895W        W88495  40.931  36.224  11.307
17896W        W88496  32.323  22.663   2.726
17897W        W88497  18.849   0.703   2.702
17898W        W88498  42.883   4.364   3.201
17899W        W88499  27.466  16.706   3.679
17900W        W88500  16.806  18.329  11.946
17901W        W88501  22.169  17.152   4.259
17902W        W88502  21.419  36.772   4.842
17903W        W88503  11.144   4.877  12.033
17904W        W88504  33.417  33.969   0.234
17905W        W88505  16.706  15.204   3.308
17906W        W88506   3.862  25.547   4.754
17907W        W88507  36.675  18.059  12.049
17908W        W88508   9.670   8.254   2.826
17909W        W88509  40.623  32.572   2.209
17910W        W88510  41.331  40.021  12.920
17911W        W88511  41.537   1.982  10.677
17912W        W88512   3.232  14.337   1.317
17913W        W88513  14.908  14.838   2.611
17914W        W88514  31.572  37.926  11.924
17915W        W88515  22.161  18.681  12.168
17916W        W88516  41.972  18.176   2.239
17917W        W88517  44.101  11.914   0.907
17918W        W88518  14.206  34.308  11.652
17919W        W88519  28.897  42.496   1.293
17920W        W88520   0.422  23.191  12.102
17921W        W88521  17.746  37.618   2.955
17922W        W88522  14.981  29.314  14.408
17923W        W88523   9.685  31.093   2.606
17924W        W88524  43.846  11.376  13.480
17925W        W88525   0.961  37.557   0.291
17926W        W88526   4.807  13.390  11.371
17927W        W88527  13.334   5.267   3.765
17928W        W88528  14.644   5.611   3.810
17929W        W88529  26.071  24.233  12.150
17930W        W88530  21.291  10.242  14.312
17931W        W88531  27.237  11.230   2.369
17932W        W88532   8.900  10.742  13.375
17933W        W88533  15.587  31.946  13.859
17934W        W88534  23.462  10.853   2.795
17935W        W88535   7.311  31.037  12.846
17936W        W88536  17.034  39.876   1.154
17937W        W88537  18.727  12.470   1.555
17938W        W88538  25.949  41.245   1.286
17939W        W88539   2.376  25.929  14.565
17940W        W88540  41.632   5.541  12.984
17941W        W88541  25.755  25.213   5.027
17942W        W88542  15.662   8.557   2.009
17943W        W88543   3.925   4.202   4.448
17944W        W88544  10.178   7.127   4.045
17945W        W88545  33.624  16.100  12.515
17946W        W88546  16.325  41.408   0.452
17947W        W88547  14.193  33.678   0.459
17948W        W88548  43.110  32.669   4.069
17949W        W88549  30.438  12.759  12.473
17950W        W88550  35.577  12.902  12.873
17951W        W88551  25.127  33.866   3.362
17952W        W88552  38.813  24.689   0.563
17953W        W88553  17.810   9.750  14.012
17954W        W88554  23.043  33.987  14.333
17955W        W88555   1.764  18.661  13.823
17956W        W88556   3.526  39.240   0.806
17957W        W88557  21.005  13.668  12.461
17958W        W88558   4.064  17.810  14.055
17959W        W88559  19.072  36.107   4.638
17960W        W88560  19.036  44.905  11.092
17961W        W88561  31.178  35.550   3.700
17962W        W88562  33.090   7.770   2.158
17963W        W88563  42.003  18.566   2.761
17964W        W88564  38.943   9.428   0.599
17965W        W88565  25.492   1.386  11.652
17966W        W88566   2.971   1.892  12.245
17967W        W88567  29.710  28.577   3.002
17968W        W88568   6.409   7.104   2.798
17969W        W88569  17.846   6.290   3.678
17970W        W88570   6.372  12.303   3.183
17971W        W88571  24.667   4.988  12.789
17972W        W88572   7.465   8.318   4.551
17973W        W88573   9.630  28.841   3.241
17974W        W88574  34.252  12.612  13.402
17975W        W88575  28.153  41.535  11.940
17976W        W88576   3.702  37.807  14.380
17977W        W88577  28.436  42.357   0.356
17978W        W88578  23.558  38.855   2.639
17979W        W88579  21.299  44.406   2.742
17980W        W88580  34.141  32.241   3.131
17981W        W88581  14.948  37.399   1.765
17982W        W88582  21.569   8.339   0.848
17983W        W88583  37.784  41.709   4.838
17984W        W88584  38.520  25.410  13.895
17985W        W88585  36.881  14.395   3.760
17986W        W88586   0.463   6.036  14.461
17987W        W88587   0.494  38.978   2.271
17988W        W88588  41.025  30.370   2.108
17989W        W88589  23.324  43.454  13.706
17990W        W88590  17.121  31.829  14.850
17991W        W88591  36.977  10.614   3.563
17992W        W88592  18.783   8.747   2.397
17993W        W88593  12.999  33.963  14.788
17994W        W88594  12.595  28.570  10.525
17995W        W88595  15.686  18.561   1.531
17996W        W88596  21.283  11.387   9.959
17997W        W88597  24.505   6.247   4.086
17998W        W88598  35.571  10.097  12.072
17999W        W88599   2.711  40.835  12.608
18000W        W88600  11.810  37.655  13.451
18001W        W88601  18.164   1.783  13.267
18002W        W88602  26.615  21.173   4.895
18003W        W88603  13.849  20.700  12.558
18004W        W88604  15.720  27.042  13.967
18005W        W88605   0.530  41.842  13.028
18006W        W88606   0.229  41.666  14.434
18007W        W88607   2.957  28.607   2.350
18008W        W88608  28.372  32.495   9.928
18009W        W88609  43.684   9.212  11.954
18010W        W88610  18.929   0.297   1.511
18011W        W88611  42.759  41.272   1.279
18012W        W88612   5.353   5.426  14.750
18013W        W88613  32.165  19.157   2.333
18014W        W88614  17.244  23.242  13.553
18015W        W88615  36.025  18.234   2.344
18016W        W88616  16.298  19.639  13.013
18017W        W88617   5.439  29.684  13.944
18018W        W88618  11.345  15.337   4.186
18019W        W88619  32.120  31.047   4.691
18020W        W88620   1.884  17.029   3.317
18021W        W88621  34.097  40.326   3.770
18022W        W88622  33.034  11.723  12.020
18023W        W88623   4.347  43.819   1.248
18024W        W88624   1.464  41.409   1.378
18025W        W88625  19.605  25.501   0.757
18026W        W88626   9.137   1.183   4.173
18027W        W88627  44.407  23.443  11.208
18028W        W88628  11.301   9.682   2.518
18029W        W88629  15.095  41.855   0.363
18030W        W88630  42.243  33.864   4.249
18031W        W88631  34.865   8.446   2.009
18032W        W88632   9.777  26.669  12.836
18033W        W88633  34.861  16.931   4.105
18034W        W88634  44.555  41.593   0.835
18035W        W88635  15.152  23.525   1.757
18036W        W88636  34.460  22.531   0.787
18037W        W88637  38.974  13.356  10.790
18038W        W88638  24.592  17.074   0.148
18039W        W88639   4.235  38.392  13.928
18040W        W88640  12.791  16.792  13.862
18041W        W88641  14.636   4.623   4.682
18042W        W88642  43.014  12.848   4.656
18043W        W88643  26.084  16.158  14.917
18044W        W88644  12.422   9.688   2.714
18045W        W88645  25.487   9.984  12.097
18046W        W88646  21.180  16.042   2.670
18047W        W88647  32.136   2.476   0.725
18048W        W88648   3.693  43.410  14.506
18049W        W88649  23.264  17.921   1.862
18050W        W88650  28.950  24.222  10.667
18051W        W88651   1.772  16.234  12.454
18052W        W88652  40.304   1.360  10.828
18053W        W88653  27.897   1.474  12.030
18054W        W88654  11.138  16.478  10.970
18055W        W88655   4.361  21.484   2.245
18056W        W88656  23.505  23.832  14.387
18057W        W88657   9.752   1.362  12.770
18058W        W88658  19.780  23.266   1.845
18059W        W88659  16.119  26.703   0.456
18060W        W88660   5.877  36.327  11.180
18061W        W88661  33.993   4.676  14.041
18062W        W88662  41.260  25.975  13.718
18063W        W88663  22.717   4.414   0.287
18064W        W88664  27.019  21.992   2.985
18065W        W88665   0.847  10.531  11.986
18066W        W88666   5.940  19.962  11.151
18067W        W88667  42.552   6.449  13.043
18068W        W88668  42.033   1.353  13.593
18069W        W88669  29.726  24.615  12.654
18070W        W88670  19.646  35.596   2.869
18071W        W88671  28.955  13.148  13.973
18072W        W88672  17.277  29.369  12.363
18073W        W88673   2.915  29.544   5.053
18074W        W88674  13.709  21.146   1.508
18075W        W88675   5.034  23.085   4.729
18076W        W88676  22.895  28.179  10.500
18077W        W88677  26.474   2.337  10.739
18078W        W88678  19.792   8.371  12.690
18079W        W88679  41.933   5.505  10.144
18080W        W88680  39.134  19.714  12.966
18081W        W88681  17.745  38.317  13.009
18082W        W88682   3.061  15.798   1.373
18083W        W88683   2.405  25.920   1.757
18084W        W88684  25.983  38.064  12.874
18085W        W88685  38.996  34.882   1.348
18086W        W88686   5.912  44.352  13.313
18087W        W88687  40.509  19.921  14.995
18088W        W88688   7.643  29.309   0.099
18089W        W88689  21.497  42.002  14.372
18090W        W88690  23.357  23.662  12.423
18091W        W88691  14.128   6.817  14.425
18092W        W88692  21.711  38.740  11.638
18093W        W88693  11.645  33.339  13.877
18094W        W88694   8.174  44.283   4.561
18095W        W88695  42.421   0.784  14.713
18096W        W88696  29.675  21.098  13.683
18097W        W88697  28.644  37.817  11.951
18098W        W88698   0.956  41.517   1.331
18099W        W88699  19.375  14.159   1.252
18100W        W88700  11.682  42.191   4.175
18101W        W88701  28.976  17.817   1.322
18102W        W88702  36.062   4.914   3.807
18103W        W88703  38.329  41.520  14.292
18104W        W88704  32.475  19.083  11.940
18105W        W88705  36.139   6.146   2.715
18106W        W88706   9.007  35.527   4.637
18107W        W88707  28.342   5.793  11.512
18108W        W88708  25.146   9.315   1.709
18109W        W88709  42.463  33.971   2.667
18110W        W88710  42.029   2.876  11.121
18111W        W88711  43.828   0.533   3.592
18112W        W88712  35.542  29.939   0.028
18113W        W88713   9.299   8.191   1.202
18114W        W88714  23.651  37.909  14.607
18115W        W88715   5.533  43.450  10.684
18116W        W88716  42.074   9.613   1.650
18117W        W88717   0.220  34.524  11.152
18118W        W88718  24.055  14.595  14.472
18119W        W88719  29.302  29.718  13.629
18120W        W88720   2.437  25.026  13.435
18121W        W88721  43.972   6.429  10.377
18122W        W88722   7.356  27.977  14.983
18123W        W88723  21.186  29.596  10.420
18124W        W88724  39.272  36.274   2.577
18125W        W88725  36.750  11.261   2.931
18126W        W88726   4.816   4.654  11.869
18127W        W88727   2.874  15.623  10.662
18128W        W88728  25.505  34.578  13.031
18129W        W88729  26.046  23.301  12.626
18130W        W88730  25.633  25.713  13.492
18131W        W88731  15.364  25.580   1.447
18132W        W88732   5.281   6.665  14.289
18133W        W88733  18.592  24.682   5.354
18134W        W88734  31.022  26.981  12.510
18135W        W88735  27.476  20.263   4.169
18136W        W88736  19.971  44.037   4.049
18137W        W88737  40.972   2.788  14.804
18138W        W88738  26.632  40.821   1.865
18139W        W88739  11.713  17.830  14.772
18140W        W88740   7.744  22.009   2.920
18141W        W88741  18.985   0.506   2.240
18142W        W88742  43.376  17.173  12.452
18143W        W88743  16.988   5.965  11.870
18144W        W88744  28.356  28.866  13.015
18145W        W88745  36.446  14.074  11.114
18146W        W88746   0.244   6.376  10.584
18147W        W88747  15.232  11.209  14.975
18148W        W88748  35.480   4.337   4.416
18149W        W88749   8.238  40.207  11.619
18150W        W88750  21.097  25.189   0.012
18151W        W88751  10.939  43.400  11.258
18152W        W88752  17.801  41.372  12.091
18153W        W88753  44.711  12.338  12.446
18154W        W88754  42.305  36.927  12.351
18155W        W88755  44.048  26.835  11.082
18156W        W88756   3.601  20.204  12.045
18157W        W88757  40.901  28.522  10.684
18158W        W88758  38.194  35.267  14.274
18159W        W88759   3.424  25.541  10.967
18160W        W88760   1.745  29.360   0.331
18161W        W88761  19.529  33.680   2.077
18162W        W88762  18.612  23.880  10.707
18163W        W88763  26.711  32.518  14.055
18164W        W88764  38.822  32.478  10.730
18165W        W88765  43.469  32.435  13.339
18166W        W88766  43.275  38.536   4.328
18167W        W88767  22.843  32.091   4.498
18168W        W88768  24.147  10.333   2.620
18169W        W88769  29.694   9.146   0.270
18170W        W88770   2.466   0.310   0.667
18171W        W88771  27.291  34.888  11.013
18172W        W88772  13.277  18.650   1.297
18173W        W88773  23.155   4.126   0.186
18174W        W88774  18.600  26.960  11.691
18175W        W88775  11.320  38.553  14.870
18176W        W88776  35.883  23.918  11.118
18177W        W88777  41.526  37.025   3.219
18178W        W88778  23.432  33.209   2.341
18179W        W88779  11.346  43.010  14.457
18180W        W88780  23.480  38.740   4.500
18181W        W88781  29.175   3.243  14.785
18182W        W88782  14.314  16.482   0.416
18183W        W88783  44.610   3.877   1.778
18184W        W88784  29.853  26.164  11.157
18185W        W88785  14.490  19.904  13.032
18186W        W88786   2.753  23.977   0.854
18187W        W88787  18.876  24.669   9.938
18188W        W88788  39.223  10.857  13.388
18189W        W88789  23.503  18.603  12.935
18190W        W88790  42.233  19.970  11.359
18191W        W88791   2.735  44.924  10.777
18192W        W88792  13.825  39.021  14.568
18193W        W88793  34.047  22.248   0.955
18194W        W88794   8.028   9.925   0.381
18195W        W88795  42.650  10.120  14.547
18196W        W88796  39.297  28.428   1.048
18197W        W88797   3.738  30.255   3.586
18198W        W88798  42.417  30.289   3.305
18199W        W88799  28.459  33.630  13.124
18200W        W88800  43.442  30.273  10.387
18201W        W88801  10.615  20.696  14.466
18202W        W88802  15.626  18.297   4.538
18203W        W88803   4.916  23.131   2.274
18204W        W88804   0.360  16.544  11.171
18205W        W88805   0.205   6.797   4.432
18206W        W88806  12.893  19.592  13.875
18207W        W88807   3.685  31.510  14.929
18208W        W88808  18.649  24.790   2.325
18209W        W88809  22.771  14.879  14.511
18210W        W88810  28.187  21.782   3.173
18211W        W88811  14.596   0.032   4.218
18212W        W88812  34.795  40.857  11.143
18213W        W88813  29.166   8.613  10.386
18214W        W88814  29.977  29.252   4.608
18215W        W88815  34.841  21.174  14.948
18216W        W88816  19.176  13.995  11.869
18217W        W88817   2.361  13.943  10.596
18218W        W88818  15.730  20.434   4.593
18219W        W88819   0.661  27.476  13.974
18220W        W88820  11.824  26.395  14.204
18221W        W88821   6.335  10.754  11.885
18222W        W88822  27.861  10.828   4.583
18223W        W88823  10.157   2.004  14.983
18224W        W88824  43.900   3.325   4.267
18225W        W88825   4.222  13.226  13.355
18226W        W88826  32.209   2.733   1.333
18227W        W88827  43.391  36.487   2.221
18228W        W88828  35.903  36.497  13.946
18229W        W88829   5.991  31.488   1.274
18230W        W88830   2.860  12.381   1.803
18231W        W88831   9.316  32.460  13.848
18232W        W88832   0.272   6.827   0.479
18233W        W88833   9.388   9.787   1.342
18234W        W88834  27.415  22.150   3.710
18235W        W88835   9.811   3.232   1.950
18236W        W88836  28.629  43.922   2.680
18237W        W88837  38.193  39.895   4.114
18238W        W88838  32.962   0.429   3.563
18239W        W88839  15.910   7.338  11.676
18240W        W88840  28.257  33.553  13.594
18241W        W88841   3.187  43.469  14.602
18242W        W88842  32.045  32.607  11.985
18243W        W88843  32.487   2.901  11.551
18244W        W88844  28.143  43.342  13.053
18245W        W88845  25.462  39.427  13.800
18246W        W88846  36.675  28.960  13.448
18247W        W88847  31.369  23.824   3.159
18248W        W88848   2.829  10.590   1.154
18249W        W88849   1.169   0.904  12.723
18250W        W88850  40.848   9.735  10.694
18251W        W88851  41.065  43.937   1.256
18252W        W88852  32.883  40.055   2.635
18253W        W88853  32.632  35.383   3.831
18254W        W88854  33.648  15.715  10.172
18255W        W88855  34.908  34.140   4.115
18256W        W88856  32.278   5.975   2.509
18257W        W88857  29.041   0.911  11.649
18258W        W88858  29.019  10.384  12.477
18259W        W88859  27.603   5.285   2.211
18260W        W88860   6.776  35.900  12.010
18261W        W88861  33.008  39.602  11.428
18262W        W88862  22.307  37.532  14.389
18263W        W88863  15.260  36.811   1.186
18264W        W88864  35.901  37.377   4.701
18265W        W88865  15.381  22.990  14.278
18266W        W88866  30.555  29.227   0.394
18267W        W88867   1.430  24.757   2.548
18268W        W88868   5.501  35.981  12.587
18269W        W88869  23.320  29.183  13.352
18270W        W88870   5.544  44.795  14.440
18271W        W88871  20.279  33.458   2.599
18272W        W88872  15.985  26.943   2.263
18273W        W88873  29.749   2.142  13.054
18274W        W88874  34.572  13.284  14.493
18275W        W88875  17.994  15.326  13.370
18276W        W88876   5.361  37.785  11.735
18277W        W88877  15.838  26.095  12.545
18278W        W88878  15.843  38.561  13.998
18279W        W88879   5.299  25.210  11.232
18280W        W88880  34.999  30.735  14.506
18281W        W88881  19.672   3.773   1.770
18282W        W88882  23.671  23.246  14.825
18283W        W88883   1.477  10.176   1.377
18284W        W88884  22.242   9.334   5.005
18285W        W88885  34.685   8.095   3.178
18286W        W88886   3.165  33.009   2.786
18287W        W88887   5.490  32.942  11.641
18288W        W88888  23.749  18.112  13.768
18289W        W88889   6.346  34.046  11.234
18290W        W88890   1.353   8.933   3.468
18291W        W88891  22.966  33.492  10.824
18292W        W88892  18.571  18.125   2.680
18293W        W88893  30.051  23.212  12.048
18294W        W88894  34.084   4.195  13.095
18295W        W88895  26.071  26.197   1.412
18296W        W88896  18.442  31.641   0.211
18297W        W88897  22.661  15.826  14.633
18298W        W88898  38.825  27.347  11.139
18299W        W88899  35.567   6.447  13.640
18300W        W88900  23.992   6.825  12.801
18301W        W88901  39.408  34.147  11.571
18302W        W88902  20.780  17.867   4.207
18303W        W88903  21.708  22.107  12.993
18304W        W88904  44.769  15.390  11.211
18305W        W88905   1.709  27.122  11.755
18306W        W88906  24.006  35.896  10.286
18307W        W88907  31.093  17.809   0.312
18308W        W88908  29.120  36.600   2.303
18309W        W88909  25.340  14.299  13.904
18310W        W88910  20.225  20.826   1.627
18311W        W88911   4.695  42.588   0.820
18312W        W88912   7.220   6.145   3.282
18313W        W88913   5.485  19.621  14.016
18314W        W88914  36.447  28.815   2.262
18315W        W88915  11.572  10.384  12.515
18316W        W88916  11.824  35.534  14.898
18317W        W88917  24.280   1.814  12.407
18318W        W88918  39.064   2.856   2.339
18319W        W88919  23.031  21.365  13.904
18320W        W88920  37.377  40.468  13.968
18321W        W88921  31.531  43.968   0.791
18322W        W88922   0.695  42.817  11.695
18323W        W88923   1.027  38.875   4.097
18324W        W88924  23.540  40.470   4.620
18325W        W88925   5.510  36.767   2.911
18326W        W88926  38.044  30.892  11.666
18327W        W88927  41.499   7.733  13.002
18328W        W88928  22.986  26.474   2.337
18329W        W88929  27.189  11.201   4.159
18330W        W88930  44.734  18.151   1.277
18331W        W88931  19.043   4.476  14.193
18332W        W88932  30.036  24.518  11.555
18333W        W88933  14.168  44.534  12.067
18334W        W88934  34.915  13.770  10.692
18335W        W88935  10.820   1.389  11.378
18336W        W88936  11.325  29.150  12.913
18337W        W88937  36.931   2.481  11.092
18338W        W88938  35.171   8.666   4.216
18339W        W88939  12.899   8.930  11.104
18340W        W88940   0.510  14.175   0.866
18341W        W88941  18.620   1.626  14.811
18342W        W88942   2.650  13.782   0.598
18343W        W88943  13.000  32.981  13.966
18344W        W88944  16.405  25.966  10.594
18345W        W88945  30.104  23.154   4.897
18346W        W88946  15.083  38.453  14.966
18347W        W88947  17.871  28.458   0.237
18348W        W88948   6.110  29.085   1.958
18349W        W88949  25.456  33.555  11.011
18350W        W88950   6.545   6.036  10.889
18351W        W88951   5.994  26.602   4.629
18352W        W88952  26.359  42.898   2.651
18353W        W88953  11.787  15.064  13.818
18354W        W88954  13.002  38.059   4.288
18355W        W88955  21.577   0.446  13.857
18356W        W88956  30.789  22.750  13.920
18357W        W88957   8.235  24.660   0.798
18358W        W88958  14.697  12.238  14.001
18359W        W88959  38.367   9.069  11.962
18360W        W88960  22.737  22.745  14.497
18361W        W88961  13.868  31.386  13.511
18362W        W88962  11.553  24.262  11.204
18363W        W88963  43.150  34.439   0.873
18364W        W88964  35.472  19.037  11.363
18365W        W88965   9.158  35.848  11.923
18366W        W88966  34.760  14.667  11.503
18367W        W88967   5.502  29.438  13.417
18368W        W88968   4.704  23.872  11.618
18369W        W88969  13.837  23.094   1.712
18370W        W88970   9.100  44.442   2.809
18371W        W88971   4.030  21.435   2.763
18372W        W88972   4.668  15.247  11.253
18373W        W88973  38.636   7.705  14.624
18374W        W88974  41.939  44.457   2.192
18375W        W88975  25.231  24.384   2.621
18376W        W88976  40.804  11.030  12.097
18377W        W88977  22.463  18.577  14.636
18378W        W88978  11.549  26.601  13.226
18379W        W88979  43.273  40.960   1.898
18380W        W88980  36.915  34.766  10.779
18381W        W88981  42.997  11.658  14.033
18382W        W88982   9.900  14.908  13.773
18383W        W88983  13.672   2.620  12.625
18384W        W88984  34.808  24.621  11.554
18385W        W88985  43.917  23.557  11.130
18386W        W88986   4.808  16.215   0.242
18387W        W88987  21.528  12.156  10.889
18388W        W88988  34.826  13.462   3.031
18389W        W88989  15.549  27.907   1.277
18390W        W88990  43.321  40.632   4.636
18391W        W88991  11.227  26.016  12.424
18392W        W88992   8.679  16.743  14.794
18393W        W88993  30.388  18.784   2.180
18394W        W88994  21.582  18.692  11.098
18395W        W88995   2.227  38.039   3.639
18396W        W88996  44.841  28.619   2.736
18397W        W88997   6.761  18.052   3.675
18398W        W88998  19.109  40.895  14.241
18399W        W88999  43.018   1.414  14.993
18400W        W89000  35.709  14.857  12.407
18401W        W89001  15.713   2.933   3.596
18402W        W89002   2.800  32.683   0.311
18403W        W89003  18.156   8.291   0.432
18404W        W89004  28.450  14.142  14.445
18405W        W89005  44.026  36.536  11.540
18406W        W89006  34.077  25.387  12.545
18407W        W89007   8.390  43.335   2.713
18408W        W89008  27.750  11.273  10.689
18409W        W89009  41.371  38.854  13.365
18410W        W89010  13.370   3.393   4.685
18411W        W89011  17.945  43.413   4.846
18412W        W89012  12.585   2.226  14.160
18413W        W89013  25.445  43.998  11.535
18414W        W89014  39.218   9.257  12.129
18415W        W89015   1.642  23.032   2.330
18416W        W89016   0.738  42.792   4.485
18417W        W89017  34.523  40.382  12.176
18418W        W89018  41.607   2.513   9.712
18419W        W89019  33.127  10.569   4.401
18420W        W89020  29.812  29.761  13.679
18421W        W89021   2.784  11.061   3.356
18422W        W89022  22.057  34.529   0.782
18423W        W89023  44.182  28.895  10.291
18424W        W89024  33.531  15.914  14.798
18425W        W89025  40.425  13.687  11.084
18426W        W89026   5.811  34.649   5.261
18427W        W89027  35.572  22.601  13.876
18428W        W89028  30.384  24.456  13.344
18429W        W89029  28.109  35.650   0.834
18430W        W89030   0.896   4.854   1.108
18431W        W89031  13.703  36.568  13.605
18432W        W89032  18.108  43.802   4.399
18433W        W89033  41.831  41.795   9.773
18434W        W89034  43.821  13.598  10.719
18435W        W89035  24.348  14.016  11.463
18436W        W89036  30.855  29.425  14.505
18437W        W89037  27.148  22.233  14.964
18438W        W89038  16.756  32.255   2.330
18439W        W89039  15.656  21.567  12.059
18440W        W89040  23.953  19.303   0.210
18441W        W89041  36.886   4.187   2.258
18442W        W89042  33.982   6.904   0.691
18443W        W89043  36.307   2.899   5.122
18444W        W89044   5.273  33.388  11.875
18445W        W89045  17.720  13.922  10.728
18446W        W89046  42.874  10.708   3.697
18447W        W89047  12.250  25.735  11.504
18448W        W89048  41.456  36.840  11.965
18449W        W89049   2.447  29.601   3.100
18450W        W89050  28.279   3.186  11.668
18451W        W89051   5.929   9.254   3.320
18452W        W89052   4.184   7.827   2.434
18453W        W89053  14.162  15.632   3.576
18454W        W89054  25.072  42.187  11.243
18455W        W89055  28.988  27.163  10.807
18456W        W89056  12.221  16.427   2.892
18457W        W89057   6.770  27.727   0.501
18458W        W89058  25.691   4.885  14.983
18459W        W89059  25.534  33.792  14.668
18460W        W89060  19.777  11.442  13.937
18461W        W89061  43.238  18.973   2.698
18462W        W89062   5.758  10.648  14.348
18463W        W89063  43.330  22.149  10.966
18464W        W89064   5.033  34.382  14.491
18465W        W89065  25.362  41.337   2.874
18466W        W89066  31.842  17.202  13.976
18467W        W89067   3.226  15.844   3.593
18468W        W89068   3.490  41.316  13.409
18469W        W89069  17.234  13.655  11.619
18470W        W89070  21.456  15.372  10.655
18471W        W89071   6.794  34.877   4.306
18472W        W89072   7.296  44.511  12.488
18473W        W89073  37.025  12.492  12.610
18474W        W89074   6.945  34.522  14.431
18475W        W89075  27.111  34.033   4.646
18476W        W89076  41.775   0.362   4.269
18477W        W89077   8.354  31.399  13.332
18478W        W89078   0.933   1.362  10.657
18479W        W89079  32.020   3.724  14.892
18480W        W89080  24.621  26.684   5.039
18481W        W89081  11.268  29.041   1.194
18482W        W89082   0.961  15.130  13.935
18483W        W89083  37.757  16.929   4.195
18484W        W89084  33.952   2.401   1.861
18485W        W89085  12.189   2.759  12.135
18486W        W89086  41.421  12.759   3.398
18487W        W89087   4.308  25.049   4.549
18488W        W89088  13.820   8.748  12.616
18489W        W89089   7.978  22.211  11.957
18490W        W89090  41.391  29.077   1.216
18491W        W89091  35.757   9.435  10.842
18492W        W89092   4.097  16.154  10.860
18493W        W89093  10.443  40.778  12.980
18494W        W89094  43.731   4.883  12.022
18495W        W89095   4.141   4.498   1.061
18496W        W89096  29.079  44.535  13.989
18497W        W89097   1.811  38.742   1.689
18498W        W89098  10.247  40.083   4.682
18499W        W89099  15.842   0.296   1.978
18500W        W89100  42.347  16.699   4.610
18501W        W89101  12.134  28.448  14.821
18502W        W89102   4.476   8.911  13.626
18503W        W89103  41.561  44.473  12.472
18504W        W89104  23.678  43.223   1.259
18505W        W89105  20.986  38.489   4.671
18506W        W89106  23.157  30.018   0.923
18507W        W89107  36.561  31.696  12.870
18508W        W89108  34.617   4.863   0.457
18509W        W89109  11.208   0.827   0.801
18510W        W89110  38.559  12.844   0.663
18511W        W89111  32.134   3.830  11.189
18512W        W89112  25.731  21.539   3.796
18513W        W89113  22.043  18.169   4.665
18514W        W89114  33.050  40.999  12.644
18515W        W89115  24.701   2.798   3.409
18516W        W89116  11.135  23.456   3.303
18517W        W89117  11.634  24.778  13.425
18518W        W89118  17.211  12.246   0.040
18519W        W89119  28.453  30.979  12.908
18520W        W89120  44.893   5.629  13.524
18521W        W89121  31.129   1.906  12.826
18522W        W89122  15.654  16.656  12.611
18523W        W89123  20.355   2.954   0.209
18524W        W89124  39.634  23.788  14.923
18525W        W89125  14.749  40.030   2.345
18526W        W89126   2.275  27.995   9.822
18527W        W89127  39.627  36.492   0.948
18528W        W89128  39.386  12.050   3.168
18529W        W89129   7.194  13.059   2.826
18530W        W89130   4.415  33.157  12.962
18531W        W89131   1.392  21.579   2.630
18532W        W89132   3.785  13.914  10.794
18533W        W89133  23.850  22.178  14.731
18534W        W89134   2.003  39.519  14.793
18535W        W89135  24.581   9.418  13.458
18536W        W89136   5.729  33.543  11.654
18537W        W89137  37.573  15.609  13.864
18538W        W89138  17.031  40.050  12.514
18539W        W89139  23.140  12.422   1.847
18540W        W89140  22.405  24.553   4.178
18541W        W89141   0.513  34.835   1.755
18542W        W89142  42.400   9.831   0.844
18543W        W89143  27.930   7.271  13.584
18544W        W89144  32.917   3.213   2.263
18545W        W89145  18.905  38.400  14.342
18546W        W89146  25.285  37.453   1.764
18547W        W89147  17.794  37.776   1.317
18548W        W89148   2.448   8.798  10.333
18549W        W89149  33.630  30.039  11.099
18550W        W89150  18.686  44.747   3.681
18551W        W89151  28.586  16.378  12.228
18552W        W89152  44.237  21.049  12.551
18553W        W89153  33.445  10.327   2.894
18554W        W89154  20.527  17.890   0.751
18555W        W89155   9.780  34.833   3.399
18556W        W89156  33.027  36.832  11.464
18557W        W89157   0.982  15.378  11.621
18558W        W89158  44.895  41.415   3.273
18559W        W89159  40.817   1.263   0.733
18560W        W89160  44.323  32.558   1.217
18561W        W89161  25.146  44.318   1.447
18562W        W89162   1.657  36.875  13.355
18563W        W89163  23.107  44.612   3.622
18564W        W89164  29.188   7.340   4.218
18565W        W89165  21.424   2.230   3.373
18566W        W89166  23.118  30.124  11.847
18567W        W89167  39.235  36.019   3.062
18568W        W89168  34.296  27.985   2.216
18569W        W89169  17.246   2.465  14.736
18570W        W89170  23.785  19.231  13.513
18571W        W89171  33.732  39.339  14.508
18572W        W89172  13.295  18.264   0.075
18573W        W89173  27.578  17.661   1.226
18574W        W89174  21.064  12.791  12.368
18575W        W89175  11.726  34.663   0.848
18576W        W89176  23.161  11.923   1.687
18577W        W89177  19.357  10.919  12.815
18578W        W89178  17.114   5.246  10.684
18579W        W89179  21.723  29.003   4.643
18580W        W89180  31.019   2.760  11.402
18581W        W89181  10.684  43.063   2.133
18582W        W89182   7.307   0.280  11.967
18583W        W89183  32.597  29.660   3.696
18584W        W89184  26.212  25.705   0.487
18585W        W89185  11.126  21.899   0.829
18586W        W89186  39.587  18.455   2.739
18587W        W89187  18.017   6.097  14.065
18588W        W89188  20.714  25.055  12.837
18589W        W89189   0.686  26.626   2.735
18590W        W89190  22.968   5.748   2.151
18591W        W89191  40.320  32.012  11.366
18592W        W89192  27.993  37.651  14.897
18593W        W89193  23.661  29.886   1.713
18594W        W89194  34.598  12.842   3.792
18595W        W89195  10.355  41.368   1.955
18596W        W89196   8.334  29.907   2.397
18597W        W89197   3.871  37.376   4.737
18598W        W89198  41.096   5.608  11.731
18599W        W89199   9.351   7.225  13.010
18600W        W89200  17.257   0.650   2.807
18601W        W89201  12.705  44.284  13.814
18602W        W89202  35.188  40.452  13.872
18603W        W89203   6.361  16.665  14.328
18604W        W89204  17.777  27.997   1.777
18605W        W89205  19.547  34.403   1.709
18606W        W89206   9.185  15.207  12.837
18607W        W89207  33.398  20.524  13.784
18608W        W89208  33.539   2.072   3.619
18609W        W89209  24.253  39.006  11.402
18610W        W89210   1.989  40.527   0.266
18611W        W89211  20.188  29.001   3.763
18612W        W89212  40.692  36.497   4.141
18613W        W89213   2.224  15.589   1.807
18614W        W89214  14.246  39.865   2.243
18615W        W89215  41.216  26.502  12.090
18616W        W89216  37.572  15.677  12.394
18617W        W89217  19.509  29.209   3.118
18618W        W89218  19.592  33.204  12.349
18619W        W89219   7.374   1.775  13.999
18620W        W89220  23.804  20.242   4.456
18621W        W89221  18.309  41.575  14.500
18622W        W89222  37.415  25.718  13.361
18623W        W89223  38.117   0.328   4.176
18624W        W89224  13.142   9.130   2.640
18625W        W89225  20.203   9.842   1.940
18626W        W89226  37.895  19.610   3.736
18627W        W89227  11.693  25.616   1.369
18628W        W89228   6.697  11.190   1.796
18629W        W89229  28.472  11.948   1.783
18630W        W89230   5.446  39.386   2.284
18631W        W89231  30.380  29.692   0.543
18632W        W89232  32.958   1.925  10.668
18633W        W89233   2.283  36.849   2.844
18634W        W89234  23.751  40.473   2.265
18635W        W89235  25.611   9.674   2.844
18636W        W89236  44.806  37.811   3.661
18637W        W89237  28.265  44.964   1.230
18638W        W89238  31.912  10.701  12.889
18639W        W89239  32.243  11.198  12.919
18640W        W89240  10.798  19.109   1.445
18641W        W89241  29.736  24.122  13.956
18642W        W89242  44.156  17.557  13.578
18643W        W89243   1.060  15.160  12.298
18644W        W89244  11.153  26.194   0.852
18645W        W89245  22.073  40.355   4.736
18646W        W89246  27.269   2.796   3.833
18647W        W89247  13.491  17.780   1.296
18648W        W89248  26.471   9.347   0.934
18649W        W89249  12.739  40.852   2.234
18650W        W89250  13.846  27.220  13.519
18651W        W89251   4.684  17.346  11.565
18652W        W89252  37.951  22.608  13.403
18653W        W89253  29.701  34.467   2.287
18654W        W89254  34.853  33.093   4.106
18655W        W89255   9.809  32.888   0.449
18656W        W89256  16.790  17.659  14.887
18657W        W89257   0.172  41.067   4.901
18658W        W89258  35.374   2.487   1.247
18659W        W89259  38.876  20.987  12.494
18660W        W89260  36.154   1.183  12.950
18661W        W89261  36.609  35.461   1.274
18662W        W89262  31.592   4.423   1.229
18663W        W89263  11.666  31.451   0.071
18664W        W89264  39.950  26.809  11.009
18665W        W89265  20.506  42.005   4.051
18666W        W89266  14.481   5.251  10.737
18667W        W89267  22.266  41.892   2.758
18668W        W89268  34.588  41.330   0.397
18669W        W89269  19.742  19.474  12.778
18670W        W89270  14.376  11.674  14.802
18671W        W89271  37.299  20.007  10.334
18672W        W89272  38.957  22.435  10.635
18673W        W89273  12.830  21.302  14.580
18674W        W89274  40.528  11.819   1.736
18675W        W89275   6.777  44.873  12.549
18676W        W89276  22.822  34.014   4.111
18677W        W89277  17.999  13.757  12.325
18678W        W89278  43.431   5.962  12.861
18679W        W89279  44.727  15.797   2.783
18680W        W89280   5.540  39.229  12.048
18681W        W89281  20.516  21.359  12.686
18682W        W89282  17.087  24.103   2.371
18683W        W89283  39.366   0.751  13.316
18684W        W89284  11.930  32.014  10.253
18685W        W89285   0.608  31.859   5.017
18686W        W89286  37.998  35.931  10.378
18687W        W89287  20.771  19.650   0.035
18688W        W89288   1.299  38.728   1.665
18689W        W89289  40.405  27.408   3.672
18690W        W89290   8.240   4.753  14.270
18691W        W89291  11.381  38.089   0.945
18692W        W89292  37.519  37.812  13.795
18693W        W89293   0.840  14.349   0.367
18694W        W89294  23.669  37.818   3.359
18695W        W89295  13.252  16.595  13.807
18696W        W89296  28.512  38.904   1.879
18697W        W89297   2.965  11.902  14.314
18698W        W89298  39.128  15.985   1.831
18699W        W89299  36.962  37.876   1.751
18700W        W89300  17.696  19.349   0.553
18701W        W89301  26.921  18.358  12.011
18702W        W89302  20.483  41.996  14.386
18703W        W89303  44.796   1.846  12.757
18704W        W89304  17.187  10.859   1.869
18705W        W89305  19.791  23.889   5.092
18706W        W89306  33.450  34.927   1.724
18707W        W89307  41.014  33.036  12.687
18708W        W89308  12.371  30.610   2.778
18709W        W89309  34.047  19.006  13.508
18710W        W89310  23.122  12.249  13.904
18711W        W89311   3.750  38.452  13.787
18712W        W89312  14.764  42.793   0.915
18713W        W89313  33.384  11.704  13.029
18714W        W89314  31.688  31.979   0.307
18715W        W89315  41.859   6.853  10.667
18716W        W89316  40.724  34.820   3.391
18717W        W89317  19.189   9.607  11.489
18718W        W89318  11.773  11.889   5.225
18719W        W89319  16.726  13.094   0.381
18720W        W89320  33.031  41.411  10.798
18721W        W89321   8.744  29.121  11.405
18722W        W89322  32.500  36.565  14.377
18723W        W89323  40.427  40.994  13.630
18724W        W89324   9.704  17.237   4.730
18725W        W89325  19.088   8.713  10.592
18726W        W89326  41.783  23.580  13.447
18727W        W89327  13.383   8.221   2.825
18728W        W89328   6.199  25.684   0.744
18729W        W89329  15.541  37.600  12.028
18730W        W89330  34.551  21.540  11.634
18731W        W89331   5.475   1.854   0.188
18732W        W89332  40.488  37.467   4.140
18733W        W89333   4.579   8.049  11.173
18734W        W89334  25.901  30.070   2.897
18735W        W89335  16.135  37.931  13.894
18736W        W89336  16.840   1.877   1.346
18737W        W89337  11.666  31.099   2.434
18738W        W89338  18.998   3.708   4.114
18739W        W89339  14.864  19.060  13.089
18740W        W89340  17.631   2.655  11.582
18741W        W89341  32.119   4.334   1.147
18742W        W89342  37.223   1.911  11.680
18743W        W89343  16.131   6.397   1.269
18744W        W89344  16.961  33.893  14.513
18745W        W89345  43.855   5.133  12.900
18746W        W89346   6.647  14.748   4.590
18747W        W89347  14.913  33.811   1.813
18748W        W89348   6.584  32.850  11.146
18749W        W89349  21.748  23.544   1.359
18750W        W89350  40.038  11.155   4.741
18751W        W89351  25.475   0.487  11.689
18752W        W89352  37.822   5.062  13.518
18753W        W89353  12.486  39.002   0.469
18754W        W89354   2.293  29.948   0.950
18755W        W89355  36.396  23.131   1.851
18756W        W89356  25.057  35.656   3.246
18757W        W89357  34.825  42.247  12.039
18758W        W89358  14.273  19.577   2.573
18759W        W89359   0.411   5.661  11.420
18760W        W89360   8.395  16.990  13.058
18761W        W89361  27.074   6.451  13.329
18762W        W89362  14.850  12.189  13.490
18763W        W89363   0.239  25.126  13.955
18764W        W89364  27.433  15.085   1.356
18765W        W89365  10.889  10.331   1.702
18766W        W89366  16.840  14.095  12.188
18767W        W89367   5.818  12.056  12.899
18768W        W89368   0.898  23.363   1.769
18769W        W89369  29.602  33.545   1.242
18770W        W89370  25.103   2.637   4.187
18771W        W89371   3.752  32.343   3.691
18772W        W89372  40.384  31.835   1.802
18773W        W89373  13.671   5.207   0.922
18774W        W89374  34.133   2.671   0.416
18775W        W89375  23.529  14.167  14.897
18776W        W89376  38.088  40.031   1.804
18777W        W89377  11.414  41.962   0.959
18778W        W89378  43.827   5.794   2.370
18779W        W89379   5.975  42.909   4.971
18780W        W89380  22.327  19.486  14.584
18781W        W89381  21.525  11.189  12.384
18782W        W89382   5.397  23.308  13.792
18783W        W89383  10.659   5.474  12.564
18784W        W89384  22.092  15.596   2.667
18785W        W89385   4.356   4.447   2.867
18786W        W89386  16.476  42.510  10.685
18787W        W89387  38.119  19.084   5.130
18788W        W89388  27.879  19.930   2.919
18789W        W89389  40.178   3.644   0.320
18790W        W89390  44.715  25.250  14.538
18791W        W89391  26.756  30.521   5.082
18792W        W89392  20.734  31.174  11.440
18793W        W89393  29.945  12.378  13.394
18794W        W89394  39.965   4.321   2.535
18795W        W89395  19.018  43.249   3.719
18796W        W89396  44.213  39.551  13.899
18797W        W89397  35.051  21.716  14.410
18798W        W89398  33.875  38.505  11.704
18799W        W89399  38.270   3.771   3.635
18800W        W89400  29.442  33.974   3.849
18801W        W89401  13.832   0.322  11.236
18802W        W89402  40.456  41.457  13.376
18803W        W89403  11.696  17.696   1.098
18804W        W89404   6.721   6.694  10.391
18805W        W89405  24.998  33.393   0.356
18806W        W89406   1.054  16.897   4.058
18807W        W89407  37.439  35.826   4.801
18808W        W89408  37.102   9.368   1.385
18809W        W89409  17.767  17.143  12.456
18810W        W89410   8.235   0.916  13.276
18811W        W89411  28.398  39.193  11.296
18812W        W89412   4.458  22.738  14.530
18813W        W89413  29.637  30.687   1.523
18814W        W89414  10.834  10.612  13.048
18815W        W89415  44.312   3.446   2.756
18816W        W89416  29.067  31.682   3.734
18817W        W89417  20.023  16.672  10.651
18818W        W89418  30.227  32.165   1.261
18819W        W89419  37.407  23.901  13.341
18820W        W89420  43.404   0.432  12.128
18821W        W89421  19.924  31.468  13.415
18822W        W89422  40.774  26.748   3.729
18823W        W89423   5.400  38.945   0.782
18824W        W89424   1.562  36.496  12.590
18825W        W89425  38.285  39.531  11.502
18826W        W89426  23.148  12.889  12.281
18827W        W89427   6.475  40.932   0.416
18828W        W89428  30.782  14.655  13.056
18829W        W89429   0.931  40.857  10.874
18830W        W89430  43.797  23.156   3.546
18831W        W89431   7.890  33.904   4.782
18832W        W89432  14.245  38.083   2.655
18833W        W89433   3.483  26.031  12.054
18834W        W89434   4.849   0.366   0.400
18835W        W89435  42.920  19.773   2.203
18836W        W89436  40.188  44.949  13.560
18837W        W89437  11.269   0.453  10.905
18838W        W89438  27.916  29.223  12.918
18839W        W89439  30.141  15.153  12.516
18840W        W89440  39.255   5.814   0.833
18841W        W89441  24.177  37.601  13.472
18842W        W89442  39.523  33.162  13.516
18843W        W89443  42.277  21.034  12.150
18844W        W89444  27.930  41.226   4.155
18845W        W89445  37.735   1.446  13.723
18846W        W89446  13.809  41.334   5.020
18847W        W89447  11.729  15.602  13.972
18848W        W89448   2.210  44.281  13.029
18849W        W89449  15.662  33.802  13.985
18850W        W89450  13.883   6.387  13.045
18851W        W89451  44.442  36.441   2.786
18852W        W89452  20.637  40.019   2.605
18853W        W89453  42.860   1.845  11.958
18854W        W89454  28.545  32.075  12.362
18855W        W89455  37.827  36.619  14.955
18856W        W89456  10.976  43.541  12.473
18857W        W89457  16.671  35.781   5.434
18858W        W89458   5.935  34.598   2.178
18859W        W89459   3.495   3.536  11.472
18860W        W89460  34.889  35.610  12.488
18861W        W89461  16.711  12.767  11.616
18862W        W89462  41.265   4.640  10.839
18863W        W89463  34.553  33.543  13.485
18864W        W89464  44.539  33.432   3.159
18865W        W89465   1.013  40.099   3.717
18866W        W89466   0.482  12.712  13.479
18867W        W89467  41.802  17.529  14.832
18868W        W89468  28.027  18.518   4.932
18869W        W89469  25.666  16.693  11.399
18870W        W89470  16.354  30.565   2.942
18871W        W89471  17.775  41.473   0.373
18872W        W89472  20.217  30.534   2.393
18873W        W89473  29.565  18.524   4.111
18874W        W89474  28.097  36.094   3.753
18875W        W89475  36.451   0.263   1.401
18876W        W89476  18.799  22.806   0.916
18877W        W89477  12.784  28.608   0.236
18878W        W89478  31.716  14.344   4.257
18879W        W89479  22.293  19.863  11.507
18880W        W89480  42.348  25.492  10.665
18881W        W89481  29.552  33.114  12.840
18882W        W89482   2.967  15.818   4.334
18883W        W89483  20.039   4.810   1.142
18884W        W89484  37.333  17.619   3.857
18885W        W89485   9.177  12.817   4.046
18886W        W89486  21.862  24.703  10.480
18887W        W89487   5.851  41.489   0.850
18888W        W89488  44.301  10.908  14.525
18889W        W89489  22.820  32.737   0.745
18890W        W89490  44.487  41.790   4.508
18891W        W89491   9.837  30.567  10.967
18892W        W89492  33.578  44.535   2.515
18893W        W89493  20.757  16.897   4.228
18894W        W89494  42.511   2.214  10.705
18895W        W89495  15.651  42.583   1.919
18896W        W89496  12.242  44.033  13.976
18897W        W89497  10.152  19.813  12.677
18898W        W89498  44.270  28.139   1.679
18899W        W89499  25.125  25.789   3.071
18900W        W89500  33.959  12.080  10.557
18901W        W89501  37.035   9.807  13.415
18902W        W89502  27.738  14.574  14.936
18903W        W89503  37.776  26.385  12.600
18904W        W89504  26.073  28.067  14.478
18905W        W89505  34.915  15.560  11.569
18906W        W89506  44.916   7.672   3.594
18907W        W89507  18.558  23.932  13.916
18908W        W89508  38.874  36.601   2.449
18909W        W89509   3.843  20.738  11.175
18910W        W89510  21.046  28.015  13.054
18911W        W89511  11.842  29.168   3.630
18912W        W89512  13.292   0.351  13.463
18913W        W89513  27.121  15.199  11.159
18914W        W89514   1.234  28.558  13.483
18915W        W89515  33.709  11.592  11.235
18916W        W89516   5.849   5.021  12.699
18917W        W89517  25.685  36.617  10.754
18918W        W89518  43.678  37.834  14.900
18919W        W89519  33.987   9.697   0.682
18920W        W89520  44.489  19.182   0.818
18921W        W89521  13.366  33.723   5.101
18922W        W89522  10.780  21.599  12.493
18923W        W89523  18.357  14.100   2.674
18924W        W89524  34.982  30.550  12.117
18925W        W89525  10.470  20.234   2.322
18926W        W89526   9.489  43.513   2.963
18927W        W89527  10.744  40.947   0.311
18928W        W89528   8.251   2.773  11.863
18929W        W89529  31.505   3.941  11.539
18930W        W89530  20.536   6.439  14.009
18931W        W89531  11.599  22.115   0.897
18932W        W89532  40.182  29.940   4.797
18933W        W89533  28.224  36.306   1.459
18934W        W89534  18.212   8.196  10.961
18935W        W89535  44.515   1.369  13.526
18936W        W89536  34.637  43.961   3.217
18937W        W89537   9.018  18.772   4.545
18938W        W89538  36.491  21.981  10.901
18939W        W89539  34.116  36.628  12.114
18940W        W89540  40.704  24.183   4.554
18941W        W89541   4.842  39.861  13.140
18942W        W89542  30.486  32.913  14.493
18943W        W89543  10.999  33.984  12.429
18944W        W89544  30.324  18.934  12.436
18945W        W89545  37.252  10.293  12.445
18946W        W89546  44.283  24.066   3.666
18947W        W89547   3.365  28.933   2.242
18948W        W89548  37.910  44.701   1.812
18949W        W89549  35.179  24.727   2.299
18950W        W89550  32.062  40.358  13.397
18951W        W89551  10.372  43.741   2.199
18952W        W89552  25.111  43.596  11.427
18953W        W89553   5.402   0.056   3.355
18954W        W89554  33.596  32.518  14.886
18955W        W89555  26.158  35.494   4.476
18956W        W89556  16.768  12.585  12.622
18957W        W89557  20.503  15.813  12.953
18958W        W89558  41.064  38.886   3.679
18959W        W89559  23.651  22.099   3.140
18960W        W89560  25.210   4.316  10.701
18961W        W89561  16.606  21.221  11.205
18962W        W89562  31.100  13.256  14.426
18963W        W89563  44.253  14.259  12.132
18964W        W89564  27.955   1.290   0.902
18965W        W89565  44.197   7.660   4.293
18966W        W89566  32.393  40.932   0.713
18967W        W89567  13.280  39.502   3.019
18968W        W89568   0.932  25.217  14.663
18969W        W89569  17.983  29.978  14.973
18970W        W89570  35.430  10.470  12.428
18971W        W89571  15.308  22.248  12.997
18972W        W89572  44.790  16.780   3.601
18973W        W89573  35.037  40.944  12.581
18974W        W89574  18.655  23.594   2.311
18975W        W89575  22.925  26.175  14.881
18976W        W89576  38.000   8.688   3.839
18977W        W89577  25.134  25.053   1.799
18978W        W89578  37.657  36.376   3.729
18979W        W89579  43.789   8.120   4.092
18980W        W89580  36.337  14.202   1.271
18981W        W89581  28.115   3.847   3.230
18982W        W89582   7.411   4.127   1.208
18983W        W89583  29.113  37.639   2.604
18984W        W89584  33.335  13.550  10.414
18985W        W89585  29.502  41.333  12.356
18986W        W89586  23.966   6.217  10.780
18987W        W89587  10.297  15.733   2.846
18988W        W89588  35.283  39.452   0.293
18989W        W89589   1.129  19.583   3.693
18990W        W89590  18.649   9.639  12.369
18991W        W89591   9.236  34.535  13.133
18992W        W89592  27.460  17.301   0.853
18993W        W89593  44.846  38.064   3.200
18994W        W89594  38.039  10.296   3.788
18995W        W89595  43.320  40.924  13.487
18996W        W89596  36.857  33.489  11.207
18997W        W89597  42.421  35.530   3.339
18998W        W89598  24.079  25.561   1.365
18999W        W89599  44.766  12.553  12.920
19000W        W89600  16.083  20.046  14.229
19001W        W89601  38.360  36.061   1.263
19002W        W89602   6.186  42.856   3.184
19003W        W89603  32.995   0.972   1.707
19004W        W89604  37.258  40.672  11.122
19005W        W89605  28.079  23.269   4.751
19006W        W89606  10.011  22.988  14.756
19007W        W89607  25.606  31.795   4.951
19008W        W89608  23.609  38.315   1.397
19009W        W89609  26.021  37.547  12.957
19010W        W89610  29.480   6.762   1.728
19011W        W89611  26.119  10.153   4.183
19012W        W89612   4.383   6.837   0.504
19013W        W89613  36.884  12.411   1.101
19014W        W89614  18.690  42.850   3.658
19015W        W89615  44.346   3.449  12.954
19016W        W89616  26.089  38.410  11.266
19017W        W89617   1.947   8.498   0.561
19018W        W89618   8.657  43.253   3.196
19019W        W89619  11.207  18.767  13.043
19020W        W89620   0.328  18.837  10.692
19021W        W89621  31.137  27.660   4.677
19022W        W89622  20.616  19.917  12.266
19023W        W89623  39.314  27.981   2.432
19024W        W89624  15.329  23.970   0.916
19025W        W89625  13.806  15.227   3.587
19026W        W89626  13.054  21.658   0.957
19027W        W89627  44.032  11.278  11.471
19028W        W89628  30.081   2.802   2.751
19029W        W89629  10.327  11.721  10.463
19030W        W89630   6.744  10.285   0.800
19031W        W89631  33.173  33.560  10.845
19032W        W89632  33.253   2.626  11.984
19033W        W89633  35.332  26.652  13.171
19034W        W89634  11.851  26.610   4.231
19035W        W89635  37.879  26.050   1.358
19036W        W89636  23.258  43.266   0.422
19037W        W89637  33.581  44.151  14.496
19038W        W89638  29.122  44.451   1.381
19039W        W89639  28.611  24.506   4.946
19040W        W89640  13.995  21.815   0.076
19041W        W89641   1.924  40.136  12.674
19042W        W89642   4.196  29.442   3.921
19043W        W89643  41.622  32.485  13.398
19044W        W89644  35.541  17.608   3.809
19045W        W89645  19.334   6.247   3.949
19046W        W89646  32.731  33.172  14.662
19047W        W89647  34.292  27.928  14.325
19048W        W89648  14.887  40.061   0.427
19049W        W89649  40.006  35.883  10.504
19050W        W89650  16.307   8.183   4.577
19051W        W89651   5.778  24.522  12.496
19052W        W89652  33.032  26.089   2.275
19053W        W89653  43.379  13.498  12.464
19054W        W89654  38.351  21.221   2.718
19055W        W89655  39.451  21.962   0.359
19056W        W89656   0.369  14.432   1.301
19057W        W89657  27.268  38.758   3.602
19058W        W89658  18.821  14.363   2.728
19059W        W89659   5.187  38.780  13.853
19060W        W89660  16.252  44.780  13.611
19061W        W89661   5.784   5.411   4.366
19062W        W89662  26.696  23.702   0.323
19063W        W89663  39.835  43.678   4.737
19064W        W89664  42.503  17.989  14.125
19065W        W89665  20.639  33.322   4.682
19066W        W89666   3.823  28.611   3.647
19067W        W89667  22.716  44.321  12.529
19068W        W89668  14.618  12.205   0.717
19069W        W89669  38.453   5.672  10.759
19070W        W89670  12.273  43.338  11.672
19071W        W89671  15.783  35.006  13.881
19072W        W89672   1.660   4.462  10.629
19073W        W89673  36.943  34.906   3.599
19074W        W89674  39.519  44.370  13.882
19075W        W89675  41.491  26.531  10.690
19076W        W89676  37.624   3.173   1.817
19077W        W89677   2.424  14.189   5.059
19078W        W89678   1.841  11.557   4.681
19079W        W89679  28.637  38.088  13.272
19080W        W89680  22.157   6.897   5.508
19081W        W89681  30.812   8.593  12.167
19082W        W89682  23.746  17.668   1.680
19083W        W89683  31.444   6.045   2.352
19084W        W89684  26.916  44.561   3.400
19085W        W89685   2.195  35.829  12.951
19086W        W89686   0.449  30.516  11.086
19087W        W89687  35.038  39.643   4.625
19088W        W89688  25.266  37.621  12.067
19089W        W89689  13.210  27.580  11.786
19090W        W89690  32.051   0.284  14.823
19091W        W89691  36.538  35.948  10.298
19092W        W89692   5.488  36.031   2.344
19093W        W89693  33.559  39.297   2.770
19094W        W89694  41.849  40.872  12.437
19095W        W89695  17.289  21.610   4.111
19096W        W89696  35.069  40.296  13.403
19097W        W89697  34.379  37.835   3.274
19098W        W89698  26.421  44.249   3.297
19099W        W89699  23.288  15.734   0.934
19100W        W89700  39.370  37.637   5.024
19101W        W89701   8.973   1.971   5.050
19102W        W89702   8.657  32.737   1.199
19103W        W89703  23.146  38.598   1.373
19104W        W89704   1.104  15.700   4.580
19105W        W89705  33.671  32.658   5.021
19106W        W89706  21.113  28.126  11.215
19107W        W89707   4.429  10.921   2.188
19108W        W89708   0.037  42.723   1.819
19109W        W89709  28.097  35.340  14.052
19110W        W89710  40.908  13.186  13.852
19111W        W89711   0.687  13.393   2.829
19112W        W89712  29.626  31.435   4.347
19113W        W89713  34.969   5.729  14.270
19114W        W89714  44.960  31.167  10.806
19115W        W89715  41.615  14.178   1.786
19116W        W89716  35.437  37.268  13.842
19117W        W89717  40.818  32.575   3.204
19118W        W89718  11.840  10.107  10.669
19119W        W89719  10.141  13.865   0.219
19120W        W89720  35.764  19.784   4.179
19121W        W89721  21.070  18.190  14.023
19122W        W89722  27.038  17.185  14.360
19123W        W89723  16.514  10.824  14.786
19124W        W89724  37.093  19.163   1.395
19125W        W89725   8.156  15.587   4.927
19126W        W89726   9.674  27.394   2.647
19127W        W89727  30.053   3.301  12.483
19128W        W89728  40.351  41.908  13.612
19129W        W89729  28.042  32.073  12.479
19130W        W89730  25.058  37.794   4.147
19131W        W89731  20.178   8.921  14.583
19132W        W89732  10.673  15.568  14.891
19133W        W89733  39.308  40.801  13.005
19134W        W89734  40.688   9.759  12.522
19135W        W89735  18.515  15.277  13.389
19136W        W89736   7.439   1.545  13.475
19137W        W89737  30.540   1.728   0.509
19138W        W89738  30.090  11.780  14.804
19139W        W89739  36.960  21.748  10.862
19140W        W89740   3.326  13.376   0.386
19141W        W89741  18.571  16.367  12.630
19142W        W89742   8.364   9.114  13.045
19143W        W89743  18.129  41.570  11.313
19144W        W89744   4.262  42.547  12.785
19145W        W89745  25.626  12.938  12.346
19146W        W89746  32.712  34.379   3.752
19147W        W89747  17.328  39.175  13.559
19148W        W89748  44.868   5.689   2.505
19149W        W89749   1.439  21.673  11.481
19150W        W89750   7.147   3.573  11.177
19151W        W89751  33.112  42.830   2.743
19152W        W89752  20.503  21.792   0.965
19153W        W89753  27.949  22.961  11.198
19154W        W89754  29.053   6.778   2.222
19155W        W89755  10.275  19.327  11.524
19156W        W89756  17.635  15.758   1.437
19157W        W89757  37.556  20.480   0.178
19158W        W89758  11.529  29.974  11.947
19159W        W89759  17.449  43.246  14.987
19160W        W89760  33.813  15.010   3.604
19161W        W89761  24.093  28.160   3.470
19162W        W89762   2.405  17.287  10.675
19163W        W89763  21.261  43.229   4.033
19164W        W89764  33.373  35.285  11.082
19165W        W89765  24.757  11.762   0.878
19166W        W89766   8.321  32.023  13.759
19167W        W89767  44.805   8.058   0.229
19168W        W89768   4.660  34.902  13.821
19169W        W89769  19.508   3.360   0.279
19170W        W89770  40.093  36.627   0.787
19171W        W89771   0.910  13.686   2.446
19172W        W89772  14.656  36.969   3.129
19173W        W89773   7.949   4.609   3.542
19174W        W89774  28.327  38.367   9.776
19175W        W89775  30.943  23.464  12.342
19176W        W89776  30.208  23.943   0.380
19177W        W89777  16.216   8.461  11.165
19178W        W89778  35.210  13.914  14.273
19179W        W89779  27.537  26.438   1.769
19180W        W89780  17.085  10.999   9.927
19181W        W89781  11.454  19.037  10.696
19182W        W89782  29.986  39.947   0.730
19183W        W89783  22.145  39.308   0.275
19184W        W89784  35.981  37.907   3.889
19185W        W89785   5.993  28.475   0.905
19186W        W89786  21.328  27.605  13.887
19187W        W89787  44.849  32.480   4.892
19188W        W89788  29.050  23.165  12.581
19189W        W89789  19.812  29.529   0.054
19190W        W89790  33.068  36.703   4.181
19191W        W89791  44.397  20.726  13.342
19192W        W89792  25.462  15.170  10.662
19193W        W89793   5.469  20.698   2.304
19194W        W89794  11.126  31.896  11.234
19195W        W89795  15.865  38.508   1.817
19196W        W89796   2.329  37.960  12.163
19197W        W89797  34.526   6.829   1.008
19198W        W89798  25.792   1.115   4.117
19199W        W89799  27.446  36.719   1.717
19200W        W89800  31.184   0.527   0.864
19201W        W89801  27.739  34.794  12.509
19202W        W89802  19.057   1.246  10.810
19203W        W89803  33.920  18.738   2.130
19204W        W89804  13.641   4.840  10.712
19205W        W89805  22.499  41.414   2.132
19206W        W89806  42.623  10.129   0.064
19207W        W89807  41.344   0.074   4.225
19208W        W89808  37.313   1.160   2.726
19209W        W89809  27.978  42.932   3.776
19210W        W89810  23.816   4.839   1.365
19211W        W89811  28.351  42.085  14.829
19212W        W89812  15.281  10.772   0.274
19213W        W89813  19.041  11.529  14.537
19214W        W89814  36.432  15.180  11.099
19215W        W89815  14.767  10.220   4.537
19216W        W89816  14.064   1.724   4.849
19217W        W89817  41.490  38.670  11.650
19218W        W89818  30.884  43.048   3.267
19219W        W89819  39.259  15.589   2.925
19220W        W89820  36.104  28.673   1.718
19221W        W89821  33.184  26.106   4.806
19222W        W89822  12.355  27.748  11.558
19223W        W89823  41.092  27.105   1.725
19224W        W89824  18.977  18.383  11.584
19225W        W89825  41.635  18.775  12.715
19226W        W89826  22.259   7.203  13.097
19227W        W89827   2.949  26.473  14.305
19228W        W89828  39.551   1.573  13.001
19229W        W89829  18.074  29.567  10.791
19230W        W89830   8.823  28.891   0.424
19231W        W89831   4.732  26.987  13.774
19232W        W89832  44.355  11.321  11.846
19233W        W89833  25.539   8.418  14.590
19234W        W89834  39.507  14.776   0.494
19235W        W89835  31.127  23.482   2.855
19236W        W89836   5.400  23.802   3.258
19237W        W89837  37.522  10.363  12.007
19238W        W89838  15.176  16.755   4.975
19239W        W89839  37.045  41.961  13.956
19240W        W89840  26.783  40.233  11.088
19241W        W89841  16.559   4.891   0.695
19242W        W89842  44.080  26.414  11.349
19243W        W89843  21.017   8.322  12.122
19244W        W89844  38.863  36.638  12.700
19245W        W89845  15.143  12.150  10.178
19246W        W89846  35.568  20.973   4.569
19247W        W89847  19.148   0.898  13.993
19248W        W89848  32.088  35.108  10.642
19249W        W89849  19.876   7.292   4.970
19250W        W89850  27.530  17.574   3.561
19251W        W89851  27.993  40.376  14.889
19252W        W89852  24.463  17.720   3.619
19253W        W89853  18.197  16.283   0.369
19254W        W89854  32.632  33.619   1.345
19255W        W89855  43.232  31.865   1.869
19256W        W89856  34.016  31.974  11.580
19257W        W89857   0.771  17.704  12.008
19258W        W89858  41.266  22.119   4.739
19259W        W89859  26.584   2.352  12.034
19260W        W89860  18.030   8.865  12.650
19261W        W89861  20.576  34.353  12.160
19262W        W89862  19.522  10.652   4.650
19263W        W89863   7.299  23.715  14.524
19264W        W89864   6.246  17.515   2.340
19265W        W89865  12.349  32.204  13.422
19266W        W89866  25.211  15.627   4.105
19267W        W89867   1.089  34.899  11.139
19268W        W89868  22.744  37.912   0.948
19269W        W89869  31.140  13.084   3.806
19270W        W89870  42.067  42.188   4.350
19271W        W89871  36.062  43.892   4.829
19272W        W89872  32.926  34.156  12.502
19273W        W89873  11.377  42.805  10.610
19274W        W89874  41.048   7.465  10.598
19275W        W89875  36.409  38.451   0.791
19276W        W89876  12.354  11.732   1.213
19277W        W89877   9.619  17.345  13.408
19278W        W89878  41.902  27.056  12.153
19279W        W89879  40.234  44.387   3.316
19280W        W89880  27.880  27.630  14.805
19281W        W89881   1.875   7.216  14.027
19282W        W89882  35.897  18.696  11.201
19283W        W89883   0.782  43.326  14.469
19284W        W89884  11.645   2.692   1.705
19285W        W89885  14.785   6.511   2.800
19286W        W89886   4.319  14.645  12.286
19287W        W89887  43.326   5.403   0.843
19288W        W89888  33.337  25.158   4.856
19289W        W89889  44.133  12.533   3.716
19290W        W89890  30.134  32.197  14.120
19291W        W89891  29.663  33.868  14.307
19292W        W89892  27.578  21.667   3.710
19293W        W89893   4.494  36.868   1.280
19294W        W89894  33.600  10.277  14.411
19295W        W89895   8.712  26.766  10.532
19296W        W89896   2.361  17.609   3.735
19297W        W89897   4.761   2.049   2.179
19298W        W89898   6.179  28.239   2.210
19299W        W89899   9.163  43.832  13.606
19300W        W89900  21.799  26.115  13.265
19301W        W89901  36.122  31.591  12.005
19302W        W89902  36.370  27.216   4.092
19303W        W89903  34.647  28.769  14.390
19304W        W89904  11.251  43.362   4.688
19305W        W89905  30.417  33.306  11.583
19306W        W89906  21.611  10.107   4.031
19307W        W89907  18.082  19.465  14.777
19308W        W89908  34.426  27.036   3.711
19309W        W89909   9.604  23.463  11.623
19310W        W89910  16.329  28.432  10.359
19311W        W89911  32.639   9.309  12.088
19312W        W89912   9.282  12.359  10.855
19313W        W89913  29.139   9.871   0.418
19314W        W89914  28.454  39.859  12.092
19315W        W89915  36.395   1.980  12.324
19316W        W89916  19.595  29.103   5.165
19317W        W89917  41.886  18.542  14.894
19318W        W89918  38.771   6.723   4.140
19319W        W89919   2.965  15.819  12.196
19320W        W89920  11.344   7.372   4.638
19321W        W89921  35.401  43.901   4.125
19322W        W89922  24.086  20.148  13.289
19323W        W89923  39.383   3.663   1.549
19324W        W89924   8.644  32.443   4.066
19325W        W89925   6.337  15.810  11.122
19326W        W89926   9.980   7.033   1.288
19327W        W89927  31.546  15.364  12.447
19328W        W89928  37.674  23.936  14.314
19329W        W89929  40.929   8.004   2.868
19330W        W89930   6.237  25.543  13.746
19331W        W89931  11.958  44.749   4.461
19332W        W89932  31.166  20.333   0.185
19333W        W89933  21.019  18.221   2.758
19334W        W89934   8.070  26.925   1.455
19335W        W89935  44.055  34.395   0.914
19336W        W89936  28.620  14.745   4.861
19337W        W89937  13.383   5.902  12.472
19338W        W89938  30.747  23.111  10.995
19339W        W89939  42.084  16.623   2.903
19340W        W89940  19.506   3.828  10.877
19341W        W89941  12.182  19.530   0.505
19342W        W89942  31.387  17.738  13.327
19343W        W89943   6.023  24.763   2.476
19344W        W89944  35.867  18.638   4.797
19345W        W89945  39.502  28.703   1.438
19346W        W89946  23.707  21.380  14.512
19347W        W89947  25.587  24.924  11.087
19348W        W89948  43.792   0.986  13.876
19349W        W89949  18.025  39.226   2.442
19350W        W89950  41.556  19.987   1.839
19351W        W89951  26.707   0.981  12.905
19352W        W89952  32.999   2.885  11.570
19353W        W89953   4.886  29.205   3.873
19354W        W89954  18.624  17.984  11.192
19355W        W89955   0.713  13.330   5.011
19356W        W89956  27.873  28.187   0.124
19357W        W89957   1.178   2.845  14.108
19358W        W89958  10.412  26.612   2.910
19359W        W89959  21.584  40.188   3.124
19360W        W89960   0.713  40.402   4.470
19361W        W89961  22.002  25.945  13.723
19362W        W89962  19.314  30.601   2.690
19363W        W89963   2.358  38.362   3.260
19364W        W89964   3.969   6.678   3.251
19365W        W89965  21.708  43.573   2.894
19366W        W89966   5.225  25.513   0.870
19367W        W89967  23.458   9.392  14.383
19368W        W89968   0.990  19.244  11.179
19369W        W89969  33.990  33.102   0.323
19370W        W89970  32.394  38.667   4.116
19371W        W89971  22.060  30.974   0.832
19372W        W89972  30.538   9.192   3.774
19373W        W89973  20.692  23.578   0.018
19374W        W89974  27.503  23.034   1.897
19375W        W89975  39.152  11.706  11.505
19376W        W89976  34.547  17.047  10.673
19377W        W89977  13.276  34.457  12.641
19378W        W89978  18.696  36.445  10.748
19379W        W89979  18.567  30.651  14.947
19380W        W89980  14.589  37.414   4.009
19381W        W89981  23.189  30.654   0.354
19382W        W89982  23.176  24.142  12.379
19383W        W89983  20.245  34.527  11.593
19384W        W89984  18.632  25.194   4.479
19385W        W89985   5.884  12.577  11.563
19386W        W89986  10.753  43.550   1.893
19387W        W89987  19.520  43.272   1.658
19388W        W89988   7.803   3.081   3.211
19389W        W89989  18.623  35.372  11.560
19390W        W89990  28.184  44.358   2.656
19391W        W89991   0.856  43.411  11.981
19392W        W89992   7.103  28.162   3.728
19393W        W89993   6.947  43.759   1.307
19394W        W89994  11.645  21.093  12.134
19395W        W89995  31.149  20.553   4.622
19396W        W89996  40.090  23.297  13.785
19397W        W89997  30.659  26.334   0.429
19398W        W89998  39.458  43.305   0.825
19399W        W89999  15.261  16.809   4.064
19400W        W90000  44.930  43.580  13.276
19401W        W90001   0.214  16.277   1.368
19402W        W90002  32.416  42.379  14.043
19403W        W90003  20.847   4.832  12.331
19404W        W90004  10.087   3.294  14.408
19405W        W90005  11.822   7.173  13.434
19406W        W90006  42.182  39.982  14.508
19407W        W90007   9.956  37.648   2.358
19408W        W90008  17.761  36.370   3.535
19409W        W90009  24.901  40.566   3.834
19410W        W90010  44.379   0.331  13.576
19411W        W90011  14.824  17.620   3.585
19412W        W90012  26.743  44.462  10.524
19413W        W90013   4.611  10.107  11.973
19414W        W90014  22.199   3.482  12.012
19415W        W90015  31.994  31.090   3.168
19416W        W90016   9.201  44.847  14.747
19417W        W90017  41.848  24.659  10.575
19418W        W90018  41.402  18.704  11.753
19419W        W90019  16.642  15.831  11.085
19420W        W90020  37.977   6.631  11.570
19421W        W90021   7.131  24.264   1.169
19422W        W90022  22.862   5.234  14.695
19423W        W90023  35.597  41.286   0.387
19424W        W90024   2.926  29.648  13.828
19425W        W90025  15.160   1.334   3.625
19426W        W90026  38.922  36.085  10.650
19427W        W90027  19.550  34.255  11.341
19428W        W90028  13.335  30.895   4.501
19429W        W90029  26.171  31.088   4.563
19430W        W90030  40.415   2.791  11.388
19431W        W90031  10.607  37.208   2.886
19432W        W90032  37.444  38.525   3.331
19433W        W90033   6.706  21.977   1.300
19434W        W90034  22.581  19.070  12.960
19435W        W90035  26.746  37.384   3.631
19436W        W90036   8.522   4.881  13.840
19437W        W90037  33.347   3.276   1.962
19438W        W90038  32.145   7.529   4.184
19439W        W90039  12.013  32.988  12.477
19440W        W90040  25.661  22.821   3.196
19441W        W90041  39.887  12.398   1.111
19442W        W90042  20.241  15.228  14.103
19443W        W90043  40.831  40.764  13.422
19444W        W90044  12.700   7.724   0.469
19445W        W90045   1.001  32.721   2.433
19446W        W90046  13.240  30.039   2.885
19447W        W90047  11.607  19.131  14.465
19448W        W90048  43.478  22.038   2.255
19449W        W90049   1.842  16.641   4.344
19450W        W90050  15.575   0.360   1.006
19451W        W90051  10.112  18.544  14.915
19452W        W90052  28.175   8.119   4.393
19453W        W90053   3.941  27.436  11.412
19454W        W90054  16.521   1.462   1.359
19455W        W90055  19.306   2.393  14.964
19456W        W90056  12.662  36.449  14.673
19457W        W90057  33.606  41.010  10.468
19458W        W90058  10.745  43.771  11.542
19459W        W90059   8.859  22.193   1.964
19460W        W90060  12.707  28.689   4.283
19461W        W90061  29.001  29.956  13.294
19462W        W90062  38.673  23.086   1.342
19463W        W90063  34.955  31.600   2.327
19464W        W90064  39.750  12.838   3.750
19465W        W90065   9.614  16.791   2.406
19466W        W90066   8.784   2.728   2.215
19467W        W90067  24.445  31.035   2.700
19468W        W90068   5.235  19.532   3.407
19469W        W90069  27.493  10.333  14.279
19470W        W90070  42.962  29.639   4.620
19471W        W90071  15.364  33.349  10.226
19472W        W90072  36.812  44.481   5.052
19473W        W90073  26.865  36.381  12.435
19474W        W90074  43.900  11.088  10.635
19475W        W90075   8.667  20.701   2.960
19476W        W90076   9.902  37.569   3.724
19477W        W90077  36.904  28.945   0.344
19478W        W90078  12.856  34.008   2.755
19479W        W90079  23.080  23.975  10.687
19480W        W90080  33.483  11.742   2.791
19481W        W90081  37.237  17.160   4.103
19482W        W90082  15.719  33.274  11.993
19483W        W90083  13.383   6.819  12.885
19484W        W90084  12.313   9.356  11.635
19485W        W90085  16.133  37.535  14.245
19486W        W90086  22.068  19.300  14.990
19487W        W90087  26.277   2.109   3.150
19488W        W90088  28.629  41.901   0.214
19489W        W90089  34.277  25.992   3.660
19490W        W90090   1.478  10.265  10.677
19491W        W90091  39.388  32.391   2.227
19492W        W90092  14.561  22.442   4.289
19493W        W90093   3.985  21.129   2.346
19494W        W90094  31.670  28.553  10.442
19495W        W90095  28.379  10.621   0.429
19496W        W90096  18.259  42.157   3.331
19497W        W90097  36.885  41.448  14.605
19498W        W90098   1.994   6.372   4.260
19499W        W90099  25.161  12.560   0.638
19500W        W90100   9.886  28.518   4.551
19501W        W90101  21.070  43.279  10.687
19502W        W90102   8.742  26.495   1.954
19503W        W90103  44.999   2.695   4.125
19504W        W90104  41.128   2.780  13.891
19505W        W90105  21.500  36.591  14.834
19506W        W90106  41.372  39.013   4.545
19507W        W90107  31.053  38.726   4.917
19508W        W90108  21.068  27.174  13.893
19509W        W90109   0.250  24.374  11.105
19510W        W90110  11.366   8.866  14.986
19511W        W90111  43.446   6.531  12.934
19512W        W90112  36.244  11.779   3.696
19513W        W90113  29.762  18.129  12.055
19514W        W90114  41.931  13.105  14.057
19515W        W90115  10.911   4.478  13.268
19516W        W90116  30.095  43.752  13.992
19517W        W90117   8.887   8.437   2.343
19518W        W90118  36.147   5.152   1.232
19519W        W90119  44.527  15.680   4.052
19520W        W90120  40.725  43.899  12.384
19521W        W90121   7.225  13.477  12.196
19522W        W90122  42.615  12.524  10.276
19523W        W90123   8.000  25.086   2.853
19524W        W90124   7.820  32.073  12.525
19525W        W90125   9.468  10.326  12.345
19526W        W90126   5.220  22.666  11.910
19527W        W90127  22.450  35.420  13.493
19528W        W90128  11.285  41.504   0.290
19529W        W90129  40.388  27.419   4.415
19530W        W90130  21.465  24.410   4.604
19531W        W90131  27.444  34.035  12.942
19532W        W90132  22.183   5.233   1.461
19533W        W90133  43.841  38.765   4.804
19534W        W90134  26.202  30.853  13.908
19535W        W90135  20.079   3.129  11.390
19536W        W90136  20.865  11.165   1.873
19537W        W90137  21.297   8.398  14.825
19538W        W90138  21.298   1.474   1.916
19539W        W90139  29.975  26.002  14.518
19540W        W90140  36.583  26.088  13.955
19541W        W90141   0.753  43.473  14.971
19542W        W90142   5.978   1.918  13.819
19543W        W90143  11.618  28.451   2.797
19544W        W90144  20.090  36.856   2.278
19545W        W90145  27.504  18.504   4.075
19546W        W90146  44.027  11.714   0.406
19547W        W90147  41.937  14.528  10.527
19548W        W90148   9.380  40.441  13.350
19549W        W90149  42.362   4.920   0.020
19550W        W90150  15.585  34.319  12.129
19551W        W90151   3.901  10.711  14.674
19552W        W90152  25.492  34.509   2.778
19553W        W90153  21.056   5.876  12.384
19554W        W90154  34.890  37.436   3.660
19555W        W90155   5.250  28.485   1.358
19556W        W90156  32.101  31.941  12.657
19557W        W90157   3.787  36.093   0.651
19558W        W90158  25.205  39.877  11.606
19559W        W90159  36.935  30.137  14.561
19560W        W90160  26.493  17.617  14.014
19561W        W90161  28.970   7.848  12.557
19562W        W90162  23.185  21.829   3.200
19563W        W90163  23.187  24.723   3.708
19564W        W90164  24.203  26.012   2.609
19565W        W90165   2.252  41.571   2.383
19566W        W90166  15.899   0.435   2.475
19567W        W90167  42.423  28.395   3.732
19568W        W90168  40.726  36.898   2.808
19569W        W90169  36.717  27.405   1.365
19570W        W90170  20.586   0.716  11.946
19571W        W90171  28.051  43.950  11.182
19572W        W90172  25.011  27.630  13.624
19573W        W90173   7.403   4.236   4.940
19574W        W90174   3.028  23.329   4.277
19575W        W90175  27.814   8.420   3.665
19576W        W90176  19.738   1.876  11.416
19577W        W90177  26.897   6.889  12.522
19578W        W90178  11.563  29.564   4.070
19579W        W90179  25.166   4.948   0.756
19580W        W90180  11.067   6.653   4.169
19581W        W90181  31.176  19.043  11.569
19582W        W90182   2.770   9.794  13.547
19583W        W90183  29.700   4.990   4.701
19584W        W90184  16.142  22.609   3.230
19585W        W90185  35.934  20.254   0.793
19586W        W90186  26.592   5.742  14.284
19587W        W90187  38.023  11.351  12.584
19588W        W90188  25.744   4.720   1.319
19589W        W90189  21.267  18.168  10.736
19590W        W90190  24.251  32.433  10.472
19591W        W90191  15.596   2.652   5.027
19592W        W90192  27.085   5.792   3.190
19593W        W90193  37.388   6.253   2.329
19594W        W90194  24.203   3.479  12.098
19595W        W90195  31.566  41.791  11.924
19596W        W90196  12.193  29.720  10.712
19597W        W90197   5.922  34.139  12.523
19598W        W90198   5.107  36.978  11.159
19599W        W90199  35.895  10.570   4.362
19600W        W90200  36.831  44.037   1.440
19601W        W90201  18.188   7.264  10.976
19602W        W90202  40.489  13.108  11.169
19603W        W90203  31.732  29.440  10.872
19604W        W90204  11.985  33.731  13.901
19605W        W90205   7.156  30.581   1.367
19606W        W90206  34.196   5.673  10.645
19607W        W90207   7.236  33.856  12.622
19608W        W90208   5.977  20.126  12.005
19609W        W90209  19.257  27.494  13.853
19610W        W90210  20.821  16.867   0.940
19611W        W90211  30.322  18.347  13.184
19612W        W90212  31.085  26.975  10.923
19613W        W90213  44.793   1.781   0.979
19614W        W90214   1.863   5.869   2.417
19615W        W90215   4.735   9.029  11.066
19616W        W90216  41.859  29.344   2.157
19617W        W90217  26.933  22.487   2.888
19618W        W90218  43.851  37.787  10.630
19619W        W90219  27.519   9.865  13.322
19620W        W90220  43.689  25.554   0.434
19621W        W90221  38.864   0.991  12.466
19622W        W90222  25.034  17.751  14.091
19623W        W90223  44.978   4.706  10.811
19624W        W90224  20.968  17.105  11.156
19625W        W90225  23.026  37.909   4.849
19626W        W90226  34.843  27.118   4.688
19627W        W90227  37.942  24.472   3.209
19628W        W90228  32.196   6.571   0.565
19629W        W90229  42.444  21.927  14.755
19630W        W90230  30.890   2.649   2.932
19631W        W90231  37.879  15.052   1.359
19632W        W90232  14.833  33.138   2.625
19633W        W90233  32.670  25.651  13.814
19634W        W90234  16.242  44.303   4.572
19635W        W90235   0.063  33.985  14.864
19636W        W90236   3.359   2.280  12.050
19637W        W90237   0.457  24.808   2.889
19638W        W90238  30.689  17.952   0.600
19639W        W90239  36.086  13.625   4.360
19640W        W90240  21.660  42.502  10.941
19641W        W90241  38.578   4.933  12.136
19642W        W90242  13.196   2.347  10.721
19643W        W90243  22.303   8.146  13.284
19644W        W90244  35.592   1.449   4.868
19645W        W90245  30.331  11.942   2.213
19646W        W90246  14.213  33.048  10.802
19647W        W90247  22.727  14.870  10.481
19648W        W90248  31.634  15.857  13.394
19649W        W90249  36.918   2.443   3.793
19650W        W90250  26.654  17.026   2.870
19651W        W90251   8.602  36.536   4.487
19652W        W90252  43.564   9.887   0.570
19653W        W90253   5.456  22.210   4.432
19654W        W90254   2.506  37.274   0.347
19655W        W90255  20.625  16.348  14.886
19656W        W90256   1.906  35.904  14.136
19657W        W90257  13.551  32.975   2.288
19658W        W90258  37.133  26.062   0.279
19659W        W90259   1.202  12.588  12.459
19660W        W90260  17.116  37.102  10.037
19661W        W90261  16.553  43.355   5.014
19662W        W90262  25.618  24.679  13.872
19663W        W90263   2.586   9.558  12.877
19664W        W90264  42.744  31.428  10.998
19665W        W90265  32.887  16.579  10.563
19666W        W90266  33.052  13.355  13.127
19667W        W90267  36.994  44.583   2.705
19668W        W90268  25.932  10.294   0.838
19669W        W90269   8.839  22.481  12.128
19670W        W90270  27.257   5.841   3.672
19671W        W90271  18.747  35.574   0.775
19672W        W90272  44.450  39.957  12.595
19673W        W90273  27.821  36.524   3.817
19674W        W90274  33.074  37.132  11.876
19675W        W90275   2.953  34.993  13.402
19676W        W90276   0.022  32.547   3.237
19677W        W90277  32.085  44.117   5.028
19678W        W90278  24.015  27.951   2.582
19679W        W90279  37.395  29.209  14.813
19680W        W90280  13.740  12.658   0.485
19681W        W90281  34.487  25.912  14.363
19682W        W90282  19.422   4.292   2.679
19683W        W90283   9.891  30.111   3.806
19684W        W90284  19.026  17.324  14.320
19685W        W90285  43.021  33.059  14.879
19686W        W90286   9.358   5.085   2.287
19687W        W90287   9.036   7.571  10.271
19688W        W90288  34.630  16.710  11.991
19689W        W90289  36.521  29.450  13.444
19690W        W90290  16.246  30.380   0.664
19691W        W90291   4.646  11.438  14.130
19692W        W90292  37.002  42.396   2.277
19693W        W90293   3.322  24.352  11.496
19694W        W90294  37.081  41.965  12.613
19695W        W90295  44.512  40.428   1.904
19696W        W90296   6.324  40.485  10.469
19697W        W90297  21.166  30.699   1.850
19698W        W90298  18.917  31.686   1.355
19699W        W90299  43.490  28.199   2.196
19700W        W90300  19.329  32.381  12.548
19701W        W90301  39.917  13.286   3.170
19702W        W90302   2.123  44.823   2.611
19703W        W90303  19.827  38.362   2.939
19704W        W90304  42.604  44.754  14.894
19705W        W90305  44.209  29.079  14.739
19706W        W90306  37.577  40.334   2.911
19707W        W90307  40.435  36.504   1.668
19708W        W90308  13.200   2.134  12.963
19709W        W90309  18.696  28.554   0.895
19710W        W90310   0.241   5.921   3.435
19711W        W90311  17.701   8.825  11.111
19712W        W90312  39.407  44.253  12.578
19713W        W90313  40.791   0.721   2.184
19714W        W90314   5.815  35.571  12.560
19715W        W90315   9.718  29.436   4.720
19716W        W90316   7.762  39.906  12.822
19717W        W90317  23.521  34.309   1.816
19718W        W90318  18.859  29.993  12.996
19719W        W90319  11.489   4.796  12.508
19720W        W90320  25.834  28.016   1.362
19721W        W90321  29.858   9.884  14.386
19722W        W90322  13.457  32.936   3.233
19723W        W90323  16.786   3.053   4.256
19724W        W90324  38.939   3.337   4.638
19725W        W90325  23.614  16.547  12.523
19726W        W90326   8.471  29.787  12.364
19727W        W90327  36.223  30.193   1.789
19728W        W90328  21.236  34.099  10.635
19729W        W90329  13.241   4.842  11.168
19730W        W90330  23.273  29.747  11.036
19731W        W90331  23.574  30.620   1.372
19732W        W90332  19.651   9.393   0.330
19733W        W90333  28.648  37.346  12.571
19734W        W90334  36.355  28.483  12.491
19735W        W90335   8.779   8.225  11.072
19736W        W90336   9.510   7.798   4.034
19737W        W90337   3.260  33.973  10.824
19738W        W90338  32.100   4.179  14.699
19739W        W90339  43.065  20.732  11.940
19740W        W90340  39.809  16.223   2.679
19741W        W90341  29.025  15.577   2.887
19742W        W90342  13.062  32.058   1.776
19743W        W90343  39.131  30.467   1.750
19744W        W90344  22.480  23.049   1.919
19745W        W90345  12.223  21.942  11.101
19746W        W90346  26.414  44.314  14.399
19747W        W90347  14.262  31.584  10.519
19748W        W90348   9.136  28.608  14.711
19749W        W90349  37.870   2.465   3.855
19750W        W90350  32.937   4.376  12.480
19751W        W90351   0.497  28.590   3.653
19752W        W90352   4.043  30.800   4.989
19753W        W90353  24.283  31.793   4.595
19754W        W90354  43.395   0.313  11.603
19755W        W90355   3.819  18.114  12.414
19756W        W90356  30.537   8.549   0.254
19757W        W90357  41.839  30.490  14.745
19758W        W90358  40.416  27.498  11.408
19759W        W90359  31.863  35.463  12.524
19760W        W90360  23.521  31.384   3.252
19761W        W90361  19.458   8.602   1.598
19762W        W90362  15.260  38.112  12.276
19763W        W90363  38.796  30.941  12.858
19764W        W90364  37.628  10.076  11.163
19765W        W90365  37.760   5.244   3.983
19766W        W90366  14.229  13.536  13.790
19767W        W90367  24.166  28.593   0.969
19768W        W90368   0.007  35.039  10.208
19769W        W90369  24.261   0.856  10.163
19770W        W90370  10.637  35.365   1.265
19771W        W90371  27.438  30.047  12.939
19772W        W90372  37.558  18.330   2.680
19773W        W90373   9.937  23.694  11.313
19774W        W90374  27.241   8.518  12.375
19775W        W90375   2.970   2.022  12.730
19776W        W90376  29.726  12.417  12.363
19777W        W90377  14.773  31.940  13.358
19778W        W90378  23.123  33.851  10.502
19779W        W90379  13.780   6.940  10.618
19780W        W90380  33.574  15.299   2.593
19781W        W90381  21.955  24.693   3.195
19782W        W90382  44.964  24.988   0.534
19783W        W90383  21.651  20.723  12.602
19784W        W90384  28.643  16.328  14.364
19785W        W90385  36.288   0.799   2.339
19786W        W90386   6.101  37.990   2.587
19787W        W90387  40.289  30.578  14.400
19788W        W90388  31.665  18.748  13.785
19789W        W90389  11.304  15.347  13.802
19790W        W90390  16.573  13.845  13.425
19791W        W90391  15.409  32.751  11.481
19792W        W90392  13.772  44.471   0.761
19793W        W90393  39.622  42.183   1.832
19794W        W90394  37.835  19.239  10.632
19795W        W90395   1.927   2.972  10.611
19796W        W90396  24.712  11.662  14.752
19797W        W90397  36.837   4.737   2.299
19798W        W90398  33.707  24.615   0.900
19799W        W90399  10.340  28.689  12.150
19800W        W90400  11.851  22.664  13.320
19801W        W90401  23.121  12.675  14.739
19802W        W90402  20.775  10.360   4.285
19803W        W90403  25.047  41.444   3.355
19804W        W90404   1.349   7.432   0.420
19805W        W90405   5.716  27.614   1.764
19806W        W90406   0.942  33.593   2.805
19807W        W90407  35.143  24.306  12.702
19808W        W90408  22.227  16.733  14.319
19809W        W90409  43.273  14.691   4.523
19810W        W90410  31.444  37.987  11.440
19811W        W90411  15.440  36.434  13.054
19812W        W90412  36.423  38.307  13.286
19813W        W90413  15.011  32.869   0.294
19814W        W90414  22.050  23.812   1.713
19815W        W90415   7.884  17.061  11.989
19816W        W90416  41.595  10.840   0.870
19817W        W90417  42.966   8.683   1.869
19818W        W90418  40.582   7.881   4.596
19819W        W90419   9.616  21.311   1.329
19820W        W90420  30.111  16.629  13.825
19821W        W90421  25.629  14.789   0.712
19822W        W90422  37.556  37.812   1.219
19823W        W90423  37.497   6.235  12.874
19824W        W90424  37.968  39.522   2.761
19825W        W90425  26.010  37.916  13.784
19826W        W90426  21.809   3.871   0.367
19827W        W90427  26.943  12.749   1.381
19828W        W90428  16.519  40.792   1.148
19829W        W90429   4.269  44.766   4.122
19830W        W90430  37.959  15.377  12.623
19831W        W90431   2.946   9.403   0.326
19832W        W90432  10.545  16.738   2.702
19833W        W90433  31.023  20.757   2.277
19834W        W90434  27.557  32.698   1.733
19835W        W90435  16.622  31.872  13.931
19836W        W90436  23.381  31.265  12.081
19837W        W90437  18.363   5.698  12.387
19838W        W90438  44.449  35.093   4.638
19839W        W90439   5.748   1.423   0.997
19840W        W90440  21.742   7.877  12.503
19841W        W90441   9.722   3.216   0.064
19842W        W90442  31.366  31.977   1.822
19843W        W90443  22.644   0.850   3.684
19844W        W90444  36.505  14.091  13.571
19845W        W90445   9.907  42.338   0.266
19846W        W90446  43.213  37.118   0.332
19847W        W90447  19.112  34.111  10.265
19848W        W90448  39.895  36.948  11.575
19849W        W90449  32.062  29.058  10.981
19850W        W90450  23.798  15.361  11.945
19851W        W90451  17.715  33.099  13.052
19852W        W90452  30.416  43.988   4.816
19853W        W90453  38.125   5.978   0.195
19854W        W90454   0.132  24.567  13.381
19855W        W90455   4.134  17.284   3.828
19856W        W90456  14.831  22.009   0.342
19857W        W90457  31.109   3.820  14.085
19858W        W90458   5.399  13.578  14.460
19859W        W90459  15.973  37.464   3.284
19860W        W90460  19.759  11.983  13.503
19861W        W90461  29.194  33.417  11.033
19862W        W90462  26.158  39.451  11.716
19863W        W90463   4.206   2.138   1.169
19864W        W90464  25.460  25.110  14.703
19865W        W90465  27.648  37.020   3.935
19866W        W90466  41.272   8.696   4.603
19867W        W90467  25.683   1.692  10.864
19868W        W90468  33.885  11.436  13.992
19869W        W90469   1.690   3.274  12.454
19870W        W90470   3.756  24.174   4.067
19871W        W90471  35.490  13.108   2.350
19872W        W90472  39.465  23.679  12.550
19873W        W90473   2.820   7.193  14.183
19874W        W90474  35.136  38.842   3.545
19875W        W90475  18.193  10.652   2.722
19876W        W90476  43.532   3.136   5.000
19877W        W90477  41.365  38.470   2.315
19878W        W90478   4.482  37.363   2.052
19879W        W90479  44.682  18.583  14.898
19880W        W90480   1.934  41.307   2.022
19881W        W90481  12.296  41.531   4.601
19882W        W90482  40.410  21.158  13.494
19883W        W90483  22.990  23.327   0.854
19884W        W90484  15.211   7.002  14.285
19885W        W90485  39.023   7.812   4.622
19886W        W90486  42.061  40.974  12.921
19887W        W90487  43.992  11.313   1.775
19888W        W90488  29.609  25.882  13.017
19889W        W90489   0.257   9.828   1.922
19890W        W90490  33.628  44.942  11.144
19891W        W90491  23.243  23.305  12.067
19892W        W90492   7.644   9.690   4.232
19893W        W90493  31.641  18.734  10.822
19894W        W90494  19.555  42.691  14.265
19895W        W90495  43.545  33.557   3.293
19896W        W90496  13.699  43.808  12.114
19897W        W90497  12.853  12.095  11.545
19898W        W90498  38.511   2.138  14.617
19899W        W90499  14.136  44.830   2.400
19900W        W90500  15.844  33.908   0.920
19901W        W90501  39.793   9.231  14.420
19902W        W90502   5.228  24.571   4.598
19903W        W90503   7.900  43.469  11.159
19904W        W90504  16.048  12.672   0.872
19905W        W90505   6.902  23.889  14.226
19906W        W90506  26.251  26.476  12.149
19907W        W90507  31.829  35.412   4.196
19908W        W90508  14.330  20.902  14.925
19909W        W90509  29.233  18.059  10.927
19910W        W90510  21.158  24.913   0.466
19911W        W90511   3.835  10.825   1.695
19912W        W90512  40.048  44.247   1.887
19913W        W90513   5.861  31.628  11.015
19914W        W90514   1.258  39.543  13.604
19915W        W90515  34.624  43.420  11.521
19916W        W90516  39.223  40.949   1.688
19917W        W90517  18.180  27.723   1.229
19918W        W90518   2.461   3.827  13.602
19919W        W90519  18.189   4.916   3.062
19920W        W90520  15.817  41.585  12.049
19921W        W90521   9.299  11.136  14.018
19922W        W90522  31.871  14.576   0.234
19923W        W90523  24.409  13.806   0.936
19924W        W90524  13.632   0.801   4.751
19925W        W90525  33.399  20.545   1.800
19926W        W90526  39.564  35.338   2.340
19927W        W90527  29.942  11.642   1.348
19928W        W90528  15.183  15.404   1.422
19929W        W90529   4.043  43.284   2.959
19930W        W90530  39.281   8.658  13.964
19931W        W90531  31.298   1.411  12.003
19932W        W90532   9.718  13.718   1.477
19933W        W90533  13.830  18.794   1.340
19934W        W90534  10.508  42.854   0.788
19935W        W90535  20.145  11.321  11.473
19936W        W90536  34.625  21.276   1.517
19937W        W90537  39.491  34.121   0.977
19938W        W90538  18.621  34.412  13.814
19939W        W90539  17.296  14.782  10.697
19940W        W90540  22.644  34.005  12.880
19941W        W90541  43.501  42.672   1.344
19942W        W90542   7.850  32.609  10.743
19943W        W90543  36.570  34.791   0.243
19944W        W90544  39.945   5.188  12.296
19945W        W90545  17.556  41.859  11.911
19946W        W90546  19.524  30.372  10.617
19947W        W90547  25.731  32.991  12.853
19948W        W90548  37.507   6.420  11.825
19949W        W90549   2.291  28.572  11.557
19950W        W90550  13.497   5.231   0.407
19951W        W90551   9.372  43.838  14.519
19952W        W90552   9.322  14.581   1.357
19953W        W90553  28.207  24.988  14.382
19954W        W90554   0.491  15.782   1.389
19955W        W90555   9.149  28.880  11.206
19956W        W90556   6.363  44.378  13.061
19957W        W90557  24.625  10.199   0.145
19958W        W90558  29.072  40.925  14.726
19959W        W90559  37.076  14.656  11.644
19960W        W90560  38.412  12.723   0.192
19961W        W90561  42.885  23.397  11.064
19962W        W90562  23.003  36.889  12.480
19963W        W90563   9.155  24.107   2.950
19964W        W90564  40.615  41.080   3.279
19965W        W90565   3.973  17.369   0.630
19966W        W90566  27.602  15.618  13.826
19967W        W90567  37.889   9.116  11.718
19968W        W90568  23.435   3.048   3.741
19969W        W90569   2.773  23.521  11.665
19970W        W90570  28.938  35.736   0.668
19971W        W90571  33.567   0.545   1.752
19972W        W90572  44.302  26.074  14.012
19973W        W90573  13.028  37.583   1.412
19974W        W90574  12.670  29.335  12.642
19975W        W90575  34.951  33.388   3.600
19976W        W90576  16.888  35.040   2.139
19977W        W90577  31.596  14.152   0.319
19978W        W90578   1.866  39.442   2.388
19979W        W90579  22.014  26.476  10.681
19980W        W90580   1.399  28.292  13.053
19981W        W90581  27.085   8.759  13.732
19982W        W90582   5.163  22.792   3.009
19983W        W90583  26.726  36.476   0.801
19984W        W90584  27.939  17.295  13.318
19985W        W90585  41.595  12.800  10.986
19986W        W90586  13.083   7.830   3.263
19987W        W90587  29.199  31.594   4.592
19988W        W90588  31.216  14.105   1.323
19989W        W90589  42.034  32.471   3.220
19990W        W90590  33.635  39.628  12.516
19991W        W90591  25.315  17.680   3.913
19992W        W90592  15.579  14.919  11.237
19993W        W90593   4.917  43.877   0.492
19994W        W90594  40.390   1.188  12.868
19995W        W90595  41.433   4.192  11.657
19996W        W90596  16.271  32.688   0.257
19997W        W90597  30.557  16.332  12.500
19998W        W90598   3.663  10.391   4.213
19999W        W90599  25.225  12.192   0.252
20000W        W90600  24.653  21.138   4.951
20001W        W90601  20.648  37.825  12.604
20002W        W90602   1.768  41.550  11.218
20003W        W90603  31.408  22.474  11.548
20004W        W90604  10.246  12.430   4.601
20005W        W90605  15.802   7.936   2.887
20006W        W90606  39.803  39.395  11.447
20007W        W90607  28.420  36.501  12.906
20008W        W90608  19.059  30.543   3.437
20009W        W90609  39.151  10.350   0.819
20010W        W90610  24.506   2.538  14.432
20011W        W90611  36.396  10.931   1.874
20012W        W90612  23.683   3.347   2.752
20013W        W90613   5.019  44.482   4.466
20014W        W90614  28.654  34.806  11.969
20015W        W90615  19.499  14.285  11.191
20016W        W90616  20.925  29.164  12.519
20017W        W90617  25.357  42.434   0.777
20018W        W90618  19.463   5.377  10.111
20019W        W90619  41.120   7.731  14.927
20020W        W90620   1.160  40.570  13.070
20021W        W90621  36.973  39.012   1.170
20022W        W90622   6.013  31.506  14.006
20023W        W90623   9.327  40.811   0.765
20024W        W90624  40.972  22.462  10.319
20025W        W90625  25.234   7.693   1.318
20026W        W90626  34.117  15.825   3.295
20027W        W90627  18.938   3.810   1.293
20028W        W90628  30.528  17.071   1.444
20029W        W90629   3.731  13.533   3.664
20030W        W90630  34.876  10.838  14.395
20031W        W90631  16.572  26.884   3.298
20032W        W90632  19.097  31.385   0.042
20033W        W90633  19.937  10.696   3.714
20034W        W90634  36.420  12.138   2.018
20035W        W90635  33.095  27.145   3.937
20036W        W90636   5.906  21.253   0.716
20037W        W90637  37.698  39.089   2.750
20038W        W90638  33.489  11.824   0.483
20039W        W90639  43.029  43.008  13.106
20040W        W90640  33.842  34.048   1.670
20041W        W90641  11.585  35.325   0.324
20042W        W90642  24.240   2.365   2.774
20043W        W90643  41.690  24.501  12.635
20044W        W90644  16.626  39.481   4.175
20045W        W90645  14.215  13.505   2.000
20046W        W90646  23.234  22.589  14.336
20047W        W90647  44.939  25.885  12.023
20048W        W90648  31.429  34.443   4.193
20049W        W90649  39.883   8.899   2.019
20050W        W90650  10.450  43.989   3.812
20051W        W90651  10.710  29.017  14.632
20052W        W90652  33.140  21.055   2.855
20053W        W90653  43.746  43.717   1.838
20054W        W90654  16.269  25.882   1.874
20055W        W90655  42.371   2.480   2.653
20056W        W90656  12.095   3.585   4.670
20057W        W90657  41.831  13.786  12.463
20058W        W90658  31.352  31.607  12.534
20059W        W90659   3.162  19.233  13.804
20060W        W90660   7.939  13.776   4.942
20061W        W90661   9.816  23.244  10.641
20062W        W90662  42.986  16.867   0.272
20063W        W90663  38.945  43.221  12.908
20064W        W90664  29.442   8.891  13.078
20065W        W90665  36.495  30.153   4.504
20066W        W90666   2.297  10.774   3.756
20067W        W90667  23.592  20.159  12.510
20068W        W90668  31.581   5.454  13.538
20069W        W90669  15.785  17.605   3.111
20070W        W90670  38.001  36.473  14.090
20071W        W90671  36.665   1.177  12.905
20072W        W90672  13.464  19.708  10.811
20073W        W90673  40.433  41.423  12.808
20074W        W90674  12.427  20.806  12.463
20075W        W90675  18.332   2.789  14.395
20076W        W90676   3.857  16.806  14.185
20077W        W90677  26.422   6.780   3.269
20078W        W90678   6.227  15.126   1.975
20079W        W90679   9.272  14.795  13.131
20080W        W90680  33.373  21.285   0.453
20081W        W90681  39.502  16.329  14.823
20082W        W90682  43.360  39.352  13.983
20083W        W90683   3.347  25.713  12.442
20084W        W90684  29.811   8.106   1.819
20085W        W90685  22.152  14.978   1.960
20086W        W90686  27.215   3.236  11.441
20087W        W90687  15.058  20.293   0.084
20088W        W90688  11.794  34.763  13.802
20089W        W90689   7.263  12.355  14.956
20090W        W90690  11.752  12.630  10.538
20091W        W90691  13.627  26.525   1.297
20092W        W90692  35.009   7.662   4.287
20093W        W90693  25.585  36.920  14.770
20094W        W90694  20.671  30.964   0.699
20095W        W90695  31.950  32.038  10.809
20096W        W90696  16.709  30.135   0.834
20097W        W90697   7.705   6.826   2.843
20098W        W90698  36.333   4.917  12.488
20099W        W90699   2.027  35.161   4.986
20100W        W90700  26.928   8.318   3.894
20101W        W90701  28.804  36.240   0.681
20102W        W90702  27.014  39.202   3.838
20103W        W90703  31.239  39.511   0.542
20104W        W90704   0.364  31.100  13.925
20105W        W90705  18.882  32.329   3.062
20106W        W90706  44.792  11.869  11.669
20107W        W90707   0.554   7.558  11.481
20108W        W90708  43.642  35.419  10.772
20109W        W90709  15.539   7.273  10.761
20110W        W90710  35.379  24.560  13.940
20111W        W90711  17.688  41.116   1.694
20112W        W90712   1.903  39.083  11.534
20113W        W90713  10.851  44.929   2.403
20114W        W90714  21.605  12.292   0.865
20115W        W90715  13.035  28.582  12.332
20116W        W90716  11.351  16.349   2.919
20117W        W90717  31.588  40.784  13.043
20118W        W90718  32.877  37.320   3.281
20119W        W90719   3.091  40.495  12.493
20120W        W90720   9.060  10.821  14.407
20121W        W90721  17.850  32.348   3.260
20122W        W90722  44.944  44.790  10.840
20123W        W90723  17.825  30.589   2.558
20124W        W90724  27.517  16.653   1.327
20125W        W90725   9.297  32.101   2.113
20126W        W90726  26.340  23.448   2.736
20127W        W90727  24.694  17.545  12.304
20128W        W90728  43.824  42.251   2.961
20129W        W90729   8.243  33.182  12.023
20130W        W90730  27.658  44.736  11.891
20131W        W90731  18.595  26.137   2.391
20132W        W90732  36.396   1.834   2.351
20133W        W90733  11.514  12.163   3.932
20134W        W90734  19.209  33.192  11.981
20135W        W90735  40.138  23.545   4.197
20136W        W90736  33.779  16.051   1.917
20137W        W90737  28.633  33.935   1.836
20138W        W90738  36.915  40.242  11.774
20139W        W90739  30.699   7.463   2.619
20140W        W90740  39.373  29.594  14.283
20141W        W90741  37.281  35.857   2.172
20142W        W90742   5.349  39.456  14.410
20143W        W90743  36.216  12.322  14.403
20144W        W90744  21.088  21.570  11.467
20145W        W90745  30.587  18.770  13.030
20146W        W90746  43.113  27.529   2.194
20147W        W90747  14.617  42.565   0.444
20148W        W90748  43.527  42.525  11.614
20149W        W90749  23.008   4.408   4.599
20150W        W90750  32.197   3.339   3.481
20151W        W90751  32.061  32.344   1.231
20152W        W90752  26.460   9.794  10.984
20153W        W90753  16.160   9.286  13.929
20154W        W90754  24.606  37.036   1.443
20155W        W90755  32.479  28.410   3.249
20156W        W90756  36.075  36.064   4.150
20157W        W90757  27.123  14.787   0.241
20158W        W90758  44.267  15.147  13.874
20159W        W90759  19.169  35.574   4.597
20160W        W90760  23.271  17.818   0.362
20161W        W90761  29.847  39.065   4.588
20162W        W90762   1.865  16.299  11.433
20163W        W90763  27.582  35.337  13.495
20164W        W90764  38.281  38.277  12.539
20165W        W90765  19.001  44.694  12.814
20166W        W90766   0.700   3.498  13.389
20167W        W90767  41.047  23.018   3.297
20168W        W90768   8.441  22.101  12.098
20169W        W90769  31.162  42.484  14.662
20170W        W90770   4.342  23.586   3.715
20171W        W90771  35.476  32.291   2.359
20172W        W90772  15.581  17.453  13.886
20173W        W90773  15.432  34.970  13.475
20174W        W90774  38.235  38.604   1.639
20175W        W90775  15.294  19.764   4.236
20176W        W90776  17.043  11.951  13.061
20177W        W90777  21.398  19.542   2.112
20178W        W90778  24.444  20.587   0.759
20179W        W90779  34.062  14.124  14.819
20180W        W90780   4.898  28.521   0.222
20181W        W90781  22.424  42.615  12.036
20182W        W90782  39.550   4.279   2.259
20183W        W90783  25.957  20.739   0.747
20184W        W90784  28.005  42.544   2.886
20185W        W90785  11.714  33.928  14.372
20186W        W90786   1.242  32.632  10.772
20187W        W90787   8.423  20.597  13.679
20188W        W90788  12.323  28.739   1.274
20189W        W90789  28.379  15.061   1.046
20190W        W90790   4.324  37.331  14.053
20191W        W90791  31.945  37.309  11.385
20192W        W90792  30.579  28.054   4.478
20193W        W90793  39.359  16.061   1.075
20194W        W90794  28.970  33.389  13.945
20195W        W90795  37.138  27.507  14.474
20196W        W90796  11.778  40.950  12.599
20197W        W90797  11.361   0.238   4.291
20198W        W90798  43.478   6.382  11.105
20199W        W90799  34.976  14.766  10.450
20200W        W90800   4.896  40.089  13.600
20201W        W90801   9.168  12.705   4.539
20202W        W90802  35.731   6.112   3.712
20203W        W90803  18.578   1.426   0.781
20204W        W90804   9.350  38.134   3.229
20205W        W90805  43.310  20.013  11.613
20206W        W90806   7.915  22.695   4.135
20207W        W90807  38.119   3.559  12.894
20208W        W90808   2.180  27.006  10.998
20209W        W90809  36.561   5.938  14.520
20210W        W90810  28.045   2.388  10.757
20211W        W90811  43.342  12.095   1.521
20212W        W90812  10.362  35.773  12.422
20213W        W90813  17.655  27.390  14.904
20214W        W90814  21.112  44.428  13.770
20215W        W90815  41.755  44.958  12.565
20216W        W90816   0.859  35.421   1.213
20217W        W90817  39.293  21.583   0.870
20218W        W90818   9.496   0.248  14.898
20219W        W90819  24.453   1.457   3.795
20220W        W90820  26.062  16.159  10.668
20221W        W90821  36.476  39.277   1.345
20222W        W90822  10.507  41.175   2.412
20223W        W90823  16.634  21.891   0.171
20224W        W90824  23.986   4.430  14.487
20225W        W90825  28.952  42.987   0.781
20226W        W90826  10.251  36.275   0.335
20227W        W90827  40.369  33.839   0.857
20228W        W90828  33.020  18.979   1.371
20229W        W90829   7.270   0.794  12.922
20230W        W90830  39.307   5.958  14.932
20231W        W90831  19.978  31.990   3.808
20232W        W90832  34.496   2.045   1.306
20233W        W90833  39.209  16.525   3.773
20234W        W90834  21.649  38.772  14.463
20235W        W90835  22.072  18.683   1.966
20236W        W90836  43.403  19.241   4.499
20237W        W90837  21.817  36.592  13.546
20238W        W90838  28.521  11.444   4.571
20239W        W90839  25.427  14.558  14.374
20240W        W90840  24.502   5.018   2.829
20241W        W90841  21.150  27.411  14.352
20242W        W90842  38.314  27.903   2.621
20243W        W90843  23.038  36.576   3.704
20244W        W90844  27.786   2.864   3.751
20245W        W90845   3.814  31.639   2.762
20246W        W90846  40.761   3.579   1.326
20247W        W90847  27.521   7.313  12.128
20248W        W90848  33.169  30.184  13.227
20249W        W90849   4.814  11.538   0.515
20250W        W90850  19.499  12.680   0.459
20251W        W90851  15.101  37.608  12.307
20252W        W90852  11.153  26.111   1.867
20253W        W90853  16.043  31.610  13.028
20254W        W90854  13.361  39.104  13.020
20255W        W90855  15.326  12.770  11.118
20256W        W90856  11.581  35.564   4.772
20257W        W90857  39.076  40.617  10.767
20258W        W90858  18.707   7.224   4.170
20259W        W90859  16.874  35.243  11.287
20260W        W90860  38.011  31.493  12.100
20261W        W90861  37.058  32.043  10.765
20262W        W90862  42.774  37.245   4.598
20263W        W90863  41.475  24.133  10.809
20264W        W90864  19.748  31.089   3.803
20265W        W90865   2.295  31.403   4.590
20266W        W90866   1.861   5.379  14.147
20267W        W90867  21.681  42.037  10.692
20268W        W90868  18.604  42.363  14.779
20269W        W90869  26.233  30.647   5.015
20270W        W90870  22.032  23.574  10.916
20271W        W90871  20.960   0.451   5.068
20272W        W90872  17.723  43.526   0.324
20273W        W90873  26.750  42.229  13.413
20274W        W90874  10.380  19.339   3.223
20275W        W90875  43.463  40.954  10.763
20276W        W90876  44.630  25.660  10.778
20277W        W90877  35.094  25.413  12.893
20278W        W90878  22.543  44.361  14.548
20279W        W90879   1.673   2.012  10.731
20280W        W90880   1.695  39.368  13.388
20281W        W90881  38.903  13.911  14.466
20282W        W90882  21.894   1.820   4.562
20283W        W90883  19.061   8.037  12.227
20284W        W90884  28.655   4.263  10.412
20285W        W90885  30.508  12.905  11.988
20286W        W90886  40.065  30.004   1.294
20287W        W90887  14.716  10.360  14.021
20288W        W90888  27.730   6.907  13.975
20289W        W90889  24.725  15.587  12.946
20290W        W90890  17.342  25.028   0.804
20291W        W90891  38.510  20.628  13.617
20292W        W90892  28.629  37.080  11.122
20293W        W90893  42.639  14.384  14.792
20294W        W90894  41.018  18.566  12.550
20295W        W90895  17.090   2.120  10.994
20296W        W90896  28.585  35.845   1.028
20297W        W90897  31.917   4.388  11.153
20298W        W90898  17.776  24.746  14.707
20299W        W90899  28.812  36.363   3.696
20300W        W90900   2.814  34.238   1.828
20301W        W90901   6.503   4.471  11.906
20302W        W90902   5.423  29.360  14.333
20303W        W90903  21.669  18.999  13.002
20304W        W90904   4.876  36.957   3.579
20305W        W90905   3.393  43.271  11.975
20306W        W90906  12.290  27.579  14.745
20307W        W90907  34.267  36.880  11.050
20308W        W90908  12.499  16.197  10.780
20309W        W90909   7.162  19.690   3.597
20310W        W90910  13.666   5.993  14.278
20311W        W90911  38.341   4.746  10.935
20312W        W90912  41.924  25.091   0.715
20313W        W90913  22.623   9.121  12.110
20314W        W90914  34.017   9.095   1.471
20315W        W90915   7.921  38.027  14.376
20316W        W90916  30.715  40.765   2.261
20317W        W90917   3.363  30.618   3.727
20318W        W90918  10.613   2.512  13.594
20319W        W90919  26.156  32.686   0.898
20320W        W90920  13.684  30.590   0.618
20321W        W90921  40.123  29.037  11.076
20322W        W90922   9.764  22.557  13.725
20323W        W90923  15.873  30.469  11.458
20324W        W90924  14.309  35.586  12.624
20325W        W90925  14.701  35.327   1.849
20326W        W90926   1.554   5.334  12.983
20327W        W90927  25.158  40.099   1.808
20328W        W90928  39.778  39.496  13.738
20329W        W90929   8.659   7.266   2.777
20330W        W90930  10.855  28.754   1.323
20331W        W90931  11.833  38.872  14.415
20332W        W90932   9.542   5.958  11.292
20333W        W90933   9.799   4.663   0.416
20334W        W90934  30.163  35.194  14.421
20335W        W90935  10.343  36.537  12.709
20336W        W90936  16.990  40.290   3.794
20337W        W90937   3.283  31.016  14.967
20338W        W90938  32.921   0.737   3.058
20339W        W90939  27.219  10.730   2.612
20340W        W90940  28.866   1.479  11.040
20341W        W90941   7.274   4.311   1.738
20342W        W90942  26.251  13.845  13.862
20343W        W90943  35.862   8.558   2.685
20344W        W90944  27.782  22.672   2.870
20345W        W90945   7.121  24.666   3.600
20346W        W90946  23.025  13.848   0.762
20347W        W90947  40.842   7.667   0.350
20348W        W90948  11.191  11.342  14.785
20349W        W90949  20.418  39.490   3.613
20350W        W90950   0.068  27.696  11.150
20351W        W90951  44.926   9.272   0.708
20352W        W90952   4.028  33.511   0.317
20353W        W90953  20.835  10.698   0.790
20354W        W90954  18.165  14.079   3.721
20355W        W90955  32.615  11.385  13.233
20356W        W90956  18.587  40.633  12.053
20357W        W90957  11.222  32.061   3.204
20358W        W90958  32.617  20.044   0.275
20359W        W90959  19.649   2.142   0.858
20360W        W90960   8.286   2.169   3.379
20361W        W90961  15.311   5.754   1.564
20362W        W90962  29.645  38.589  14.730
20363W        W90963  28.144  32.118   2.278
20364W        W90964  24.958  21.507   1.267
20365W        W90965  11.749  42.581  13.032
20366W        W90966   9.262  41.509  11.904
20367W        W90967  42.874  15.643   0.886
20368W        W90968   3.509  25.158   3.240
20369W        W90969  12.158  41.964   2.150
20370W        W90970  11.794   4.694   3.156
20371W        W90971  34.332  31.533  12.412
20372W        W90972  40.539   2.946   4.149
20373W        W90973  14.644  28.495   1.334
20374W        W90974  10.108   5.669   0.645
20375W        W90975   0.038   4.794   1.966
20376W        W90976  14.542  38.472  12.911
20377W        W90977  22.209   5.689  11.536
20378W        W90978  20.955   3.304  14.498
20379W        W90979   4.373  41.035   1.342
20380W        W90980   8.706  12.635  14.330
20381W        W90981  10.730  29.515   0.073
20382W        W90982  19.762  16.167   3.867
20383W        W90983  15.688  18.135  13.942
20384W        W90984   6.925  23.479   1.696
20385W        W90985  19.350  26.149   1.712
20386W        W90986  10.087  44.816  11.244
20387W        W90987  28.112  13.725  13.633
20388W        W90988  38.891  25.239   0.684
20389W        W90989  14.936  25.099  10.513
20390W        W90990  35.428   7.791  10.708
20391W        W90991  28.115  22.700   1.868
20392W        W90992  41.401  40.924   0.582
20393W        W90993  11.945  36.778   0.072
20394W        W90994  39.011  20.181  10.574
20395W        W90995  26.727  28.420   3.675
20396W        W90996  44.975  32.795   1.349
20397W        W90997   4.830  37.645   2.296
20398W        W90998  25.909  43.078   1.868
20399W        W90999  31.101  12.833  14.720
20400W        W91000  28.197   7.027  11.934
20401W        W91001  35.060  19.095   1.926
20402W        W91002  39.516  23.952  14.447
20403W        W91003  26.173  38.786   2.934
20404W        W91004  34.579  22.799   2.217
20405W        W91005   1.203   2.340   2.806
20406W        W91006  31.666  31.171   2.757
20407W        W91007  34.017  24.114  12.099
20408W        W91008  32.970  21.730   3.585
20409W        W91009   6.760  28.612   3.214
20410W        W91010  16.667   4.408   0.511
20411W        W91011   1.996  30.172   2.383
20412W        W91012  36.036  23.101  12.029
20413W        W91013  29.463   1.588   2.692
20414W        W91014  12.765  11.877   3.751
20415W        W91015   0.507  10.619   4.184
20416W        W91016  23.785  41.077  11.118
20417W        W91017  10.812  17.932   4.911
20418W        W91018  33.274  43.190   2.395
20419W        W91019   3.960  20.575   3.522
20420W        W91020   9.272  39.940   1.826
20421W        W91021  29.765  28.504   0.389
20422W        W91022   7.286  13.704   3.636
20423W        W91023  31.127  16.633  13.860
20424W        W91024  19.148  20.565   4.208
20425W        W91025  20.492   4.244   2.139
20426W        W91026  28.730   1.874   3.769
20427W        W91027  43.432  35.477   2.218
20428W        W91028   8.747  36.021  13.883
20429W        W91029   6.575  10.119   4.918
20430W        W91030  31.891  17.777  12.539
20431W        W91031  44.597  31.638  14.148
20432W        W91032  14.656   6.237  13.529
20433W        W91033  33.940   6.708   4.328
20434W        W91034  37.617   0.685  13.626
20435W        W91035  41.432  13.231  10.709
20436W        W91036  33.487  28.620   2.425
20437W        W91037  37.441  31.413   1.742
20438W        W91038  17.162  24.008   1.241
20439W        W91039  26.767  25.151  12.582
20440W        W91040   0.051  15.160  11.608
20441W        W91041  35.991   0.382  12.984
20442W        W91042  11.691  18.199  12.100
20443W        W91043   1.681  30.859   3.726
20444W        W91044  15.323  28.968  13.512
20445W        W91045  31.158  31.653  10.689
20446W        W91046  34.541  32.070  12.396
20447W        W91047  40.745  30.668   1.145
20448W        W91048  41.363  24.688   0.079
20449W        W91049   2.491  12.643   2.227
20450W        W91050   0.069  21.035  12.851
20451W        W91051   3.715  13.672   1.660
20452W        W91052  32.571  23.503  14.452
20453W        W91053  37.464  19.513   3.451
20454W        W91054  36.360  21.751   1.283
20455W        W91055  14.743  36.465   3.048
20456W        W91056  12.179  11.154  13.901
20457W        W91057   2.946  42.394  10.588
20458W        W91058  44.408   3.491   5.021
20459W        W91059   2.298  29.659  11.533
20460W        W91060  31.632  35.257   3.727
20461W        W91061  12.782  10.842   3.974
20462W        W91062  16.110   5.703   0.911
20463W        W91063  40.590   1.456   4.709
20464W        W91064  10.257  13.351   0.299
20465W        W91065  19.160  40.006  13.199
20466W        W91066  19.770   0.398  13.425
20467W        W91067  24.630   9.683   1.467
20468W        W91068  15.819  21.602  13.085
20469W        W91069   6.655  23.091   3.956
20470W        W91070  31.484  26.657  10.504
20471W        W91071   8.902  13.757   4.926
20472W        W91072  20.832  29.527  11.662
20473W        W91073  41.847   2.489  11.406
20474W        W91074   0.944  39.235  13.901
20475W        W91075  42.721  12.740   2.518
20476W        W91076  34.154   9.364   1.036
20477W        W91077  36.324  31.578  13.323
20478W        W91078  37.897   9.815   3.917
20479W        W91079   2.778  21.622   2.291
20480W        W91080  10.394  44.240  13.508
20481W        W91081   9.757  11.797   4.822
20482W        W91082  30.927  41.228   4.525
20483W        W91083  39.514  12.394   1.753
20484W        W91084   7.886  25.042  12.067
20485W        W91085  20.817  28.140   2.795
20486W        W91086  11.051   4.855  11.163
20487W        W91087  25.705   6.341   4.588
20488W        W91088  39.941  39.399  14.267
20489W        W91089   4.902  32.976   3.640
20490W        W91090  37.901  33.905   0.379
20491W        W91091  37.451  31.452  13.837
20492W        W91092  19.277   5.350   1.487
20493W        W91093  30.132  27.947   1.708
20494W        W91094  11.806  33.516  11.361
20495W        W91095  36.035  35.637   3.243
20496W        W91096   2.470  31.111  11.485
20497W        W91097  37.892  36.446   2.086
20498W        W91098  41.851  24.416   2.317
20499W        W91099  17.216  39.538  12.624
20500W        W91100  19.647  27.793   4.130
20501W        W91101   8.717  11.601   0.696
20502W        W91102  40.532   1.970   1.803
20503W        W91103  16.802  42.765  14.473
20504W        W91104  40.526  40.335  11.062
20505W        W91105  34.482  12.181  14.680
20506W        W91106  26.485  42.112  13.838
20507W        W91107  27.327  20.736   4.682
20508W        W91108  22.983  18.217  14.395
20509W        W91109  37.873  13.344   1.913
20510W        W91110  20.025   6.427   3.189
20511W        W91111  11.151  29.542   1.405
20512W        W91112  37.169  17.304  12.085
20513W        W91113  38.401  27.068  13.928
20514W        W91114   3.700  21.148  10.694
20515W        W91115  10.892  22.317  12.930
20516W        W91116  16.373  41.931  11.586
20517W        W91117   9.597  28.341  12.071
20518W        W91118  12.989  30.996   3.579
20519W        W91119  34.685   6.371   4.967
20520W        W91120  13.050  30.116   1.720
20521W        W91121  33.222  39.341  14.439
20522W        W91122  33.851  18.200  13.987
20523W        W91123  31.663  34.059   3.242
20524W        W91124   2.383  20.504  14.397
20525W        W91125  25.793   2.854   2.349
20526W        W91126  36.399  23.912   0.383
20527W        W91127  37.409  19.319  13.222
20528W        W91128  32.633  43.993  13.235
20529W        W91129  37.907   4.916  13.002
20530W        W91130  19.643  38.795   2.730
20531W        W91131  25.942  29.483   1.788
20532W        W91132   0.025   0.458   3.198
20533W        W91133  12.291  32.428   2.719
20534W        W91134  25.559   1.412   2.360
20535W        W91135  39.511   1.936   1.179
20536W        W91136  11.674   7.656  11.680
20537W        W91137  25.128  19.997   4.077
20538W        W91138  26.003  17.627   3.221
20539W        W91139   2.264   7.660  14.052
20540W        W91140  12.903  26.263  11.620
20541W        W91141   5.918  42.019  14.735
20542W        W91142  23.076  20.515  10.354
20543W        W91143  19.609   1.749   4.045
20544W        W91144   1.064  34.365   0.502
20545W        W91145  17.923  21.635  11.285
20546W        W91146  23.962   6.292  14.886
20547W        W91147  41.862  20.824   4.137
20548W        W91148  17.603  25.376  10.567
20549W        W91149  23.167   8.871  13.841
20550W        W91150  27.082  14.730  12.909
20551W        W91151  29.177   3.897  14.098
20552W        W91152  32.477  13.092   2.383
20553W        W91153  13.691  43.849  10.259
20554W        W91154  33.990  36.313  13.938
20555W        W91155  32.614  13.230  11.572
20556W        W91156   5.951  28.635  13.415
20557W        W91157  36.946  30.013   4.739
20558W        W91158  15.903  44.829  11.370
20559W        W91159  43.290   2.748  14.139
20560W        W91160  33.918  21.721   3.656
20561W        W91161  20.810   0.450  14.380
20562W        W91162   8.749   6.285   3.536
20563W        W91163  12.276  37.307   0.092
20564W        W91164  37.170  29.711  11.675
20565W        W91165  34.165  24.666  12.911
20566W        W91166  29.079  35.107  11.871
20567W        W91167   6.302   1.221  12.103
20568W        W91168  34.785  30.690   1.213
20569W        W91169   8.480  34.006   2.426
20570W        W91170  35.291  14.261   3.090
20571W        W91171   0.815  18.187   4.653
20572W        W91172   5.915  42.851   2.731
20573W        W91173  16.772   4.990  12.577
20574W        W91174  17.773  22.795  12.947
20575W        W91175  39.635  10.361   3.680
20576W        W91176  11.287  25.585   3.203
20577W        W91177   0.505   2.181   4.723
20578W        W91178  16.877  11.861  14.885
20579W        W91179   8.726  21.616  10.665
20580W        W91180  10.457   6.772  14.932
20581W        W91181  29.097  10.268  14.767
20582W        W91182  28.585  28.211   1.879
20583W        W91183  21.118  35.152  11.825
20584W        W91184   6.343  22.546  11.942
20585W        W91185  13.640  33.104   4.506
20586W        W91186  43.832  40.126   1.892
20587W        W91187  16.022  38.860   0.866
20588W        W91188   4.994  43.001   0.702
20589W        W91189  26.585  26.895  13.036
20590W        W91190  16.799  22.798   3.825
20591W        W91191   5.384  24.723  13.814
20592W        W91192  10.766  19.630   0.849
20593W        W91193  12.181   5.730   2.822
20594W        W91194   7.137  23.043  11.981
20595W        W91195   3.817  11.299   2.438
20596W        W91196  11.725  43.238   4.831
20597W        W91197  31.258  10.211   0.894
20598W        W91198  22.318   8.156  14.623
20599W        W91199   3.157  43.180   2.688
20600W        W91200  26.578   0.699  11.112
20601W        W91201  14.094  42.044   0.227
20602W        W91202  44.847  11.355  11.711
20603W        W91203   3.413  15.586   0.026
20604W        W91204  42.016   6.271  14.511
20605W        W91205  12.165  37.343  10.503
20606W        W91206  16.105  32.100   3.205
20607W        W91207  41.259   3.225  10.243
20608W        W91208  38.546  22.039  11.159
20609W        W91209  11.294  42.923   4.422
20610W        W91210  10.437   6.945   3.598
20611W        W91211  37.978  25.679  10.613
20612W        W91212  10.838  21.049   0.185
20613W        W91213  15.114  23.282  13.876
20614W        W91214  17.491   5.296  11.315
20615W        W91215   9.161  10.710   0.359
20616W        W91216  42.770  36.626  10.594
20617W        W91217  21.803  20.793  12.103
20618W        W91218  44.359  42.116  10.845
20619W        W91219  26.613  14.842  10.556
20620W        W91220  28.650  30.058   2.437
20621W        W91221  38.889  44.155  11.702
20622W        W91222  35.329  29.484   0.803
20623W        W91223  38.863  44.048   3.221
20624W        W91224  19.991  38.580   4.552
20625W        W91225   3.698  31.524   0.797
20626W        W91226  25.608  31.923   3.203
20627W        W91227  19.122   9.895   4.645
20628W        W91228  27.875  35.806  12.659
20629W        W91229  33.051   7.249   4.415
20630W        W91230   6.634  29.359   2.834
20631W        W91231   9.178  19.699   3.377
20632W        W91232  19.253  40.085  11.481
20633W        W91233  42.708  39.397   1.200
20634W        W91234  36.364  25.984   4.603
20635W        W91235  11.080  37.507  11.685
20636W        W91236   1.988  21.563  10.690
20637W        W91237  43.348  30.013   3.791
20638W        W91238  37.736  28.684  13.894
20639W        W91239   6.695  25.558   3.850
20640W        W91240  31.220   3.881   0.465
20641W        W91241  19.640  13.105   4.633
20642W        W91242  13.411  43.475   1.378
20643W        W91243   4.953  30.073   3.199
20644W        W91244   4.915  39.388   2.329
20645W        W91245  28.621   5.557   3.556
20646W        W91246  15.165  22.789  13.845
20647W        W91247  44.326  11.352   3.592
20648W        W91248  44.889  19.325  14.021
20649W        W91249   4.334   7.957  10.714
20650W        W91250   9.243  30.963   2.810
20651W        W91251  28.690  10.795  11.587
20652W        W91252  40.878  35.269   1.921
20653W        W91253  26.753  30.193  11.717
20654W        W91254  38.546  35.746  11.920
20655W        W91255  12.060  15.649   2.315
20656W        W91256  30.857  20.120  12.036
20657W        W91257  38.044  22.087   1.925
20658W        W91258   4.274  12.481   4.258
20659W        W91259  12.121  36.020   0.597
20660W        W91260  31.537   8.782   4.934
20661W        W91261  27.693  10.301   4.637
20662W        W91262  10.781  40.406  12.949
20663W        W91263  36.078  11.290   3.721
20664W        W91264  17.609  24.969   4.883
20665W        W91265  31.626  40.040  11.649
20666W        W91266  27.074  11.183  13.476
20667W        W91267  28.550  19.030  11.210
20668W        W91268   4.920  38.359   3.390
20669W        W91269   6.899  33.696  14.076
20670W        W91270  11.186  20.315  13.932
20671W        W91271  40.187  15.840  11.793
20672W        W91272  41.738  19.084   3.957
20673W        W91273  28.096  42.011  13.590
20674W        W91274  13.074  37.174   5.074
20675W        W91275  19.894   4.613  11.457
20676W        W91276  20.623  29.129   4.025
20677W        W91277  37.515  26.072   3.866
20678W        W91278  17.037  40.265   0.810
20679W        W91279  21.184  13.193  10.652
20680W        W91280  15.348   9.192   4.114
20681W        W91281  26.560  43.559   2.372
20682W        W91282  18.752  16.683   0.908
20683W        W91283  38.392  15.456  13.403
20684W        W91284  40.368  32.539  13.541
20685W        W91285  32.631  12.231  12.648
20686W        W91286  28.014  24.068   1.857
20687W        W91287   9.672  38.590  11.901
20688W        W91288  35.604   3.508   4.215
20689W        W91289   1.212  34.137  14.189
20690W        W91290   7.699  24.488  14.395
20691W        W91291   0.803  17.325   4.175
20692W        W91292   9.851   6.254   5.067
20693W        W91293  39.783  35.904  11.519
20694W        W91294  30.051  32.961  12.137
20695W        W91295  39.107  21.062  14.779
20696W        W91296  42.461  35.894  14.281
20697W        W91297  41.525  17.514  11.988
20698W        W91298  15.794  27.046   3.720
20699W        W91299  16.604  37.064   0.534
20700W        W91300  31.545  10.712  14.918
20701W        W91301  30.242  12.287  12.449
20702W        W91302  23.772  34.393   0.301
20703W        W91303  22.265  15.300  13.428
20704W        W91304   2.830  10.648   3.021
20705W        W91305  25.322  34.860  11.045
20706W        W91306   2.413   5.154  10.489
20707W        W91307  11.684  42.750  11.615
20708W        W91308  33.567  29.781   5.016
20709W        W91309  31.325  13.263  14.982
20710W        W91310  19.205   5.814  14.783
20711W        W91311  14.346  23.582   0.949
20712W        W91312  25.048  32.797  10.890
20713W        W91313  10.315   4.774   4.223
20714W        W91314  30.978  21.183  11.801
20715W        W91315   0.842  15.806   3.718
20716W        W91316  39.316   8.507   0.427
20717W        W91317  26.160  18.991  13.943
20718W        W91318  29.871  34.536   1.262
20719W        W91319   5.110   3.200  10.979
20720W        W91320  12.832  44.553  11.840
20721W        W91321  29.928  42.249   1.418
20722W        W91322   8.328   4.041   2.098
20723W        W91323  14.391  33.368  12.454
20724W        W91324  29.135  26.149   3.250
20725W        W91325  39.246  44.723   0.034
20726W        W91326   8.378  14.950   1.703
20727W        W91327  40.993  43.728  11.398
20728W        W91328   3.036  40.432  13.391
20729W        W91329  42.966  24.148  11.574
20730W        W91330   8.165  16.853  14.814
20731W        W91331   8.277  22.956   2.869
20732W        W91332  29.946  35.363   4.619
20733W        W91333   3.945   8.915  13.651
20734W        W91334  16.172   7.904  13.920
20735W        W91335  16.646  40.273  14.671
20736W        W91336  40.063  16.396   4.944
20737W        W91337  27.684  19.267   0.691
20738W        W91338  35.024  38.432  12.483
20739W        W91339  21.996   5.385   3.715
20740W        W91340   1.803  23.217  12.097
20741W        W91341  10.619  32.995  11.491
20742W        W91342  32.661   8.177  12.035
20743W        W91343  36.440  23.528   2.205
20744W        W91344   2.388  15.236   1.384
20745W        W91345  27.585  42.390   0.921
20746W        W91346  30.548   4.156  11.519
20747W        W91347  37.119   4.843  11.898
20748W        W91348   5.934   4.785  10.871
20749W        W91349  17.603  11.121  12.082
20750W        W91350  36.120  40.405   4.595
20751W        W91351  28.400  34.977   0.419
20752W        W91352   1.955  17.834   1.899
20753W        W91353   2.713  22.672  10.742
20754W        W91354  20.014  29.405   4.035
20755W        W91355  34.951  31.836  12.165
20756W        W91356  18.481  29.574   2.494
20757W        W91357   5.967  27.783   2.194
20758W        W91358  30.655   4.777   4.021
20759W        W91359   6.332   3.475   4.945
20760W        W91360  38.567   9.643   1.400
20761W        W91361   6.399   7.347   1.773
20762W        W91362  41.441  39.806   0.970
20763W        W91363  43.983   5.476  14.906
20764W        W91364  28.998  19.875  11.068
20765W        W91365  43.676  35.373   3.606
20766W        W91366  38.482  39.397  10.568
20767W        W91367  24.609  13.578  14.733
20768W        W91368  33.853  33.105   9.945
20769W        W91369  33.450  17.408  14.888
20770W        W91370  24.750  42.921   1.358
20771W        W91371  17.150  27.449   1.284
20772W        W91372   9.622  37.897   1.083
20773W        W91373  17.069  32.685   4.972
20774W        W91374  43.164  35.188   2.548
20775W        W91375  43.599   4.203   0.891
20776W        W91376  28.206  31.889   0.756
20777W        W91377  19.139   1.985   4.090
20778W        W91378  27.670   1.544  14.922
20779W        W91379  38.364  20.507   3.309
20780W        W91380  34.845  28.463   2.625
20781W        W91381  14.789   1.724   3.148
20782W        W91382  35.951  43.289  12.665
20783W        W91383  27.095  31.454   3.856
20784W        W91384  33.919  13.288  12.677
20785W        W91385   4.714  40.229   5.002
20786W        W91386  26.620  14.450   0.881
20787W        W91387  42.454   4.189   2.183
20788W        W91388   4.537  18.239   1.736
20789W        W91389  22.530  16.767   0.338
20790W        W91390  23.937  30.608  13.980
20791W        W91391  16.545   6.327   3.302
20792W        W91392  12.770  23.632  14.919
20793W        W91393  19.482  14.709  12.851
20794W        W91394  11.483  14.242   0.546
20795W        W91395  44.667  10.982  10.366
20796W        W91396   3.487  35.337  12.942
20797W        W91397   0.322  23.705   4.383
20798W        W91398  28.879  31.438  14.516
20799W        W91399   6.405  20.345   1.699
20800W        W91400  16.550  43.778  14.530
20801W        W91401  13.552  31.889  12.074
20802W        W91402  37.150  19.257   0.178
20803W        W91403   3.363  12.255   1.691
20804W        W91404  30.861   3.852   2.368
20805W        W91405  25.215  30.498   1.326
20806W        W91406  30.993  39.545   3.167
20807W        W91407   5.940  40.915   1.704
20808W        W91408   8.156  21.000   1.389
20809W        W91409  13.951  41.627  10.752
20810W        W91410  34.157  21.071   2.756
20811W        W91411  18.362  31.411  13.401
20812W        W91412  41.952  27.705  13.882
20813W        W91413  32.504  12.886   0.904
20814W        W91414   9.726  40.907  11.910
20815W        W91415   9.393   5.537  12.241
20816W        W91416  12.096  12.665   3.278
20817W        W91417  32.622   9.762   4.605
20818W        W91418  25.091  27.742  14.110
20819W        W91419  26.473  42.120   0.237
20820W        W91420   9.443  44.004   4.735
20821W        W91421  28.438   7.218   2.865
20822W        W91422  22.228  27.400   4.561
20823W        W91423  39.927  35.776   2.399
20824W        W91424  41.370  23.004  11.595
20825W        W91425  28.359   7.628   4.523
20826W        W91426  34.090  30.589   4.048
20827W        W91427   2.211  36.755   4.082
20828W        W91428  32.146  10.721   2.362
20829W        W91429  13.261  18.887  11.520
20830W        W91430  13.089   8.453  11.159
20831W        W91431  24.668  40.914   0.887
20832W        W91432  31.662   6.502  13.389
20833W        W91433  10.744  17.382   4.401
20834W        W91434  36.765  33.322   5.024
20835W        W91435  11.929  23.504  13.355
20836W        W91436  39.947  31.538   1.010
20837W        W91437  27.428  23.028  11.826
20838W        W91438  36.309   3.352   4.833
20839W        W91439  26.153  39.962  11.650
20840W        W91440   1.520  29.556  14.463
20841W        W91441  41.479  29.487  12.083
20842W        W91442   8.674  27.568   3.724
20843W        W91443  42.337  40.951  13.369
20844W        W91444   5.003  31.694   0.530
20845W        W91445  17.828  39.987  13.667
20846W        W91446  36.279  29.620   0.346
20847W        W91447  11.723  25.809  14.894
20848W        W91448  28.049  21.682   2.238
20849W        W91449  14.188  23.276  14.918
20850W        W91450  30.431  17.893  11.548
20851W        W91451  36.854  34.920   3.098
20852W        W91452  29.663  23.235  14.367
20853W        W91453  38.828  25.074  12.876
20854W        W91454  33.185  39.297   2.407
20855W        W91455  39.075   0.145   0.610
20856W        W91456   6.335  43.271   1.608
20857W        W91457   6.648  21.684  10.481
20858W        W91458  12.656  11.855  11.141
20859W        W91459  21.298  24.967   2.751
20860W        W91460  26.723  13.312  14.808
20861W        W91461  26.498  17.208   1.004
20862W        W91462  34.373  44.961   4.494
20863W        W91463   1.425  16.265  13.291
20864W        W91464  14.663  22.302   0.748
20865W        W91465  24.652   8.099   0.903
20866W        W91466  44.387  39.592   0.387
20867W        W91467  14.322   1.792   3.841
20868W        W91468  14.222  43.934  10.694
20869W        W91469   5.158  19.673  10.736
20870W        W91470  42.002  17.786  12.017
20871W        W91471  31.488  14.362  13.259
20872W        W91472  18.775  44.813   1.403
20873W        W91473  37.447  19.552   1.484
20874W        W91474   0.433  33.314   1.835
20875W        W91475   6.031  12.089   3.743
20876W        W91476  43.995  24.667   1.932
20877W        W91477  28.111   2.719   1.259
20878W        W91478   0.984  27.434   4.725
20879W        W91479   8.631  37.523  14.844
20880W        W91480  33.183  44.986  13.033
20881W        W91481  25.155  37.480  11.589
20882W        W91482  10.142  30.868  11.670
20883W        W91483  27.101   1.785   4.617
20884W        W91484   8.794  31.152  11.678
20885W        W91485   2.007  31.342  11.542
20886W        W91486  14.083  15.797   4.629
20887W        W91487  37.160  36.898  13.947
20888W        W91488  32.356  17.598  12.586
20889W        W91489  11.838  31.058  13.313
20890W        W91490  40.056  41.429  11.023
20891W        W91491  37.759  27.184   3.803
20892W        W91492  40.984  33.126   0.023
20893W        W91493  23.266  11.137  11.578
20894W        W91494  24.523  44.781  14.844
20895W        W91495  14.367  26.613  14.034
20896W        W91496  41.711  37.784   2.790
20897W        W91497  19.657   2.968   4.579
20898W        W91498  22.760   1.464   4.598
20899W        W91499  23.379  42.844   9.677
20900W        W91500  12.034  16.265   3.887
20901W        W91501   4.262   7.452   3.205
20902W        W91502  22.328  41.889  11.472
20903W        W91503   5.874  37.915   2.129
20904W        W91504  19.138   7.212  10.530
20905W        W91505  16.911  27.818   4.092
20906W        W91506   2.838  15.183  11.432
20907W        W91507  20.780  13.344  14.819
20908W        W91508  40.775  35.865  10.988
20909W        W91509  13.290  15.353   0.501
20910W        W91510   0.243  13.789   2.244
20911W        W91511  24.931  40.550   4.452
20912W        W91512  39.278  27.021   3.819
20913W        W91513   6.797  27.529   4.076
20914W        W91514  27.864   5.180  14.499
20915W        W91515  20.489   3.412   4.114
20916W        W91516  10.207  22.062   0.754
20917W        W91517   8.815  13.289   3.131
20918W        W91518  14.430  18.589  14.386
20919W        W91519  29.454  13.347   2.848
20920W        W91520  23.750  24.284  12.574
20921W        W91521  32.173  37.030  10.981
20922W        W91522  35.167  30.075   1.821
20923W        W91523  36.255   0.359  11.234
20924W        W91524   7.886   6.853  14.556
20925W        W91525  39.808   3.065  13.527
20926W        W91526   2.191  13.705  12.974
20927W        W91527  30.668  23.712   2.786
20928W        W91528  25.994  30.496  11.568
20929W        W91529  22.151  20.379  11.495
20930W        W91530   5.248  20.457  12.486
20931W        W91531  24.252  33.169  12.940
20932W        W91532  17.822  21.233   3.217
20933W        W91533  38.982  20.739   3.336
20934W        W91534  40.923  19.572   2.602
20935W        W91535  42.989  21.754  13.960
20936W        W91536   1.994  29.560   0.737
20937W        W91537  42.490  44.078  13.593
20938W        W91538  33.969  20.673   4.375
20939W        W91539  22.348  41.015   4.489
20940W        W91540  14.129   1.202   0.897
20941W        W91541  26.940  11.146   2.807
20942W        W91542  10.876   2.711  13.152
20943W        W91543  25.963   1.286  12.394
20944W        W91544  23.622  32.612  12.596
20945W        W91545  23.124  40.335   0.467
20946W        W91546   2.198  33.709  11.916
20947W        W91547  16.120  17.334  10.184
20948W        W91548  37.984  15.519  11.213
20949W        W91549  25.501   2.056  13.586
20950W        W91550  24.082  24.055  10.931
20951W        W91551  18.622  42.587  12.896
20952W        W91552  43.229  37.962  12.377
20953W        W91553  34.007  42.381   3.658
20954W        W91554  28.920   0.504  10.319
20955W        W91555  19.787  36.933  11.071
20956W        W91556  21.670  12.425  11.612
20957W        W91557   1.835  38.109   4.986
20958W        W91558  44.113  23.175   1.117
20959W        W91559  18.790  19.597  13.345
20960W        W91560   6.490  37.392  11.008
20961W        W91561  30.888  38.895   2.210
20962W        W91562  23.923  38.546  14.924
20963W        W91563  27.947  16.078   4.625
20964W        W91564  28.193  23.025  11.635
20965W        W91565  30.920  10.141  11.958
20966W        W91566  40.073  21.126   0.053
20967W        W91567  41.507   4.757   0.933
20968W        W91568  11.721   3.476  10.665
20969W        W91569  25.471  19.803   0.866
20970W        W91570  42.293   9.845   2.221
20971W        W91571  16.334  28.108   0.798
20972W        W91572  41.536  20.364   4.954
20973W        W91573   9.951  14.890  14.542
20974W        W91574  33.908  18.700  10.484
20975W        W91575  26.558   3.750   4.188
20976W        W91576  31.958  31.493  12.046
20977W        W91577  18.096   6.296   4.562
20978W        W91578  14.628  34.695  12.027
20979W        W91579  27.898   5.514   2.933
20980W        W91580   1.318  20.830  12.542
20981W        W91581  39.352   2.546   4.459
20982W        W91582  26.697  24.416  11.575
20983W        W91583  42.265  13.790   4.389
20984W        W91584  25.892  41.527  12.161
20985W        W91585  33.192  21.781  11.653
20986W        W91586  27.863  22.584   4.438
20987W        W91587   8.354  25.568  12.465
20988W        W91588   1.544  29.035   1.459
20989W        W91589  11.565  16.675  13.494
20990W        W91590  17.537  20.589  10.709
20991W        W91591   4.464  23.523  13.399
20992W        W91592  14.005   0.344   0.745
20993W        W91593  27.215  19.007  11.600
20994W        W91594  26.718  28.203   2.737
20995W        W91595  15.300  18.514   2.390
20996W        W91596  34.518  42.415   3.887
20997W        W91597   9.719  19.770  14.065
20998W        W91598  39.491  22.529   3.271
20999W        W91599  32.818  35.952  11.213
21000W        W91600  43.834  35.439  13.870
21001W        W91601  20.265  15.977  13.380
21002W        W91602  15.490  12.659   4.256
21003W        W91603  20.125  20.048  12.095
21004W        W91604  31.877  26.126  14.082
21005W        W91605  35.442  23.614   3.132
21006W        W91606  32.663  32.099   4.048
21007W        W91607  20.164  39.472   2.202
21008W        W91608  13.863  37.548   1.785
21009W        W91609  13.510   8.777  13.045
21010W        W91610  32.465  25.882   2.306
21011W        W91611  27.928  33.063  12.598
21012W        W91612  26.663  11.211  12.883
21013W        W91613  16.945  43.292   4.641
21014W        W91614  30.966  41.913   3.520
21015W        W91615  17.167  36.467  11.765
21016W        W91616   2.180  39.881  11.759
21017W        W91617  29.310   9.544   1.761
21018W        W91618  21.168  30.840   2.789
21019W        W91619  38.691  14.911   3.392
21020W        W91620  39.045   7.723  11.146
21021W        W91621  35.576  16.337   3.236
21022W        W91622  31.423  34.360   0.917
21023W        W91623   5.858  29.310  14.042
21024W        W91624  40.433   2.180   2.323
21025W        W91625  14.281  27.272  12.443
21026W        W91626   4.268  15.114  12.045
21027W        W91627   1.838  17.132  12.023
21028W        W91628  42.013  10.758   0.009
21029W        W91629  22.942  26.284   1.201
21030W        W91630   7.313   5.193  13.836
21031W        W91631  29.574  11.684  14.876
21032W        W91632   2.744   2.924   0.441
21033W        W91633   2.866  41.372   1.155
21034W        W91634  17.078  22.770  10.626
21035W        W91635   2.507  43.317   1.935
21036W        W91636  25.925   9.760  13.303
21037W        W91637  36.067  33.320   1.139
21038W        W91638   6.064   5.947  11.065
21039W        W91639  41.931  17.844   5.699
21040W        W91640  44.929  23.653   0.647
21041W        W91641  34.724  28.592   3.723
21042W        W91642   0.540  11.659   3.211
21043W        W91643  33.009  18.671  10.603
21044W        W91644   8.634  16.987  11.287
21045W        W91645  22.918  36.836   4.117
21046W        W91646  14.200   8.845   4.421
21047W        W91647  14.623  32.340   1.275
21048W        W91648  18.094  30.456  14.804
21049W        W91649  43.423   1.853   3.184
21050W        W91650  32.011  44.254  13.997
21051W        W91651  26.074   0.743  10.134
21052W        W91652  33.134  10.866   2.892
21053W        W91653  30.488  24.413  10.743
21054W        W91654   4.629  25.124   2.168
21055W        W91655  30.520  21.214   0.165
21056W        W91656  14.807  16.052   1.663
21057W        W91657  35.566   4.673  13.091
21058W        W91658   1.357  18.870   0.405
21059W        W91659  44.088  36.084   0.202
21060W        W91660  42.957  32.994   2.194
21061W        W91661  39.642  31.935  10.833
21062W        W91662   6.737  14.906   3.792
21063W        W91663   7.347  32.501  11.456
21064W        W91664  25.030  41.858  10.497
21065W        W91665  11.753  13.422   0.145
21066W        W91666  30.808  34.714   3.587
21067W        W91667   2.293  10.334  13.893
21068W        W91668  37.629  16.089  12.040
21069W        W91669  37.636  15.740  10.894
21070W        W91670  26.092   2.990   0.105
21071W        W91671  23.981   4.341  12.441
21072W        W91672  19.230  23.016  13.914
21073W        W91673  32.517  41.455  12.648
21074W        W91674  29.626  26.053   3.536
21075W        W91675  23.698  39.610  12.380
21076W        W91676   6.423  41.932  11.323
21077W        W91677  25.743  34.444   4.266
21078W        W91678  42.806  33.103  14.408
21079W        W91679  10.115  20.192   1.415
21080W        W91680  29.979   3.391   2.026
21081W        W91681   3.218  27.787   3.649
21082W        W91682  37.126  10.538  14.683
21083W        W91683   6.988  42.933  14.940
21084W        W91684  19.486  38.952   0.853
21085W        W91685  23.244  13.670   2.206
21086W        W91686  14.713  15.112  12.904
21087W        W91687   8.914  31.484  12.417
21088W        W91688  16.605  11.725   0.688
21089W        W91689  30.707   9.873   2.289
21090W        W91690   7.748  32.330  11.167
21091W        W91691   4.949  13.838  13.573
21092W        W91692  16.075  35.456   0.186
21093W        W91693   6.692  26.930   0.757
21094W        W91694   8.190  17.525   1.425
21095W        W91695  21.833  41.038   0.279
21096W        W91696   5.785  15.161   4.098
21097W        W91697  30.360  35.532   4.899
21098W        W91698  24.290  11.830  11.438
21099W        W91699  20.227  31.111  13.227
21100W        W91700  44.856  19.422   2.347
21101W        W91701  27.044   0.924  11.175
21102W        W91702  32.993  36.443  14.383
21103W        W91703  41.254  41.928  12.880
21104W        W91704   4.148  29.734  11.104
21105W        W91705  44.993  38.853  14.020
21106W        W91706   7.402  24.510  10.702
21107W        W91707  32.904  25.790  13.361
21108W        W91708  22.477  38.004  11.023
21109W        W91709  42.693  23.457  14.404
21110W        W91710  44.791  18.499  12.634
21111W        W91711   3.502   1.286   4.752
21112W        W91712   3.222  31.670   0.221
21113W        W91713   3.947  25.002   2.860
21114W        W91714  17.406  24.098  12.070
21115W        W91715  25.284  19.060   4.973
21116W        W91716  38.353   7.751   1.491
21117W        W91717   6.990  28.972   2.763
21118W        W91718  14.860  23.038  14.265
21119W        W91719   4.175  28.953  12.238
21120W        W91720  19.218  18.563  11.184
21121W        W91721  11.285  35.958  13.461
21122W        W91722  41.678  10.349  13.897
21123W        W91723  42.780  41.021   2.806
21124W        W91724  10.394  30.674   0.361
21125W        W91725  41.875  34.065  12.392
21126W        W91726  22.601  28.774  13.520
21127W        W91727  29.060  26.984   0.024
21128W        W91728  17.301   2.712   0.723
21129W        W91729  40.096  23.545   0.860
21130W        W91730  18.087  26.696   1.364
21131W        W91731  10.762  37.429  14.513
21132W        W91732  32.182  20.198   3.263
21133W        W91733  34.360  25.688   1.089
21134W        W91734  32.672  43.765  11.345
21135W        W91735  21.936   3.248  14.248
21136W        W91736  44.633  27.842   5.137
21137W        W91737   4.024  42.857  11.481
21138W        W91738  27.990  21.278  10.034
21139W        W91739  20.077  31.992   1.131
21140W        W91740  22.056   2.711   2.682
21141W        W91741  42.050  41.390  13.289
21142W        W91742  11.018  12.259   3.807
21143W        W91743   4.904  31.209   0.351
21144W        W91744   8.347  24.721   4.744
21145W        W91745  25.552   4.429  14.805
21146W        W91746  18.880  34.907  11.595
21147W        W91747  12.661  19.237  14.393
21148W        W91748  44.245  15.691  10.773
21149W        W91749  43.287  30.829   4.995
21150W        W91750  30.540   8.983   3.321
21151W        W91751  29.202  11.683   0.431
21152W        W91752  10.438  28.546   5.015
21153W        W91753  34.987   0.062  11.754
21154W        W91754  32.538  19.189   1.256
21155W        W91755  21.111  16.803   1.410
21156W        W91756  42.870   2.713   2.825
21157W        W91757  25.649  28.580   4.520
21158W        W91758  41.752  29.533   3.313
21159W        W91759   4.240   2.978  14.280
21160W        W91760  31.937  26.663   0.424
21161W        W91761   4.683  24.750  12.222
21162W        W91762  30.956  42.031  12.018
21163W        W91763  27.038  32.641  14.884
21164W        W91764  24.530  39.915  14.344
21165W        W91765  40.504  37.412   1.623
21166W        W91766   7.194  26.448   5.324
21167W        W91767  43.813  34.507   3.349
21168W        W91768  24.151  29.056   3.467
21169W        W91769  29.431  14.922   0.276
21170W        W91770  20.467   0.832   4.140
21171W        W91771   4.681  24.639   2.379
21172W        W91772  36.887  37.742  13.909
21173W        W91773  10.179  32.757  10.073
21174W        W91774  32.401   4.916  13.334
21175W        W91775   7.256  23.434   0.509
21176W        W91776  14.657  32.872   4.278
21177W        W91777  42.111  12.306   0.853
21178W        W91778  12.799  19.583  12.983
21179W        W91779  38.398  37.868   2.717
21180W        W91780   6.790  36.278   3.228
21181W        W91781   7.650  34.665  13.389
21182W        W91782  29.375  36.825   3.178
21183W        W91783  16.334  38.939   4.302
21184W        W91784  27.855  38.939  14.594
21185W        W91785  17.759  36.251   4.069
21186W        W91786  25.355  44.252   4.170
21187W        W91787  19.145  18.201  13.423
21188W        W91788  30.875  26.170  13.847
21189W        W91789  10.945  13.254   2.081
21190W        W91790   2.837   9.983  13.071
21191W        W91791  44.792  11.384  13.397
21192W        W91792  28.147  20.298   1.908
21193W        W91793  27.466  36.122  10.763
21194W        W91794  31.026  31.151  10.620
21195W        W91795  33.041   1.488  13.371
21196W        W91796  35.160   3.890   0.881
21197W        W91797  37.604   2.386  13.316
21198W        W91798  18.647  32.442   3.545
21199W        W91799  24.190  32.135  11.938
21200W        W91800  32.406  44.212   0.320
21201W        W91801   3.158  42.992  10.791
21202W        W91802  39.024  41.962  14.292
21203W        W91803   8.195  38.362  12.381
21204W        W91804  28.474  21.148  12.824
21205W        W91805   9.258  14.045   4.441
21206W        W91806  24.488  31.511  14.108
21207W        W91807  22.812  22.321  12.162
21208W        W91808  41.554  29.561   3.804
21209W        W91809  35.851   4.238  12.009
21210W        W91810  34.125  39.347  13.375
21211W        W91811   8.206   1.703  12.364
21212W        W91812  19.341  36.447   0.309
21213W        W91813  16.018   2.435   3.232
21214W        W91814  16.479  14.059  14.431
21215W        W91815  10.148  14.053  11.159
21216W        W91816  37.030   7.746  11.620
21217W        W91817   3.254  19.812  12.844
21218W        W91818  29.548  32.656  10.980
21219W        W91819  28.708  26.892  12.099
21220W        W91820  18.235  13.597   3.862
21221W        W91821  38.455  30.200   2.938
21222W        W91822  40.268  15.702   3.650
21223W        W91823  16.995  37.942   2.282
21224W        W91824  36.384  42.404  13.070
21225W        W91825  44.451  25.084  11.903
21226W        W91826  13.855  34.432   4.534
21227W        W91827  23.485  29.012   4.444
21228W        W91828  26.666   0.881  12.007
21229W        W91829   5.062  38.853   3.873
21230W        W91830   7.129  17.211  14.846
21231W        W91831   4.444   5.704   1.780
21232W        W91832  30.084   3.020   1.379
21233W        W91833  37.893  33.684  12.939
21234W        W91834  36.514   3.349  10.169
21235W        W91835  22.671  19.236   2.431
21236W        W91836   8.874   4.404  12.883
21237W        W91837  10.090  17.217  10.683
21238W        W91838  18.146   8.892   4.872
21239W        W91839  40.380  33.107   2.642
21240W        W91840  37.125  15.779   3.841
21241W        W91841  42.019  42.889  12.132
21242W        W91842  20.626  31.446  14.970
21243W        W91843  24.255  28.897  11.068
21244W        W91844  21.894  13.786   4.299
21245W        W91845  36.807   5.263  14.004
21246W        W91846   4.715  19.067   2.765
21247W        W91847  31.329  16.049  14.403
21248W        W91848  13.699  21.727  11.459
21249W        W91849  38.871  23.657   3.935
21250W        W91850   2.681  31.617  13.786
21251W        W91851   9.932  28.401   3.255
21252W        W91852  26.248  16.083  12.894
21253W        W91853  44.718   7.742  11.082
21254W        W91854  15.434  44.158  12.016
21255W        W91855  42.370  13.376  10.679
21256W        W91856  38.843  31.660  12.510
21257W        W91857   5.875  33.873  12.969
21258W        W91858  41.472  41.373   1.760
21259W        W91859  35.303   7.716  13.054
21260W        W91860  10.766  16.484   0.363
21261W        W91861  41.000   8.688   1.518
21262W        W91862  40.102  41.338   4.723
21263W        W91863  24.654  19.624   2.865
21264W        W91864  21.674   3.735   2.855
21265W        W91865  30.678  18.063   2.328
21266W        W91866  41.304  24.164  12.541
21267W        W91867  39.086  26.363  12.478
21268W        W91868  22.561  40.235   4.135
21269W        W91869  40.815  31.121  12.620
21270W        W91870   6.421  10.720  13.715
21271W        W91871  41.365   4.197  10.573
21272W        W91872  21.555  14.117  11.163
21273W        W91873   8.466  38.834   2.805
21274W        W91874   8.861  43.542  12.512
21275W        W91875   7.240   9.310   0.666
21276W        W91876  36.175  11.831   9.763
21277W        W91877   9.933  42.558   0.800
21278W        W91878  31.124   6.723   1.457
21279W        W91879  16.644  12.634   2.146
21280W        W91880  11.983  22.963   3.296
21281W        W91881  17.278  20.188   2.838
21282W        W91882  12.713   4.302   4.866
21283W        W91883  40.293  31.085  11.727
21284W        W91884  44.606  25.503  10.283
21285W        W91885  15.191  34.780   3.525
21286W        W91886  38.900  29.262  13.532
21287W        W91887  13.872  34.547   5.036
21288W        W91888  39.354  41.329  14.844
21289W        W91889  15.350  40.485   1.720
21290W        W91890  34.330  43.835  12.442
21291W        W91891  23.515  37.774  13.805
21292W        W91892  22.071  23.451  10.424
21293W        W91893  14.335  43.330  11.527
21294W        W91894  10.207  40.285  12.984
21295W        W91895  12.073  16.190   1.259
21296W        W91896  15.005  13.102   4.640
21297W        W91897   4.874  41.080   2.761
21298W        W91898   7.141   9.815  13.808
21299W        W91899  12.652  31.736   3.261
21300W        W91900  14.714  38.305   2.731
21301W        W91901  18.661   1.856   3.993
21302W        W91902  30.013   0.961  11.545
21303W        W91903  32.646   0.172   1.670
21304W        W91904  31.630  12.107   3.656
21305W        W91905  19.631   3.692   3.230
21306W        W91906  17.401  28.639  11.832
21307W        W91907  42.212   2.914   4.612
21308W        W91908  32.794  36.011   3.111
21309W        W91909  32.828   5.397   4.140
21310W        W91910  13.270  17.072   4.892
21311W        W91911  18.424  32.931  13.854
21312W        W91912  26.639  18.963   4.339
21313W        W91913   3.096  37.077  12.926
21314W        W91914  18.285  13.097   4.619
21315W        W91915  37.128   7.798  14.469
21316W        W91916  44.095   6.096  13.744
21317W        W91917  22.414  24.915   0.808
21318W        W91918  33.079  20.276  14.521
21319W        W91919   1.141  13.883   0.311
21320W        W91920  14.336  39.101   2.686
21321W        W91921  35.662  16.281  12.488
21322W        W91922   8.926  34.347  12.459
21323W        W91923  23.275  41.818  13.046
21324W        W91924  21.873  16.824   0.911
21325W        W91925  35.808   3.528   4.869
21326W        W91926  12.703   7.134   1.692
21327W        W91927   2.448  38.619  14.347
21328W        W91928   0.238  19.155  11.891
21329W        W91929  42.804  10.380   4.597
21330W        W91930  17.789  19.630  12.889
21331W        W91931  21.144   6.761   2.601
21332W        W91932   8.896  35.307   2.397
21333W        W91933  16.076  13.114  13.811
21334W        W91934  17.510  38.500   3.454
21335W        W91935   5.410   8.338   0.453
21336W        W91936  36.990  21.767  11.365
21337W        W91937   5.814   2.247  11.568
21338W        W91938  29.109  41.806   2.183
21339W        W91939  22.947  22.132   1.859
21340W        W91940  21.009  34.457   0.806
21341W        W91941  31.474   6.600  12.488
21342W        W91942  14.120   3.031   1.228
21343W        W91943  22.845   6.739  11.023
21344W        W91944  16.764   0.456  12.756
21345W        W91945  38.260  41.985   1.732
21346W        W91946  22.017  40.738  13.948
21347W        W91947  15.581  10.368  12.831
21348W        W91948  40.510   7.298   0.215
21349W        W91949  29.142  10.778  14.985
21350W        W91950   2.991  41.950   2.423
21351W        W91951  42.024  37.337   1.715
21352W        W91952  14.545  39.750  10.757
21353W        W91953   8.820  18.843   1.834
21354W        W91954  15.839  36.346   0.004
21355W        W91955  22.472  25.101  12.621
21356W        W91956  35.286  36.636   3.746
21357W        W91957  20.936  28.684   1.935
21358W        W91958   3.898   3.405   1.104
21359W        W91959  23.664  16.464   0.371
21360W        W91960   7.838   8.903  14.693
21361W        W91961  43.233  30.152  13.780
21362W        W91962   5.060   4.538  14.952
21363W        W91963  26.046   3.775  10.701
21364W        W91964  22.845  13.262   0.008
21365W        W91965  17.570  29.630  10.969
21366W        W91966  30.913  15.187   3.605
21367W        W91967  33.285  14.386   1.552
21368W        W91968  33.533  39.498   4.636
21369W        W91969  33.947  15.865   2.361
21370W        W91970   3.476  43.945  11.180
21371W        W91971  26.171  26.972  12.384
21372W        W91972  29.092  18.338   0.968
21373W        W91973   2.261  19.501   9.857
21374W        W91974   8.341  23.995  11.140
21375W        W91975  23.062   6.937   1.741
21376W        W91976   3.800  19.851  14.333
21377W        W91977   9.702  35.813   0.921
21378W        W91978  33.664  20.711  10.784
21379W        W91979  26.105  44.757   4.327
21380W        W91980  26.523  35.134   4.611
21381W        W91981   7.672  44.149  11.116
21382W        W91982  27.201   8.717  11.876
21383W        W91983  29.403  22.332  11.028
21384W        W91984  35.063  22.843   9.975
21385W        W91985  38.881  16.692  10.432
21386W        W91986  22.589   4.274  14.284
21387W        W91987  27.438  31.198   0.926
21388W        W91988   6.623  13.598   1.379
21389W        W91989   7.413  23.031   3.738
21390W        W91990  30.357   7.172  13.416
21391W        W91991   4.688   3.873  14.421
21392W        W91992  31.508  32.324   1.276
21393W        W91993  43.466  23.102   3.093
21394W        W91994   7.964  21.006   1.873
21395W        W91995  33.815  23.485   1.412
21396W        W91996  34.314   3.795   0.662
21397W        W91997  13.392  30.667  14.843
21398W        W91998  33.531  22.455   3.822
21399W        W91999  25.500  13.057  13.973
21400W        W92000  38.558  30.307   1.066
21401W        W92001   2.919   3.628   1.954
21402W        W92002   6.563  42.643  11.376
21403W        W92003  31.026  41.443   3.316
21404W        W92004  44.399   0.720  12.868
21405W        W92005  37.493  34.419   1.900
21406W        W92006  40.594  41.538   4.628
21407W        W92007  43.440  39.434   4.419
21408W        W92008  16.136  10.861  11.421
21409W        W92009  26.151  11.319   3.271
21410W        W92010   2.674  38.463  13.302
21411W        W92011  31.090  31.394  14.843
21412W        W92012  38.854  18.275  13.901
21413W        W92013  34.256  38.442  13.336
21414W        W92014  24.525  27.907  11.205
21415W        W92015  33.512   3.475  11.990
21416W        W92016  30.587  23.733   1.324
21417W        W92017  13.810  33.955  11.646
21418W        W92018  19.674  31.829  12.039
21419W        W92019   2.718  11.392  13.424
21420W        W92020   8.942  29.958  13.487
21421W        W92021  33.015  11.204   0.534
21422W        W92022   4.414  36.876  13.344
21423W        W92023   8.852  42.463  14.320
21424W        W92024  40.154  10.162   0.971
21425W        W92025   6.354  18.784   1.811
21426W        W92026  19.965  33.310   3.383
21427W        W92027  42.347  14.103  11.738
21428W        W92028   4.612  32.862  11.266
21429W        W92029   4.772   6.798  14.719
21430W        W92030  21.126   7.374  12.942
21431W        W92031  20.294   0.400   1.937
21432W        W92032  20.340   1.373  13.576
21433W        W92033  44.554  32.658   4.175
21434W        W92034  17.653   6.971  11.055
21435W        W92035  31.336  21.675  12.121
21436W        W92036  23.486   1.874   1.698
21437W        W92037   2.269  38.371   4.328
21438W        W92038  42.435   3.130  13.381
21439W        W92039  12.183  21.202  12.222
21440W        W92040  13.312  33.035   3.745
21441W        W92041   5.966  19.608   2.837
21442W        W92042  24.798   7.865  12.119
21443W        W92043   4.362  12.589  12.270
21444W        W92044  24.447  16.177   1.397
21445W        W92045  34.191  13.581   0.875
21446W        W92046  42.442   4.420  12.939
21447W        W92047   7.810  11.851  13.813
21448W        W92048  28.091  42.505  11.582
21449W        W92049  12.210  10.428  14.453
21450W        W92050  19.161  24.308  13.279
21451W        W92051  27.668  34.364   0.269
21452W        W92052  23.476   6.088   0.805
21453W        W92053   3.001  41.579  11.688
21454W        W92054  29.477  38.274   0.751
21455W        W92055  15.137   7.331   4.184
21456W        W92056  22.999  31.240   1.751
21457W        W92057  36.719  16.415   2.744
21458W        W92058  26.401  21.865  14.895
21459W        W92059  30.651  36.304   1.379
21460W        W92060  23.166  31.191  11.140
21461W        W92061   2.735  42.418  14.526
21462W        W92062  14.828  39.740   1.896
21463W        W92063  11.277   1.393  10.643
21464W        W92064  43.441  37.613   4.084
21465W        W92065   4.921  43.548   2.890
21466W        W92066  15.650  10.184  13.811
21467W        W92067  25.476  24.866  12.066
21468W        W92068  42.336  16.087  12.557
21469W        W92069   7.830   9.211   4.354
21470W        W92070  18.268  42.221   4.224
21471W        W92071  32.358  20.176  13.350
21472W        W92072   1.217  14.753   4.942
21473W        W92073  20.173  17.320  11.555
21474W        W92074  15.268  13.544   4.489
21475W        W92075  19.225  19.743  10.559
21476W        W92076  27.709  12.748  12.047
21477W        W92077  25.192  21.961   1.173
21478W        W92078  18.714  24.607   1.164
21479W        W92079   1.828   3.922   0.728
21480W        W92080  42.511  20.191   2.713
21481W        W92081  20.123  41.727   0.522
21482W        W92082  42.203   4.179   2.647
21483W        W92083   2.027  22.269   4.098
21484W        W92084  19.645  37.695  11.563
21485W        W92085  38.568  17.515  13.507
21486W        W92086   5.070  32.912   3.147
21487W        W92087  24.547  30.160  11.054
21488W        W92088  35.145  34.632  12.472
21489W        W92089  39.813   8.466  11.217
21490W        W92090  14.089   2.299  14.352
21491W        W92091   0.847  37.963   2.189
21492W        W92092   1.267  44.592  13.917
21493W        W92093  17.302  29.485  14.387
21494W        W92094  21.494  13.119  11.100
21495W        W92095  37.944  26.689   2.531
21496W        W92096  43.520  34.085   4.074
21497W        W92097  21.249  34.136  11.933
21498W        W92098   5.341   1.261  13.838
21499W        W92099  27.926  19.794  13.318
21500W        W92100  27.956  14.033  14.572
21501W        W92101  32.423   6.337  12.615
21502W        W92102  29.071  19.635   4.207
21503W        W92103   7.198  21.412   0.515
21504W        W92104  25.409  32.739  13.597
21505W        W92105  39.115  21.207   3.082
21506W        W92106   7.394  15.371  12.123
21507W        W92107  13.696  19.159   0.445
21508W        W92108  35.810  42.501  11.168
21509W        W92109   9.091  26.057  10.961
21510W        W92110  30.626  37.621   0.361
21511W        W92111   7.100  24.510  14.904
21512W        W92112   2.526   6.399   3.177
21513W        W92113   1.963  41.983  14.544
21514W        W92114   7.209   2.893   3.617
21515W        W92115  17.119  12.522   1.848
21516W        W92116  40.376  14.291  14.483
21517W        W92117  15.391  12.364  14.492
21518W        W92118   1.897  43.182   3.266
21519W        W92119  18.274  23.065   2.883
21520W        W92120  38.986  42.903  13.328
21521W        W92121  28.769  35.304  12.494
21522W        W92122  40.424   5.365  12.420
21523W        W92123  36.154  20.671  12.576
21524W        W92124  11.549  19.653  14.408
21525W        W92125  17.057   8.646  12.514
21526W        W92126  20.081  35.647   0.495
21527W        W92127  14.787  32.492   3.104
21528W        W92128  32.444  28.378   2.324
21529W        W92129  10.311  18.148   5.010
21530W        W92130  27.735  29.131  10.719
21531W        W92131   3.912  22.034   0.695
21532W        W92132   5.999  23.393  11.233
21533W        W92133   2.408   5.682  10.624
21534W        W92134  18.201  23.736   1.640
21535W        W92135  20.271  26.638   2.370
21536W        W92136  33.593  29.246  14.322
21537W        W92137  26.115  15.636  14.731
21538W        W92138  32.018  16.806  10.555
21539W        W92139  11.643  17.492   4.042
21540W        W92140  17.584  24.157   2.446
21541W        W92141   4.838  21.596   3.110
21542W        W92142  34.849   5.125  11.420
21543W        W92143  16.478  18.267  12.380
21544W        W92144  25.804  30.453   1.906
21545W        W92145  16.156  27.019  14.831
21546W        W92146  21.979  25.126   1.548
21547W        W92147  22.791  35.368   3.230
21548W        W92148  22.180  35.342   4.067
21549W        W92149  39.108  32.136  13.528
21550W        W92150  42.898   2.262  12.632
21551W        W92151  24.380  40.874  13.479
21552W        W92152   3.404   6.423   4.211
21553W        W92153  35.137   4.382   2.546
21554W        W92154   0.837  20.991  13.768
21555W        W92155  18.535  42.958   1.786
21556W        W92156   6.924  34.329  10.962
21557W        W92157  33.030  22.998  13.349
21558W        W92158  13.605   1.107  11.598
21559W        W92159  27.706  30.528  11.674
21560W        W92160  12.276  11.672  13.886
21561W        W92161  29.091   6.126  14.937
21562W        W92162  23.745   8.778  10.418
21563W        W92163   6.331  14.869   0.724
21564W        W92164   8.208   0.881   2.165
21565W        W92165  36.765   0.580   4.570
21566W        W92166   2.322  36.150  14.324
21567W        W92167  32.111   6.231  14.405
21568W        W92168  22.611  15.660  13.637
21569W        W92169   7.596  41.970   2.469
21570W        W92170  40.624  37.990   0.930
21571W        W92171  11.164   7.837   0.813
21572W        W92172  14.491  38.502   2.295
21573W        W92173  11.454  26.065  13.466
21574W        W92174  15.923   3.204  11.922
21575W        W92175  44.660  40.410   0.006
21576W        W92176  20.543  44.339  10.108
21577W        W92177   0.415  14.616   3.411
21578W        W92178  15.555  18.154  12.416
21579W        W92179  34.894   9.802   1.256
21580W        W92180  39.838   8.668  13.548
21581W        W92181  33.527   2.271   3.151
21582W        W92182  43.624  24.036  13.742
21583W        W92183  36.649  17.376  14.402
21584W        W92184  23.996  24.758   0.496
21585W        W92185  17.345   6.506  11.081
21586W        W92186  43.334  15.313   3.794
21587W        W92187  10.784  28.992   0.184
21588W        W92188  33.041  44.988   0.345
21589W        W92189  38.122  26.244   0.357
21590W        W92190  35.612  33.116   2.855
21591W        W92191  32.872   9.632  12.409
21592W        W92192  19.080  32.375   3.818
21593W        W92193   0.114   6.894  12.633
21594W        W92194  12.941  27.073   1.675
21595W        W92195  34.283  24.337   4.117
21596W        W92196  43.113  34.604  12.474
21597W        W92197  30.145  21.187  10.701
21598W        W92198  27.434   4.279  13.786
21599W        W92199  15.109  35.482   0.851
21600W        W92200  23.921  14.078   2.657
21601W        W92201  34.997   4.375   4.642
21602W        W92202  38.733  25.046   0.198
21603W        W92203  10.236   9.088  12.415
21604W        W92204  26.537   5.710  12.837
21605W        W92205  11.794  23.561  14.371
21606W        W92206  35.400  11.149   1.802
21607W        W92207  13.117  43.980  13.784
21608W        W92208  20.753  18.289  10.755
21609W        W92209  13.834  36.340  12.865
21610W        W92210   5.663  23.085   3.677
21611W        W92211  41.854  28.479   1.718
21612W        W92212  15.077  14.700   4.144
21613W        W92213  28.618  12.276  12.472
21614W        W92214  12.701  29.498  11.996
21615W        W92215  33.052  40.952  13.933
21616W        W92216  40.904  29.053   4.394
21617W        W92217  23.476  21.195   3.580
21618W        W92218  28.027  27.724  12.914
21619W        W92219  25.110  28.909  12.892
21620W        W92220   0.704   4.998   3.192
21621W        W92221   6.243   1.907  11.621
21622W        W92222  19.067  11.032  14.454
21623W        W92223  21.413   5.186  12.892
21624W        W92224  12.681  19.792   2.567
21625W        W92225  19.223  14.101   2.944
21626W        W92226   8.820  37.077  13.904
21627W        W92227  14.638   9.156   4.369
21628W        W92228  26.092  39.304   1.171
21629W        W92229  18.132  36.872   3.435
21630W        W92230  20.202  34.554   0.370
21631W        W92231  11.678  41.715   1.994
21632W        W92232  10.469  37.740   0.707
21633W        W92233  22.614  33.994   2.684
21634W        W92234   9.779  15.745   0.884
21635W        W92235  43.513  31.936   3.740
21636W        W92236  15.624  31.230   2.353
21637W        W92237  24.280  10.261  12.836
21638W        W92238  35.501  37.746   2.311
21639W        W92239  12.230   7.017  14.365
21640W        W92240  30.622   6.746  11.533
21641W        W92241  16.042  17.228  12.967
21642W        W92242  19.652  44.408  13.631
21643W        W92243  27.115  17.512   2.635
21644W        W92244  20.037  33.842  10.500
21645W        W92245  31.667  37.670  12.948
21646W        W92246   7.260  37.683  10.375
21647W        W92247  34.499  25.089   4.549
21648W        W92248  15.661  29.109  13.890
21649W        W92249  13.363  33.986  10.513
21650W        W92250  43.729  35.970  13.312
21651W        W92251   2.899  35.173  10.345
21652W        W92252  17.229  17.189  14.843
21653W        W92253  43.451  38.960   2.327
21654W        W92254   5.206   3.553   1.683
21655W        W92255  43.084  12.775  11.179
21656W        W92256  34.613  30.194  10.698
21657W        W92257  28.533  44.814  10.862
21658W        W92258  36.044   6.901  14.938
21659W        W92259   7.713  43.684   2.632
21660W        W92260   9.133  15.664  13.543
21661W        W92261  44.659  43.018  14.367
21662W        W92262  31.486   5.157   1.943
21663W        W92263   0.673  43.309  11.514
21664W        W92264  22.712  10.785  11.197
21665W        W92265  27.716  30.583   0.407
21666W        W92266  41.696  31.110  13.581
21667W        W92267  35.525  28.446   1.436
21668W        W92268  35.294   4.768  14.575
21669W        W92269  28.425  27.727   1.064
21670W        W92270   7.872  37.621  11.058
21671W        W92271  33.493   2.789  13.807
21672W        W92272   7.157  29.762  13.405
21673W        W92273  19.219  35.048  13.819
21674W        W92274   2.753  23.534  14.557
21675W        W92275  28.419  20.217  14.870
21676W        W92276  19.925  30.954   2.232
21677W        W92277  35.557   3.869   0.478
21678W        W92278  20.551  22.116   0.489
21679W        W92279  28.893  36.985  12.994
21680W        W92280  14.945  12.093   1.854
21681W        W92281  29.047  29.103   1.267
21682W        W92282  20.695  13.346  10.743
21683W        W92283  34.624  18.128   1.925
21684W        W92284  29.618  44.886   3.686
21685W        W92285  23.518  12.831   4.044
21686W        W92286  40.273  14.597  14.928
21687W        W92287  33.022   8.277   3.058
21688W        W92288  32.500  26.559   0.744
21689W        W92289  18.691  23.695  12.169
21690W        W92290  44.901  20.824   3.406
21691W        W92291  40.981  16.583   1.290
21692W        W92292  36.397  17.799   4.953
21693W        W92293  42.750  27.712  11.561
21694W        W92294  41.103  11.424  12.397
21695W        W92295   9.330   8.808   3.850
21696W        W92296  27.936   7.712   3.162
21697W        W92297   5.468  24.535  11.525
21698W        W92298  15.708  13.627   2.355
21699W        W92299  38.945  36.434   2.935
21700W        W92300  28.459  36.636   0.704
21701W        W92301  38.914  25.984  14.452
21702W        W92302  27.105  29.998   1.826
21703W        W92303   4.687  16.827   1.732
21704W        W92304  26.563  41.865   4.456
21705W        W92305  25.077  18.112   4.630
21706W        W92306   5.953   5.447  11.221
21707W        W92307  38.143  30.423   0.769
21708W        W92308  11.180  23.208   2.848
21709W        W92309  11.747  19.155   2.816
21710W        W92310  11.573  35.020   2.655
21711W        W92311  39.317  31.399   4.360
21712W        W92312  19.279  22.726   1.782
21713W        W92313  24.661  42.437  14.572
21714W        W92314  29.181  40.029  12.727
21715W        W92315  36.770  41.305   2.375
21716W        W92316  43.369  22.738  14.577
21717W        W92317  24.797  36.683  11.075
21718W        W92318  17.484  25.575  12.815
21719W        W92319  11.369   5.382   3.765
21720W        W92320  37.869  35.908   3.678
21721W        W92321  38.483   9.119  14.889
21722W        W92322   4.353   0.322   0.701
21723W        W92323  15.124  35.345   0.252
21724W        W92324  30.937  43.383   2.688
21725W        W92325  41.831  43.313  11.918
21726W        W92326  42.707  44.484   1.659
21727W        W92327   0.170   4.543   2.427
21728W        W92328  39.741  39.770  11.835
21729W        W92329  18.525   2.837  14.902
21730W        W92330  21.137  11.678   0.409
21731W        W92331  36.885  41.007  11.063
21732W        W92332  32.910  19.394  14.467
21733W        W92333  19.078   2.717   0.399
21734W        W92334  19.546  36.438  12.058
21735W        W92335  37.697   0.940  10.659
21736W        W92336  20.694   4.664   2.392
21737W        W92337  13.890   6.944  12.907
21738W        W92338  18.734  19.550  12.829
21739W        W92339  33.498  38.004  14.662
21740W        W92340  28.160  20.315  10.594
21741W        W92341  14.619  27.540  14.388
21742W        W92342  23.103   5.256   2.944
21743W        W92343  15.125   6.435   4.610
21744W        W92344   8.955  37.448  10.642
21745W        W92345  27.460   2.446  12.669
21746W        W92346   6.939   9.578   3.715
21747W        W92347  40.277   9.189  13.562
21748W        W92348  19.763  41.563   1.358
21749W        W92349  37.853   6.240  14.843
21750W        W92350  10.422  14.192  12.065
21751W        W92351   2.581  30.943  12.969
21752W        W92352  14.839  40.510   3.724
21753W        W92353  24.984  40.735   1.249
21754W        W92354  12.529  24.882  13.097
21755W        W92355  32.080  22.521   0.367
21756W        W92356   0.082  41.347   1.801
21757W        W92357  20.675  17.387   2.780
21758W        W92358  28.810  19.083   0.176
21759W        W92359  32.618  18.131  10.839
21760W        W92360  40.879  34.757  14.988
21761W        W92361  15.747  29.807   4.238
21762W        W92362  21.955   1.670  12.573
21763W        W92363   1.426   9.222   1.386
21764W        W92364  11.213  15.865   3.077
21765W        W92365   6.293  34.745   5.106
21766W        W92366   4.768   0.398   1.424
21767W        W92367   4.054  30.538   1.043
21768W        W92368  10.860   4.537   3.588
21769W        W92369  17.555   6.732   3.672
21770W        W92370  21.549  43.740  13.263
21771W        W92371  16.008  38.312   3.559
21772W        W92372   0.185  39.023  10.307
21773W        W92373  29.708   9.288  14.292
21774W        W92374  15.439  34.454  13.816
21775W        W92375  11.543  32.344  10.924
21776W        W92376   7.035  17.760  12.415
21777W        W92377  15.166  22.980  11.084
21778W        W92378  39.011   5.904   3.689
21779W        W92379   2.700   3.340  13.398
21780W        W92380  11.430  43.306  12.462
21781W        W92381  36.240   0.252   1.878
21782W        W92382  27.727  14.779   3.858
21783W        W92383  19.987  40.270  11.925
21784W        W92384   0.196   4.277   2.896
21785W        W92385   7.665  33.043   4.323
21786W        W92386   9.935  31.341  11.490
21787W        W92387   1.260  32.134  10.752
21788W        W92388  38.968   4.361   3.606
21789W        W92389   5.453  44.730  12.377
21790W        W92390   9.332  21.600  13.872
21791W        W92391  29.341   1.810  13.877
21792W        W92392  33.391  21.621  10.919
21793W        W92393  33.073  22.609   4.589
21794W        W92394  25.946  31.316  13.743
21795W        W92395  13.290  12.285   4.594
21796W        W92396  19.092   9.252   3.684
21797W        W92397  17.797  34.980  12.367
21798W        W92398  27.644  17.807   0.736
21799W        W92399  31.909  20.578   0.385
21800W        W92400  42.574   1.300   3.232
21801W        W92401  38.296  29.409   1.624
21802W        W92402  25.591  13.652  13.115
21803W        W92403  17.437   4.520   0.004
21804W        W92404  43.874   6.381   0.256
21805W        W92405  10.182  33.848   0.313
21806W        W92406  22.259  30.027   0.854
21807W        W92407  16.375   0.931   4.584
21808W        W92408   0.718  19.093  12.572
21809W        W92409  24.567   1.501   4.301
21810W        W92410  38.901  20.540   2.600
21811W        W92411  13.585   4.068  11.561
21812W        W92412  27.001   9.900  11.151
21813W        W92413  27.170   9.248   1.465
21814W        W92414  14.134  36.595  12.525
21815W        W92415  33.511  32.891   3.013
21816W        W92416  44.278  41.166  14.862
21817W        W92417  32.533   8.074  11.159
21818W        W92418  14.801   1.769   1.340
21819W        W92419  18.186   3.709  13.305
21820W        W92420  30.859  23.818  14.779
21821W        W92421  17.041  14.879  12.656
21822W        W92422  13.474  14.743  11.586
21823W        W92423  36.445  30.074   0.533
21824W        W92424   6.322  26.271   4.868
21825W        W92425   1.975   2.829  12.509
21826W        W92426  29.113  22.122   4.060
21827W        W92427  29.353  41.609   0.888
21828W        W92428  11.443  17.655  10.662
21829W        W92429  40.389   2.889  11.930
21830W        W92430  26.374  32.116  14.796
21831W        W92431  10.812  19.115  12.875
21832W        W92432   9.198   8.313  13.565
21833W        W92433  12.885  35.678  12.449
21834W        W92434  23.779   8.941   0.419
21835W        W92435  34.492  33.031  11.131
21836W        W92436  40.094  44.840  11.147
21837W        W92437  10.537  40.990  14.296
21838W        W92438  28.500   4.985  13.932
21839W        W92439  15.081  34.831  11.592
21840W        W92440  31.840  32.675  11.513
21841W        W92441  31.493  24.314   0.247
21842W        W92442  20.067  42.029   4.304
21843W        W92443  15.081  34.836  13.822
21844W        W92444   1.753  40.067   1.572
21845W        W92445   6.195  12.153   4.574
21846W        W92446   6.404   1.668   9.929
21847W        W92447  12.609   8.596   0.857
21848W        W92448  41.861  31.010  14.816
21849W        W92449  14.386  29.126   0.785
21850W        W92450   2.927  17.525   1.916
21851W        W92451  44.592  10.650  11.224
21852W        W92452  20.478  38.918   0.663
21853W        W92453  14.393  22.717   0.508
21854W        W92454   0.854  41.022  12.170
21855W        W92455  35.619  13.727   1.765
21856W        W92456  28.034  31.564  14.062
21857W        W92457  14.377  38.251   3.153
21858W        W92458  11.868  30.858  12.380
21859W        W92459   2.690  12.877  11.760
21860W        W92460  30.867  13.163   3.017
21861W        W92461  15.221  41.098  10.672
21862W        W92462   9.926   4.668  13.588
21863W        W92463  29.129   7.454  10.756
21864W        W92464   6.241  32.323   0.999
21865W        W92465  21.808  35.806  14.466
21866W        W92466   5.436  24.058  14.441
21867W        W92467  36.454  18.520  11.962
21868W        W92468   1.589  13.663   4.137
21869W        W92469  31.007  28.936   1.733
21870W        W92470  38.007  14.070  13.393
21871W        W92471  34.817   0.648   0.473
21872W        W92472   5.480  24.503   0.275
21873W        W92473  42.717  38.338   2.362
21874W        W92474  32.529   3.274   0.485
21875W        W92475   0.518  42.487  14.212
21876W        W92476  25.914  28.496  14.210
21877W        W92477  44.815  14.763   1.083
21878W        W92478  32.829  43.890  10.829
21879W        W92479   6.184   8.811   2.428
21880W        W92480  39.254  39.043  10.596
21881W        W92481   1.292   7.903   3.258
21882W        W92482  18.367  24.592   3.711
21883W        W92483  43.560  11.823  12.187
21884W        W92484  28.999  39.903   0.566
21885W        W92485  16.860  15.966   2.659
21886W        W92486  24.232  16.638  14.515
21887W        W92487  25.168  12.528  12.520
21888W        W92488  29.514   7.184  10.556
21889W        W92489  33.498  19.729  12.550
21890W        W92490  33.416   3.295   4.330
21891W        W92491   8.130  30.063  14.967
21892W        W92492  31.026  44.338  10.657
21893W        W92493   5.369  26.003   0.458
21894W        W92494  21.219  10.151   2.732
21895W        W92495  41.406  19.133  12.032
21896W        W92496   9.864  37.380  12.666
21897W        W92497  44.398  24.325   0.526
21898W        W92498  30.526  22.279   4.725
21899W        W92499  17.145  23.686  14.506
21900W        W92500  23.060  34.116  13.429
21901W        W92501  39.292  14.251  10.352
21902W        W92502  36.096  33.688   1.687
21903W        W92503  33.009   8.027  13.845
21904W        W92504   8.578   1.339  11.381
21905W        W92505   6.773  23.203   1.262
21906W        W92506  17.517  40.004   0.947
21907W        W92507  29.597  44.027   4.166
21908W        W92508  28.557  14.133   1.202
21909W        W92509  26.629  31.905   2.335
21910W        W92510  10.422  35.412  14.058
21911W        W92511  43.846   2.485   2.251
21912W        W92512   5.985  35.347  13.947
21913W        W92513  42.805  25.027  13.659
21914W        W92514  14.110  30.412  12.400
21915W        W92515  34.544   1.423   0.073
21916W        W92516  24.652  41.996  12.379
21917W        W92517  19.629  37.928   4.610
21918W        W92518  23.621  40.772   0.867
21919W        W92519  34.922  35.039  11.589
21920W        W92520  18.787  22.978   1.535
21921W        W92521  28.459  26.234   1.271
21922W        W92522  13.245  31.070  14.438
21923W        W92523  35.295  30.593   1.243
21924W        W92524  24.801   8.744  12.052
21925W        W92525  44.012  44.747  11.102
21926W        W92526  40.862  13.903   4.681
21927W        W92527  41.781  21.625  14.290
21928W        W92528   8.149  38.487  14.302
21929W        W92529  33.493  27.850   4.505
21930W        W92530  34.287  11.191  14.924
21931W        W92531  33.356  27.131   1.025
21932W        W92532  15.626  43.756  13.478
21933W        W92533  25.453   4.324   0.443
21934W        W92534  22.986  23.872   1.698
21935W        W92535  37.524  22.479   0.346
21936W        W92536  24.660  25.192  10.403
21937W        W92537  29.594  30.922  11.001
21938W        W92538   7.685   4.859  10.296
21939W        W92539  25.806  15.893   3.233
21940W        W92540  20.865  30.660   3.158
21941W        W92541  41.477  31.682   1.918
21942W        W92542   8.269  15.999   3.453
21943W        W92543  22.735  18.595  12.767
21944W        W92544  29.434  37.461  12.356
21945W        W92545  35.096   6.063   5.035
21946W        W92546  32.480  44.458  13.433
21947W        W92547   4.225  30.530   0.551
21948W        W92548  31.645   5.737  14.915
21949W        W92549  25.576  26.335  12.174
21950W        W92550   9.822  26.671  11.584
21951W        W92551   6.226  34.984   3.245
21952W        W92552  38.419  15.573  12.465
21953W        W92553  31.645  19.174   2.354
21954W        W92554   1.315  33.641  11.813
21955W        W92555  17.205  28.643   4.070
21956W        W92556   7.287  34.967  10.720
21957W        W92557  13.794   3.750  13.372
21958W        W92558   7.166   5.283  10.898
21959W        W92559   0.841  10.907  12.425
21960W        W92560   5.964  20.511   4.326
21961W        W92561  36.542  27.240  12.860
21962W        W92562  34.302  12.523  11.087
21963W        W92563  16.191  42.039   3.584
21964W        W92564  33.879  35.599  12.065
21965W        W92565   1.770  40.090  11.469
21966W        W92566  31.221  25.977   3.882
21967W        W92567  27.907  20.233  12.970
21968W        W92568  31.006  36.517   3.713
21969W        W92569  17.283  12.557  10.604
21970W        W92570  34.484  17.095  12.506
21971W        W92571   9.102  37.014   0.715
21972W        W92572  36.634   6.400   0.274
21973W        W92573   7.347  43.330  14.989
21974W        W92574  20.968   3.506   3.219
21975W        W92575  29.741   2.766   3.243
21976W        W92576   8.968   8.193   0.775
21977W        W92577  37.290  12.695  14.758
21978W        W92578  44.413  42.727   4.874
21979W        W92579  25.427  19.324  10.860
21980W        W92580  27.884  22.806   0.290
21981W        W92581  41.005  39.843   0.184
21982W        W92582  22.742   3.873  10.924
21983W        W92583  33.966  25.009   3.106
21984W        W92584  29.545   7.298  11.075
21985W        W92585  35.251   5.639  13.801
21986W        W92586  22.659  19.271   2.928
21987W        W92587  38.441  22.647   1.210
21988W        W92588   2.245  21.987  10.767
21989W        W92589  10.397  30.333  14.601
21990W        W92590  23.151  44.496  12.054
21991W        W92591  32.954   1.032  12.956
21992W        W92592  33.152  20.133  12.465
21993W        W92593  10.775   3.065   3.747
21994W        W92594  15.062  41.044  14.494
21995W        W92595  22.559  21.938  14.290
21996W        W92596  39.692  42.697  13.806
21997W        W92597  41.740  16.354  11.067
21998W        W92598   1.293  25.012  12.889
21999W        W92599   2.991  10.125   4.843
22000W        W92600  17.631   9.200   2.483
22001W        W92601   1.838   3.069   1.354
22002W        W92602  33.965   3.808   2.825
22003W        W92603  33.420  23.055  14.104
22004W        W92604  10.922  24.308   3.544
22005W        W92605   1.550   8.401  14.227
22006W        W92606  20.931  15.618  13.178
22007W        W92607   9.166  39.089   2.228
22008W        W92608  15.290  26.678   1.353
22009W        W92609  25.188  41.139  14.351
22010W        W92610  24.769   5.598   1.995
22011W        W92611  34.415  36.215  12.825
22012W        W92612  34.596  12.689   2.321
22013W        W92613  32.078  36.108  10.469
22014W        W92614   9.161  21.633   2.177
22015W        W92615  40.875   9.936   3.289
22016W        W92616   2.514  20.694  10.549
22017W        W92617   4.261   5.913  10.526
22018W        W92618  22.668  17.882  11.140
22019W        W92619  17.186  34.473  14.726
22020W        W92620  34.881  38.680   0.739
22021W        W92621  36.996  23.903  14.892
22022W        W92622  25.161  40.369  13.047
22023W        W92623  41.935   4.248   2.217
22024W        W92624  11.371  33.705   1.921
22025W        W92625  27.876  25.037   2.316
22026W        W92626  21.088   9.766   1.810
22027W        W92627  40.105  24.513  12.248
22028W        W92628  31.030  10.826  12.556
22029W        W92629  13.301  10.934   0.329
22030W        W92630  24.259   9.039   5.076
22031W        W92631  36.867  31.632   2.734
22032W        W92632  14.852  12.782   3.525
22033W        W92633  19.224  16.630   3.303
22034W        W92634  43.936  35.409   0.073
22035W        W92635  40.792  30.625  12.095
22036W        W92636  27.280  28.043  11.225
22037W        W92637   3.677  27.109   3.298
22038W        W92638  32.683  40.583   3.221
22039W        W92639  35.012  14.220   2.062
22040W        W92640  33.450  38.243   0.953
22041W        W92641  11.262  25.909   0.402
22042W        W92642  12.606  28.809   2.995
22043W        W92643  19.281  15.947  14.819
22044W        W92644  40.055   1.373   4.671
22045W        W92645  17.079   0.956   3.227
22046W        W92646  36.403  39.346  12.955
22047W        W92647   6.747  42.885   4.298
22048W        W92648  40.166  25.578   3.441
22049W        W92649   6.589  22.015  12.955
22050W        W92650   0.232  24.050   1.354
22051W        W92651  27.948  42.438  13.940
22052W        W92652  21.072  40.962  11.442
22053W        W92653  43.566  16.133  13.545
22054W        W92654  14.188  28.677   0.494
22055W        W92655  27.708  19.888  12.432
22056W        W92656  22.130  24.728   1.248
22057W        W92657  44.825   8.840   3.314
22058W        W92658  28.011  30.755   2.633
22059W        W92659   0.544  43.882   1.348
22060W        W92660  19.032  11.834  13.316
22061W        W92661  15.238   7.631   0.954
22062W        W92662   4.989   1.844  14.741
22063W        W92663  25.038  17.790  12.610
22064W        W92664  36.494  12.716   9.754
22065W        W92665  27.474  42.735   0.010
22066W        W92666  16.089  16.882   4.095
22067W        W92667  33.002  42.553  12.957
22068W        W92668   1.204  24.081  13.043
22069W        W92669  30.632   1.200   1.276
22070W        W92670   9.550   3.722   2.958
22071W        W92671  21.114  39.100   0.705
22072W        W92672  34.795  30.542   5.001
22073W        W92673   0.233  28.551  13.019
22074W        W92674   5.220   3.695  12.476
22075W        W92675  19.239  27.637   0.196
22076W        W92676   1.267  18.513  12.062
22077W        W92677  34.912  40.784   3.289
22078W        W92678  14.575  44.489   3.722
22079W        W92679  37.224  37.661   3.146
22080W        W92680  43.600  25.937  10.841
22081W        W92681  13.871   8.192   0.456
22082W        W92682  19.256  21.219  10.539
22083W        W92683  43.530  17.519   3.866
22084W        W92684  12.130   9.297  11.126
22085W        W92685   9.737  13.375  12.796
22086W        W92686  40.346  44.823   4.115
22087W        W92687  31.105  34.158  14.373
22088W        W92688  19.939   4.669  14.471
22089W        W92689  20.745  25.612  13.003
22090W        W92690  43.907  26.735  13.534
22091W        W92691   9.801  39.896   3.949
22092W        W92692   5.316   2.993   1.706
22093W        W92693  32.482  27.565   0.924
22094W        W92694  14.107   2.347  13.521
22095W        W92695  29.568  26.392   3.123
22096W        W92696   7.766   7.421   4.097
22097W        W92697  10.261   6.721  10.594
22098W        W92698  31.377  21.149  14.255
22099W        W92699  13.630  27.208   4.189
22100W        W92700  16.478  42.058   1.740
22101W        W92701  35.654   5.996  11.540
22102W        W92702  22.689   4.463   4.163
22103W        W92703   6.362  37.431   4.568
22104W        W92704  19.020  31.879  11.446
22105W        W92705  32.370  24.969   2.455
22106W        W92706  13.235  31.228  13.557
22107W        W92707  13.546   5.878   4.965
22108W        W92708  21.731  25.465  11.570
22109W        W92709  31.816   6.817  14.830
22110W        W92710  40.596  13.735  12.860
22111W        W92711  27.649  10.432  14.768
22112W        W92712  29.036   8.357   4.945
22113W        W92713  17.778  16.791   2.396
22114W        W92714  12.721  40.067   3.198
22115W        W92715  15.937  31.647   2.360
22116W        W92716  37.172  10.808   3.123
22117W        W92717  36.449  40.368  11.618
22118W        W92718  18.662  27.616   3.647
22119W        W92719  43.009  43.847  14.290
22120W        W92720  14.358  19.417  13.069
22121W        W92721  27.932  41.266  10.969
22122W        W92722  18.761  36.346  13.619
22123W        W92723  31.497  27.152  11.173
22124W        W92724  16.808  43.508   4.172
22125W        W92725  36.056  16.108   4.085
22126W        W92726  10.322  26.544  12.577
22127W        W92727  29.095  20.127   3.760
22128W        W92728  11.087  41.783   1.347
22129W        W92729  27.551  23.630  10.710
22130W        W92730  29.578   6.252  13.098
22131W        W92731  25.499  31.887   1.451
22132W        W92732  25.709  32.103  11.110
22133W        W92733  33.130  13.638   0.852
22134W        W92734  41.269   9.271  11.829
22135W        W92735  24.809  33.873  14.758
22136W        W92736  12.882   2.291   0.662
22137W        W92737  14.333   8.291  11.757
22138W        W92738   1.754  27.543  11.501
22139W        W92739  32.946  42.348   2.374
22140W        W92740  14.845  35.201   3.628
22141W        W92741  12.687   9.246   2.023
22142W        W92742  40.463  44.023  13.984
22143W        W92743  38.798  31.987  10.587
22144W        W92744  10.355  17.472   3.231
22145W        W92745  42.062  17.791  14.360
22146W        W92746   7.671  10.556  11.264
22147W        W92747  37.344  20.919  14.879
22148W        W92748   8.180  35.355  13.070
22149W        W92749   1.933   3.716  13.726
22150W        W92750  42.797  33.166  13.520
22151W        W92751  44.626  33.391  12.075
22152W        W92752  29.117  13.463  13.083
22153W        W92753  23.966  34.908  10.801
22154W        W92754  23.814  24.424   2.705
22155W        W92755  20.990  43.561  14.370
22156W        W92756  21.211  28.047   4.297
22157W        W92757  38.879  15.169   0.216
22158W        W92758  19.122   1.669   1.416
22159W        W92759  36.548  21.527  10.650
22160W        W92760  11.605  29.696   1.663
22161W        W92761  43.708  36.761   3.735
22162W        W92762  43.408  11.757   1.915
22163W        W92763  17.111   6.281  10.672
22164W        W92764  37.438  23.666  14.741
22165W        W92765  43.688  42.780  14.408
22166W        W92766  11.256   3.420  12.489
22167W        W92767   2.741  29.474  13.374
22168W        W92768  38.093  44.923  12.947
22169W        W92769  22.427  14.385   3.181
22170W        W92770  34.565   2.829  14.450
22171W        W92771  12.238  31.924   4.552
22172W        W92772  14.555  15.013  13.923
22173W        W92773  21.289  14.315  10.704
22174W        W92774  29.331  10.148   1.863
22175W        W92775  40.662  15.886   2.852
22176W        W92776  17.035  39.037   0.895
22177W        W92777  42.481   9.704   0.333
22178W        W92778  26.858   4.411  13.028
22179W        W92779  35.600  10.953  11.531
22180W        W92780  40.374  42.138   4.496
22181W        W92781   1.421  13.782   2.396
22182W        W92782   2.741   8.144   0.958
22183W        W92783  36.450  43.529  14.902
22184W        W92784  23.093  18.064  10.337
22185W        W92785  23.270  37.601  13.399
22186W        W92786  34.073  17.914   1.745
22187W        W92787  41.999   9.649   4.704
22188W        W92788  18.810  10.653   0.895
22189W        W92789  33.947  10.263   2.710
22190W        W92790  31.916  12.701  14.453
22191W        W92791  13.482  41.282   0.599
22192W        W92792   8.981  20.716  10.732
22193W        W92793  24.243  38.536  13.474
22194W        W92794  13.600  41.171   1.090
22195W        W92795  44.477  14.820  14.751
22196W        W92796  26.952  42.399   1.699
22197W        W92797   3.020  20.488  14.911
22198W        W92798  22.508   8.109  10.674
22199W        W92799  12.713  13.049   1.759
22200W        W92800  26.478  25.962  12.084
22201W        W92801   2.472   6.681   2.272
22202W        W92802   3.866  20.754  14.766
22203W        W92803   7.056  38.217  11.256
22204W        W92804  42.786  20.238  12.818
22205W        W92805  19.124  16.348   1.766
22206W        W92806  41.139  22.762  12.443
22207W        W92807  33.988  32.164   4.901
22208W        W92808  36.533   5.197  13.415
22209W        W92809  14.801  36.483  13.081
22210W        W92810  34.005  24.492  13.421
22211W        W92811   9.946   4.431  13.120
22212W        W92812   8.491   8.222  11.831
22213W        W92813  21.977   9.008   2.651
22214W        W92814  29.124  26.451  13.451
22215W        W92815  27.520  10.638   4.224
22216W        W92816  29.963  27.866  10.837
22217W        W92817  23.182  29.040  11.897
22218W        W92818  22.044  39.978   3.296
22219W        W92819  44.980  35.483  13.282
22220W        W92820  40.786  25.924  13.974
22221W        W92821  24.550   8.915  13.352
22222W        W92822  11.734   1.233  10.977
22223W        W92823  12.270  40.577   0.245
22224W        W92824  33.267   3.364  11.534
22225W        W92825  17.696   1.243   4.005
22226W        W92826  24.767  16.975   4.093
22227W        W92827   3.432  15.551   4.522
22228W        W92828  29.194  12.410  12.368
22229W        W92829  38.837   4.405  12.149
22230W        W92830   7.235  39.529  12.384
22231W        W92831  10.636  19.239  13.359
22232W        W92832  20.733  19.708  14.464
22233W        W92833  26.972  34.711   3.614
22234W        W92834  18.760   5.433   1.630
22235W        W92835  26.203  40.221   4.173
22236W        W92836   9.829  27.708  11.445
22237W        W92837   4.174  13.688  14.035
22238W        W92838   3.482  30.078  13.746
22239W        W92839   4.146  42.766   4.932
22240W        W92840  36.634   9.113  10.654
22241W        W92841   7.939  37.515   0.374
22242W        W92842   7.316  24.779  13.075
22243W        W92843  13.332  21.082   0.253
22244W        W92844  26.431  16.584  13.855
22245W        W92845  22.233  19.829  13.631
22246W        W92846   6.867   5.530  14.706
22247W        W92847  34.526   0.798  10.488
22248W        W92848  33.834  18.894  11.711
22249W        W92849  14.177  19.073  14.472
22250W        W92850  10.418  24.551   1.303
22251W        W92851   4.420  19.758   0.263
22252W        W92852  21.047   5.925   2.106
22253W        W92853  21.347  17.187  13.937
22254W        W92854  41.240  12.262   3.334
22255W        W92855  43.237  30.974  12.477
22256W        W92856  25.992  29.564  10.731
22257W        W92857   4.019   8.725  14.526
22258W        W92858  30.783  32.522  11.336
22259W        W92859   8.710  37.826  10.910
22260W        W92860  23.544  20.133  13.939
22261W        W92861  19.801   3.245  14.856
22262W        W92862  34.090  44.887   3.318
22263W        W92863   0.376  43.809  12.782
22264W        W92864   9.324   7.940   0.356
22265W        W92865   5.394  15.264   3.159
22266W        W92866  21.060   1.160  12.457
22267W        W92867  43.811  11.875  13.533
22268W        W92868   4.486  20.093  12.113
22269W        W92869  11.367  36.339   2.273
22270W        W92870  36.756   0.185   1.843
22271W        W92871  18.966  15.529  10.738
22272W        W92872  22.036  33.982   0.275
22273W        W92873  24.928  15.912   2.185
22274W        W92874  11.194  13.644  11.932
22275W        W92875  30.664  16.305  10.598
22276W        W92876   3.061  23.767  14.963
22277W        W92877   1.803  28.542   0.967
22278W        W92878  44.268  32.989   2.439
22279W        W92879  30.341   8.225  11.615
22280W        W92880  44.834  26.481   2.781
22281W        W92881  29.609  24.585   0.257
22282W        W92882  40.677  24.265  13.230
22283W        W92883   9.839  33.794   3.376
22284W        W92884  16.321  35.915  12.402
22285W        W92885  31.407  32.473   3.522
22286W        W92886   0.018   9.670  12.120
22287W        W92887  41.264  13.940   3.718
22288W        W92888  33.571  10.639  14.838
22289W        W92889  41.032   1.556   1.618
22290W        W92890  14.261  23.019  12.432
22291W        W92891   6.837  25.692  14.990
22292W        W92892  20.931   8.311   2.058
22293W        W92893  43.314  18.179  13.585
22294W        W92894  29.149  28.592   1.417
22295W        W92895  18.568  12.147  10.662
22296W        W92896  28.001  37.356   2.285
22297W        W92897  26.658   4.939  11.449
22298W        W92898  42.189  15.623   2.716
22299W        W92899  40.758  36.370  14.282
22300W        W92900  31.430  44.455  11.522
22301W        W92901   4.937  27.088  12.473
22302W        W92902  11.768   4.142   0.804
22303W        W92903  40.262  42.426   0.053
22304W        W92904  36.880  10.837   1.655
22305W        W92905  17.099  39.959  14.812
22306W        W92906  11.667  26.608  11.998
22307W        W92907  27.642   8.566  11.048
22308W        W92908  26.064  10.395   3.737
22309W        W92909  15.147  33.467  11.144
22310W        W92910   4.680  39.716   1.413
22311W        W92911  38.452  27.774   4.896
22312W        W92912  20.000  24.214  12.994
22313W        W92913  20.275  42.875   4.523
22314W        W92914  29.927   6.606  14.530
22315W        W92915  33.639   4.531   0.700
22316W        W92916   7.903  19.744  10.755
22317W        W92917  41.067  25.390   3.407
22318W        W92918  12.307  31.297  14.530
22319W        W92919  40.311  33.060   1.366
22320W        W92920   0.035  44.595   2.098
22321W        W92921  42.892  30.945  11.111
22322W        W92922  38.434  15.172   0.496
22323W        W92923  32.342   3.404   5.067
22324W        W92924   5.851  18.250   1.334
22325W        W92925  30.399  37.421   4.726
22326W        W92926  41.877  31.369   3.745
22327W        W92927  19.849  13.530  11.547
22328W        W92928   6.333  14.369  14.416
22329W        W92929  19.397   7.951  14.485
22330W        W92930  17.598  42.490  13.130
22331W        W92931  38.787  37.537  12.377
22332W        W92932  10.611  23.004  11.109
22333W        W92933  39.611  18.311   1.742
22334W        W92934  38.896  37.517  10.113
22335W        W92935  22.132  33.659  13.854
22336W        W92936  11.798  23.803   1.312
22337W        W92937  18.920  18.385  12.984
22338W        W92938  40.464  39.391  14.096
22339W        W92939  11.318  25.498   0.075
22340W        W92940  10.223   2.461   2.212
22341W        W92941   9.284  32.468   1.462
22342W        W92942  21.345  43.330  14.656
22343W        W92943  17.745   8.514  10.643
22344W        W92944   8.830   6.857  12.002
22345W        W92945  15.995  29.277  14.288
22346W        W92946   6.038  43.822  11.923
22347W        W92947  22.466  39.631   2.404
22348W        W92948  14.327  18.339   3.218
22349W        W92949  30.922  40.826  10.530
22350W        W92950  32.497  14.569   2.213
22351W        W92951  41.955  18.607   1.299
22352W        W92952   4.240  12.259   1.541
22353W        W92953  25.638   6.107   3.697
22354W        W92954  23.652   6.336   2.163
22355W        W92955  33.826   9.413   2.410
22356W        W92956  24.871   1.972   0.285
22357W        W92957  36.995   5.200  13.114
22358W        W92958  28.473  39.793   0.488
22359W        W92959   0.270  22.196  13.360
22360W        W92960   6.952  26.554  11.978
22361W        W92961  24.970   2.410   4.637
22362W        W92962  20.669  18.765  13.990
22363W        W92963  43.839  29.619  14.010
22364W        W92964  38.361  10.653  10.751
22365W        W92965  15.164  40.320   3.330
22366W        W92966   0.460   0.934  11.527
22367W        W92967  17.267  24.586   2.378
22368W        W92968  23.053   5.375   5.091
22369W        W92969  37.783  15.526  14.525
22370W        W92970  39.576   7.229   0.307
22371W        W92971   3.224   4.840   4.115
22372W        W92972  26.484  26.120   0.303
22373W        W92973  22.932  36.520  12.847
22374W        W92974  10.817  41.905   2.560
22375W        W92975  15.035  10.793   0.744
22376W        W92976   4.767  29.400  10.098
22377W        W92977  11.177   4.823  14.400
22378W        W92978  26.376  37.873   0.887
22379W        W92979   1.842  39.598  11.428
22380W        W92980  30.948  34.536   4.036
22381W        W92981  13.623   6.753  13.329
22382W        W92982  34.999  20.739   2.204
22383W        W92983  15.778   1.677  12.008
22384W        W92984  13.985   4.238  11.874
22385W        W92985  31.914   0.041  14.398
22386W        W92986  27.116   5.900  14.093
22387W        W92987  44.904  17.057  14.177
22388W        W92988   0.223  32.154  10.723
22389W        W92989  41.790  28.565  10.642
22390W        W92990  39.675  27.069  12.458
22391W        W92991  18.948   2.311   1.280
22392W        W92992  42.775  15.498   1.842
22393W        W92993  24.292   1.644  14.704
22394W        W92994   3.303  10.123  12.387
22395W        W92995   1.423  21.418   4.823
22396W        W92996  21.232   7.000  12.573
22397W        W92997   6.148   7.985   4.861
22398W        W92998  16.762   7.768   1.894
22399W        W92999   0.469  14.729   0.472
22400W        W93000  16.047  30.676   3.341
22401W        W93001  35.982  34.995   1.535
22402W        W93002   1.409  43.933   0.733
22403W        W93003  40.011  34.199   4.125
22404W        W93004  38.140   5.825   4.636
22405W        W93005   9.971  15.787  13.193
22406W        W93006   1.486  31.336  11.521
22407W        W93007  39.428  27.092   1.879
22408W        W93008  27.915  10.235  12.964
22409W        W93009  43.199  32.005   4.724
22410W        W93010  29.237  44.971  13.097
22411W        W93011   8.814  26.482   5.123
22412W        W93012  12.785  36.295   1.657
22413W        W93013   8.058   3.888  14.491
22414W        W93014  12.312  31.416  11.331
22415W        W93015  24.924   9.360   4.506
22416W        W93016  17.016  26.762  11.505
22417W        W93017  26.925  35.967   0.066
22418W        W93018  32.479  12.193  14.495
22419W        W93019  32.026  43.570  14.652
22420W        W93020  27.019  44.290   2.548
22421W        W93021  13.142  10.834   2.235
22422W        W93022   0.724   9.445  13.381
22423W        W93023   2.299   7.776  14.558
22424W        W93024   3.883  20.764   1.504
22425W        W93025  43.245  19.715   4.625
22426W        W93026  12.950   7.768   4.918
22427W        W93027  31.626   4.216  13.812
22428W        W93028  43.749  29.930  12.142
22429W        W93029   1.735  16.802  14.321
22430W        W93030  28.509  29.433  11.144
22431W        W93031  26.918  32.524   4.203
22432W        W93032   6.823  20.538   0.766
22433W        W93033   5.784  14.854  14.896
22434W        W93034   5.107  29.199  11.160
22435W        W93035  40.112  43.008  12.435
22436W        W93036  25.019  17.782  13.559
22437W        W93037   2.499   5.623  12.968
22438W        W93038   4.907   4.234  12.596
22439W        W93039   8.202  32.436  14.455
22440W        W93040   0.774  26.609   0.447
22441W        W93041  25.488  13.477   3.244
22442W        W93042   9.747  30.497  12.388
22443W        W93043   3.784  11.742   2.168
22444W        W93044  41.712   2.200  12.165
22445W        W93045  24.563  26.392  14.026
22446W        W93046   7.968   9.819   3.751
22447W        W93047   4.247  23.270  11.472
22448W        W93048   1.531  24.117   2.602
22449W        W93049  23.034  17.642   3.470
22450W        W93050   1.584  28.085  13.494
22451W        W93051  10.682  44.456   3.826
22452W        W93052  19.030  37.134   1.776
22453W        W93053  36.665  21.581  13.463
22454W        W93054  32.814  42.328   2.874
22455W        W93055   1.869  40.415   3.360
22456W        W93056  43.015  26.959   0.725
22457W        W93057   5.631  26.822   2.181
22458W        W93058  23.980  31.328  14.355
22459W        W93059  22.233  31.222  12.559
22460W        W93060  30.332   6.029   0.519
22461W        W93061  19.241  23.680   4.089
22462W        W93062  23.213  13.494   3.685
22463W        W93063  33.447  14.827   1.306
22464W        W93064  20.042  44.018   1.674
22465W        W93065   8.171   5.602   2.648
22466W        W93066  15.844   9.712  14.387
22467W        W93067  17.654  13.150   0.387
22468W        W93068  25.872  27.089   3.664
22469W        W93069  13.567   4.213  13.399
22470W        W93070  28.596  22.101   3.929
22471W        W93071  22.191  15.833  11.220
22472W        W93072   1.314   1.434  11.494
22473W        W93073   7.748   7.675   1.838
22474W        W93074  13.149  25.461   3.657
22475W        W93075  40.223  28.466  11.598
22476W        W93076  24.704   0.529   5.096
22477W        W93077  11.673  23.493  10.786
22478W        W93078  27.486  42.304   4.645
22479W        W93079  32.629  34.888   0.334
22480W        W93080  43.815  26.105  12.588
22481W        W93081  16.814  39.034   2.909
22482W        W93082   6.538  18.699  12.999
22483W        W93083   9.609  17.303  12.420
22484W        W93084  35.840  42.169   2.760
22485W        W93085  25.598  32.274   4.753
22486W        W93086  38.410  22.248   0.435
22487W        W93087  28.534  13.090  12.015
22488W        W93088   7.266  24.220   3.039
22489W        W93089  13.262  40.495   1.252
22490W        W93090  32.343  29.191  11.894
22491W        W93091   0.222  16.028   0.187
22492W        W93092  44.340  30.686   3.206
22493W        W93093  27.115  44.976   3.135
22494W        W93094  30.314   8.198   1.822
22495W        W93095  28.551  39.797   1.798
22496W        W93096  15.238   0.870   1.404
22497W        W93097  39.911   1.257   0.828
22498W        W93098   2.384   1.037  12.486
22499W        W93099  11.246  35.403  11.615
22500W        W93100  23.637  11.358   2.738
22501W        W93101  40.297  16.516   3.205
22502W        W93102  12.774  23.036   0.797
22503W        W93103  36.991   1.950  11.238
22504W        W93104  31.614  35.879  10.673
22505W        W93105  18.210  26.957   1.810
22506W        W93106  23.794  13.037  12.534
22507W        W93107  19.725  12.676   0.928
22508W        W93108   6.602  32.063  10.433
22509W        W93109  21.740  42.511  13.045
22510W        W93110  19.697  43.751   1.961
22511W        W93111  17.570  18.003  13.046
22512W        W93112  37.788  31.985   1.539
22513W        W93113  31.843  37.414  10.400
22514W        W93114  39.929   3.817  14.029
22515W        W93115  17.108  23.613   2.930
22516W        W93116  10.603  14.734  10.895
22517W        W93117   2.363  42.964   4.579
22518W        W93118  29.100   1.152   3.059
22519W        W93119  35.959   6.841  11.526
22520W        W93120  20.849  12.257   0.451
22521W        W93121   7.123  25.971   0.946
22522W        W93122  11.389   3.196   2.713
22523W        W93123  12.354  23.637   1.149
22524W        W93124  21.677  13.378  14.924
22525W        W93125  44.079  24.605  11.213
22526W        W93126  13.645  36.327   1.490
22527W        W93127   8.205  32.585   3.825
22528W        W93128  20.605  19.595   3.622
22529W        W93129  30.430  15.201   1.641
22530W        W93130  29.764  26.474   2.249
22531W        W93131  22.609  39.551   0.324
22532W        W93132   7.596  44.126  14.787
22533W        W93133   4.954  39.985  14.953
22534W        W93134  25.078  20.591  13.111
22535W        W93135  37.022  21.982  13.424
22536W        W93136  31.319  15.142  11.929
22537W        W93137  20.324  44.702  11.711
22538W        W93138  14.034  39.452   1.423
22539W        W93139  32.657  13.139  10.744
22540W        W93140  30.567   7.473  11.009
22541W        W93141  12.335  23.599   2.556
22542W        W93142  38.604   9.844  12.491
22543W        W93143   8.097  20.251  14.458
22544W        W93144  43.695  42.415   3.840
22545W        W93145   2.026  36.338  13.003
22546W        W93146  35.862   0.807  13.752
22547W        W93147  10.853  15.470  11.867
22548W        W93148  24.738  19.711   4.267
22549W        W93149  18.762   4.498   4.271
22550W        W93150  11.726  14.337  14.685
22551W        W93151   1.354   7.637  12.522
22552W        W93152  44.091  13.200   2.380
22553W        W93153   0.423  17.039  11.253
22554W        W93154   8.929  38.093   1.878
22555W        W93155  29.979   0.810  10.624
22556W        W93156   0.798  27.961  10.289
22557W        W93157  38.926   7.687  13.877
22558W        W93158  22.453  15.270  10.648
22559W        W93159  39.634  29.436  12.889
22560W        W93160   3.643  24.495   3.670
22561W        W93161  35.476  28.084  11.590
22562W        W93162  16.888  31.424   4.543
22563W        W93163  21.988  40.998  13.056
22564W        W93164  11.843  44.321  13.771
22565W        W93165   2.154  15.140  12.986
22566W        W93166   9.618   3.275   0.580
22567W        W93167  34.037  24.519   1.308
22568W        W93168  19.214  33.107  13.060
22569W        W93169  19.547  25.758  14.050
22570W        W93170   3.026  19.310  12.802
22571W        W93171  23.108   1.007  12.067
22572W        W93172  26.592   3.859   0.382
22573W        W93173  22.172  36.501  12.381
22574W        W93174  12.064  16.813   0.746
22575W        W93175   2.408   8.194   3.770
22576W        W93176  26.491  22.934  11.405
22577W        W93177  12.376  24.644   2.923
22578W        W93178  18.897   8.382   0.194
22579W        W93179  25.537  42.774   1.668
22580W        W93180  29.021   1.357   4.553
22581W        W93181   0.387  20.327  12.422
22582W        W93182  13.819  30.449  13.636
22583W        W93183  30.892  12.623   3.633
22584W        W93184  40.303  26.914   3.654
22585W        W93185   3.777  40.008   2.912
22586W        W93186   0.892  24.434  10.484
22587W        W93187  10.942  30.962  10.880
22588W        W93188  10.509   2.762   0.130
22589W        W93189   3.292  30.634   2.141
22590W        W93190  35.649  22.134   4.535
22591W        W93191  21.491  44.001  10.286
22592W        W93192   0.765  19.765   4.626
22593W        W93193  41.841  28.757  11.613
22594W        W93194   6.831  22.681   4.245
22595W        W93195   0.871  44.390   0.250
22596W        W93196  12.101  19.311   1.816
22597W        W93197  25.088   1.206  14.389
22598W        W93198  13.560  25.691   2.705
22599W        W93199  23.069  28.792   0.766
22600W        W93200  15.202  10.710  11.666
22601W        W93201  34.351  43.857   0.021
22602W        W93202  10.775  32.553   3.918
22603W        W93203  12.372  30.020   4.141
22604W        W93204  14.596  43.300  14.909
22605W        W93205  36.388  37.347  11.669
22606W        W93206   2.695  19.128  11.625
22607W        W93207  26.795   4.338  10.748
22608W        W93208  25.274  42.533  13.496
22609W        W93209  34.619   5.344   0.666
22610W        W93210  38.468  14.144   1.561
22611W        W93211  19.231  17.199   0.356
22612W        W93212  31.065  22.596   0.697
22613W        W93213  21.853  27.618  12.933
22614W        W93214  36.621  16.458  12.265
22615W        W93215  23.653  28.461  11.662
22616W        W93216   7.390   7.352   0.782
22617W        W93217  36.572  15.979  13.546
22618W        W93218  29.505  22.924   0.809
22619W        W93219  16.130   0.462   0.003
22620W        W93220  23.884  18.620  14.019
22621W        W93221  18.652  27.746  10.727
22622W        W93222  35.189  23.214   3.371
22623W        W93223  23.582  35.129   2.554
22624W        W93224   5.644  17.628  11.205
22625W        W93225  17.116  16.243  12.959
22626W        W93226  32.960  39.530   3.772
22627W        W93227  30.548  35.696  13.328
22628W        W93228  17.230  31.064  14.099
22629W        W93229  21.735   5.832  11.121
22630W        W93230   2.932  25.687   4.857
22631W        W93231  14.147  20.667   0.365
22632W        W93232   0.594   1.813  12.164
22633W        W93233  34.849  39.703   0.387
22634W        W93234  21.377  17.774  13.020
22635W        W93235  43.871  30.942   3.129
22636W        W93236  35.342  17.737   2.453
22637W        W93237  15.278  39.895  11.547
22638W        W93238   4.601  22.680   2.391
22639W        W93239  41.868  27.949  13.454
22640W        W93240  34.955  10.329   1.206
22641W        W93241  43.471  31.931   2.799
22642W        W93242  40.627  17.124   4.051
22643W        W93243  32.456  35.836  12.130
22644W        W93244  11.232   8.089  13.863
22645W        W93245  33.022  15.878   2.004
22646W        W93246  28.591  43.446  11.214
22647W        W93247  13.580  38.016  11.519
22648W        W93248  30.701  14.767   1.810
22649W        W93249  30.129   3.267  14.682
22650W        W93250  38.670  27.410   4.555
22651W        W93251  40.797  26.739  14.327
22652W        W93252  25.421  27.638  13.307
22653W        W93253  36.096  16.129  11.219
22654W        W93254  41.314  11.177   4.360
22655W        W93255  38.150  12.318  11.137
22656W        W93256  30.716  27.937   0.846
22657W        W93257  22.738  40.531   2.258
22658W        W93258   3.839  29.348  12.198
22659W        W93259  28.358  42.552   1.213
22660W        W93260  27.190  37.101  13.051
22661W        W93261  15.617  31.672   0.950
22662W        W93262  23.453  10.407   0.804
22663W        W93263   2.815  24.867   0.361
22664W        W93264  38.877  16.775   2.220
22665W        W93265  32.167  17.449  13.073
22666W        W93266  21.776   0.778  11.882
22667W        W93267  20.698   3.691  14.821
22668W        W93268   8.812  42.634   0.711
22669W        W93269  28.485  13.723  10.970
22670W        W93270  38.498  11.203  12.422
22671W        W93271  36.060   2.524   2.208
22672W        W93272  29.971  15.196  11.044
22673W        W93273  26.097   2.430   4.336
22674W        W93274  18.705  21.805  14.875
22675W        W93275  33.990   3.865   4.788
22676W        W93276  35.487  37.053   4.678
22677W        W93277   1.815  32.869  12.374
22678W        W93278  32.030   3.146  14.769
22679W        W93279  16.314  41.312  13.461
22680W        W93280  11.710  41.978  10.803
22681W        W93281   6.269  36.940  10.980
22682W        W93282   1.846  28.753   3.406
22683W        W93283  36.378  11.814  10.966
22684W        W93284  40.909   4.386   2.184
22685W        W93285  35.011  13.803  12.003
22686W        W93286  37.907  19.693   1.679
22687W        W93287   3.934  21.699  12.466
22688W        W93288  14.763  31.668  12.911
22689W        W93289  14.736   2.578   4.625
22690W        W93290  10.332   3.345  10.537
22691W        W93291  36.507  39.397  14.279
22692W        W93292  14.938  33.664   0.959
22693W        W93293  41.320  31.470  12.224
22694W        W93294  21.658  44.178  12.110
22695W        W93295  33.347  14.607   2.200
22696W        W93296   3.677  41.630  14.337
22697W        W93297  43.923   0.787  14.332
22698W        W93298  27.592  43.699  12.048
22699W        W93299   6.048  29.183   2.842
22700W        W93300  30.646  11.810   2.587
22701W        W93301  11.858  12.276  11.524
22702W        W93302  34.749  41.172   3.626
22703W        W93303  37.732  36.100  12.413
22704W        W93304  23.182  20.983  10.071
22705W        W93305  27.699   0.743   4.136
22706W        W93306  10.721  10.959   2.266
22707W        W93307  34.126  37.109  11.912
22708W        W93308  34.441   8.895  13.481
22709W        W93309   2.997  37.933   4.229
22710W        W93310  31.635  22.625  14.258
22711W        W93311  20.693  34.887  14.863
22712W        W93312   8.609  13.313   2.661
22713W        W93313  41.880   3.759   0.887
22714W        W93314  35.688  24.222   3.797
22715W        W93315  44.276   1.675   3.321
22716W        W93316  36.071   0.704   0.267
22717W        W93317  12.888  36.902  14.743
22718W        W93318   4.173   4.363   0.555
22719W        W93319  13.244  10.814  12.055
22720W        W93320  12.811   2.298   3.120
22721W        W93321  36.427  31.744   2.241
22722W        W93322   4.202  16.073  12.196
22723W        W93323  43.786  39.085  12.012
22724W        W93324  12.769  21.579   3.463
22725W        W93325  11.749  23.968   4.576
22726W        W93326  14.694  42.872   1.777
22727W        W93327   0.402  33.662   4.648
22728W        W93328  17.135  36.347   4.275
22729W        W93329  20.129   5.188   2.918
22730W        W93330   4.381  18.074  10.641
22731W        W93331  23.781  11.836  11.376
22732W        W93332  13.239  31.709  14.319
22733W        W93333  41.902  11.872  12.566
22734W        W93334   9.146   8.049   1.943
22735W        W93335  14.727  25.443  14.420
22736W        W93336  27.444  15.820  10.750
22737W        W93337  44.911   2.720   1.454
22738W        W93338  19.729  15.026   4.955
22739W        W93339  42.803   3.302   2.333
22740W        W93340  20.344   6.416   2.786
22741W        W93341  41.006  16.111   3.180
22742W        W93342   8.416   3.763   5.263
22743W        W93343  28.324  16.403   3.858
22744W        W93344  43.309  27.038  10.670
22745W        W93345  27.311  42.272  14.844
22746W        W93346  11.828  12.845   1.916
22747W        W93347  24.656  12.114  11.073
22748W        W93348   4.789  23.266   3.696
22749W        W93349  30.925  11.882  14.039
22750W        W93350  31.495  38.658   4.122
22751W        W93351  18.078  28.476  14.384
22752W        W93352  22.663  14.339  13.582
22753W        W93353  13.992  18.985   0.849
22754W        W93354  14.720  10.360   0.052
22755W        W93355  37.816  38.901  12.961
22756W        W93356  29.034   2.809   0.004
22757W        W93357  31.895  22.703   3.929
22758W        W93358   0.867  37.490  13.133
22759W        W93359  31.495  25.699  12.057
22760W        W93360  39.110  13.437  14.363
22761W        W93361  35.791  31.589  12.421
22762W        W93362  39.971  41.484   0.821
22763W        W93363  14.690   6.721   4.686
22764W        W93364  23.286  26.936   2.268
22765W        W93365  10.127  42.107  11.782
22766W        W93366  18.581  37.008  14.603
22767W        W93367  41.799  10.762   1.363
22768W        W93368  44.209  44.084  10.274
22769W        W93369   6.294   1.252  10.829
22770W        W93370  18.587  31.175   2.401
22771W        W93371  33.303  17.153   4.979
22772W        W93372  39.067  27.621  13.860
22773W        W93373  17.766  13.223   2.687
22774W        W93374  23.235  24.073  11.466
22775W        W93375  23.149  35.303   1.815
22776W        W93376  35.523   2.868   0.464
22777W        W93377  22.984  11.807  11.660
22778W        W93378  17.706  35.612  11.143
22779W        W93379  23.219   0.660   5.027
22780W        W93380  36.548   4.966  14.373
22781W        W93381  12.699  31.014  12.850
22782W        W93382  39.110  41.975  12.387
22783W        W93383  37.538  28.903   2.834
22784W        W93384   4.210  33.832  12.081
22785W        W93385  30.045  22.928  11.614
22786W        W93386  33.457   3.872   4.297
22787W        W93387  31.940   4.777   0.952
22788W        W93388   5.257   1.282   0.864
22789W        W93389  12.792  34.417   4.005
22790W        W93390  22.791   9.650  14.836
22791W        W93391  40.390  39.994  13.331
22792W        W93392   4.458  28.554  12.080
22793W        W93393  35.716  40.106  13.015
22794W        W93394  21.165  18.631   1.838
22795W        W93395  44.476  13.736   3.313
22796W        W93396  42.484  35.461  13.406
22797W        W93397   9.150  29.119  10.701
22798W        W93398  10.332  15.597  11.129
22799W        W93399  39.922  39.764  13.299
22800W        W93400  18.843  39.115   4.009
22801W        W93401   6.166   9.581  12.939
22802W        W93402   4.119   9.591  10.993
22803W        W93403  27.327  25.178   3.606
22804W        W93404  17.944  19.108  11.634
22805W        W93405  35.764   1.810   4.117
22806W        W93406  15.347  19.332  13.133
22807W        W93407  42.408   3.895   1.182
22808W        W93408  16.674  34.029   2.361
22809W        W93409   0.560  22.199   3.380
22810W        W93410   1.420   7.930   3.758
22811W        W93411  42.867  28.107   1.375
22812W        W93412  13.899  29.435  13.797
22813W        W93413   6.360  14.910  10.707
22814W        W93414   3.786  19.715   2.145
22815W        W93415  27.045  34.206   3.632
22816W        W93416  13.662  35.201  14.060
22817W        W93417  24.842  17.465   3.898
22818W        W93418  24.558  36.811  12.792
22819W        W93419  18.575  14.849   2.696
22820W        W93420  35.390  11.687   3.733
22821W        W93421  11.416  44.531  13.047
22822W        W93422  32.460   9.145  14.500
22823W        W93423  21.140  44.928   3.114
22824W        W93424  44.034   2.236   1.794
22825W        W93425  14.655  40.293  12.170
22826W        W93426  38.302   3.212  12.544
22827W        W93427   1.700  24.854  12.590
22828W        W93428  30.601  15.234   4.036
22829W        W93429  44.783  43.347  14.748
22830W        W93430  12.752  15.789  13.448
22831W        W93431   4.998  19.613  10.240
22832W        W93432   9.823   4.006   4.363
22833W        W93433   3.429  13.628   2.405
22834W        W93434  17.816  25.955   0.864
22835W        W93435  25.950  31.125   3.542
22836W        W93436  35.904  31.108   0.014
22837W        W93437  42.211  24.585  11.426
22838W        W93438  42.128  14.307  14.896
22839W        W93439  33.435  27.645  13.316
22840W        W93440  29.644  30.708   4.943
22841W        W93441  18.106  14.883   0.470
22842W        W93442  19.244  30.616  14.409
22843W        W93443  16.748  30.353  14.969
22844W        W93444  12.275  25.158  14.261
22845W        W93445  15.063  40.773   4.128
22846W        W93446  31.574   0.738   4.643
22847W        W93447  35.631  11.393  13.501
22848W        W93448   5.127  20.615  12.986
22849W        W93449  21.763  21.708   3.705
22850W        W93450   2.790  14.413   4.767
22851W        W93451  17.421   5.702   9.972
22852W        W93452   5.367  22.044  14.371
22853W        W93453   0.264  39.028   0.800
22854W        W93454   3.480  28.695   4.039
22855W        W93455  23.099  35.975   4.219
22856W        W93456  20.640  31.662  11.615
22857W        W93457  29.107  33.054  10.643
22858W        W93458  31.028  28.351  12.334
22859W        W93459  16.586  36.447  12.057
22860W        W93460  37.206  38.390  11.739
22861W        W93461  44.933   0.198  11.437
22862W        W93462  10.415   2.930   0.621
22863W        W93463  33.945  31.432  10.708
22864W        W93464  26.040  31.062  11.916
22865W        W93465  29.635  44.867  12.800
22866W        W93466  12.604  32.561   4.815
22867W        W93467   1.167  17.594  11.696
22868W        W93468  37.783   6.609   3.829
22869W        W93469   8.533  24.106   2.066
22870W        W93470  21.039  17.214  14.373
22871W        W93471  15.405  20.628  11.079
22872W        W93472  22.771  15.239  13.412
22873W        W93473  44.027  41.793   2.842
22874W        W93474  20.598  37.868  11.679
22875W        W93475  10.907  15.807  11.500
22876W        W93476   9.203   8.101  14.856
22877W        W93477  13.344   6.827   1.274
22878W        W93478  37.149  18.700   2.815
22879W        W93479  23.988  29.304  14.837
22880W        W93480  31.111  30.996   3.676
22881W        W93481   9.625  12.969  12.001
22882W        W93482  29.617  43.209  14.750
22883W        W93483  34.936  30.218   1.319
22884W        W93484  27.703  32.462  12.569
22885W        W93485  15.693  35.243   1.607
22886W        W93486  37.595   2.298  13.848
22887W        W93487  14.766   7.926   2.797
22888W        W93488  14.902  31.866  11.608
22889W        W93489  23.958   5.316  11.182
22890W        W93490  39.939  27.465  12.152
22891W        W93491   0.935  32.428   1.214
22892W        W93492  41.161  39.957   2.320
22893W        W93493   4.517  34.330  11.443
22894W        W93494  22.144  44.312  13.375
22895W        W93495  41.867  35.403  10.748
22896W        W93496  16.642   6.901  11.637
22897W        W93497  21.328   2.258   1.392
22898W        W93498  26.458  24.399   2.317
22899W        W93499  33.091  40.252   4.518
22900W        W93500  34.627  29.176   2.244
22901W        W93501  18.153   5.896   4.911
22902W        W93502  42.930  32.365   0.828
22903W        W93503  37.859  29.296  11.040
22904W        W93504  34.506  41.168  13.979
22905W        W93505   7.722   1.046   4.126
22906W        W93506  10.561   8.435   1.959
22907W        W93507  20.180  34.054   4.545
22908W        W93508  19.000  26.121  13.577
22909W        W93509   4.374  41.785   2.871
22910W        W93510  40.466   3.785  11.737
22911W        W93511   9.870  14.576   1.172
22912W        W93512  14.178  33.067  14.212
22913W        W93513  23.596  30.450  10.741
22914W        W93514  12.127  21.049   4.432
22915W        W93515  20.181   7.237  10.690
22916W        W93516  31.596  41.012   3.747
22917W        W93517  30.421  34.556   2.868
22918W        W93518  10.433  18.989  12.340
22919W        W93519  13.187  24.256  11.546
22920W        W93520  34.917   1.298   2.718
22921W        W93521  18.274  38.346  12.921
22922W        W93522  10.986   9.295   0.884
22923W        W93523   1.748  22.741  12.429
22924W        W93524  31.176  36.164  10.742
22925W        W93525   2.901  32.845  14.411
22926W        W93526  43.519  25.493   2.085
22927W        W93527  32.878  20.760  14.455
22928W        W93528  30.014  33.079   4.483
22929W        W93529   0.465  11.531  14.445
22930W        W93530  23.225  28.925   1.342
22931W        W93531  34.981  44.946   3.226
22932W        W93532  12.747  25.174  12.146
22933W        W93533   5.163  23.930   0.904
22934W        W93534  44.575  13.699   1.434
22935W        W93535   6.331   8.632   0.959
22936W        W93536  23.467  23.193   2.357
22937W        W93537   6.922  33.660  14.686
22938W        W93538  11.233   3.299   1.723
22939W        W93539  43.518   9.946  14.546
22940W        W93540  41.043  41.082  12.116
22941W        W93541  19.758  34.297  12.784
22942W        W93542  35.416  37.911  14.654
22943W        W93543  12.733  31.950   3.783
22944W        W93544  30.224  15.103   0.020
22945W        W93545  22.263  40.395   2.056
22946W        W93546  31.992   1.055  13.455
22947W        W93547  31.227  23.975   0.914
22948W        W93548  30.507  22.306   3.780
22949W        W93549   6.576   0.367   2.766
22950W        W93550  29.657   9.860   1.559
22951W        W93551   4.439  38.101   3.348
22952W        W93552  21.578  38.069  12.138
22953W        W93553  22.750  27.080  14.912
22954W        W93554  42.476  41.390  13.590
22955W        W93555  37.518  28.907   0.902
22956W        W93556  39.973  11.170  11.691
22957W        W93557  38.942  14.923  14.054
22958W        W93558  39.406  30.895  11.248
22959W        W93559   7.906   3.425  14.784
22960W        W93560  37.062   6.091  14.348
22961W        W93561   3.513  30.533  13.016
22962W        W93562  14.637  29.374  12.136
22963W        W93563  38.586  24.160  10.712
22964W        W93564   0.436  40.985   3.984
22965W        W93565  30.399  15.192  12.034
22966W        W93566  12.660  13.102  14.291
22967W        W93567  38.340   8.089   2.387
22968W        W93568  42.450  43.483   1.188
22969W        W93569   6.968  17.853  13.413
22970W        W93570  28.258  43.546   4.725
22971W        W93571  25.885  33.882   0.509
22972W        W93572  38.807  44.430  13.399
22973W        W93573  32.496  19.271  13.538
22974W        W93574  38.575  38.147   0.430
22975W        W93575  33.334  21.125  14.477
22976W        W93576  12.867  29.451   3.576
22977W        W93577  19.018  41.772  13.771
22978W        W93578  40.951  23.086   0.759
22979W        W93579   3.305  40.313   2.932
22980W        W93580  24.066  37.900   2.687
22981W        W93581  35.441  28.354  12.018
22982W        W93582  38.412  19.138   4.246
22983W        W93583  43.824  39.159  13.808
22984W        W93584  16.510  10.560  11.573
22985W        W93585  21.210  43.120   0.708
22986W        W93586  36.521  11.158  13.597
22987W        W93587  35.153  14.674   3.795
22988W        W93588   0.222  32.632   3.692
22989W        W93589  35.958   6.877  12.394
22990W        W93590  39.059  13.815  12.564
22991W        W93591  17.999   5.389  11.077
22992W        W93592  22.436  30.496   4.055
22993W        W93593   5.138  44.279  13.020
22994W        W93594  32.301   1.497  14.093
22995W        W93595   5.372   8.135  12.142
22996W        W93596  31.587  35.820   3.969
22997W        W93597  25.946  25.462   1.833
22998W        W93598  27.880   6.690  14.424
22999W        W93599  16.119  27.195   3.281
23000W        W93600   4.107   8.305  11.004
23001W        W93601  11.277  15.182  12.958
23002W        W93602  15.890  33.014   5.399
23003W        W93603  27.474  41.256   4.711
23004W        W93604   1.757  30.825   4.535
23005W        W93605  39.806  16.248  12.923
23006W        W93606  41.668  36.505   0.675
23007W        W93607  40.708  42.213  14.950
23008W        W93608  28.210  38.086  12.025
23009W        W93609  36.391   3.864  13.991
23010W        W93610  40.301  35.159   1.907
23011W        W93611  12.106  20.688   1.146
23012W        W93612  42.402  34.178  12.097
23013W        W93613  29.385  18.053   2.791
23014W        W93614   8.359  30.158   0.915
23015W        W93615  28.502  25.131  10.918
23016W        W93616  37.153  36.491   3.661
23017W        W93617   1.768  35.846   4.211
23018W        W93618  16.589   9.684   3.220
23019W        W93619  24.786  43.660  11.033
23020W        W93620   6.847  27.514  12.341
23021W        W93621   9.623   9.123  11.582
23022W        W93622  31.861   1.450  13.793
23023W        W93623   7.949  43.473  14.336
23024W        W93624   6.684   2.339   4.634
23025W        W93625  23.650  44.852  13.665
23026W        W93626  35.460  17.240  10.495
23027W        W93627  22.004  10.473   2.967
23028W        W93628   1.994  26.615   0.104
23029W        W93629  30.027  36.956   0.839
23030W        W93630  11.605  14.831   3.709
23031W        W93631  10.710   4.578   2.658
23032W        W93632  13.342  23.088  10.923
23033W        W93633  29.621  21.648  14.312
23034W        W93634  27.473  42.222  12.342
23035W        W93635  23.694   7.381  13.823
23036W        W93636  13.726  34.116  10.184
23037W        W93637  38.774   6.720   1.346
23038W        W93638  41.918   8.151  14.782
23039W        W93639  36.770  15.298   0.795
23040W        W93640   1.144  36.855  12.432
23041W        W93641   0.024   5.358   0.315
23042W        W93642   8.810   4.798  12.383
23043W        W93643  17.009  23.089   1.706
23044W        W93644  17.385   9.367  10.671
23045W        W93645  24.978  29.931   4.671
23046W        W93646  19.311   7.645  12.461
23047W        W93647  30.599  21.862  13.965
23048W        W93648  28.887  22.893   2.222
23049W        W93649   5.960  25.261  11.587
23050W        W93650  37.465   1.337   0.741
23051W        W93651  43.850   3.013   1.385
23052W        W93652  21.330  15.937  14.643
23053W        W93653  30.853  27.035  13.920
23054W        W93654   2.202  24.406   3.717
23055W        W93655   6.708  23.243   3.481
23056W        W93656  34.040  24.761   4.464
23057W        W93657   7.344  37.908  11.647
23058W        W93658  12.881   7.709  12.760
23059W        W93659  25.670  24.666   2.649
23060W        W93660  44.925  31.540   4.038
23061W        W93661  26.931   2.282   0.069
23062W        W93662  30.014  24.320   0.034
23063W        W93663   8.177  10.821   3.268
23064W        W93664  19.583  24.532  14.567
23065W        W93665  26.489  36.048   3.672
23066W        W93666   7.581   7.884  11.982
23067W        W93667  14.293  19.427   0.855
23068W        W93668  29.012  31.375   2.706
23069W        W93669  20.492  23.805  13.915
23070W        W93670  44.886  26.686   0.870
23071W        W93671  22.545  41.267  14.941
23072W        W93672  25.025  34.478   1.515
23073W        W93673  23.594   1.441   1.963
23074W        W93674  14.900  42.291  14.930
23075W        W93675   7.229  29.884   1.707
23076W        W93676  37.256  14.207   4.654
23077W        W93677   2.380   0.811   2.855
23078W        W93678  22.957  10.204  12.502
23079W        W93679  38.348  17.752  11.702
23080W        W93680  40.618  33.574   4.556
23081W        W93681  17.134  21.006  13.254
23082W        W93682  38.340  16.585  12.408
23083W        W93683  24.670  41.515  14.194
23084W        W93684  16.417  17.066  12.242
23085W        W93685  41.031  39.096   2.361
23086W        W93686  38.401  25.843   3.660
23087W        W93687  16.651  43.755   3.196
23088W        W93688  17.811  40.326   1.251
23089W        W93689  35.446   8.218  14.875
23090W        W93690  29.345   0.982   4.695
23091W        W93691  33.874   4.426  13.542
23092W        W93692  36.528  18.251   2.242
23093W        W93693  11.218  10.387  14.850
23094W        W93694  43.323  40.064  13.083
23095W        W93695  30.573  19.933  14.046
23096W        W93696  26.722  32.499  11.556
23097W        W93697  22.771  30.687   5.044
23098W        W93698  25.812  23.480  12.177
23099W        W93699   2.873  27.505   3.385
23100W        W93700  18.132  36.835  11.535
23101W        W93701  23.598  27.342   4.678
23102W        W93702  35.369  32.137   4.480
23103W        W93703   3.708  38.465   0.731
23104W        W93704  14.218  33.468  11.979
23105W        W93705   3.081  42.815  10.308
23106W        W93706   5.317  18.004  11.402
23107W        W93707  24.244   4.133  12.826
23108W        W93708  25.920  11.827   1.398
23109W        W93709  13.171  22.659   4.515
23110W        W93710  43.791  13.704   1.164
23111W        W93711  17.826   9.067  11.543
23112W        W93712   1.732  12.971  13.513
23113W        W93713  32.934  24.760  11.452
23114W        W93714   7.406  14.567   1.779
23115W        W93715  29.019  19.204  12.312
23116W        W93716   7.887   4.247   0.403
23117W        W93717  23.456  20.958   2.239
23118W        W93718  26.255  31.166   0.690
23119W        W93719   4.795  27.511  11.170
23120W        W93720   7.972  33.993   2.600
23121W        W93721  25.006   4.889  13.840
23122W        W93722  12.314  18.146   0.918
23123W        W93723   5.700  25.633   3.605
23124W        W93724  29.505  22.152   3.207
23125W        W93725  17.686  32.373   4.803
23126W        W93726  27.417  14.159  12.145
23127W        W93727  29.880   1.913   2.756
23128W        W93728  12.137   0.916   0.272
23129W        W93729  43.742  37.101  13.925
23130W        W93730   8.845   4.847   0.578
23131W        W93731  29.515  24.187  14.913
23132W        W93732  12.567  27.052   2.866
23133W        W93733  29.071  16.306  12.002
23134W        W93734  13.819  28.926  13.977
23135W        W93735  19.020  14.105   3.892
23136W        W93736   8.146  13.856  14.693
23137W        W93737   2.328  17.042  12.185
23138W        W93738  28.235   3.984  13.921
23139W        W93739  19.283  35.507  14.042
23140W        W93740  26.116  21.723  11.053
23141W        W93741  22.527  44.024   3.247
23142W        W93742  23.786  15.875  14.020
23143W        W93743  18.860  38.152  11.200
23144W        W93744  38.366   1.455   3.270
23145W        W93745  20.006  32.495   0.405
23146W        W93746  39.040  35.025  12.816
23147W        W93747  40.909  19.733  10.303
23148W        W93748  12.700  28.190   2.339
23149W        W93749   7.549  25.139  12.458
23150W        W93750  19.310  23.939   1.228
23151W        W93751  26.226  10.999  11.458
23152W        W93752   8.908  18.917  14.872
23153W        W93753  12.709  42.733  12.106
23154W        W93754  40.921  22.535  12.874
23155W        W93755  14.200  44.957  10.878
23156W        W93756  14.901  41.508  10.572
23157W        W93757  14.140  10.748  10.507
23158W        W93758  23.751  31.496  11.540
23159W        W93759   7.388  41.172  13.611
23160W        W93760   1.766  42.204  12.127
23161W        W93761  13.227   5.838  11.164
23162W        W93762  34.011  37.829  14.805
23163W        W93763  26.497  19.542   0.900
23164W        W93764   2.520  12.276  13.434
23165W        W93765  11.195   8.231  12.580
23166W        W93766  42.072  15.028  12.637
23167W        W93767   6.714   9.110   3.703
23168W        W93768   8.243  18.118   0.821
23169W        W93769  22.565  42.981   4.152
23170W        W93770   3.043  18.304   3.338
23171W        W93771  38.037  26.190  13.024
23172W        W93772  17.068  41.867  12.102
23173W        W93773   9.163  11.422   0.921
23174W        W93774  34.879  39.478   3.297
23175W        W93775  40.579  32.883  11.482
23176W        W93776  11.848   5.867   3.189
23177W        W93777  12.724  20.256   2.790
23178W        W93778  37.001   5.300   1.419
23179W        W93779  20.500  29.003  14.852
23180W        W93780   7.434  39.012  14.611
23181W        W93781   5.191  30.922  12.430
23182W        W93782  15.897  26.536  13.844
23183W        W93783   9.437  33.073   1.831
23184W        W93784   5.817  29.988   2.196
23185W        W93785  11.870  42.197   1.301
23186W        W93786  40.269  16.802   3.683
23187W        W93787   8.887   1.011  12.386
23188W        W93788  42.741  43.092   1.027
23189W        W93789  31.426  35.644  13.834
23190W        W93790   1.811  33.232  12.734
23191W        W93791   9.550   6.515  12.275
23192W        W93792  18.690   5.315  12.272
23193W        W93793  19.217   0.747   4.509
23194W        W93794  31.178  37.047  11.629
23195W        W93795  39.006   2.243   4.769
23196W        W93796  20.260  16.643  14.370
23197W        W93797  33.161   0.258   3.106
23198W        W93798  31.019   3.417   1.774
23199W        W93799  31.635   6.338   4.796
23200W        W93800  32.356  33.182  11.521
23201W        W93801  13.205   4.344   3.749
23202W        W93802  28.221  35.850  13.168
23203W        W93803  19.943  29.544  11.414
23204W        W93804  25.408  30.447  13.849
23205W        W93805  21.228  43.767  10.662
23206W        W93806  23.484  13.690  13.519
23207W        W93807  16.156  36.974  13.476
23208W        W93808  28.956  38.781  14.445
23209W        W93809  43.642   2.773  13.759
23210W        W93810  38.639  34.015   3.820
23211W        W93811  37.579  36.851   2.163
23212W        W93812  15.784  37.669  10.267
23213W        W93813  35.570  19.975   2.829
23214W        W93814   0.266  34.586   1.273
23215W        W93815  38.284  23.891  12.021
23216W        W93816  19.735   9.723  11.468
23217W        W93817   9.237   6.026  13.600
23218W        W93818  28.305  36.523  12.412
23219W        W93819   0.393   9.089   4.267
23220W        W93820  31.572  20.505   3.670
23221W        W93821  30.592   4.171  14.690
23222W        W93822  16.724  10.556  12.438
23223W        W93823  36.736  43.664  13.060
23224W        W93824  27.429   9.529   2.250
23225W        W93825   2.407  29.634  10.636
23226W        W93826  18.838  19.116   3.634
23227W        W93827   6.487  14.356   4.997
23228W        W93828   5.759  10.156  13.829
23229W        W93829  20.642  38.904   2.590
23230W        W93830  41.401  24.484   4.331
23231W        W93831   1.740  20.566   4.239
23232W        W93832   8.691  28.640  10.470
23233W        W93833   9.136  41.367  12.399
23234W        W93834  11.355   8.372  13.426
23235W        W93835   9.234  31.255   0.892
23236W        W93836   6.136  38.757  12.558
23237W        W93837  14.634  12.276  10.201
23238W        W93838  25.600   3.840   4.571
23239W        W93839  11.600  39.664  12.652
23240W        W93840  15.925  10.610   4.070
23241W        W93841  18.873  42.724   2.807
23242W        W93842  18.620   7.875  10.973
23243W        W93843  43.274  16.362  12.108
23244W        W93844  42.178  38.776   2.848
23245W        W93845  36.782  34.022   2.101
23246W        W93846  22.214   3.910   2.314
23247W        W93847  41.835   1.875   1.639
23248W        W93848  34.095  15.106   1.412
23249W        W93849  32.500  34.972  12.885
23250W        W93850   4.433  44.085  14.244
23251W        W93851   8.943   7.249  13.831
23252W        W93852   2.077  11.198  12.424
23253W        W93853  28.963  29.473   0.844
23254W        W93854  32.051   6.701  11.363
23255W        W93855  20.114  19.236   1.870
23256W        W93856  39.074  20.553  13.516
23257W        W93857  21.494  31.117   1.877
23258W        W93858  21.028  30.513  11.855
23259W        W93859  18.314  43.339  12.498
23260W        W93860  16.175   1.521   0.953
23261W        W93861  16.285  23.680   0.485
23262W        W93862  36.989  11.041  10.382
23263W        W93863  31.623  23.522  10.716
23264W        W93864  25.976  24.383   3.792
23265W        W93865  10.208  23.379   3.034
23266W        W93866   2.073  33.156   1.903
23267W        W93867  29.175  30.423   0.260
23268W        W93868  33.651  41.127   2.293
23269W        W93869  33.894  19.069   2.829
23270W        W93870  44.311  30.168   4.078
23271W        W93871  12.602  14.702  14.035
23272W        W93872  43.683  22.689   3.348
23273W        W93873  35.414  35.643   3.591
23274W        W93874   5.362  32.923  12.121
23275W        W93875  17.329  25.230  11.020
23276W        W93876   7.243   8.266  12.844
23277W        W93877  40.386  23.371  11.606
23278W        W93878   5.992   4.370  10.542
23279W        W93879  17.338  23.514  12.582
23280W        W93880  19.946  21.172   4.942
23281W        W93881  36.491  38.005   3.619
23282W        W93882  41.829  44.705  14.364
23283W        W93883  22.148   1.174   1.681
23284W        W93884  34.431  25.051  14.023
23285W        W93885  19.993  32.453   1.833
23286W        W93886  38.799  30.546  11.152
23287W        W93887  44.783  43.704  11.686
23288W        W93888  25.086  36.667   3.419
23289W        W93889   7.718   6.120  12.114
23290W        W93890  13.179  35.168  13.825
23291W        W93891  29.907  11.662   2.309
23292W        W93892  14.599  44.866  12.545
23293W        W93893  34.404  22.238   3.118
23294W        W93894  40.336  38.281  14.355
23295W        W93895  18.785  16.205  14.380
23296W        W93896  13.785  34.910   1.741
23297W        W93897   0.485   8.074   1.821
23298W        W93898   5.294  18.114   0.429
23299W        W93899   9.315  44.024  10.503
23300W        W93900   3.764   1.826  13.104
23301W        W93901  42.928  21.077   4.490
23302W        W93902  20.612  21.146   1.760
23303W        W93903  18.810  24.143  11.140
23304W        W93904  21.500  39.957  12.047
23305W        W93905  41.964   2.684   2.901
23306W        W93906  22.513  25.419   0.931
23307W        W93907  25.569   0.346  12.357
23308W        W93908  29.767   3.528  10.272
23309W        W93909   2.871  17.201   2.346
23310W        W93910  14.723  20.731   0.815
23311W        W93911  24.121  38.603   4.021
23312W        W93912  33.174  28.848  12.086
23313W        W93913   3.966  30.513  10.724
23314W        W93914  26.974  11.851  11.146
23315W        W93915  39.834   7.617  10.926
23316W        W93916   2.596  41.493   2.781
23317W        W93917  25.277   4.812   3.778
23318W        W93918   7.693  44.085  12.486
23319W        W93919  25.428  36.502   1.793
23320W        W93920  38.972  20.249   3.601
23321W        W93921  40.350   0.278   3.346
23322W        W93922  44.888  23.427  11.031
23323W        W93923  12.774  27.264  13.515
23324W        W93924   3.414  33.994   0.370
23325W        W93925  21.651   2.875   0.450
23326W        W93926  32.098  21.021   3.672
23327W        W93927  31.888   8.433   2.192
23328W        W93928   9.532   5.186  12.606
23329W        W93929  29.196  16.501   3.202
23330W        W93930  43.572  21.348   3.170
23331W        W93931   8.635  25.717   2.612
23332W        W93932  21.296  35.893   2.188
23333W        W93933  32.873  30.476   4.996
23334W        W93934  24.541  35.866  12.128
23335W        W93935  20.025  11.098   0.025
23336W        W93936  34.969  12.371   3.160
23337W        W93937   5.510  30.941   1.806
23338W        W93938   8.702  22.768   4.648
23339W        W93939  29.053  41.255  13.351
23340W        W93940  40.030  16.115  12.396
23341W        W93941  31.196  40.502   0.581
23342W        W93942  44.982   2.158  13.755
23343W        W93943   5.635  15.268   0.693
23344W        W93944   6.521   3.795   0.430
23345W        W93945  22.700  25.245   2.290
23346W        W93946  23.676  39.405   1.900
23347W        W93947   8.462  20.260   3.170
23348W        W93948  38.338  36.612   0.700
23349W        W93949  23.775  39.944  10.969
23350W        W93950   2.786  13.481   3.113
23351W        W93951  15.266  18.782  12.945
23352W        W93952  31.414  38.944   2.215
23353W        W93953  18.093  33.097   4.841
23354W        W93954  14.670  17.485   4.046
23355W        W93955  44.758  42.017   4.904
23356W        W93956   8.207   8.716   4.474
23357W        W93957  44.545  26.953  11.119
23358W        W93958   3.838   6.457   3.956
23359W        W93959  13.465  32.869   0.495
23360W        W93960  28.039  16.292  13.403
23361W        W93961  10.461  12.834   2.674
23362W        W93962   7.797  27.184  12.856
23363W        W93963   5.791   4.424   4.112
23364W        W93964   3.883  44.483   1.149
23365W        W93965  18.821   9.227  10.722
23366W        W93966  19.246  24.990   0.324
23367W        W93967   2.671  15.029  13.604
23368W        W93968  29.989  30.340   1.731
23369W        W93969   1.714  31.520   2.349
23370W        W93970  19.762  21.715   0.518
23371W        W93971   5.906   5.787   4.049
23372W        W93972  13.824  10.377   3.234
23373W        W93973   4.989  35.646   3.651
23374W        W93974  10.231   3.478  12.859
23375W        W93975  32.935   2.904  12.418
23376W        W93976  28.667  26.013  12.412
23377W        W93977  44.143   0.932  11.496
23378W        W93978  25.612  16.233   2.898
23379W        W93979   7.225   6.307   0.295
23380W        W93980   0.346  13.215  13.396
23381W        W93981  24.034  44.297   2.410
23382W        W93982   1.407   3.917  10.597
23383W        W93983  36.629  13.204  11.161
23384W        W93984  31.428  44.727   2.085
23385W        W93985  27.503   9.355  13.493
23386W        W93986  39.983  39.410   3.446
23387W        W93987  36.779  43.533  12.023
23388W        W93988  23.011  38.910  14.918
23389W        W93989  42.451  42.295   3.642
23390W        W93990   9.727  18.538  12.529
23391W        W93991  29.735  39.909  12.006
23392W        W93992  36.152  24.748   2.115
23393W        W93993   6.687  44.505   4.371
23394W        W93994  38.392  30.631   3.729
23395W        W93995   3.409  19.679  11.715
23396W        W93996  40.802  14.379  13.532
23397W        W93997   4.442  10.336   4.852
23398W        W93998  23.767  36.041   3.592
23399W        W93999  40.479  31.104   1.246
23400W        W94000   6.323  42.018  13.520
23401W        W94001  19.602   8.041  13.085
23402W        W94002  10.741  44.947   3.708
23403W        W94003  29.954   4.921  12.626
23404W        W94004  21.675   3.341  13.806
23405W        W94005  29.711   7.298   4.243
23406W        W94006  44.624  22.181   3.755
23407W        W94007  17.040   6.774  13.416
23408W        W94008   2.325  19.179  13.344
23409W        W94009  26.633  20.071   0.774
23410W        W94010  16.960  11.773   3.680
23411W        W94011   2.721  20.511  13.988
23412W        W94012  35.982  10.288  10.485
23413W        W94013   4.067  25.052   4.066
23414W        W94014  32.315  33.365   4.530
23415W        W94015  33.001   2.280   1.487
23416W        W94016   6.123  24.479   3.734
23417W        W94017   9.457  18.509   4.668
23418W        W94018  21.242  17.727   5.012
23419W        W94019  11.461  34.822   0.421
23420W        W94020   5.140   5.822   0.976
23421W        W94021  22.352  28.663   9.961
23422W        W94022  22.634   1.017   1.042
23423W        W94023  24.517  10.701  13.061
23424W        W94024  18.483  23.632   0.705
23425W        W94025  15.709  10.090  13.277
23426W        W94026  12.732  10.914   3.461
23427W        W94027  22.185  31.592  11.114
23428W        W94028  15.805  42.427  12.331
23429W        W94029  33.540  44.263  12.477
23430W        W94030   6.918  24.627   3.132
23431W        W94031  19.631   4.017   4.565
23432W        W94032  17.354  42.666   2.700
23433W        W94033  25.900  39.292  11.294
23434W        W94034   6.721  40.624  14.477
23435W        W94035   8.269  43.813  13.494
23436W        W94036  10.674  25.760   3.335
23437W        W94037   6.296   3.573   2.676
23438W        W94038  28.968   5.904   1.697
23439W        W94039  17.655  33.494  12.010
23440W        W94040   0.474  25.141  11.776
23441W        W94041  12.482  29.554   3.923
23442W        W94042  39.606   9.898  11.626
23443W        W94043  15.706  19.280  14.370
23444W        W94044  37.978  38.512   4.134
23445W        W94045  41.486  39.154   0.324
23446W        W94046  11.878  13.801  11.109
23447W        W94047  30.635  40.558   0.867
23448W        W94048   0.264  18.078   1.234
23449W        W94049  28.908   0.399  11.824
23450W        W94050  29.549   3.486  12.525
23451W        W94051  13.348  44.711   3.036
23452W        W94052  13.359  16.995   3.839
23453W        W94053   0.533  19.029  11.127
23454W        W94054  17.072  36.757   1.697
23455W        W94055   5.810  25.793  10.756
23456W        W94056  31.700  31.528   1.844
23457W        W94057  30.376  33.889  11.545
23458W        W94058  35.960  16.803  14.256
23459W        W94059  27.541   6.983   2.899
23460W        W94060   1.500  25.917  14.794
23461W        W94061  11.254  25.013  11.575
23462W        W94062  25.179  14.229  12.214
23463W        W94063  10.783  30.466   1.419
23464W        W94064  29.027  41.943   4.598
23465W        W94065   1.504  15.053  10.672
23466W        W94066  29.810  36.425   0.322
23467W        W94067  22.459  23.723   3.087
23468W        W94068   7.424  43.700  12.807
23469W        W94069  25.482  28.980  12.525
23470W        W94070   8.112  11.102   3.719
23471W        W94071   3.311  32.693  13.610
23472W        W94072  33.975   8.140  12.420
23473W        W94073   4.438   9.200   1.419
23474W        W94074  19.768  23.526  12.473
23475W        W94075  41.618  43.971  13.704
23476W        W94076  23.513  17.055   3.416
23477W        W94077  44.743  10.594   0.832
23478W        W94078  11.839  28.183  10.472
23479W        W94079  34.867  41.270  13.540
23480W        W94080  29.685   2.152  14.011
23481W        W94081  11.428  13.638  12.409
23482W        W94082  25.626   5.573   1.165
23483W        W94083  19.434  11.948  11.622
23484W        W94084  34.025  40.554   4.633
23485W        W94085  40.130  17.217  12.779
23486W        W94086  24.228  37.288  14.390
23487W        W94087  20.044  23.658  14.357
23488W        W94088  25.911  10.702   4.131
23489W        W94089  26.049  40.277  12.640
23490W        W94090  43.584  42.213  11.202
23491W        W94091  22.446   3.933  10.495
23492W        W94092  40.581  36.059  13.716
23493W        W94093   5.175  41.918   2.970
23494W        W94094   9.858   5.577  12.564
23495W        W94095  31.118  28.609   0.233
23496W        W94096  16.325  40.332   4.188
23497W        W94097   3.281  18.533   1.268
23498W        W94098  39.756  15.667  14.096
23499W        W94099  18.650  39.925   1.804
23500W        W94100  27.859   9.934  11.132
23501W        W94101  44.550  17.485  11.068
23502W        W94102  21.131  15.054  14.187
23503W        W94103  32.646  41.835   4.633
23504W        W94104  39.342   9.733  10.742
23505W        W94105  16.004  18.417  12.310
23506W        W94106  40.496   1.990  13.881
23507W        W94107  13.062   8.615  13.970
23508W        W94108  13.472   9.266   1.725
23509W        W94109  43.056   6.164  11.617
23510W        W94110  23.792   7.271  12.956
23511W        W94111  17.200  35.303   1.801
23512W        W94112  26.300  35.005  13.899
23513W        W94113  41.305  21.218   4.718
23514W        W94114  23.950  29.152  11.519
23515W        W94115  10.775  26.741   1.220
23516W        W94116  10.224  43.497   3.649
23517W        W94117  17.793  34.067   1.579
23518W        W94118  32.197  33.569  11.904
23519W        W94119   3.691  40.978  12.161
23520W        W94120   7.258   7.452   1.691
23521W        W94121   1.039  27.661   1.315
23522W        W94122  19.717  44.873  13.352
23523W        W94123  40.743  12.739   5.020
23524W        W94124  39.588  16.920  13.800
23525W        W94125  22.345  16.254   0.346
23526W        W94126  32.991  39.686  12.811
23527W        W94127  27.966   0.787  10.765
23528W        W94128  17.700  15.381   4.161
23529W        W94129  11.721  10.092   0.799
23530W        W94130  34.752   7.957  14.339
23531W        W94131  41.265  13.015   2.616
23532W        W94132  26.210   6.346   4.417
23533W        W94133  17.068  20.148  11.884
23534W        W94134  10.147  26.267   1.782
23535W        W94135  42.809  15.618  13.987
23536W        W94136  38.185  40.546  11.076
23537W        W94137   8.366   2.360  13.067
23538W        W94138  34.633  18.915   3.300
23539W        W94139  44.490  18.368  13.886
23540W        W94140  36.916  25.088   3.250
23541W        W94141  27.718  25.601  11.025
23542W        W94142  18.644  38.634   4.169
23543W        W94143  41.572  29.985  10.755
23544W        W94144  39.534  33.510   4.546
23545W        W94145  12.453  34.511  14.360
23546W        W94146  36.817  30.486   1.233
23547W        W94147  31.125  11.831  11.239
23548W        W94148   9.122  35.080  12.507
23549W        W94149   9.409  34.227   1.821
23550W        W94150  24.448   3.419   2.038
23551W        W94151  44.032  26.198   1.865
23552W        W94152   9.135  38.352   0.670
23553W        W94153  41.903  42.973   3.704
23554W        W94154  40.830  40.375  11.673
23555W        W94155  14.376   6.806   1.886
23556W        W94156  12.798  13.159   2.731
23557W        W94157  37.614   8.729   2.012
23558W        W94158   0.167   0.286  14.454
23559W        W94159   7.140  30.164   2.714
23560W        W94160  26.384  25.427  10.459
23561W        W94161   3.267  32.657   0.049
23562W        W94162  43.744   2.727   2.716
23563W        W94163  23.890   6.671   3.316
23564W        W94164   3.675   9.693  13.038
23565W        W94165  15.394  32.963   1.545
23566W        W94166  10.934  35.064  11.072
23567W        W94167   8.203  15.313   1.302
23568W        W94168  33.962  28.684   1.529
23569W        W94169  16.658   0.968   0.489
23570W        W94170  19.611   8.812   4.474
23571W        W94171  36.660  35.112  12.997
23572W        W94172  35.785   6.183  13.074
23573W        W94173  26.972  30.041   1.286
23574W        W94174  18.149  40.369  11.898
23575W        W94175  23.056  27.597  13.793
23576W        W94176  15.262  19.672   2.554
23577W        W94177  33.884  13.130   2.861
23578W        W94178   2.843  37.285  11.113
23579W        W94179  44.130  15.236   4.297
23580W        W94180  28.768  33.573   4.572
23581W        W94181   7.123   4.897   2.813
23582W        W94182   0.869  20.792   1.269
23583W        W94183  23.179  13.313  13.901
23584W        W94184  17.538  12.663   3.959
23585W        W94185  18.129  19.668  11.555
23586W        W94186   8.670   6.794  14.711
23587W        W94187  28.115  41.730  10.810
23588W        W94188  14.678   2.199   3.404
23589W        W94189  40.849  10.023  12.012
23590W        W94190   3.838   7.414  11.015
23591W        W94191  17.029  42.184  11.292
23592W        W94192  31.885   9.059  10.754
23593W        W94193  11.861  31.854   5.106
23594W        W94194  14.016   5.435   3.469
23595W        W94195  18.563  21.278   0.768
23596W        W94196   9.857  26.169  11.388
23597W        W94197  21.249   3.419  12.836
23598W        W94198  28.966  14.563  13.792
23599W        W94199  22.744  31.103  13.441
23600W        W94200  30.639  40.371  13.114
23601W        W94201   3.289  38.582  12.576
23602W        W94202  15.574  33.445   2.861
23603W        W94203  33.461  12.179  10.629
23604W        W94204  20.214  25.685   2.177
23605W        W94205  33.357   4.980   2.309
23606W        W94206  41.838   6.108   1.402
23607W        W94207   2.608  27.102  11.283
23608W        W94208  38.467  20.718   4.151
23609W        W94209  12.107  14.925  14.347
23610W        W94210  37.985   0.593  13.277
23611W        W94211  28.185   5.205   4.951
23612W        W94212  35.599  21.199  13.986
23613W        W94213   1.949   9.625  14.010
23614W        W94214  22.096  26.005   1.469
23615W        W94215  24.140   6.306  14.393
23616W        W94216  35.188  40.754  14.369
23617W        W94217  10.257  24.208   5.362
23618W        W94218  42.035  15.250  14.834
23619W        W94219  10.370  16.236   4.803
23620W        W94220   5.173  14.894  12.000
23621W        W94221  37.428  18.397  12.571
23622W        W94222  11.224  18.035  13.735
23623W        W94223  13.405  17.286  12.154
23624W        W94224  10.875  17.080  13.861
23625W        W94225  14.635  14.758   3.189
23626W        W94226  26.767  37.527   1.727
23627W        W94227  41.263  40.108   0.559
23628W        W94228   9.661   7.808  13.957
23629W        W94229   8.168  35.585  13.534
23630W        W94230  27.085  31.511  11.008
23631W        W94231  15.325   2.191  13.555
23632W        W94232  37.432  12.122   1.237
23633W        W94233  12.806  38.641   0.223
23634W        W94234  35.671  20.445  14.408
23635W        W94235  26.134   8.905  12.572
23636W        W94236  38.096  17.172  10.562
23637W        W94237  29.012  26.215  13.918
23638W        W94238  18.268   5.385  12.969
23639W        W94239  19.195  12.688  13.128
23640W        W94240  39.190  29.672   2.710
23641W        W94241  39.010  34.918  11.811
23642W        W94242  44.511  34.606   0.953
23643W        W94243  24.914  13.792   1.000
23644W        W94244  38.277   5.926   1.186
23645W        W94245  29.510  38.115  14.849
23646W        W94246   5.366  37.064   4.373
23647W        W94247   3.753  18.995   2.849
23648W        W94248  26.505  34.422   2.728
23649W        W94249  21.515  34.881  13.077
23650W        W94250  33.963   3.843  11.862
23651W        W94251  37.441   1.948   1.310
23652W        W94252  19.141   1.149   1.312
23653W        W94253  38.003  40.041   2.710
23654W        W94254   0.897  32.334  14.294
23655W        W94255  37.323  28.229  14.894
23656W        W94256  16.614  28.998   1.862
23657W        W94257   5.244  17.502   2.136
23658W        W94258  44.775  14.699   4.227
23659W        W94259  12.946  15.755  11.546
23660W        W94260   0.481  37.060   4.560
23661W        W94261  39.098  19.546  13.966
23662W        W94262  42.880  42.037   3.761
23663W        W94263  43.031  17.299   2.167
23664W        W94264  20.720  39.506  12.072
23665W        W94265  37.287  21.876  13.889
23666W        W94266  42.358  19.033   1.373
23667W        W94267  24.145  19.272   2.687
23668W        W94268  36.628   5.697  10.565
23669W        W94269  31.377  43.309   4.122
23670W        W94270   2.170   0.734  11.601
23671W        W94271  25.910  43.429  14.161
23672W        W94272   6.706  44.011   0.023
23673W        W94273  28.933  13.162  10.688
23674W        W94274  44.565  12.740  14.433
23675W        W94275   5.410  13.813   0.941
23676W        W94276  13.262   4.676  12.079
23677W        W94277  44.694  39.302   4.536
23678W        W94278  18.109   9.832   1.342
23679W        W94279  15.659   9.295   4.513
23680W        W94280  38.901  20.032   4.556
23681W        W94281  33.517  23.744   9.866
23682W        W94282  34.548  33.931  12.141
23683W        W94283  42.402  43.474  14.397
23684W        W94284  13.672  16.474  12.684
23685W        W94285  22.609  21.127  10.782
23686W        W94286  24.564  34.902   2.335
23687W        W94287  27.482   7.654  14.565
23688W        W94288  35.208  38.553   4.720
23689W        W94289  39.440  22.476   0.653
23690W        W94290  23.862  16.371   2.285
23691W        W94291  38.547  29.847  14.418
23692W        W94292  28.920  36.128   4.532
23693W        W94293  34.486  40.219   0.980
23694W        W94294  27.558  16.316  10.678
23695W        W94295  40.924  43.790   2.100
23696W        W94296  12.992   3.747   2.744
23697W        W94297  37.538  26.022  12.934
23698W        W94298  16.101  22.192  11.366
23699W        W94299  26.496   3.840   4.690
23700W        W94300  35.507  26.237  11.014
23701W        W94301  34.969  23.453   3.769
23702W        W94302  19.842  37.098  13.768
23703W        W94303   2.421  13.103   0.747
23704W        W94304   6.697  29.984  13.426
23705W        W94305  39.404  21.741   4.241
23706W        W94306   9.075  31.492   2.601
23707W        W94307   6.447   9.911   2.877
23708W        W94308  30.983  11.870  14.883
23709W        W94309  18.599  36.156  11.166
23710W        W94310  42.871  12.829   1.328
23711W        W94311  15.591   7.326  13.453
23712W        W94312  35.089  24.069   0.202
23713W        W94313  21.688  21.018  13.857
23714W        W94314  36.128  33.795  11.126
23715W        W94315  11.144  24.999  13.342
23716W        W94316  40.788   5.276  12.037
23717W        W94317  35.510  35.891   2.219
23718W        W94318   9.604  37.103  14.843
23719W        W94319   4.274   2.001  13.513
23720W        W94320  19.048  21.455   0.689
23721W        W94321   0.942   1.782  12.558
23722W        W94322  38.282  37.449   2.341
23723W        W94323   9.030  28.026   4.501
23724W        W94324  33.970  21.682  11.805
23725W        W94325  37.012  20.447  11.612
23726W        W94326   5.806  25.470   1.315
23727W        W94327  22.008  11.012   0.972
23728W        W94328   1.772  40.943  12.499
23729W        W94329  19.603   6.788  11.619
23730W        W94330  30.430  27.324  13.403
23731W        W94331  20.640   8.803  12.975
23732W        W94332  10.662   7.320  13.788
23733W        W94333  16.582  19.239  13.167
23734W        W94334  44.632  23.244   2.395
23735W        W94335  14.996  25.682  12.567
23736W        W94336   3.332  43.004  14.426
23737W        W94337   4.752  12.429   1.633
23738W        W94338  44.478   7.144   0.306
23739W        W94339  10.491  27.506  13.474
23740W        W94340  43.198  43.537   2.802
23741W        W94341  26.048  29.894   1.481
23742W        W94342  16.575  17.198   0.954
23743W        W94343  34.299  27.223  11.110
23744W        W94344   4.840  22.296  13.265
23745W        W94345  18.331   5.672  14.271
23746W        W94346   0.839  35.897   1.416
23747W        W94347  40.492  33.900   3.351
23748W        W94348  27.184  37.178   0.879
23749W        W94349  10.766  19.973  12.113
23750W        W94350  23.977  10.357  12.421
23751W        W94351  20.729  23.978   0.362
23752W        W94352  30.915   2.885  10.398
23753W        W94353   7.219  11.711   4.098
23754W        W94354   3.935   6.557   0.117
23755W        W94355  15.899  12.355  14.581
23756W        W94356  22.310  10.760   0.634
23757W        W94357   1.045  29.584  14.265
23758W        W94358  25.288   3.326   1.712
23759W        W94359  25.699  33.452   0.776
23760W        W94360  24.820  12.185   0.560
23761W        W94361  16.336  44.287   2.375
23762W        W94362  12.293  35.876   3.958
23763W        W94363   9.070   1.284  11.621
23764W        W94364  32.892   0.304  10.631
23765W        W94365  26.268  16.598  12.954
23766W        W94366  27.264  33.490   1.406
23767W        W94367   8.005  35.208  10.595
23768W        W94368  42.016  10.800   3.229
23769W        W94369   2.039   7.278  13.447
23770W        W94370   2.464  33.877  13.972
23771W        W94371  22.833  42.796   5.452
23772W        W94372  15.788  16.171  14.412
23773W        W94373   7.388  27.741   1.397
23774W        W94374  23.346  41.843   0.470
23775W        W94375   8.342   4.401  13.511
23776W        W94376   4.551  22.555  11.298
23777W        W94377  13.215   2.606   3.224
23778W        W94378  10.846  13.362   3.244
23779W        W94379  11.145  14.025  12.603
23780W        W94380  36.709  15.630  11.177
23781W        W94381  33.095  25.007   3.179
23782W        W94382  19.856  38.282  12.876
23783W        W94383  36.958   6.491   1.631
23784W        W94384  22.106  27.591  13.388
23785W        W94385  27.039   6.781  11.631
23786W        W94386  25.624  21.468  12.284
23787W        W94387  43.018  39.366  12.854
23788W        W94388  28.614  10.107   4.580
23789W        W94389   1.679  34.144  13.420
23790W        W94390  32.072  21.593  13.493
23791W        W94391  33.642  16.969   2.543
23792W        W94392  10.950  24.298  12.990
23793W        W94393  20.706  29.898   4.622
23794W        W94394  39.782  22.451   2.695
23795W        W94395   2.263  41.589  14.975
23796W        W94396  41.970  26.634  13.883
23797W        W94397  26.086  42.980   0.843
23798W        W94398   2.436  42.393  10.703
23799W        W94399  14.312  21.976  13.565
23800W        W94400  13.093  25.302   2.806
23801W        W94401  25.707  19.010  13.091
23802W        W94402  37.845  16.311  13.533
23803W        W94403  12.711  18.557   3.397
23804W        W94404  37.542   2.650   4.416
23805W        W94405  23.324   1.982  12.071
23806W        W94406  28.620  23.845  12.912
23807W        W94407  14.263  29.009   4.720
23808W        W94408   3.690   7.720   4.862
23809W        W94409   8.413   2.663   2.593
23810W        W94410   1.304  26.160   4.471
23811W        W94411  38.445  15.956   2.412
23812W        W94412   0.981  23.086   4.153
23813W        W94413  28.292   5.319  14.235
23814W        W94414  14.780  44.051   5.401
23815W        W94415  30.106  28.565  13.539
23816W        W94416  22.171  11.634   4.093
23817W        W94417   9.028  26.779  14.661
23818W        W94418  38.012  16.275  14.050
23819W        W94419  24.027  37.734   1.271
23820W        W94420   9.377  38.602   3.480
23821W        W94421  29.426  43.329  11.709
23822W        W94422  28.553  15.196  13.292
23823W        W94423  13.171  38.579   1.343
23824W        W94424  23.568  36.478   4.607
23825W        W94425  38.375  22.543   4.201
23826W        W94426  30.858  37.339  11.926
23827W        W94427  35.641  36.369   0.394
23828W        W94428  31.001  21.744  13.548
23829W        W94429   6.936  40.796   1.944
23830W        W94430  13.135  28.179  13.118
23831W        W94431  35.453  24.902   4.394
23832W        W94432  13.348  41.835  13.831
23833W        W94433  28.492  40.943   3.656
23834W        W94434   4.252  19.491   5.025
23835W        W94435  18.606  17.728  12.048
23836W        W94436  18.160   2.428  11.965
23837W        W94437   1.466   4.444   4.441
23838W        W94438  42.275  35.018   4.078
23839W        W94439   4.904  25.529   1.295
23840W        W94440   3.344  32.738   3.164
23841W        W94441   4.382  44.508  13.491
23842W        W94442  33.011   0.971  13.477
23843W        W94443   2.797  41.355   1.669
23844W        W94444  12.075  17.711   0.717
23845W        W94445  37.493  24.437  11.695
23846W        W94446  36.363  44.504  13.107
23847W        W94447  39.448  38.567  14.293
23848W        W94448  15.740  40.756   2.675
23849W        W94449  34.867  16.163   0.361
23850W        W94450  10.140  42.605   1.406
23851W        W94451   7.355   3.891  11.636
23852W        W94452  41.966  20.334   1.198
23853W        W94453  34.161  14.433  13.065
23854W        W94454   1.328  19.581  14.914
23855W        W94455  13.042  41.796   1.655
23856W        W94456   0.522  28.050   5.322
23857W        W94457  26.657  31.000  11.109
23858W        W94458  22.320  10.572  14.014
23859W        W94459  17.210  44.816  10.689
23860W        W94460  19.630   3.283   1.988
23861W        W94461   3.293  38.051   3.794
23862W        W94462  24.595   4.410  12.545
23863W        W94463  14.565   3.760   3.802
23864W        W94464   1.483  28.567  14.325
23865W        W94465   5.202   6.856  12.733
23866W        W94466  11.370  23.655   0.211
23867W        W94467  30.077  44.859  10.637
23868W        W94468   2.871  17.731  14.858
23869W        W94469  33.691   5.801  11.383
23870W        W94470  10.761   4.591   0.486
23871W        W94471  29.166  16.182   0.720
23872W        W94472  19.626  25.076   4.791
23873W        W94473  44.839  35.443   4.681
23874W        W94474  32.652   1.482  11.558
23875W        W94475  41.139  41.208   2.099
23876W        W94476  30.519  21.579  10.596
23877W        W94477  13.282  36.581  14.815
23878W        W94478  25.097   5.833   2.338
23879W        W94479  19.442   4.496  14.530
23880W        W94480   4.722  34.024  13.727
23881W        W94481  39.306  34.931  14.638
23882W        W94482  30.463  29.234  10.690
23883W        W94483  20.732  33.991   0.717
23884W        W94484   0.293  40.451  12.703
23885W        W94485  12.710  18.351   4.686
23886W        W94486  43.560  38.010   2.369
23887W        W94487  44.856  22.486  11.126
23888W        W94488  24.818  35.282   1.920
23889W        W94489  44.331  40.126  13.065
23890W        W94490  21.891  30.219   1.828
23891W        W94491   1.283  11.729  12.807
23892W        W94492  22.139   7.772  14.940
23893W        W94493   1.744  38.301  11.510
23894W        W94494  39.374  31.550  12.498
23895W        W94495  25.572  41.410   2.318
23896W        W94496  30.848  32.494   2.836
23897W        W94497  32.983   1.013   4.254
23898W        W94498  17.728  30.399  11.507
23899W        W94499   6.381  44.866  13.812
23900W        W94500  22.670  12.763   0.126
23901W        W94501  32.982  26.922  13.254
23902W        W94502  44.256   3.506   0.473
23903W        W94503  39.452  10.518  11.105
23904W        W94504   7.726   1.519  11.117
23905W        W94505   0.722  36.569  12.303
23906W        W94506   8.767  22.083   0.453
23907W        W94507  32.926  41.270  14.325
23908W        W94508   2.548   3.970   1.894
23909W        W94509  10.529  35.388  13.542
23910W        W94510  25.406  32.480  13.163
23911W        W94511   7.388   9.356   4.576
23912W        W94512  20.622  15.214  11.105
23913W        W94513  39.309  15.161  12.476
23914W        W94514   4.847  14.143   2.676
23915W        W94515  15.341   5.249  11.567
23916W        W94516  34.893  41.278  14.294
23917W        W94517  26.180  16.870   4.959
23918W        W94518   0.313  10.024  13.329
23919W        W94519   2.322  39.538   4.054
23920W        W94520  18.544  44.430  12.637
23921W        W94521   9.387  42.710  11.572
23922W        W94522  29.921  40.600  14.977
23923W        W94523  27.111   5.172   1.471
23924W        W94524  27.054   4.135  14.479
23925W        W94525  40.277  32.533  10.664
23926W        W94526  25.967   7.604   3.871
23927W        W94527   8.846  17.176   3.223
23928W        W94528  27.369  10.995   4.591
23929W        W94529  24.647  30.104  14.703
23930W        W94530  26.006   6.160   0.735
23931W        W94531   4.778   5.631  11.557
23932W        W94532  43.321   7.120   0.554
23933W        W94533  13.166  39.118   0.751
23934W        W94534  38.477  14.378   4.331
23935W        W94535  17.568  23.072  11.145
23936W        W94536   2.280  20.711  12.707
23937W        W94537  20.141  35.585  11.090
23938W        W94538  21.391  37.143   0.340
23939W        W94539  19.177   9.107  13.936
23940W        W94540  36.520   4.409  14.527
23941W        W94541  14.533  42.620   4.594
23942W        W94542  38.844   5.203  11.519
23943W        W94543   2.923  40.924  13.481
23944W        W94544  29.555  25.388  10.722
23945W        W94545  36.972   8.750  14.231
23946W        W94546  37.944  24.116  13.891
23947W        W94547  37.222  37.748  11.175
23948W        W94548  16.767  29.433  13.730
23949W        W94549  27.254  36.411  11.178
23950W        W94550  18.777   8.722  11.501
23951W        W94551  13.837  42.188   1.891
23952W        W94552  17.618  41.504   3.794
23953W        W94553   9.151  29.092  14.922
23954W        W94554   5.777  36.899   4.679
23955W        W94555   3.920  42.790  10.691
23956W        W94556  27.614  39.772   1.863
23957W        W94557  24.986  43.315   3.618
23958W        W94558   3.969   8.508   4.592
23959W        W94559  27.680   9.825  10.624
23960W        W94560  21.156  24.088  14.527
23961W        W94561  42.559  22.539  12.909
23962W        W94562  31.969   4.824  11.763
23963W        W94563   9.136  15.321   2.116
23964W        W94564  28.218   4.521  12.295
23965W        W94565   5.656  20.921  14.955
23966W        W94566  19.189   0.493  12.529
23967W        W94567  39.481   3.023   2.768
23968W        W94568  29.780  15.908   0.215
23969W        W94569  23.773  43.246  13.769
23970W        W94570  41.729  33.030  10.705
23971W        W94571  18.338  31.846  11.243
23972W        W94572  15.433  28.061   5.099
23973W        W94573  29.159  23.702   2.531
23974W        W94574  14.889  18.689   1.106
23975W        W94575  16.212   8.212  10.712
23976W        W94576  24.544  38.360   3.194
23977W        W94577  29.559  17.080   2.488
23978W        W94578  11.192  18.328   3.214
23979W        W94579  25.915  38.826  10.559
23980W        W94580  39.607  11.492  11.399
23981W        W94581  33.162  14.601  10.625
23982W        W94582  23.701   2.273  13.083
23983W        W94583  30.165  29.421   1.783
23984W        W94584  44.958  37.409  13.275
23985W        W94585  30.947  33.760  11.022
23986W        W94586   5.837   5.219  13.576
23987W        W94587   3.712   5.662   4.231
23988W        W94588  38.652  26.845  11.364
23989W        W94589  38.879   3.949   0.585
23990W        W94590  36.168   8.979   0.871
23991W        W94591  35.628  21.690  13.416
23992W        W94592  34.710  36.272  11.111
23993W        W94593   7.172  10.392  14.413
23994W        W94594  43.244   6.145   4.211
23995W        W94595  33.905   0.947   1.689
23996W        W94596   4.179  32.849   4.254
23997W        W94597  33.038  22.146   0.318
23998W        W94598  22.312  43.403   1.052
23999W        W94599  37.349  35.361  11.185
24000W        W94600  22.292  23.592   0.369
24001W        W94601  38.461  36.767  14.321
24002W        W94602  20.571  39.988  14.686
24003W        W94603  27.982   8.200  11.167
24004W        W94604   8.650  44.382  12.961
24005W        W94605  24.025  21.798   1.384
24006W        W94606  22.224  14.132  13.022
24007W        W94607  23.801  35.080  14.844
24008W        W94608   0.096  26.189   4.862
24009W        W94609  32.853  33.047   2.649
24010W        W94610  12.532  17.365   1.438
24011W        W94611  26.311  12.245   3.161
24012W        W94612  44.426  37.693  14.925
24013W        W94613  30.289  24.552   4.069
24014W        W94614  13.836   1.121  12.915
24015W        W94615   1.444   7.097   2.301
24016W        W94616  21.245  17.685  14.534
24017W        W94617  21.038  19.148  11.046
24018W        W94618  15.735  40.325   4.047
24019W        W94619   4.461  21.598  10.579
24020W        W94620  37.364  27.718   3.322
24021W        W94621  44.416  23.066   3.563
24022W        W94622  12.812  29.090   3.953
24023W        W94623  32.856  25.448  12.440
24024W        W94624  26.497  39.813  11.292
24025W        W94625  13.150  17.208   0.212
24026W        W94626  43.785   1.963  10.866
24027W        W94627  10.161  31.000   2.731
24028W        W94628  10.666  22.911   4.662
24029W        W94629  27.634  29.645  10.923
24030W        W94630   5.943  43.384   2.559
24031W        W94631  44.140  24.846  13.348
24032W        W94632   2.753  10.123  14.496
24033W        W94633  24.029  39.930   0.851
24034W        W94634  23.077   7.225   3.344
24035W        W94635  17.937  38.108   0.514
24036W        W94636  20.657  16.461   4.641
24037W        W94637  20.892  23.508  11.563
24038W        W94638   4.256  19.729   2.990
24039W        W94639  19.490   0.214   2.240
24040W        W94640  41.037  16.978   5.022
24041W        W94641  18.053  20.057   3.901
24042W        W94642  37.820  23.429  10.540
24043W        W94643  19.730   7.119   2.228
24044W        W94644  14.157  42.212  14.425
24045W        W94645  41.753  15.534   1.862
24046W        W94646  25.717  27.886  10.085
24047W        W94647  39.917  24.155  11.928
24048W        W94648  28.682  32.705  12.962
24049W        W94649   8.922  11.305  12.710
24050W        W94650  38.617  44.476  11.995
24051W        W94651  31.544  41.083   2.680
24052W        W94652  18.065  38.926   0.775
24053W        W94653  18.974  43.793   2.286
24054W        W94654  33.388  38.017  12.378
24055W        W94655  29.482  40.964  13.503
24056W        W94656  17.160   1.362   0.782
24057W        W94657  39.714  21.132  13.967
24058W        W94658  35.813  38.570   2.750
24059W        W94659  34.383  42.337   2.736
24060W        W94660   2.641  43.744  12.438
24061W        W94661  17.206  17.754  12.457
24062W        W94662  37.980  13.100  12.977
24063W        W94663  11.495  25.356   1.781
24064W        W94664  11.155   9.308   1.808
24065W        W94665  38.593  16.767  13.984
24066W        W94666  21.203   0.854   2.965
24067W        W94667  30.014  43.755   4.072
24068W        W94668  35.011  25.505  11.431
24069W        W94669   5.635   2.496   4.883
24070W        W94670  15.532   0.860  10.811
24071W        W94671  11.859  11.764   3.127
24072W        W94672  18.754  31.443   3.362
24073W        W94673  29.197   2.877  14.041
24074W        W94674  35.599  34.647   3.740
24075W        W94675  32.872  42.320  14.352
24076W        W94676  30.999  35.539   0.759
24077W        W94677   0.933   5.927   1.476
24078W        W94678  20.287   0.364   3.843
24079W        W94679   6.158  23.774  12.184
24080W        W94680   4.730  22.574   0.296
24081W        W94681  16.095   6.767   2.915
24082W        W94682  39.011   4.937   1.797
24083W        W94683  34.433   9.023  12.977
24084W        W94684  31.094  39.864   2.742
24085W        W94685  26.688  39.437  13.324
24086W        W94686   6.910  40.304   1.758
24087W        W94687  42.690  26.690  11.212
24088W        W94688  44.046   9.852   0.793
24089W        W94689  11.087  39.795  14.333
24090W        W94690   1.723  34.821  10.321
24091W        W94691   1.080   8.381  11.458
24092W        W94692  37.088  40.056  10.462
24093W        W94693  33.943  26.216  14.702
24094W        W94694  27.226  22.695  11.516
24095W        W94695  15.614  36.586   1.697
24096W        W94696  43.866  24.574  10.736
24097W        W94697  12.893   8.653   0.367
24098W        W94698   7.023  16.024  14.466
24099W        W94699   1.674  32.129   1.263
24100W        W94700  14.044  16.735  14.393
24101W        W94701   0.639  12.406   4.702
24102W        W94702  36.818  31.354   1.048
24103W        W94703   3.323  38.509   2.346
24104W        W94704   5.397  20.414   3.177
24105W        W94705  43.344   4.313   1.354
24106W        W94706  27.415  25.052  14.827
24107W        W94707   5.970   9.601  14.276
24108W        W94708  33.494  25.541  14.338
24109W        W94709  20.849  13.349   4.190
24110W        W94710  31.285  18.306  12.045
24111W        W94711   9.126  30.452  13.012
24112W        W94712  34.861   4.937  14.805
24113W        W94713  12.684  39.342   1.246
24114W        W94714  29.980  24.475   1.119
24115W        W94715   9.358  16.282   1.166
24116W        W94716  13.707  13.560   0.754
24117W        W94717  22.076  25.653  10.977
24118W        W94718  23.524  44.184   1.766
24119W        W94719   1.852  25.704  14.459
24120W        W94720  25.509  34.859   1.206
24121W        W94721  35.814  33.542  13.390
24122W        W94722  24.268  33.204  11.118
24123W        W94723   6.723  31.089  11.383
24124W        W94724  38.841  23.526   1.111
24125W        W94725  35.857  10.699  13.437
24126W        W94726  20.380  37.507  11.993
24127W        W94727   9.758   1.670   3.726
24128W        W94728  14.264  39.284  14.502
24129W        W94729  42.211  26.708  14.354
24130W        W94730  11.617  15.337   3.733
24131W        W94731  23.783  27.440  11.694
24132W        W94732   7.205  42.299   3.613
24133W        W94733  13.364   0.850   3.697
24134W        W94734  28.764   4.893  14.360
24135W        W94735  36.059  17.110   3.187
24136W        W94736   4.261  40.692  13.808
24137W        W94737  31.899  24.630   1.943
24138W        W94738  24.296  38.942  14.895
24139W        W94739   0.489  38.124   3.004
24140W        W94740  38.197   3.697  11.104
24141W        W94741  24.801  13.105  14.941
24142W        W94742  33.780  43.880  13.762
24143W        W94743  11.142  13.208  12.375
24144W        W94744  35.104  11.671  13.979
24145W        W94745  25.681  12.258   2.002
24146W        W94746   4.930   9.254  10.643
24147W        W94747  20.889   1.305   2.233
24148W        W94748  12.704  17.289  11.618
24149W        W94749  23.045   3.366  13.478
24150W        W94750  21.366  19.548  14.782
24151W        W94751  27.619  39.634   5.029
24152W        W94752  19.859  10.813  12.867
24153W        W94753  14.821  20.607   4.401
24154W        W94754  44.390   5.706  11.382
24155W        W94755  32.613  31.059   3.766
24156W        W94756  26.384  12.771  11.525
24157W        W94757   1.579  34.651  13.325
24158W        W94758  41.829   2.383   1.764
24159W        W94759  29.158  40.068   2.832
24160W        W94760  33.172  28.649   1.708
24161W        W94761  36.352  37.540   3.801
24162W        W94762  18.319  30.169   0.347
24163W        W94763   8.319  20.407   0.628
24164W        W94764  12.370  26.278  11.554
24165W        W94765   3.329  44.379   3.288
24166W        W94766   5.850  14.553  13.763
24167W        W94767  36.997  34.447   3.406
24168W        W94768  41.848  16.965  12.477
24169W        W94769  38.632  13.232   1.382
24170W        W94770   3.931   1.460  10.471
24171W        W94771   5.120  10.274   2.825
24172W        W94772  27.378  20.555   3.333
24173W        W94773  28.894   0.950  13.544
24174W        W94774   2.454  29.511  12.871
24175W        W94775   8.157  31.110   4.307
24176W        W94776  25.700  32.444  10.454
24177W        W94777   3.747  26.093   4.589
24178W        W94778   4.168  24.584   2.370
24179W        W94779   9.663  14.316   2.770
24180W        W94780   2.745  18.086   3.687
24181W        W94781  33.290  28.909   3.767
24182W        W94782  30.596  34.621   0.050
24183W        W94783  18.144  24.742  10.618
24184W        W94784  28.153  33.939   4.632
24185W        W94785  35.561  28.594   4.553
24186W        W94786   9.104   7.081  14.498
24187W        W94787  12.245  37.380   3.603
24188W        W94788  35.442  24.117   2.261
24189W        W94789  39.978  34.702  14.235
24190W        W94790   6.425  11.301  14.293
24191W        W94791  36.744  40.760   4.474
24192W        W94792  28.949   1.452   3.459
24193W        W94793  38.678  30.942   0.244
24194W        W94794  32.537   8.381  11.572
24195W        W94795  35.516  27.756   4.137
24196W        W94796  25.101  27.600   0.802
24197W        W94797  43.436  34.302  12.731
24198W        W94798  17.953  27.893  13.384
24199W        W94799  22.220   5.876  10.246
24200W        W94800  10.956   9.238   3.624
24201W        W94801   3.309  44.908   4.904
24202W        W94802  42.464  38.095   0.910
24203W        W94803   2.287  31.556   0.154
24204W        W94804  15.089  15.681  13.063
24205W        W94805  39.214   2.504  11.123
24206W        W94806  21.977   6.302   3.630
24207W        W94807  28.519  17.203  14.355
24208W        W94808  28.162  40.297   3.336
24209W        W94809  39.919   4.177  14.457
24210W        W94810  12.824  40.376  12.158
24211W        W94811  35.247  30.709   0.437
24212W        W94812  23.089   5.310   1.464
24213W        W94813  32.047  24.070  14.844
24214W        W94814  37.344  19.132  10.935
24215W        W94815  44.723   1.781  14.999
24216W        W94816   2.816   7.726  14.282
24217W        W94817  42.842  32.119   3.188
24218W        W94818   7.294  22.315   3.650
24219W        W94819   1.399  41.269   2.235
24220W        W94820  34.736  13.466  11.108
24221W        W94821   1.268  42.031  12.112
24222W        W94822  25.984   6.019  10.611
24223W        W94823  22.945  11.235  12.508
24224W        W94824  20.314  16.605  12.071
24225W        W94825  29.961  35.044   1.310
24226W        W94826  41.952  18.035  14.817
24227W        W94827  28.454  13.267   4.239
24228W        W94828   3.535  13.268   2.863
24229W        W94829  40.908   7.914   5.031
24230W        W94830  37.160  36.347  10.704
24231W        W94831  42.939  22.990  14.384
24232W        W94832  10.876  13.639  14.543
24233W        W94833  34.859  23.807  14.280
24234W        W94834  30.452  22.545   4.261
24235W        W94835  21.134   1.789   3.426
24236W        W94836  21.679   2.718  14.955
24237W        W94837  17.033   5.269  11.571
24238W        W94838  28.454  15.684  10.677
24239W        W94839  37.385  34.554  13.600
24240W        W94840  29.533   0.854   2.302
24241W        W94841  35.118  30.137  10.905
24242W        W94842  29.386  38.971   4.349
24243W        W94843  12.801  34.608  11.380
24244W        W94844  44.835  30.043   2.852
24245W        W94845  43.026  41.821  14.959
24246W        W94846   3.878  38.188  11.033
24247W        W94847   1.363  32.384  11.226
24248W        W94848   3.238  38.283   2.821
24249W        W94849  20.733  43.606  10.439
24250W        W94850  36.490  33.048   3.789
24251W        W94851  37.437  42.430   4.715
24252W        W94852   9.757  13.117   0.424
24253W        W94853  31.028  24.458   2.977
24254W        W94854  34.412  40.783  14.829
24255W        W94855  44.794  12.848   0.756
24256W        W94856  26.149  41.880   3.169
24257W        W94857  42.357  20.696   2.747
24258W        W94858  22.688   0.388  14.310
24259W        W94859  30.394  13.700  13.557
24260W        W94860  29.934  21.899  13.436
24261W        W94861  33.300  34.923   3.494
24262W        W94862  37.465  40.992  14.839
24263W        W94863  27.168   2.605   3.294
24264W        W94864  26.918   2.668   0.973
24265W        W94865  44.245   9.404   3.749
24266W        W94866  39.479   1.047  13.726
24267W        W94867  30.873   8.206   0.445
24268W        W94868  26.653  39.298   4.638
24269W        W94869  20.133  27.535   4.970
24270W        W94870  39.975   6.448   0.852
24271W        W94871   8.922  39.293  12.204
24272W        W94872  35.791  26.664   1.277
24273W        W94873  35.673   8.770   4.156
24274W        W94874  10.558  35.199  11.415
24275W        W94875  42.937  25.166   3.223
24276W        W94876  27.371  27.994   1.165
24277W        W94877  14.034   0.804  11.362
24278W        W94878  12.741  12.768   0.521
24279W        W94879  37.073  43.996  13.394
24280W        W94880  38.418   8.960  12.509
24281W        W94881  25.561  15.034  12.497
24282W        W94882  37.001   3.474   3.644
24283W        W94883  44.728  27.968   0.260
24284W        W94884  23.486  31.932  12.866
24285W        W94885   9.680  34.543   3.809
24286W        W94886  37.630  39.234  13.318
24287W        W94887  27.721  27.520   1.999
24288W        W94888  42.127   8.110  12.961
24289W        W94889  35.963  22.045   1.450
24290W        W94890  10.406  14.220   0.516
24291W        W94891   1.544  18.562   2.489
24292W        W94892  21.018  24.894   4.065
24293W        W94893  41.908  21.169  12.578
24294W        W94894  21.897   0.031  13.809
24295W        W94895  14.079  18.084  11.208
24296W        W94896   3.717  20.528   4.392
24297W        W94897   3.965  12.885  13.642
24298W        W94898  29.565  23.911   3.678
24299W        W94899  33.472  29.528  11.199
24300W        W94900   7.950  27.205   1.871
24301W        W94901   2.087  37.503  12.079
24302W        W94902   0.420   3.528   2.441
24303W        W94903  34.442  31.315  14.934
24304W        W94904  15.185   9.113   2.388
24305W        W94905  33.866  29.636   1.973
24306W        W94906   2.070  31.550   4.155
24307W        W94907   3.277   7.816   4.077
24308W        W94908   8.812   5.907  10.823
24309W        W94909  21.143   2.491   1.821
24310W        W94910   6.887  13.376  14.441
24311W        W94911   6.259  37.159   1.150
24312W        W94912   7.926  24.201  13.949
24313W        W94913  42.211   8.164   9.635
24314W        W94914  28.731  36.896   2.437
24315W        W94915  31.662  32.403  11.114
24316W        W94916  36.728  39.866   3.148
24317W        W94917  18.609   7.354   0.638
24318W        W94918  41.559  27.480  11.054
24319W        W94919   8.126  24.903  11.226
24320W        W94920  20.785  34.510  11.695
24321W        W94921  28.413  19.629  13.343
24322W        W94922  31.409  30.710   2.835
24323W        W94923   8.593  39.072   3.478
24324W        W94924  41.423  33.894  14.874
24325W        W94925  12.720  34.122  12.077
24326W        W94926  25.264  39.988  14.906
24327W        W94927  19.744   3.864  11.862
24328W        W94928  10.727  33.395   3.314
24329W        W94929  43.049  25.726  14.207
24330W        W94930  32.313  42.887   3.165
24331W        W94931  35.529  20.548  11.512
24332W        W94932   6.726  41.953  14.106
24333W        W94933  16.305  25.797   3.281
24334W        W94934   7.599  30.903  14.996
24335W        W94935  23.988  10.775   3.899
24336W        W94936   1.543  39.453  10.828
24337W        W94937  15.680  23.358   1.729
24338W        W94938  21.728  30.585  11.160
24339W        W94939  27.670  39.637   0.954
24340W        W94940   7.794   3.419  12.818
24341W        W94941  40.273  42.030   2.774
24342W        W94942  10.702   8.889   0.723
24343W        W94943  27.581  43.918  14.588
24344W        W94944  22.630  31.476   1.415
24345W        W94945   6.873  25.278  11.571
24346W        W94946  29.994   9.995   4.721
24347W        W94947  10.648  18.660   0.813
24348W        W94948   4.282  11.157   1.747
24349W        W94949  10.257  34.850   5.015
24350W        W94950  28.596  38.823  11.000
24351W        W94951  33.371  25.352   1.304
24352W        W94952  30.508  26.717   2.778
24353W        W94953  11.841   5.349   0.970
24354W        W94954  33.331  27.963   3.741
24355W        W94955  24.129   2.744   3.628
24356W        W94956  18.236   9.715  10.616
24357W        W94957  11.190   5.222  11.502
24358W        W94958   7.799   1.063   2.463
24359W        W94959  27.584   3.023  14.928
24360W        W94960  30.668  29.158   2.434
24361W        W94961   3.985  16.732  13.444
24362W        W94962   9.210  36.309  11.681
24363W        W94963  28.118  21.373  14.433
24364W        W94964  30.006  29.264   1.302
24365W        W94965   0.946  17.482   4.729
24366W        W94966  16.814  31.190  12.545
24367W        W94967   0.355  28.718   0.356
24368W        W94968  10.391   6.301  11.507
24369W        W94969   9.264  15.555   2.828
24370W        W94970  23.118  20.433  12.949
24371W        W94971  31.074  14.147   0.437
24372W        W94972  10.663   3.754  12.959
24373W        W94973  34.280  10.315   3.680
24374W        W94974  15.730  18.836   0.046
24375W        W94975  43.366  27.053   2.122
24376W        W94976  40.596  29.553   4.754
24377W        W94977  37.907  12.605   0.228
24378W        W94978  31.526  16.433  12.587
24379W        W94979  28.547  18.447  14.378
24380W        W94980   3.692   9.473   4.677
24381W        W94981  16.141  19.960   4.515
24382W        W94982   3.185   8.421   0.965
24383W        W94983  31.502  11.887  10.738
24384W        W94984   8.262  22.151   3.599
24385W        W94985  38.102  19.764  13.766
24386W        W94986   7.168  25.876  11.999
24387W        W94987  14.587  31.096   1.907
24388W        W94988   3.450  26.046  13.576
24389W        W94989   1.484  36.481   0.332
24390W        W94990   7.459   9.775  11.999
24391W        W94991  16.435   9.291  12.910
24392W        W94992  33.797  27.728  11.598
24393W        W94993   6.330  11.346  12.875
24394W        W94994   5.642  25.051   2.254
24395W        W94995  10.865   3.173   2.867
24396W        W94996   5.718  44.265   0.802
24397W        W94997  22.186  18.685  14.155
24398W        W94998  34.807  34.540   0.548
24399W        W94999  11.249   5.614  14.880
24400W        W95000  12.422  34.816  12.593
24401W        W95001  39.081  10.153  12.957
24402W        W95002   9.719  18.183  12.911
24403W        W95003  23.039  17.774   2.971
24404W        W95004  40.532   7.754  12.975
24405W        W95005  37.852   6.893   3.180
24406W        W95006  44.287  29.120   1.828
24407W        W95007  18.593  11.268  14.431
24408W        W95008  22.162  42.382  11.643
24409W        W95009   0.573  16.783   3.979
24410W        W95010  24.145   2.344   0.218
24411W        W95011   9.819  44.958  13.944
24412W        W95012  29.908  24.094  10.658
24413W        W95013  28.247  24.885  13.529
24414W        W95014  29.132  36.501  14.035
24415W        W95015   8.807   5.324   3.183
24416W        W95016  38.903  29.262   2.898
24417W        W95017  27.540  16.093  13.586
24418W        W95018  22.734  20.713   9.997
24419W        W95019  22.072  39.236   2.340
24420W        W95020  33.616   4.787   5.081
24421W        W95021  22.028  10.169   5.027
24422W        W95022   0.923   9.780   4.390
24423W        W95023  23.196  34.707  13.861
24424W        W95024   5.438  36.590  13.311
24425W        W95025  39.465   7.604   1.737
24426W        W95026  19.651  44.928  11.928
24427W        W95027  38.324   2.840  13.886
24428W        W95028  15.940   9.216  11.848
24429W        W95029  31.655  29.385   3.977
24430W        W95030   8.648  10.764   0.317
24431W        W95031  29.620  23.702   1.205
24432W        W95032   0.196   6.808  11.123
24433W        W95033   4.238  24.086  11.830
24434W        W95034   5.633  20.535  11.988
24435W        W95035  18.977   9.231  14.780
24436W        W95036  14.796  30.259   4.716
24437W        W95037  42.401  31.599   2.324
24438W        W95038  40.101  40.731  11.956
24439W        W95039   6.831   4.728  13.540
24440W        W95040  11.745   5.481  13.004
24441W        W95041  38.916  16.032   0.823
24442W        W95042   0.190  13.424  11.206
24443W        W95043   7.703  17.647   1.485
24444W        W95044  12.884  14.173   3.878
24445W        W95045  29.941  11.128   1.387
24446W        W95046  37.105  34.555  11.218
24447W        W95047  24.482  15.035   1.406
24448W        W95048  38.860  25.617   2.342
24449W        W95049  43.545  17.311   3.242
24450W        W95050  23.551  41.985  13.496
24451W        W95051  15.260  39.404   1.791
24452W        W95052   7.336  29.446  13.021
24453W        W95053  16.379   7.979   2.183
24454W        W95054  10.728  12.139   4.623
24455W        W95055  12.717  40.366  10.862
24456W        W95056  38.824  17.002   2.671
24457W        W95057  11.174  17.363   3.564
24458W        W95058  26.938  39.959   1.341
24459W        W95059   7.880   3.834   2.362
24460W        W95060   6.752  42.282   3.277
24461W        W95061  44.343  13.407   4.856
24462W        W95062  33.129  16.194  12.612
24463W        W95063  40.303  10.303  13.984
24464W        W95064  33.972  41.823   4.420
24465W        W95065  15.707   5.129  14.932
24466W        W95066   0.823   9.542  11.107
24467W        W95067  44.800  11.132  14.357
24468W        W95068  44.225  34.381   4.311
24469W        W95069   1.576  10.819   3.100
24470W        W95070   0.331  41.050   1.457
24471W        W95071   6.261   1.410   0.993
24472W        W95072  13.554  27.500  12.148
24473W        W95073   0.870  11.892  10.727
24474W        W95074   0.804  22.462   0.692
24475W        W95075  29.566  18.783  14.973
24476W        W95076  23.998  23.162   2.331
24477W        W95077  16.071  21.542   3.794
24478W        W95078  25.008  13.316   1.792
24479W        W95079   1.796  25.000  12.095
24480W        W95080  20.079  42.324   3.857
24481W        W95081  32.430  38.313  12.977
24482W        W95082   7.203  19.026   0.433
24483W        W95083   8.604   5.091   4.058
24484W        W95084   2.625  34.579  13.405
24485W        W95085  22.986  36.311   0.454
24486W        W95086  20.151  38.539   5.059
24487W        W95087  41.821  27.931  11.996
24488W        W95088  23.997   7.444  13.401
24489W        W95089  34.867  22.689   0.211
24490W        W95090  17.703  23.566   2.723
24491W        W95091  18.229  36.227   2.342
24492W        W95092   7.615   9.391  10.679
24493W        W95093   9.187   2.426   2.593
24494W        W95094  12.154  29.635   1.746
24495W        W95095  27.668   4.728  12.997
24496W        W95096  18.792  19.109  13.117
24497W        W95097  25.192  24.244  13.846
24498W        W95098  42.536  11.669   3.088
24499W        W95099  12.437  17.011  11.948
24500W        W95100  37.041   0.779  14.352
24501W        W95101  35.636  15.700  13.946
24502W        W95102  39.786  32.538   4.325
24503W        W95103  27.253  41.310  13.505
24504W        W95104  10.201   9.342  12.906
24505W        W95105  16.818  23.562  12.527
24506W        W95106   9.651  23.208   1.318
24507W        W95107  18.707  11.552  12.471
24508W        W95108  25.237  31.528   2.729
24509W        W95109   5.193  11.861   3.439
24510W        W95110   2.761   9.685  10.770
24511W        W95111  39.381  32.890  13.069
24512W        W95112  36.827   3.369  11.687
24513W        W95113  20.638  30.704   1.144
24514W        W95114  20.182  21.053   3.389
24515W        W95115  33.620  14.011  10.299
24516W        W95116  15.756  16.615  13.999
24517W        W95117  41.044   9.177  14.118
24518W        W95118  42.923  41.720   4.184
24519W        W95119  37.795   2.406  14.334
24520W        W95120  34.431  30.733  13.842
24521W        W95121  36.224  19.614  12.584
24522W        W95122  27.940  25.791   4.660
24523W        W95123   4.237  18.319   4.656
24524W        W95124  20.868  38.902  10.433
24525W        W95125  16.201  12.726   3.513
24526W        W95126  26.910  43.412   1.938
24527W        W95127  11.712  35.809   0.379
24528W        W95128  34.407  30.941   1.449
24529W        W95129   1.781   3.715   3.776
24530W        W95130  24.645  44.419  13.426
24531W        W95131  34.954  19.641   3.771
24532W        W95132  23.047  19.115  10.914
24533W        W95133  14.807  32.508  13.991
24534W        W95134  35.276  24.105   3.101
24535W        W95135  32.966  12.362  11.374
24536W        W95136  31.770  36.937   0.167
24537W        W95137  16.585  12.449   4.237
24538W        W95138  27.025  20.750  11.904
24539W        W95139  11.595  25.902   2.917
24540W        W95140   5.182  43.451   0.864
24541W        W95141  43.940  43.370   3.606
24542W        W95142  24.822  42.758   2.213
24543W        W95143   5.426   9.411  11.561
24544W        W95144  12.718   0.769   4.765
24545W        W95145  15.259  21.290   0.179
24546W        W95146  36.389  13.594  11.936
24547W        W95147  36.474  39.130   1.839
24548W        W95148   0.562  18.168   2.654
24549W        W95149  12.284  31.528   4.871
24550W        W95150  39.976  19.972  11.434
24551W        W95151  42.307  12.834  14.826
24552W        W95152  17.531   6.765   1.840
24553W        W95153  11.651  18.064   1.483
24554W        W95154  29.655   3.189  10.646
24555W        W95155   8.724  31.838  14.470
24556W        W95156  16.628  22.211  14.241
24557W        W95157   6.043   1.431   2.421
24558W        W95158  38.329  33.154   4.070
24559W        W95159  17.007  12.235   3.368
24560W        W95160   1.927  31.474  14.522
24561W        W95161  27.565  20.287   1.041
24562W        W95162  39.009  32.429  10.232
24563W        W95163   8.843  34.815   3.280
24564W        W95164  30.933  32.644  14.332
24565W        W95165  19.558   4.624   2.266
24566W        W95166  34.451  27.038   1.929
24567W        W95167  32.005   6.251  11.678
24568W        W95168  33.097  40.403   1.696
24569W        W95169  10.720   7.218   1.894
24570W        W95170  22.042  33.951   4.419
24571W        W95171  11.871  42.318  14.920
24572W        W95172  14.628   9.376  13.991
24573W        W95173   0.247   1.367   0.336
24574W        W95174  36.079  26.435   0.936
24575W        W95175  32.378  43.889   2.729
24576W        W95176  39.457  14.134  13.747
24577W        W95177   6.677  15.685   4.402
24578W        W95178  42.010  32.579   3.768
24579W        W95179   9.887  38.450  10.541
24580W        W95180   6.903   9.854   1.044
24581W        W95181  44.319  35.357   3.314
24582W        W95182  26.914  12.630  10.736
24583W        W95183  11.751  25.493  10.618
24584W        W95184  23.977  30.290   4.897
24585W        W95185  26.196  20.303   0.573
24586W        W95186  27.556  44.286   0.389
24587W        W95187   4.815  23.951  10.240
24588W        W95188  29.138  26.982  13.461
24589W        W95189  35.403  18.551  10.495
24590W        W95190  20.493  30.478  14.018
24591W        W95191  10.714   1.720  13.993
24592W        W95192   0.491  19.726  11.518
24593W        W95193   9.302   7.785   0.853
24594W        W95194  28.647  38.060   0.708
24595W        W95195   8.248  11.756   4.273
24596W        W95196  23.540   9.196  11.992
24597W        W95197  13.256  16.441   3.183
24598W        W95198  34.314  31.056  10.703
24599W        W95199  24.689  24.171   1.302
24600W        W95200  43.983  15.695  12.846
24601W        W95201   3.674  20.141   3.502
24602W        W95202  27.789   8.226   0.808
24603W        W95203  11.640  19.068  13.148
24604W        W95204  17.312  30.768  12.227
24605W        W95205  14.159  26.271   1.852
24606W        W95206  44.297  29.086  11.660
24607W        W95207  26.097  44.802   1.397
24608W        W95208  18.282  27.897   1.732
24609W        W95209  12.623  23.142  13.468
24610W        W95210  34.179  41.383  11.002
24611W        W95211   8.720  19.046  10.775
24612W        W95212  38.761   1.799  14.957
24613W        W95213  12.407   7.393  10.596
24614W        W95214   4.251  44.856  14.883
24615W        W95215   3.855  12.772   4.055
24616W        W95216   1.790   6.766  11.613
24617W        W95217  20.185  35.187   3.073
24618W        W95218  27.454  43.971   4.632
24619W        W95219  22.663  28.504  12.572
24620W        W95220  20.112  38.339  14.927
24621W        W95221  12.719   9.225  13.598
24622W        W95222   5.831  43.802   1.056
24623W        W95223   8.419   4.575  11.964
24624W        W95224  31.606   3.734  14.021
24625W        W95225  15.343   2.412  10.748
24626W        W95226  11.796   6.884  14.017
24627W        W95227  19.475  15.758  11.447
24628W        W95228  37.389  27.648  10.626
24629W        W95229  17.611  18.786   2.181
24630W        W95230  40.802  33.579  14.776
24631W        W95231  18.677   4.878  12.011
24632W        W95232  19.815  43.979  11.852
24633W        W95233   9.610  39.316  11.441
24634W        W95234  10.590  27.120   2.793
24635W        W95235  42.274  36.109   4.890
24636W        W95236  38.058   6.900   4.818
24637W        W95237  36.880   3.145  12.517
24638W        W95238  26.708  41.568   0.245
24639W        W95239  22.990  20.278   3.801
24640W        W95240   5.473  32.607   2.968
24641W        W95241  10.403  15.863   5.153
24642W        W95242   5.458  21.994   0.821
24643W        W95243  19.220  43.496   4.673
24644W        W95244  44.768  20.732   4.653
24645W        W95245  11.235   8.622  13.854
24646W        W95246  30.685  20.800   4.661
24647W        W95247  21.769  21.484   2.291
24648W        W95248  32.557  14.869   2.617
24649W        W95249  33.893  12.765  12.870
24650W        W95250  17.079   2.913  11.524
24651W        W95251  22.757  14.746   5.240
24652W        W95252  32.002  41.846   1.289
24653W        W95253   1.260  25.186  13.825
24654W        W95254  12.108  27.297  11.586
24655W        W95255  31.656  24.107   1.671
24656W        W95256   2.019  41.259  13.688
24657W        W95257  43.355  18.035   3.852
24658W        W95258   0.458  19.222   2.953
24659W        W95259  34.157   4.341   2.213
24660W        W95260  30.147  15.793   4.533
24661W        W95261  26.018  10.372   4.645
24662W        W95262  37.059  24.041  12.783
24663W        W95263  20.320   7.433   5.183
24664W        W95264  30.282   4.224  12.954
24665W        W95265  23.140  44.918  11.666
24666W        W95266  12.881  21.595   4.448
24667W        W95267  24.984  19.034   3.353
24668W        W95268  35.408  27.722   0.984
24669W        W95269  11.806   9.377   1.298
24670W        W95270  15.844  13.740  11.896
24671W        W95271  35.275  23.375   0.446
24672W        W95272  11.394  41.428  11.974
24673W        W95273   9.235   9.854   0.827
24674W        W95274   4.671  33.853   1.560
24675W        W95275  28.921   4.876   0.745
24676W        W95276  32.924  29.581   1.844
24677W        W95277   1.111  28.787  13.055
24678W        W95278  28.253   6.666  11.093
24679W        W95279  10.951   5.947   3.019
24680W        W95280  30.962  31.940   5.040
24681W        W95281  21.104  10.784   3.744
24682W        W95282  40.925  28.180  13.075
24683W        W95283  41.585   6.822  11.102
24684W        W95284  18.246   3.174  12.519
24685W        W95285   1.918  19.208  11.195
24686W        W95286   6.111  44.528  11.815
24687W        W95287  19.213  15.177   2.231
24688W        W95288  14.700  30.875   1.435
24689W        W95289  42.565   3.312   0.931
24690W        W95290  19.643   1.770   1.609
24691W        W95291  41.646   1.579  13.291
24692W        W95292  17.365  42.033   5.014
24693W        W95293   5.714  31.514  12.979
24694W        W95294  35.620  30.798   2.156
24695W        W95295   4.187  41.081  12.319
24696W        W95296  13.658  39.597  13.370
24697W        W95297  35.381  35.244  11.554
24698W        W95298  34.626  15.250   2.213
24699W        W95299   9.459  42.035  14.402
24700W        W95300  41.460  35.320  12.072
24701W        W95301  10.011  17.860   4.147
24702W        W95302  40.112  24.190   3.137
24703W        W95303   8.838  39.723  11.019
24704W        W95304  16.681  19.431   3.646
24705W        W95305  41.063  10.943   1.802
24706W        W95306  15.205  11.011  13.903
24707W        W95307  38.654  12.590  11.877
24708W        W95308  20.710  15.825   2.833
24709W        W95309  17.931  18.081  12.639
24710W        W95310  17.490  26.895  14.959
24711W        W95311  22.651  12.846  14.005
24712W        W95312  18.133  35.684  13.401
24713W        W95313  17.301  38.031   3.586
24714W        W95314  22.016  33.853  13.364
24715W        W95315  26.667  27.467   0.476
24716W        W95316  18.203  18.131   0.894
24717W        W95317   0.314  27.077   1.288
24718W        W95318  33.092  19.828   2.585
24719W        W95319  39.260  41.829   3.813
24720W        W95320  44.573  28.347   0.878
24721W        W95321  14.071  19.436   5.036
24722W        W95322  40.494  18.046  11.295
24723W        W95323  24.099  23.617  13.561
24724W        W95324   2.968  30.910  14.473
24725W        W95325  17.554  33.098  12.557
24726W        W95326  39.783  15.266  12.908
24727W        W95327   7.245  32.617   3.352
24728W        W95328  35.687   9.659   4.555
24729W        W95329  29.189  15.098  14.847
24730W        W95330  24.108   7.752   3.142
24731W        W95331   2.829   4.047   3.215
24732W        W95332  18.664  39.403   1.472
24733W        W95333  17.316   0.315   0.380
24734W        W95334  29.921  17.223  11.429
24735W        W95335  39.833  29.784   4.439
24736W        W95336  24.738  35.985  13.913
24737W        W95337  37.028  30.845   2.242
24738W        W95338   6.881  43.889  14.068
24739W        W95339   9.607  42.686  12.435
24740W        W95340  36.658   4.048   1.770
24741W        W95341  36.364  17.158  14.906
24742W        W95342  12.132  40.987   1.619
24743W        W95343  30.938   8.616  13.028
24744W        W95344  13.756   6.230   4.646
24745W        W95345  39.110  38.369   1.973
24746W        W95346   4.196   7.375  12.814
24747W        W95347  20.685  44.296  14.050
24748W        W95348  18.193  35.717  10.331
24749W        W95349   0.827  29.871   0.541
24750W        W95350   0.491  20.586  11.960
24751W        W95351  21.840   6.885  13.968
24752W        W95352  11.191   7.745  12.365
24753W        W95353   3.446   6.317   1.139
24754W        W95354  36.867  35.542   2.341
24755W        W95355   5.457  12.550   2.168
24756W        W95356  22.653  40.550   0.467
24757W        W95357  13.730   7.153  11.116
24758W        W95358  16.196   3.662  12.431
24759W        W95359  41.896   0.577  11.620
24760W        W95360  14.775  33.517  13.931
24761W        W95361   2.841   3.890  10.776
24762W        W95362  34.821  36.894   3.613
24763W        W95363  43.737  13.277   3.367
24764W        W95364  24.460  14.662  11.134
24765W        W95365  38.301  27.745   0.341
24766W        W95366  16.697   0.473   1.417
24767W        W95367  14.358  20.557  11.478
24768W        W95368  33.445  13.597   0.427
24769W        W95369  17.493  31.016  13.419
24770W        W95370   4.645  29.163   3.418
24771W        W95371   7.223  18.932   0.932
24772W        W95372  34.106  40.348  14.781
24773W        W95373   0.450  12.604   3.304
24774W        W95374  38.376  40.450   1.999
24775W        W95375   5.940   5.636   0.405
24776W        W95376   0.562   9.720   3.409
24777W        W95377  15.849  14.650   0.708
24778W        W95378  32.971  12.854  11.982
24779W        W95379  25.253  20.075  13.050
24780W        W95380  14.701   4.872   1.443
24781W        W95381   1.709  14.630   1.225
24782W        W95382   6.917  16.539   1.584
24783W        W95383   8.918  44.712   2.261
24784W        W95384   4.840  16.483   0.684
24785W        W95385  16.315   1.932   1.217
24786W        W95386   8.582   1.795   3.638
24787W        W95387  23.226  11.405   4.818
24788W        W95388  12.597  30.862   0.859
24789W        W95389  43.771  42.123   0.354
24790W        W95390  25.182  11.787   4.184
24791W        W95391   6.763  20.712   1.829
24792W        W95392  26.138  25.177   1.392
24793W        W95393  19.245  22.654   3.227
24794W        W95394  29.985   0.327  10.402
24795W        W95395   6.406  13.490   3.845
24796W        W95396  15.450  33.304   5.382
24797W        W95397   4.896   9.327   3.367
24798W        W95398   1.898   5.817  11.479
24799W        W95399   3.929   0.954  10.672
24800W        W95400  22.033  41.265   1.846
24801W        W95401   9.244  40.753  14.797
24802W        W95402  28.529   9.146  12.632
24803W        W95403  28.979  28.514   4.251
24804W        W95404   7.465   6.362   5.169
24805W        W95405   1.739  21.573   0.421
24806W        W95406  42.566   9.589   3.203
24807W        W95407  36.599  21.486   2.277
24808W        W95408  14.103   4.328  13.344
24809W        W95409  12.153   1.980   0.733
24810W        W95410  12.732  22.738   2.076
24811W        W95411  22.611   4.815  12.526
24812W        W95412   1.959  29.154  14.900
24813W        W95413  34.972  24.272  14.027
24814W        W95414   4.788  33.601   2.797
24815W        W95415  43.026   9.119   0.848
24816W        W95416  39.416   4.416   3.347
24817W        W95417  28.575  21.253   4.527
24818W        W95418  41.305  21.502  11.530
24819W        W95419  39.598  19.949   2.644
24820W        W95420  23.650  26.532  12.118
24821W        W95421  17.142  28.860   0.524
24822W        W95422  39.438  33.795  11.968
24823W        W95423  11.201  27.734  13.100
24824W        W95424  22.835  41.959  11.507
24825W        W95425  44.666  31.696  10.232
24826W        W95426  32.047  28.262  14.841
24827W        W95427  31.880  12.786   0.422
24828W        W95428  13.078  13.571   2.799
24829W        W95429  25.545  10.397  14.864
24830W        W95430  36.724   2.025   2.713
24831W        W95431  16.363  40.733   5.085
24832W        W95432  42.122  16.396   9.125
24833W        W95433  26.813  36.827  12.830
24834W        W95434  25.997   4.667   0.871
24835W        W95435   3.442  43.776  12.908
24836W        W95436  17.337   8.315  10.889
24837W        W95437  43.418   6.828   2.902
24838W        W95438   3.906   9.732   2.309
24839W        W95439  24.997   2.318  11.643
24840W        W95440  19.319  39.955   4.603
24841W        W95441  34.935  18.972  12.971
24842W        W95442  11.880  30.609   0.465
24843W        W95443  11.805  34.034   4.605
24844W        W95444  20.633  26.046   4.315
24845W        W95445  40.520  22.931  11.237
24846W        W95446   7.727  25.581   0.263
24847W        W95447   7.357  25.018  10.714
24848W        W95448  26.767  32.925   2.798
24849W        W95449  21.939  12.277  11.158
24850W        W95450  42.464  24.053  11.616
24851W        W95451  34.680   6.781   3.248
24852W        W95452  42.962  10.429   0.329
24853W        W95453  29.094   6.454  13.418
24854W        W95454  43.035  23.288  13.112
24855W        W95455   7.010  35.201   5.162
24856W        W95456   1.003  25.486  14.194
24857W        W95457  29.922  38.546  11.070
24858W        W95458  21.529  12.622  14.490
24859W        W95459  23.374  31.945  14.469
24860W        W95460  42.830   9.177   1.879
24861W        W95461  25.708  41.502   3.916
24862W        W95462   3.877  11.682   0.242
24863W        W95463   3.265  20.158  12.454
24864W        W95464  40.263  15.288   2.283
24865W        W95465  26.597   2.981  14.375
24866W        W95466  35.017  40.716   1.814
24867W        W95467  20.291  12.179   3.862
24868W        W95468  44.325  27.420   2.483
24869W        W95469  10.018   1.716  11.931
24870W        W95470  29.842  24.051   2.399
24871W        W95471  16.049   7.983  11.165
24872W        W95472  17.403  41.567  10.800
24873W        W95473   1.008   1.399  12.932
24874W        W95474  44.507  25.817  13.286
24875W        W95475  22.787   6.926  10.185
24876W        W95476  10.492  31.541  13.406
24877W        W95477  16.379   7.434  13.769
24878W        W95478  43.497  35.442  14.799
24879W        W95479   5.701  31.813   1.951
24880W        W95480   2.306   6.818  13.390
24881W        W95481  33.879  23.587   0.038
24882W        W95482   1.959  42.321   4.151
24883W        W95483   0.022  31.499   1.824
24884W        W95484  26.188   0.367  10.946
24885W        W95485   4.275   2.223   2.211
24886W        W95486  28.378  37.606  13.429
24887W        W95487  24.930  44.974  12.222
24888W        W95488   7.543  20.588  12.886
24889W        W95489  27.917  34.316  10.751
24890W        W95490  35.873  28.429   0.703
24891W        W95491  30.494  25.708   2.815
24892W        W95492  36.549  18.683   0.832
24893W        W95493  40.031  31.831   2.624
24894W        W95494   7.634  39.278  11.632
24895W        W95495  11.115  35.471  14.692
24896W        W95496  25.163  25.128   3.334
24897W        W95497   1.785  22.480  12.897
24898W        W95498  33.465  30.882   0.936
24899W        W95499  39.082  26.678   3.139
24900W        W95500  18.144  44.179   0.405
24901W        W95501  16.655   4.707  14.735
24902W        W95502   6.619   2.272  11.539
24903W        W95503  19.222  40.411  14.423
24904W        W95504   5.659  35.575   2.168
24905W        W95505  40.642  23.547   0.770
24906W        W95506  22.670  22.649   1.231
24907W        W95507  14.801  25.114  12.897
24908W        W95508  26.460  11.176  11.886
24909W        W95509  40.067  29.108  12.994
24910W        W95510  32.976  18.191   1.962
24911W        W95511  42.337  12.125  14.446
24912W        W95512  36.050  40.813   2.872
24913W        W95513  43.913   6.929  13.632
24914W        W95514  36.874  22.299  12.111
24915W        W95515  38.276  10.610   2.189
24916W        W95516  23.213  39.254   3.334
24917W        W95517  44.165  24.088   4.661
24918W        W95518   0.909  37.116  10.599
24919W        W95519   2.994  37.921  14.879
24920W        W95520   8.748  40.903  14.354
24921W        W95521   2.772  33.616   1.284
24922W        W95522   4.181  31.576   1.753
24923W        W95523  37.392  10.753  13.420
24924W        W95524   3.440  13.007  10.736
24925W        W95525   7.880  39.262   4.081
24926W        W95526  14.902   8.430   2.685
24927W        W95527  40.435  29.383   1.332
24928W        W95528  26.198  27.352  11.593
24929W        W95529  24.550   1.333   2.355
24930W        W95530  35.596   5.619   3.736
24931W        W95531  22.972  42.062  14.292
24932W        W95532  11.155  41.603  12.382
24933W        W95533  21.276  32.816  13.007
24934W        W95534  36.886   8.205   3.537
24935W        W95535   2.728  36.527  10.775
24936W        W95536   9.088   2.731   1.782
24937W        W95537  24.206  31.580  10.475
24938W        W95538  22.852  29.703   4.578
24939W        W95539  43.602   8.796   2.627
24940W        W95540  19.868  33.010   4.155
24941W        W95541  11.563  16.981  14.291
24942W        W95542  26.385  44.651  14.025
24943W        W95543  19.963   8.351  11.475
24944W        W95544  23.193  28.459  11.304
24945W        W95545  11.560  21.600   0.822
24946W        W95546  10.310   9.865  13.004
24947W        W95547   6.377  39.533   3.055
24948W        W95548  15.602  41.827  13.019
24949W        W95549  24.731  29.675   2.875
24950W        W95550   1.506  16.444  13.798
24951W        W95551  23.545  18.269  12.350
24952W        W95552  44.279  18.725   0.293
24953W        W95553  20.279   0.456   2.825
24954W        W95554   8.625  15.198   3.538
24955W        W95555  39.759  10.468  14.912
24956W        W95556  23.175   3.359   4.517
24957W        W95557  39.309  42.938   2.321
24958W        W95558  38.960  31.002   2.341
24959W        W95559  25.969  44.956  14.010
24960W        W95560   8.246  29.141   3.266
24961W        W95561  43.628  27.390  11.180
24962W        W95562  42.099  35.526  14.291
24963W        W95563   1.135  30.849  14.507
24964W        W95564  23.139  18.619   0.061
24965W        W95565  33.897   1.531  12.155
24966W        W95566  28.500  12.647  11.656
24967W        W95567  16.138  40.043  12.865
24968W        W95568  23.324  35.170   3.128
24969W        W95569   4.875  35.597   1.814
24970W        W95570  27.957  43.228  13.514
24971W        W95571  32.427  16.808   2.852
24972W        W95572  33.354  36.753   1.046
24973W        W95573  27.059  44.815   3.978
24974W        W95574  42.509   3.149  12.491
24975W        W95575   6.946   3.470   0.883
24976W        W95576  13.689  16.582   3.758
24977W        W95577  38.866   7.712   0.077
24978W        W95578  29.495   7.964  13.129
24979W        W95579  22.554   2.693  13.873
24980W        W95580   1.467  40.450   1.799
24981W        W95581   5.175  35.980  13.807
24982W        W95582  37.368  44.526   5.077
24983W        W95583   5.136   9.634  13.953
24984W        W95584   9.117  16.863  11.161
24985W        W95585  20.830  33.087   0.175
24986W        W95586   5.995  18.681  11.231
24987W        W95587  38.037   1.402  10.628
24988W        W95588  21.151  42.478  12.205
24989W        W95589  10.308  34.960  14.301
24990W        W95590  28.603  44.342   2.975
24991W        W95591  33.465  29.707  14.594
24992W        W95592  31.647  16.721  13.966
24993W        W95593  16.847   0.922   4.344
24994W        W95594  36.324   9.173   3.233
24995W        W95595  30.115  19.235   2.346
24996W        W95596  43.040  12.785  12.502
24997W        W95597  26.015  41.828  14.012
24998W        W95598   3.359  22.473  11.981
24999W        W95599  35.583   3.643   1.011
25000W        W95600  25.561  30.057   3.311
25001W        W95601  24.645  33.630  13.657
25002W        W95602  24.684  11.013  13.498
25003W        W95603  28.194   1.283   1.370
25004W        W95604  20.527  12.401   4.266
25005W        W95605  19.555   3.504   0.834
25006W        W95606  26.924  36.909   3.762
25007W        W95607  14.221  32.001  11.441
25008W        W95608  35.711  30.893  10.634
25009W        W95609  34.443  23.459  14.397
25010W        W95610  40.320  10.079  13.466
25011W        W95611   9.864  14.866   0.153
25012W        W95612  24.483  17.654  13.332
25013W        W95613  43.860   1.508  10.656
25014W        W95614  20.954  40.521   2.612
25015W        W95615   7.782  10.580   4.544
25016W        W95616  24.452  31.195  14.516
25017W        W95617  44.944  25.706   3.760
25018W        W95618  24.478  26.571   3.767
25019W        W95619  23.613  20.722   4.519
25020W        W95620  18.501  25.193  13.463
25021W        W95621  16.841  33.416   4.672
25022W        W95622  23.326  18.485   3.041
25023W        W95623  37.424  22.069   3.110
25024W        W95624   7.321  15.654   3.828
25025W        W95625  29.223  14.312   0.827
25026W        W95626  18.020  32.887  14.944
25027W        W95627  39.818   6.880   4.117
25028W        W95628  23.172  30.722  14.376
25029W        W95629  16.346  15.720  11.653
25030W        W95630  17.547   4.453   4.612
25031W        W95631  31.844   0.823  12.546
25032W        W95632  21.799  34.957   0.939
25033W        W95633  15.041  37.012   0.282
25034W        W95634  14.805  20.706  14.861
25035W        W95635  34.572  15.410   3.735
25036W        W95636  34.664  40.205   2.684
25037W        W95637   1.790  33.629  13.097
25038W        W95638  37.042  23.236  11.659
25039W        W95639  17.658   7.383  12.810
25040W        W95640  15.711   9.043   1.819
25041W        W95641  37.669  42.385   3.246
25042W        W95642  41.072  28.215   3.434
25043W        W95643  18.230  30.548   1.808
25044W        W95644  25.652  44.375   2.840
25045W        W95645  32.286  30.511  14.951
25046W        W95646  18.094  30.043   1.689
25047W        W95647  26.063  20.823  11.725
25048W        W95648  25.675  38.614  14.886
25049W        W95649  14.115  28.335  13.522
25050W        W95650  35.938  22.553   3.594
25051W        W95651  10.063  13.812   3.329
25052W        W95652   8.565  44.287  10.883
25053W        W95653   0.447  44.741  10.717
25054W        W95654  35.819   3.296   0.721
25055W        W95655   9.007  36.604  12.085
25056W        W95656  34.803  29.140   3.146
25057W        W95657   3.484  16.754   1.359
25058W        W95658  19.598  28.691   5.480
25059W        W95659  24.004  14.968   0.737
25060W        W95660  31.480  37.465  11.545
25061W        W95661  12.750  44.430  14.287
25062W        W95662  30.555   9.969  14.021
25063W        W95663  44.982   1.424   2.802
25064W        W95664  31.240  34.088   2.203
25065W        W95665  24.106  21.871   3.150
25066W        W95666  22.638   1.837   3.860
25067W        W95667  39.586  25.105  11.676
25068W        W95668   8.643   6.531   1.191
25069W        W95669  26.754  26.390  12.094
25070W        W95670   8.268   3.207   1.735
25071W        W95671  27.497  43.444   2.752
25072W        W95672   0.206  28.672   4.095
25073W        W95673   4.322  25.491   0.221
25074W        W95674  30.016   0.020   0.572
25075W        W95675  34.941  35.017   2.257
25076W        W95676  18.817   2.088  12.924
25077W        W95677  18.574  37.842  14.006
25078W        W95678   6.841  14.066   1.491
25079W        W95679  30.379  22.973   1.687
25080W        W95680   4.212  10.403   3.699
25081W        W95681  43.395   4.298  10.533
25082W        W95682  32.623   2.873   1.628
25083W        W95683   3.172  17.075   3.805
25084W        W95684  23.201   9.428   2.190
25085W        W95685  39.353  23.713  11.168
25086W        W95686  13.843   7.316   3.139
25087W        W95687  38.944  29.524  14.548
25088W        W95688  23.862  24.238   4.908
25089W        W95689  33.542   8.453  10.451
25090W        W95690  13.585  11.151   3.836
25091W        W95691   5.252  38.929  14.374
25092W        W95692  41.813  44.588  11.627
25093W        W95693  26.091  17.321   2.789
25094W        W95694  13.501  32.546   3.626
25095W        W95695  15.173  25.741  14.376
25096W        W95696   8.156  42.992  13.903
25097W        W95697  29.155  30.516   1.436
25098W        W95698  16.844  19.783  11.025
25099W        W95699  44.981  40.113  14.411
25100W        W95700   9.201  18.095   2.433
25101W        W95701   1.984   0.318   0.885
25102W        W95702   2.967  32.418   3.370
25103W        W95703  27.561   0.467   1.331
25104W        W95704  23.190  26.728  14.364
25105W        W95705  33.664  32.953  11.324
25106W        W95706  38.558  28.449  10.364
25107W        W95707  33.562   9.634   0.965
25108W        W95708  23.536  32.584   3.779
25109W        W95709  12.849  30.171   4.205
25110W        W95710  12.219  15.929   2.743
25111W        W95711  36.915  13.156   2.785
25112W        W95712  21.991  36.296   1.333
25113W        W95713  38.204  23.385  12.034
25114W        W95714  32.860  26.300  13.258
25115W        W95715  41.445  12.115   2.888
25116W        W95716  41.251  12.399   0.711
25117W        W95717   4.689   0.421   2.465
25118W        W95718  17.963   5.248   0.527
25119W        W95719  30.342  31.015   4.139
25120W        W95720  32.220  37.413  13.545
25121W        W95721  13.913  29.497  11.574
25122W        W95722   0.970  31.710  10.711
25123W        W95723  42.770   6.375   4.231
25124W        W95724  17.190  28.683  11.375
25125W        W95725   7.132  30.968   4.124
25126W        W95726  39.564   9.363   0.399
25127W        W95727  18.994  40.957  14.741
25128W        W95728  29.657  42.954  11.050
25129W        W95729  35.973  15.684   1.245
25130W        W95730  23.203   1.591   5.510
25131W        W95731  28.437  21.315  13.894
25132W        W95732   5.435   5.824   4.362
25133W        W95733  28.973  41.300   2.161
25134W        W95734  29.026  44.888   1.682
25135W        W95735  31.849  41.929  13.959
25136W        W95736   1.979  21.917   3.148
25137W        W95737  35.995  41.353   4.198
25138W        W95738  10.678  34.908   0.966
25139W        W95739  18.530  25.209  14.906
25140W        W95740  25.939  24.927  11.450
25141W        W95741  27.067  35.335   0.161
25142W        W95742  20.283  30.280  12.987
25143W        W95743   4.311  21.267  12.461
25144W        W95744  39.382  25.418  12.939
25145W        W95745   0.818   4.928   4.059
25146W        W95746   4.082  37.650   1.211
25147W        W95747  44.850  10.125   2.356
25148W        W95748   9.478  12.146  11.810
25149W        W95749  37.230  43.444   3.647
25150W        W95750  31.834   2.670  11.132
25151W        W95751   7.240   7.753  13.616
25152W        W95752   3.805  35.565  13.376
25153W        W95753  14.267  31.181   0.284
25154W        W95754  13.645  29.894   3.257
25155W        W95755  33.475  19.504  13.021
25156W        W95756   1.672  40.782   4.219
25157W        W95757  38.927   8.903   3.968
25158W        W95758  33.921  30.938   0.176
25159W        W95759  23.598  30.934   0.206
25160W        W95760  40.005  17.619  12.441
25161W        W95761  35.416  43.952   2.753
25162W        W95762  18.221  15.324   4.248
25163W        W95763   5.522  13.649  10.954
25164W        W95764   2.036  32.911  10.043
25165W        W95765  27.591   7.826  10.489
25166W        W95766  43.613  35.947  13.823
25167W        W95767  27.085   2.168   4.231
25168W        W95768  35.508   8.750  10.704
25169W        W95769  18.355  28.211  13.340
25170W        W95770  39.376  11.117  13.842
25171W        W95771  26.413  29.480   2.333
25172W        W95772  12.938  41.970  11.461
25173W        W95773  42.350  16.181   2.788
25174W        W95774  30.926  24.516   0.942
25175W        W95775  11.225  26.483   1.274
25176W        W95776   8.418   7.797  14.253
25177W        W95777   9.002  34.285   0.253
25178W        W95778  30.593   1.925  13.543
25179W        W95779  23.174  37.126   3.733
25180W        W95780  16.054  36.468  13.310
25181W        W95781  10.183   5.344   2.832
25182W        W95782  25.177   1.968  13.969
25183W        W95783  15.272  15.861  12.604
25184W        W95784  16.227  26.093  11.595
25185W        W95785  17.713  38.980  11.928
25186W        W95786  18.757  24.226  12.145
25187W        W95787  33.098  28.461   4.638
25188W        W95788  37.622  15.011  14.542
25189W        W95789  29.122  11.740   4.617
25190W        W95790   7.064  29.649   2.840
25191W        W95791   2.197  16.360   3.325
25192W        W95792  36.807  20.929   1.221
25193W        W95793  16.779  16.495   2.748
25194W        W95794  18.334  38.062  11.109
25195W        W95795  40.730  10.459   0.195
25196W        W95796  30.586  27.208  14.340
25197W        W95797  37.465  16.634   1.686
25198W        W95798  37.836   4.437   2.813
25199W        W95799  30.661  20.488  12.793
25200W        W95800  39.856  38.019  12.064
25201W        W95801   8.717  14.273   0.823
25202W        W95802  39.847  25.065  14.437
25203W        W95803  42.341   9.184  14.419
25204W        W95804  29.132  26.054   1.376
25205W        W95805   7.853  26.955  13.318
25206W        W95806  36.755  42.858   2.259
25207W        W95807  42.506  15.135   4.106
25208W        W95808  43.929  40.413   3.091
25209W        W95809  33.407  26.012   3.955
25210W        W95810  10.265  41.626   4.527
25211W        W95811  25.554  35.506  10.716
25212W        W95812  20.806  20.667   4.790
25213W        W95813   3.983   7.367   4.178
25214W        W95814  28.568  20.141  10.965
25215W        W95815  14.632  17.574  11.599
25216W        W95816  26.952  29.495   1.946
25217W        W95817   7.677  30.561   1.345
25218W        W95818  29.595  10.651   3.183
25219W        W95819  43.860  40.940  14.670
25220W        W95820  27.964  12.825   1.189
25221W        W95821  13.166  30.530   5.102
25222W        W95822  33.525  30.909  12.362
25223W        W95823  16.538  19.091   0.792
25224W        W95824   5.691  39.898   4.597
25225W        W95825   3.956   8.278   3.690
25226W        W95826   4.670  30.850  14.848
25227W        W95827  19.541  42.339   3.648
25228W        W95828   7.790  11.788  11.159
25229W        W95829  13.660  17.548   2.684
25230W        W95830  20.531  35.571   0.192
25231W        W95831  38.346   3.987  11.996
25232W        W95832  42.281  36.053   3.262
25233W        W95833  17.160  38.809  11.249
25234W        W95834  33.297  40.928  13.484
25235W        W95835  11.725  42.596  14.460
25236W        W95836  21.539  29.634  13.981
25237W        W95837  38.270  40.975   1.893
25238W        W95838   1.373   7.887  14.568
25239W        W95839   0.008  42.875  14.747
25240W        W95840  43.807  27.710  13.226
25241W        W95841  29.745  11.787   1.831
25242W        W95842  39.840  24.619  11.692
25243W        W95843  40.759   1.310   1.250
25244W        W95844  22.915  27.258   2.680
25245W        W95845  34.788  43.009   0.051
25246W        W95846  25.347  12.599   3.250
25247W        W95847   6.127  17.393   0.012
25248W        W95848  24.813  15.094   2.705
25249W        W95849  28.179  34.477  12.570
25250W        W95850  32.277  38.540  11.655
25251W        W95851  42.904  22.885   3.894
25252W        W95852   9.542  10.467   4.621
25253W        W95853   1.262   3.215  12.161
25254W        W95854  34.131   4.201   0.363
25255W        W95855  35.779  24.726  14.278
25256W        W95856  42.831  29.878  14.074
25257W        W95857  11.355  15.876  14.969
25258W        W95858  34.099  44.914   1.208
25259W        W95859  32.474  44.651   3.559
25260W        W95860  15.904  32.502   3.789
25261W        W95861  15.791   7.964   0.726
25262W        W95862  18.798  22.518   1.856
25263W        W95863  24.261  22.307   2.266
25264W        W95864  33.556  44.437   4.379
25265W        W95865  40.811  35.710  11.507
25266W        W95866  27.752  42.771  13.586
25267W        W95867  17.273  15.150   2.532
25268W        W95868   3.791  41.944   4.000
25269W        W95869  18.300  24.200   1.390
25270W        W95870  16.354  29.228  11.610
25271W        W95871  23.660  20.503  11.207
25272W        W95872  28.751  33.340  13.447
25273W        W95873  37.819   1.452   0.069
25274W        W95874  35.078   7.677   0.471
25275W        W95875  17.290  11.632   1.359
25276W        W95876   7.852  37.119  10.890
25277W        W95877   0.687  10.041  11.973
25278W        W95878  10.757  39.118  11.035
25279W        W95879  27.747  24.072  12.432
25280W        W95880  28.241   0.777   5.026
25281W        W95881  40.532  36.081  13.173
25282W        W95882  18.583  10.888  14.786
25283W        W95883   8.421   2.541   3.772
25284W        W95884   0.961   8.236   1.555
25285W        W95885   9.179   4.680  14.176
25286W        W95886  37.068   7.821   0.902
25287W        W95887  26.651  38.121  11.870
25288W        W95888   6.351  44.835  13.300
25289W        W95889   3.499  38.941  11.657
25290W        W95890   3.825  18.793   1.323
25291W        W95891  40.024  41.764  11.966
25292W        W95892  40.066  15.223  14.314
25293W        W95893  16.166  26.667  14.355
25294W        W95894  38.009  23.131  13.625
25295W        W95895   6.505  15.785   0.306
25296W        W95896  13.141   5.132   0.774
25297W        W95897  37.478  44.347  13.405
25298W        W95898  19.934  25.906   3.252
25299W        W95899  16.196   4.865   1.217
25300W        W95900  11.294  32.384   2.734
25301W        W95901  28.671  42.756   2.656
25302W        W95902  20.710  11.813   0.698
25303W        W95903   4.003  13.192   0.606
25304W        W95904  37.626  35.360  12.161
25305W        W95905  43.283  16.507   1.456
25306W        W95906  28.512   5.651  11.042
25307W        W95907  17.530  10.189   2.242
25308W        W95908  40.737  43.295   3.939
25309W        W95909  20.592  28.671   3.797
25310W        W95910  11.989  35.859   1.300
25311W        W95911  24.799  11.391   4.173
25312W        W95912   4.695  33.375   1.938
25313W        W95913  15.043  43.094  10.062
25314W        W95914  39.015  14.812   2.386
25315W        W95915  42.262  32.076  12.945
25316W        W95916  42.283  35.038   2.117
25317W        W95917  19.805  38.796   0.033
25318W        W95918   2.008   7.374  12.551
25319W        W95919  38.345   8.216   0.297
25320W        W95920   9.289  28.133   4.063
25321W        W95921  37.952  20.830  11.478
25322W        W95922  26.505  21.700  12.022
25323W        W95923  36.247  33.302   4.192
25324W        W95924  17.520  32.841  14.030
25325W        W95925  29.147  28.654  10.996
25326W        W95926  41.955  22.202   1.857
25327W        W95927   7.439  16.266  12.928
25328W        W95928  19.522  35.517  12.087
25329W        W95929  34.560  39.330   3.780
25330W        W95930   8.041   4.669  13.814
25331W        W95931  16.523  26.849  11.399
25332W        W95932  39.899  21.426  11.204
25333W        W95933  31.502   7.812  12.928
25334W        W95934  15.906  35.657  14.725
25335W        W95935   1.882  34.538   4.304
25336W        W95936  42.076  36.482   2.708
25337W        W95937  32.798  15.302  11.153
25338W        W95938   8.379   0.714   0.667
25339W        W95939  30.096  13.431   3.355
25340W        W95940  39.901  42.414   4.187
25341W        W95941  37.869  39.460   1.213
25342W        W95942  25.627  22.526  13.041
25343W        W95943   2.690  20.070   3.622
25344W        W95944  24.106   8.350  12.271
25345W        W95945  23.596  33.921   0.431
25346W        W95946  23.688  17.185  10.956
25347W        W95947  44.805  34.532  10.806
25348W        W95948  40.428  29.226   2.664
25349W        W95949  24.665  32.341  11.971
25350W        W95950  39.850  12.791   2.936
25351W        W95951  38.587  15.749   4.472
25352W        W95952  20.232  13.380   2.316
25353W        W95953  21.535  25.693  13.439
25354W        W95954  28.176  43.499  13.903
25355W        W95955  32.101  12.641  14.970
25356W        W95956   5.166   9.360  11.097
25357W        W95957   2.456  14.536   2.848
25358W        W95958  42.572  25.003  10.594
25359W        W95959  37.331  12.131  12.405
25360W        W95960  30.378  18.158  14.656
25361W        W95961  39.296  15.932  13.990
25362W        W95962  42.770  43.582   3.627
25363W        W95963   1.763  37.010   4.991
25364W        W95964   1.970  15.334   4.517
25365W        W95965  13.052  41.628  11.018
25366W        W95966   2.487  30.229   2.267
25367W        W95967  22.676  43.809  11.140
25368W        W95968   6.490  35.337  14.038
25369W        W95969  28.646  11.344  14.029
25370W        W95970  20.866  40.818   3.303
25371W        W95971   5.427  25.546  12.971
25372W        W95972   6.605  16.090   1.249
25373W        W95973  21.678  18.782   3.723
25374W        W95974  15.758   0.317   3.813
25375W        W95975  24.571  10.874  11.623
25376W        W95976   9.113  19.370   3.752
25377W        W95977   5.319  38.476   4.201
25378W        W95978   5.476  34.502  11.234
25379W        W95979  34.861  37.228  14.066
25380W        W95980  21.573  29.897   4.647
25381W        W95981  18.651  16.300   3.578
25382W        W95982  32.630   0.085   3.825
25383W        W95983   7.673   4.449   0.839
25384W        W95984   6.353   4.816  13.773
25385W        W95985  42.761  25.974   4.333
25386W        W95986  43.500  30.683  11.136
25387W        W95987  30.887  26.077   4.286
25388W        W95988  43.672  23.129   4.343
25389W        W95989   1.482  31.417   1.878
25390W        W95990  14.795  27.497  12.527
25391W        W95991  19.944   1.268   0.919
25392W        W95992  29.868  15.122   0.941
25393W        W95993  14.297   1.746   3.313
25394W        W95994  15.233  18.106  14.375
25395W        W95995  27.633   9.860   0.421
25396W        W95996   3.305  27.312   2.381
25397W        W95997  44.476  12.623   2.449
25398W        W95998   8.329  39.512   4.184
25399W        W95999  43.478  28.662   3.115
25400W        W96000   9.190  12.297   3.811
25401W        W96001  14.313   6.297  12.580
25402W        W96002  11.581  15.148  12.528
25403W        W96003  22.823  29.556   0.324
25404W        W96004  42.408  42.749  11.396
25405W        W96005   9.740  15.262  14.828
25406W        W96006  13.413  11.495  14.359
25407W        W96007  32.150  19.516   3.708
25408W        W96008  43.496  44.743  11.064
25409W        W96009  44.559  35.528   0.918
25410W        W96010  17.144  41.441  12.401
25411W        W96011  44.912   0.539   4.577
25412W        W96012  18.237   7.133  14.062
25413W        W96013   9.466  12.782  10.073
25414W        W96014  33.664  11.545   3.793
25415W        W96015  41.878  29.527  10.661
25416W        W96016  29.659  30.695   2.833
25417W        W96017   3.013   2.921  11.590
25418W        W96018  44.893  32.030   1.988
25419W        W96019  22.451  23.588  14.865
25420W        W96020  15.720  26.113   2.725
25421W        W96021   0.789   0.915   2.439
25422W        W96022  27.941  40.552   2.029
25423W        W96023   8.320  41.735  11.663
25424W        W96024  35.293  41.450   2.983
25425W        W96025  33.092  36.826   3.370
25426W        W96026  15.659  20.998  10.417
25427W        W96027  35.111   0.442   3.635
25428W        W96028  26.227  38.955   5.015
25429W        W96029  19.228   2.771   4.329
25430W        W96030  12.936  29.010   0.883
25431W        W96031  32.512  12.169   2.505
25432W        W96032   3.731   9.648   3.685
25433W        W96033   1.959   3.803  14.234
25434W        W96034  30.368  40.519  12.204
25435W        W96035  36.960  16.280   3.916
25436W        W96036  28.479  16.848  12.356
25437W        W96037  17.677  33.134   1.351
25438W        W96038  11.382  21.498  11.643
25439W        W96039  39.254  31.927   0.495
25440W        W96040  37.191  20.232   0.455
25441W        W96041  17.346  10.415   3.169
25442W        W96042  24.066  32.391  13.725
25443W        W96043   4.428  30.890   4.319
25444W        W96044  42.881  13.333   2.735
25445W        W96045  32.911  40.461  11.337
25446W        W96046  24.642  21.438  14.417
25447W        W96047  34.072   1.248  14.946
25448W        W96048   7.302   1.245  12.002
25449W        W96049  40.619  38.598  12.117
25450W        W96050  28.870  39.097   0.277
25451W        W96051  34.429  32.163  12.881
25452W        W96052  34.061  41.107   1.672
25453W        W96053  44.165   3.130  14.316
25454W        W96054  28.829   3.947  11.189
25455W        W96055  38.508  39.612   1.693
25456W        W96056  15.073  24.979   0.112
25457W        W96057  37.810   0.958  11.480
25458W        W96058   6.735  39.047  11.621
25459W        W96059   0.009  10.604  12.071
25460W        W96060   0.386  28.257   4.879
25461W        W96061   3.321  11.543   2.025
25462W        W96062  42.960  41.724  12.468
25463W        W96063  23.558  20.873  11.613
25464W        W96064  44.950  20.561  12.067
25465W        W96065  25.436  10.451   2.191
25466W        W96066   0.718  35.937  11.503
25467W        W96067  42.083   2.873  12.330
25468W        W96068  34.574  11.632   2.249
25469W        W96069  37.495   4.118   4.637
25470W        W96070  28.229  10.379   3.235
25471W        W96071  26.971  17.305   1.204
25472W        W96072  30.599  43.511  14.777
25473W        W96073  28.160   4.549  12.802
25474W        W96074  43.343  30.523  12.010
25475W        W96075  14.985  21.541  10.971
25476W        W96076  41.629  41.812  12.540
25477W        W96077  22.495  13.198   0.436
25478W        W96078  12.965  30.915   1.249
25479W        W96079  10.198  33.531   0.857
25480W        W96080  13.176   7.336  14.856
25481W        W96081  16.197  42.097   2.688
25482W        W96082  42.829  11.737  13.528
25483W        W96083   9.714  38.402   4.691
25484W        W96084   3.442  24.172  14.316
25485W        W96085   0.789  38.512  14.239
25486W        W96086  42.543  17.844  11.953
25487W        W96087  17.180  11.760   3.213
25488W        W96088  36.442  43.030  11.620
25489W        W96089  32.064  14.681   1.021
25490W        W96090  38.512   1.632  14.483
25491W        W96091  31.428  10.665  13.854
25492W        W96092  31.888   8.815  12.852
25493W        W96093  28.429   3.727  13.512
25494W        W96094  19.713  18.801  11.183
25495W        W96095  21.725   6.354   9.875
25496W        W96096  41.465   8.433  13.957
25497W        W96097   3.830  13.576  14.410
25498W        W96098  14.226  18.263  13.812
25499W        W96099   6.891  33.485   3.540
25500W        W96100  39.451  34.621  13.636
25501W        W96101  33.895  37.935   1.128
25502W        W96102  42.682  33.920  11.186
25503W        W96103  26.978  37.402   0.458
25504W        W96104  43.086   3.914  11.663
25505W        W96105   3.342  11.642  13.338
25506W        W96106  28.524   1.434   4.026
25507W        W96107   0.688  12.663  10.354
25508W        W96108  25.277  16.317   1.334
25509W        W96109  25.474  23.758  10.230
25510W        W96110  17.020  23.081  12.540
25511W        W96111  32.966  12.142   1.739
25512W        W96112  10.263   7.956   3.689
25513W        W96113   2.376  25.401   4.792
25514W        W96114   4.652  28.927   1.849
25515W        W96115  33.019  20.108   4.352
25516W        W96116  16.106  41.339  14.355
25517W        W96117  35.673  39.024   3.028
25518W        W96118  22.960  14.273  10.550
25519W        W96119  14.275  28.132   1.922
25520W        W96120   1.889  36.746  14.496
25521W        W96121  41.786  22.706   4.286
25522W        W96122  44.430  32.818   4.733
25523W        W96123  43.451  43.996  13.998
25524W        W96124  30.446   2.359   3.622
25525W        W96125  28.678  44.987  12.406
25526W        W96126  32.432  35.414   4.732
25527W        W96127  30.030  10.158  11.938
25528W        W96128  10.416  23.528  11.311
25529W        W96129   4.842  30.657  14.370
25530W        W96130  24.723  35.495  14.265
25531W        W96131  41.882   2.500   4.293
25532W        W96132   5.286   6.352   2.575
25533W        W96133  36.164  25.796   5.109
25534W        W96134  26.012  34.903   4.544
25535W        W96135  33.530  37.577   0.002
25536W        W96136   1.873  15.134   1.245
25537W        W96137  40.536  43.996  13.111
25538W        W96138  23.186  44.904   2.304
25539W        W96139   6.970  19.637   1.272
25540W        W96140   6.224  44.362  10.991
25541W        W96141   7.905  32.799  14.108
25542W        W96142  26.531  39.582  12.055
25543W        W96143  42.884  15.656  11.962
25544W        W96144  31.564  43.541  11.574
25545W        W96145  20.626  23.565   2.250
25546W        W96146  14.327  17.381   3.172
25547W        W96147   2.498  34.226  14.352
25548W        W96148  40.287  19.381  13.093
25549W        W96149  24.600  30.097  13.908
25550W        W96150  26.443  11.690   3.019
25551W        W96151  26.278  13.263  12.063
25552W        W96152  37.224  31.399   0.754
25553W        W96153  35.151  24.635   3.180
25554W        W96154  18.320   2.951   4.136
25555W        W96155  16.123  17.787  13.022
25556W        W96156  31.711  22.998  10.685
25557W        W96157  21.833  22.587   3.422
25558W        W96158  16.757  44.209  12.820
25559W        W96159  25.444   7.364  14.084
25560W        W96160  11.985  15.454  14.554
25561W        W96161  32.829  10.173   4.173
25562W        W96162  31.192  32.924  13.088
25563W        W96163   5.335  30.493   2.085
25564W        W96164  42.749  44.785   3.501
25565W        W96165  17.133  23.522   1.004
25566W        W96166  10.077  19.351  10.627
25567W        W96167  23.980  19.612  13.219
25568W        W96168  34.160   1.757   0.297
25569W        W96169  17.006  38.761  13.557
25570W        W96170   8.247   2.178   1.691
25571W        W96171  14.177  17.321   0.507
25572W        W96172  12.243  33.962   4.326
25573W        W96173   5.892  33.653   3.698
25574W        W96174  12.002  31.652   0.923
25575W        W96175  25.111   3.805   3.665
25576W        W96176  44.449  28.124  13.868
25577W        W96177  41.075  35.393  12.443
25578W        W96178  19.870  34.267  14.914
25579W        W96179  37.869  29.809   4.968
25580W        W96180   2.868  17.731   1.439
25581W        W96181   2.284   7.449  10.726
25582W        W96182   5.140  25.741   4.323
25583W        W96183  21.069  24.701  14.728
25584W        W96184   2.240  20.049   3.364
25585W        W96185  38.532  10.418  11.177
25586W        W96186   4.540   4.381  14.867
25587W        W96187  40.017  43.802  13.078
25588W        W96188   4.483   6.662   3.258
25589W        W96189  33.075  21.479   3.148
25590W        W96190  30.665  13.359   4.892
25591W        W96191  17.715   9.347   3.795
25592W        W96192  25.636  21.001   0.415
25593W        W96193  27.414   7.637   3.471
25594W        W96194  29.007  41.564   4.127
25595W        W96195  16.057  19.064   0.886
25596W        W96196  19.793  32.966  11.463
25597W        W96197  30.581  44.185   3.325
25598W        W96198   6.096  41.312   4.159
25599W        W96199  36.523  31.260  13.840
25600W        W96200  41.370  28.485  10.939
25601W        W96201  39.254   1.342  12.077
25602W        W96202  34.287  32.668  11.539
25603W        W96203  18.145  19.056  12.961
25604W        W96204  30.938  42.094   5.052
25605W        W96205  20.971  15.107  12.356
25606W        W96206  32.426  21.030  13.328
25607W        W96207  23.761  17.623   2.696
25608W        W96208   1.862  34.909   0.822
25609W        W96209  24.977  32.353  12.874
25610W        W96210  20.948  22.703   0.179
25611W        W96211   9.404  31.951  12.929
25612W        W96212  34.093  39.141   3.911
25613W        W96213  41.474  35.417   3.386
25614W        W96214  35.159  37.890   1.315
25615W        W96215  16.802   8.194   2.754
25616W        W96216  31.943   4.344   0.658
25617W        W96217   4.438  18.877   0.042
25618W        W96218  12.277   0.216  14.949
25619W        W96219  17.571  41.285  13.950
25620W        W96220  38.344  26.061  10.667
25621W        W96221  22.465  16.242  14.407
25622W        W96222  21.168  38.124   1.832
25623W        W96223  15.848  32.657  14.959
25624W        W96224  13.578  42.791  14.051
25625W        W96225  35.854  39.070  14.756
25626W        W96226   8.210  18.156   3.669
25627W        W96227  11.152   1.191  14.886
25628W        W96228  44.195  40.798   2.848
25629W        W96229  10.259  31.889   2.294
25630W        W96230  21.651   0.001   0.287
25631W        W96231  36.786  10.246   1.399
25632W        W96232  17.344  42.976  13.289
25633W        W96233  22.007   4.394   2.320
25634W        W96234   2.051   5.315  12.048
25635W        W96235  30.020  26.503  13.370
25636W        W96236  12.180  13.859  14.279
25637W        W96237  41.480   3.713  10.373
25638W        W96238  40.383  27.367   2.728
25639W        W96239  20.583  26.008   1.739
25640W        W96240   7.126  16.229   3.739
25641W        W96241  12.699  38.915   0.954
25642W        W96242  15.870  14.653  14.878
25643W        W96243  16.775   7.732  10.709
25644W        W96244   1.119   4.059   4.156
25645W        W96245  26.162  10.741  14.420
25646W        W96246   9.187  22.212  12.455
25647W        W96247  16.668  22.018   4.246
25648W        W96248   6.359  19.547  10.444
25649W        W96249  31.610   3.873  13.046
25650W        W96250   7.815  32.149  14.843
25651W        W96251  21.085  19.788   1.154
25652W        W96252  24.074  25.996  12.907
25653W        W96253   0.973  37.142   3.504
25654W        W96254  34.594  14.457   4.223
25655W        W96255   3.984  11.383   2.913
25656W        W96256   8.175  23.721   2.801
25657W        W96257  11.592  35.405  12.631
25658W        W96258  38.715  22.986   4.216
25659W        W96259  40.891  26.739   2.537
25660W        W96260  17.876  37.274  14.290
25661W        W96261  42.515  40.073   0.800
25662W        W96262  44.775  28.758   4.363
25663W        W96263  17.640  31.133  14.710
25664W        W96264  20.360  13.332  11.633
25665W        W96265  15.779  26.497   1.279
25666W        W96266  28.606  22.210  14.711
25667W        W96267  31.358  42.431   2.694
25668W        W96268  31.585  31.811   2.282
25669W        W96269   3.304  23.004  12.028
25670W        W96270  28.577   5.778  14.287
25671W        W96271  28.248  26.144   3.849
25672W        W96272  15.704  32.172   1.738
25673W        W96273  41.954   2.057   4.581
25674W        W96274   3.883   6.259   1.468
25675W        W96275  41.316   1.445   0.694
25676W        W96276  17.860  18.979  11.129
25677W        W96277  23.055  42.092  14.827
25678W        W96278  34.998  14.120  14.875
25679W        W96279  39.280  20.706   2.907
25680W        W96280   9.149  14.041  13.394
25681W        W96281  27.986  30.862  11.168
25682W        W96282  10.418  27.409   3.697
25683W        W96283  40.799  16.674  11.442
25684W        W96284  27.024  41.597   3.697
25685W        W96285  44.564  30.477   2.741
25686W        W96286  23.058  12.155   0.034
25687W        W96287  11.925  32.015  14.538
25688W        W96288  36.916  29.921  10.656
25689W        W96289  32.975  35.942   1.223
25690W        W96290  10.895  24.289   1.247
25691W        W96291  30.010  28.371  14.933
25692W        W96292  28.072  38.284  11.570
25693W        W96293  25.513   0.714  13.938
25694W        W96294  37.480  22.467  12.545
25695W        W96295  19.296  22.159  14.116
25696W        W96296   6.668  33.944   2.849
25697W        W96297  20.205  44.675  14.731
25698W        W96298  17.888   5.869  14.521
25699W        W96299  17.247  17.802   2.849
25700W        W96300  27.764  10.792   3.782
25701W        W96301  34.963   3.849  11.015
25702W        W96302  44.468  18.669   1.320
25703W        W96303  37.374  33.054  12.601
25704W        W96304   0.966  12.358   2.937
25705W        W96305  20.983  27.616   1.812
25706W        W96306  29.363  12.269   4.387
25707W        W96307   2.977  24.732   1.877
25708W        W96308  15.777  21.598  12.557
25709W        W96309  23.792  31.091  11.233
25710W        W96310   7.193  13.486  13.990
25711W        W96311   5.735  40.510   0.055
25712W        W96312   1.259  39.339  14.579
25713W        W96313  41.500  44.302  14.988
25714W        W96314   4.752  28.041   1.802
25715W        W96315  40.623   5.482  11.581
25716W        W96316  37.381   2.200   4.571
25717W        W96317  34.116  42.839  12.463
25718W        W96318  33.476  33.406  12.100
25719W        W96319   8.370  28.159  13.547
25720W        W96320  10.710  38.543   2.616
25721W        W96321  18.232  17.089  11.128
25722W        W96322  36.391   7.433   4.297
25723W        W96323  35.659  40.997  11.918
25724W        W96324  12.099  28.411   3.665
25725W        W96325  23.506   9.404   0.477
25726W        W96326  23.045   8.276   0.925
25727W        W96327  27.737  24.858  13.602
25728W        W96328  13.531  16.043  13.843
25729W        W96329  41.818  24.940   2.377
25730W        W96330  22.471  42.020  12.360
25731W        W96331  23.558   1.797   2.831
25732W        W96332  15.891  12.504  12.367
25733W        W96333  34.847  13.099   1.210
25734W        W96334  36.646  14.673   1.685
25735W        W96335  42.764  27.086   1.174
25736W        W96336  27.995   5.995  12.036
25737W        W96337  39.395  33.102  10.665
25738W        W96338   8.956  24.456   0.370
25739W        W96339  17.678  19.437  11.318
25740W        W96340  35.375   9.877   2.435
25741W        W96341  36.334  35.789   0.340
25742W        W96342  12.974  30.679   4.180
25743W        W96343   5.774  20.199   2.834
25744W        W96344  43.739  15.686  12.384
25745W        W96345  22.712   9.435  11.688
25746W        W96346   6.934  36.767  13.239
25747W        W96347   5.675  12.186   2.473
25748W        W96348  35.385  26.177   3.250
25749W        W96349  42.923  10.392   1.825
25750W        W96350  24.027  18.308  13.337
25751W        W96351  14.143  33.110   1.875
25752W        W96352   6.426  21.531  13.010
25753W        W96353   1.738  27.887   3.693
25754W        W96354   7.211  14.681  12.865
25755W        W96355   6.931  17.340  13.448
25756W        W96356  36.154  17.922   0.238
25757W        W96357   8.796  16.136  10.936
25758W        W96358  28.182   1.899   2.853
25759W        W96359  37.515  25.550  10.388
25760W        W96360  21.735  27.716   2.651
25761W        W96361  10.075  25.751  12.063
25762W        W96362  26.648   2.559  11.543
25763W        W96363   9.919   7.710  11.523
25764W        W96364   3.702  22.509  12.377
25765W        W96365  30.144   5.210  13.944
25766W        W96366  13.369  36.266   4.998
25767W        W96367   2.279  19.185   2.784
25768W        W96368  27.438  10.397   1.841
25769W        W96369   9.361  15.324  11.046
25770W        W96370  26.644  12.126   4.820
25771W        W96371  43.457  20.522   2.710
25772W        W96372  10.710  21.501  11.098
25773W        W96373  16.538  40.836  12.010
25774W        W96374  12.089  10.596   0.358
25775W        W96375   5.175  32.993  13.467
25776W        W96376  22.334   9.073  12.699
25777W        W96377  13.714  15.361  11.807
25778W        W96378  34.505  43.911   1.403
25779W        W96379  10.181  42.784  12.000
25780W        W96380  32.388   8.340  13.460
25781W        W96381  14.619  24.703   0.926
25782W        W96382  23.251   0.257  14.031
25783W        W96383   4.216  26.520  10.413
25784W        W96384  24.611  11.089  11.142
25785W        W96385  33.042  27.980  13.113
25786W        W96386  17.287  43.288   0.509
25787W        W96387  13.274  44.364  13.476
25788W        W96388   2.660   0.980   2.320
25789W        W96389   1.992  24.074   5.036
25790W        W96390  31.933   4.321   3.589
25791W        W96391  34.084  21.743  14.739
25792W        W96392  21.573  37.856  12.605
25793W        W96393  24.629  19.814   0.483
25794W        W96394  14.387  15.371  10.194
25795W        W96395  21.799  35.035   4.233
25796W        W96396  34.765  30.891   0.318
25797W        W96397  21.122  18.281  14.529
25798W        W96398  42.500  32.660  14.559
25799W        W96399   6.656  28.395   3.881
25800W        W96400  30.641  15.840  14.947
25801W        W96401  34.888  33.361  11.234
25802W        W96402  36.181   9.805  14.902
25803W        W96403  13.108  12.277  13.730
25804W        W96404  30.953  11.303  11.314
25805W        W96405  23.324   9.355  13.862
25806W        W96406   1.504  27.189  12.482
25807W        W96407  41.846  36.847   4.521
25808W        W96408  41.076  24.077   4.202
25809W        W96409  32.199  16.090  10.982
25810W        W96410  10.245  26.720  14.479
25811W        W96411  18.330  17.681   1.810
25812W        W96412  35.076   2.461  10.918
25813W        W96413  39.761  16.987   1.972
25814W        W96414  28.502  11.855  14.037
25815W        W96415  29.020  10.671   3.655
25816W        W96416   7.243  19.929  10.776
25817W        W96417  12.830  11.348  14.619
25818W        W96418   1.983   5.398   2.227
25819W        W96419  18.013  36.682  14.893
25820W        W96420  23.044  40.402   4.346
25821W        W96421  27.664  10.518   2.381
25822W        W96422  23.492  22.336  11.113
25823W        W96423   4.204  28.999  14.016
25824W        W96424  19.175  16.195  11.496
25825W        W96425  38.022  29.212   2.751
25826W        W96426  28.016  22.545  10.899
25827W        W96427  14.617  16.175   2.626
25828W        W96428  34.904   3.417   2.206
25829W        W96429   3.485   2.295  11.137
25830W        W96430   5.315  19.954   2.714
25831W        W96431  24.441  16.002   2.971
25832W        W96432  12.377  12.136   4.200
25833W        W96433   2.790   4.954  12.546
25834W        W96434  17.073  39.562  11.665
25835W        W96435   9.448  16.869  12.604
25836W        W96436  17.025  29.942  13.540
25837W        W96437  14.808  20.605   3.889
25838W        W96438  37.828  23.549  13.353
25839W        W96439  25.431  36.055   0.038
25840W        W96440  16.213  28.509   3.696
25841W        W96441   9.810  19.682  12.000
25842W        W96442   4.406  41.548  12.299
25843W        W96443  27.691  16.359  11.607
25844W        W96444  25.618  38.082  14.813
25845W        W96445  15.667  28.938   3.786
25846W        W96446  34.930  44.566  10.930
25847W        W96447  32.175  33.873   1.351
25848W        W96448  28.034  30.338  12.020
25849W        W96449  32.504  24.111  12.985
25850W        W96450  28.124  15.637   0.375
25851W        W96451  11.038   1.888   3.102
25852W        W96452   0.012  31.096  12.489
25853W        W96453  13.050   4.198  13.197
25854W        W96454  31.859  24.136   3.214
25855W        W96455   1.119   8.691   2.124
25856W        W96456   6.993  33.544   4.742
25857W        W96457   0.070  34.412  11.688
25858W        W96458   9.858   5.419   2.338
25859W        W96459   7.552  17.738  11.597
25860W        W96460   2.370  42.934  13.377
25861W        W96461  41.141   6.804   0.032
25862W        W96462  27.708  22.133  11.459
25863W        W96463  10.337  25.116  12.980
25864W        W96464  21.038   4.361  12.128
25865W        W96465  26.646  11.645  14.354
25866W        W96466  19.731   9.581   1.707
25867W        W96467   5.337  43.236   3.101
25868W        W96468  21.103  14.881   0.460
25869W        W96469  40.971  26.047  11.976
25870W        W96470  20.483   6.818   0.955
25871W        W96471  18.321  36.934   2.966
25872W        W96472  23.452  33.465   3.811
25873W        W96473  41.788   1.264  12.423
25874W        W96474  42.466   3.185  14.325
25875W        W96475   8.894   0.999  10.594
25876W        W96476  44.977   1.019  14.076
25877W        W96477   3.825  31.940  11.666
25878W        W96478  32.522  40.416  11.729
25879W        W96479  39.895  16.703   1.079
25880W        W96480   3.827  14.023  11.295
25881W        W96481  14.830  35.601   1.428
25882W        W96482   9.441  40.299  11.542
25883W        W96483   7.264  18.012   3.761
25884W        W96484  27.158   5.008  11.575
25885W        W96485  18.452  33.519  13.391
25886W        W96486  40.672  41.836   1.794
25887W        W96487  17.347  34.051   3.560
25888W        W96488  41.751  18.046  11.649
25889W        W96489  12.701  14.079   9.584
25890W        W96490  40.541  10.800   1.834
25891W        W96491  14.360  35.456   3.217
25892W        W96492  42.815  34.062   0.733
25893W        W96493  40.935  28.968  13.580
25894W        W96494  38.516  44.228   0.156
25895W        W96495  29.687  39.409   0.299
25896W        W96496  34.866  18.608  12.044
25897W        W96497  44.290  11.352   2.238
25898W        W96498  11.431  35.472  12.129
25899W        W96499  26.068  44.894  10.753
25900W        W96500  19.356   0.454  14.913
25901W        W96501  22.508  11.376  11.090
25902W        W96502   8.166   2.435  14.419
25903W        W96503   7.286  14.201   4.395
25904W        W96504   1.297  23.463  11.554
25905W        W96505   2.944  24.710   4.784
25906W        W96506   7.600  32.088  10.749
25907W        W96507  40.983  26.576  11.624
25908W        W96508   6.215  40.597  11.835
25909W        W96509  39.890  35.388  11.657
25910W        W96510  44.420  34.887   2.214
25911W        W96511  31.755  11.550   2.357
25912W        W96512  11.795  12.608  13.423
25913W        W96513  26.545  37.982  13.750
25914W        W96514  32.925  43.049   1.551
25915W        W96515  11.828   0.117   0.465
25916W        W96516  15.599  21.623  14.958
25917W        W96517  31.427  28.904  13.545
25918W        W96518  10.693  31.936  10.456
25919W        W96519  17.705  34.711   2.326
25920W        W96520  34.914  32.485   3.483
25921W        W96521  42.018  20.275   0.014
25922W        W96522  12.363  15.830   0.979
25923W        W96523   8.889  38.003  12.955
25924W        W96524   0.275  37.232  14.389
25925W        W96525  35.490  31.013   4.781
25926W        W96526  34.930   6.128   3.717
25927W        W96527   2.001  17.618   2.393
25928W        W96528  21.799  13.078  11.939
25929W        W96529  14.369   3.933  12.522
25930W        W96530   2.476  27.948   2.680
25931W        W96531  26.900  24.685   2.292
25932W        W96532  28.998   0.405   1.189
25933W        W96533  39.868  39.383  12.873
25934W        W96534   9.701   3.767   2.472
25935W        W96535  14.149  33.954  14.486
25936W        W96536  37.042  43.014   4.191
25937W        W96537  25.100  15.632  11.515
25938W        W96538  27.998  33.239   4.182
25939W        W96539   8.428  20.996  11.715
25940W        W96540  25.452  24.106   1.809
25941W        W96541  39.892  15.695   2.257
25942W        W96542  28.030  28.964   2.224
25943W        W96543  31.078  18.678   4.395
25944W        W96544   8.270  28.232  11.449
25945W        W96545  41.989  35.982  14.477
25946W        W96546   3.230   8.167   2.351
25947W        W96547  12.633  44.037  10.101
25948W        W96548   6.804  43.451  11.632
25949W        W96549   3.295  14.564   0.855
25950W        W96550  38.592  37.489  10.573
25951W        W96551  13.289   4.265   0.953
25952W        W96552   1.421  19.019   1.395
25953W        W96553  18.820  12.390  11.205
25954W        W96554  20.094  25.624   4.478
25955W        W96555   4.205  16.067   4.083
25956W        W96556  36.381  21.780  14.361
25957W        W96557  39.109  26.733  14.922
25958W        W96558  18.901  27.903   2.325
25959W        W96559  40.681  33.949  10.557
25960W        W96560  13.801  41.857  12.952
25961W        W96561  44.268  26.006   2.302
25962W        W96562  17.335  26.688   1.839
25963W        W96563  10.567   0.678   4.292
25964W        W96564   4.012   4.705  12.947
25965W        W96565  42.211   9.485  13.984
25966W        W96566  24.493  22.590   3.741
25967W        W96567  42.900  24.702  11.429
25968W        W96568  25.478  36.529  13.891
25969W        W96569  22.787  13.313   2.856
25970W        W96570  37.201   0.479  11.907
25971W        W96571  43.185   0.754   2.218
25972W        W96572  42.909  17.881  14.427
25973W        W96573  22.731  36.556   0.842
25974W        W96574  34.533  25.394   2.639
25975W        W96575   8.850  29.744  13.965
25976W        W96576  44.733  34.414  11.302
25977W        W96577   0.441  44.925   4.190
25978W        W96578  20.514  15.161   3.268
25979W        W96579  24.211   3.288   2.759
25980W        W96580  31.334  22.639  12.074
25981W        W96581  17.525  32.996  12.070
25982W        W96582   0.778  32.459  14.787
25983W        W96583  14.115  13.381   0.475
25984W        W96584  41.438  11.280   2.836
25985W        W96585   4.197  17.589  13.590
25986W        W96586  29.577  19.625   1.718
25987W        W96587  43.263  32.997  12.948
25988W        W96588  34.381  42.342  14.137
25989W        W96589   9.281  13.325   5.097
25990W        W96590  34.160  28.434   1.940
25991W        W96591  28.694  40.303   0.468
25992W        W96592  10.338  27.558   2.311
25993W        W96593  15.577  27.636  11.182
25994W        W96594  41.866  25.229   1.736
25995W        W96595   5.760   3.140   1.401
25996W        W96596   6.795  38.337  12.090
25997W        W96597   5.046  25.235  11.690
25998W        W96598   1.676  27.519  14.373
25999W        W96599  19.608  44.605  14.107
26000W        W96600  30.322  27.061  13.859
26001W        W96601  34.613  17.134  13.486
26002W        W96602  14.232  36.327   3.046
26003W        W96603  12.560  15.745  12.443
26004W        W96604  20.208  31.579   1.814
26005W        W96605   0.656  30.857  11.900
26006W        W96606   3.554  43.043  10.433
26007W        W96607   9.670  10.692   0.298
26008W        W96608  39.573  37.161   1.330
26009W        W96609  37.562  16.083   3.212
26010W        W96610   3.041   5.767   4.634
26011W        W96611  31.682   1.514   3.318
26012W        W96612  42.536   6.815  14.716
26013W        W96613  32.492  30.167   3.676
26014W        W96614  11.713  19.424  10.881
26015W        W96615   7.157  26.158   2.739
26016W        W96616   0.976  29.661   3.752
26017W        W96617   9.298  17.377   3.064
26018W        W96618   6.432   6.658   1.292
26019W        W96619  10.861  33.137  11.926
26020W        W96620  24.668  11.783   3.823
26021W        W96621  29.207  31.343   4.093
26022W        W96622  38.582  11.943   1.799
26023W        W96623  14.518  30.301   0.443
26024W        W96624   6.540  28.752   1.874
26025W        W96625  25.217  14.733  11.521
26026W        W96626  25.464   6.443   4.120
26027W        W96627  21.268  30.621   0.366
26028W        W96628  25.898  11.292   3.757
26029W        W96629   0.322  34.850  11.544
26030W        W96630  31.259  21.995  14.844
26031W        W96631   2.397  26.911   2.711
26032W        W96632  27.899  22.814   1.273
26033W        W96633  33.629   5.278  11.204
26034W        W96634  34.481  24.972  12.592
26035W        W96635   0.307  20.661   2.128
26036W        W96636  41.873  37.613   2.308
26037W        W96637   9.772   1.973  11.528
26038W        W96638  22.022  31.663   3.595
26039W        W96639  17.787  23.464   1.746
26040W        W96640  28.153  26.477  11.614
26041W        W96641  20.337   0.985   2.735
26042W        W96642  14.259  30.213  11.160
26043W        W96643  31.869  13.915  11.536
26044W        W96644  16.589  19.784   2.344
26045W        W96645  29.480  41.008  14.413
26046W        W96646  11.710  40.772   4.675
26047W        W96647  24.002  26.212  11.086
26048W        W96648  42.005  33.644   2.449
26049W        W96649  29.060  19.057  13.396
26050W        W96650  39.451  40.068  10.650
26051W        W96651  36.736  35.046   4.680
26052W        W96652   9.775  38.387  14.394
26053W        W96653  11.885  18.323  14.878
26054W        W96654  21.362  28.277  14.754
26055W        W96655  24.467  27.683  12.953
26056W        W96656  38.819  40.768  11.603
26057W        W96657  32.641  42.345  13.564
26058W        W96658  30.817  15.284   0.844
26059W        W96659  40.981  32.587   4.531
26060W        W96660  21.104  26.484  14.575
26061W        W96661  10.603  42.851  13.374
26062W        W96662  12.663  11.299   0.101
26063W        W96663  16.358   9.542  11.906
26064W        W96664  27.191   3.105  10.814
26065W        W96665  41.814  44.074   1.688
26066W        W96666  40.101   5.765   2.207
26067W        W96667  24.173  27.352  14.962
26068W        W96668  20.350  42.938   3.651
26069W        W96669  20.785  40.816   4.660
26070W        W96670  41.775  14.119   3.674
26071W        W96671  28.363  42.754  12.364
26072W        W96672  39.544  13.347  10.983
26073W        W96673  40.265  39.923  10.279
26074W        W96674  21.814   1.415   2.009
26075W        W96675  40.718  38.521   3.805
26076W        W96676  40.272  28.040  10.158
26077W        W96677   2.351   6.144  14.444
26078W        W96678  16.269  23.707  10.946
26079W        W96679  14.211  29.898  10.760
26080W        W96680  29.875  41.767   1.682
26081W        W96681  25.060   2.389   3.278
26082W        W96682   9.273   8.914   2.654
26083W        W96683  23.317  41.237   0.898
26084W        W96684   8.272  44.329  13.362
26085W        W96685  32.646  18.781  11.009
26086W        W96686  44.788  17.783  12.001
26087W        W96687  29.053  21.886   1.332
26088W        W96688  40.920  33.784  13.919
26089W        W96689  42.768   0.957  10.930
26090W        W96690   7.072   0.309   0.477
26091W        W96691  42.395  32.649  11.998
26092W        W96692  29.989  41.273   1.590
26093W        W96693  18.972  24.432   2.134
26094W        W96694  15.178   1.146  11.587
26095W        W96695  41.975   6.900   1.790
26096W        W96696   1.248  38.312  10.660
26097W        W96697  20.167  12.337  10.540
26098W        W96698   9.765  41.708   2.838
26099W        W96699  29.242  38.714  12.680
26100W        W96700  19.971  30.332  14.937
26101W        W96701  42.372  33.910  12.556
26102W        W96702  39.357  22.245   2.245
26103W        W96703   3.194  21.636   0.464
26104W        W96704  20.704  12.815  10.849
26105W        W96705  10.580  24.181   1.675
26106W        W96706  37.016   2.224   0.055
26107W        W96707   3.900  20.020   4.411
26108W        W96708  36.678  16.239   1.765
26109W        W96709  37.988  33.124   4.487
26110W        W96710  14.752  41.160   4.162
26111W        W96711   2.768  11.829   0.880
26112W        W96712  39.338  15.564  11.214
26113W        W96713  34.107  40.069   1.790
26114W        W96714  19.993  24.618  11.388
26115W        W96715  12.242  40.802  10.612
26116W        W96716   0.939  44.179  12.568
26117W        W96717  25.870  41.314   3.085
26118W        W96718  42.239  35.060  10.601
26119W        W96719  36.928  24.058  12.284
26120W        W96720  27.951   5.861   4.801
26121W        W96721  27.176  13.508  14.046
26122W        W96722  13.850   5.709  10.558
26123W        W96723  17.294  37.515   2.184
26124W        W96724   1.688  12.627  11.575
26125W        W96725   5.211  15.534  10.743
26126W        W96726  10.276  33.474  12.086
26127W        W96727  18.152  32.143  14.012
26128W        W96728   3.331  29.987   0.713
26129W        W96729  43.515  24.523   1.186
26130W        W96730  23.482  30.468  11.692
26131W        W96731  41.963  16.728  12.010
26132W        W96732  11.724  40.497   4.219
26133W        W96733  20.576  17.558   0.350
26134W        W96734   3.902  41.129   2.714
26135W        W96735  40.958  31.903  13.830
26136W        W96736   2.498  11.709   1.726
26137W        W96737   9.824   7.937   3.210
26138W        W96738  39.977  38.950  11.691
26139W        W96739  33.520  34.589  13.537
26140W        W96740  12.326   6.614  13.897
26141W        W96741   1.487  44.802  13.351
26142W        W96742  27.152  25.247   5.032
26143W        W96743   0.036   8.598   2.913
26144W        W96744  35.741  10.123   4.080
26145W        W96745  15.319  30.169   3.431
26146W        W96746   3.266  22.203   2.864
26147W        W96747  21.266   7.707   2.907
26148W        W96748  22.951   3.090  11.264
26149W        W96749  38.155   0.977   0.457
26150W        W96750  23.603  34.886   0.319
26151W        W96751  23.797  33.016  11.146
26152W        W96752  17.288  14.882  11.221
26153W        W96753  30.125  11.873  13.365
26154W        W96754  39.951  10.241   0.486
26155W        W96755  17.309   8.196  11.382
26156W        W96756  10.235   2.588  11.865
26157W        W96757  19.549  26.460  14.511
26158W        W96758  31.941  16.335   0.074
26159W        W96759  32.098  28.416  13.018
26160W        W96760  42.961  22.141   2.156
26161W        W96761  38.154  40.810   3.200
26162W        W96762   0.889  43.495  13.986
26163W        W96763  44.957   4.824  13.066
26164W        W96764  32.085  13.501  12.363
26165W        W96765  22.524   0.054   3.124
26166W        W96766  44.917  31.847   0.231
26167W        W96767  30.446  14.011   2.987
26168W        W96768   1.201   3.444  10.705
26169W        W96769   3.443  10.643   1.945
26170W        W96770  12.733  35.063  11.147
26171W        W96771  32.878  26.549   0.027
26172W        W96772  40.532  14.843   2.161
26173W        W96773   2.214  28.655  13.780
26174W        W96774   1.351  22.813   4.655
26175W        W96775  33.299   9.327   1.982
26176W        W96776   5.688  15.777  12.121
26177W        W96777  15.112  25.431  14.833
26178W        W96778  20.078  31.486   2.364
26179W        W96779  15.214  13.152  11.447
26180W        W96780  11.695  42.330   0.419
26181W        W96781  33.218  43.396   0.127
26182W        W96782  22.641  19.310   3.799
26183W        W96783  44.528  11.347   1.784
26184W        W96784  10.824  28.559  14.411
26185W        W96785  41.035   3.772  12.973
26186W        W96786   9.124  30.968  13.902
26187W        W96787  11.640  10.267  11.116
26188W        W96788  35.729  10.737  10.652
26189W        W96789  37.399  28.186  14.000
26190W        W96790  16.681  41.380   2.830
26191W        W96791   9.040   3.275  13.368
26192W        W96792  15.101  14.111  12.383
26193W        W96793   4.984   7.257  12.444
26194W        W96794  26.591  16.005   3.366
26195W        W96795  15.715  41.183  11.300
26196W        W96796  37.489  13.824   0.903
26197W        W96797  36.083  21.738  10.493
26198W        W96798   9.883  31.835   1.288
26199W        W96799  24.052  32.914  12.375
26200W        W96800  41.265  15.156  10.812
26201W        W96801   9.315  31.983   2.637
26202W        W96802   2.584  23.464   0.053
26203W        W96803  15.898  31.366   1.920
26204W        W96804  43.446   2.387  10.845
26205W        W96805  14.908   7.852   0.499
26206W        W96806   3.835  23.750  13.994
26207W        W96807  20.614  30.981   3.875
26208W        W96808  28.165   2.375  13.013
26209W        W96809  30.951  33.911   4.576
26210W        W96810  26.412  27.455   3.285
26211W        W96811  27.241  41.102  13.016
26212W        W96812  22.984  17.711  13.989
26213W        W96813   2.993  22.573   1.007
26214W        W96814  38.548  43.369   3.274
26215W        W96815  40.587  24.939  13.859
26216W        W96816  28.125   9.083   2.517
26217W        W96817  31.456   3.136   2.023
26218W        W96818  20.996  37.956  13.893
26219W        W96819   6.399  13.214  14.257
26220W        W96820   6.487  30.042  13.897
26221W        W96821   7.104  11.315   1.454
26222W        W96822   1.051  33.848  11.020
26223W        W96823  13.711  11.124  14.557
26224W        W96824   6.860  31.810  14.335
26225W        W96825  24.444  17.195   3.733
26226W        W96826  27.495  37.372   3.188
26227W        W96827  13.171  13.227   4.445
26228W        W96828  13.927  28.224  10.601
26229W        W96829  10.111   7.183  12.619
26230W        W96830  39.393   8.422  12.482
26231W        W96831  29.850  32.387   1.836
26232W        W96832  43.389  39.745  11.600
26233W        W96833  10.738   8.897  12.341
26234W        W96834  28.526  32.800   3.571
26235W        W96835   6.633  35.839  13.302
26236W        W96836  18.372  12.146  13.606
26237W        W96837   6.201  17.281  13.003
26238W        W96838  41.091  10.856   3.100
26239W        W96839  15.280  31.541   1.370
26240W        W96840   4.459  16.130   3.125
26241W        W96841  21.977  42.190  13.494
26242W        W96842  18.240  36.104  13.134
26243W        W96843  11.491  27.097  12.026
26244W        W96844  42.794  25.472   0.203
26245W        W96845  20.998  21.119   4.501
26246W        W96846  12.305  23.078   4.636
26247W        W96847   8.901  41.428   3.346
26248W        W96848   7.432  41.946   1.983
26249W        W96849   0.849  27.098  10.673
26250W        W96850  31.472  44.345  13.368
26251W        W96851  24.660  25.654   0.312
26252W        W96852  38.575  25.160  10.719
26253W        W96853  44.407  40.789   2.350
26254W        W96854   3.992  28.013  11.079
26255W        W96855  34.154   2.867  13.618
26256W        W96856  18.752  10.978   0.470
26257W        W96857  42.714   8.825  12.438
26258W        W96858  44.344  35.441  13.958
26259W        W96859   3.382  42.232   3.001
26260W        W96860  39.511  20.291  13.413
26261W        W96861   9.645   5.406  10.624
26262W        W96862  13.259  34.949   1.755
26263W        W96863  27.585  14.654  12.073
26264W        W96864   7.583  19.243   2.374
26265W        W96865  24.908  31.978  10.729
26266W        W96866  15.345  37.936   3.110
26267W        W96867   4.331  23.263   1.292
26268W        W96868  29.651  35.574  12.347
26269W        W96869  30.375   9.806   2.694
26270W        W96870  44.317  32.029   5.009
26271W        W96871  37.094   9.792  12.445
26272W        W96872  17.031  24.164   4.646
26273W        W96873  43.004  44.083   2.780
26274W        W96874  34.148   6.063  11.621
26275W        W96875  21.271  38.698   0.365
26276W        W96876  21.693  24.241   3.795
26277W        W96877  19.117  23.044  11.525
26278W        W96878   2.503   6.349   0.897
26279W        W96879   2.483  44.348  10.796
26280W        W96880  19.300  34.604  11.624
26281W        W96881   2.965  25.175  14.974
26282W        W96882   0.384  38.435   3.801
26283W        W96883   8.603  20.178   1.732
26284W        W96884  31.175  35.275   0.335
26285W        W96885  42.236  37.808  12.622
26286W        W96886   7.949  28.707   0.920
26287W        W96887  32.834  40.010   1.013
26288W        W96888  39.013  19.917   4.067
26289W        W96889  11.100  43.817   0.917
26290W        W96890   4.945  14.303   4.190
26291W        W96891  28.076   8.896  12.887
26292W        W96892  26.327   3.968   0.834
26293W        W96893  13.310  35.448   1.055
26294W        W96894  15.078  39.360  13.865
26295W        W96895  36.996  30.340   2.273
26296W        W96896   2.997  11.256  14.951
26297W        W96897  33.126   8.710   0.888
26298W        W96898  40.993   4.200   3.598
26299W        W96899  15.860  26.686   1.812
26300W        W96900   2.842   7.917   3.793
26301W        W96901  32.015  17.252  11.626
26302W        W96902  38.830  35.885   1.434
26303W        W96903  41.103   2.346  13.044
26304W        W96904  25.659  31.927  13.980
26305W        W96905  30.440  29.514  11.987
26306W        W96906   4.675   1.636   4.885
26307W        W96907  37.400  12.428   0.268
26308W        W96908  24.300   9.272  12.434
26309W        W96909  43.718   9.357   4.684
26310W        W96910  42.278  20.983   3.713
26311W        W96911  25.513  12.557   4.220
26312W        W96912  40.905  40.836   0.429
26313W        W96913  44.465  43.469   2.243
26314W        W96914  39.063  24.406   0.922
26315W        W96915  44.401   1.449   3.760
26316W        W96916   3.794   0.934  13.046
26317W        W96917  11.857   0.382  12.878
26318W        W96918   4.889   3.262  11.458
26319W        W96919   2.756  40.917   1.956
26320W        W96920  15.365  31.272  14.606
26321W        W96921   3.967  39.832   3.397
26322W        W96922   9.205  14.586   2.749
26323W        W96923  44.903   5.713   3.777
26324W        W96924  10.060  41.285   4.188
26325W        W96925  29.429   3.830  12.094
26326W        W96926  19.699  22.513   4.711
26327W        W96927  30.410  35.838   3.300
26328W        W96928   4.346   6.883  14.988
26329W        W96929  41.847   2.749  12.764
26330W        W96930  22.617  44.550   0.590
26331W        W96931  21.006  32.616   3.524
26332W        W96932  43.707  23.703  14.498
26333W        W96933  15.464  27.559   5.185
26334W        W96934  31.602   1.883   4.610
26335W        W96935  18.828  25.364   0.315
26336W        W96936  28.507  34.807   1.923
26337W        W96937   6.932   8.162   3.664
26338W        W96938  39.590   6.010  14.511
26339W        W96939   4.324  28.498  14.088
26340W        W96940  39.483  22.325  13.429
26341W        W96941  40.121  12.831   3.381
26342W        W96942   2.921  25.402  11.201
26343W        W96943  42.140  26.631   2.725
26344W        W96944  38.380  42.947   0.103
26345W        W96945   5.717  43.766   2.846
26346W        W96946  40.724   3.246  14.724
26347W        W96947  25.632  16.620  12.479
26348W        W96948  27.857  14.520  12.481
26349W        W96949  42.970  15.164  10.660
26350W        W96950  28.401  13.128  11.516
26351W        W96951   6.456  40.309   1.214
26352W        W96952   8.681  27.297  13.899
26353W        W96953  32.698  40.013  13.839
26354W        W96954  15.129  28.185   2.938
26355W        W96955  37.506  23.959   3.741
26356W        W96956  20.250   9.675  10.668
26357W        W96957   7.157  32.611   0.494
26358W        W96958  35.530   7.925   0.302
26359W        W96959  17.858  33.090   2.761
26360W        W96960  40.606  37.355  11.923
26361W        W96961   5.683  39.424   2.770
26362W        W96962  31.686  28.881  14.462
26363W        W96963   8.849   2.051   4.555
26364W        W96964   4.197  27.482   4.517
26365W        W96965  23.124  14.759  12.153
26366W        W96966   0.885  33.826   2.336
26367W        W96967  30.226   4.748  14.116
26368W        W96968  40.219  32.907   4.677
26369W        W96969  22.956  25.519  12.901
26370W        W96970  24.000  21.410   4.133
26371W        W96971  24.476  22.371   2.720
26372W        W96972  29.236  13.749   2.123
26373W        W96973   4.193  20.338   1.541
26374W        W96974  29.436  35.805   3.239
26375W        W96975  11.964  12.666  14.908
26376W        W96976  15.586  33.915   0.452
26377W        W96977   5.438  36.122  12.091
26378W        W96978  29.448  42.216   2.325
26379W        W96979  43.272  23.563   1.374
26380W        W96980   4.724  40.563  14.134
26381W        W96981  22.133  33.858   2.924
26382W        W96982  27.129   1.725  13.827
26383W        W96983  40.766   9.403   3.186
26384W        W96984  21.948  12.293  14.518
26385W        W96985  37.041   9.155   2.225
26386W        W96986  27.073  42.068   0.830
26387W        W96987  23.912   8.190  13.852
26388W        W96988  11.392   4.634  14.901
26389W        W96989  34.800  20.567   1.328
26390W        W96990  28.168  24.242   4.966
26391W        W96991  22.662   9.784   3.091
26392W        W96992  20.662  13.173  14.342
26393W        W96993  12.186   5.450  13.267
26394W        W96994   4.532   5.671  14.115
26395W        W96995   0.410  32.625  10.746
26396W        W96996  39.334  23.076  11.569
26397W        W96997  36.369  26.578   0.193
26398W        W96998  43.456  37.320  14.918
26399W        W96999  34.968  42.996  14.060
26400W        W97000  20.058  15.174   1.324
26401W        W97001  15.827  23.436  13.415
26402W        W97002  40.704  39.555  13.373
26403W        W97003  19.164  28.100   2.770
26404W        W97004  41.471  24.278  11.699
26405W        W97005  18.572   9.340   3.645
26406W        W97006   0.342  23.226  13.063
26407W        W97007   6.406   9.194   0.763
26408W        W97008  43.434  29.263   0.410
26409W        W97009  34.749  22.994   4.633
26410W        W97010  31.012  15.957   4.190
26411W        W97011  28.510  24.206  14.763
26412W        W97012   3.754  15.244  12.933
26413W        W97013  37.818  39.418  11.683
26414W        W97014  40.004  43.369  10.492
26415W        W97015  25.963  25.435  13.779
26416W        W97016  10.637  22.251  13.921
26417W        W97017  13.918   6.765  13.740
26418W        W97018  23.309  29.576   4.385
26419W        W97019  19.550   7.076  11.185
26420W        W97020  26.445  42.310  10.723
26421W        W97021  14.349  34.373   1.355
26422W        W97022  10.225  31.183   3.191
26423W        W97023  22.670   4.006   2.896
26424W        W97024  27.998  30.402   0.805
26425W        W97025  26.283  41.320   9.764
26426W        W97026   2.719  21.052  12.630
26427W        W97027  42.556  37.115   3.278
26428W        W97028  43.163   7.747   0.810
26429W        W97029  16.593   7.208   0.509
26430W        W97030  12.945  11.463  14.117
26431W        W97031  39.664  19.446  13.075
26432W        W97032   5.197  17.825   0.858
26433W        W97033  39.481  17.555   4.462
26434W        W97034  40.970  33.979  11.900
26435W        W97035   7.743   6.684   4.358
26436W        W97036   4.565   1.483   3.059
26437W        W97037  23.868   5.462   3.074
26438W        W97038   0.756  17.168   3.677
26439W        W97039  31.071  20.453  13.792
26440W        W97040  38.924   5.333  12.023
26441W        W97041  42.019   9.498   0.768
26442W        W97042  30.842  33.793  13.517
26443W        W97043   4.014  31.566   3.233
26444W        W97044  34.553   9.182  11.087
26445W        W97045   3.466  36.096   3.092
26446W        W97046  21.001  16.301  14.496
26447W        W97047  16.200  10.836   1.822
26448W        W97048  39.606  41.977   4.172
26449W        W97049  38.820   4.806  11.183
26450W        W97050  23.063   1.285   0.898
26451W        W97051  44.535  35.065   0.665
26452W        W97052  30.183  13.378   1.326
26453W        W97053  23.067  16.040  10.938
26454W        W97054  14.057  20.352  14.020
26455W        W97055  33.948   3.239  12.658
26456W        W97056   8.068  14.374  10.541
26457W        W97057  27.652  31.016  11.519
26458W        W97058  13.874   6.077   0.372
26459W        W97059   8.632   6.378  12.001
26460W        W97060  23.521   7.178  13.384
26461W        W97061  16.411  17.253  10.678
26462W        W97062  23.772   1.424   1.479
26463W        W97063   0.023  35.102   2.871
26464W        W97064  17.558   4.900   0.359
26465W        W97065  18.303  33.459   0.771
26466W        W97066   0.720  40.489   3.974
26467W        W97067   6.672  32.514   4.682
26468W        W97068   0.250  39.460  10.608
26469W        W97069  28.754  26.559  14.994
26470W        W97070  35.550  44.255  13.375
26471W        W97071   9.799  13.737  11.425
26472W        W97072  40.908   4.389   0.332
26473W        W97073   9.861  44.293   4.587
26474W        W97074  10.657  19.882  12.603
26475W        W97075   5.446  21.830  13.898
26476W        W97076  10.276  17.704  14.908
26477W        W97077  38.472  11.205   0.240
26478W        W97078  40.479  38.498  12.939
26479W        W97079  33.853  23.003  11.472
26480W        W97080  44.859  12.919   2.675
26481W        W97081   6.605  25.979   3.452
26482W        W97082  37.907  40.572   1.793
26483W        W97083  37.210  13.307   3.226
26484W        W97084   1.870  40.970  11.567
26485W        W97085   0.929  35.625   3.664
26486W        W97086  38.540   6.857   3.548
26487W        W97087  25.911  21.297  14.309
26488W        W97088   7.285  22.155   4.140
26489W        W97089  30.263  33.881   5.051
26490W        W97090  22.115  29.278  12.358
26491W        W97091  37.056  19.263   3.216
26492W        W97092  22.905  28.657  12.149
26493W        W97093  39.024  10.787  12.371
26494W        W97094  26.242   1.288  12.854
26495W        W97095  36.940  18.097   4.078
26496W        W97096  35.455  44.643  10.809
26497W        W97097  14.822  37.006  12.980
26498W        W97098  33.440  42.015   0.885
26499W        W97099  19.891  43.861  10.642
26500W        W97100   9.531  20.758   4.921
26501W        W97101  29.648  43.382  10.754
26502W        W97102   7.651  33.143   2.769
26503W        W97103  39.953  15.184   2.717
26504W        W97104  32.447   1.971  14.317
26505W        W97105  39.012  43.739  12.947
26506W        W97106  17.646  24.509  11.502
26507W        W97107  31.102  31.453   4.919
26508W        W97108  17.698  13.028  12.285
26509W        W97109  14.811  19.339   2.270
26510W        W97110  17.146  41.178   2.742
26511W        W97111   6.997   4.958  14.982
26512W        W97112  28.704  43.575  12.029
26513W        W97113  14.402  23.977  14.347
26514W        W97114  37.419  33.466  12.997
26515W        W97115   9.758   0.045  11.577
26516W        W97116  33.437  33.922  11.100
26517W        W97117   6.650  37.764  13.346
26518W        W97118  22.928  25.100   0.963
26519W        W97119  33.562   2.278   2.226
26520W        W97120   0.576  26.253  12.912
26521W        W97121  25.124  32.322  11.023
26522W        W97122  30.662  12.352   2.780
26523W        W97123   4.371  16.706   0.800
26524W        W97124   4.996  42.807  11.126
26525W        W97125  22.804  40.558   3.219
26526W        W97126  34.408  40.386   0.192
26527W        W97127  34.379  17.699   3.831
26528W        W97128  35.555   5.203   4.452
26529W        W97129  39.121  39.363   4.545
26530W        W97130   2.420   3.881  10.471
26531W        W97131   4.222   4.858  10.869
26532W        W97132  33.010  25.781  14.566
26533W        W97133   3.928  37.526   2.931
26534W        W97134   5.537   8.553  11.230
26535W        W97135   8.137  15.008   2.649
26536W        W97136  20.295  12.409  12.876
26537W        W97137  35.639  28.001  11.118
26538W        W97138  17.879  25.523   2.769
26539W        W97139  22.174  14.541  13.904
26540W        W97140  17.361  42.065  10.941
26541W        W97141  23.755  28.894   0.564
26542W        W97142  39.900  37.669   4.944
26543W        W97143  21.641   7.549   1.991
26544W        W97144  29.676  21.635   3.275
26545W        W97145  31.402  12.248  11.129
26546W        W97146  40.517   5.820   3.291
26547W        W97147  29.400   2.240   0.349
26548W        W97148  37.377  18.698  14.865
26549W        W97149   3.972   3.738   3.691
26550W        W97150  10.753  18.815   4.429
26551W        W97151  21.949  41.849   2.328
26552W        W97152  15.708  34.883   3.731
26553W        W97153  26.270  10.504  11.513
26554W        W97154  26.122   7.287  14.866
26555W        W97155  33.173  25.101   1.918
26556W        W97156  43.525  26.089   4.709
26557W        W97157  36.039   0.393  14.424
26558W        W97158  24.480   0.445   2.817
26559W        W97159  21.217  39.919   4.359
26560W        W97160  38.657  24.100   0.734
26561W        W97161   0.616  10.143   3.713
26562W        W97162  23.161  35.589  10.740
26563W        W97163  38.852  38.423  13.408
26564W        W97164  22.630  20.382  12.244
26565W        W97165  40.405  20.853   3.343
26566W        W97166  37.828  33.522  14.374
26567W        W97167  38.526  14.296   4.919
26568W        W97168  35.750  19.113   1.240
26569W        W97169  10.290  25.602  14.084
26570W        W97170  43.298  12.023   4.702
26571W        W97171  40.319  34.253  12.844
26572W        W97172  41.543   2.783   4.007
26573W        W97173  30.167  38.093  11.133
26574W        W97174   0.083   3.056  11.948
26575W        W97175   9.905  18.761   4.813
26576W        W97176   8.467  10.049  14.051
26577W        W97177  18.590  36.966   0.961
26578W        W97178  39.471  13.143  14.067
26579W        W97179   9.678  21.519  13.452
26580W        W97180   1.302  39.914  10.756
26581W        W97181  22.550   2.221   2.130
26582W        W97182   3.630  18.750  13.014
26583W        W97183  22.618   2.242  14.567
26584W        W97184   6.750   6.360   3.447
26585W        W97185   9.317  27.550   4.653
26586W        W97186   7.019  39.859  14.001
26587W        W97187  16.971  36.745   9.674
26588W        W97188  14.909  22.000   3.553
26589W        W97189   5.785  38.296   1.778
26590W        W97190  25.919  40.118  13.478
26591W        W97191  28.512  17.252  10.728
26592W        W97192  37.912  41.271  14.838
26593W        W97193  33.671  12.154  13.014
26594W        W97194  20.554  19.783  11.770
26595W        W97195  32.363  43.921  14.849
26596W        W97196   7.406   4.471  10.926
26597W        W97197  16.118   9.367   3.673
26598W        W97198  16.549   1.480   4.089
26599W        W97199  14.295  36.790   4.771
26600W        W97200  20.257  43.277  11.125
26601W        W97201  23.167   3.178   2.816
26602W        W97202  30.702  35.880  10.727
26603W        W97203  18.996  36.525   4.281
26604W        W97204  28.750   5.917   0.318
26605W        W97205   4.133  12.129   4.612
26606W        W97206  25.646   8.668   4.395
26607W        W97207   8.172   1.394   2.271
26608W        W97208  11.699   2.642  10.880
26609W        W97209  17.437  33.247  10.717
26610W        W97210  33.386  35.507   2.733
26611W        W97211  39.498  15.840   0.049
26612W        W97212   4.910  26.257   1.866
26613W        W97213   5.206   8.873  10.917
26614W        W97214   7.394  31.171   0.403
26615W        W97215   7.774  35.125  11.040
26616W        W97216  22.252  13.817  11.347
26617W        W97217  20.949  35.871  11.162
26618W        W97218  37.841  32.809   3.606
26619W        W97219  11.226  16.061  10.684
26620W        W97220  19.258   2.962   3.829
26621W        W97221  19.224  34.424   1.285
26622W        W97222   7.169  31.845   1.797
26623W        W97223  15.875  44.333   3.201
26624W        W97224  20.195  44.460  12.445
26625W        W97225  28.817   9.452   4.125
26626W        W97226  14.360  43.225   4.619
26627W        W97227  37.198  33.753  13.364
26628W        W97228  29.025  35.756   1.857
26629W        W97229   4.502  40.549   3.260
26630W        W97230  41.334   0.370  10.996
26631W        W97231  42.900  19.447   0.851
26632W        W97232   1.224  38.856  12.218
26633W        W97233   4.684  21.580  13.776
26634W        W97234   7.586  10.249   4.192
26635W        W97235   1.771  19.249  13.607
26636W        W97236  15.151   5.361   2.838
26637W        W97237  10.223   4.749  11.373
26638W        W97238  33.976  15.038   2.764
26639W        W97239  27.118  36.451  13.955
26640W        W97240  20.599  28.187   0.345
26641W        W97241  22.689  21.339  13.478
26642W        W97242  14.084  18.385  11.648
26643W        W97243   2.447   6.761   4.868
26644W        W97244  26.411  34.510   0.345
26645W        W97245  20.103  35.463   1.893
26646W        W97246  32.728  32.338  11.146
26647W        W97247  15.765  28.008  12.853
26648W        W97248  12.879  21.154   1.338
26649W        W97249  22.576   6.657   0.919
26650W        W97250   3.356   9.213   2.361
26651W        W97251  11.551  10.545   2.710
26652W        W97252  42.342  26.860  11.544
26653W        W97253   0.912   5.820  11.619
26654W        W97254  42.276  41.053   4.051
26655W        W97255   6.161   9.194  11.089
26656W        W97256  13.752  36.387  11.891
26657W        W97257  19.523  43.160  14.493
26658W        W97258  17.999  21.564   3.586
26659W        W97259  31.097  21.564   4.799
26660W        W97260  16.559   8.069   3.236
26661W        W97261  11.155  42.871  12.343
26662W        W97262  31.850  25.052  12.954
26663W        W97263  29.015  18.759   3.348
26664W        W97264  38.518  22.998  11.124
26665W        W97265  40.896  28.428  11.182
26666W        W97266  17.614  32.627  14.731
26667W        W97267  34.931  12.341  12.621
26668W        W97268  19.947  20.039   3.601
26669W        W97269   6.109   3.656  14.444
26670W        W97270  40.364  21.161  12.097
26671W        W97271  17.652  27.695  12.982
26672W        W97272  23.223  34.781   1.836
26673W        W97273   8.815  34.673  12.855
26674W        W97274  24.286  30.156   0.965
26675W        W97275  16.914  29.052   3.571
26676W        W97276  39.558  43.190   2.733
26677W        W97277  28.225  44.440  13.526
26678W        W97278  33.507  41.536   0.470
26679W        W97279  25.129   2.315   2.210
26680W        W97280  18.550  32.426  12.964
26681W        W97281  11.842   6.064  14.402
26682W        W97282  17.177  36.862   0.779
26683W        W97283  28.485  42.752  11.871
26684W        W97284  32.113  44.067  13.296
26685W        W97285   5.029  13.701  12.197
26686W        W97286  27.621  11.356  12.900
26687W        W97287  32.621  25.327  13.395
26688W        W97288  33.599  25.056   1.654
26689W        W97289  18.702  34.221   3.617
26690W        W97290  34.397   0.407  10.829
26691W        W97291  37.607  35.924  12.931
26692W        W97292  36.870  32.021   2.346
26693W        W97293  26.966  30.173  14.000
26694W        W97294  27.432  44.019   1.377
26695W        W97295  34.796  17.990   3.663
26696W        W97296  11.962  21.125   3.220
26697W        W97297  25.128  23.773  11.912
26698W        W97298   7.135  20.666  11.196
26699W        W97299  28.861  29.346   4.228
26700W        W97300   0.019  10.505   1.392
26701W        W97301  39.610  10.673  13.035
26702W        W97302  24.430  40.625   4.602
26703W        W97303  22.123   9.108  13.153
26704W        W97304  14.217  42.234  12.937
26705W        W97305  38.509  42.299  10.657
26706W        W97306  40.319  25.171   1.349
26707W        W97307  23.978  13.039  14.416
26708W        W97308   2.879   6.824  10.885
26709W        W97309   8.670  15.567  13.349
26710W        W97310  16.234  15.407   3.274
26711W        W97311  35.512  37.333   3.067
26712W        W97312  39.424   2.391   2.054
26713W        W97313  37.468  10.439   0.377
26714W        W97314  19.187  32.819  14.523
26715W        W97315   1.736  41.604   2.437
26716W        W97316  21.471  14.202  13.904
26717W        W97317   4.837  13.210   2.629
26718W        W97318  37.835  30.665  10.872
26719W        W97319  20.015  30.547  13.859
26720W        W97320   7.734   1.844  11.547
26721W        W97321   1.154   0.490  12.398
26722W        W97322  14.079   5.303   4.289
26723W        W97323   6.128  27.981   0.983
26724W        W97324  39.668  34.998   3.152
26725W        W97325  39.847   9.466   3.181
26726W        W97326  21.495  29.690   1.329
26727W        W97327  24.014   6.292   4.195
26728W        W97328  24.053  12.282   0.921
26729W        W97329  13.173  23.464  13.929
26730W        W97330  44.265  41.305   4.123
26731W        W97331  33.808  12.899  13.359
26732W        W97332  12.857  21.553  12.923
26733W        W97333  30.156   7.408   0.249
26734W        W97334   4.448   2.911  12.507
26735W        W97335  14.248  26.542   4.498
26736W        W97336  10.502  29.160  11.147
26737W        W97337  15.469   8.779  14.063
26738W        W97338  35.916  21.698   4.587
26739W        W97339  39.756  26.197   4.097
26740W        W97340  38.840  35.908  11.520
26741W        W97341  12.713   3.885  11.632
26742W        W97342  20.771  42.860   0.632
26743W        W97343  10.861  10.166   3.391
26744W        W97344  32.462  13.399   1.035
26745W        W97345  26.064  31.548  12.691
26746W        W97346  41.526  12.789  10.449
26747W        W97347  27.515  20.817  14.003
26748W        W97348  35.939  44.390   0.522
26749W        W97349  12.192  13.856  13.309
26750W        W97350  26.284  26.560  13.566
26751W        W97351  42.242  17.691   1.571
26752W        W97352  44.281  16.148   3.198
26753W        W97353  24.522  14.908  11.588
26754W        W97354   6.356  28.679   3.575
26755W        W97355  27.943  27.253   4.390
26756W        W97356  10.263   8.273   4.139
26757W        W97357  21.332  35.464  10.527
26758W        W97358  23.971  44.425  11.594
26759W        W97359  36.589  30.856   2.497
26760W        W97360   6.977   0.443  11.033
26761W        W97361  13.073   1.532  13.904
26762W        W97362   3.437  15.646  12.485
26763W        W97363   6.681  28.446   4.431
26764W        W97364   6.787  38.605  13.072
26765W        W97365  20.158  31.057   4.127
26766W        W97366  32.207  38.026   3.292
26767W        W97367  15.371  30.495  11.526
26768W        W97368  26.474  21.609  10.673
26769W        W97369   8.800  37.289  10.152
26770W        W97370   1.041  42.270  13.465
26771W        W97371  18.748  34.060   4.109
26772W        W97372   6.056  19.010   4.113
26773W        W97373  26.204  13.343  12.572
26774W        W97374  40.603  27.109   4.063
26775W        W97375  22.809  32.377  11.713
26776W        W97376  30.590  24.297   0.465
26777W        W97377  44.269   1.921   0.923
26778W        W97378  33.153  16.127  11.245
26779W        W97379  10.880   0.904  11.562
26780W        W97380   8.773   3.470  12.364
26781W        W97381  30.971  30.640  10.638
26782W        W97382  30.475  23.658  13.251
26783W        W97383  28.769  23.766  14.782
26784W        W97384   4.359  10.759  14.956
26785W        W97385  26.007  24.142   4.417
26786W        W97386  24.473  26.041   4.098
26787W        W97387  30.230  21.114   1.791
26788W        W97388  29.939  35.947   3.119
26789W        W97389  15.135   4.503  12.710
26790W        W97390  11.418  12.561   0.987
26791W        W97391  39.669   2.976  11.695
26792W        W97392  34.122  29.694  12.600
26793W        W97393  17.623  39.297  13.965
26794W        W97394  37.296  42.759   3.125
26795W        W97395  15.191  43.562   0.732
26796W        W97396  38.202   4.265   9.755
26797W        W97397  14.792  38.509   0.394
26798W        W97398  28.539   4.861  12.667
26799W        W97399   4.722  40.273   0.976
26800W        W97400  10.214  25.638  10.754
26801W        W97401  19.678  18.782  14.108
26802W        W97402   0.380  29.703   3.200
26803W        W97403  44.468  31.482  11.611
26804W        W97404   1.298  29.495   1.310
26805W        W97405  26.831   8.095   3.060
26806W        W97406   0.461  35.854   3.749
26807W        W97407  32.575   4.471   1.349
26808W        W97408  37.458  36.540  12.410
26809W        W97409   9.996   9.619   3.832
26810W        W97410  29.628  16.290  11.202
26811W        W97411  12.262   3.992   0.646
26812W        W97412  42.413  30.988  10.898
26813W        W97413  28.464  29.999  13.913
26814W        W97414   7.938  23.269   1.117
26815W        W97415  21.614  40.216  12.488
26816W        W97416   0.452   5.228  12.163
26817W        W97417  14.407  28.950  11.574
26818W        W97418  28.923   3.902   4.210
26819W        W97419  33.444  17.196   4.456
26820W        W97420  30.589  10.925  12.762
26821W        W97421  33.074  29.455  10.856
26822W        W97422   7.547  12.157   2.902
26823W        W97423   2.078  31.534  10.678
26824W        W97424   1.844  25.161  14.467
26825W        W97425  35.794  15.612   1.736
26826W        W97426  15.178  27.564   4.773
26827W        W97427  23.116   0.589   0.029
26828W        W97428   0.413  32.372   0.757
26829W        W97429  24.043   9.395  12.003
26830W        W97430  25.624  13.861   2.862
26831W        W97431  31.897  26.027  12.099
26832W        W97432  22.802   4.238   1.189
26833W        W97433   4.645  28.729   3.752
26834W        W97434  12.823   2.752   2.842
26835W        W97435  19.693  25.985  13.613
26836W        W97436   6.342  38.991  11.022
26837W        W97437  31.705  14.283   3.372
26838W        W97438  39.252  36.637  13.485
26839W        W97439  36.192  32.210   0.812
26840W        W97440  44.967  33.987  10.438
26841W        W97441  13.180  24.114  12.678
26842W        W97442   4.421  26.363   4.390
26843W        W97443   5.348  23.724   2.753
26844W        W97444  43.352  29.893  11.321
26845W        W97445  29.107  17.065   2.752
26846W        W97446   6.362  32.430   3.673
26847W        W97447  32.348  26.429  14.370
26848W        W97448   4.257  39.905  10.188
26849W        W97449  34.414  35.609   4.140
26850W        W97450  23.014  44.281  12.933
26851W        W97451  31.233  42.492  10.660
26852W        W97452  18.058   6.775   3.638
26853W        W97453   9.777  15.648   2.802
26854W        W97454  16.596  36.742  12.555
26855W        W97455   1.500   5.175  12.124
26856W        W97456  35.892   3.229  12.069
26857W        W97457  34.324  30.543   1.801
26858W        W97458  31.521  29.741   1.655
26859W        W97459   4.179  29.184   1.142
26860W        W97460  26.085  37.097  14.054
26861W        W97461   4.812  37.864   3.652
26862W        W97462  39.796  20.469  10.303
26863W        W97463  14.624  32.640  14.468
26864W        W97464  33.309   1.790   4.077
26865W        W97465   5.639   8.879   4.516
26866W        W97466  21.532  14.245  12.357
26867W        W97467   6.838  32.616   3.757
26868W        W97468  41.501  14.281  13.959
26869W        W97469  27.194  43.543  10.667
26870W        W97470  31.564  29.003  12.671
26871W        W97471  15.992  16.202   3.640
26872W        W97472   8.994  34.347  14.449
26873W        W97473  11.142  12.292   0.291
26874W        W97474  18.378  11.044  13.051
26875W        W97475   7.103  24.602  13.496
26876W        W97476  19.453   6.312  12.325
26877W        W97477  44.555  16.760   2.650
26878W        W97478  18.773   4.882   3.613
26879W        W97479  42.965  19.265  12.948
26880W        W97480  16.053  10.372  10.153
26881W        W97481  24.582   1.416  12.171
26882W        W97482  31.910  33.707   2.937
26883W        W97483   4.009  24.581   1.848
26884W        W97484  37.299  10.136   4.120
26885W        W97485  17.149  23.616  12.103
26886W        W97486  30.528   9.985   5.044
26887W        W97487  28.277   1.468   2.202
26888W        W97488   3.876  16.528  11.127
26889W        W97489  39.349  15.773  12.632
26890W        W97490  21.462   0.305   5.055
26891W        W97491  19.564  11.636   2.215
26892W        W97492  35.162  43.510  14.724
26893W        W97493   7.364  15.292  10.501
26894W        W97494   9.824   1.919  12.388
26895W        W97495  11.143  12.863   1.331
26896W        W97496  11.355  28.443   3.270
26897W        W97497  43.448  36.682   0.452
26898W        W97498  15.204  40.596  11.471
26899W        W97499  37.451   3.169  13.936
26900W        W97500  10.919   8.523  14.632
26901W        W97501  14.204  39.613   2.710
26902W        W97502   1.175  25.135   0.892
26903W        W97503   5.452  24.138  12.584
26904W        W97504  17.775   8.197  11.721
26905W        W97505  37.954  22.965   4.633
26906W        W97506  15.931  26.935  11.200
26907W        W97507  10.141  24.207  13.504
26908W        W97508  16.516  11.767  14.503
26909W        W97509  13.368   3.248   0.322
26910W        W97510   7.736  22.270   4.418
26911W        W97511   1.219   2.000  10.454
26912W        W97512  42.252  37.790   1.812
26913W        W97513  15.497  25.418   3.096
26914W        W97514  18.816  26.716   2.789
26915W        W97515  32.760   2.416  10.656
26916W        W97516  42.262  14.517  14.449
26917W        W97517  23.640  37.816   0.520
26918W        W97518  31.950   0.932  11.574
26919W        W97519  24.714  43.492   3.228
26920W        W97520  18.802   6.478  14.264
26921W        W97521  30.096  24.984   1.842
26922W        W97522  13.353  11.203   0.814
26923W        W97523  14.233  20.079  12.620
26924W        W97524  12.570   5.245  12.018
26925W        W97525   3.418  21.324  13.030
26926W        W97526   1.358  36.175   4.149
26927W        W97527   1.429  39.105  14.053
26928W        W97528   1.299  36.599  13.604
26929W        W97529  16.913  19.332   0.558
26930W        W97530  37.499  28.389   2.662
26931W        W97531  17.288   8.991  12.805
26932W        W97532   5.288   6.203  14.590
26933W        W97533  37.288  37.418  14.044
26934W        W97534  31.997  25.587  10.693
26935W        W97535  18.676   1.676  14.087
26936W        W97536  10.261  16.452   3.107
26937W        W97537  20.552  23.115  11.451
26938W        W97538  28.060  21.694  11.946
26939W        W97539  32.038  28.958  13.952
26940W        W97540  23.127  35.030   1.257
26941W        W97541  22.636  12.081  14.308
26942W        W97542  29.146  38.017  11.967
26943W        W97543  24.636   9.882   2.830
26944W        W97544  38.019   1.133   3.098
26945W        W97545   6.428  31.984  12.009
26946W        W97546  31.921  41.934   0.789
26947W        W97547   9.622   7.717   2.779
26948W        W97548  32.617   5.533   0.896
26949W        W97549   9.389  30.211  14.348
26950W        W97550   2.698  21.576   0.342
26951W        W97551  32.117  44.718   3.991
26952W        W97552  26.734  26.790  13.983
26953W        W97553  34.832  25.382  10.205
26954W        W97554  31.711  18.255   1.459
26955W        W97555  22.681  20.667   1.367
26956W        W97556  24.843  29.653  14.025
26957W        W97557  32.064  24.999   0.995
26958W        W97558   8.842  40.320  11.059
26959W        W97559  24.154   4.004  14.265
26960W        W97560  26.673  43.060   2.248
26961W        W97561  31.520  39.732   1.487
26962W        W97562  19.226  10.376   3.516
26963W        W97563  30.130  23.254   2.397
26964W        W97564  34.337  34.976  13.576
26965W        W97565   8.421  35.350   2.175
26966W        W97566  43.034  25.454  12.498
26967W        W97567  30.643  38.003   2.699
26968W        W97568   5.341   1.023   3.591
26969W        W97569  32.518   1.193   1.829
26970W        W97570  26.711  10.953  14.679
26971W        W97571  13.812  36.165   0.653
26972W        W97572  40.757  29.086   3.892
26973W        W97573  15.023  26.074  12.210
26974W        W97574  20.171  29.143  13.483
26975W        W97575   0.086  44.045   3.304
26976W        W97576  30.554   2.967   4.431
26977W        W97577  24.238   5.840  14.722
26978W        W97578   2.511  42.876  13.871
26979W        W97579  33.345  22.592   0.883
26980W        W97580  12.132  33.515   4.106
26981W        W97581   8.712  30.716  13.767
26982W        W97582  40.444  22.117   3.669
26983W        W97583  17.865  40.814   2.597
26984W        W97584  29.518  15.794   0.644
26985W        W97585  36.918  29.904   0.449
26986W        W97586  31.643  36.577  14.434
26987W        W97587  42.482  32.128  13.838
26988W        W97588  28.635   8.688  12.454
26989W        W97589  22.620  35.052   4.069
26990W        W97590  36.810  31.916   4.532
26991W        W97591  33.699  21.681  12.680
26992W        W97592  37.701  33.599  13.430
26993W        W97593  41.878  22.198  13.030
26994W        W97594  35.060  25.375   0.828
26995W        W97595  32.889  11.738  12.977
26996W        W97596  25.985  15.097  12.114
26997W        W97597  38.499  27.556   1.779
26998W        W97598  27.562   6.443  11.464
26999W        W97599  11.241  11.058   1.518
27000W        W97600  34.788  43.071   1.947
27001W        W97601  44.794  40.385   1.362
27002W        W97602   6.257  25.704   1.252
27003W        W97603  13.077  42.972  13.441
27004W        W97604   1.437  39.257   4.563
27005W        W97605  18.737  34.496   2.730
27006W        W97606   4.967  28.059   4.551
27007W        W97607  44.119  17.673   0.036
27008W        W97608   2.723   5.016  11.698
27009W        W97609  25.081  44.911  10.085
27010W        W97610   7.444   0.015  12.518
27011W        W97611  10.847  35.000  13.351
27012W        W97612  20.272  12.106  13.319
27013W        W97613  26.756   5.280   0.494
27014W        W97614   0.999  33.815   0.505
27015W        W97615  30.877  42.807  12.470
27016W        W97616  22.673   6.200   3.019
27017W        W97617   5.311  17.571   0.414
27018W        W97618  38.569  31.885   4.566
27019W        W97619   6.286   8.208   4.293
27020W        W97620  26.516  37.416  11.646
27021W        W97621  37.921  37.907   2.914
27022W        W97622  15.314   3.161   1.724
27023W        W97623  20.329  12.829  10.493
27024W        W97624   5.039   3.689  13.320
27025W        W97625  42.250  17.046   2.626
27026W        W97626  36.843  11.754   0.494
27027W        W97627  39.286  38.841  11.965
27028W        W97628  28.529  33.881   4.997
27029W        W97629  28.789  44.246  10.219
27030W        W97630   8.904   4.830   4.484
27031W        W97631  22.143  31.427  10.636
27032W        W97632  22.671  15.792   4.720
27033W        W97633  41.430   9.943  12.741
27034W        W97634   7.341   3.271   3.301
27035W        W97635  18.805  26.206   1.751
27036W        W97636   5.907  32.680   2.202
27037W        W97637  38.052  40.417   0.852
27038W        W97638  27.800  21.800  14.407
27039W        W97639  37.484   7.147  12.405
27040W        W97640   3.253  12.699   2.830
27041W        W97641  36.247  17.132   4.087
27042W        W97642  17.982   9.434  14.964
27043W        W97643   0.809   6.845   0.264
27044W        W97644  43.992  41.038  12.510
27045W        W97645  27.669  29.131   0.498
27046W        W97646  42.204   5.140   0.460
27047W        W97647  31.830   6.712  12.921
27048W        W97648  12.692  35.576   3.819
27049W        W97649   8.908  31.596  10.786
27050W        W97650  35.578  19.046   0.254
27051W        W97651  18.518  33.441   4.330
27052W        W97652  25.689  43.399   2.242
27053W        W97653   8.258  21.143  13.509
27054W        W97654   7.764  27.018   3.252
27055W        W97655  12.849  33.084  12.010
27056W        W97656   2.838  31.810   1.669
27057W        W97657  33.936   4.782   4.335
27058W        W97658  24.313  30.591  10.309
27059W        W97659  10.477  44.572   0.814
27060W        W97660  28.896   4.558   2.016
27061W        W97661  28.515   4.344  14.995
27062W        W97662   1.639   4.949  11.409
27063W        W97663   7.023  36.165  12.399
27064W        W97664  23.933  23.628   3.281
27065W        W97665   7.445  35.837  10.935
27066W        W97666  12.063  28.119   2.818
27067W        W97667   8.466  42.952  10.463
27068W        W97668  30.942  18.726   3.225
27069W        W97669  17.886   9.408   1.509
27070W        W97670  31.359  33.180  11.547
27071W        W97671  42.848  40.799  10.937
27072W        W97672   4.788  17.545  14.849
27073W        W97673  42.556  28.438   2.840
27074W        W97674  30.058   3.545   4.719
27075W        W97675  35.050  18.384   2.669
27076W        W97676  14.693  43.911   3.096
27077W        W97677  33.212  27.189   0.532
27078W        W97678  23.740  36.738  11.538
27079W        W97679  41.439  21.066   0.972
27080W        W97680  13.084  40.791   1.845
27081W        W97681   4.008   1.907  14.091
27082W        W97682  27.617  39.056   4.351
27083W        W97683  22.539  34.870   0.354
27084W        W97684  31.078   5.783   2.063
27085W        W97685  23.557  21.494  13.664
27086W        W97686  32.127  23.247  14.352
27087W        W97687  27.185  10.783   3.846
27088W        W97688   4.093   4.931   1.351
27089W        W97689  33.993  13.920   4.572
27090W        W97690  10.294   0.897   4.674
27091W        W97691  39.063  14.756  10.363
27092W        W97692  19.282  11.736   2.663
27093W        W97693   7.971   2.277   2.556
27094W        W97694  20.326   0.855  10.150
27095W        W97695   0.731  32.074  13.880
27096W        W97696   4.403   1.926  12.459
27097W        W97697  44.230   3.410   3.601
27098W        W97698  14.386  16.748   1.295
27099W        W97699  15.211  21.998   2.812
27100W        W97700  19.860  44.964  13.827
27101W        W97701  25.725  43.936   0.933
27102W        W97702  41.397  20.106   3.251
27103W        W97703   2.467  36.061   3.173
27104W        W97704   3.466  43.898  13.908
27105W        W97705   7.011  32.219  13.509
27106W        W97706  10.595   6.806   4.050
27107W        W97707  18.745  30.177   4.250
27108W        W97708   3.327  28.728  11.601
27109W        W97709  25.572   0.026   0.193
27110W        W97710  22.329  31.161   0.018
27111W        W97711   8.340  13.995   3.727
27112W        W97712   0.668  23.580  12.664
27113W        W97713   7.921  28.521  14.002
27114W        W97714  28.648   9.512   3.213
27115W        W97715  15.066  32.069   3.392
27116W        W97716  25.757  20.252   0.846
27117W        W97717  35.118   8.960   0.840
27118W        W97718  34.717  21.016  12.125
27119W        W97719  22.057  41.024  14.788
27120W        W97720  20.213  34.829  13.939
27121W        W97721  30.661  22.597  10.440
27122W        W97722  26.470  33.099   0.400
27123W        W97723  10.654   4.674  11.994
27124W        W97724   3.840  22.205  13.911
27125W        W97725  32.071  28.962   4.620
27126W        W97726  33.089  14.335   3.367
27127W        W97727  35.707  18.020   4.082
27128W        W97728   5.446  14.166   4.067
27129W        W97729  21.056  39.677   2.340
27130W        W97730  28.410  37.918  10.587
27131W        W97731  29.754  36.183   1.845
27132W        W97732  35.816  24.687   1.699
27133W        W97733  27.238  33.072  14.679
27134W        W97734  11.886  30.612   2.627
27135W        W97735   8.097  23.511   0.038
27136W        W97736  26.590  44.597   1.412
27137W        W97737   0.039  35.357   0.795
27138W        W97738  40.978  36.937  13.367
27139W        W97739  41.334  23.957  11.261
27140W        W97740  35.635   9.247   3.871
27141W        W97741  30.404  15.699  13.853
27142W        W97742   5.859  22.664  10.603
27143W        W97743  14.121   4.409   2.368
27144W        W97744  13.773  25.623   3.997
27145W        W97745   1.828  23.213   1.418
27146W        W97746   7.786  15.552   0.900
27147W        W97747  38.067  22.129  12.974
27148W        W97748  14.698   8.411   3.686
27149W        W97749  43.028   0.572   0.798
27150W        W97750  14.664  14.343   2.345
27151W        W97751  25.223   0.949  11.728
27152W        W97752  35.885  17.262  13.036
27153W        W97753  38.091  22.529  13.892
27154W        W97754  38.950  33.969  11.398
27155W        W97755  39.435  20.513   3.655
27156W        W97756  14.465   3.820  10.716
27157W        W97757  28.605  14.290   4.513
27158W        W97758  35.932  40.972   3.365
27159W        W97759  42.342  20.187  13.082
27160W        W97760  35.038   6.610   3.580
27161W        W97761  33.101  39.513   3.288
27162W        W97762  18.543  32.972   4.576
27163W        W97763   0.499  33.975   3.824
27164W        W97764  12.604  12.179   4.670
27165W        W97765  17.740   4.157  14.131
27166W        W97766  12.155  15.203   1.259
27167W        W97767  12.664  17.291  12.568
27168W        W97768  28.454   0.458   0.026
27169W        W97769   6.879  31.060  13.145
27170W        W97770  17.791  27.999   3.614
27171W        W97771  32.101  16.844   0.236
27172W        W97772  38.651  39.086   3.224
27173W        W97773   8.917  29.610  10.652
27174W        W97774  43.072  19.186   0.419
27175W        W97775  42.567  33.400   1.827
27176W        W97776   7.289   7.256   0.292
27177W        W97777  18.582  34.145   2.343
27178W        W97778  18.999  16.363  14.858
27179W        W97779  15.339  12.165  12.560
27180W        W97780   8.489  22.098  10.784
27181W        W97781  38.649   7.955   3.233
27182W        W97782  25.710   7.065   1.347
27183W        W97783  21.186   7.093  11.466
27184W        W97784   0.567  33.963  14.876
27185W        W97785  19.454  22.120  10.435
27186W        W97786   8.899  42.876   2.210
27187W        W97787  19.123  43.235  10.701
27188W        W97788  40.443  13.394   0.049
27189W        W97789  16.483  35.849   2.943
27190W        W97790  16.647  25.780  11.532
27191W        W97791   4.371  22.873   0.767
27192W        W97792   8.918  26.258  14.959
27193W        W97793  11.899  19.316  13.542
27194W        W97794  34.627  25.650   2.089
27195W        W97795  10.610  39.948  12.801
27196W        W97796  22.581   9.564   4.546
27197W        W97797  39.843  37.247   4.125
27198W        W97798  31.517  44.491   0.838
27199W        W97799  18.976  29.401  10.268
27200W        W97800  19.808  36.396  14.354
27201W        W97801  20.063  11.390   4.901
27202W        W97802  10.817  44.760  10.600
27203W        W97803  39.060   7.419  12.082
27204W        W97804  20.583   9.324  14.071
27205W        W97805  22.190  32.955   3.715
27206W        W97806  38.914  16.490   2.688
27207W        W97807  28.507  41.775  11.464
27208W        W97808  36.904  34.783  11.651
27209W        W97809  38.402  29.951   0.737
27210W        W97810  40.456  34.870   4.507
27211W        W97811   6.527   5.741  12.967
27212W        W97812  39.688  17.692  13.836
27213W        W97813  24.760  37.132   0.262
27214W        W97814  39.682  36.042   2.805
27215W        W97815  40.524  26.449  14.678
27216W        W97816  42.520   9.637   4.300
27217W        W97817  22.706  44.893  11.390
27218W        W97818   7.757  20.106   4.527
27219W        W97819  10.217  40.482   1.386
27220W        W97820  19.143  35.530   3.054
27221W        W97821  35.586  14.601   4.037
27222W        W97822  18.064  28.389   0.768
27223W        W97823  37.423  21.632   3.374
27224W        W97824  36.092  40.394   3.167
27225W        W97825  18.609  23.495  11.709
27226W        W97826  36.776  27.978  11.950
27227W        W97827   9.789  26.414  14.398
27228W        W97828  23.706  16.244  14.362
27229W        W97829  29.994  35.426   1.846
27230W        W97830  35.026  14.519   0.239
27231W        W97831  38.237  25.339   3.642
27232W        W97832  33.372  31.629  12.093
27233W        W97833   4.340  19.985   4.113
27234W        W97834   5.275  40.366  13.355
27235W        W97835  39.695  14.060  11.625
27236W        W97836  34.469  31.607   3.593
27237W        W97837  37.207  15.548  11.080
27238W        W97838  16.357   2.307   2.817
27239W        W97839   2.706   9.404   3.843
27240W        W97840   1.732  11.525  11.520
27241W        W97841   0.698  11.187  14.156
27242W        W97842  24.245  23.489  12.194
27243W        W97843   4.701   6.652  10.649
27244W        W97844   8.260   7.311  13.011
27245W        W97845  20.497  31.713   1.297
27246W        W97846   9.554  26.529   3.330
27247W        W97847  31.961  21.232  10.638
27248W        W97848  37.510  31.902   1.960
27249W        W97849  40.337  25.507   1.788
27250W        W97850  44.399  30.692  13.010
27251W        W97851  41.045  22.509  11.999
27252W        W97852  41.841  14.072   4.692
27253W        W97853   0.571  15.076  14.278
27254W        W97854  27.621  23.432   0.811
27255W        W97855  11.403  13.626   3.683
27256W        W97856  41.487  30.502   3.374
27257W        W97857  27.149  29.876  11.650
27258W        W97858  26.643  24.175   1.470
27259W        W97859  29.179  16.550  12.881
27260W        W97860   7.089  29.407  14.392
27261W        W97861   1.941  25.159  13.384
27262W        W97862   5.932  17.639  11.635
27263W        W97863  15.294  32.574  13.800
27264W        W97864  13.708  11.247   4.702
27265W        W97865   7.480   8.673   4.157
27266W        W97866   1.501   9.161   2.374
27267W        W97867   3.861  15.648  13.382
27268W        W97868  19.206  17.148  10.689
27269W        W97869  37.339  35.437  14.112
27270W        W97870  30.614  23.850   4.579
27271W        W97871  11.731  31.104  14.346
27272W        W97872  23.020  33.384   2.068
27273W        W97873   6.499  34.591   1.723
27274W        W97874  44.895  39.488   3.569
27275W        W97875   2.791  38.404  12.797
27276W        W97876  40.435  10.282   1.916
27277W        W97877  34.109   3.520   1.278
27278W        W97878  18.519  13.389  12.103
27279W        W97879   4.354  14.764   3.550
27280W        W97880  36.914  39.893   4.586
27281W        W97881  22.586   3.855   3.371
27282W        W97882  23.034   9.142  14.260
27283W        W97883   3.247  18.229   2.880
27284W        W97884   8.263  31.005  10.641
27285W        W97885  15.927  20.874   1.385
27286W        W97886   5.425  12.543  14.515
27287W        W97887  42.799  31.526  12.573
27288W        W97888  15.834  19.218   3.187
27289W        W97889  16.755  40.543   2.146
27290W        W97890  21.462  18.200   2.373
27291W        W97891  23.666  10.936   2.338
27292W        W97892   7.118   6.724  14.984
27293W        W97893  39.631  17.642  11.107
27294W        W97894  12.734  37.491   3.394
27295W        W97895  31.745   8.816  10.293
27296W        W97896  32.481  32.150   3.049
27297W        W97897  43.173  43.042  13.866
27298W        W97898  30.098  22.661   4.740
27299W        W97899  30.895  13.602  13.715
27300W        W97900  43.546  41.401   1.737
27301W        W97901  30.489   2.712  11.127
27302W        W97902   7.443  37.508  13.454
27303W        W97903   5.895  27.421   1.294
27304W        W97904  44.255   9.135   1.457
27305W        W97905  20.047  23.295   1.381
27306W        W97906   2.748  14.584  14.420
27307W        W97907   8.843  35.977  14.845
27308W        W97908   9.679   7.951  14.955
27309W        W97909  11.007   0.940  14.322
27310W        W97910  12.190  36.080  12.885
27311W        W97911  27.249  16.706  13.051
27312W        W97912  14.420  37.384   1.842
27313W        W97913  16.635  33.371  13.041
27314W        W97914  11.888  22.343  12.375
27315W        W97915  38.815  33.667  14.832
27316W        W97916  31.433  15.653  11.157
27317W        W97917  22.205  29.647   3.597
27318W        W97918   4.367  30.409  13.100
27319W        W97919  19.133  15.706   0.483
27320W        W97920  14.322  23.759  14.815
27321W        W97921  22.217   7.177  12.571
27322W        W97922  43.983  15.243  10.715
27323W        W97923  10.299  30.541   1.600
27324W        W97924  44.005  18.591  13.964
27325W        W97925   7.783  28.635  11.998
27326W        W97926  23.384  10.623  14.974
27327W        W97927   9.637  44.327   0.219
27328W        W97928  21.199  13.576   0.862
27329W        W97929   7.505  11.032  14.941
27330W        W97930  41.443  35.695   0.278
27331W        W97931  32.107  36.291   0.376
27332W        W97932  31.434  28.183   0.387
27333W        W97933  10.259   2.813  14.365
27334W        W97934  24.238  31.283   2.217
27335W        W97935  22.500  11.778   4.487
27336W        W97936  30.486  37.156   3.302
27337W        W97937  16.703  39.666   4.643
27338W        W97938   0.238  43.302  13.587
27339W        W97939  11.817  17.489  12.924
27340W        W97940  12.744  23.949  12.940
27341W        W97941  37.800  38.058  10.577
27342W        W97942  28.979  13.771  14.874
27343W        W97943   3.326  39.303   2.768
27344W        W97944  18.367  17.340  13.826
27345W        W97945  19.026  14.840  10.587
27346W        W97946  26.091  11.934   0.811
27347W        W97947  39.371   2.041   4.428
27348W        W97948  30.221   6.818   1.465
27349W        W97949  27.992  43.010  12.087
27350W        W97950  22.272  43.003   2.778
27351W        W97951  11.117  37.517  14.116
27352W        W97952  29.164  18.855   1.023
27353W        W97953  42.308   4.141  12.502
27354W        W97954  30.748  31.820   0.698
27355W        W97955  10.516   7.769   4.122
27356W        W97956  37.967  32.010   3.275
27357W        W97957   0.585  24.431   2.335
27358W        W97958  14.149  36.949   4.317
27359W        W97959  17.135  44.886   1.765
27360W        W97960  17.283  28.972   2.439
27361W        W97961  36.398  41.351  14.422
27362W        W97962  20.611  37.292  13.491
27363W        W97963  32.791   9.841   1.472
27364W        W97964  20.584  30.328   2.068
27365W        W97965  19.141  30.281  10.292
27366W        W97966  43.353  38.518  10.785
27367W        W97967  35.098  13.823   4.353
27368W        W97968   0.278  40.531   0.815
27369W        W97969  25.659  37.485  11.679
27370W        W97970   2.922  27.618  12.918
27371W        W97971  29.609   4.252   0.778
27372W        W97972   2.693  42.990   0.256
27373W        W97973  15.237  24.408  14.502
27374W        W97974  17.676   3.691  13.936
27375W        W97975   2.859  39.800   4.165
27376W        W97976  23.585   5.390   1.284
27377W        W97977  11.295  43.097  11.479
27378W        W97978  36.603  36.816   0.989
27379W        W97979  41.217  15.112  12.939
27380W        W97980  21.878  11.775  10.741
27381W        W97981  38.983  19.716  11.938
27382W        W97982  31.460  28.166  13.151
27383W        W97983  43.941  28.949  12.035
27384W        W97984   2.246  40.974  13.308
27385W        W97985  20.615  24.525   2.090
27386W        W97986  40.990  19.543   4.038
27387W        W97987  20.707  35.829   2.754
27388W        W97988  34.074  42.150   0.337
27389W        W97989  32.913  41.403  12.343
27390W        W97990  26.334  20.684   4.937
27391W        W97991  43.373  13.564  12.983
27392W        W97992  42.887  36.359   4.920
27393W        W97993  35.947   4.376  12.857
27394W        W97994   9.407  32.227  12.483
27395W        W97995   1.632   7.561   0.840
27396W        W97996  26.143   1.201  10.493
27397W        W97997   2.253   9.258   4.628
27398W        W97998  44.472  29.534  14.827
27399W        W97999  22.484  32.059  11.941
27400W        W98000  22.797  12.388   0.475
27401W        W98001  25.702  29.629   3.075
27402W        W98002   9.251  23.650   1.719
27403W        W98003  11.490   6.185   0.653
27404W        W98004  13.066   7.677  13.635
27405W        W98005  12.754  44.516  13.351
27406W        W98006   1.105   7.724  10.617
27407W        W98007  10.941  28.937   0.691
27408W        W98008   7.076  37.528  12.436
27409W        W98009  28.978  38.146  14.471
27410W        W98010  21.240  10.367  11.320
27411W        W98011  39.559  11.352  10.903
27412W        W98012  21.570   2.715   2.516
27413W        W98013   9.706  17.566  10.748
27414W        W98014  14.290  14.826   1.427
27415W        W98015   6.413  32.761   0.772
27416W        W98016   3.759   4.733   0.198
27417W        W98017  14.276   2.847   4.646
27418W        W98018  18.743  22.900  13.828
27419W        W98019   3.288  44.055   4.803
27420W        W98020  28.896   5.337   1.002
27421W        W98021  11.298  13.585  14.871
27422W        W98022  25.986  17.226  14.747
27423W        W98023   8.410  40.920   3.608
27424W        W98024   6.620  12.753   1.453
27425W        W98025   2.408  12.920   3.781
27426W        W98026  10.135  23.639   4.184
27427W        W98027  12.153  29.408  11.131
27428W        W98028  44.480   0.858  11.866
27429W        W98029  24.152  11.785   3.600
27430W        W98030  24.665  31.592   1.860
27431W        W98031  19.658  18.855   4.290
27432W        W98032  22.767  31.744   0.739
27433W        W98033  31.109  43.681  14.913
27434W        W98034  40.421   8.998   2.286
27435W        W98035  22.581  33.590  14.584
27436W        W98036  23.755   7.970   0.482
27437W        W98037   2.172  31.693  13.761
27438W        W98038  39.475  10.011  11.151
27439W        W98039  23.788  20.971   4.925
27440W        W98040  18.082   1.928  10.964
27441W        W98041  27.494  22.936   0.929
27442W        W98042  10.853  35.442   0.235
27443W        W98043  18.305  36.516   0.347
27444W        W98044  41.523  25.631  14.564
27445W        W98045  44.352   0.029   3.635
27446W        W98046  35.910   4.099   4.696
27447W        W98047   9.718  16.960   3.770
27448W        W98048  41.987  36.846   0.354
27449W        W98049  31.437  18.371   1.892
27450W        W98050  40.066  44.883  11.814
27451W        W98051  43.408  23.443  11.067
27452W        W98052  21.731  13.791  13.682
27453W        W98053   0.421  25.910  10.978
27454W        W98054  24.113   7.687  13.870
27455W        W98055  42.688  18.370  14.464
27456W        W98056   3.897  26.386   0.281
27457W        W98057  37.538  26.781  14.928
27458W        W98058   6.908  43.685   0.368
27459W        W98059  15.036  39.441  11.628
27460W        W98060   8.114  32.994   0.319
27461W        W98061  18.146  44.267  13.049
27462W        W98062  14.114  23.923  11.591
27463W        W98063  36.521  29.014   3.641
27464W        W98064  17.152   6.378   5.023
27465W        W98065  10.156  10.735  11.147
27466W        W98066  24.187  27.720   0.826
27467W        W98067  36.852   2.662  13.775
27468W        W98068  22.785  26.693   4.791
27469W        W98069  32.707   5.898   1.309
27470W        W98070   9.956  21.226   0.070
27471W        W98071  29.995  23.660   3.135
27472W        W98072  19.797  13.061   4.145
27473W        W98073  18.119  37.173   2.280
27474W        W98074   8.604  21.205   2.776
27475W        W98075  37.753  22.906  12.601
27476W        W98076  21.135  37.080   3.633
27477W        W98077  10.675   9.817  14.318
27478W        W98078  41.957  35.930  10.712
27479W        W98079   5.998  12.301   0.361
27480W        W98080   9.219  36.802   1.690
27481W        W98081  30.275  36.535  12.133
27482W        W98082  16.703  13.566   0.801
27483W        W98083  43.370  30.217  10.909
27484W        W98084  26.214   3.231   5.066
27485W        W98085  40.037  23.110   3.261
27486W        W98086   8.330  33.593   4.694
27487W        W98087   3.492  19.831  10.827
27488W        W98088  22.662  12.644   1.772
27489W        W98089   3.422  22.043  12.254
27490W        W98090  22.638   7.679   1.819
27491W        W98091   6.251  28.599  14.421
27492W        W98092  10.234  30.425   4.086
27493W        W98093  43.921  21.826   4.411
27494W        W98094  11.182  42.487   3.649
27495W        W98095  38.909  23.093   0.717
27496W        W98096   7.225   8.790   1.367
27497W        W98097  21.605  18.273   3.821
27498W        W98098   2.708  31.710   0.430
27499W        W98099  11.745  35.469   3.418
27500W        W98100  13.241  31.946  13.849
27501W        W98101  23.503  28.816  12.986
27502W        W98102  28.373  44.417   4.636
27503W        W98103  21.792  29.686  12.539
27504W        W98104  30.932   9.392  11.610
27505W        W98105   2.835  11.591   1.355
27506W        W98106  44.194  22.651   3.311
27507W        W98107  38.915  24.233  11.128
27508W        W98108  13.602  12.049   1.864
27509W        W98109   2.701  35.973   1.709
27510W        W98110   5.701  27.517  14.486
27511W        W98111  16.009  34.948   1.907
27512W        W98112  11.822  33.406  12.735
27513W        W98113  26.308  15.550   3.375
27514W        W98114  25.427  35.330  11.199
27515W        W98115  38.925  24.512  11.893
27516W        W98116  43.860   5.814  14.106
27517W        W98117   5.250  19.786   1.548
27518W        W98118   7.902  44.981   0.178
27519W        W98119  34.366  27.542   3.826
27520W        W98120  21.749  43.619   3.897
27521W        W98121  10.635  33.015  12.405
27522W        W98122  11.787  22.315   1.344
27523W        W98123  10.235  42.245   3.203
27524W        W98124  19.110   3.026  13.908
27525W        W98125   1.577  17.349   2.430
27526W        W98126  39.964  42.319   1.454
27527W        W98127   7.621  30.307  14.177
27528W        W98128  11.604  27.911   2.824
27529W        W98129  40.677   2.353   2.764
27530W        W98130  35.338  26.010   1.828
27531W        W98131  16.049  23.720  13.013
27532W        W98132  33.494  15.684  13.365
27533W        W98133  18.684  39.920   3.936
27534W        W98134  44.811  38.768  11.112
27535W        W98135  40.941  14.515  11.365
27536W        W98136  33.486  19.720   0.401
27537W        W98137  39.199  22.859   1.913
27538W        W98138  26.811  34.963  12.459
27539W        W98139  28.234  44.459   0.513
27540W        W98140  18.372  14.083  12.472
27541W        W98141  44.193  10.489   1.678
27542W        W98142   1.152  32.421   2.036
27543W        W98143  28.160  43.958   5.009
27544W        W98144   7.911  16.749   3.626
27545W        W98145  36.541  39.087   4.622
27546W        W98146   2.895  16.630  10.725
27547W        W98147  19.720  34.033   4.288
27548W        W98148  27.270  33.118  11.153
27549W        W98149  34.922  13.702   0.459
27550W        W98150  43.253  38.430  12.091
27551W        W98151  27.713   8.084  13.332
27552W        W98152   2.963   0.406  14.839
27553W        W98153  23.208  22.341   3.170
27554W        W98154  35.248  17.262   4.053
27555W        W98155  39.448  36.333   1.787
27556W        W98156  33.512  25.532   1.788
27557W        W98157  40.343  24.151   1.415
27558W        W98158  41.369  40.568  14.228
27559W        W98159  23.647  23.905  11.196
27560W        W98160  20.656   8.681   0.285
27561W        W98161  33.431  16.195  10.290
27562W        W98162  35.387  25.211   1.290
27563W        W98163  37.388   4.350   5.133
27564W        W98164   6.448   3.942   0.924
27565W        W98165   6.841   8.643  11.509
27566W        W98166  22.232   4.932   2.815
27567W        W98167   5.843  16.777   4.029
27568W        W98168  26.735   8.300  14.963
27569W        W98169   0.226  34.821  10.664
27570W        W98170   1.451   7.914  11.578
27571W        W98171  44.498  20.305  11.364
27572W        W98172  34.896  19.671  12.733
27573W        W98173  30.904  31.248   3.245
27574W        W98174  27.869   7.902   3.622
27575W        W98175  41.393  33.926  12.224
27576W        W98176   9.135  33.296  14.939
27577W        W98177  28.122  41.030  11.850
27578W        W98178  24.277  39.003   2.143
27579W        W98179  27.537  26.873   3.641
27580W        W98180  11.622  25.874   1.807
27581W        W98181  37.109  15.919  13.501
27582W        W98182  39.626   2.150   3.564
27583W        W98183   7.576  16.622   2.297
27584W        W98184  43.904  17.768  10.735
27585W        W98185  41.942  33.902  14.898
27586W        W98186  39.976   5.138   2.852
27587W        W98187  17.695  34.434   0.535
27588W        W98188  42.538  20.356   0.049
27589W        W98189  21.360  18.242  12.807
27590W        W98190   0.639  32.607  13.919
27591W        W98191  20.364  17.950  10.711
27592W        W98192   4.795  11.741  10.713
27593W        W98193  42.576  14.557   1.911
27594W        W98194  24.608  23.799  13.501
27595W        W98195  37.526  16.532   2.921
27596W        W98196  19.182   0.958  11.244
27597W        W98197  39.294  35.901  11.102
27598W        W98198   2.799  28.002  11.229
27599W        W98199  40.299  42.944   1.788
27600W        W98200  33.461  28.082   4.982
27601W        W98201   5.417   1.820  12.048
27602W        W98202  25.651   9.450  14.881
27603W        W98203  38.318  24.555  12.457
27604W        W98204  39.991  38.929  12.613
27605W        W98205  16.342  43.341   3.248
27606W        W98206   9.536  17.088  10.661
27607W        W98207   2.075  27.123  14.282
27608W        W98208  28.975  44.786   2.533
27609W        W98209  15.688  19.037  12.857
27610W        W98210  27.980  40.580  13.508
27611W        W98211  41.389  16.390   0.435
27612W        W98212   3.551  23.729  11.939
27613W        W98213  27.531  36.881   3.443
27614W        W98214  12.280  17.774   2.230
27615W        W98215  33.954  19.718  12.307
27616W        W98216  11.416  29.983   3.792
27617W        W98217  28.940  44.540  10.999
27618W        W98218  17.040  39.437   1.444
27619W        W98219   9.754  26.249  10.453
27620W        W98220  38.110  26.340  14.356
27621W        W98221   2.987   5.453   3.639
27622W        W98222  30.842  12.868   0.180
27623W        W98223  27.250  40.036   0.928
27624W        W98224  10.778  18.208  10.649
27625W        W98225   2.481  29.914  13.453
27626W        W98226  21.861   9.706   1.458
27627W        W98227   4.402  43.540   3.301
27628W        W98228   8.221  37.989   2.737
27629W        W98229   5.832  19.125  11.036
27630W        W98230   3.430  19.814   4.585
27631W        W98231  34.403  26.268   3.223
27632W        W98232  41.348  11.483   4.794
27633W        W98233  42.945  12.145  13.821
27634W        W98234  15.636   6.095   3.083
27635W        W98235  32.464  20.238   2.807
27636W        W98236   7.775  24.615   1.703
27637W        W98237  29.516  23.420   4.774
27638W        W98238   0.407   6.252  13.257
27639W        W98239  33.094  10.781  13.823
27640W        W98240  25.497  20.520   2.318
27641W        W98241  25.057   4.352   3.607
27642W        W98242  16.341  29.657  14.375
27643W        W98243   4.245  40.323   4.658
27644W        W98244   8.194   9.429   0.353
27645W        W98245  21.452  23.544   3.214
27646W        W98246   3.317   6.797  10.600
27647W        W98247  17.349  43.836  13.013
27648W        W98248   2.119   7.375   0.885
27649W        W98249  29.053  34.861  12.344
27650W        W98250   7.656  44.546   0.930
27651W        W98251  39.687  24.146  13.381
27652W        W98252   5.878  10.777   3.842
27653W        W98253   4.727   3.535   2.287
27654W        W98254  39.030  13.301   3.759
27655W        W98255  43.038   9.915   0.353
27656W        W98256  24.855   1.887  10.847
27657W        W98257  29.572  25.097  14.894
27658W        W98258   3.410  29.732  14.542
27659W        W98259  37.350  11.424  10.707
27660W        W98260  22.288  39.028   1.171
27661W        W98261  38.946  17.842   1.395
27662W        W98262   5.238   2.941   3.634
27663W        W98263   8.157  27.291  12.397
27664W        W98264  23.261  31.634  11.490
27665W        W98265  11.728  32.389   4.234
27666W        W98266  34.518  44.816   3.009
27667W        W98267  19.236  22.506  12.482
27668W        W98268  28.492  25.742   2.226
27669W        W98269   8.074  12.232   3.026
27670W        W98270   8.153  15.506   2.864
27671W        W98271  12.044  17.208   4.168
27672W        W98272  34.414  38.919   1.055
27673W        W98273  26.957  23.176   3.111
27674W        W98274  17.841  24.064   2.876
27675W        W98275  33.174  36.083  11.583
27676W        W98276  24.500   7.176  11.529
27677W        W98277  34.388   0.215  12.397
27678W        W98278  42.799  38.141   1.755
27679W        W98279  30.073  21.926  11.936
27680W        W98280  43.814  22.036   1.847
27681W        W98281  38.089  13.874  12.472
27682W        W98282  15.862  29.645  10.575
27683W        W98283  34.257   8.863   1.044
27684W        W98284  31.847  32.129  14.434
27685W        W98285  30.121  29.924   0.948
27686W        W98286  37.332  42.916  10.300
27687W        W98287  20.653  36.341   2.740
27688W        W98288   1.516   4.624  12.217
27689W        W98289   5.960  23.485   0.291
27690W        W98290  19.332  11.829  13.838
27691W        W98291   9.195  23.264   3.289
27692W        W98292   2.021  28.431  11.126
27693W        W98293   6.944  16.108  12.885
27694W        W98294  11.300   6.687  14.008
27695W        W98295   2.361   2.693  11.427
27696W        W98296  38.408  28.133  12.778
27697W        W98297   1.983  42.146   3.217
27698W        W98298  35.295  41.878   3.721
27699W        W98299  36.379  14.904   2.066
27700W        W98300  44.979  20.767  11.091
27701W        W98301  37.044   9.272  14.966
27702W        W98302   6.998  30.390   4.299
27703W        W98303  12.821  43.662   2.284
27704W        W98304   3.768  33.701  14.037
27705W        W98305  11.794  29.149  13.129
27706W        W98306  39.056  41.332   3.779
27707W        W98307  11.402  41.183   3.135
27708W        W98308  41.861  14.026  12.951
27709W        W98309  35.025   9.241   1.286
27710W        W98310  39.209   5.773   5.143
27711W        W98311   7.806   5.214   2.699
27712W        W98312  20.741  28.439  13.152
27713W        W98313  39.583   2.497  13.873
27714W        W98314   9.358  20.491  14.693
27715W        W98315  26.576  27.619   1.027
27716W        W98316   2.837   2.470  11.435
27717W        W98317  24.613  31.027   4.369
27718W        W98318  13.856   2.037   4.072
27719W        W98319  30.358   9.779   0.903
27720W        W98320  21.688  15.665  14.025
27721W        W98321  13.916  35.801  14.448
27722W        W98322  25.679  34.205  12.697
27723W        W98323  37.484  14.689  12.463
27724W        W98324  13.887  17.699   2.199
27725W        W98325  43.546  32.660   3.165
27726W        W98326  28.795   6.198  12.300
27727W        W98327  43.958  11.283   4.617
27728W        W98328  24.918  19.190   1.262
27729W        W98329  27.076  27.190   4.851
27730W        W98330  28.527  37.402  14.534
27731W        W98331   2.049  17.105   0.826
27732W        W98332  32.408  37.826   1.659
27733W        W98333  22.129  44.472   0.830
27734W        W98334  18.628  25.157  12.111
27735W        W98335  40.833  36.059  12.268
27736W        W98336  42.067  11.060   1.723
27737W        W98337  22.092  23.938  12.512
27738W        W98338  26.602  28.187   4.139
27739W        W98339  44.648   2.866  11.151
27740W        W98340  22.531   7.422  12.132
27741W        W98341  14.768   8.306  10.960
27742W        W98342  13.924  39.483   4.318
27743W        W98343  35.542   4.337  14.007
27744W        W98344   8.641   5.922  11.781
27745W        W98345  14.705  24.670   4.489
27746W        W98346  12.094  25.559  11.008
27747W        W98347   1.051  29.561  10.754
27748W        W98348  20.597  36.360  12.165
27749W        W98349  38.030  31.864   3.763
27750W        W98350  12.099  22.734  11.475
27751W        W98351  28.588  27.063   0.247
27752W        W98352  19.223  15.545  12.312
27753W        W98353  17.025   7.337   2.085
27754W        W98354   3.028   2.028   4.188
27755W        W98355  35.745  22.398   0.416
27756W        W98356   8.822  34.650  10.681
27757W        W98357  22.682  35.535   1.872
27758W        W98358  37.604  43.380   1.383
27759W        W98359  44.647  25.956   4.985
27760W        W98360  29.219  39.590  13.426
27761W        W98361   2.255   6.191   2.222
27762W        W98362  17.662  34.978   1.883
27763W        W98363   6.162  40.007  13.592
27764W        W98364  31.320  20.895   3.961
27765W        W98365  19.160   4.338   0.527
27766W        W98366  42.423  37.206   1.387
27767W        W98367  25.172  24.310  11.951
27768W        W98368  42.987  18.745  13.877
27769W        W98369  19.737  17.628   3.779
27770W        W98370  29.955  13.093  14.631
27771W        W98371  28.018  39.325   2.080
27772W        W98372  34.862  22.705  14.706
27773W        W98373  10.591  17.263  12.457
27774W        W98374   4.120  24.038   1.844
27775W        W98375  20.265  16.262  11.591
27776W        W98376  43.791  29.673  11.175
27777W        W98377  26.166  39.389  13.301
27778W        W98378  16.471   2.364  12.198
27779W        W98379  29.116   5.933  10.490
27780W        W98380  42.776  26.888  10.708
27781W        W98381  27.680  12.450   0.302
27782W        W98382  40.230  22.193   4.560
27783W        W98383  24.440  33.025   4.963
27784W        W98384  18.269  12.598  11.511
27785W        W98385  21.532  31.966   3.214
27786W        W98386  36.838  27.437   3.606
27787W        W98387   2.421  17.435   0.641
27788W        W98388  36.314  37.641   0.724
27789W        W98389  31.820   8.434  12.520
27790W        W98390  28.469  32.308  14.817
27791W        W98391  38.989  22.589   0.937
27792W        W98392   5.841  25.989   1.374
27793W        W98393  30.332  32.686  14.052
27794W        W98394   7.424  16.137   4.962
27795W        W98395  21.203   7.128  13.452
27796W        W98396  34.172  26.617  10.856
27797W        W98397   7.270  24.969  13.834
27798W        W98398   2.238  43.847   1.727
27799W        W98399  25.010  19.026   1.746
27800W        W98400  18.183  12.756   3.349
27801W        W98401  13.558  31.549   3.195
27802W        W98402  14.025   4.807  13.922
27803W        W98403  38.761  20.538   0.936
27804W        W98404  14.776  21.198   3.130
27805W        W98405  36.451  32.204  12.896
27806W        W98406   2.798   3.890  12.613
27807W        W98407  11.797   2.010   3.702
27808W        W98408  43.800   2.502   1.388
27809W        W98409  18.778   6.659   4.535
27810W        W98410  20.295  18.232   3.313
27811W        W98411   9.365  13.688  10.568
27812W        W98412   0.537  17.700   2.124
27813W        W98413   4.204   0.380  14.760
27814W        W98414  36.568  23.033  13.521
27815W        W98415  14.529   3.831  11.398
27816W        W98416  37.339  23.193  12.447
27817W        W98417  12.892  31.544   2.806
27818W        W98418  25.715  15.204   2.751
27819W        W98419  14.578  27.729  11.100
27820W        W98420  17.695  42.517   0.398
27821W        W98421  16.674  37.003  14.316
27822W        W98422  19.537  25.605   3.472
27823W        W98423  19.486  10.119  14.885
27824W        W98424  21.710  44.388  12.575
27825W        W98425  30.466   2.133   3.170
27826W        W98426  11.429  21.114   3.143
27827W        W98427  39.184  36.109   4.676
27828W        W98428  15.179  42.442   2.131
27829W        W98429   1.216  27.214   0.381
27830W        W98430   8.971   9.886   3.606
27831W        W98431   9.003  35.800   4.191
27832W        W98432  32.136   5.874  12.519
27833W        W98433  42.372  12.144  12.534
27834W        W98434   7.809  20.631   2.705
27835W        W98435  10.171  31.948   1.767
27836W        W98436  10.178  31.154   4.459
27837W        W98437  13.468  21.029  11.155
27838W        W98438  31.426  29.927   1.014
27839W        W98439   8.295  25.712  13.005
27840W        W98440   5.062  41.476  12.093
27841W        W98441  40.917  38.255   1.815
27842W        W98442  11.796  29.222  11.634
27843W        W98443  12.520  35.729   0.435
27844W        W98444  17.511  35.891   3.543
27845W        W98445   6.855   3.679  13.485
27846W        W98446  22.676  42.688   3.715
27847W        W98447  42.345  11.226  10.783
27848W        W98448   3.503  33.613  11.131
27849W        W98449  17.996  12.660   4.663
27850W        W98450  43.236  16.691   0.986
27851W        W98451   8.556  18.076  14.303
27852W        W98452   1.702  22.642   3.883
27853W        W98453  15.062  20.673  10.713
27854W        W98454  31.251  21.805  11.139
27855W        W98455  21.872  21.192  12.427
27856W        W98456  38.480  33.994   3.343
27857W        W98457  22.730  25.662   4.119
27858W        W98458   0.008  29.679   1.886
27859W        W98459   9.327  18.507  14.122
27860W        W98460  34.269  25.467  13.529
27861W        W98461  41.497  14.975   3.124
27862W        W98462   2.462   4.023  14.617
27863W        W98463  33.795  25.939   2.643
27864W        W98464   2.972  17.040  14.676
27865W        W98465  35.465   5.918   4.730
27866W        W98466   8.828  38.320  12.530
27867W        W98467   3.813  44.233   3.102
27868W        W98468   7.130  25.367   1.036
27869W        W98469  32.933  14.834  11.037
27870W        W98470   2.676  40.802  13.917
27871W        W98471  24.086  44.146   0.283
27872W        W98472  26.786   5.876   1.716
27873W        W98473   1.012  16.157   1.768
27874W        W98474  32.458  35.535  14.277
27875W        W98475  30.027  36.326  12.531
27876W        W98476   0.926  41.086   2.260
27877W        W98477  39.469  21.546  11.896
27878W        W98478  41.317  12.567  13.932
27879W        W98479  18.790  20.577  10.998
27880W        W98480  18.329  40.820   0.513
27881W        W98481  39.137  37.950   3.909
27882W        W98482  42.262  26.503   4.597
27883W        W98483  33.511  37.081  13.584
27884W        W98484  11.146   8.877  13.423
27885W        W98485   5.866  37.584   0.888
27886W        W98486  19.600   0.367   4.981
27887W        W98487   4.207  23.279   0.214
27888W        W98488  31.033   5.261  10.645
27889W        W98489  19.045  30.359   5.277
27890W        W98490  29.364  33.470   4.580
27891W        W98491  13.603  42.838  12.063
27892W        W98492   6.516  23.057   1.715
27893W        W98493  42.771  10.175   0.752
27894W        W98494  37.344  17.194  14.983
27895W        W98495  19.180  29.183   3.611
27896W        W98496   1.574   8.899  14.453
27897W        W98497  37.698  38.480  11.656
27898W        W98498   7.865  40.894   3.679
27899W        W98499  40.165   6.246   4.974
27900W        W98500  40.908  29.168   0.379
27901W        W98501  44.452  21.885   1.511
27902W        W98502   1.213  30.089  12.656
27903W        W98503  31.133  19.800  11.730
27904W        W98504  14.673   9.168   0.012
27905W        W98505  43.025  24.678   3.772
27906W        W98506  36.486   5.225   2.732
27907W        W98507  33.996  32.743   3.093
27908W        W98508  26.528  44.705   5.131
27909W        W98509  28.591   8.024  13.835
27910W        W98510   8.411  38.924  12.146
27911W        W98511   6.719  17.630   4.174
27912W        W98512  20.614  27.466  13.381
27913W        W98513  30.361  44.354   1.603
27914W        W98514  15.972  21.216   3.395
27915W        W98515  33.219  13.627   4.511
27916W        W98516  32.570  22.908   0.425
27917W        W98517  35.458  31.830   4.867
27918W        W98518  23.685  10.316   2.392
27919W        W98519   6.028  44.613  14.584
27920W        W98520   3.700  11.754   2.682
27921W        W98521   7.197  19.853   1.738
27922W        W98522  41.276  41.524  13.708
27923W        W98523  34.313  28.358   2.602
27924W        W98524   0.925  10.047  11.124
27925W        W98525  38.084  32.036  13.449
27926W        W98526  27.936   6.219  11.054
27927W        W98527  16.302  28.502   2.662
27928W        W98528  24.707  37.616  14.349
27929W        W98529   3.801  43.760  13.524
27930W        W98530  31.669   5.840   1.327
27931W        W98531  29.667  36.418  11.461
27932W        W98532  31.091  29.468   1.774
27933W        W98533  43.399  39.328  12.524
27934W        W98534  12.795  35.882   4.196
27935W        W98535  25.222  36.971   2.593
27936W        W98536   0.870  10.123  14.289
27937W        W98537   4.958  34.865   2.357
27938W        W98538  10.614  24.064   2.695
27939W        W98539   9.752  21.003   2.198
27940W        W98540  32.137  18.580  12.799
27941W        W98541  17.420  20.961   3.475
27942W        W98542   0.906  39.381   0.493
27943W        W98543   4.324  28.452   2.321
27944W        W98544  29.148  43.395   1.631
27945W        W98545  44.733  42.982  10.600
27946W        W98546  24.184  21.187   4.683
27947W        W98547  11.704  25.485  14.049
27948W        W98548  31.707   2.525   3.198
27949W        W98549  25.636   5.965  14.209
27950W        W98550  10.069  14.850  11.562
27951W        W98551  10.933  23.603   0.482
27952W        W98552  34.495  24.656  13.323
27953W        W98553  43.859  44.289   4.162
27954W        W98554   8.637  33.899  14.410
27955W        W98555   9.193  22.727   3.296
27956W        W98556  33.675   8.843  12.435
27957W        W98557  40.974  37.914   0.224
27958W        W98558  31.870   6.124  13.083
27959W        W98559  25.617  12.274  10.784
27960W        W98560   2.382  11.265   3.619
27961W        W98561  44.374  20.134   4.073
27962W        W98562  20.326   5.468  14.762
27963W        W98563  29.327  14.229   2.719
27964W        W98564  36.268   8.767   4.155
27965W        W98565   9.063   2.613  11.656
27966W        W98566  13.620  28.473  14.821
27967W        W98567   6.338  40.557   3.643
27968W        W98568   0.193  21.745   0.601
27969W        W98569  26.637  33.365   0.822
27970W        W98570  27.700   8.352   0.274
27971W        W98571  29.186   4.134   2.707
27972W        W98572  41.846  16.108   4.644
27973W        W98573  39.559  44.019  14.297
27974W        W98574  35.497  15.438  11.616
27975W        W98575  23.779   0.241  11.050
27976W        W98576  18.631  40.817  14.388
27977W        W98577  40.015   0.938  10.716
27978W        W98578  20.491  34.138  14.375
27979W        W98579  27.841   1.434   0.426
27980W        W98580  31.933  43.289   3.218
27981W        W98581  13.903   0.260   2.645
27982W        W98582  40.581  41.400   3.796
27983W        W98583  33.929  10.972  11.088
27984W        W98584   3.046   4.381  11.573
27985W        W98585  21.308  28.019   1.738
27986W        W98586  35.712  30.061   1.849
27987W        W98587   2.041   6.903  14.708
27988W        W98588  17.342  39.973  11.482
27989W        W98589  38.348  11.134   1.217
27990W        W98590  19.953  10.720  14.292
27991W        W98591   1.334   1.342   1.458
27992W        W98592   8.066  12.741   1.284
27993W        W98593  27.161  11.194  10.643
27994W        W98594  40.871   8.198  14.793
27995W        W98595  24.760  39.286   3.714
27996W        W98596  12.630  38.372  13.695
27997W        W98597  30.933  42.522   1.380
27998W        W98598  11.612   8.617  10.324
27999W        W98599  12.250   0.572   4.597
28000W        W98600  42.816   3.244  11.189
28001W        W98601  10.881  24.016   2.223
28002W        W98602  24.563  22.542   4.659
28003W        W98603  22.657  10.010   1.208
28004W        W98604   2.860  14.139   2.784
28005W        W98605  25.940  37.146   4.660
28006W        W98606  28.600   0.952  12.505
28007W        W98607   6.634  24.356  13.461
28008W        W98608   5.196  10.268   0.952
28009W        W98609   7.953  36.613  13.265
28010W        W98610  22.688  29.935   2.326
28011W        W98611  42.549  21.865  11.759
28012W        W98612  38.760   3.367  14.778
28013W        W98613  34.133  11.796   3.201
28014W        W98614  43.130  43.195   4.089
28015W        W98615   9.304  42.707  12.888
28016W        W98616  43.483  15.061  10.734
28017W        W98617   1.039  43.411  11.164
28018W        W98618  23.723  28.407  13.929
28019W        W98619  14.817  14.791   0.799
28020W        W98620  38.589  38.015  11.107
28021W        W98621  27.860  11.785   3.749
28022W        W98622  15.276  35.969  12.605
28023W        W98623  12.604  25.520   2.805
28024W        W98624   7.823  13.889   4.250
28025W        W98625   5.328  24.712   1.258
28026W        W98626  40.407  42.299  12.776
28027W        W98627  44.530  36.051  12.178
28028W        W98628  21.249  39.830  12.481
28029W        W98629  15.335  16.548   4.515
28030W        W98630  18.071  24.646   2.766
28031W        W98631  38.028  28.224   3.722
28032W        W98632  24.099  18.264  12.425
28033W        W98633  16.603   5.139  11.877
28034W        W98634  31.481  22.700  13.358
28035W        W98635  41.731   3.002  11.514
28036W        W98636  11.253  23.496  12.356
28037W        W98637  29.967  35.552  14.066
28038W        W98638  27.509  24.147  14.982
28039W        W98639   0.820   6.722   0.773
28040W        W98640  24.229  30.526   2.688
28041W        W98641  34.092  19.127  13.009
28042W        W98642  19.686  17.756  11.155
28043W        W98643  26.044  41.001  14.565
28044W        W98644  34.378  21.180  10.939
28045W        W98645  15.477  18.778   1.971
28046W        W98646  33.518  26.117   3.028
28047W        W98647   6.663   6.222   4.884
28048W        W98648  19.527  18.074  12.383
28049W        W98649  20.473  22.046   4.634
28050W        W98650  14.229  40.944  13.550
28051W        W98651  42.073  18.357   4.122
28052W        W98652  24.021   0.813  11.753
28053W        W98653   5.899  29.129  13.565
28054W        W98654  10.923  16.824  12.278
28055W        W98655   4.230  21.699   1.393
28056W        W98656  24.153  10.393  11.382
28057W        W98657  43.732  22.346  10.721
28058W        W98658  23.441   6.922   3.164
28059W        W98659  17.369  28.976   1.039
28060W        W98660  38.312   8.286   3.918
28061W        W98661   2.247  37.385  11.602
28062W        W98662   2.726  22.350  11.160
28063W        W98663  28.016  34.245   3.247
28064W        W98664  25.079  22.284  12.440
28065W        W98665  25.587  30.074  12.027
28066W        W98666  34.205  41.032  14.400
28067W        W98667  34.821  21.228   2.325
28068W        W98668  12.113  34.983   3.906
28069W        W98669  42.572   1.307  13.542
28070W        W98670  13.268  43.204  14.128
28071W        W98671  39.022   9.914   0.435
28072W        W98672  14.258  20.824  11.042
28073W        W98673  34.988  37.267   2.624
28074W        W98674  11.194  20.639  12.122
28075W        W98675  43.162  14.286  13.519
28076W        W98676   6.785  34.554  12.354
28077W        W98677  34.189  16.684   0.212
28078W        W98678  26.705  21.007  13.616
28079W        W98679  40.621  21.604  10.037
28080W        W98680  17.987  22.247  14.501
28081W        W98681  25.687   9.341   3.788
28082W        W98682  13.618  35.023  13.195
28083W        W98683  17.786   8.466   3.074
28084W        W98684  16.147  13.573  14.078
28085W        W98685   3.359   6.760   0.810
28086W        W98686   3.763  25.208   2.430
28087W        W98687  12.027  28.754  11.611
28088W        W98688  30.688  30.082  12.665
28089W        W98689  41.193  43.123   0.266
28090W        W98690   8.280  26.400   4.210
28091W        W98691  35.497  29.850   3.434
28092W        W98692   2.202  29.446  11.972
28093W        W98693  17.017  44.956   3.754
28094W        W98694  18.640   6.503  14.748
28095W        W98695  38.054  41.518   1.703
28096W        W98696  10.742   8.790  13.791
28097W        W98697  17.261  36.348  14.426
28098W        W98698  36.311  38.653   2.744
28099W        W98699  38.935  11.378   0.437
28100W        W98700  37.454  19.615   0.008
28101W        W98701  25.612   9.688  13.977
28102W        W98702  34.469  31.890   4.029
28103W        W98703   4.957  21.011  13.280
28104W        W98704  44.646  10.956  13.008
28105W        W98705  21.747  12.537  13.564
28106W        W98706  39.130  39.096   3.473
28107W        W98707  21.163   5.811   2.755
28108W        W98708   1.215  25.196   2.717
28109W        W98709   0.913  30.007   2.329
28110W        W98710  32.592   2.822   2.153
28111W        W98711  19.555  37.388   4.292
28112W        W98712  15.475  34.630  12.526
28113W        W98713  28.908   7.736   0.262
28114W        W98714  36.633   7.425  11.632
28115W        W98715  31.609  43.457   0.646
28116W        W98716  14.289  26.513   1.397
28117W        W98717  31.686  26.061  14.569
28118W        W98718  37.863  25.195  11.993
28119W        W98719   9.587  44.182  13.863
28120W        W98720  10.463  30.167  10.523
28121W        W98721  33.490  41.992   4.231
28122W        W98722  31.844  35.554  14.918
28123W        W98723  22.036  15.032  13.051
28124W        W98724   4.489  38.977  11.825
28125W        W98725  39.317  17.350  13.955
28126W        W98726  33.742  31.606   4.142
28127W        W98727  42.914  31.562   4.701
28128W        W98728  14.014   5.498   9.957
28129W        W98729  21.523  33.617   0.913
28130W        W98730  20.121  28.489  14.181
28131W        W98731  33.871  38.327   4.488
28132W        W98732  22.232  31.547   2.782
28133W        W98733   8.493   7.656   1.464
28134W        W98734  36.466  29.665  10.780
28135W        W98735  40.964  16.465   5.008
28136W        W98736   2.815  29.227   3.208
28137W        W98737  21.554  13.333  13.865
28138W        W98738  17.626  31.419  13.933
28139W        W98739  36.479  30.977   1.003
28140W        W98740  34.021  28.191   3.178
28141W        W98741  30.846  13.569  10.704
28142W        W98742  27.165  26.973   3.114
28143W        W98743  20.824  12.435  12.677
28144W        W98744   6.874  19.729   0.250
28145W        W98745  11.231  12.773   2.243
28146W        W98746  37.569  24.869   0.922
28147W        W98747  24.039  30.314   4.335
28148W        W98748  20.656  15.884   0.758
28149W        W98749  16.044  35.563   0.692
28150W        W98750   6.375  42.793   1.901
28151W        W98751  38.704  23.494  12.057
28152W        W98752  24.873   6.343  14.845
28153W        W98753  35.643  30.978   1.183
28154W        W98754  10.595  11.598  10.027
28155W        W98755  13.349  30.484  13.362
28156W        W98756  39.076   5.812   2.397
28157W        W98757  35.875  27.544   0.865
28158W        W98758  44.437  29.713   3.129
28159W        W98759  15.707  38.004   4.715
28160W        W98760  24.226   2.531  12.223
28161W        W98761  24.999  17.078  14.735
28162W        W98762  29.373   2.181  14.506
28163W        W98763  29.854  42.569   4.663
28164W        W98764   0.415   8.324   2.711
28165W        W98765  35.635   9.760  13.555
28166W        W98766  25.505  15.169  11.984
28167W        W98767  41.638   4.862  14.362
28168W        W98768  27.911  32.524   3.194
28169W        W98769   8.767  33.214  10.900
28170W        W98770  34.521   7.847   1.828
28171W        W98771   7.458  36.338  10.704
28172W        W98772  10.911  14.236   3.365
28173W        W98773   2.957  30.672   3.375
28174W        W98774   6.792  33.143   4.406
28175W        W98775  36.982  31.066  14.476
28176W        W98776   8.109  34.521  13.601
28177W        W98777  18.353   8.885   4.346
28178W        W98778  36.875  36.538  11.115
28179W        W98779  19.121   8.215   1.507
28180W        W98780  20.684  14.612   0.333
28181W        W98781  10.889  26.233  12.079
28182W        W98782  29.312  14.803  14.083
28183W        W98783  20.209  34.520  13.474
28184W        W98784  33.408  43.396   1.898
28185W        W98785  23.146  29.372  14.893
28186W        W98786  17.252  39.630  14.432
28187W        W98787  37.509  42.773   4.122
28188W        W98788  29.497  37.342  11.864
28189W        W98789  26.449   8.738  14.818
28190W        W98790  20.267  35.167  14.905
28191W        W98791   4.614   9.156   0.822
28192W        W98792  24.279  28.777   3.884
28193W        W98793  43.921  20.911   3.789
28194W        W98794  28.546  16.656   2.348
28195W        W98795  19.329   8.051   4.929
28196W        W98796  37.306  17.483  14.436
28197W        W98797  35.642   2.389   3.401
28198W        W98798  11.890  44.323   1.184
28199W        W98799  15.809  23.470  10.770
28200W        W98800  27.158  20.566   3.806
28201W        W98801   0.805  43.994  13.028
28202W        W98802   8.121   5.873  12.479
28203W        W98803  10.852  15.632  13.893
28204W        W98804  15.918   0.194   0.454
28205W        W98805   2.283  23.679  11.603
28206W        W98806  36.526  35.062  14.791
28207W        W98807   0.458  17.288   4.569
28208W        W98808  42.871  43.760  13.426
28209W        W98809   6.518  29.954  12.093
28210W        W98810   7.214  13.342  10.503
28211W        W98811  35.450   8.788   4.633
28212W        W98812  35.436   2.556  14.460
28213W        W98813  29.937  17.169   4.752
28214W        W98814  43.069  37.102  10.550
28215W        W98815  25.574   7.919  14.425
28216W        W98816  31.184  36.116   0.273
28217W        W98817  24.491  39.155   0.401
28218W        W98818  43.959  24.548   1.430
28219W        W98819  11.025  41.281  11.108
28220W        W98820  41.779   1.255   0.975
28221W        W98821  35.087  27.353  10.808
28222W        W98822  36.681   7.205  13.401
28223W        W98823  35.594  13.634  13.418
28224W        W98824   4.627  10.944  11.064
28225W        W98825  14.578   9.834   1.003
28226W        W98826   8.896  26.938  13.580
28227W        W98827   1.257   5.484   3.554
28228W        W98828   5.281  16.200  11.473
28229W        W98829   9.755  11.461  13.975
28230W        W98830  19.068  12.487   0.856
28231W        W98831   9.722   4.791   0.933
28232W        W98832   7.946  14.389  12.562
28233W        W98833   3.401  11.430  13.820
28234W        W98834   9.881  16.716  10.672
28235W        W98835   3.973  25.954  14.439
28236W        W98836  30.609  36.336   3.971
28237W        W98837  16.677  33.306  10.935
28238W        W98838   1.714   5.859  13.113
28239W        W98839  23.037  22.607  10.303
28240W        W98840  25.747  11.822  11.688
28241W        W98841   0.273  33.490   1.028
28242W        W98842  43.322  28.655  12.486
28243W        W98843  18.187   9.959  11.656
28244W        W98844  15.853  29.099   0.754
28245W        W98845  31.000  40.242  11.654
28246W        W98846   1.660   1.785   0.750
28247W        W98847  43.910   4.930   3.512
28248W        W98848  36.641   8.887   3.783
28249W        W98849  37.534  22.041   2.048
28250W        W98850  15.900  13.115   1.823
28251W        W98851  22.994  32.972   1.455
28252W        W98852   4.236  36.975  11.534
28253W        W98853  32.461  15.905  13.067
28254W        W98854  17.569  42.448  11.436
28255W        W98855   9.838   7.148   1.778
28256W        W98856  41.899  26.791   0.710
28257W        W98857  39.824  11.084  14.489
28258W        W98858  38.035  30.331   4.643
28259W        W98859  32.810  11.025   4.290
28260W        W98860   3.186  38.843  12.090
28261W        W98861  15.592  21.349   4.542
28262W        W98862  11.450  10.893  14.859
28263W        W98863  44.878  38.248  13.888
28264W        W98864   9.769  43.205  12.332
28265W        W98865  42.427  24.439   0.763
28266W        W98866  43.585  20.008  14.999
28267W        W98867  35.350  25.186   2.447
28268W        W98868  38.519  11.610   4.738
28269W        W98869  31.371  11.211   2.408
28270W        W98870  12.448  25.904   4.997
28271W        W98871  23.962  34.567  11.206
28272W        W98872  22.484  38.256  11.489
28273W        W98873  18.665  37.928  11.662
28274W        W98874  29.585  10.834   4.334
28275W        W98875  14.270   7.266  13.058
28276W        W98876  37.003  24.631   1.650
28277W        W98877  25.397  42.761   2.699
28278W        W98878  37.060   5.769   3.853
28279W        W98879  27.231  19.963  11.273
28280W        W98880  27.511  21.190  12.412
28281W        W98881  34.809  11.266  14.861
28282W        W98882  23.985   2.436  14.347
28283W        W98883  15.846   7.922  12.460
28284W        W98884  15.988  18.744   1.901
28285W        W98885   0.727  33.099  11.394
28286W        W98886  38.906  39.851   4.628
28287W        W98887   3.498  22.076   4.830
28288W        W98888  17.664  29.659   2.628
28289W        W98889   5.770  16.303  11.512
28290W        W98890  33.639  13.757   1.735
28291W        W98891   1.470  22.288   3.577
28292W        W98892  40.844  34.534  14.526
28293W        W98893   8.864  20.210   0.824
28294W        W98894   0.317  26.177  11.411
28295W        W98895  16.070  29.909   4.612
28296W        W98896  31.879  31.165   2.240
28297W        W98897   3.416   8.129   3.169
28298W        W98898   7.230  24.244  11.097
28299W        W98899  19.529   8.449  10.726
28300W        W98900  26.600  27.037  11.661
28301W        W98901  30.048  17.632   0.915
28302W        W98902  40.501   7.717   3.626
28303W        W98903  41.639  10.193   2.250
28304W        W98904  38.018  33.551   4.156
28305W        W98905  17.119  39.431  13.974
28306W        W98906   0.830   6.364  14.214
28307W        W98907  10.818   1.408  10.870
28308W        W98908  42.361  20.637  13.331
28309W        W98909  12.948  40.237  13.500
28310W        W98910   8.359  31.551  10.720
28311W        W98911  14.691   7.340  12.767
28312W        W98912   1.376  37.198   4.354
28313W        W98913  31.146  18.217   3.235
28314W        W98914  41.262  10.754  13.848
28315W        W98915   0.516  17.599   1.157
28316W        W98916  21.850  32.815  11.138
28317W        W98917  38.399   6.389   4.284
28318W        W98918  27.102  36.418  12.908
28319W        W98919  23.481  35.565   2.818
28320W        W98920  17.970  24.479  13.505
28321W        W98921  34.909  22.970  12.779
28322W        W98922  41.053  37.492  11.690
28323W        W98923  20.722  22.783  12.438
28324W        W98924  37.812   3.837  12.055
28325W        W98925   5.913  33.432   0.208
28326W        W98926  12.682  38.352   1.241
28327W        W98927  17.710   3.665  13.048
28328W        W98928  27.051   9.541   1.903
28329W        W98929   6.757   1.723   2.388
28330W        W98930  15.960  11.218   2.239
28331W        W98931  43.518   8.019  11.914
28332W        W98932   6.214  17.219  11.611
28333W        W98933   6.881   6.931   2.918
28334W        W98934  38.041  15.836  11.654
28335W        W98935  25.816  39.561   2.893
28336W        W98936  12.461  18.998  10.759
28337W        W98937  41.502  20.346   2.762
28338W        W98938  18.657  15.157   1.710
28339W        W98939  24.324  26.856  14.078
28340W        W98940  30.601  30.856  14.273
28341W        W98941   2.361   1.768   2.736
28342W        W98942  15.065  37.398   4.198
28343W        W98943   8.373  36.638  12.934
28344W        W98944   6.193  43.251  13.972
28345W        W98945  29.258  24.674  14.874
28346W        W98946  12.279  28.584   0.314
28347W        W98947  13.187  18.598   0.786
28348W        W98948   4.521  31.638  10.604
28349W        W98949  26.235  10.881   3.753
28350W        W98950   2.421  41.511   4.209
28351W        W98951  15.762  30.117   0.919
28352W        W98952  44.803   6.689   2.635
28353W        W98953  24.654  41.762  11.918
28354W        W98954  16.240  15.880  13.568
28355W        W98955  34.825  15.404   0.151
28356W        W98956   9.654  24.915  12.439
28357W        W98957  17.124   4.648   2.244
28358W        W98958  42.357  29.526   0.263
28359W        W98959   1.379  27.748   2.108
28360W        W98960  36.868  23.683   0.375
28361W        W98961  39.626   5.365  12.652
28362W        W98962  15.800  40.761   0.810
28363W        W98963  18.196  35.606   1.679
28364W        W98964  26.941  11.295   3.711
28365W        W98965  44.742  25.467   2.766
28366W        W98966  17.680  40.581   4.684
28367W        W98967   8.385  19.626  13.751
28368W        W98968  29.158  26.664  10.879
28369W        W98969  32.326  21.007   0.297
28370W        W98970  43.929  36.631  14.371
28371W        W98971  21.032   2.451  13.030
28372W        W98972  29.641  10.464  12.101
28373W        W98973  32.383  27.341  12.666
28374W        W98974  24.113  41.052  10.723
28375W        W98975  12.678  22.877  13.022
28376W        W98976   6.858  18.541   1.783
28377W        W98977   1.217  34.443  10.321
28378W        W98978  28.182  24.715   3.172
28379W        W98979   6.515  39.585  12.861
28380W        W98980  23.882  17.153  11.475
28381W        W98981  25.790   0.674   3.059
28382W        W98982  17.776  31.854   4.855
28383W        W98983  24.166  17.220   4.736
28384W        W98984  40.270   7.858  11.667
28385W        W98985  41.469  42.249   1.870
28386W        W98986  39.006  16.833   1.421
28387W        W98987  30.724   2.748   3.421
28388W        W98988  30.382  16.156   2.663
28389W        W98989  16.810  26.716  14.230
28390W        W98990   8.348  31.487  14.505
28391W        W98991  20.741  33.664   1.382
28392W        W98992   4.854  15.854  10.594
28393W        W98993  39.027   7.568   1.040
28394W        W98994  12.687  21.718  11.229
28395W        W98995  17.387  13.774  14.437
28396W        W98996  31.913   5.187   0.631
28397W        W98997  29.614  39.927   1.920
28398W        W98998  42.101  30.460  10.443
28399W        W98999   9.309  31.007  12.943
28400W        W99000  20.835  14.959   4.184
28401W        W99001  17.225  25.242   0.347
28402W        W99002   7.766  42.143   3.762
28403W        W99003  19.623  16.203  11.202
28404W        W99004  11.243  23.157   0.326
28405W        W99005  36.718  11.688   2.214
28406W        W99006   7.420   8.926  12.611
28407W        W99007  38.421   3.715   0.517
28408W        W99008   6.444   7.317   2.320
28409W        W99009  26.792  34.166  14.330
28410W        W99010  17.974  17.058   0.946
28411W        W99011   5.393  34.792  10.785
28412W        W99012  42.310  27.611   3.164
28413W        W99013   1.681   5.782   3.433
28414W        W99014  29.391  43.946  14.397
28415W        W99015  23.026  36.163  12.055
28416W        W99016  10.926  27.603   0.036
28417W        W99017  19.459  31.001   2.990
28418W        W99018  16.059  38.726   3.228
28419W        W99019   0.549   4.708   0.761
28420W        W99020  21.680  19.554   0.230
28421W        W99021  16.185  15.267  11.473
28422W        W99022  20.490  19.241  11.078
28423W        W99023  12.059  27.576  13.371
28424W        W99024  39.475  25.381   1.639
28425W        W99025  11.601  42.087   2.914
28426W        W99026  16.972  13.941   1.941
28427W        W99027  34.279  15.879   1.904
28428W        W99028  24.366  41.089   0.520
28429W        W99029  21.133   4.940   4.647
28430W        W99030  28.100  18.308  12.959
28431W        W99031  18.217   9.145  13.836
28432W        W99032  29.527  22.951  12.600
28433W        W99033  32.407  31.441  14.292
28434W        W99034  38.032   8.142  14.829
28435W        W99035   3.912  30.959   0.726
28436W        W99036  21.607  36.958   0.802
28437W        W99037   5.823  18.777  14.160
28438W        W99038  39.217  16.073  12.111
28439W        W99039   4.736  25.730   0.845
28440W        W99040  40.278  43.326   0.158
28441W        W99041  14.070   7.789  14.429
28442W        W99042  39.770  14.296  11.170
28443W        W99043   4.773  18.475  13.529
28444W        W99044  41.104  34.532   3.179
28445W        W99045  43.329  11.673   4.299
28446W        W99046  40.284  24.662   2.960
28447W        W99047  27.908   3.378  12.924
28448W        W99048  30.448  30.919  12.105
28449W        W99049  11.030   6.989  11.667
28450W        W99050   4.820   1.822  10.456
28451W        W99051   8.645  44.853   0.881
28452W        W99052  20.210  30.902  10.639
28453W        W99053  30.087  30.086   0.442
28454W        W99054   9.692  25.445   2.413
28455W        W99055  39.730  14.620  13.578
28456W        W99056  23.632  34.500   0.824
28457W        W99057  22.240  21.371   1.996
28458W        W99058   2.747  21.620  12.004
28459W        W99059  14.715  36.033  11.954
28460W        W99060   7.331   2.968  14.338
28461W        W99061   5.153  27.238   2.180
28462W        W99062   0.606  42.352  13.190
28463W        W99063  25.761  41.846   4.287
28464W        W99064  17.279   1.879  14.030
28465W        W99065  32.346   6.729   4.040
28466W        W99066  10.366  14.639   5.208
28467W        W99067  40.920  25.149   1.768
28468W        W99068  36.508  12.175   3.878
28469W        W99069  36.828   9.815   0.664
28470W        W99070   6.655  22.469  14.929
28471W        W99071  10.677  40.471   0.531
28472W        W99072  13.154  38.051  11.212
28473W        W99073  20.824   1.179  12.005
28474W        W99074  18.689  40.854   1.923
28475W        W99075  10.736  25.263   3.407
28476W        W99076   6.973   4.828   2.244
28477W        W99077  14.281  31.826   2.175
28478W        W99078  21.424  30.907  13.059
28479W        W99079  26.738  18.618   1.269
28480W        W99080   7.925   6.667   0.474
28481W        W99081   9.070  44.852  14.269
28482W        W99082  37.395   9.083  11.164
28483W        W99083  31.486  26.706   4.961
28484W        W99084  32.355  29.150  10.150
28485W        W99085  39.474  42.552   1.382
28486W        W99086   4.448  32.146   3.160
28487W        W99087  42.945   5.157  13.033
28488W        W99088  36.299  27.691  12.009
28489W        W99089   1.795  35.998   1.390
28490W        W99090   3.092  32.409   2.315
28491W        W99091  23.651  19.903  13.487
28492W        W99092  39.852  32.529   1.880
28493W        W99093   9.066  30.695   2.396
28494W        W99094   0.250  31.041   0.251
28495W        W99095  32.607  14.731  13.469
28496W        W99096  28.761   3.688  13.109
28497W        W99097  37.341  26.059   4.362
28498W        W99098  39.294  39.558  10.627
28499W        W99099   4.023  34.980   1.961
28500W        W99100  30.480   7.753  11.771
28501W        W99101  30.588   7.897  11.305
28502W        W99102  27.686  31.092   0.313
28503W        W99103  35.972  28.851  14.339
28504W        W99104   9.867   9.395  11.207
28505W        W99105  22.691  34.489  13.525
28506W        W99106  22.266  17.544   2.427
28507W        W99107   6.781  38.431  12.587
28508W        W99108  11.637   0.187  11.116
28509W        W99109  12.160  40.318  11.501
28510W        W99110  21.663  33.612  14.128
28511W        W99111   1.884   8.425   2.158
28512W        W99112  39.292  41.718   2.700
28513W        W99113  15.236  37.820   4.524
28514W        W99114  18.927  19.319   5.192
28515W        W99115  15.823  22.501   3.773
28516W        W99116  32.464   3.838  14.515
28517W        W99117  18.111  29.462   2.818
28518W        W99118  29.533  20.783   0.313
28519W        W99119  18.601  11.319   0.088
28520W        W99120  17.096   0.779   0.301
28521W        W99121  20.169  20.121   3.140
28522W        W99122  39.408  19.947   4.521
28523W        W99123  39.681   7.718   4.472
28524W        W99124   2.333  22.457  14.319
28525W        W99125  38.235   8.896  11.411
28526W        W99126   1.603  37.656  12.182
28527W        W99127  24.154  14.267  11.076
28528W        W99128  14.088  16.761   2.618
28529W        W99129  19.536  27.537  14.275
28530W        W99130   8.149  37.584  12.852
28531W        W99131  33.410   5.778  10.500
28532W        W99132  14.267  32.877   3.926
28533W        W99133  24.137  42.246  11.450
28534W        W99134   2.790  12.170   4.101
28535W        W99135  22.073  28.572   0.861
28536W        W99136  38.367  44.338  10.545
28537W        W99137   4.958  42.042   1.677
28538W        W99138  39.619  32.702  14.974
28539W        W99139  21.265  34.545   4.229
28540W        W99140  30.056   9.250   3.994
28541W        W99141  14.119  35.012  13.025
28542W        W99142   1.673   5.509  13.503
28543W        W99143  37.666  16.808  13.488
28544W        W99144   7.837   6.327  11.645
28545W        W99145   5.645  41.363   1.686
28546W        W99146  41.363   2.816  12.937
28547W        W99147  15.350  11.853  10.558
28548W        W99148  26.127   3.344   4.083
28549W        W99149  33.899  15.599  11.587
28550W        W99150  36.380   4.007   1.306
28551W        W99151  19.218  18.174   0.353
28552W        W99152  37.697   9.591   1.882
28553W        W99153   9.756   7.778  12.006
28554W        W99154   9.332   0.411   4.868
28555W        W99155  13.583  25.163   2.696
28556W        W99156  16.686  26.716   1.199
28557W        W99157  39.095   0.462   4.163
28558W        W99158   5.318   0.420   0.619
28559W        W99159  33.838  21.010   0.491
28560W        W99160   9.630   8.953   4.712
28561W        W99161  13.548  35.995  13.170
28562W        W99162   9.751  33.982  13.413
28563W        W99163   2.122  40.380   5.142
28564W        W99164  37.398  23.491  14.267
28565W        W99165  21.502  29.077  14.838
28566W        W99166   6.893  13.355   3.693
28567W        W99167  38.941   1.555  12.413
28568W        W99168  21.623  30.439   4.643
28569W        W99169  38.353  16.759  14.493
28570W        W99170  11.664  38.977  11.025
28571W        W99171   9.634  38.409  12.900
28572W        W99172   8.020  20.815  12.775
28573W        W99173  38.470  20.028  14.951
28574W        W99174   9.229  31.116   3.341
28575W        W99175  14.174  43.561  11.095
28576W        W99176  31.626  18.198  13.386
28577W        W99177   2.408  34.443  13.878
28578W        W99178  12.524  41.085   3.319
28579W        W99179  23.674   0.461  14.483
28580W        W99180  44.212  14.383  13.027
28581W        W99181  29.593  29.779   1.086
28582W        W99182  40.431   7.790  14.324
28583W        W99183   2.309  38.294   4.849
28584W        W99184  41.133  41.333  12.813
28585W        W99185   7.885  10.760  13.389
28586W        W99186   5.620   9.083  11.151
28587W        W99187  37.564   1.246  11.919
28588W        W99188  32.045  17.564   1.898
28589W        W99189  31.926  23.130   3.339
28590W        W99190  33.604  30.614  11.278
28591W        W99191  36.326  29.147  12.976
28592W        W99192  27.526  39.294   0.547
28593W        W99193  41.002  24.454   3.808
28594W        W99194  43.201  44.010   4.472
28595W        W99195  22.969   3.734  14.824
28596W        W99196  21.807  28.031  13.452
28597W        W99197   5.521  41.799   0.017
28598W        W99198  39.862  10.937  14.000
28599W        W99199  37.110  38.098   1.302
28600W        W99200   0.962  23.145   4.654
28601W        W99201  24.712  17.257   4.663
28602W        W99202   9.033  14.095  10.587
28603W        W99203   6.429  22.542   2.389
28604W        W99204  15.586   2.383   3.558
28605W        W99205   3.054  13.976   3.237
28606W        W99206  28.200  37.943  10.060
28607W        W99207  10.301  33.616   3.160
28608W        W99208   9.583  17.750   0.508
28609W        W99209  29.999   8.203  14.837
28610W        W99210   6.208  37.808  11.053
28611W        W99211  17.872  32.103   4.061
28612W        W99212  14.073  32.878   2.391
28613W        W99213  13.295  43.460  13.666
28614W        W99214  10.914  36.175  11.725
28615W        W99215  40.227   1.750   0.005
28616W        W99216  23.408  24.416  13.372
28617W        W99217  30.626  44.974  13.941
28618W        W99218  19.508   7.163  14.152
28619W        W99219  41.550  20.184  13.884
28620W        W99220  30.338  42.029   9.974
28621W        W99221  12.861  44.193   2.409
28622W        W99222  11.957  41.999   3.314
28623W        W99223  23.590   2.370  11.006
28624W        W99224   7.611  19.805   0.825
28625W        W99225  40.830  20.583  10.608
28626W        W99226  35.904   0.332  14.933
28627W        W99227  17.767   7.415   2.422
28628W        W99228  25.280   4.236  12.105
28629W        W99229  15.552  24.287   5.018
28630W        W99230  39.737   5.695  13.045
28631W        W99231  33.044  14.444  12.900
28632W        W99232   0.034  22.302   0.347
28633W        W99233  44.472  24.809   0.704
28634W        W99234  20.044  22.074  13.330
28635W        W99235  38.199  37.856  13.124
28636W        W99236   5.825  29.926   4.324
28637W        W99237  39.939   4.862   0.921
28638W        W99238  43.634  19.514  13.769
28639W        W99239  24.654  26.954  10.913
28640W        W99240  13.069  23.745   3.150
28641W        W99241   9.634  42.345   3.667
28642W        W99242  42.852  17.317   1.286
28643W        W99243   8.209  41.286  14.901
28644W        W99244   8.119  32.055  11.387
28645W        W99245   1.976  25.653  12.690
28646W        W99246  43.603   7.862   1.823
28647W        W99247  32.844  24.896   2.248
28648W        W99248  40.716  29.861  14.889
28649W        W99249  40.866  24.753  10.583
28650W        W99250   9.653   3.392   1.069
28651W        W99251   8.391  15.015   0.283
28652W        W99252  32.188   2.836  11.950
28653W        W99253  32.254  11.745   2.398
28654W        W99254  21.043  14.451  11.936
28655W        W99255  11.703   7.806  13.111
28656W        W99256  11.027   2.259  13.446
28657W        W99257  22.685   2.201  14.046
28658W        W99258  41.526  41.874  14.894
28659W        W99259  12.431   1.160  12.147
28660W        W99260  29.964  33.071  13.151
28661W        W99261  25.875  22.053   3.684
28662W        W99262  23.246  25.644  12.504
28663W        W99263  31.716  16.395  10.574
28664W        W99264   5.378   1.735   4.277
28665W        W99265  36.152  13.815   3.370
28666W        W99266  43.356  13.751  13.873
28667W        W99267  26.454  37.836  12.835
28668W        W99268  13.087  41.464  11.500
28669W        W99269   4.148   5.340  14.148
28670W        W99270   8.041   4.613   4.640
28671W        W99271  20.138  25.751  10.166
28672W        W99272  34.894  43.867   2.763
28673W        W99273  36.036  30.108  13.398
28674W        W99274   9.314  32.025   3.196
28675W        W99275   0.422   0.641  13.321
28676W        W99276  37.069  44.745  12.548
28677W        W99277   1.682  16.181   1.300
28678W        W99278  35.971  30.441  10.677
28679W        W99279  25.029  33.691  12.890
28680W        W99280   6.964  20.105  11.158
28681W        W99281   8.858  44.490  13.417
28682W        W99282   6.931  43.803   2.212
28683W        W99283   8.323  32.631  12.881
28684W        W99284  38.094  32.287  13.929
28685W        W99285  18.231  41.778  13.488
28686W        W99286  20.060  34.506  11.095
28687W        W99287  20.372  19.029  12.077
28688W        W99288  24.983  34.642  13.797
28689W        W99289  12.289  13.383   4.609
28690W        W99290  39.797   5.154   0.328
28691W        W99291  19.573   6.649   2.399
28692W        W99292  44.362  24.966   3.363
28693W        W99293   2.769  10.357   3.983
28694W        W99294  26.663   7.419  12.754
28695W        W99295  34.481  18.071   0.923
28696W        W99296  28.460  24.836   0.218
28697W        W99297   8.263  35.627  12.633
28698W        W99298  29.497  11.185   0.061
28699W        W99299  10.724  41.857   4.659
28700W        W99300  12.652  22.234  11.198
28701W        W99301   8.127  44.535  14.031
28702W        W99302  44.726  12.725  13.948
28703W        W99303  19.071  14.591  11.467
28704W        W99304  16.454  28.030   1.474
28705W        W99305  42.519  23.220   3.727
28706W        W99306  38.481  17.127   2.274
28707W        W99307  28.464   3.666   2.861
28708W        W99308  17.068  23.234   4.842
28709W        W99309   9.254  37.542   1.251
28710W        W99310  33.570  15.388  14.843
28711W        W99311  12.188  21.160   0.438
28712W        W99312  24.126   9.220  13.354
28713W        W99313  31.942  20.458   1.310
28714W        W99314  17.305  32.475   0.795
28715W        W99315  17.350  24.516  14.877
28716W        W99316  35.527   2.352   2.240
28717W        W99317  42.936  25.097   9.954
28718W        W99318  18.417  10.311   3.230
28719W        W99319  44.152  43.897   0.679
28720W        W99320   9.670  24.514  14.057
28721W        W99321  17.174  39.790   0.635
28722W        W99322  31.530   7.702   4.588
28723W        W99323  18.242   8.437  11.887
28724W        W99324  13.199  16.571  10.352
28725W        W99325  43.912  18.018   3.215
28726W        W99326  42.139   7.323   3.084
28727W        W99327   1.268  11.311  10.801
28728W        W99328  28.176   8.207  14.533
28729W        W99329  30.162  43.008   4.573
28730W        W99330  10.161  13.734   1.747
28731W        W99331  42.486   6.508   3.812
28732W        W99332  36.821  19.145   1.857
28733W        W99333  20.503  41.768   3.116
28734W        W99334  30.097   1.345   3.711
28735W        W99335  42.900  39.006   3.270
28736W        W99336  39.845   0.480  13.474
28737W        W99337   1.385  42.808  14.467
28738W        W99338   9.107  27.084   2.416
28739W        W99339  18.069  43.723   0.658
28740W        W99340  44.379  13.270  13.569
28741W        W99341  25.017  12.831  10.762
28742W        W99342   3.529  21.601   2.805
28743W        W99343   6.084  26.145   0.939
28744W        W99344  30.567   7.935   2.381
28745W        W99345   9.519  15.862   1.453
28746W        W99346  40.735  43.847   0.859
28747W        W99347  12.896  10.396   2.339
28748W        W99348  37.837  33.950  13.941
28749W        W99349  15.934   4.320   4.614
28750W        W99350  29.908  26.453   4.024
28751W        W99351   6.696  19.023   2.980
28752W        W99352  44.684  42.295   1.889
28753W        W99353  23.514  22.933   2.818
28754W        W99354  40.808   6.464  11.495
28755W        W99355  16.367  17.619   3.744
28756W        W99356   1.292  27.369  14.704
28757W        W99357  13.511  27.096  13.945
28758W        W99358  22.138  38.060   1.567
28759W        W99359   6.516  19.700   3.572
28760W        W99360  41.703  19.517   1.718
28761W        W99361  30.630  25.464   2.368
28762W        W99362  35.281  21.570  13.796
28763W        W99363  21.320  28.199  13.434
28764W        W99364  15.328  22.505   2.799
28765W        W99365  35.549  38.475  13.302
28766W        W99366  22.189  19.481   4.967
28767W        W99367  24.054  42.901   0.802
28768W        W99368  39.973  32.958   0.993
28769W        W99369  34.923  17.180   3.152
28770W        W99370  42.996   0.974   1.737
28771W        W99371  32.963   4.902  12.439
28772W        W99372  28.179   0.023  13.834
28773W        W99373  10.929  11.783  14.958
28774W        W99374  42.873  36.963   0.689
28775W        W99375  15.758  44.837  11.856
28776W        W99376  20.291  34.112  10.864
28777W        W99377  24.265   3.784  14.721
28778W        W99378   0.255  41.748   3.534
28779W        W99379  40.406  44.352   0.958
28780W        W99380  39.415  37.099   0.475
28781W        W99381  32.062  29.955   0.698
28782W        W99382  41.011  33.164  11.647
28783W        W99383  38.708  15.573   0.696
28784W        W99384  31.459  23.276   1.256
28785W        W99385  15.915  20.789  13.564
28786W        W99386  13.712  43.461   0.890
28787W        W99387   6.892  14.681   3.315
28788W        W99388  17.992   7.723  11.678
28789W        W99389  35.879  22.612  12.079
28790W        W99390   5.921  10.440  10.738
28791W        W99391   8.073   7.769   1.203
28792W        W99392  28.544  29.129   1.472
28793W        W99393  30.736  43.847   2.957
28794W        W99394   6.236  27.634   3.408
28795W        W99395  32.179   4.749  12.881
28796W        W99396  28.650  21.555   3.289
28797W        W99397   7.260  40.007   3.203
28798W        W99398  31.026  43.012   0.429
28799W        W99399  44.481  27.679  12.924
28800W        W99400  40.031  19.737  11.935
28801W        W99401  21.710   2.358  14.181
28802W        W99402   2.131   5.351  13.696
28803W        W99403  20.076  33.621   2.133
28804W        W99404  36.148   6.549   1.847
28805W        W99405   4.893  13.219   0.250
28806W        W99406  36.416  37.460   3.298
28807W        W99407  24.476   1.321  13.918
28808W        W99408  37.383  14.296  13.941
28809W        W99409   2.374   4.751  13.909
28810W        W99410  43.908  33.592   4.583
28811W        W99411   4.900  17.718   2.884
28812W        W99412   2.924  29.952   1.525
28813W        W99413  15.175  29.966  13.383
28814W        W99414  11.630  20.404   0.492
28815W        W99415   4.027  43.994  13.912
28816W        W99416  28.519  42.709  14.059
28817W        W99417  23.910  25.397  13.921
28818W        W99418  13.164  27.495  13.782
28819W        W99419  21.426  26.081  14.732
28820W        W99420  17.471  24.327   0.966
28821W        W99421  39.046  24.495  12.853
28822W        W99422  36.693  19.709  13.398
28823W        W99423  35.635   4.970   0.369
28824W        W99424   8.115   6.891   3.437
28825W        W99425  29.512  12.644   3.313
28826W        W99426   1.761   0.792  13.542
28827W        W99427  10.285  30.491   2.609
28828W        W99428  10.451  22.514   0.460
28829W        W99429  38.941   8.394  13.042
28830W        W99430  22.546  22.262  13.114
28831W        W99431   7.725  37.394  14.860
28832W        W99432  12.793  36.412  11.270
28833W        W99433  30.874  37.910   3.151
28834W        W99434  38.105  33.172  10.427
28835W        W99435  31.078   3.921   3.687
28836W        W99436   6.347  42.535  13.539
28837W        W99437   7.317  41.041  11.285
28838W        W99438  19.306  39.004  13.847
28839W        W99439  27.551  16.324   4.889
28840W        W99440  36.438  16.051   3.687
28841W        W99441  31.602  16.211   2.073
28842W        W99442  18.683  39.163  12.739
28843W        W99443  35.960  20.184  11.147
28844W        W99444  13.655   3.820  14.759
28845W        W99445  14.123  16.257   2.457
28846W        W99446  19.081  32.550  11.255
28847W        W99447  22.923  14.479   3.389
28848W        W99448   9.665  39.487   4.799
28849W        W99449  19.465   9.696   3.171
28850W        W99450  13.039  40.754  13.510
28851W        W99451  21.458   3.618   0.648
28852W        W99452  18.794  15.633   4.731
28853W        W99453  24.588  39.756  12.911
28854W        W99454   8.191  34.663   1.351
28855W        W99455   6.412  33.901   2.293
28856W        W99456   3.201  37.515  14.607
28857W        W99457  28.148   6.815   1.263
28858W        W99458  13.666  31.201   1.910
28859W        W99459  21.326  43.308   2.523
28860W        W99460  21.020   2.892  10.691
28861W        W99461  21.723   6.268   1.621
28862W        W99462  22.282  39.825  10.722
28863W        W99463   9.178  18.833   3.712
28864W        W99464  31.742  10.960   2.163
28865W        W99465  33.625   3.313  11.132
28866W        W99466  12.569  27.518   1.740
28867W        W99467  43.710   9.720   1.876
28868W        W99468  19.722  30.634   1.791
28869W        W99469  38.587  16.719  14.961
28870W        W99470  38.382  42.179  11.745
28871W        W99471   8.827  10.339  13.015
28872W        W99472  21.253  12.662  13.959
28873W        W99473  11.617   7.451  14.451
28874W        W99474   9.768   4.486  10.559
28875W        W99475  31.026   7.648  11.160
28876W        W99476  12.620  15.545   4.287
28877W        W99477  18.668  10.115   4.503
28878W        W99478  34.895  44.104  11.954
28879W        W99479  43.918   3.845   4.233
28880W        W99480  41.965  19.519  13.083
28881W        W99481  44.843   4.337   1.704
28882W        W99482  32.087  31.633   2.260
28883W        W99483  33.589  43.244  11.716
28884W        W99484  22.694   1.132   3.261
28885W        W99485  22.253  28.239  14.838
28886W        W99486  28.918   8.936  11.803
28887W        W99487   7.504  17.505   0.090
28888W        W99488  41.272  19.170  13.377
28889W        W99489  19.181   7.484  14.356
28890W        W99490  18.561  15.063   0.290
28891W        W99491  20.291  30.412   1.419
28892W        W99492  35.128  16.246   4.197
28893W        W99493   0.773  30.622  11.474
28894W        W99494  34.898  28.070   3.356
28895W        W99495  17.093  39.711  10.249
28896W        W99496   8.381  24.160   2.555
28897W        W99497   1.186  41.521  10.758
28898W        W99498  44.013  26.587   2.839
28899W        W99499  24.976  23.490  14.297
28900W        W99500  24.572  27.881   3.442
28901W        W99501  42.937  25.438  14.649
28902W        W99502  35.485  25.385   4.601
28903W        W99503  38.571  42.331   0.400
28904W        W99504  26.173   2.929   0.626
28905W        W99505  22.736  15.218   3.664
28906W        W99506  14.695  19.164   1.207
28907W        W99507   6.387  35.454   4.620
28908W        W99508  32.332  32.401   2.631
28909W        W99509  19.025  41.750  12.907
28910W        W99510  21.235  12.465  13.443
28911W        W99511   2.205  35.151   2.359
28912W        W99512  19.799  21.372  14.368
28913W        W99513   6.096  22.142  11.725
28914W        W99514  16.099  24.746   2.770
28915W        W99515  42.938  30.939   0.871
28916W        W99516  16.222   4.488   0.269
28917W        W99517  13.570   5.447   4.216
28918W        W99518  16.306  19.681   1.915
28919W        W99519  27.685  37.157  12.858
28920W        W99520  17.781  28.930   4.050
28921W        W99521   1.727  12.781   4.448
28922W        W99522   8.680  21.556  11.515
28923W        W99523  44.648  17.527  13.408
28924W        W99524  25.696   6.191  11.014
28925W        W99525  24.539  10.337  14.654
28926W        W99526   0.272  28.678  11.499
28927W        W99527   1.873  30.375   0.363
28928W        W99528  16.652  35.132   3.588
28929W        W99529  32.626  37.811  14.941
28930W        W99530  38.455  44.528   0.602
28931W        W99531  11.877  43.472  14.975
28932W        W99532   1.968  38.842  14.264
28933W        W99533  29.340  42.350   0.048
28934W        W99534   8.733  33.312   4.573
28935W        W99535  38.960  11.926  14.094
28936W        W99536  16.737  36.494  14.468
28937W        W99537  41.523   9.672   0.891
28938W        W99538   6.709  19.803   2.396
28939W        W99539  34.140  20.634   3.365
28940W        W99540  23.558  35.093   1.550
28941W        W99541  25.797  12.331   3.051
28942W        W99542  35.789   4.828  14.848
28943W        W99543   0.259  39.467   2.213
28944W        W99544   5.790  38.565  11.629
28945W        W99545  41.564   7.953   2.305
28946W        W99546  44.387   0.304   1.624
28947W        W99547   8.612  16.701   2.331
28948W        W99548   1.920  29.404   4.962
28949W        W99549  44.659  35.414  10.965
28950W        W99550  22.053  25.699   3.633
28951W        W99551  31.981  32.131   2.934
28952W        W99552  29.895   7.339   2.003
28953W        W99553  39.202   3.173  14.973
28954W        W99554   0.489   8.366   3.758
28955W        W99555  11.801   2.292   4.589
28956W        W99556  32.954   1.268   2.148
28957W        W99557  14.251   9.152   0.373
28958W        W99558  16.208  29.329   1.801
28959W        W99559  21.243  33.782   3.284
28960W        W99560  21.555  32.352  11.144
28961W        W99561  23.938  39.516   4.171
28962W        W99562  36.958  13.050  10.653
28963W        W99563  42.122  14.375   5.073
28964W        W99564  29.783  17.506   4.116
28965W        W99565  18.104  21.158  11.087
28966W        W99566  30.525  31.343  10.632
28967W        W99567   6.880  22.838  13.369
28968W        W99568   4.294  11.702   3.197
28969W        W99569  29.126  26.017   4.746
28970W        W99570   2.733  41.578   2.181
28971W        W99571  18.082  36.477   3.111
28972W        W99572  11.726  11.334  14.796
28973W        W99573  35.989  16.036   3.208
28974W        W99574  11.070  23.032  14.836
28975W        W99575  21.693  14.127  12.835
28976W        W99576   5.694  27.689   0.909
28977W        W99577  12.411   3.207   4.518
28978W        W99578   4.885  15.682   0.216
28979W        W99579   2.778  16.861   4.048
28980W        W99580  14.096  25.699   1.868
28981W        W99581  12.297  24.223  11.670
28982W        W99582  28.608  36.370   1.125
28983W        W99583  21.776  25.569   2.275
28984W        W99584   8.140  19.773   3.667
28985W        W99585  26.086  16.785  14.487
28986W        W99586  11.231  10.478  13.414
28987W        W99587  39.005  38.298   2.951
28988W        W99588  20.216  37.388  14.550
28989W        W99589  34.317  44.397   3.238
28990W        W99590  36.968  28.035   4.425
28991W        W99591  30.726  33.216   3.821
28992W        W99592  40.564  15.118   3.182
28993W        W99593  44.339  39.997   0.744
28994W        W99594  14.585  33.030   0.531
28995W        W99595  38.170  40.122  12.363
28996W        W99596  44.732   8.961  11.471
28997W        W99597  30.653  20.160   2.266
28998W        W99598  30.419  16.773  10.731
28999W        W99599  41.731   0.424   2.350
29000W        W99600  26.652  14.039  11.033
29001W        W99601  36.002  34.259  12.274
29002W        W99602  14.912  32.044  10.495
29003W        W99603  24.578  17.066   2.827
29004W        W99604  44.730   4.702   5.121
29005W        W99605  14.477  25.692  12.570
29006W        W99606   8.954   2.446  12.122
29007W        W99607  14.168  44.034  11.965
29008W        W99608  36.314  10.716   0.747
29009W        W99609   8.281  16.531   4.188
29010W        W99610  34.965  14.760  11.035
29011W        W99611   9.777   9.438   2.073
29012W        W99612  30.392  22.152  11.130
29013W        W99613  40.109   5.325  12.859
29014W        W99614  38.545  21.982  12.051
29015W        W99615  20.318   4.359  14.297
29016W        W99616  16.095  35.489  12.563
29017W        W99617   5.276  32.587   0.024
29018W        W99618  24.097  29.192  12.947
29019W        W99619  16.108  40.455  13.961
29020W        W99620  43.560   1.243   4.885
29021W        W99621  33.499  37.993   4.149
29022W        W99622  15.221  24.977   3.062
29023W        W99623  13.256   9.885   0.592
29024W        W99624  20.904  29.998  14.314
29025W        W99625  22.173  14.380  14.411
29026W        W99626  21.514  42.959  14.316
29027W        W99627  26.723  17.655   0.295
29028W        W99628   4.054  10.646  12.897
29029W        W99629   1.844  27.921   0.802
29030W        W99630   7.942  20.759  10.594
29031W        W99631  21.065  25.248   1.700
29032W        W99632  28.963  35.321  10.498
29033W        W99633   3.824   7.238   4.660
29034W        W99634  36.795  27.788   2.626
29035W        W99635  32.464   0.509  10.396
29036W        W99636  30.392  24.703  11.178
29037W        W99637  42.428  19.798  10.199
29038W        W99638   7.580  25.377   2.883
29039W        W99639  43.941  34.615  11.869
29040W        W99640  22.426  42.426   0.804
29041W        W99641  35.687  20.592   1.723
29042W        W99642  34.135  20.707   1.968
29043W        W99643  19.337  22.993   3.678
29044W        W99644  21.068  24.833   1.342
29045W        W99645  44.270  32.193   4.100
29046W        W99646  44.385  28.991  12.566
29047W        W99647  38.494   2.318  11.526
29048W        W99648  35.366  12.561  14.483
29049W        W99649  19.659  27.706   1.433
29050W        W99650  21.832  41.977  11.603
29051W        W99651  34.139   2.575  11.908
29052W        W99652  14.576  31.999  14.026
29053W        W99653  36.102   8.401  13.331
29054W        W99654  13.992  41.093   3.179
29055W        W99655  29.955  20.638  12.558
29056W        W99656  41.788   3.356  11.138
29057W        W99657  32.882  17.708   1.300
29058W        W99658  21.820   2.038   3.595
29059W        W99659  33.927  14.557  13.960
29060W        W99660  11.412   5.356   2.422
29061W        W99661   4.206  26.598   3.995
29062W        W99662  35.330   1.795  12.072
29063W        W99663  43.017  16.019   1.796
29064W        W99664  14.677   1.207  13.893
29065W        W99665  23.190   6.142   1.882
29066W        W99666  37.866  20.056  12.067
29067W        W99667   0.896  27.493  11.630
29068W        W99668  44.744  11.860  13.657
29069W        W99669   6.012   7.758  14.887
29070W        W99670  30.996  31.884  11.142
29071W        W99671  17.817   6.626  12.357
29072W        W99672   1.240  44.992  12.502
29073W        W99673  33.851  17.298  13.086
29074W        W99674   5.869   7.812   3.099
29075W        W99675  39.437  26.828  13.271
29076W        W99676  40.826  18.894   1.097
29077W        W99677  26.912  20.981   3.590
29078W        W99678   3.278  30.132   2.270
29079W        W99679  19.931   8.119  11.941
29080W        W99680  22.563  10.090  14.075
29081W        W99681  33.539  14.192  12.304
29082W        W99682  24.111  11.262  12.092
29083W        W99683  29.580  17.146  12.199
29084W        W99684  16.026  25.478   0.816
29085W        W99685  28.938  15.092   3.118
29086W        W99686  42.267  39.443   1.453
29087W        W99687  24.073  12.620   3.989
29088W        W99688   6.465   4.678   3.296
29089W        W99689  33.028  35.265  13.611
29090W        W99690  16.641  10.775   1.033
29091W        W99691   0.706  30.379  13.882
29092W        W99692  38.473   2.282  12.551
29093W        W99693  44.928  26.141  11.064
29094W        W99694  29.214  12.653  11.931
29095W        W99695  43.474  40.417  10.795
29096W        W99696  13.695  14.145   1.941
29097W        W99697  22.394  36.520  12.844
29098W        W99698  42.828  27.577   1.287
29099W        W99699   7.193   7.672   1.178
29100W        W99700  22.729  30.038  12.628
29101W        W99701   3.858  42.966  14.330
29102W        W99702  13.101   9.584   4.720
29103W        W99703   2.243  13.226  12.831
29104W        W99704  25.245  40.850  12.043
29105W        W99705  17.313  14.316   0.022
29106W        W99706  19.811  28.071   4.552
29107W        W99707  18.311  12.575  13.357
29108W        W99708  31.566   7.703   2.745
29109W        W99709  28.194  38.470   3.659
29110W        W99710  14.170   7.559  11.158
29111W        W99711  44.564  21.310   3.198
29112W        W99712  36.994  29.959  14.087
29113W        W99713  37.371   8.142   4.320
29114W        W99714  11.697  19.765  14.887
29115W        W99715  21.157  43.606  10.160
29116W        W99716  33.246  23.257  11.634
29117W        W99717  31.962  36.057   3.302
29118W        W99718  33.045  28.444   2.179
29119W        W99719  30.999   4.334   0.362
29120W        W99720  24.475   8.240   4.223
29121W        W99721  15.602  15.083   1.428
29122W        W99722  38.078  41.971  14.312
29123W        W99723   1.254   0.346   4.098
29124W        W99724  12.030  35.088   1.017
29125W        W99725  40.111  10.902   4.155
29126W        W99726  44.688  43.894   2.001
29127W        W99727  33.384  32.984   1.022
29128W        W99728   5.188   9.856  11.693
29129W        W99729  14.541  20.694  10.628
29130W        W99730   8.980   0.499  11.198
29131W        W99731  44.924  21.631   4.436
29132W        W99732  35.167  13.908  13.396
29133W        W99733  12.084  15.698   1.406
29134W        W99734  16.135  35.386  14.341
29135W        W99735  18.403  41.053  10.836
29136W        W99736   9.783   2.781  13.134
29137W        W99737   2.193  17.397   4.907
29138W        W99738  12.775  27.081  13.041
29139W        W99739  13.297  12.891   0.306
29140W        W99740  19.969  38.889  12.065
29141W        W99741  23.405  23.651   3.299
29142W        W99742  23.275  13.797  14.046
29143W        W99743  37.910  44.387  14.892
29144W        W99744  35.017  17.025   3.631
29145W        W99745  11.076  16.283  14.822
29146W        W99746   6.098   9.358   4.134
29147W        W99747   9.169  21.603  14.870
29148W        W99748  18.674  27.779   5.029
29149W        W99749  26.955   5.345   3.593
29150W        W99750  17.530   9.115  11.963
29151W        W99751  42.600  21.632   1.419
29152W        W99752  33.200   1.462  10.721
29153W        W99753  14.404  43.018  11.120
29154W        W99754   3.108  33.994   2.310
29155W        W99755  35.563  19.947   4.627
29156W        W99756  29.653  28.535   1.499
29157W        W99757  34.620  34.361   2.909
29158W        W99758  39.515   5.646  13.522
29159W        W99759   4.281  38.475   4.289
29160W        W99760  41.890  37.621  11.626
29161W        W99761  19.182  14.365   4.819
29162W        W99762  14.122  26.389  11.697
29163W        W99763   4.699  23.033   2.780
29164W        W99764   7.432  32.478  10.431
29165W        W99765   7.280   7.929   1.977
29166W        W99766  37.932  25.655  12.995
29167W        W99767  44.531  38.652   3.763
29168W        W99768  19.993   3.189  14.349
29169W        W99769  27.124  41.299   1.142
29170W        W99770  40.907   8.499   2.719
29171W        W99771  16.140  44.963   2.447
29172W        W99772  30.573  44.718   2.386
29173W        W99773  34.523  20.203  10.749
29174W        W99774  44.813  24.305   3.336
29175W        W99775  41.898  35.113   2.530
29176W        W99776  15.284  38.989  11.529
29177W        W99777  34.571   1.794  11.408
29178W        W99778   0.969  17.653   1.401
29179W        W99779  28.229   5.907   2.180
29180W        W99780   7.409  37.335  13.970
29181W        W99781   4.816   2.019   4.571
29182W        W99782  27.532  17.974   0.243
29183W        W99783  16.972   5.615   0.730
29184W        W99784   6.927   5.902   1.369
29185W        W99785  28.674   6.257   4.097
29186W        W99786  31.796   2.456   1.118
29187W        W99787  31.115  35.026   3.198
29188W        W99788  36.470  19.909  10.445
29189W        W99789  39.808  29.964  13.892
29190W        W99790  19.485  21.665   3.617
29191W        W99791   8.818   7.483  14.303
29192W        W99792  19.234  43.022   1.183
29193W        W99793  21.884  12.303  12.465
29194W        W99794  32.274   6.476  13.103
29195W        W99795  40.928  44.449  12.026
29196W        W99796  20.814  35.905   4.121
29197W        W99797  44.509   2.409   1.693
29198W        W99798   2.815  12.882  14.428
29199W        W99799  25.553  39.652  10.398
29200W        W99800  32.537   2.332  10.185
29201W        W99801  23.041  10.631   3.781
29202W        W99802  42.912   7.984  11.016
29203W        W99803  12.045  24.123  11.236
29204W        W99804   2.966  28.766  14.869
29205W        W99805  24.721   8.816   5.184
29206W        W99806  15.154  38.502   3.841
29207W        W99807  17.367   3.682   2.193
29208W        W99808  17.752  21.254  12.902
29209W        W99809  29.400  14.311   2.200
29210W        W99810  42.713  15.685  12.504
29211W        W99811  34.051  11.793  11.669
29212W        W99812  26.656   2.179  13.855
29213W        W99813  37.883  37.381  14.361
29214W        W99814   4.406  12.399  13.258
29215W        W99815  44.814  11.113   2.127
29216W        W99816  11.051   1.799   3.669
29217W        W99817  43.759  31.884  12.391
29218W        W99818  35.062  18.569  13.361
29219W        W99819   5.988  17.538  13.850
29220W        W99820  32.158  11.194  13.969
29221W        W99821  41.931  35.402   5.012
29222W        W99822  29.879   0.537   0.593
29223W        W99823  20.235  36.087   0.215
29224W        W99824  12.433  36.608  13.857
29225W        W99825   4.761  19.607  11.634
29226W        W99826  12.140   8.452   3.861
29227W        W99827   3.527  14.187   3.149
29228W        W99828  39.029  32.085  11.497
29229W        W99829  35.260  26.360  11.990
29230W        W99830  25.308  32.963  14.906
29231W        W99831  33.955  22.745   3.652
29232W        W99832   1.825  40.968  14.502
29233W        W99833   5.144  35.643   2.278
29234W        W99834   3.978  44.945  12.892
29235W        W99835  32.863   8.508   0.456
29236W        W99836  39.003  11.788   4.824
29237W        W99837  10.772  42.265   3.888
29238W        W99838  36.137  24.629   3.121
29239W        W99839   9.795   5.914   4.370
29240W        W99840  37.203  30.870   0.382
29241W        W99841  31.444  25.247   3.957
29242W        W99842  10.255  17.849   0.976
29243W        W99843  30.896  15.370  12.067
29244W        W99844  43.759   4.259   2.913
29245W        W99845  16.175  32.052  10.334
29246W        W99846  15.456  17.295  12.288
29247W        W99847   7.731  13.506   0.888
29248W        W99848  43.264  20.402  14.860
29249W        W99849  33.487  19.229   1.395
29250W        W99850   4.066  38.025   0.692
29251W        W99851  12.147  39.097   4.385
29252W        W99852  31.783  13.563   2.895
29253W        W99853  14.702  39.854  12.979
29254W        W99854   1.344  26.406  14.978
29255W        W99855  23.421   6.201  14.956
29256W        W99856  39.388  16.723  11.145
29257W        W99857  40.244  29.673   0.940
29258W        W99858   9.434  12.842  10.991
29259W        W99859  26.926  29.407  10.123
29260W        W99860  10.618   3.430  11.456
29261W        W99861  40.319  15.681  12.536
29262W        W99862  18.792  25.514   3.560
29263W        W99863  37.030  44.336   2.256
29264W        W99864  14.181  30.504   2.795
29265W        W99865  42.328  28.118   0.242
29266W        W99866  31.377   1.696   2.139
29267W        W99867   9.736   9.453   3.421
29268W        W99868  16.256  27.326  10.520
29269W        W99869   0.329   0.972   3.234
29270W        W99870  26.540  41.270   0.653
29271W        W99871  41.549   9.761  11.549
29272W        W99872  34.878  36.318  14.458
29273W        W99873  11.567  32.506  11.901
29274W        W99874  10.262   6.472  11.052
29275W        W99875   5.420  40.956   3.421
29276W        W99876  31.160   7.610   4.174
29277W        W99877  29.426  34.003  11.261
29278W        W99878  35.462  23.981  11.658
29279W        W99879   4.415   0.166   4.413
29280W        W99880  14.640  11.631   0.505
29281W        W99881  41.065  24.954  14.690
29282W        W99882  15.315   8.240  14.315
29283W        W99883   5.503   3.828   2.019
29284W        W99884  29.953  20.071  11.290
29285W        W99885   8.741  27.417   1.630
29286W        W99886  15.259  27.516   0.013
29287W        W99887  37.398   1.879  12.148
29288W        W99888  11.639  27.719  10.762
29289W        W99889   1.215  32.065  14.593
29290W        W99890   1.725  18.320   3.764
29291W        W99891  36.411   4.383   2.156
29292W        W99892   1.450  36.958   2.993
29293W        W99893  33.867  28.637   4.148
29294W        W99894   9.256  36.923   4.643
29295W        W99895   8.432  16.540  13.551
29296W        W99896  17.648  22.789   2.282
29297W        W99897  15.851  21.181   4.115
29298W        W99898   8.364  31.853  12.451
29299W        W99899  16.830  14.676  10.084
29300W        W99900  37.864   6.307   2.120
29301W        W99901   1.348  41.314   3.199
29302W        W99902  32.444  19.141  14.434
29303W        W99903   8.738  11.495   4.085
29304W        W99904  24.747  31.872   0.534
29305W        W99905  37.895  10.826   1.025
29306W        W99906  10.815  23.944   4.586
29307W        W99907   1.305  25.042  10.973
29308W        W99908  21.732   3.204   0.821
29309W        W99909  44.476  42.487  14.042
29310W        W99910  42.578  11.149   1.771
29311W        W99911  12.226  26.529   3.666
29312W        W99912  15.503  24.082  14.854
29313W        W99913  17.591  28.959   0.265
29314W        W99914  13.076  25.441   4.616
29315W        W99915  39.083  44.545   4.081
29316W        W99916  32.583  29.506  13.491
29317W        W99917   0.871  17.749   2.787
29318W        W99918  41.813  22.246   3.361
29319W        W99919  25.567  12.720  13.408
29320W        W99920   8.236  40.295  10.814
29321W        W99921  18.065  43.904  14.258
29322W        W99922  18.083   0.703  12.345
29323W        W99923  37.390  25.037   0.203
29324W        W99924  36.513   5.876   0.304
29325W        W99925  40.390  43.907   3.492
29326W        W99926  36.123  14.858  10.851
29327W        W99927  18.836  23.541   4.894
29328W        W99928   6.850  41.248  11.954
29329W        W99929  33.466  14.354   1.063
29330W        W99930  28.078  38.648  13.368
29331W        W99931  29.101   6.257   0.921
29332W        W99932  41.516  27.996   5.073
29333W        W99933  18.965  38.644   4.569
29334W        W99934  28.400  14.037   2.133
29335W        W99935  14.272  10.335   4.514
29336W        W99936  35.523  17.335   3.217
29337W        W99937   5.274  35.842  13.034
29338W        W99938  27.713  24.782   2.937
29339W        W99939   9.818  24.778  10.738
29340W        W99940  11.154  22.230  13.916
29341W        W99941  17.819  35.868  13.929
29342W        W99942  26.167  27.071   0.421
29343W        W99943  41.778  30.263  12.984
29344W        W99944  16.230  34.481   2.057
29345W        W99945  14.420   8.095  13.384
29346W        W99946  14.280  33.413  13.836
29347W        W99947  22.430  25.493  10.605
29348W        W99948  15.141   0.592   3.165
29349W        W99949  21.608  15.675   0.444
29350W        W99950   5.956  30.659  11.415
29351W        W99951  13.720   0.918   0.164
29352W        W99952  35.825  19.490   4.642
29353W        W99953  30.146  11.872   4.772
29354W        W99954  40.443  35.505   1.148
29355W        W99955  10.176  19.339   0.689
29356W        W99956  40.481  30.027  11.510
29357W        W99957  32.816  25.195  11.675
29358W        W99958  36.160  19.499  13.082
29359W        W99959  26.051  33.957  12.450
29360W        W99960   4.388  22.780   4.190
29361W        W99961  34.933  21.137  12.579
29362W        W99962  11.779  22.038  11.920
29363W        W99963  18.355   9.273  13.362
29364W        W99964  16.305  33.373   5.291
29365W        W99965  22.482  10.929   3.793
29366W        W99966  27.194  31.172  14.549
29367W        W99967  33.605  21.676   4.212
29368W        W99968  14.976  33.519   4.128
29369W        W99969  16.321  23.031   1.138
29370W        W99970  44.549  26.766  11.995
29371W        W99971  40.868  28.684   1.668
29372W        W99972  20.242  31.354  11.559
29373W        W99973  30.111  39.758  13.245
29374W        W99974   1.529   9.359  13.892
29375W        W99975  36.398  36.596   1.825
29376W        W99976  33.394  26.972  13.696
29377W        W99977  19.125  21.076   4.317
29378W        W99978  43.239  42.916   0.947
29379W        W99979   2.436   7.924   3.334
29380W        W99980  13.237  40.708  10.216
29381W        W99981  16.116  24.776  13.579
29382W        W99982   0.277   0.887  12.863
29383W        W99983  33.099  26.114  11.570
29384W        W99984  18.782  21.706  11.489
29385W        W99985  11.004  41.290   2.380
29386W        W99986  26.505  21.170  14.882
29387W        W99987  13.877   0.981  12.014
29388W        W99988  29.511  17.499  11.604
29389W        W99989  27.540  40.066   2.283
29390W        W99990  34.699   7.466  11.029
29391W        W99991   1.967  23.376  10.631
29392W        W99992   7.701  36.984   3.597
29393W        W99993  23.239   9.823  14.035
29394W        W99994  15.710   1.372  10.752
29395W        W99995  22.617  12.099  12.205
29396W        W99996  13.195   2.938  12.472
29397W        W99997  10.590  23.377  14.398
29398W        W99998  32.460  31.009  10.590
29399W        W99999  29.003  36.830  14.902
29400W        W    0  31.314  26.165  11.418
29401W        W    1  39.046  25.435   3.300
29402W        W    2  20.633  37.130  11.025
29403W        W    3  23.758  16.096   4.079
29404W        W    4  13.870  13.705  14.479
29405W        W    5  24.546  22.848  10.579
29406W        W    6   9.154  17.642   2.205
29407W        W    7  20.596  18.286  13.804
29408W        W    8  25.649   5.595   3.626
29409W        W    9  26.452  37.041   0.893
29410W        W   10   4.896  14.963   1.274
29411W        W   11   5.183  37.276   2.237
29412W        W   12   7.145  24.003  14.924
29413W        W   13  37.364  11.650  11.175
29414W        W   14   5.410  27.998   4.278
29415W        W   15  22.580  40.081   3.204
29416W        W   16  11.329  10.200  10.702
29417W        W   17  35.809  21.458   0.499
29418W        W   18  18.171  32.062  12.962
29419W        W   19   7.223  37.337   2.409
29420W        W   20  44.902   4.321  12.902
29421W        W   21  35.070  40.377  10.962
29422W        W   22  44.524   6.161  14.025
29423W        W   23  26.091  38.105   2.123
29424W        W   24  41.499  15.519  13.092
29425W        W   25  42.772   2.147   0.246
29426W        W   26   8.156  16.209   1.330
29427W        W   27  21.687  39.530   0.163
29428W        W   28  28.391  14.793   3.277
29429W        W   29   2.347  34.879   2.788
29430W        W   30  13.398  33.388   0.596
29431W        W   31  11.101  11.382   3.840
29432W        W   32  16.975   4.154   2.800
29433W        W   33  33.845  42.843   4.645
29434W        W   34  33.181  28.032  13.958
29435W        W   35  33.083   4.734   1.401
29436W        W   36  10.149  25.169  14.332
29437W        W   37  25.159  39.028  11.788
29438W        W   38  19.446  12.093   4.236
29439W        W   39  44.968   4.525  11.524
29440W        W   40  39.019  16.044   3.574
29441W        W   41   9.114   3.879   2.675
29442W        W   42  37.278  10.821  12.089
29443W        W   43  43.864   1.469   2.183
29444W        W   44  33.400   1.281   2.429
29445W        W   45  44.638  26.568  12.629
29446W        W   46   2.585  29.529  14.286
29447W        W   47  23.073  32.959  12.401
29448W        W   48  43.838  32.382   1.281
29449W        W   49  40.543   0.506  11.169
29450W        W   50  22.127  44.827   0.470
29451W        W   51  27.415  18.065  13.371
29452W        W   52  37.527  44.281  10.813
29453W        W   53  13.286  43.671   3.605
29454W        W   54  31.198   6.389   2.679
29455W        W   55  10.790  44.533   2.078
29456W        W   56  19.595  11.681   4.850
29457W        W   57  31.178   5.753  10.423
29458W        W   58   5.356  41.808   4.924
29459W        W   59  15.450  17.141   3.687
29460W        W   60  24.113   8.347  14.794
29461W        W   61  16.873  21.434  13.428
29462W        W   62  29.689   1.873  13.496
29463W        W   63  17.103  29.659   1.929
29464W        W   64  29.022   6.905  12.516
29465W        W   65  22.170  36.813   0.092
29466W        W   66  43.232  12.329   3.348
29467W        W   67  22.294  33.477  12.467
29468W        W   68   9.948  42.287  11.194
29469W        W   69  32.119  30.466   0.444
29470W        W   70  18.080   3.627   3.342
29471W        W   71  19.666  10.892   0.323
29472W        W   72  36.132  35.084  13.030
29473W        W   73   4.771  24.124  13.895
29474W        W   74  18.019  36.788   3.930
29475W        W   75  38.992  43.943  10.286
29476W        W   76  22.194  19.675  14.121
29477W        W   77   4.612  32.610  12.969
29478W        W   78  43.536  43.914   0.278
29479W        W   79  23.309  11.341  10.721
29480W        W   80  30.232  11.356   4.098
29481W        W   81  23.507  38.472  11.731
29482W        W   82  23.205  41.307  13.051
29483W        W   83   3.284  20.385   5.144
29484W        W   84  19.211  36.293   1.458
29485W        W   85   8.870   4.982  11.407
29486W        W   86  30.753  40.704  12.479
29487W        W   87  23.729  36.387   0.896
29488W        W   88  31.696  42.547  13.441
29489W        W   89   1.458  11.143   1.868
29490W        W   90   3.897  25.512   1.408
29491W        W   91  28.070   8.628  13.348
29492W        W   92  30.631  44.037  11.062
29493W        W   93  10.701  26.486  12.933
29494W        W   94  23.005  43.691   1.835
29495W        W   95  16.227  26.929  13.896
29496W        W   96   0.813  10.834  10.686
29497W        W   97  29.117  24.466  13.495
29498W        W   98  28.475  20.138  11.971
29499W        W   99  43.433   3.179   4.064
29500W        W  100  18.814  13.810   2.777
29501W        W  101  34.088  21.574   4.124
29502W        W  102  41.440  36.054  12.828
29503W        W  103  17.833  21.467  13.652
29504W        W  104  42.996  38.946   0.069
29505W        W  105  16.871  33.801  11.661
29506W        W  106  11.191  16.261  13.307
29507W        W  107  25.495  37.757   0.418
29508W        W  108  37.473  29.194  10.641
29509W        W  109   3.305   7.151   2.231
29510W        W  110  27.912  21.166  13.997
29511W        W  111  41.774  37.111   2.269
29512W        W  112  40.896  23.233  11.026
29513W        W  113   9.148  41.243  12.898
29514W        W  114  32.365   6.861   2.584
29515W        W  115   6.002   2.229   1.370
29516W        W  116   2.783   8.586  14.996
29517W        W  117  43.320  27.866   0.305
29518W        W  118   9.680  12.294  12.685
29519W        W  119  39.514  29.977  13.465
29520W        W  120  35.315  22.663  14.386
29521W        W  121  12.781  36.934   3.235
29522W        W  122  38.934  25.206   2.828
29523W        W  123  37.528  43.459   3.229
29524W        W  124   9.218  17.077  14.141
29525W        W  125  28.619  43.507  12.931
29526W        W  126  18.984  17.077   4.998
29527W        W  127  44.493  44.706   3.160
29528W        W  128   0.216  41.738  12.642
29529W        W  129  24.693  34.094  12.931
29530W        W  130  28.408  39.553  11.681
29531W        W  131  20.187  43.884  11.454
29532W        W  132   2.681  12.971   3.113
29533W        W  133  35.091  16.215  11.236
29534W        W  134  15.904  33.856  14.472
29535W        W  135  27.820  35.020   4.842
29536W        W  136  40.771  31.646   4.675
29537W        W  137  20.643  23.162  12.793
29538W        W  138  28.969  21.448   0.471
29539W        W  139  22.763  43.729  12.935
29540W        W  140  10.841   0.498  11.146
29541W        W  141  36.800  11.775   2.799
29542W        W  142  24.666  28.646   0.009
29543W        W  143  44.817  15.546  12.467
29544W        W  144  42.569  44.881  10.647
29545W        W  145  36.490  44.495  14.699
29546W        W  146  22.026  44.997   2.931
29547W        W  147  43.790  44.391  13.936
29548W        W  148  44.254  22.697   2.174
29549W        W  149   4.861  32.513  12.502
29550W        W  150  13.210  24.419   4.661
29551W        W  151  43.189  31.957  13.058
29552W        W  152  27.223  14.797   3.757
29553W        W  153  17.741  40.565   3.255
29554W        W  154  11.259  39.256  12.523
29555W        W  155   5.832  13.191  12.396
29556W        W  156  13.746  42.524   3.490
29557W        W  157  16.243  40.140   3.312
29558W        W  158  11.765  38.427   0.828
29559W        W  159  40.713   7.750  13.476
29560W        W  160  32.816  22.577   1.239
29561W        W  161  27.913   2.406   0.244
29562W        W  162   7.677  42.097   1.167
29563W        W  163  20.047  23.251  11.471
29564W        W  164  36.821  12.938  11.589
29565W        W  165  10.399  18.167  14.667
29566W        W  166  32.059   6.063   3.615
29567W        W  167  12.936  36.973   0.961
29568W        W  168  34.371   0.845  11.874
29569W        W  169   3.860  32.025   0.874
29570W        W  170   5.877   8.115   2.664
29571W        W  171   4.464   0.816   1.356
29572W        W  172  26.546  24.799   2.697
29573W        W  173   4.427  20.679   4.773
29574W        W  174  17.095  38.986   1.832
29575W        W  175  24.826   7.437   4.770
29576W        W  176  14.747  13.286  14.390
29577W        W  177  37.507   1.644   2.614
29578W        W  178   9.335  12.176  13.182
29579W        W  179  11.235   3.262   3.795
29580W        W  180   9.819   9.147   3.896
29581W        W  181  30.483  22.112  11.633
29582W        W  182  26.216  39.273   4.215
29583W        W  183  18.492  22.132  14.485
29584W        W  184  11.367   6.926  13.209
29585W        W  185  37.055  16.615   3.103
29586W        W  186  42.920   1.320  12.570
29587W        W  187  11.226  37.424  12.587
29588W        W  188  26.725  11.508   9.840
29589W        W  189  34.613  36.360   0.520
29590W        W  190  31.162   9.167  11.220
29591W        W  191   7.895  12.626  14.382
29592W        W  192   3.077  38.410  11.851
29593W        W  193  43.742  23.702  10.677
29594W        W  194   0.135  22.951  11.018
29595W        W  195  17.669  22.209   4.605
29596W        W  196  20.649  42.505  14.463
29597W        W  197  20.734  28.148   3.461
29598W        W  198  18.510  30.938  13.560
29599W        W  199   6.451   7.621  12.972
29600W        W  200  44.230  33.509   4.178
29601W        W  201  22.650  40.486  12.562
29602W        W  202  42.285  44.219   1.851
29603W        W  203   7.318  24.268   1.661
29604W        W  204  38.802  24.776   4.957
29605W        W  205   9.639   5.135   0.532
29606W        W  206  40.819   9.242  11.287
29607W        W  207   0.576  13.375   2.205
29608W        W  208  37.481  44.760   3.812
29609W        W  209  15.470  10.870  12.956
29610W        W  210  16.374   7.134   3.828
29611W        W  211  44.421  19.821  13.744
29612W        W  212  26.789  28.029  13.405
29613W        W  213   4.683  13.907  10.621
29614W        W  214  28.522   4.872  14.827
29615W        W  215  17.758  33.741   2.138
29616W        W  216   6.377  18.845   4.615
29617W        W  217  38.945   3.836  14.025
29618W        W  218  39.757  30.336  11.902
29619W        W  219  27.225  35.635  14.769
29620W        W  220  25.296  17.609   1.756
29621W        W  221  10.233  12.838  13.048
29622W        W  222  22.534  44.798   1.608
29623W        W  223  17.519  33.168  10.213
29624W        W  224  41.264  43.205  13.028
29625W        W  225  17.620  26.696  12.000
29626W        W  226  43.883  21.076  13.404
29627W        W  227   0.045   6.457  12.891
29628W        W  228  24.245  25.537   4.082
29629W        W  229   3.981  18.720  13.896
29630W        W  230  22.248  39.846  12.463
29631W        W  231  39.376  41.503   3.430
29632W        W  232  10.733   2.314  14.792
29633W        W  233  27.438  11.617   3.983
29634W        W  234   6.445   1.640   5.020
29635W        W  235  20.765   4.338   1.713
29636W        W  236   8.876  43.091  12.996
29637W        W  237  42.451   6.442  11.299
29638W        W  238  24.749  33.714   4.306
29639W        W  239   0.380  37.955   0.764
29640W        W  240  41.618  14.246  14.858
29641W        W  241  31.872  17.462  14.404
29642W        W  242  39.613  14.722  12.644
29643W        W  243  24.833  30.077   1.956
29644W        W  244  36.015  21.036  13.034
29645W        W  245  21.699   5.746  11.640
29646W        W  246  11.614  14.797   4.557
29647W        W  247  39.980   0.185   0.373
29648W        W  248  30.700   2.689  12.383
29649W        W  249  23.551   4.200  12.059
29650W        W  250   3.793   1.970   2.967
29651W        W  251  37.042  39.795  11.559
29652W        W  252  10.181   3.956  13.077
29653W        W  253  14.536  25.698  10.393
29654W        W  254   3.510  28.243  13.713
29655W        W  255   3.231  37.791   2.963
29656W        W  256  22.333   6.624  11.480
29657W        W  257  28.023  37.140  14.795
29658W        W  258  24.415  20.213  10.664
29659W        W  259   5.805  22.157  10.776
29660W        W  260   5.955   9.720   0.736
29661W        W  261  44.478  41.135  14.378
29662W        W  262  30.086  24.720   4.518
29663W        W  263  10.326  41.874   4.980
29664W        W  264  10.640  17.757   0.631
29665W        W  265  44.657  27.953  12.505
29666W        W  266  23.974  16.520   3.652
29667W        W  267  33.412   0.925   0.266
29668W        W  268   2.308  38.272  12.990
29669W        W  269   4.258   0.286   2.182
29670W        W  270  28.366  27.028  13.701
29671W        W  271  28.211  39.904  10.234
29672W        W  272   0.296  22.726   2.018
29673W        W  273  10.192  26.174   2.711
29674W        W  274   1.748  44.787  13.824
29675W        W  275  28.213  10.945  14.155
29676W        W  276  36.130  31.142  13.533
29677W        W  277  38.463  18.567   3.290
29678W        W  278  28.502   4.897  11.649
29679W        W  279  31.421  43.921  12.553
29680W        W  280  32.876  15.192  13.410
29681W        W  281   0.381  25.205  12.888
29682W        W  282  15.067   6.701  10.732
29683W        W  283  13.913  17.164   3.682
29684W        W  284  38.904   2.559  12.484
29685W        W  285   7.759   4.418  12.819
29686W        W  286   3.565  18.232   3.298
29687W        W  287  24.903  38.827   2.793
29688W        W  288  37.397  28.152  10.709
29689W        W  289  22.761  26.717  11.140
29690W        W  290  13.143   6.087  12.081
29691W        W  291  27.629  36.335   0.872
29692W        W  292  18.990  29.106  14.846
29693W        W  293  39.466  21.736   2.230
29694W        W  294   4.198   9.322  13.405
29695W        W  295  32.391  19.763   3.066
29696W        W  296  25.185  31.576  13.317
29697W        W  297  10.774  40.021   1.902
29698W        W  298   0.437  33.681  13.042
29699W        W  299  39.812  27.075  14.374
29700W        W  300  21.556  29.080   3.065
29701W        W  301  40.488  32.485   4.571
29702W        W  302  32.130  30.008   0.195
29703W        W  303  31.362   8.870   1.336
29704W        W  304  28.370  18.710   2.087
29705W        W  305  23.463  16.343  12.049
29706W        W  306  24.612  12.721   3.917
29707W        W  307  26.389  35.529  14.425
29708W        W  308  34.725  41.644  13.930
29709W        W  309  30.103   8.375  12.044
29710W        W  310   9.834  29.863  11.573
29711W        W  311  11.608   1.331   3.276
29712W        W  312  12.531  40.369   2.347
29713W        W  313  13.440  19.832   4.226
29714W        W  314  29.526  40.793  12.097
29715W        W  315  15.495   5.485  14.332
29716W        W  316  32.668   6.856   2.168
29717W        W  317  12.633   6.208  11.043
29718W        W  318   0.254  42.951   2.379
29719W        W  319   3.389   8.610   0.445
29720W        W  320  25.010   5.822   2.889
29721W        W  321  32.548  17.842  11.741
29722W        W  322  11.762  27.255   0.376
29723W        W  323  23.344  28.669   0.340
29724W        W  324  24.084  40.637   1.469
29725W        W  325  26.946   1.164   0.938
29726W        W  326  26.019  26.976  14.931
29727W        W  327  22.176  10.015  10.808
29728W        W  328  13.705  32.656  11.867
29729W        W  329  35.558  16.566   0.929
29730W        W  330  29.003   4.825  11.837
29731W        W  331   0.819  23.588   4.441
29732W        W  332  16.605  22.665  14.495
29733W        W  333  21.468   8.366  14.340
29734W        W  334  37.477  23.652   4.161
29735W        W  335  19.310  30.709   1.333
29736W        W  336  21.040  16.620  12.927
29737W        W  337   8.866  20.683   3.875
29738W        W  338  43.749  13.766   0.652
29739W        W  339  14.764  27.003   3.295
29740W        W  340  43.293  11.570  11.838
29741W        W  341  43.729  29.492  10.693
29742W        W  342  28.698  18.458   4.131
29743W        W  343  26.443  30.097   1.219
29744W        W  344  32.906  36.982   1.208
29745W        W  345  36.570  33.176  11.505
29746W        W  346  32.550  12.116  11.570
29747W        W  347  24.026  15.221   3.330
29748W        W  348  23.185  32.366   0.836
29749W        W  349  36.424  10.258  14.845
29750W        W  350  24.712  26.123  12.362
29751W        W  351  40.031  42.485   1.948
29752W        W  352  28.082  27.507   0.274
29753W        W  353  33.004  43.999   4.518
29754W        W  354  37.976  32.822   1.861
29755W        W  355  26.708  30.640   3.373
29756W        W  356  30.097  13.367  13.156
29757W        W  357   8.379   6.077   2.325
29758W        W  358  31.638   0.925  14.531
29759W        W  359  26.849   1.294  13.692
29760W        W  360   2.855   8.085  13.881
29761W        W  361  38.311   0.947  13.479
29762W        W  362   4.368  41.099  10.415
29763W        W  363  31.932  36.653  12.055
29764W        W  364  38.909  44.274   0.528
29765W        W  365  14.320  35.826  14.116
29766W        W  366  41.960  23.887  14.851
29767W        W  367  10.838  32.616   4.430
29768W        W  368  29.988   9.607   4.377
29769W        W  369  37.276  34.377  11.669
29770W        W  370  14.287  20.272  11.075
29771W        W  371  29.598   5.859  13.837
29772W        W  372  27.392  25.475  11.898
29773W        W  373  23.734  22.254   2.270
29774W        W  374  10.060  28.650   0.712
29775W        W  375  19.998  42.405   0.257
29776W        W  376  32.126   3.695   4.697
29777W        W  377   7.966  35.335   1.949
29778W        W  378  38.536  11.649   4.189
29779W        W  379   0.289  16.192  13.751
29780W        W  380   6.237  41.498  13.512
29781W        W  381  19.949  40.395   0.667
29782W        W  382  41.643   2.399  13.073
29783W        W  383  10.088   4.949  13.203
29784W        W  384  11.357  18.516  13.492
29785W        W  385  39.496   4.283   0.251
29786W        W  386  12.148   8.225  14.792
29787W        W  387  25.639  18.690   4.302
29788W        W  388  36.530  38.336  10.657
29789W        W  389  27.752  37.627   1.883
29790W        W  390  10.802  29.241   1.100
29791W        W  391  17.003  43.425   2.406
29792W        W  392  13.713  21.081  14.059
29793W        W  393  10.034  21.610  11.624
29794W        W  394  18.510   8.309  14.873
29795W        W  395  35.355  41.402  12.858
29796W        W  396  20.539  26.269   1.249
29797W        W  397  26.010   7.362   0.995
29798W        W  398  15.305  25.168   0.548
29799W        W  399  38.624  34.884   4.123
29800W        W  400  27.417  17.955   2.742
29801W        W  401  37.503  11.375   0.024
29802W        W  402  42.736   6.477   3.378
29803W        W  403   4.335  42.945  10.425
29804W        W  404   7.290  19.661  13.580
29805W        W  405  29.548  34.856   3.369
29806W        W  406  32.681  16.129  13.527
29807W        W  407  20.792  18.356   4.027
29808W        W  408  43.609   8.255  13.181
29809W        W  409  28.478  18.017   4.257
29810W        W  410  13.494  41.624  13.335
29811W        W  411  14.322  15.196   0.467
29812W        W  412  39.774   3.297   1.084
29813W        W  413  26.968  20.224   3.354
29814W        W  414  23.987   2.699  10.169
29815W        W  415  44.498  37.971   9.573
29816W        W  416  35.243   0.487  10.421
29817W        W  417  11.239  42.109  10.081
29818W        W  418  31.139   4.800  11.221
29819W        W  419  15.375  43.301  11.709
29820W        W  420  36.621  41.337   1.882
29821W        W  421  23.831  13.323   2.878
29822W        W  422  19.815  41.380   2.753
29823W        W  423  41.971  43.726  13.409
29824W        W  424  28.413  36.305  13.378
29825W        W  425  13.847  28.584   4.170
29826W        W  426  41.138  11.898   1.631
29827W        W  427  11.255  33.359   4.618
29828W        W  428  16.052   1.451  11.583
29829W        W  429   2.412  10.372   3.453
29830W        W  430  24.203  41.036   1.844
29831W        W  431   3.767   9.246  11.514
29832W        W  432  29.188  44.255  12.682
29833W        W  433   3.992   6.592  12.134
29834W        W  434  39.041  44.552  13.857
29835W        W  435  40.887   7.597  14.488
29836W        W  436  36.866   6.353   1.155
29837W        W  437  33.852  30.565  12.613
29838W        W  438  13.921  19.581   2.190
29839W        W  439   7.678  28.684  12.857
29840W        W  440  40.617  21.221   1.858
29841W        W  441  33.275  27.608   1.264
29842W        W  442  38.753  31.510  10.791
29843W        W  443  27.106  35.951   4.386
29844W        W  444  31.111  17.791   4.947
29845W        W  445  26.378  25.628   3.078
29846W        W  446  41.006  17.545  12.578
29847W        W  447  19.084  39.511   4.320
29848W        W  448  12.645   3.925   1.836
29849W        W  449  18.351  10.336  12.024
29850W        W  450   1.506  42.022  13.008
29851W        W  451  27.368  16.462  12.079
29852W        W  452   2.417  37.504  12.448
29853W        W  453  20.482  38.394  14.533
29854W        W  454  34.818   1.807  11.882
29855W        W  455  13.062  26.158  13.966
29856W        W  456  18.085  28.587  10.739
29857W        W  457  38.232  37.619  10.970
29858W        W  458  42.853  26.979   0.217
29859W        W  459  19.154   8.688   3.247
29860W        W  460  35.515   7.723   4.623
29861W        W  461  27.916  28.849  11.890
29862W        W  462  44.397  17.103  12.441
29863W        W  463  28.512  17.769   2.721
29864W        W  464  14.834  22.213  11.233
29865W        W  465   2.534   7.280   1.248
29866W        W  466  13.268  24.300   2.918
29867W        W  467  26.284  43.918  14.842
29868W        W  468   5.298  28.403  12.002
29869W        W  469   2.667  23.600   1.195
29870W        W  470  15.623  40.503  14.234
29871W        W  471  15.500  36.963   3.896
29872W        W  472   8.414  38.828   0.779
29873W        W  473  44.996   2.272   1.747
29874W        W  474  36.023  36.872  13.254
29875W        W  475  29.519  40.370   1.331
29876W        W  476   1.315  23.657   4.597
29877W        W  477   9.782  34.097  10.552
29878W        W  478  43.906   6.391  11.363
29879W        W  479  30.538  11.092  14.792
29880W        W  480  43.668  36.443   1.015
29881W        W  481  22.212  27.501   4.045
29882W        W  482  37.391   2.321   4.020
29883W        W  483  44.493   6.327  13.497
29884W        W  484  27.058  36.426   0.385
29885W        W  485  22.430  34.268  11.190
29886W        W  486  13.343  24.644  14.612
29887W        W  487   1.574  39.435   2.820
29888W        W  488  30.388  42.005  10.478
29889W        W  489  29.731  23.085   0.374
29890W        W  490  24.673  35.883  14.959
29891W        W  491  29.527  41.138   0.756
29892W        W  492   9.336  26.140   3.701
29893W        W  493  14.162  35.256  11.568
29894W        W  494  15.224  36.292  14.011
29895W        W  495  44.161  24.218   2.318
29896W        W  496  24.933  31.213   0.293
29897W        W  497  28.402  30.593   4.362
29898W        W  498  30.062  29.388   0.802
29899W        W  499  34.096  15.791  12.025
29900W        W  500  16.020   9.822  11.622
29901W        W  501   9.419   1.787   2.897
29902W        W  502   7.949  31.949   3.294
29903W        W  503   7.875  18.676  10.342
29904W        W  504  34.783  14.120   3.135
29905W        W  505  14.720  10.595  11.827
29906W        W  506   1.755  12.108  10.801
29907W        W  507  30.270  15.815   2.258
29908W        W  508  30.189   0.866  14.371
29909W        W  509   5.006  10.790  13.275
29910W        W  510  43.124  41.556   4.696
29911W        W  511  39.536  31.401  11.124
29912W        W  512  26.167  19.999  13.980
29913W        W  513   6.396  31.439   3.822
29914W        W  514   4.964  13.847   2.238
29915W        W  515   6.667  32.418   0.403
29916W        W  516  10.702  37.104   1.494
29917W        W  517  25.193  25.120  14.247
29918W        W  518  10.705   0.269   4.593
29919W        W  519  22.747  37.537  13.422
29920W        W  520  44.282   7.050   1.716
29921W        W  521  32.060  10.772  14.926
29922W        W  522  41.322  22.663   2.628
29923W        W  523  41.968  40.032   0.836
29924W        W  524  16.674  41.944   4.502
29925W        W  525  27.511  37.548  13.170
29926W        W  526  26.191  35.456  14.951
29927W        W  527  26.769  12.323   1.133
29928W        W  528  28.728  44.465  12.604
29929W        W  529  14.761  19.029   0.248
29930W        W  530  44.971  25.538  11.658
29931W        W  531   4.708  26.705  10.135
29932W        W  532  17.057   5.326   0.307
29933W        W  533  40.932  24.919   3.587
29934W        W  534   3.766  15.276   0.285
29935W        W  535  10.301  28.130   0.863
29936W        W  536  29.047  33.687   4.987
29937W        W  537  34.594   5.074   2.617
29938W        W  538  14.303  42.856  13.260
29939W        W  539  12.036  34.319   1.664
29940W        W  540  28.147  33.999   1.397
29941W        W  541  31.706  41.728   4.155
29942W        W  542  34.009  12.548   1.452
29943W        W  543  36.818  33.512   2.260
29944W        W  544  18.579  15.669  14.343
29945W        W  545  15.111   2.249   3.750
29946W        W  546  34.814  31.496  13.358
29947W        W  547   1.649  24.213  14.349
29948W        W  548   6.258  37.080  13.361
29949W        W  549  42.719   1.507   3.720
29950W        W  550  24.243  13.364  12.664
29951W        W  551  26.516  38.487   3.178
29952W        W  552  37.248   1.342  13.786
29953W        W  553  11.072  26.565  10.755
29954W        W  554  44.571  36.284  11.032
29955W        W  555  28.493  35.825   4.575
29956W        W  556   2.886  13.545   0.199
29957W        W  557  30.825   0.554  11.722
29958W        W  558  32.985  27.872  12.048
29959W        W  559  21.088  25.649  12.014
29960W        W  560  11.487   2.310  11.265
29961W        W  561  29.486  30.122  13.332
29962W        W  562  14.185   9.132  11.213
29963W        W  563  17.658  10.743  11.073
29964W        W  564  30.085  31.637   4.343
29965W        W  565  31.071  14.606   4.730
29966W        W  566   3.346  41.307  12.893
29967W        W  567   7.949   9.305   2.462
29968W        W  568  16.251  38.464   4.565
29969W        W  569  39.488  18.061  11.391
29970W        W  570  15.889   6.758   0.476
29971W        W  571  11.043  42.892   3.356
29972W        W  572   4.305  41.024   0.196
29973W        W  573  15.771  28.259  14.024
29974W        W  574  15.617   9.806  14.948
29975W        W  575  19.800   8.857  12.877
29976W        W  576  37.859  20.396   3.266
29977W        W  577  24.737  24.956   3.090
29978W        W  578  20.721  35.711  12.404
29979W        W  579  32.131   1.270  12.468
29980W        W  580  36.937   5.414   0.913
29981W        W  581  35.316  13.817  12.885
29982W        W  582  20.391  37.516   1.927
29983W        W  583  28.376   3.778   0.818
29984W        W  584  19.383  42.493   1.123
29985W        W  585  16.051  18.730  13.054
29986W        W  586  28.005  24.199  12.859
29987W        W  587  25.935  38.904  13.379
29988W        W  588   1.916   9.071  14.080
29989W        W  589  10.610   7.611   2.866
29990W        W  590  43.243  36.492  10.792
29991W        W  591  43.777  15.763   1.257
29992W        W  592  42.902   3.962  14.492
29993W        W  593  17.350   1.236  13.097
29994W        W  594   2.344  29.069   3.445
29995W        W  595  12.074  40.034   4.823
29996W        W  596   9.248   8.896   0.415
29997W        W  597   2.222  35.144  10.292
29998W        W  598  43.787   7.723  11.029
29999W        W  599  17.714  10.198  14.317
30000W        W  600  30.347  25.893   2.317
30001W        W  601   4.915  32.616   0.385
30002W        W  602  28.534   7.673   1.699
30003W        W  603  33.074   7.802  14.804
30004W        W  604  44.036  18.106   4.309
30005W        W  605  33.979  38.042   2.337
30006W        W  606   2.190  36.045   1.741
30007W        W  607  24.611   1.000  14.402
30008W        W  608  32.241  28.536  12.120
30009W        W  609   7.184  22.507  13.976
30010W        W  610  13.752   6.729   2.755
30011W        W  611  10.411  42.347   1.020
30012W        W  612   6.353   1.891   3.240
30013W        W  613   0.794  27.634  13.365
30014W        W  614  40.536  13.064   0.429
30015W        W  615   3.846  43.219  12.687
30016W        W  616  34.590  15.155  11.587
30017W        W  617  12.908  11.334  13.585
30018W        W  618   0.706  44.335  14.384
30019W        W  619   6.666  20.183  13.947
30020W        W  620  39.954  17.409   1.738
30021W        W  621  18.965  25.092  10.293
30022W        W  622  33.962   9.002  12.807
30023W        W  623   5.498   4.162  14.424
30024W        W  624  35.979   5.204  13.624
30025W        W  625  35.096  32.671   4.966
30026W        W  626  38.393   1.781  10.720
30027W        W  627  39.780  31.554   4.559
30028W        W  628   8.298  31.046   0.393
30029W        W  629  28.879  30.420  11.201
30030W        W  630  37.332  40.233   1.583
30031W        W  631  15.345   7.238   2.457
30032W        W  632  38.583  28.270  11.465
30033W        W  633   1.375  14.751   2.434
30034W        W  634  36.128  14.657   1.658
30035W        W  635  36.533  42.183   2.407
30036W        W  636  13.703  40.022  10.622
30037W        W  637   5.998  12.097  10.566
30038W        W  638   6.688  44.534  11.892
30039W        W  639  26.997   2.651   2.749
30040W        W  640  22.109   7.473   2.816
30041W        W  641  37.276  21.168   1.181
30042W        W  642  36.899  21.236   1.954
30043W        W  643  36.893   2.991   0.252
30044W        W  644  29.037  20.985   1.730
30045W        W  645  43.648  14.799  13.378
30046W        W  646  12.669  30.035  10.566
30047W        W  647  43.694   2.241  11.681
30048W        W  648  44.774  21.530   1.925
30049W        W  649  37.563  11.815   2.660
30050W        W  650  28.047   8.341  11.664
30051W        W  651  32.376  18.940  13.162
30052W        W  652  38.499  34.658  14.983
30053W        W  653  27.236  39.876  12.391
30054W        W  654   3.304  39.803  13.073
30055W        W  655   1.352  31.446   2.847
30056W        W  656  29.439  25.127  11.546
30057W        W  657   5.215  29.901   1.410
30058W        W  658  33.390  21.230  10.161
30059W        W  659  34.494  42.559  10.725
30060W        W  660  42.195  34.320  13.058
30061W        W  661  28.496   1.384  13.067
30062W        W  662   5.351  16.993   2.162
30063W        W  663   5.214  12.409   2.625
30064W        W  664  26.108   6.086  12.422
30065W        W  665  44.340  31.635   4.059
30066W        W  666   0.411  35.117   2.185
30067W        W  667  10.934  13.592   4.596
30068W        W  668  22.482   6.918  11.893
30069W        W  669   5.607   9.284  12.506
30070W        W  670  40.885  15.912  12.561
30071W        W  671  10.033  14.168   1.482
30072W        W  672   4.472  13.450   3.242
30073W        W  673  20.610  41.262  14.790
30074W        W  674   3.026   1.469  10.572
30075W        W  675  35.902  32.304   2.664
30076W        W  676  19.187  16.703   1.317
30077W        W  677   0.755  44.510  13.077
30078W        W  678   7.310  41.414   0.071
30079W        W  679  40.862   0.461  13.590
30080W        W  680   1.887  17.565   3.328
30081W        W  681  17.630  15.466  14.416
30082W        W  682  39.402  26.404  12.928
30083W        W  683  29.911  30.115  14.057
30084W        W  684  42.995   8.266   0.710
30085W        W  685  18.993  25.690  13.889
30086W        W  686  11.666  32.116   2.137
30087W        W  687  33.867  17.694  13.391
30088W        W  688   6.292   4.229  12.436
30089W        W  689  33.692  33.563  10.139
30090W        W  690  25.594  43.575   1.378
30091W        W  691   3.854  42.476  13.097
30092W        W  692   8.774   0.478  10.732
30093W        W  693  42.451  26.964   4.984
30094W        W  694   6.968  11.598   1.039
30095W        W  695  16.177  35.322   2.696
30096W        W  696  10.943   7.710   4.425
30097W        W  697  27.226  23.499   1.822
30098W        W  698   0.471   9.191   3.312
30099W        W  699  35.445  25.632   2.676
30100W        W  700  42.439  24.953   0.783
30101W        W  701   9.715  44.541  11.638
30102W        W  702  13.319   1.722   1.748
30103W        W  703  26.993  28.709  10.637
30104W        W  704  24.458   6.152   0.056
30105W        W  705  39.577   4.372  13.509
30106W        W  706  20.319  19.631  13.905
30107W        W  707  31.885  19.181   1.889
30108W        W  708  15.868  16.228   4.991
30109W        W  709  36.254  26.263   2.930
30110W        W  710  16.682   8.406  12.842
30111W        W  711  32.471   3.163  12.302
30112W        W  712  25.287  31.928   0.905
30113W        W  713  43.293  19.140  14.894
30114W        W  714   1.024  36.617  13.128
30115W        W  715  37.510  35.815  11.948
30116W        W  716  28.476  21.488   2.806
30117W        W  717  27.827  18.684   2.143
30118W        W  718  41.350  28.876   0.493
30119W        W  719  24.784  33.178  11.111
30120W        W  720  12.283  19.724   1.492
30121W        W  721  23.153   9.685   3.278
30122W        W  722  29.340  40.065   2.330
30123W        W  723  13.835  41.859  13.657
30124W        W  724  33.416  17.326  11.468
30125W        W  725  12.186  31.174   3.763
30126W        W  726  11.123   1.830  10.895
30127W        W  727   9.888  12.302   4.963
30128W        W  728  25.181  35.987  12.990
30129W        W  729   2.394  42.370  13.747
30130W        W  730  19.252  34.181  11.940
30131W        W  731   8.446  34.369  12.658
30132W        W  732   8.749  41.244  13.241
30133W        W  733  42.306  41.329  11.205
30134W        W  734  37.528  43.554   2.300
30135W        W  735   1.077   2.677   1.816
30136W        W  736  12.936   5.528   2.112
30137W        W  737   9.817  36.566  14.021
30138W        W  738  41.361  22.644   1.243
30139W        W  739  23.308  31.597   1.928
30140W        W  740  10.579   5.833  13.535
30141W        W  741  17.252   3.486   1.385
30142W        W  742  42.785  19.771   4.851
30143W        W  743  30.448  36.731   3.640
30144W        W  744   6.636  42.639  11.888
30145W        W  745  10.357  32.977   2.283
30146W        W  746   4.925  44.825  10.665
30147W        W  747  12.809   7.229   0.633
30148W        W  748  16.613  13.630   2.189
30149W        W  749  16.498  18.748  13.335
30150W        W  750   0.306   0.750  10.648
30151W        W  751  14.569  23.098   4.105
30152W        W  752  15.519   7.858  14.613
30153W        W  753  21.125   5.386   3.486
30154W        W  754  15.661  26.524   5.145
30155W        W  755  29.803  38.841  13.516
30156W        W  756  13.108  20.053   2.382
30157W        W  757  30.209  44.472  10.966
30158W        W  758  26.904  35.946   1.252
30159W        W  759  35.377  35.970   0.673
30160W        W  760  36.091  14.742   0.424
30161W        W  761  27.158   0.916   0.519
30162W        W  762   2.393  42.714  12.472
30163W        W  763  44.534  16.828  13.897
30164W        W  764  39.617  39.449   2.324
30165W        W  765  23.367   8.915   2.792
30166W        W  766  43.888  39.443  14.743
30167W        W  767  11.451  12.653   4.090
30168W        W  768   3.549   3.034   4.235
30169W        W  769  43.863  13.251   1.415
30170W        W  770   3.801  38.530   1.239
30171W        W  771  33.656  27.881  13.712
30172W        W  772   4.628  36.717   3.149
30173W        W  773  21.698   9.816  11.792
30174W        W  774  29.381   1.708  12.980
30175W        W  775  39.853   7.649   0.350
30176W        W  776   0.649   6.828   4.726
30177W        W  777  12.652  32.875   1.030
30178W        W  778  20.056   6.382  13.810
30179W        W  779  40.358   2.519   3.908
30180W        W  780  40.444  38.586   3.009
30181W        W  781  25.080  23.927   4.056
30182W        W  782  33.054   6.281  14.857
30183W        W  783  36.128  26.709   3.197
30184W        W  784   3.302   8.329  14.808
30185W        W  785  23.234   0.156  11.169
30186W        W  786   6.126   1.751   3.716
30187W        W  787  10.818   1.778   0.416
30188W        W  788  15.139  30.122   4.330
30189W        W  789  17.712  42.317   2.825
30190W        W  790  14.231   6.121   3.028
30191W        W  791  39.867  32.224   2.960
30192W        W  792  16.642  42.500   2.520
30193W        W  793  37.375  10.238  13.478
30194W        W  794   5.426   3.247  13.538
30195W        W  795  29.982  36.564  10.641
30196W        W  796  33.878  24.783   2.632
30197W        W  797  35.144  12.833  12.561
30198W        W  798  37.104  12.893  12.959
30199W        W  799  34.975  42.306  10.649
30200W        W  800  27.497  14.866   3.316
30201W        W  801  35.544  34.452  13.420
30202W        W  802  15.673  28.299  10.975
30203W        W  803   4.848   3.204  10.512
30204W        W  804  11.780  18.158   0.858
30205W        W  805  20.040   1.869  14.317
30206W        W  806  19.371  43.709  10.694
30207W        W  807  31.904   8.508  13.979
30208W        W  808  22.552  21.615  12.970
30209W        W  809  31.848  26.583  14.390
30210W        W  810   5.030  20.002  12.355
30211W        W  811  16.240  17.294   1.415
30212W        W  812  14.587  11.943   1.475
30213W        W  813  35.477  30.883  14.767
30214W        W  814   1.471   5.466   1.148
30215W        W  815  34.262  27.921  12.489
30216W        W  816  30.913  33.539   1.958
30217W        W  817  20.264   0.830   4.634
30218W        W  818  19.083   4.427  12.616
30219W        W  819  11.286   9.865   0.026
30220W        W  820  31.181  35.636  11.546
30221W        W  821   7.918   6.642  12.940
30222W        W  822  35.778  42.069   3.658
30223W        W  823   3.414   4.171  11.235
30224W        W  824  12.272  34.377  10.693
30225W        W  825   9.410   2.783   1.348
30226W        W  826  19.559  25.290  12.136
30227W        W  827  28.327  17.678   3.232
30228W        W  828  29.236  11.638   0.953
30229W        W  829  13.655  31.869   4.271
30230W        W  830  27.064   2.521  13.613
30231W        W  831  12.900   4.608   4.475
30232W        W  832  19.351  15.896   9.942
30233W        W  833  18.982  40.095   0.767
30234W        W  834  25.551  23.983  11.071
30235W        W  835  44.858  15.707  14.896
30236W        W  836  14.001  27.695  11.303
30237W        W  837   3.377  15.022  11.952
30238W        W  838  24.146  41.755  14.920
30239W        W  839  13.878  29.648  14.273
30240W        W  840  27.647  13.351  14.308
30241W        W  841  15.278  19.500  11.450
30242W        W  842  35.809  35.328   1.884
30243W        W  843   9.176  23.201  13.541
30244W        W  844   0.329   3.523   4.145
30245W        W  845  25.719  39.642  13.390
30246W        W  846   4.739  36.967  12.847
30247W        W  847  35.927  12.522  13.002
30248W        W  848  13.589  36.508   3.855
30249W        W  849  33.398  17.522  13.290
30250W        W  850   8.012   1.751   3.725
30251W        W  851  26.686  26.648   1.899
30252W        W  852  22.478  19.016  14.907
30253W        W  853   7.056   8.852   2.355
30254W        W  854  42.289  27.718   1.814
30255W        W  855  20.751   6.904  13.953
30256W        W  856  15.541  13.174   3.733
30257W        W  857  19.699  10.921   1.229
30258W        W  858   4.451   8.227  13.237
30259W        W  859   2.747   1.354   1.363
30260W        W  860  18.604   7.822   0.883
30261W        W  861   5.858  35.337  11.111
30262W        W  862  41.438   4.676  12.628
30263W        W  863  10.269   1.738   3.850
30264W        W  864   8.280  30.989   3.313
30265W        W  865  39.392   1.044   4.499
30266W        W  866  13.548  13.733   2.702
30267W        W  867  34.430  38.465   2.743
30268W        W  868   5.498  27.933  11.528
30269W        W  869  11.243  14.821   4.164
30270W        W  870   3.638  18.635   0.841
30271W        W  871  19.397   2.089   1.310
30272W        W  872   8.354  28.118   1.639
30273W        W  873  23.798  30.863   2.199
30274W        W  874  22.693  14.664  14.009
30275W        W  875   9.292   5.595   2.332
30276W        W  876  23.919  26.400  14.831
30277W        W  877  43.696  11.402   0.153
30278W        W  878  12.437  13.865  12.504
30279W        W  879   3.328  16.178  11.918
30280W        W  880  33.680  25.560  12.925
30281W        W  881   6.905  30.957   0.292
30282W        W  882  22.386  41.775  12.803
30283W        W  883   0.183  16.837  10.792
30284W        W  884   0.460  29.082  13.823
30285W        W  885  36.216   3.776   1.779
30286W        W  886  39.030  21.628  14.353
30287W        W  887  17.630  39.400   4.435
30288W        W  888  41.290  35.142  10.556
30289W        W  889  21.589  32.720  10.721
30290W        W  890  35.811  19.039  12.126
30291W        W  891  19.178   4.905   3.264
30292W        W  892  22.459  25.304  10.090
30293W        W  893  37.396   5.281   2.772
30294W        W  894  34.446  22.760  12.947
30295W        W  895  31.683  20.673  12.132
30296W        W  896  33.038  34.968  14.494
30297W        W  897  12.972  17.070   1.525
30298W        W  898  24.172  29.332   4.501
30299W        W  899  25.022  29.020   3.920
30300W        W  900   4.736  44.252  12.182
30301W        W  901  21.274  29.682  11.415
30302W        W  902   9.151  32.893  11.982
30303W        W  903  16.764   5.188  14.548
30304W        W  904  19.506  37.799  10.729
30305W        W  905  21.121  13.728   1.787
30306W        W  906  36.700   3.011  12.036
30307W        W  907  27.722  34.324  14.250
30308W        W  908   8.822  26.187   2.827
30309W        W  909  11.402  35.520   2.579
30310W        W  910  10.654  42.594  14.369
30311W        W  911   4.898  13.422  13.900
30312W        W  912  31.164   2.927   0.378
30313W        W  913   0.891  15.291   3.644
30314W        W  914  16.765   5.938  12.334
30315W        W  915  26.983  24.540  14.110
30316W        W  916   5.307  38.376   0.488
30317W        W  917   7.839   3.150   2.016
30318W        W  918  22.057  26.557  13.165
30319W        W  919  31.714  24.501  11.281
30320W        W  920   1.434  11.756   3.983
30321W        W  921  14.768  29.632  14.753
30322W        W  922   9.390  31.187   4.544
30323W        W  923  38.618  23.092  14.918
30324W        W  924  16.308  25.568  13.960
30325W        W  925   0.048  35.097   1.812
30326W        W  926  16.698  10.767   2.050
30327W        W  927   9.344   9.608  13.948
30328W        W  928  24.533  33.647  11.728
30329W        W  929  32.934  39.204  13.032
30330W        W  930   7.461   5.297  12.927
30331W        W  931   1.200  34.615   1.421
30332W        W  932  22.973  44.755   3.142
30333W        W  933   8.826  11.315  14.525
30334W        W  934  32.041  35.029   4.494
30335W        W  935  11.454   6.387   4.461
30336W        W  936  19.579  39.321   2.780
30337W        W  937  10.169  41.334  11.254
30338W        W  938  41.977  40.269  13.004
30339W        W  939  29.848   4.086   3.362
30340W        W  940  26.579  43.345  12.317
30341W        W  941  25.106   8.550   2.763
30342W        W  942   9.788  35.193  12.034
30343W        W  943  32.091  29.446   0.850
30344W        W  944  26.107   1.208   2.359
30345W        W  945  27.428   9.240  12.084
30346W        W  946  39.500  41.628  13.095
30347W        W  947   7.796  17.171   1.293
30348W        W  948  31.644  24.903  10.962
30349W        W  949  31.188  39.960   1.854
30350W        W  950   3.417   0.367  14.598
30351W        W  951  39.435  32.880  11.131
30352W        W  952   3.267  26.462  13.904
30353W        W  953  21.157   8.510   0.320
30354W        W  954  11.287   1.858  11.379
30355W        W  955  20.233   8.486   0.562
30356W        W  956  43.699  40.592  11.559
30357W        W  957  11.233  19.080   2.791
30358W        W  958  39.433   7.747  14.071
30359W        W  959  37.965  29.069  13.003
30360W        W  960  34.336   7.989  11.899
30361W        W  961  31.979  14.213   3.837
30362W        W  962  17.761  32.984   0.434
30363W        W  963  22.658  38.554  10.525
30364W        W  964  41.383  37.557   1.423
30365W        W  965   3.998   0.089  11.014
30366W        W  966  36.702  18.153   3.153
30367W        W  967   7.958  39.528  11.999
30368W        W  968  31.559  43.439  12.439
30369W        W  969  25.261  34.980   2.801
30370W        W  970  34.087   5.314  10.985
30371W        W  971  41.817  33.343  11.118
30372W        W  972  39.244  41.557  13.525
30373W        W  973  32.624  38.329   3.197
30374W        W  974   4.187   3.987  14.274
30375W        W  975   9.941  37.777   0.676
30376W        W  976  27.609  16.630   0.331
30377W        W  977  40.961  36.273   0.617
30378W        W  978  43.801  23.520   1.352
30379W        W  979  42.348  34.683   4.482
30380W        W  980  17.253  30.319   3.168
30381W        W  981  16.488  11.748  13.972
30382W        W  982  44.729  36.327  14.841
30383W        W  983  38.480  26.480  11.012
30384W        W  984  17.276  34.452  13.850
30385W        W  985  21.087  31.748   3.839
30386W        W  986  15.588   6.777  10.930
30387W        W  987  31.614  43.112   1.435
30388W        W  988   9.723  31.417   0.402
30389W        W  989   8.753  33.765   4.943
30390W        W  990   2.327   3.715   3.716
30391W        W  991  34.816  38.886  12.321
30392W        W  992  37.733  43.068   2.252
30393W        W  993   6.659  29.914   2.681
30394W        W  994  42.390  41.556  12.536
30395W        W  995   0.732   4.417   4.087
30396W        W  996  33.560   7.730   1.954
30397W        W  997  22.075  32.531  10.730
30398W        W  998  42.986   8.728  14.389
30399W        W  999  23.115  11.364  14.385
30400W        W 1000   5.343  18.468   4.019
30401W        W 1001  19.071  37.623  13.911
30402W        W 1002  15.980  43.979  11.537
30403W        W 1003  20.064  33.562  12.240
30404W        W 1004  15.266  42.562  14.015
30405W        W 1005  10.093  22.169  12.529
30406W        W 1006  23.865   2.822  11.103
30407W        W 1007  33.523  37.244   1.011
30408W        W 1008  19.555   1.460   1.213
30409W        W 1009  19.306  28.673  12.048
30410W        W 1010  43.949  16.840  10.574
30411W        W 1011  29.079   3.333   3.980
30412W        W 1012   5.363  36.322   0.645
30413W        W 1013  13.373  30.601  10.850
30414W        W 1014   2.486  25.481   1.999
30415W        W 1015   2.450   6.312   2.676
30416W        W 1016  28.450   6.345   0.453
30417W        W 1017   3.033   8.626  11.635
30418W        W 1018  22.510  26.478   3.783
30419W        W 1019  31.627  36.954   2.708
30420W        W 1020  30.793  18.165  11.956
30421W        W 1021  27.403  24.906  12.921
30422W        W 1022  41.094   9.270   0.832
30423W        W 1023  19.273  37.093   3.135
30424W        W 1024  16.797   7.675   0.453
30425W        W 1025  10.248   1.475  13.958
30426W        W 1026  20.274  25.003   2.848
30427W        W 1027   2.858   7.617   3.345
30428W        W 1028  36.924   0.943  13.877
30429W        W 1029  44.442  33.407  10.470
30430W        W 1030   6.351  24.556  14.442
30431W        W 1031   6.816  35.329   1.629
30432W        W 1032  24.537  18.806   3.470
30433W        W 1033  18.621  15.883   2.912
30434W        W 1034  17.016   1.371   1.264
30435W        W 1035   2.424  38.801   1.239
30436W        W 1036   4.663  40.006   4.543
30437W        W 1037  43.283  31.693   3.246
30438W        W 1038   7.138  11.379   3.675
30439W        W 1039  41.754  26.449  14.338
30440W        W 1040  28.157  27.917   5.125
30441W        W 1041  40.525   1.527   0.373
30442W        W 1042  28.980  12.818   2.274
30443W        W 1043  35.317  30.185   2.671
30444W        W 1044  23.188   1.060   3.734
30445W        W 1045  17.264  18.038  12.016
30446W        W 1046  14.143  24.961   3.728
30447W        W 1047   8.353  37.177  12.000
30448W        W 1048  12.251  37.789  11.187
30449W        W 1049  13.857  33.965  14.953
30450W        W 1050  25.957  18.636   0.820
30451W        W 1051   4.468   5.415  11.208
30452W        W 1052  17.478  29.141  13.148
30453W        W 1053  34.642  41.365  12.051
30454W        W 1054   9.337  21.965   2.876
30455W        W 1055  38.882  22.194   2.473
30456W        W 1056  16.361  24.532  14.761
30457W        W 1057  40.469   2.559   0.134
30458W        W 1058   6.790   2.233   0.460
30459W        W 1059  39.896  15.980   1.789
30460W        W 1060  38.589  31.060   2.685
30461W        W 1061  11.871   9.345   4.552
30462W        W 1062   2.676  11.889  12.961
30463W        W 1063  10.885   5.248  14.093
30464W        W 1064  26.623   0.991   3.521
30465W        W 1065   1.575  23.567  12.399
30466W        W 1066  30.087  33.697  14.538
30467W        W 1067  12.319   4.983   1.264
30468W        W 1068  12.900   5.400  14.513
30469W        W 1069  19.684  28.065   2.839
30470W        W 1070   6.809  24.393  14.301
30471W        W 1071   4.932   0.636  11.136
30472W        W 1072  37.057   0.329  14.049
30473W        W 1073  31.606  27.448   4.258
30474W        W 1074  12.867  38.352  13.234
30475W        W 1075  37.312  21.069   4.468
30476W        W 1076  31.492  19.161   0.059
30477W        W 1077   0.937  27.910  13.884
30478W        W 1078  40.324  11.155  10.809
30479W        W 1079  37.797  44.901   4.186
30480W        W 1080  28.118  19.054  13.797
30481W        W 1081   9.396  11.423  11.150
30482W        W 1082   6.190  20.773  13.828
30483W        W 1083  42.675  25.609  12.149
30484W        W 1084  32.157  31.864  10.368
30485W        W 1085   9.162  39.634   2.250
30486W        W 1086   8.855   0.067  11.481
30487W        W 1087  29.015  24.713   0.744
30488W        W 1088  26.068  31.004   4.043
30489W        W 1089   5.427   9.800  11.202
30490W        W 1090  42.846  10.378   2.701
30491W        W 1091  12.947  11.712   0.009
30492W        W 1092  33.355  32.425   1.821
30493W        W 1093   7.089   7.989   0.771
30494W        W 1094  37.153  18.736  10.569
30495W        W 1095  42.472  31.576  13.865
30496W        W 1096  25.283   4.468   2.637
30497W        W 1097  12.024   4.328   4.225
30498W        W 1098  17.022  32.351  11.095
30499W        W 1099  44.015  44.006  13.215
30500W        W 1100  28.660  16.111   3.622
30501W        W 1101  12.430  42.111   5.262
30502W        W 1102  43.856  42.781  12.108
30503W        W 1103  26.599  18.209   3.086
30504W        W 1104  20.262  24.996   0.426
30505W        W 1105   1.277  25.469   3.911
30506W        W 1106  34.526  32.524  11.077
30507W        W 1107  10.330  32.988  11.970
30508W        W 1108  44.580  41.380   1.743
30509W        W 1109  30.499  36.464  11.584
30510W        W 1110  16.566  35.532   3.978
30511W        W 1111  16.306   7.687  12.491
30512W        W 1112  22.394  23.421   3.517
30513W        W 1113  27.949  16.658  10.777
30514W        W 1114  16.813  27.764  11.607
30515W        W 1115   8.289  11.392   4.643
30516W        W 1116   9.672  41.615   0.983
30517W        W 1117  31.909   6.328   2.366
30518W        W 1118  19.094   5.341   2.452
30519W        W 1119  40.114  41.070   3.134
30520W        W 1120   0.243   5.708  14.825
30521W        W 1121  34.670  36.108   4.142
30522W        W 1122  37.343   1.843   4.940
30523W        W 1123  37.784  41.453  12.550
30524W        W 1124  24.124  25.979  11.976
30525W        W 1125  13.721  15.992   1.726
30526W        W 1126  31.840   2.273   4.882
30527W        W 1127  37.143   8.419  14.892
30528W        W 1128  19.673  30.471   2.297
30529W        W 1129  21.597  20.338  12.116
30530W        W 1130  21.948  30.596  13.850
30531W        W 1131  11.326  30.784   3.737
30532W        W 1132  40.109  34.235   3.171
30533W        W 1133  11.286  15.529   1.789
30534W        W 1134  12.148  37.439   0.596
30535W        W 1135  28.562  43.374  10.698
30536W        W 1136   7.158  13.654   0.390
30537W        W 1137   6.388  25.081  14.514
30538W        W 1138   7.932  17.883   2.723
30539W        W 1139  29.204  21.124   3.904
30540W        W 1140  30.148   4.361  10.628
30541W        W 1141  14.610  12.257  11.588
30542W        W 1142  23.624  39.690   0.576
30543W        W 1143  20.166  31.077   0.864
30544W        W 1144  34.344  15.558  10.735
30545W        W 1145   8.844  15.487   1.177
30546W        W 1146  42.968  34.815  12.920
30547W        W 1147  29.318  44.261  11.178
30548W        W 1148  38.804  29.101  14.883
30549W        W 1149  36.575  17.864   0.510
30550W        W 1150  33.870   3.548   0.802
30551W        W 1151   4.470   2.521  14.407
30552W        W 1152  43.041  12.125   4.240
30553W        W 1153  30.913  28.883  14.812
30554W        W 1154  40.485   1.075   3.817
30555W        W 1155  13.468  33.584   1.844
30556W        W 1156  19.028  43.400   0.868
30557W        W 1157  32.885  19.677   2.117
30558W        W 1158  35.072  12.849   2.220
30559W        W 1159  31.637  29.132   0.344
30560W        W 1160  15.137  30.600   4.531
30561W        W 1161  13.346  25.143   0.837
30562W        W 1162  42.860   0.690   1.320
30563W        W 1163  25.799  26.726  13.450
30564W        W 1164  32.106   0.321   3.054
30565W        W 1165  42.861   2.777   2.306
30566W        W 1166   3.653  31.791   5.022
30567W        W 1167  24.425   1.701   3.150
30568W        W 1168  36.077  23.488  13.805
30569W        W 1169   8.738  41.637  14.796
30570W        W 1170   8.909   6.203  13.984
30571W        W 1171  21.100  16.614   0.526
30572W        W 1172  36.413  34.478  12.485
30573W        W 1173  38.118   7.088  11.854
30574W        W 1174  36.383  18.236  10.638
30575W        W 1175   7.867  27.249   2.806
30576W        W 1176  14.236   2.181   0.725
30577W        W 1177  34.309  40.536   2.486
30578W        W 1178  17.580  17.682   0.394
30579W        W 1179  31.178  17.797  11.967
30580W        W 1180   9.657  19.100   0.992
30581W        W 1181  35.266  15.210  14.970
30582W        W 1182  18.613  37.442   2.388
30583W        W 1183   1.488   8.840  13.920
30584W        W 1184  17.399  18.092  14.002
30585W        W 1185   8.141  43.916  11.192
30586W        W 1186   7.638  12.262  11.738
30587W        W 1187  19.933  42.542  13.934
30588W        W 1188  14.407  11.340   4.200
30589W        W 1189  27.931  43.072  10.676
30590W        W 1190   8.884  41.179  10.588
30591W        W 1191  44.770  33.554  11.152
30592W        W 1192  20.601  34.028   3.675
30593W        W 1193  43.187  38.950  13.326
30594W        W 1194  20.598  19.200  13.708
30595W        W 1195  18.246  42.915  11.983
30596W        W 1196  34.458   9.719   4.196
30597W        W 1197  11.719  23.203  11.223
30598W        W 1198  10.622  34.908  12.874
30599W        W 1199  15.656  18.442  13.242
30600W        W 1200   2.034  12.514   3.668
30601W        W 1201   6.011   4.157  14.338
30602W        W 1202  31.096  11.957   1.753
30603W        W 1203   5.714   4.723  11.724
30604W        W 1204   8.866  42.376   0.261
30605W        W 1205  15.145  34.303  11.561
30606W        W 1206   1.040   5.606  10.795
30607W        W 1207  31.626  44.861  13.419
30608W        W 1208  16.850  24.899  11.125
30609W        W 1209  12.854  22.061  13.558
30610W        W 1210  17.020  42.881   1.861
30611W        W 1211  26.051  13.370   3.302
30612W        W 1212  30.692  28.120   2.680
30613W        W 1213  42.367  23.566  11.939
30614W        W 1214  15.084   7.948  11.191
30615W        W 1215  31.415  39.421   1.879
30616W        W 1216  26.549  10.656  11.973
30617W        W 1217  37.538  31.475   3.936
30618W        W 1218   0.435   7.034   0.934
30619W        W 1219  30.956  22.586   4.353
30620W        W 1220  43.345  43.168   1.406
30621W        W 1221  29.652  31.841   3.981
30622W        W 1222  21.067  37.050  13.522
30623W        W 1223   8.931  12.099  10.567
30624W        W 1224  39.214  23.602  12.080
30625W        W 1225  30.915   9.883  13.642
30626W        W 1226   7.937  28.683   2.002
30627W        W 1227   6.223   7.103   3.321
30628W        W 1228  23.051  31.676  11.035
30629W        W 1229  33.643  30.412  13.276
30630W        W 1230  25.166   3.720  14.349
30631W        W 1231  18.257   5.253   4.779
30632W        W 1232  10.451   4.950   0.253
30633W        W 1233  43.847  31.107  11.449
30634W        W 1234   7.926  37.649  13.357
30635W        W 1235  17.139  28.359   0.632
30636W        W 1236  12.043  16.239  10.972
30637W        W 1237  33.481  18.641   5.154
30638W        W 1238  38.009  20.694  12.846
30639W        W 1239  25.113  36.818  12.655
30640W        W 1240  34.691  32.105  14.482
30641W        W 1241   1.297  24.296   3.859
30642W        W 1242  21.596  15.224   1.374
30643W        W 1243   7.148  21.682  10.708
30644W        W 1244   7.759   5.275   4.156
30645W        W 1245  40.585  14.332   5.089
30646W        W 1246   4.192  24.388  13.490
30647W        W 1247  42.135  15.367  13.006
30648W        W 1248  24.664  24.403  12.117
30649W        W 1249  34.134  16.590   4.646
30650W        W 1250  17.444  19.013  11.471
30651W        W 1251  34.981   6.416   2.704
30652W        W 1252  16.767   2.937   3.369
30653W        W 1253  42.222  32.856  10.636
30654W        W 1254   9.286  43.508   3.815
30655W        W 1255  41.230  13.216   3.583
30656W        W 1256  12.573  25.484  11.193
30657W        W 1257  14.108   1.783   0.293
30658W        W 1258  33.125  42.246  12.565
30659W        W 1259  40.092  35.285   2.359
30660W        W 1260   2.274  16.622   0.824
30661W        W 1261  27.976  18.600  12.532
30662W        W 1262  16.599  20.569  10.422
30663W        W 1263  22.147  28.028   3.830
30664W        W 1264  40.389  14.213   0.922
30665W        W 1265  26.195  39.324  12.338
30666W        W 1266   0.252   1.763   4.981
30667W        W 1267  33.387  16.484  12.270
30668W        W 1268  11.594  39.091  14.844
30669W        W 1269  31.719   2.162   2.836
30670W        W 1270  43.827   7.180   0.826
30671W        W 1271  32.265  25.531   2.845
30672W        W 1272  19.137  29.452   2.263
30673W        W 1273  32.724  34.304  13.604
30674W        W 1274  11.220  12.256   2.294
30675W        W 1275  23.734   1.653   3.356
30676W        W 1276  26.740  33.285   4.662
30677W        W 1277   7.247  23.483   4.892
30678W        W 1278  32.165  29.639  11.057
30679W        W 1279  40.142  22.600  14.324
30680W        W 1280   7.189   6.105  12.436
30681W        W 1281   0.825  13.220  13.604
30682W        W 1282  21.982   6.796   9.903
30683W        W 1283  25.521  42.910   2.179
30684W        W 1284   6.284  42.348   3.080
30685W        W 1285  22.901  14.878  13.087
30686W        W 1286   4.724  44.043   1.526
30687W        W 1287   3.981   2.830  11.542
30688W        W 1288  34.563  43.162   3.559
30689W        W 1289  20.593  23.571  10.682
30690W        W 1290   7.390  22.632  11.607
30691W        W 1291   7.184   5.024  13.324
30692W        W 1292  20.616  29.534   0.042
30693W        W 1293  31.450   1.882  14.116
30694W        W 1294  18.943  12.039   4.200
30695W        W 1295  14.176  29.695  12.057
30696W        W 1296   9.192  28.094  14.496
30697W        W 1297  30.069  27.593   4.127
30698W        W 1298  27.713  20.518  14.395
30699W        W 1299  30.043  20.512   0.773
30700W        W 1300  42.850   4.470  14.476
30701W        W 1301  17.595  16.579   3.321
30702W        W 1302  14.366  38.007   1.147
30703W        W 1303  22.689  18.583  14.174
30704W        W 1304  40.042  23.314   2.759
30705W        W 1305  43.835  23.138   0.686
30706W        W 1306  17.218   0.549   5.034
30707W        W 1307  29.273  23.527   3.924
30708W        W 1308  22.460  38.468  11.962
30709W        W 1309  17.672   3.430   4.596
30710W        W 1310  23.192  13.376  12.070
30711W        W 1311  37.767  31.326  12.535
30712W        W 1312  42.783   8.395  14.726
30713W        W 1313  31.532   5.382  13.022
30714W        W 1314  44.323  25.091  10.103
30715W        W 1315  31.681  41.426  14.074
30716W        W 1316  14.050   3.857  11.540
30717W        W 1317  33.141  24.750  13.957
30718W        W 1318  36.693  24.113   4.137
30719W        W 1319  21.279   4.026  11.111
30720W        W 1320   9.942   2.919   2.808
30721W        W 1321  41.902  36.078   2.417
30722W        W 1322   6.864  41.575   3.704
30723W        W 1323  26.040  42.065   3.636
30724W        W 1324  25.440  44.119  10.168
30725W        W 1325  36.324  31.685   2.755
30726W        W 1326  31.448  15.730   4.297
30727W        W 1327  12.630  38.181  11.947
30728W        W 1328   2.520   5.692  13.513
30729W        W 1329  14.675   7.881  11.558
30730W        W 1330  31.355  30.001   4.688
30731W        W 1331  13.687  17.533   1.727
30732W        W 1332  11.052  28.439  11.542
30733W        W 1333   3.174  36.087   4.728
30734W        W 1334   6.735   0.523   4.263
30735W        W 1335   4.892  34.922   0.761
30736W        W 1336  37.089  37.068  13.148
30737W        W 1337  43.271  13.929  12.151
30738W        W 1338  25.583  28.079  14.169
30739W        W 1339   8.379  28.627  13.269
30740W        W 1340  43.842  42.003  11.588
30741W        W 1341  10.896  29.149  13.795
30742W        W 1342  40.239  23.975   4.523
30743W        W 1343   4.971  20.096  14.900
30744W        W 1344  29.033  43.756   2.409
30745W        W 1345  37.557  39.878  11.685
30746W        W 1346  17.109  37.552   1.350
30747W        W 1347   6.649  37.974   2.691
30748W        W 1348  14.009  18.184  12.430
30749W        W 1349  20.595  35.992  14.836
30750W        W 1350   9.852  34.434  14.990
30751W        W 1351   2.257  41.626   0.883
30752W        W 1352  34.008  42.716  14.152
30753W        W 1353  44.934   7.201   2.784
30754W        W 1354  41.981  40.918  13.726
30755W        W 1355  29.634   6.841  13.904
30756W        W 1356  37.151   5.414   0.276
30757W        W 1357   4.210  36.071  11.560
30758W        W 1358  42.943  28.158   3.951
30759W        W 1359  12.094   4.833   4.150
30760W        W 1360   7.412  23.009  14.054
30761W        W 1361   6.912  26.262   1.340
30762W        W 1362   1.267  40.843  13.504
30763W        W 1363   6.376   0.861   2.748
30764W        W 1364  31.307  17.186  13.125
30765W        W 1365   8.707  12.944   0.296
30766W        W 1366  17.716  20.974   2.777
30767W        W 1367  14.050  30.226   1.906
30768W        W 1368  11.228  11.164  13.902
30769W        W 1369  15.257  16.357  12.445
30770W        W 1370   2.434   5.751   0.395
30771W        W 1371  34.439  27.820  14.816
30772W        W 1372  16.484  10.603   4.096
30773W        W 1373  15.829   7.813   1.246
30774W        W 1374  18.730  18.079   0.174
30775W        W 1375  30.503  41.873   3.299
30776W        W 1376  16.673   5.150  10.432
30777W        W 1377  20.591   6.674   2.423
30778W        W 1378  29.236   2.414   0.906
30779W        W 1379  11.318  10.751  12.955
30780W        W 1380  39.821  35.021   1.799
30781W        W 1381  12.190  27.490   2.118
30782W        W 1382  36.475  34.047  14.234
30783W        W 1383  41.914   8.738   2.526
30784W        W 1384  12.218  18.282  13.049
30785W        W 1385  30.194  22.888   0.277
30786W        W 1386  36.692  15.225   4.171
30787W        W 1387  32.430  24.936  10.688
30788W        W 1388  19.458  39.989   1.713
30789W        W 1389  22.791  40.200   0.897
30790W        W 1390  33.794  38.950  12.506
30791W        W 1391  13.160  30.614   3.280
30792W        W 1392  22.168   2.676  14.229
30793W        W 1393   7.673  36.406  11.625
30794W        W 1394  14.817   2.741  11.211
30795W        W 1395  18.815  33.020  12.294
30796W        W 1396  13.175  29.098  10.430
30797W        W 1397  43.545  26.884  11.174
30798W        W 1398  35.024  15.496   1.195
30799W        W 1399  30.542  39.003  13.398
30800W        W 1400  35.963   4.873  12.835
30801W        W 1401  40.574   3.261   3.731
30802W        W 1402  11.760  34.568  10.707
30803W        W 1403  31.540  15.407  10.688
30804W        W 1404  19.834  27.537  13.870
30805W        W 1405  25.500  17.081   2.188
30806W        W 1406  39.413  33.123   0.914
30807W        W 1407   5.632  32.954  14.895
30808W        W 1408  18.465  25.167  10.268
30809W        W 1409  40.866   4.510   1.207
30810W        W 1410  16.254  19.108  13.791
30811W        W 1411  43.982  42.526  10.717
30812W        W 1412   4.397  44.760  11.779
30813W        W 1413  10.787   3.192   2.345
30814W        W 1414   3.733  27.617  10.395
30815W        W 1415  21.943  27.052   3.415
30816W        W 1416   0.812  19.748   1.062
30817W        W 1417   0.915  25.574   4.773
30818W        W 1418  37.675  22.936   1.465
30819W        W 1419  30.388  37.933  13.115
30820W        W 1420  35.866  35.878   4.582
30821W        W 1421  10.159  19.536   4.442
30822W        W 1422  28.548  33.534  11.674
30823W        W 1423  20.098  28.558   4.066
30824W        W 1424  44.995  13.820   1.754
30825W        W 1425   2.992  13.688  11.236
30826W        W 1426   7.162  18.052   1.369
30827W        W 1427  25.659   9.788   0.834
30828W        W 1428  32.949  30.259  12.425
30829W        W 1429  21.524  17.301   3.897
30830W        W 1430  31.021  36.963  13.068
30831W        W 1431  13.895  13.737   1.643
30832W        W 1432  39.817  42.928   2.191
30833W        W 1433  27.577  17.768   2.245
30834W        W 1434   3.950  43.814   0.336
30835W        W 1435  22.344  10.426  11.079
30836W        W 1436  26.613  14.058   0.353
30837W        W 1437  40.101  41.927   4.098
30838W        W 1438  15.552  38.946  11.078
30839W        W 1439   0.267   1.347   2.264
30840W        W 1440  43.368  34.419   1.380
30841W        W 1441  35.866   0.957   3.639
30842W        W 1442  31.130  30.702  12.562
30843W        W 1443  43.867  18.719  12.572
30844W        W 1444  15.131  10.780   3.071
30845W        W 1445   1.205  16.167   0.360
30846W        W 1446  33.959  43.065  10.936
30847W        W 1447  23.768  42.367  14.834
30848W        W 1448  23.014  12.043   3.157
30849W        W 1449  43.058  44.338  11.664
30850W        W 1450  22.292  43.448  11.907
30851W        W 1451  26.640  22.036  13.573
30852W        W 1452  24.725  18.744  11.021
30853W        W 1453   9.091  33.272  12.526
30854W        W 1454  41.488  44.405   2.491
30855W        W 1455  22.475  37.007  14.442
30856W        W 1456   6.201  19.838   0.873
30857W        W 1457  28.581  19.383  12.522
30858W        W 1458  34.663  11.115  13.039
30859W        W 1459  39.779   8.928  10.492
30860W        W 1460  12.830  44.605   4.213
30861W        W 1461  11.225   7.965   0.300
30862W        W 1462   4.922   5.889   3.650
30863W        W 1463   6.030   8.700  11.205
30864W        W 1464   5.670  11.679   2.116
30865W        W 1465  44.772  28.040   4.658
30866W        W 1466  37.053   6.439   3.163
30867W        W 1467  44.855  11.310   0.221
30868W        W 1468  13.046  13.752  14.792
30869W        W 1469  43.458  12.565  12.817
30870W        W 1470   1.048   9.661   2.797
30871W        W 1471  32.425  11.232   2.933
30872W        W 1472  19.619  42.809   1.456
30873W        W 1473   0.380  31.037  11.157
30874W        W 1474  32.571  18.161   1.442
30875W        W 1475  31.494  36.404   1.912
30876W        W 1476  40.967  24.361   2.190
30877W        W 1477  41.390  31.092   0.338
30878W        W 1478  27.682  35.069   3.413
30879W        W 1479  43.084  27.160  12.768
30880W        W 1480  19.258  17.342   1.264
30881W        W 1481   8.723  26.020   0.880
30882W        W 1482  44.099   1.229  11.980
30883W        W 1483  22.829  32.538   2.703
30884W        W 1484  12.500  30.563  11.700
30885W        W 1485  17.873  14.153  13.785
30886W        W 1486  26.491   2.464  14.334
30887W        W 1487  14.588  40.822   5.441
30888W        W 1488   1.322  15.600   3.651
30889W        W 1489   3.740  28.994   0.930
30890W        W 1490  14.535  10.586  12.861
30891W        W 1491  18.315  33.424   2.592
30892W        W 1492  41.784  17.682   3.301
30893W        W 1493  20.470   1.957  14.927
30894W        W 1494  31.079  31.489  13.015
30895W        W 1495   1.511  43.569  11.349
30896W        W 1496  23.092  21.680  13.505
30897W        W 1497  32.500  17.260   3.704
30898W        W 1498   5.154  17.091  12.476
30899W        W 1499   6.126  34.343  13.019
30900W        W 1500  44.533  41.291   4.566
30901W        W 1501  25.498  20.938  13.058
30902W        W 1502   9.792   8.309  11.932
30903W        W 1503  20.252  34.750   3.372
30904W        W 1504  32.880  36.514   1.947
30905W        W 1505  11.791  31.566   4.647
30906W        W 1506  21.140  13.840   0.398
30907W        W 1507  20.535  22.683  12.943
30908W        W 1508   3.392  34.422  12.801
30909W        W 1509  36.361  17.813  14.469
30910W        W 1510  28.846   8.332  10.677
30911W        W 1511   8.651  22.952  11.900
30912W        W 1512   5.124  32.594  12.928
30913W        W 1513  36.493  28.314   2.443
30914W        W 1514  30.107  44.482   4.793
30915W        W 1515  39.144   8.099   4.209
30916W        W 1516  44.203  21.540  12.743
30917W        W 1517  20.565   7.824   0.027
30918W        W 1518  26.166  22.245   2.473
30919W        W 1519  28.183  23.251   9.911
30920W        W 1520  35.196   2.549   0.749
30921W        W 1521   8.636  26.369  14.118
30922W        W 1522  35.142  10.872   3.781
30923W        W 1523  16.607  30.905  12.937
30924W        W 1524  17.628   7.321   3.259
30925W        W 1525   5.912   1.902  11.174
30926W        W 1526  13.593   7.661  11.219
30927W        W 1527  44.860  19.538   4.232
30928W        W 1528   7.183  12.524  10.961
30929W        W 1529  20.069   6.509  11.579
30930W        W 1530  29.109   1.379  11.880
30931W        W 1531   0.895  14.535   4.204
30932W        W 1532  35.762   8.649  12.942
30933W        W 1533  20.325  44.057   0.376
30934W        W 1534  20.883  33.317   4.132
30935W        W 1535   3.283  19.734  14.477
30936W        W 1536  10.345  42.414  13.557
30937W        W 1537  36.561   1.642   0.334
30938W        W 1538  13.841  21.199   0.992
30939W        W 1539  16.705  13.187   2.888
30940W        W 1540  40.673  35.707   3.648
30941W        W 1541  25.215  29.402   0.273
30942W        W 1542  12.243   2.173  12.969
30943W        W 1543  14.138  44.376  11.560
30944W        W 1544  43.450  10.728   4.138
30945W        W 1545   7.149  10.305  13.455
30946W        W 1546   0.468   3.422   1.365
30947W        W 1547  26.325  32.147  12.417
30948W        W 1548  39.800   5.273  11.793
30949W        W 1549  14.486   7.482   2.763
30950W        W 1550  21.312   5.130  10.755
30951W        W 1551  25.440  41.313  10.704
30952W        W 1552  10.752  13.058   4.793
30953W        W 1553  38.531  37.345   0.059
30954W        W 1554  42.956  34.111   1.644
30955W        W 1555  25.114  36.732  11.649
30956W        W 1556  36.473  17.095  10.368
30957W        W 1557  19.107  39.181   1.657
30958W        W 1558   9.446  12.614  12.363
30959W        W 1559   3.949  13.325   2.569
30960W        W 1560   8.201  32.569   2.909
30961W        W 1561  17.732   1.663  11.332
30962W        W 1562   6.642  24.956   1.788
30963W        W 1563  39.802  15.123  12.388
30964W        W 1564  33.538  36.851  14.960
30965W        W 1565   4.412  31.562   4.160
30966W        W 1566  37.944  14.280  10.711
30967W        W 1567  43.956  11.400   0.815
30968W        W 1568   3.175  27.974   4.513
30969W        W 1569  33.530  32.936  10.839
30970W        W 1570  17.280  23.628   2.418
30971W        W 1571  31.837  25.852   2.894
30972W        W 1572  13.744  26.109  10.942
30973W        W 1573   9.440  34.973   0.607
30974W        W 1574  15.869  43.928   3.660
30975W        W 1575  21.160  28.070  14.314
30976W        W 1576   4.211  25.221  10.532
30977W        W 1577  29.426  23.839  12.039
30978W        W 1578  39.987  43.356   2.468
30979W        W 1579  44.323  21.554  14.835
30980W        W 1580  38.274  41.448  11.614
30981W        W 1581  35.170   5.846  11.686
30982W        W 1582  21.542  11.809   3.501
30983W        W 1583  14.658  29.144  11.086
30984W        W 1584  20.007  22.754  14.382
30985W        W 1585  20.204  16.223   4.822
30986W        W 1586   0.853  23.146  12.875
30987W        W 1587   2.834  37.564   3.222
30988W        W 1588  35.972  40.742  10.631
30989W        W 1589  43.930  11.560  13.971
30990W        W 1590  35.470   8.925  13.680
30991W        W 1591  25.539  24.975  12.944
30992W        W 1592  23.499  41.315   5.170
30993W        W 1593  20.220  40.303  12.541
30994W        W 1594  42.065  24.744  12.944
30995W        W 1595  37.631  35.094   4.117
30996W        W 1596   4.439  25.692  14.277
30997W        W 1597  37.848   7.854  12.173
30998W        W 1598  12.203  36.383  12.478
30999W        W 1599  35.154  20.869  10.770
31000W        W 1600   7.689  23.030   3.310
31001W        W 1601  25.112  20.101  12.033
31002W        W 1602  38.118  10.274  14.301
31003W        W 1603  38.770   7.633   2.412
31004W        W 1604  41.921   7.897   3.959
31005W        W 1605   3.178  35.382  12.521
31006W        W 1606  26.033  27.450  12.477
31007W        W 1607  18.316  31.514   0.680
31008W        W 1608  34.072   0.511  12.123
31009W        W 1609  40.765  11.417  10.731
31010W        W 1610  28.979  36.732   0.805
31011W        W 1611   0.192  42.145   3.083
31012W        W 1612  13.333  18.926  13.898
31013W        W 1613  44.919  35.835   1.162
31014W        W 1614  26.965   0.374   0.000
31015W        W 1615  17.995  10.698  12.907
31016W        W 1616   4.714  42.408   2.260
31017W        W 1617   0.599   8.287   0.806
31018W        W 1618  15.334  41.461   1.255
31019W        W 1619   3.727  31.656  12.610
31020W        W 1620  34.512  19.065  13.816
31021W        W 1621  36.764   9.401  11.082
31022W        W 1622   8.461  15.777   1.390
31023W        W 1623  27.610  44.073  13.975
31024W        W 1624  12.635   4.696   2.825
31025W        W 1625  23.025  14.985   4.558
31026W        W 1626  30.804  19.189  10.642
31027W        W 1627  37.423   1.282   3.576
31028W        W 1628  18.291  16.516  13.744
31029W        W 1629   0.243  38.951  11.312
31030W        W 1630  21.540  32.115  11.649
31031W        W 1631  16.336   2.799   1.160
31032W        W 1632  29.740  21.015   4.587
31033W        W 1633  36.974   2.538  10.584
31034W        W 1634  32.667   7.956   4.934
31035W        W 1635   1.932  11.891  11.240
31036W        W 1636  10.621  37.620  11.061
31037W        W 1637  23.742  33.588   5.112
31038W        W 1638   4.223  30.329  11.138
31039W        W 1639  39.143  23.443  13.780
31040W        W 1640   6.713   6.770   2.441
31041W        W 1641  21.747  39.796  13.608
31042W        W 1642  43.168  20.113   4.976
31043W        W 1643   4.675  34.898   3.245
31044W        W 1644  22.497   0.520  13.110
31045W        W 1645  34.815  27.431  11.915
31046W        W 1646   5.041   7.712  14.802
31047W        W 1647  12.354  31.447   1.865
31048W        W 1648   5.189  39.253   4.160
31049W        W 1649  36.613  31.718  11.953
31050W        W 1650   7.953  33.964  12.037
31051W        W 1651  35.918  37.852   0.419
31052W        W 1652  21.253  33.678   4.077
31053W        W 1653  28.911  15.214  12.905
31054W        W 1654  17.033  21.159   0.884
31055W        W 1655  38.951  36.491   4.450
31056W        W 1656  39.665  37.426  12.088
31057W        W 1657  25.156  19.877  12.546
31058W        W 1658  32.289  44.293   3.219
31059W        W 1659  28.119  29.169  10.371
31060W        W 1660  34.101  31.851  13.127
31061W        W 1661   7.707  22.758   4.591
31062W        W 1662  37.912   6.182   3.104
31063W        W 1663   5.905  17.743   4.618
31064W        W 1664  44.418   9.893   2.160
31065W        W 1665  41.425  27.724   0.899
31066W        W 1666  25.757   8.435   3.622
31067W        W 1667  39.870  44.239   0.702
31068W        W 1668  36.949  40.500  14.301
31069W        W 1669  31.523  32.649   3.999
31070W        W 1670  33.799  26.633  14.986
31071W        W 1671  38.510  28.459  14.919
31072W        W 1672  23.587  28.958   4.944
31073W        W 1673  21.091  33.356   2.371
31074W        W 1674  11.854  41.353  12.906
31075W        W 1675  30.431   9.702   4.631
31076W        W 1676  26.362  12.879  12.383
31077W        W 1677  35.527  35.183  14.622
31078W        W 1678  41.415   3.639   1.934
31079W        W 1679  36.212  28.141   4.895
31080W        W 1680  22.202  15.918   4.934
31081W        W 1681  17.288  35.198  12.063
31082W        W 1682  36.693  36.168  10.752
31083W        W 1683  41.973   3.743   1.389
31084W        W 1684   4.966  41.748   1.249
31085W        W 1685  29.554  30.463  14.430
31086W        W 1686  26.375  27.927  11.268
31087W        W 1687   3.906  41.653  13.526
31088W        W 1688  14.616  36.803  12.535
31089W        W 1689  16.101   4.672   0.751
31090W        W 1690  39.550   0.293  12.440
31091W        W 1691  14.636  37.417  12.114
31092W        W 1692   5.638  31.209  12.543
31093W        W 1693  43.300   2.405  13.585
31094W        W 1694   0.379  14.407  11.995
31095W        W 1695   1.729   1.504   4.144
31096W        W 1696  32.036   9.583   0.397
31097W        W 1697  35.592  35.006   0.487
31098W        W 1698   5.647   6.370  12.995
31099W        W 1699  28.982   5.775   0.761
31100W        W 1700   8.376  44.017   4.182
31101W        W 1701  32.759  35.374   0.140
31102W        W 1702   0.204   3.823   3.754
31103W        W 1703  28.060  10.349  14.401
31104W        W 1704  25.135  33.149   1.653
31105W        W 1705  32.393  21.073  14.335
31106W        W 1706   4.219  39.126  10.830
31107W        W 1707  24.906   8.916   1.916
31108W        W 1708   2.811   8.243  10.656
31109W        W 1709  26.582   1.775  10.699
31110W        W 1710   9.963  34.855   0.392
31111W        W 1711  23.081  11.209   2.692
31112W        W 1712   8.875  15.122   1.684
31113W        W 1713  26.942  16.754   3.776
31114W        W 1714  10.211  12.108   2.254
31115W        W 1715  26.060  23.281  11.741
31116W        W 1716   0.881  11.399   0.624
31117W        W 1717  29.356  13.764  12.610
31118W        W 1718  16.188   9.265   1.804
31119W        W 1719  39.073   4.704   0.886
31120W        W 1720   2.719   2.383  12.320
31121W        W 1721  19.004   7.881  13.417
31122W        W 1722   6.864  18.615  13.859
31123W        W 1723  25.506  36.237  12.050
31124W        W 1724  36.621   7.380   1.226
31125W        W 1725  29.759  24.600   4.132
31126W        W 1726  11.682  10.029   2.754
31127W        W 1727  40.993   4.784   0.803
31128W        W 1728  27.699  32.144   2.792
31129W        W 1729  15.534  30.636   3.233
31130W        W 1730  23.609  28.172  11.226
31131W        W 1731  43.754  24.937   4.069
31132W        W 1732  36.196  43.455   1.250
31133W        W 1733   1.521  15.605  11.659
31134W        W 1734  25.050   5.409  14.917
31135W        W 1735  13.112  33.817   4.249
31136W        W 1736  31.930  13.642  14.008
31137W        W 1737  34.569   8.356  13.563
31138W        W 1738  26.292   4.736   3.663
31139W        W 1739  38.944   8.031  11.558
31140W        W 1740   8.269  29.065   2.721
31141W        W 1741  41.590  18.445  13.949
31142W        W 1742  16.713  23.190  13.816
31143W        W 1743  43.207  40.717   2.789
31144W        W 1744  20.434  27.918   0.940
31145W        W 1745   8.253  34.588  14.116
31146W        W 1746   5.672  43.527   2.145
31147W        W 1747   0.026  10.352  14.886
31148W        W 1748  17.477  23.513   4.175
31149W        W 1749   1.892  35.497   4.614
31150W        W 1750  34.745   3.755  11.477
31151W        W 1751  31.264  37.864  12.511
31152W        W 1752  38.772  35.310   0.267
31153W        W 1753   0.918  30.568   3.550
31154W        W 1754  42.280  39.284   0.535
31155W        W 1755  26.172   6.434  10.347
31156W        W 1756  19.626   1.874  10.919
31157W        W 1757  21.549   2.034   0.157
31158W        W 1758  23.538   3.795   0.313
31159W        W 1759  40.727  31.007   4.217
31160W        W 1760  42.908  43.817  10.616
31161W        W 1761   3.957  40.380  13.002
31162W        W 1762  16.459  20.104  11.913
31163W        W 1763  21.508   1.397  12.601
31164W        W 1764  38.015  24.535  13.094
31165W        W 1765  43.498  26.079  12.154
31166W        W 1766  14.901   8.877  10.274
31167W        W 1767  44.568   1.239  14.762
31168W        W 1768  16.650  12.420  13.379
31169W        W 1769  21.553   0.786   2.607
31170W        W 1770  22.897  38.544  11.623
31171W        W 1771  37.418   4.761   1.880
31172W        W 1772  11.791  14.561   4.968
31173W        W 1773  36.901  23.714  13.364
31174W        W 1774   0.214  29.073   2.722
31175W        W 1775  17.995   8.841   3.976
31176W        W 1776   5.305  35.935   1.858
31177W        W 1777  35.073  28.121  13.420
31178W        W 1778  37.503  36.534  14.312
31179W        W 1779  24.700  33.906  10.569
31180W        W 1780  37.916   7.188  13.811
31181W        W 1781  29.139  34.352  11.607
31182W        W 1782  12.116  21.185   3.925
31183W        W 1783   3.049  39.064  13.502
31184W        W 1784  13.639   1.211  11.089
31185W        W 1785  32.577  21.101  13.822
31186W        W 1786  42.472  34.568   2.208
31187W        W 1787  42.179  43.973   4.661
31188W        W 1788  17.646  38.363  10.643
31189W        W 1789  34.863  26.868  11.895
31190W        W 1790  14.703   5.136   4.731
31191W        W 1791  17.208  29.759   1.443
31192W        W 1792   9.709  30.665   3.785
31193W        W 1793  38.908   6.772  12.876
31194W        W 1794  26.041  20.501  13.829
31195W        W 1795  12.732  29.481  13.133
31196W        W 1796  28.845  13.658  11.367
31197W        W 1797  41.869  26.140   3.920
31198W        W 1798   0.689  16.140  14.903
31199W        W 1799  22.735  19.557  14.270
31200W        W 1800  33.970  38.424  10.726
31201W        W 1801  34.897   5.923  14.822
31202W        W 1802  19.328  31.669  13.493
31203W        W 1803   4.457  12.424  14.426
31204W        W 1804  25.478  26.046   2.280
31205W        W 1805   2.806  36.499   3.460
31206W        W 1806  21.318  22.536   4.646
31207W        W 1807  40.551  31.038  14.337
31208W        W 1808  40.143   8.576   2.357
31209W        W 1809   2.909  11.901  13.416
31210W        W 1810   3.715  26.360   1.504
31211W        W 1811  16.731  26.117  12.554
31212W        W 1812  15.796   6.021  10.268
31213W        W 1813  28.214  40.376  13.975
31214W        W 1814   6.460   5.634   1.328
31215W        W 1815   4.940  28.513  12.370
31216W        W 1816   3.654   2.848  11.120
31217W        W 1817  33.868  17.213  13.951
31218W        W 1818  16.780   8.726   1.486
31219W        W 1819  16.240  37.471  13.700
31220W        W 1820   1.285  22.126  12.221
31221W        W 1821  10.688  42.252  12.625
31222W        W 1822  13.445  19.498  12.462
31223W        W 1823   3.509  16.845  11.298
31224W        W 1824  14.362   9.217  12.971
31225W        W 1825  31.953  24.987  11.927
31226W        W 1826  29.023   8.382  12.635
31227W        W 1827  40.361   2.938  12.953
31228W        W 1828  31.468  41.527  13.547
31229W        W 1829  18.184  23.227  13.049
31230W        W 1830  24.035  27.923   3.926
31231W        W 1831  32.938  34.984  11.208
31232W        W 1832  34.458  13.410  13.301
31233W        W 1833  31.904  34.939  14.912
31234W        W 1834   8.278   7.180  14.448
31235W        W 1835  42.047   5.211  12.966
31236W        W 1836  43.731  15.011   2.552
31237W        W 1837  23.210  24.968   4.694
31238W        W 1838  36.584  33.517   1.801
31239W        W 1839  34.911  31.998   3.697
31240W        W 1840  19.734  23.007  10.873
31241W        W 1841  28.493  26.437  13.020
31242W        W 1842  38.353  23.492  11.124
31243W        W 1843   2.217  32.537  10.696
31244W        W 1844   2.331  32.622   4.582
31245W        W 1845   1.981  11.339  12.931
31246W        W 1846  37.307   7.303   4.888
31247W        W 1847  27.884   0.885   1.458
31248W        W 1848  32.984   4.128   4.669
31249W        W 1849  15.574   1.636   2.716
31250W        W 1850  31.115  34.949   4.833
31251W        W 1851  26.928  15.796  13.421
31252W        W 1852  32.978  27.410  10.695
31253W        W 1853  30.839  13.747   0.149
31254W        W 1854   8.220  38.031   4.532
31255W        W 1855  31.239  38.265   5.130
31256W        W 1856  16.976  36.284   1.868
31257W        W 1857   4.328  22.956  12.896
31258W        W 1858  38.894  11.802  11.067
31259W        W 1859  15.806  31.794  13.428
31260W        W 1860   4.467  30.899   1.934
31261W        W 1861  35.044  44.369   4.608
31262W        W 1862  19.503  42.930  10.878
31263W        W 1863   4.667  39.431  12.009
31264W        W 1864  37.922  36.590  12.633
31265W        W 1865  41.969  30.584   3.221
31266W        W 1866  20.601  37.830   0.827
31267W        W 1867  35.023  34.068   2.176
31268W        W 1868   2.342   4.532   4.625
31269W        W 1869  18.125  19.397  12.550
31270W        W 1870  26.136  17.249   4.615
31271W        W 1871  11.858  35.341  11.849
31272W        W 1872  24.688  37.021   3.400
31273W        W 1873  42.600  39.519  12.571
31274W        W 1874  38.366  13.775   2.882
31275W        W 1875  18.954  10.261   1.743
31276W        W 1876  26.393  44.370  11.431
31277W        W 1877   5.757  40.239   2.327
31278W        W 1878  40.367  35.638  10.777
31279W        W 1879  14.223  36.423  11.160
31280W        W 1880  40.268  38.508  12.460
31281W        W 1881   6.174  35.906   0.734
31282W        W 1882   5.902  23.461   4.028
31283W        W 1883  44.508  42.383  11.492
31284W        W 1884  25.883  10.279  14.471
31285W        W 1885   2.872  18.274  14.155
31286W        W 1886  10.132   9.801   0.586
31287W        W 1887  21.807   4.998  13.175
31288W        W 1888  40.532   7.973   3.191
31289W        W 1889  15.695  36.753   2.562
31290W        W 1890  14.141  40.553  12.432
31291W        W 1891  35.109   4.879  13.240
31292W        W 1892   4.708  38.602  13.877
31293W        W 1893  34.014  24.299  13.919
31294W        W 1894  17.148  20.826   1.753
31295W        W 1895   3.828   5.197   0.489
31296W        W 1896  10.131  29.441   0.658
31297W        W 1897  33.451   7.196   3.759
31298W        W 1898   8.594   1.198   5.038
31299W        W 1899  25.557  42.605   3.176
31300W        W 1900   7.890   3.956   4.861
31301W        W 1901   5.686  28.029  10.762
31302W        W 1902  38.813  12.839   3.872
31303W        W 1903  28.545   7.685  12.884
31304W        W 1904  39.886  34.886   0.731
31305W        W 1905  24.148  17.793  12.948
31306W        W 1906   1.188   7.600   4.120
31307W        W 1907  31.946  12.804  11.090
31308W        W 1908  35.944  30.368   2.196
31309W        W 1909  41.025  21.483  12.919
31310W        W 1910  16.891  16.764   2.293
31311W        W 1911   4.265  41.538   3.892
31312W        W 1912  10.731   7.862   3.390
31313W        W 1913  26.538  15.705   3.812
31314W        W 1914  17.200  32.958   3.144
31315W        W 1915  24.439  36.225   0.244
31316W        W 1916  40.329   9.280  11.425
31317W        W 1917  32.433  11.625   3.769
31318W        W 1918   8.698   0.459  14.225
31319W        W 1919   0.279  30.199   3.107
31320W        W 1920  19.653  30.861   0.813
31321W        W 1921  36.011   2.188   1.780
31322W        W 1922  12.319  42.331   0.937
31323W        W 1923  35.785  12.034   3.659
31324W        W 1924  40.931  40.166   4.220
31325W        W 1925  11.342   6.841   3.765
31326W        W 1926  23.478  22.420   3.614
31327W        W 1927   8.664  17.729   2.272
31328W        W 1928  42.956   7.493   1.294
31329W        W 1929  30.018   1.949  12.366
31330W        W 1930  36.921  17.778  12.973
31331W        W 1931  23.644  37.416   2.328
31332W        W 1932  25.124  13.351   3.852
31333W        W 1933  27.059  27.717  13.017
31334W        W 1934  22.579  15.066  14.945
31335W        W 1935  35.340  43.126   1.224
31336W        W 1936  37.420  15.153   3.731
31337W        W 1937   9.253   3.705  11.570
31338W        W 1938  30.743  34.774  13.702
31339W        W 1939  34.138  40.437  10.754
31340W        W 1940  44.410   3.713   0.022
31341W        W 1941  31.589  17.365  12.462
31342W        W 1942  34.205  19.238  12.499
31343W        W 1943  12.928  23.628  11.234
31344W        W 1944  29.326  44.406  12.194
31345W        W 1945  31.773  12.101   4.746
31346W        W 1946   1.456  19.444  11.258
31347W        W 1947  30.176  12.535  12.942
31348W        W 1948  39.556  22.714   2.262
31349W        W 1949  40.529  42.338   1.902
31350W        W 1950   5.290   7.023  10.793
31351W        W 1951  30.370  27.172   4.118
31352W        W 1952  14.789  29.567   1.852
31353W        W 1953  27.690   0.709  13.621
31354W        W 1954  32.817  34.474   0.025
31355W        W 1955  44.288  19.155   3.798
31356W        W 1956  39.868  43.434  14.253
31357W        W 1957  41.304  23.168   1.178
31358W        W 1958  41.811   2.516  14.543
31359W        W 1959  29.514  44.836   0.780
31360W        W 1960  18.079   3.418   2.226
31361W        W 1961  11.405   0.993   3.616
31362W        W 1962   5.951  24.170  11.671
31363W        W 1963  20.809  27.533  12.922
31364W        W 1964  29.545  21.806   4.163
31365W        W 1965  16.688  35.406  10.810
31366W        W 1966  30.449  25.105   0.947
31367W        W 1967   7.333  44.861   4.531
31368W        W 1968  33.377  11.850   4.069
31369W        W 1969   9.339   8.717   1.176
31370W        W 1970   8.516  41.726   2.897
31371W        W 1971  22.728  21.202  12.658
31372W        W 1972   4.325  12.816   3.850
31373W        W 1973  21.213  24.331   1.259
31374W        W 1974  33.906  22.723   0.051
31375W        W 1975  33.364  16.619  13.408
31376W        W 1976  27.609  17.072  11.543
31377W        W 1977  16.209   1.381  10.604
31378W        W 1978  43.370   0.430   1.507
31379W        W 1979  39.830   3.657  14.528
31380W        W 1980  35.776  35.382  13.877
31381W        W 1981  38.085  42.170   2.186
31382W        W 1982  29.925  14.741  12.756
31383W        W 1983  11.782   3.511  13.823
31384W        W 1984   2.009  27.718   2.785
31385W        W 1985  24.177  36.510   1.885
31386W        W 1986  20.881   4.685   0.509
31387W        W 1987  17.012  10.155  13.066
31388W        W 1988   0.182  41.101  11.166
31389W        W 1989  22.185   8.005   2.716
31390W        W 1990   8.760  35.997   1.783
31391W        W 1991  38.474  31.938   4.054
31392W        W 1992  44.350  20.206   2.307
31393W        W 1993  43.986  19.658  12.393
31394W        W 1994  32.695   8.622  12.335
31395W        W 1995  20.672  20.929   1.285
31396W        W 1996  44.060  21.288   0.337
31397W        W 1997   3.091  11.203  12.561
31398W        W 1998  35.664  13.702  12.508
31399W        W 1999  40.013   2.665   0.356
31400W        W 2000  39.267  36.802   2.718
31401W        W 2001  31.069   9.404   4.515
31402W        W 2002   1.792  36.045  11.616
31403W        W 2003  29.191  32.099   1.298
31404W        W 2004  25.710   3.352   1.376
31405W        W 2005  11.348   0.167  14.892
31406W        W 2006  35.039  28.532   0.749
31407W        W 2007  32.170  27.762  10.172
31408W        W 2008   4.729  23.285  12.989
31409W        W 2009  43.804  27.147  11.583
31410W        W 2010  20.452   4.736   1.928
31411W        W 2011   8.768  25.425  14.468
31412W        W 2012  13.616   1.668   2.196
31413W        W 2013   3.917  30.931   4.155
31414W        W 2014   1.887  31.085   0.536
31415W        W 2015   2.554  34.425  12.423
31416W        W 2016  25.077   9.884  13.022
31417W        W 2017  19.925  12.718   2.655
31418W        W 2018  27.060  27.906   4.065
31419W        W 2019  37.486  27.824  11.122
31420W        W 2020  39.188  35.110   3.286
31421W        W 2021   5.906   1.673  14.284
31422W        W 2022   0.035  10.169   0.917
31423W        W 2023  43.493  11.724   0.516
31424W        W 2024   0.352  40.936   3.459
31425W        W 2025   7.611  13.753  11.539
31426W        W 2026  25.119   9.910   4.636
31427W        W 2027   3.304  34.963   0.072
31428W        W 2028  13.829  31.059   4.581
31429W        W 2029  25.642   4.636   5.129
31430W        W 2030  34.389  32.012   9.995
31431W        W 2031   3.884   1.116   0.809
31432W        W 2032   1.810  33.647  13.611
31433W        W 2033  27.690  37.844  11.160
31434W        W 2034  28.338  23.272   5.225
31435W        W 2035  20.588  27.987  12.867
31436W        W 2036  22.181  39.511  13.462
31437W        W 2037   0.949  17.353   0.987
31438W        W 2038  28.871  27.717  13.817
31439W        W 2039  31.172  38.460   1.431
31440W        W 2040  17.791  10.064   4.530
31441W        W 2041   0.304  23.817   2.920
31442W        W 2042  19.913  14.558  11.067
31443W        W 2043  43.968  16.300   1.915
31444W        W 2044  18.262  27.211   1.335
31445W        W 2045  35.222  19.587   2.855
31446W        W 2046  13.405  41.929  11.251
31447W        W 2047  44.781  15.610   4.536
31448W        W 2048  35.826  23.466  14.799
31449W        W 2049   8.768  17.064  12.045
31450W        W 2050  17.070  20.808  14.606
31451W        W 2051  10.301   2.173  12.202
31452W        W 2052  15.457  31.845  11.605
31453W        W 2053  39.345  28.637   1.924
31454W        W 2054   2.809   6.367  14.340
31455W        W 2055  26.025  22.575   1.223
31456W        W 2056  44.967   1.833   1.492
31457W        W 2057  20.280  33.280   5.376
31458W        W 2058   8.205  38.738  10.643
31459W        W 2059   9.265  39.968  13.529
31460W        W 2060  19.086  12.291  11.633
31461W        W 2061  23.907  13.958   0.914
31462W        W 2062  21.763  40.508  10.720
31463W        W 2063  42.461  35.036  12.067
31464W        W 2064  11.715  15.857  10.812
31465W        W 2065  39.349  22.692  12.101
31466W        W 2066  40.845  42.455  11.582
31467W        W 2067  33.455  27.915  11.042
31468W        W 2068   3.393  29.972   1.753
31469W        W 2069  15.131   3.929   4.615
31470W        W 2070  34.694  19.622  11.066
31471W        W 2071  38.599  25.511   0.346
31472W        W 2072  26.564  24.132  12.024
31473W        W 2073  36.877  30.372  13.324
31474W        W 2074  24.489  12.332   2.321
31475W        W 2075  31.284  34.586   3.435
31476W        W 2076  36.524  24.053  12.606
31477W        W 2077  33.381  15.172  13.410
31478W        W 2078   8.786  39.068   0.446
31479W        W 2079   1.496  31.228  14.344
31480W        W 2080  19.783  21.529  13.048
31481W        W 2081  35.666  44.923  14.719
31482W        W 2082  20.187   2.262  10.864
31483W        W 2083   6.373   4.893   0.947
31484W        W 2084  32.277  41.334   3.777
31485W        W 2085  40.548  10.662   4.292
31486W        W 2086  12.821  34.619   4.512
31487W        W 2087  25.229  30.632  12.591
31488W        W 2088  26.496  18.756   1.709
31489W        W 2089  36.907  10.864  14.336
31490W        W 2090  40.361  32.182   2.775
31491W        W 2091   6.395  21.010  10.541
31492W        W 2092  31.307  40.497  13.364
31493W        W 2093  38.051  11.883   1.810
31494W        W 2094  13.735  37.945  12.494
31495W        W 2095  13.239  37.654   2.234
31496W        W 2096  10.434  24.679  14.365
31497W        W 2097  40.944  35.259   3.667
31498W        W 2098   6.495  37.031  11.804
31499W        W 2099  26.920  42.911   1.793
31500W        W 2100  19.782  30.592   0.352
31501W        W 2101  26.543   8.374   2.286
31502W        W 2102  38.495  32.387   4.391
31503W        W 2103  27.213  38.468  12.309
31504W        W 2104   1.760  17.137   1.241
31505W        W 2105  24.911  29.686  12.189
31506W        W 2106  20.289  22.095  11.921
31507W        W 2107   9.396  12.751  13.378
31508W        W 2108  22.208  31.993  12.910
31509W        W 2109  19.642  31.982  14.702
31510W        W 2110  39.437  12.129  14.004
31511W        W 2111  17.626  44.531  14.318
31512W        W 2112  44.723   6.569  12.447
31513W        W 2113  25.432  41.312  14.785
31514W        W 2114  23.175  40.822  13.884
31515W        W 2115  30.581  27.000   4.575
31516W        W 2116   8.882  40.616   0.970
31517W        W 2117  11.743  17.023   2.253
31518W        W 2118  39.857  23.168  14.205
31519W        W 2119  36.885  10.852  13.431
31520W        W 2120  11.944  23.670   2.899
31521W        W 2121  42.291  25.403  11.167
31522W        W 2122  33.158  10.248   1.316
31523W        W 2123   7.494   2.461   2.711
31524W        W 2124  19.238  28.650  14.860
31525W        W 2125  36.934  39.641  13.863
31526W        W 2126  21.084   5.410  11.651
31527W        W 2127  16.564  31.058   2.893
31528W        W 2128  30.171  20.982  13.800
31529W        W 2129  31.593   7.769  10.928
31530W        W 2130  25.085  41.794  14.017
31531W        W 2131  19.311  37.894   4.173
31532W        W 2132  28.090  37.583  12.096
31533W        W 2133  34.401  36.552  14.561
31534W        W 2134   6.736  31.987   4.529
31535W        W 2135  22.194  26.189   0.948
31536W        W 2136  28.146  31.290   2.622
31537W        W 2137  20.530  11.562  12.840
31538W        W 2138  34.571  32.766  14.640
31539W        W 2139   1.405  41.357  14.379
31540W        W 2140   5.192  24.194  10.744
31541W        W 2141  37.508  33.503   4.040
31542W        W 2142   0.553  42.926  13.874
31543W        W 2143  37.555  27.599   1.277
31544W        W 2144  12.481   6.110   2.641
31545W        W 2145  33.905   3.695   0.307
31546W        W 2146  28.316   2.007   5.004
31547W        W 2147   1.650   5.706  11.018
31548W        W 2148  16.939  35.821   2.657
31549W        W 2149  18.469  27.415   1.774
31550W        W 2150   3.406   5.376   3.294
31551W        W 2151   1.904  39.669   0.287
31552W        W 2152  20.997  11.064  12.069
31553W        W 2153  18.228   4.362   4.201
31554W        W 2154  20.346  30.687   3.004
31555W        W 2155   5.129  43.175   1.558
31556W        W 2156  25.522  16.129  14.435
31557W        W 2157  17.582   3.903  12.624
31558W        W 2158  37.091  19.024  13.864
31559W        W 2159   6.324   6.694  14.014
31560W        W 2160   7.155  41.030   3.234
31561W        W 2161  24.199  43.448   3.206
31562W        W 2162   9.700  39.386   0.982
31563W        W 2163  20.588   5.690   1.359
31564W        W 2164  40.043  11.341  14.870
31565W        W 2165   1.812  29.413   1.213
31566W        W 2166  31.916  43.501  12.827
31567W        W 2167   5.133  20.619   1.919
31568W        W 2168  17.820  34.037   2.891
31569W        W 2169   6.660  25.490   1.777
31570W        W 2170  26.728  13.543   3.353
31571W        W 2171  23.689  34.918   3.388
31572W        W 2172   5.009   3.237  13.844
31573W        W 2173  41.100  15.750   4.060
31574W        W 2174  11.330  31.812   3.651
31575W        W 2175  30.422  37.023  12.944
31576W        W 2176   8.963  20.379  12.039
31577W        W 2177  14.649  17.972  13.930
31578W        W 2178   9.883   4.472   1.338
31579W        W 2179  13.328  40.391  10.663
31580W        W 2180   0.012  31.381  14.294
31581W        W 2181  40.806  41.307  13.770
31582W        W 2182  35.370   6.172  14.910
31583W        W 2183   2.936  25.092  13.523
31584W        W 2184  33.191  15.400   4.637
31585W        W 2185   5.261  37.889   0.353
31586W        W 2186  42.804  25.639   0.856
31587W        W 2187   1.522  13.534  12.431
31588W        W 2188  10.722  36.302   1.078
31589W        W 2189  11.711   6.460  14.704
31590W        W 2190  15.597  44.854  14.233
31591W        W 2191  37.842   2.844   3.528
31592W        W 2192  23.205   3.337  10.313
31593W        W 2193   3.686  27.583   3.694
31594W        W 2194   4.424  24.223   3.875
31595W        W 2195  13.103   1.269   2.925
31596W        W 2196   5.447   0.901  12.445
31597W        W 2197   1.050  14.919  11.859
31598W        W 2198  17.337  13.578  11.118
31599W        W 2199  16.936   4.452   0.074
31600W        W 2200   3.332  13.918   3.666
31601W        W 2201  13.792  11.207   3.332
31602W        W 2202  32.547  31.200  13.770
31603W        W 2203   5.628  30.421   3.852
31604W        W 2204   9.262  24.218  12.042
31605W        W 2205  34.415   4.382  14.006
31606W        W 2206  42.328  17.237  10.984
31607W        W 2207  22.048  21.604  13.092
31608W        W 2208  36.716  30.645   0.294
31609W        W 2209  44.890  44.561  12.322
31610W        W 2210  26.054  27.543   0.260
31611W        W 2211  28.517  17.647   1.141
31612W        W 2212  27.469  41.539  13.052
31613W        W 2213  14.133  42.264   4.563
31614W        W 2214  42.978  19.624  14.299
31615W        W 2215  23.165   1.144   4.510
31616W        W 2216  20.527  15.112   0.308
31617W        W 2217  37.252  11.855  14.135
31618W        W 2218  22.272  10.438   4.669
31619W        W 2219  37.073  24.965   2.780
31620W        W 2220  26.430  28.956   2.341
31621W        W 2221   2.548  38.445   2.060
31622W        W 2222  11.539  32.996   4.150
31623W        W 2223  39.050  33.153  13.980
31624W        W 2224   4.713  29.598  12.828
31625W        W 2225  18.514  16.039   1.244
31626W        W 2226  19.757   5.811  10.128
31627W        W 2227  35.451  30.110   1.390
31628W        W 2228  42.928  24.233  13.136
31629W        W 2229  39.321  16.507  10.692
31630W        W 2230  42.077  35.444  12.515
31631W        W 2231  31.447   5.734  13.995
31632W        W 2232   0.850   2.018   1.304
31633W        W 2233  33.336  30.287   2.743
31634W        W 2234  18.671   3.816   0.835
31635W        W 2235  25.399   9.772  11.078
31636W        W 2236  26.530   7.691   4.648
31637W        W 2237  33.739  39.393   5.079
31638W        W 2238  16.353  35.606  13.913
31639W        W 2239  33.694  12.257   4.064
31640W        W 2240  23.660   0.632  13.991
31641W        W 2241   2.800  39.458   3.317
31642W        W 2242   6.307   1.116   4.965
31643W        W 2243  36.296  26.533   3.652
31644W        W 2244  16.281  19.550   4.846
31645W        W 2245  40.501  28.042  14.963
31646W        W 2246  21.924   2.099   4.086
31647W        W 2247  15.650   9.090  10.728
31648W        W 2248  15.138  30.223   0.314
31649W        W 2249  34.126  20.707   1.019
31650W        W 2250  33.324  40.808   0.226
31651W        W 2251  21.543  40.797  14.867
31652W        W 2252  43.393  37.624  12.023
31653W        W 2253   3.507  24.637  13.026
31654W        W 2254   4.861  43.793   3.335
31655W        W 2255   6.933  14.388   1.915
31656W        W 2256   1.271  20.516   1.377
31657W        W 2257   7.308  11.921  12.381
31658W        W 2258  18.670   2.017  14.491
31659W        W 2259  43.469  39.063  14.397
31660W        W 2260   9.739  25.485   1.899
31661W        W 2261   0.713   5.902  11.088
31662W        W 2262  30.568  35.619  11.160
31663W        W 2263   1.748  43.142  11.493
31664W        W 2264  44.336  35.119  13.306
31665W        W 2265   7.586   5.036  11.069
31666W        W 2266  27.920  42.573   4.781
31667W        W 2267   6.912  13.336   1.740
31668W        W 2268  24.692   2.878  13.108
31669W        W 2269  35.155  25.228  10.628
31670W        W 2270   1.881  31.077  10.760
31671W        W 2271  33.401  39.960  13.469
31672W        W 2272  17.668   4.466   3.322
31673W        W 2273  30.425  13.045  12.914
31674W        W 2274  41.584   6.038   5.019
31675W        W 2275  19.365  14.099  14.909
31676W        W 2276   3.208  31.516  13.554
31677W        W 2277   1.822  20.257   3.797
31678W        W 2278  10.834   3.902  11.511
31679W        W 2279   9.105   8.420   2.813
31680W        W 2280  36.605  17.870  12.590
31681W        W 2281   7.796   3.789   3.850
31682W        W 2282  28.146  22.234  12.673
31683W        W 2283  14.355   0.844  11.764
31684W        W 2284  26.657   1.710  13.442
31685W        W 2285  24.937   5.994  10.627
31686W        W 2286  39.924   7.820  14.849
31687W        W 2287   5.924  23.280  14.416
31688W        W 2288   8.487  41.038   0.262
31689W        W 2289  19.089  17.123   3.240
31690W        W 2290  31.088  29.947  13.840
31691W        W 2291  19.662  10.666  11.454
31692W        W 2292  19.740  17.783  13.580
31693W        W 2293   3.945  35.501   3.601
31694W        W 2294   4.681  27.728  12.001
31695W        W 2295  16.829  17.187  10.997
31696W        W 2296  11.585  41.842  14.944
31697W        W 2297   6.304  27.690   3.908
31698W        W 2298  24.111  18.548  11.933
31699W        W 2299  28.039  44.523   1.338
31700W        W 2300  27.432  38.436   1.718
31701W        W 2301   8.698  24.587   4.337
31702W        W 2302   7.204  27.497   2.692
31703W        W 2303  14.836  15.236   0.479
31704W        W 2304  43.810  41.409   3.145
31705W        W 2305  39.261   8.623   4.262
31706W        W 2306  16.064   8.254   4.109
31707W        W 2307  14.299  19.952   0.967
31708W        W 2308  23.528  23.581  10.796
31709W        W 2309   1.963  12.411  12.010
31710W        W 2310  21.574  15.111  11.066
31711W        W 2311  41.316  13.719  10.637
31712W        W 2312  23.505   6.616  13.447
31713W        W 2313  12.169  29.247   1.334
31714W        W 2314   1.723  12.093  11.679
31715W        W 2315   3.944   5.624  13.318
31716W        W 2316   1.197   1.501   4.151
31717W        W 2317  43.242  25.756   1.724
31718W        W 2318  23.635  33.573  11.889
31719W        W 2319  13.696  25.235   3.616
31720W        W 2320  24.014  40.467   4.382
31721W        W 2321  29.380  14.843   2.287
31722W        W 2322  30.063   1.295   1.926
31723W        W 2323  20.497  16.166  14.417
31724W        W 2324  31.172  38.052   1.814
31725W        W 2325  43.949  32.674   0.835
31726W        W 2326  33.429  22.783  13.637
31727W        W 2327  20.176   2.189  11.398
31728W        W 2328   4.032  22.983  14.333
31729W        W 2329  20.229  42.488  13.522
31730W        W 2330   3.521  35.634   4.846
31731W        W 2331  33.510  35.168  10.601
31732W        W 2332  39.920  19.044  13.254
31733W        W 2333  23.532  44.838  12.641
31734W        W 2334  10.608  22.286   2.759
31735W        W 2335  41.894   5.378  13.425
31736W        W 2336  17.144  32.640   0.331
31737W        W 2337  40.561  30.383  13.976
31738W        W 2338   2.414  24.613  11.474
31739W        W 2339  19.186  34.225   2.709
31740W        W 2340   3.332  11.458   4.623
31741W        W 2341  36.649  29.856   2.999
31742W        W 2342  11.186   2.088  12.300
31743W        W 2343   3.044   4.529   3.236
31744W        W 2344  17.812  39.001  10.453
31745W        W 2345  15.368  31.877  10.661
31746W        W 2346  37.638  16.113  14.383
31747W        W 2347  15.235  25.062  11.956
31748W        W 2348  30.623  38.008   5.571
31749W        W 2349   5.424  30.217  13.952
31750W        W 2350  11.311  40.554  12.173
31751W        W 2351  19.413  19.296   4.170
31752W        W 2352  25.442  17.750   4.559
31753W        W 2353   2.703  44.064   3.798
31754W        W 2354  35.078   5.570   0.694
31755W        W 2355  12.354  43.857  14.458
31756W        W 2356  28.423   7.229   1.968
31757W        W 2357  10.851   3.495   5.066
31758W        W 2358  20.130   3.885   2.846
31759W        W 2359  19.774  11.658   1.733
31760W        W 2360  30.952   2.348   3.838
31761W        W 2361  11.713  15.374  12.088
31762W        W 2362  14.762  15.315   2.384
31763W        W 2363  22.786  19.286   0.894
31764W        W 2364  44.982   7.375  13.817
31765W        W 2365  20.649  16.848   2.816
31766W        W 2366  21.029  25.168   2.367
31767W        W 2367  23.174  19.354  13.777
31768W        W 2368  11.612  29.588  12.936
31769W        W 2369  41.372  36.465  14.790
31770W        W 2370   2.821  39.553  11.593
31771W        W 2371  34.683  35.319  11.958
31772W        W 2372  40.534  17.295  10.772
31773W        W 2373   3.884  17.179  11.468
31774W        W 2374  12.675   0.943  13.314
31775W        W 2375  38.861  35.446  13.683
31776W        W 2376   1.269  33.081  12.496
31777W        W 2377  39.702  15.632   0.918
31778W        W 2378  10.907  27.065   0.166
31779W        W 2379   4.757  37.489  12.053
31780W        W 2380  39.142  39.359   0.917
31781W        W 2381   7.478  12.177  13.555
31782W        W 2382  42.404  22.245  14.315
31783W        W 2383  12.705  38.835   1.469
31784W        W 2384  18.387  42.872   2.659
31785W        W 2385  40.000  36.615  11.152
31786W        W 2386   1.694   9.411  14.402
31787W        W 2387  10.670  10.673  11.083
31788W        W 2388  19.675  23.952   4.062
31789W        W 2389   4.612  20.066   1.390
31790W        W 2390  34.160   8.518   3.676
31791W        W 2391   4.064  32.024  13.494
31792W        W 2392   5.171  29.578   2.726
31793W        W 2393  12.233  34.361   4.672
31794W        W 2394   6.688  37.809   1.718
31795W        W 2395  33.859   5.695   4.326
31796W        W 2396  29.707  26.417  12.950
31797W        W 2397  22.223  24.519  14.902
31798W        W 2398   4.474  26.923  14.945
31799W        W 2399   8.458   4.153  13.067
31800W        W 2400  42.446  25.503  14.800
31801W        W 2401  23.405   1.434   0.555
31802W        W 2402  34.022  39.066   4.409
31803W        W 2403  17.765  20.255   0.006
31804W        W 2404  25.124  33.858   3.864
31805W        W 2405  37.565  28.465   4.856
31806W        W 2406  20.150  42.747  12.169
31807W        W 2407   1.357  35.393   2.699
31808W        W 2408  29.278   4.279   4.066
31809W        W 2409   1.503  44.195   2.376
31810W        W 2410  21.735   9.664   0.591
31811W        W 2411  38.453  12.962   4.212
31812W        W 2412  10.744   2.840   3.280
31813W        W 2413  19.038  14.102  13.873
31814W        W 2414  43.984   7.594   4.771
31815W        W 2415  23.836   6.432  13.070
31816W        W 2416  16.152  21.710  12.182
31817W        W 2417  30.520   7.040   0.246
31818W        W 2418   8.801  39.100   1.865
31819W        W 2419  16.980  10.883   3.293
31820W        W 2420  17.188  23.068   2.215
31821W        W 2421  34.436  25.630   1.593
31822W        W 2422  11.119  44.940  11.019
31823W        W 2423   8.272  28.885  10.680
31824W        W 2424  33.610  37.610   1.426
31825W        W 2425   4.675  34.104  14.238
31826W        W 2426   2.332  27.460   4.065
31827W        W 2427  21.887  14.290  10.776
31828W        W 2428  10.888  35.906   1.386
31829W        W 2429   0.284  34.157   1.549
31830W        W 2430  39.070  13.698   4.176
31831W        W 2431  37.713  25.994  14.344
31832W        W 2432   7.890  17.770  14.367
31833W        W 2433  10.888  41.295  13.850
31834W        W 2434   9.959  15.884  13.815
31835W        W 2435  44.832  25.936  14.099
31836W        W 2436   0.289   1.841  11.236
31837W        W 2437  34.622  13.426   1.916
31838W        W 2438  19.032  14.627  13.074
31839W        W 2439  32.917   9.628   2.279
31840W        W 2440  39.494   7.291   2.636
31841W        W 2441   9.755   7.940   1.418
31842W        W 2442  41.902   7.305   0.841
31843W        W 2443   1.512  23.035   4.179
31844W        W 2444  35.061  38.359   4.237
31845W        W 2445  25.517  23.295   3.378
31846W        W 2446  43.380   6.123   0.300
31847W        W 2447  13.096  26.328  12.991
31848W        W 2448   0.552  39.008   0.341
31849W        W 2449  38.341   1.485  11.807
31850W        W 2450   9.432  43.051  10.708
31851W        W 2451   8.399  34.237  12.134
31852W        W 2452   2.397  29.666   5.015
31853W        W 2453  10.152  23.184   2.558
31854W        W 2454  21.727  12.577   1.847
31855W        W 2455  13.208  29.626   3.225
31856W        W 2456   5.225  10.538   0.494
31857W        W 2457  27.979  11.253   2.835
31858W        W 2458   4.988  35.419  13.131
31859W        W 2459  17.907  33.289   2.290
31860W        W 2460  19.018  15.117   2.715
31861W        W 2461   2.355  10.860  13.900
31862W        W 2462  25.124  28.681   0.995
31863W        W 2463  12.844  18.106  10.737
31864W        W 2464  23.752  31.509  12.935
31865W        W 2465  19.721  41.997   4.988
31866W        W 2466  22.162  31.108  11.910
31867W        W 2467  44.741  24.582   4.184
31868W        W 2468  24.582  13.465   1.316
31869W        W 2469  36.510  39.695  12.547
31870W        W 2470  40.303  11.679  10.699
31871W        W 2471   7.016  41.943  10.444
31872W        W 2472  37.703  16.543  13.053
31873W        W 2473  37.906  16.629   2.605
31874W        W 2474  44.937   1.300   0.751
31875W        W 2475  38.221  39.829   1.317
31876W        W 2476  12.833  37.767   2.550
31877W        W 2477  18.004  13.304  14.753
31878W        W 2478   5.925   2.544  12.014
31879W        W 2479  31.201   2.746  12.269
31880W        W 2480   6.442   2.166   3.739
31881W        W 2481  26.256  29.474  12.843
31882W        W 2482   9.103  19.882   3.860
31883W        W 2483  35.911  42.529   1.921
31884W        W 2484  20.827  26.382   0.809
31885W        W 2485  38.851  44.692  12.939
31886W        W 2486  27.008   1.337  14.176
31887W        W 2487  26.198   6.845  13.955
31888W        W 2488  27.922   1.340  14.380
31889W        W 2489  10.636   4.445   1.809
31890W        W 2490  36.025   2.360  12.013
31891W        W 2491   9.677  24.970  14.344
31892W        W 2492  10.096  34.410  13.563
31893W        W 2493  23.481  33.820  13.543
31894W        W 2494  35.980  26.284  10.750
31895W        W 2495  18.308   9.465  14.221
31896W        W 2496  43.042  34.986   4.572
31897W        W 2497  32.128   8.222   3.170
31898W        W 2498  10.058  43.043   0.600
31899W        W 2499   7.793  23.636   0.445
31900W        W 2500  19.714  42.479  10.686
31901W        W 2501  23.221  21.633   3.685
31902W        W 2502   9.239  27.090  13.958
31903W        W 2503  17.738  29.778   9.978
31904W        W 2504  12.397  12.766  13.981
31905W        W 2505  24.610   1.501  11.103
31906W        W 2506   7.449   6.860  14.020
31907W        W 2507  25.454  15.099  14.316
31908W        W 2508  44.761  42.438   4.588
31909W        W 2509  28.429  19.275   1.890
31910W        W 2510  13.489  29.885   1.985
31911W        W 2511   4.981  30.097  12.013
31912W        W 2512  30.423   3.212   1.813
31913W        W 2513  20.008   9.213  14.982
31914W        W 2514  30.121  28.164  12.352
31915W        W 2515   5.399  21.796   4.761
31916W        W 2516  19.321  26.253   0.850
31917W        W 2517  30.693  15.578  12.946
31918W        W 2518  44.363  13.702  13.862
31919W        W 2519  12.628   3.457  10.670
31920W        W 2520   3.682  40.654   2.799
31921W        W 2521  30.147   1.554  12.875
31922W        W 2522  33.958   9.372   0.246
31923W        W 2523   9.124   0.602  10.333
31924W        W 2524  22.085  28.403   1.518
31925W        W 2525   1.964  24.910   4.226
31926W        W 2526  18.298  40.441  12.449
31927W        W 2527  23.451  40.240  10.667
31928W        W 2528  33.084  22.670  11.576
31929W        W 2529  22.973  16.205   4.498
31930W        W 2530  12.867  24.528  13.738
31931W        W 2531  20.969  32.251   3.938
31932W        W 2532  26.561  43.769   0.359
31933W        W 2533  31.051   9.356   0.448
31934W        W 2534  22.011  27.039  10.695
31935W        W 2535  38.313  18.820   4.705
31936W        W 2536  22.616  31.075   3.172
31937W        W 2537   6.650  11.793   4.072
31938W        W 2538  38.281  40.483  14.018
31939W        W 2539  28.481  29.214  13.392
31940W        W 2540  44.823  26.446   1.338
31941W        W 2541  17.790   5.481   4.686
31942W        W 2542   0.349  34.096  13.473
31943W        W 2543  11.244   4.775   0.410
31944W        W 2544  32.698  26.690  11.986
31945W        W 2545  12.752  44.514   1.394
31946W        W 2546   1.733  41.856  11.715
31947W        W 2547   3.757  15.246  14.754
31948W        W 2548  20.690   4.753  13.228
31949W        W 2549  14.292  43.288  12.587
31950W        W 2550  36.737  29.442   0.285
31951W        W 2551  24.487  21.695  13.341
31952W        W 2552  37.529  28.118   3.647
31953W        W 2553  21.235   2.293   0.498
31954W        W 2554   1.759  40.939  13.997
31955W        W 2555  14.271  27.503  13.340
31956W        W 2556  22.442  30.592   0.843
31957W        W 2557  12.290  18.885   3.253
31958W        W 2558   0.842   1.450  13.420
31959W        W 2559   5.949  29.496   2.271
31960W        W 2560   3.871  18.565   4.926
31961W        W 2561  11.856  19.542  14.006
31962W        W 2562  37.034  29.969  12.124
31963W        W 2563  41.683  41.383  14.917
31964W        W 2564  33.511   7.421   4.215
31965W        W 2565  11.059  37.002  10.421
31966W        W 2566  23.938  22.160  11.326
31967W        W 2567  12.295  13.895   1.747
31968W        W 2568   4.806  32.373  10.660
31969W        W 2569   6.678   7.353  14.076
31970W        W 2570  25.492   1.265   0.815
31971W        W 2571   8.744  26.220  10.626
31972W        W 2572   4.542  44.947   1.296
31973W        W 2573   0.419  37.531  11.897
31974W        W 2574  13.566  17.530  11.746
31975W        W 2575  21.288  32.178  14.696
31976W        W 2576  39.796  35.846   0.729
31977W        W 2577  28.617  28.885   4.235
31978W        W 2578  12.869  24.135   1.742
31979W        W 2579  43.181  30.830   1.796
31980W        W 2580   6.325   7.683   1.209
31981W        W 2581  17.249  39.926   3.488
31982W        W 2582  40.497   8.350   4.438
31983W        W 2583  37.761  28.087   1.278
31984W        W 2584  40.912  39.884   3.591
31985W        W 2585  30.555  25.827  13.624
31986W        W 2586  24.578  33.151  11.564
31987W        W 2587  43.906  36.833   0.733
31988W        W 2588  35.219  14.129   0.492
31989W        W 2589   2.628  11.060  14.294
31990W        W 2590  40.097  13.232   3.711
31991W        W 2591   0.377  21.325   4.074
31992W        W 2592  11.316  29.072   4.120
31993W        W 2593  23.926  26.726  11.151
31994W        W 2594  34.551  33.870   2.181
31995W        W 2595  42.302  15.075   2.625
31996W        W 2596  44.947   4.771  14.648
31997W        W 2597  28.525  19.860   0.716
31998W        W 2598  35.429  13.637  11.540
31999W        W 2599  16.068  28.004   3.758
32000W        W 2600  25.069  29.931   4.134
32001W        W 2601  13.863   0.862   3.772
32002W        W 2602  44.448  31.682  13.653
32003W        W 2603  16.507  36.022   5.015
32004W        W 2604   4.373  24.886   3.160
32005W        W 2605   8.089   8.927   1.663
32006W        W 2606  37.012  39.132  13.877
32007W        W 2607  40.897   8.222  13.322
32008W        W 2608   3.514   9.445   1.195
32009W        W 2609   2.531   4.318  11.573
32010W        W 2610  18.215  24.711   0.443
32011W        W 2611  43.941  25.640  11.657
32012W        W 2612  16.332  21.307   4.171
32013W        W 2613  44.514  15.178   4.626
32014W        W 2614  42.961   5.663   0.006
32015W        W 2615  21.385  40.297  14.959
32016W        W 2616  25.279  30.534  12.084
32017W        W 2617   8.802  11.406  12.147
32018W        W 2618  20.360   8.929   5.432
32019W        W 2619  37.800  21.623   1.830
32020W        W 2620  30.249  17.910  12.905
32021W        W 2621  15.517  10.596  10.916
32022W        W 2622  16.096  35.897  14.295
32023W        W 2623  34.900  33.012   4.625
32024W        W 2624  30.807   8.060   1.909
32025W        W 2625  11.159   8.187   1.223
32026W        W 2626  33.238  17.765   0.218
32027W        W 2627  25.472  18.850  10.600
32028W        W 2628  33.172  30.581  12.016
32029W        W 2629  20.773   7.206   5.038
32030W        W 2630  10.423  40.408   1.915
32031W        W 2631  37.290  27.943  12.021
32032W        W 2632   1.396  19.998  11.240
32033W        W 2633  14.313   8.859   1.206
32034W        W 2634  13.335   5.626  10.717
32035W        W 2635   9.949   0.170  14.668
32036W        W 2636   1.596  11.661   1.816
32037W        W 2637   6.596  26.882  13.991
32038W        W 2638  22.271  36.156  10.756
32039W        W 2639  12.580  33.053   4.429
32040W        W 2640  35.676  17.657  13.904
32041W        W 2641  36.840  16.080  11.658
32042W        W 2642  22.940  40.795  11.338
32043W        W 2643   6.395   4.631  11.094
32044W        W 2644   7.383  10.045   5.054
32045W        W 2645  29.898  10.432  14.384
32046W        W 2646  21.705  17.300   0.880
32047W        W 2647   7.263  33.955  10.859
32048W        W 2648  33.107  43.933  14.460
32049W        W 2649  19.095  43.579   2.855
32050W        W 2650  17.306  35.061  11.585
32051W        W 2651   7.088  18.027   4.352
32052W        W 2652   0.704  20.945  10.590
32053W        W 2653   9.066  27.466   0.697
32054W        W 2654  34.851  41.384   4.597
32055W        W 2655  39.380  21.543  14.736
32056W        W 2656  34.004  13.376   2.373
32057W        W 2657  22.698   8.175   1.902
32058W        W 2658  19.794  32.165  12.451
32059W        W 2659  11.862  37.669  14.863
32060W        W 2660   5.243  27.535   2.598
32061W        W 2661  24.928   5.274   0.414
32062W        W 2662  21.125  33.024  11.630
32063W        W 2663  10.110  15.128   3.759
32064W        W 2664  12.254  14.085  14.771
32065W        W 2665  21.532  14.297   3.214
32066W        W 2666  25.687   9.651  12.533
32067W        W 2667  33.095   7.275   4.917
32068W        W 2668  37.128  36.784   0.888
32069W        W 2669  36.652   4.837  12.107
32070W        W 2670  36.666  19.275   0.338
32071W        W 2671  35.590  15.757   0.431
32072W        W 2672  14.942   1.356  11.187
32073W        W 2673  27.170  36.458   4.364
32074W        W 2674  23.346  37.008  10.801
32075W        W 2675  23.117  31.942  12.530
32076W        W 2676   1.026  44.750  14.358
32077W        W 2677  43.000  33.687  14.394
32078W        W 2678  17.121  36.572  14.885
32079W        W 2679   5.693  21.566   3.984
32080W        W 2680   2.299  16.785   4.157
32081W        W 2681  12.615  44.962  12.088
32082W        W 2682  14.693  33.205   0.990
32083W        W 2683   5.389  28.062   1.100
32084W        W 2684  41.320  19.909   0.451
32085W        W 2685  36.969  20.494   4.170
32086W        W 2686  15.619  37.332   5.071
32087W        W 2687  12.598  17.562   3.375
32088W        W 2688  37.427  30.043  14.339
32089W        W 2689  25.649  22.054  10.967
32090W        W 2690  41.805  44.795   5.001
32091W        W 2691   1.842  24.913   2.268
32092W        W 2692  14.037  38.516  14.088
32093W        W 2693  14.382  19.351  11.453
32094W        W 2694   0.360   5.960   4.984
32095W        W 2695  24.463  39.838  13.472
32096W        W 2696  37.936  40.942  12.695
32097W        W 2697  41.480  37.839   0.978
32098W        W 2698   2.039   3.434   2.829
32099W        W 2699   6.170  25.397   1.683
32100W        W 2700  28.093  14.051   1.725
32101W        W 2701  28.460  26.027  10.907
32102W        W 2702  19.291  10.435  11.139
32103W        W 2703   9.613  24.269   3.166
32104W        W 2704  33.096  25.033  13.441
32105W        W 2705  26.376  32.965   4.906
32106W        W 2706  33.905  20.244   1.012
32107W        W 2707  35.610  22.976   3.605
32108W        W 2708  19.055  28.699   2.625
32109W        W 2709  12.792  12.231  13.338
32110W        W 2710   3.623  28.110  12.509
32111W        W 2711  24.159  14.343  14.004
32112W        W 2712   2.095  34.517  13.324
32113W        W 2713  11.567  27.222   4.056
32114W        W 2714  11.513   0.818  14.341
32115W        W 2715  22.668   3.466   3.704
32116W        W 2716  18.778  22.043   2.182
32117W        W 2717   7.008  26.564  13.099
32118W        W 2718  29.358  41.381   2.484
32119W        W 2719   4.742  15.699  12.992
32120W        W 2720   2.284  12.941  10.784
32121W        W 2721  28.304   5.169   3.688
32122W        W 2722  41.936  19.076  14.851
32123W        W 2723  36.086   9.523   2.931
32124W        W 2724   7.853  10.798   2.673
32125W        W 2725  29.515  16.509  14.495
32126W        W 2726  10.221  32.108  11.629
32127W        W 2727  19.102  35.447  11.740
32128W        W 2728  26.494  27.438   2.379
32129W        W 2729  29.180   9.768  12.992
32130W        W 2730  28.139  38.407  10.661
32131W        W 2731  20.509  13.707  12.217
32132W        W 2732  32.839  19.962   3.894
32133W        W 2733  41.536  22.070  14.877
32134W        W 2734  14.466  26.984   4.669
32135W        W 2735  20.289  31.399  13.779
32136W        W 2736  39.403  26.097   0.471
32137W        W 2737  32.075  15.575  13.782
32138W        W 2738  12.046  20.130   4.162
32139W        W 2739  39.081  44.706   2.077
32140W        W 2740  40.425  42.557   1.460
32141W        W 2741  14.307  31.967   0.935
32142W        W 2742  22.643  41.602  11.837
32143W        W 2743   9.236  30.408   5.014
32144W        W 2744  33.632  34.693  12.340
32145W        W 2745   7.134   0.335  11.493
32146W        W 2746   0.232  42.943  11.487
32147W        W 2747  11.374  28.531  11.926
32148W        W 2748   2.668   1.493   2.361
32149W        W 2749  17.419   4.690  10.810
32150W        W 2750  24.671   7.932  10.574
32151W        W 2751  39.492  43.272   4.609
32152W        W 2752   9.418  27.054   1.771
32153W        W 2753  10.806   3.072  10.575
32154W        W 2754  11.145  27.680   2.830
32155W        W 2755  35.546  31.635  11.131
32156W        W 2756  37.460   9.579  11.161
32157W        W 2757  33.209  26.968  14.579
32158W        W 2758  40.376  15.758   2.088
32159W        W 2759   3.697  36.019  11.611
32160W        W 2760   9.578  32.830   2.814
32161W        W 2761  16.619   6.315   0.398
32162W        W 2762  18.315  43.955  11.885
32163W        W 2763  21.465  31.267   4.116
32164W        W 2764  24.770   8.753   3.695
32165W        W 2765  36.146  31.902  14.540
32166W        W 2766   6.704  35.698   4.303
32167W        W 2767  22.638  19.141  10.573
32168W        W 2768  28.445   5.807   1.702
32169W        W 2769   5.646  32.009  11.581
32170W        W 2770  23.976  28.675   2.351
32171W        W 2771  37.431  17.739  10.727
32172W        W 2772  18.678  41.347   2.865
32173W        W 2773  12.619  15.301  13.351
32174W        W 2774  26.075   5.212   0.735
32175W        W 2775  10.396  20.543   3.750
32176W        W 2776  34.628  10.243  13.009
32177W        W 2777  41.186  43.933   3.581
32178W        W 2778  11.702  24.936   2.723
32179W        W 2779   3.982   9.713   1.802
32180W        W 2780  22.859  21.591   1.419
32181W        W 2781  10.961  36.801   1.154
32182W        W 2782  11.348   4.335  12.670
32183W        W 2783   6.767   2.193   3.292
32184W        W 2784  12.150  34.802   4.922
32185W        W 2785  44.467   8.169   3.257
32186W        W 2786  22.517  17.651   4.137
32187W        W 2787  24.973  28.925  12.396
32188W        W 2788  40.694  15.887   0.689
32189W        W 2789  35.771  43.361  10.663
32190W        W 2790  38.911   3.873  12.483
32191W        W 2791  34.409  42.957  11.630
32192W        W 2792   0.983   3.303  11.535
32193W        W 2793  12.393  39.407   0.159
32194W        W 2794   9.896  29.169   3.809
32195W        W 2795  27.153   8.932   3.602
32196W        W 2796  42.993  27.306   4.411
32197W        W 2797  30.442  32.270  11.630
32198W        W 2798  39.634  40.632   4.272
32199W        W 2799   2.487  10.558  14.336
32200W        W 2800  12.318   5.942  13.312
32201W        W 2801  29.213  14.401  13.337
32202W        W 2802  26.072   3.741   4.395
32203W        W 2803  39.838  30.157   4.064
32204W        W 2804   1.261   5.802   4.347
32205W        W 2805  29.085  41.092  12.071
32206W        W 2806  14.485  42.596  14.412
32207W        W 2807  29.259  10.297   0.748
32208W        W 2808  10.541  11.818   0.900
32209W        W 2809  32.103  27.497   4.520
32210W        W 2810  31.617   2.208  11.469
32211W        W 2811  39.002  20.852  12.967
32212W        W 2812  43.503  11.869   3.392
32213W        W 2813  39.180  38.495  10.652
32214W        W 2814   9.607   7.181  14.490
32215W        W 2815  32.958  32.943  13.951
32216W        W 2816  34.384  19.701  10.641
32217W        W 2817  30.280  37.098  14.331
32218W        W 2818  17.004  10.377  12.057
32219W        W 2819   6.732  23.064  11.159
32220W        W 2820   0.608   2.470   4.205
32221W        W 2821  14.750   3.235  14.489
32222W        W 2822  41.063  23.986  13.019
32223W        W 2823  43.037  24.621   1.395
32224W        W 2824   9.870  43.666  12.094
32225W        W 2825   8.186  10.911   4.510
32226W        W 2826  36.095   7.294  10.663
32227W        W 2827  11.566  39.381   0.302
32228W        W 2828  34.564  35.731   2.008
32229W        W 2829  26.769  18.888   2.168
32230W        W 2830  20.182  11.326   0.463
32231W        W 2831  22.717  34.826   2.101
32232W        W 2832  24.008  42.299   3.743
32233W        W 2833  22.001  13.895  10.410
32234W        W 2834  26.227  23.216   2.281
32235W        W 2835  41.618  41.158  13.439
32236W        W 2836  41.972  35.944   1.390
32237W        W 2837  29.110  11.700   3.267
32238W        W 2838   1.377  44.938  10.687
32239W        W 2839  39.835  34.735  12.355
32240W        W 2840  12.210  42.215  14.496
32241W        W 2841  23.484   5.625  13.387
32242W        W 2842  41.861  22.966  14.754
32243W        W 2843   6.108  11.869   3.264
32244W        W 2844  22.567  22.943   2.410
32245W        W 2845  35.898   0.994   3.137
32246W        W 2846  37.539  26.377   4.985
32247W        W 2847  25.683  10.748   0.716
32248W        W 2848  12.429  13.887   4.695
32249W        W 2849  21.197  17.806   1.366
32250W        W 2850  38.763   3.866   2.375
32251W        W 2851  24.396  36.986  14.924
32252W        W 2852  24.553   3.400  13.391
32253W        W 2853   0.104  26.189   3.685
32254W        W 2854   4.028  37.113   1.255
32255W        W 2855  35.611   0.323   3.689
32256W        W 2856  10.275  36.081   4.579
32257W        W 2857  32.298  26.042   2.765
32258W        W 2858  19.096  19.145   4.558
32259W        W 2859  37.362  26.583   2.453
32260W        W 2860  29.691  35.495  11.449
32261W        W 2861  28.449  43.478   2.912
32262W        W 2862  16.865  30.613   1.732
32263W        W 2863   1.032  42.945   1.677
32264W        W 2864  16.417   9.162   1.343
32265W        W 2865  38.656  11.669  13.761
32266W        W 2866  18.051  31.709  13.739
32267W        W 2867  37.906  28.974  13.513
32268W        W 2868  42.296  23.048  12.070
32269W        W 2869  15.169  31.544   3.569
32270W        W 2870  32.481  18.544  13.705
32271W        W 2871  13.549  19.026  12.666
32272W        W 2872   5.435  38.364  13.580
32273W        W 2873  27.618  40.890   1.820
32274W        W 2874  40.724  32.307  11.514
32275W        W 2875  10.311   0.343   3.997
32276W        W 2876  37.568   4.245  10.746
32277W        W 2877   0.854  34.790  12.387
32278W        W 2878   2.299  21.240   0.427
32279W        W 2879  38.056  33.972   0.932
32280W        W 2880  44.595  19.602  10.207
32281W        W 2881   1.098  27.408   2.611
32282W        W 2882  31.577  12.821   4.836
32283W        W 2883  31.346   5.937   4.663
32284W        W 2884  17.275   8.379   2.867
32285W        W 2885  23.685  33.600   0.845
32286W        W 2886  20.408   2.193   3.763
32287W        W 2887   0.548  29.096   1.264
32288W        W 2888  31.637  16.687   2.311
32289W        W 2889  25.570   7.392   5.337
32290W        W 2890  19.178  31.918  14.999
32291W        W 2891  36.399  42.537  10.682
32292W        W 2892  20.397  17.742  14.910
32293W        W 2893  25.761   1.007   3.611
32294W        W 2894  12.174  24.678  14.444
32295W        W 2895  39.975  15.590  10.668
32296W        W 2896  25.151  30.667  14.356
32297W        W 2897   1.193  40.400   4.271
32298W        W 2898  41.554  18.205   1.663
32299W        W 2899  31.059  38.020  12.056
32300W        W 2900   4.850  25.008  10.988
32301W        W 2901  39.625  37.677   1.365
32302W        W 2902  31.198  30.033   2.329
32303W        W 2903  40.409   5.780  12.063
32304W        W 2904  42.965  32.557  14.352
32305W        W 2905  41.493  44.065   2.925
32306W        W 2906  22.270  37.365   2.171
32307W        W 2907  17.336   6.234   3.685
32308W        W 2908  35.001  39.355   2.169
32309W        W 2909  16.275  28.954  14.028
32310W        W 2910  36.981   4.808  11.421
32311W        W 2911  35.342  19.356  11.001
32312W        W 2912  28.872  30.391  12.060
32313W        W 2913  14.700   6.924   0.084
32314W        W 2914  34.174  36.995  10.549
32315W        W 2915  28.125  12.138  13.309
32316W        W 2916  18.741  14.160   1.785
32317W        W 2917  12.389  16.732   0.354
32318W        W 2918   0.517  18.334   0.260
32319W        W 2919  28.054   3.067  13.511
32320W        W 2920   8.612   5.325  14.453
32321W        W 2921  17.711  38.030  11.064
32322W        W 2922   5.206  17.066  14.101
32323W        W 2923  36.876  44.198   4.607
32324W        W 2924  14.788   2.512   0.011
32325W        W 2925  16.707  40.900   1.623
32326W        W 2926  18.563   3.397   2.434
32327W        W 2927  38.610  15.783   1.712
32328W        W 2928  37.397  20.309   5.128
32329W        W 2929  10.249  40.854  14.969
32330W        W 2930  38.921  33.596   2.368
32331W        W 2931   5.274  23.705  10.946
32332W        W 2932  31.090  11.676  13.096
32333W        W 2933  38.556  28.960   4.740
32334W        W 2934   7.744  19.347   3.746
32335W        W 2935  40.384  33.878  11.913
32336W        W 2936  40.366  15.461   4.542
32337W        W 2937   4.412   1.097  11.547
32338W        W 2938  31.926  43.693  10.810
32339W        W 2939  36.873   7.627   4.849
32340W        W 2940  30.433   7.417  13.908
32341W        W 2941  24.580  37.885   3.411
32342W        W 2942  35.619   6.912   3.070
32343W        W 2943  28.081  25.364   4.292
32344W        W 2944   7.544   7.446  12.296
32345W        W 2945  44.472   1.711  14.558
32346W        W 2946  14.548  35.159   9.857
32347W        W 2947   6.479  29.604   0.082
32348W        W 2948  21.196  18.608   3.847
32349W        W 2949  28.484  14.423  14.000
32350W        W 2950  44.089  24.773   2.955
32351W        W 2951   6.779  32.504  10.701
32352W        W 2952  24.912   0.892   3.043
32353W        W 2953  39.257  41.808   1.725
32354W        W 2954  21.591   4.201  12.276
32355W        W 2955   4.992  12.897  11.538
32356W        W 2956  13.767  10.699   0.334
32357W        W 2957  17.912  18.059  13.971
32358W        W 2958  17.025   8.918  10.353
32359W        W 2959  23.049  21.135  11.638
32360W        W 2960  35.304  35.939  11.842
32361W        W 2961  12.261  25.269  13.311
32362W        W 2962   8.143  16.733  12.640
32363W        W 2963   0.094  41.570  11.367
32364W        W 2964  35.522  20.548  10.592
32365W        W 2965  32.845  14.988   2.187
32366W        W 2966  36.853  20.538   0.871
32367W        W 2967  38.161  44.693   3.381
32368W        W 2968  34.939  10.159   1.686
32369W        W 2969  12.254   4.749  14.276
32370W        W 2970  27.403  41.338   1.602
32371W        W 2971  40.916   6.119   3.383
32372W        W 2972  25.160  44.675   0.239
32373W        W 2973   1.546  25.879  12.432
32374W        W 2974  12.389  21.712  14.762
32375W        W 2975   6.961  10.882  13.336
32376W        W 2976  44.695  14.766  11.638
32377W        W 2977   5.446  38.931   1.298
32378W        W 2978  15.045  41.468  11.427
32379W        W 2979  32.085  32.398  12.444
32380W        W 2980   9.677  14.713   2.170
32381W        W 2981  33.079  27.458  14.422
32382W        W 2982  12.159  28.558  13.813
32383W        W 2983  19.296  33.627   0.831
32384W        W 2984  35.996  42.476   0.458
32385W        W 2985  40.335  41.875  13.065
32386W        W 2986   7.780   4.887   1.095
32387W        W 2987   5.302  29.457   4.797
32388W        W 2988   2.262  24.234  12.876
32389W        W 2989  23.572  41.105  12.378
32390W        W 2990  33.079  38.731  11.163
32391W        W 2991   6.765   1.713  14.405
32392W        W 2992  31.575  23.641   3.758
32393W        W 2993  35.215  29.927   4.259
32394W        W 2994   9.794  32.984   3.805
32395W        W 2995   2.524  19.434   0.904
32396W        W 2996   5.417  14.152  12.901
32397W        W 2997  14.246  38.370  11.054
32398W        W 2998  24.668  11.424   2.850
32399W        W 2999   0.969   1.287   4.567
32400W        W 3000  24.611  29.267   1.624
32401W        W 3001   1.726  23.230   3.198
32402W        W 3002  38.720  15.399   1.183
32403W        W 3003  37.726  18.167   1.680
32404W        W 3004  21.894  32.873   4.148
32405W        W 3005  21.079  30.239  13.381
32406W        W 3006  25.050   3.800  10.659
32407W        W 3007  15.757  40.625  14.775
32408W        W 3008   7.181   6.887  13.555
32409W        W 3009   9.410  30.177  12.621
32410W        W 3010  29.807  32.042  12.625
32411W        W 3011  10.883  38.387   1.119
32412W        W 3012  21.911  30.266  13.466
32413W        W 3013  11.279  37.933   2.219
32414W        W 3014   6.932  34.794   3.814
32415W        W 3015  11.932  16.716   4.110
32416W        W 3016  33.148  23.264  12.453
32417W        W 3017   7.081  33.938   1.460
32418W        W 3018  30.173  43.285  12.778
32419W        W 3019  42.913  12.349   4.697
32420W        W 3020  34.087  20.540  12.580
32421W        W 3021  25.927   8.290  13.582
32422W        W 3022  16.351  39.522  12.080
32423W        W 3023   6.711  12.304   4.541
32424W        W 3024  29.825  27.035  14.515
32425W        W 3025  19.710   8.598   0.746
32426W        W 3026  18.047  44.100  11.458
32427W        W 3027  17.100  16.716  12.636
32428W        W 3028  14.546  37.098   0.518
32429W        W 3029  20.429  11.079  12.097
32430W        W 3030   4.639  15.050   0.813
32431W        W 3031  33.183  19.310  12.583
32432W        W 3032  36.013   1.328  11.195
32433W        W 3033   7.217  32.852  12.446
32434W        W 3034  22.662  15.731  10.464
32435W        W 3035  14.172  43.880  12.896
32436W        W 3036  31.081  19.667   1.792
32437W        W 3037  32.891  38.864   2.512
32438W        W 3038  16.646  27.778   4.557
32439W        W 3039  17.788  25.451   3.673
32440W        W 3040  44.821  25.741  14.677
32441W        W 3041  13.069   2.301  14.357
32442W        W 3042  29.711   8.097   3.205
32443W        W 3043   7.412   3.266  14.756
32444W        W 3044  26.557  38.107  14.770
32445W        W 3045  23.326  23.046  11.626
32446W        W 3046  15.286  27.071   3.464
32447W        W 3047  22.693   5.963   4.287
32448W        W 3048  14.707  41.697  12.223
32449W        W 3049   6.406  28.403  13.596
32450W        W 3050   1.802  37.998  14.080
32451W        W 3051   8.650   9.271  14.483
32452W        W 3052  31.219  19.118  13.982
32453W        W 3053  33.861   0.318  10.775
32454W        W 3054  21.673  38.631   4.044
32455W        W 3055   9.106   9.816   1.788
32456W        W 3056  39.383  18.520  11.591
32457W        W 3057   4.995  15.297   3.472
32458W        W 3058  13.895   0.963  14.653
32459W        W 3059  13.586  12.197   0.358
32460W        W 3060   1.073  42.219  11.360
32461W        W 3061   4.701   0.749  13.994
32462W        W 3062  14.884  39.539   0.494
32463W        W 3063   0.888  11.681   4.668
32464W        W 3064  31.121   2.719   1.961
32465W        W 3065   2.429  29.217   1.354
32466W        W 3066  35.417  41.535  10.744
32467W        W 3067  23.659   3.486   3.868
32468W        W 3068  10.326  24.982  11.627
32469W        W 3069  14.280  12.663   2.159
32470W        W 3070  42.515  15.819  10.687
32471W        W 3071  26.027  42.740   2.269
32472W        W 3072  30.222  30.078  11.190
32473W        W 3073  17.343  23.063   0.355
32474W        W 3074  19.066  39.706   1.578
32475W        W 3075  11.601  41.734   1.431
32476W        W 3076  16.547  32.488   1.926
32477W        W 3077  10.392  16.714   3.590
32478W        W 3078  37.813  12.259   2.074
32479W        W 3079  31.160  42.919   2.825
32480W        W 3080  14.239  21.298   0.272
32481W        W 3081  21.698  24.954  11.558
32482W        W 3082  16.178  42.393   2.264
32483W        W 3083  15.064   3.849   2.775
32484W        W 3084  37.791  24.730  10.364
32485W        W 3085  43.503  12.922  13.519
32486W        W 3086  22.446  18.577  13.728
32487W        W 3087  32.107  34.890   1.332
32488W        W 3088  34.369  35.470   2.836
32489W        W 3089  16.782   0.539   2.320
32490W        W 3090  10.791   5.335   0.030
32491W        W 3091  37.759  33.053   4.043
32492W        W 3092  35.908  27.247   0.422
32493W        W 3093  26.998  18.644   4.691
32494W        W 3094  24.236   0.808   5.421
32495W        W 3095  23.870   9.286  10.296
32496W        W 3096  42.714   8.228  13.102
32497W        W 3097  44.922  36.393  13.300
32498W        W 3098  27.255  13.838   4.111
32499W        W 3099  43.437  19.205  13.406
32500W        W 3100   8.571  17.280  14.827
32501W        W 3101  10.236  43.386   4.648
32502W        W 3102  22.222  33.025   1.852
32503W        W 3103  39.034  25.281  13.299
32504W        W 3104  29.369  11.168   1.088
32505W        W 3105  33.332  26.490  14.771
32506W        W 3106   0.897  41.802  13.367
32507W        W 3107  25.100  39.806  12.955
32508W        W 3108  41.465  20.968   1.963
32509W        W 3109  35.321  38.638   2.870
32510W        W 3110  34.594  21.567  14.693
32511W        W 3111  43.523  16.669  13.833
32512W        W 3112   3.936  27.650  13.908
32513W        W 3113  10.843   1.839   4.592
32514W        W 3114   2.221  33.471   0.044
32515W        W 3115  22.204   3.189   2.762
32516W        W 3116   6.369  38.817   1.315
32517W        W 3117   9.810  13.666   3.797
32518W        W 3118  22.789  35.020  13.555
32519W        W 3119  44.798  28.905  11.772
32520W        W 3120  11.822  17.510  13.460
32521W        W 3121  17.532  31.487   3.845
32522W        W 3122  13.540  25.993  13.879
32523W        W 3123  34.960   9.019   4.581
32524W        W 3124  23.226  30.125   0.411
32525W        W 3125  39.396  10.357   2.686
32526W        W 3126  27.177  42.507   3.748
32527W        W 3127   8.291  19.986   0.290
32528W        W 3128  12.279  42.442  11.603
32529W        W 3129  35.820   6.212   2.297
32530W        W 3130  41.703  34.996   1.578
32531W        W 3131   1.335  15.843   4.099
32532W        W 3132  28.235  19.709   9.990
32533W        W 3133  17.201  37.921   4.974
32534W        W 3134   7.252  14.160  11.509
32535W        W 3135  32.375  12.696  10.716
32536W        W 3136  30.535  10.502  14.079
32537W        W 3137   6.444  43.937   2.253
32538W        W 3138  39.250  21.489   2.639
32539W        W 3139  31.422  44.500   3.412
32540W        W 3140  27.153  18.179   4.948
32541W        W 3141  44.865  13.432   1.107
32542W        W 3142  25.160  34.910  13.374
32543W        W 3143   5.287  10.130  14.025
32544W        W 3144  33.867  43.233  14.385
32545W        W 3145  12.286  31.673   3.907
32546W        W 3146  17.890   9.869  13.506
32547W        W 3147  42.370  35.562   1.331
32548W        W 3148  16.320  32.357   0.656
32549W        W 3149  25.808  39.464  14.221
32550W        W 3150   4.915  19.713  13.515
32551W        W 3151  17.529  37.686   4.153
32552W        W 3152  30.187  30.595  12.585
32553W        W 3153  36.936  26.937   0.463
32554W        W 3154   7.378  26.518  11.715
32555W        W 3155  18.698  35.076   0.940
32556W        W 3156  15.119  44.808  12.441
32557W        W 3157  15.651  26.638  11.926
32558W        W 3158  39.120  29.671   3.218
32559W        W 3159  22.552  42.146  11.880
32560W        W 3160   6.056   7.657   0.767
32561W        W 3161   4.773  12.913   1.441
32562W        W 3162  34.828  27.473   2.138
32563W        W 3163   2.330   9.311   1.679
32564W        W 3164  12.701   8.099   0.831
32565W        W 3165  37.595  25.722  12.486
32566W        W 3166  28.754  25.334   1.447
32567W        W 3167  30.018   9.652   3.016
32568W        W 3168  41.312   5.208   0.191
32569W        W 3169  41.892  14.137   0.861
32570W        W 3170  36.282  40.901   0.155
32571W        W 3171  33.337  30.644   3.586
32572W        W 3172   5.219  23.794  14.002
32573W        W 3173  30.516  38.273   4.301
32574W        W 3174  36.548  12.740  10.435
32575W        W 3175   9.326   1.439   2.177
32576W        W 3176  27.598  20.197   2.051
32577W        W 3177  24.440  32.290  12.811
32578W        W 3178   6.800  34.131  11.434
32579W        W 3179   3.628  10.709  13.175
32580W        W 3180  34.798   1.985   3.964
32581W        W 3181   6.448  44.470   1.284
32582W        W 3182   5.793  39.067  11.595
32583W        W 3183  34.615  20.770   0.175
32584W        W 3184  38.476   1.448   1.300
32585W        W 3185  43.246  22.586   3.609
32586W        W 3186  26.974  34.679  11.618
32587W        W 3187  20.232  28.580  14.699
32588W        W 3188   1.251  36.932  14.475
32589W        W 3189  27.207  10.930  11.462
32590W        W 3190  42.330  32.157  12.114
32591W        W 3191   7.114  19.026   2.394
32592W        W 3192  26.329  34.974  14.824
32593W        W 3193  36.841  14.364   3.237
32594W        W 3194  11.851  30.131   4.868
32595W        W 3195  20.117   3.165  10.355
32596W        W 3196   1.226  36.351   0.769
32597W        W 3197   1.959  13.616   4.561
32598W        W 3198   0.934  43.898  12.088
32599W        W 3199   8.221   0.773  14.848
32600W        W 3200  13.485   8.447   3.292
32601W        W 3201  25.535  43.579  13.787
32602W        W 3202  24.696  38.365  13.857
32603W        W 3203  14.831  34.160  11.169
32604W        W 3204  34.390   5.196  10.572
32605W        W 3205  28.053  28.418  12.127
32606W        W 3206  29.097  19.523  11.433
32607W        W 3207  29.614  24.500   1.701
32608W        W 3208  10.488  31.873   5.107
32609W        W 3209  34.144  27.127  14.777
32610W        W 3210   8.745  34.514   2.841
32611W        W 3211  14.339  44.430  13.481
32612W        W 3212  30.555  22.081   0.840
32613W        W 3213  42.906  26.912   4.732
32614W        W 3214  39.263  10.918  10.831
32615W        W 3215  10.865  44.037   0.268
32616W        W 3216  16.378  43.389  13.898
32617W        W 3217  25.952   4.920  12.115
32618W        W 3218  27.810  18.297   2.750
32619W        W 3219  23.093   3.246   1.049
32620W        W 3220   9.160   4.778  13.103
32621W        W 3221   6.170  29.067  11.066
32622W        W 3222  14.472  19.854   4.295
32623W        W 3223  21.973   4.706   3.242
32624W        W 3224  14.382  18.176  10.800
32625W        W 3225  35.396  12.085  10.574
32626W        W 3226  43.261  23.496   0.453
32627W        W 3227  41.326  16.823  13.907
32628W        W 3228  37.639  23.101   0.000
32629W        W 3229  33.366  37.306  10.695
32630W        W 3230  30.072  21.774   2.209
32631W        W 3231  40.508  16.995   3.256
32632W        W 3232  33.458  34.554   3.181
32633W        W 3233   1.505  38.558  11.891
32634W        W 3234  13.781  37.309   0.075
32635W        W 3235  23.059  15.938  12.961
32636W        W 3236  28.936  41.098   2.691
32637W        W 3237   5.640  39.577   1.820
32638W        W 3238  39.581   1.947   0.612
32639W        W 3239  10.727  32.963  14.308
32640W        W 3240  41.317   0.822   3.664
32641W        W 3241  22.453  20.292   3.702
32642W        W 3242  19.180  34.039  12.443
32643W        W 3243  11.156  24.069   2.676
32644W        W 3244  25.130  16.557   0.002
32645W        W 3245  10.740  23.964  11.234
32646W        W 3246  25.618  22.719   1.871
32647W        W 3247  25.487   2.934  13.741
32648W        W 3248  22.461  14.144  14.028
32649W        W 3249  11.308   9.928  12.537
32650W        W 3250   2.460   6.635  10.643
32651W        W 3251  13.746  18.961  13.589
32652W        W 3252  40.374  30.657  14.922
32653W        W 3253  28.276  40.816   0.705
32654W        W 3254  30.401  17.711  10.780
32655W        W 3255  33.340   0.328  14.607
32656W        W 3256  25.656   1.289   3.184
32657W        W 3257   1.672  17.703  13.439
32658W        W 3258  11.201  23.029   4.522
32659W        W 3259  28.101  29.925   1.864
32660W        W 3260  29.903   4.297  13.456
32661W        W 3261  21.424  37.420   2.387
32662W        W 3262   3.124  35.822   2.754
32663W        W 3263  44.074  36.307  11.071
32664W        W 3264  15.570  37.365   4.241
32665W        W 3265  36.117  35.316  13.501
32666W        W 3266  26.513  38.594  11.045
32667W        W 3267  17.674   5.631   1.438
32668W        W 3268   7.328  10.843   3.254
32669W        W 3269   2.357   2.751  14.700
32670W        W 3270  15.094  20.561  12.845
32671W        W 3271  17.195  16.083   1.361
32672W        W 3272  14.173  13.685  12.520
32673W        W 3273  27.587  34.343   0.837
32674W        W 3274  36.200   8.267   4.725
32675W        W 3275  30.070  29.066  13.455
32676W        W 3276  43.213  14.260  11.389
32677W        W 3277  14.631  16.885  10.790
32678W        W 3278  18.320  22.076  14.015
32679W        W 3279  29.011  28.884  14.214
32680W        W 3280  42.813  26.198   3.874
32681W        W 3281  33.805  43.802   0.168
32682W        W 3282  10.332  24.023  10.521
32683W        W 3283  39.862  36.952  12.474
32684W        W 3284  13.647  37.305   4.243
32685W        W 3285   4.750   4.154  11.658
32686W        W 3286   3.581  38.498  11.929
32687W        W 3287  28.265  11.275  10.797
32688W        W 3288   8.244   7.885   3.439
32689W        W 3289  41.868  39.465   2.247
32690W        W 3290   0.447  26.520  11.956
32691W        W 3291   6.836  29.940   4.585
32692W        W 3292  21.439  14.921   0.039
32693W        W 3293   3.791  22.293   3.725
32694W        W 3294   2.773  16.820  12.470
32695W        W 3295  22.444  40.961  11.195
32696W        W 3296  24.514  27.103   1.741
32697W        W 3297  25.201   7.878   0.403
32698W        W 3298  22.632  15.639  11.538
32699W        W 3299  44.318   9.664   1.302
32700W        W 3300  11.678  18.539  13.069
32701W        W 3301  13.189  41.296   2.800
32702W        W 3302  31.384  19.625   2.218
32703W        W 3303  25.365   0.024   1.585
32704W        W 3304  13.464  41.413  10.760
32705W        W 3305   7.726  35.947  14.229
32706W        W 3306  31.204  10.933  11.042
32707W        W 3307  39.441  14.130   4.025
32708W        W 3308  22.757  10.756  10.331
32709W        W 3309  16.389  16.890  10.314
32710W        W 3310  11.698   4.406   1.813
32711W        W 3311  27.288  40.031  14.485
32712W        W 3312  41.653  13.906  10.207
32713W        W 3313  15.292  35.787  13.941
32714W        W 3314  12.430   2.472   0.854
32715W        W 3315  10.765  31.395   0.229
32716W        W 3316  43.220  27.919  14.412
32717W        W 3317  18.280  13.646   1.477
32718W        W 3318  42.375  13.605  12.593
32719W        W 3319  29.722  35.128  12.681
32720W        W 3320  38.790  38.941   0.831
32721W        W 3321  39.143  16.315   3.134
32722W        W 3322  32.110  23.764  14.428
32723W        W 3323   5.164  29.811  14.390
32724W        W 3324  34.378  25.991  11.939
32725W        W 3325  26.874  21.184  14.480
32726W        W 3326  15.367   5.653  10.558
32727W        W 3327   8.896  27.459  10.954
32728W        W 3328  13.970   1.637  11.163
32729W        W 3329  43.632   8.189  10.871
32730W        W 3330  44.999  15.999  10.608
32731W        W 3331  41.871  15.824  13.373
32732W        W 3332  11.603  42.311   9.777
32733W        W 3333  40.558  14.152  13.922
32734W        W 3334  24.555   1.795   2.635
32735W        W 3335  27.721  11.869   0.135
32736W        W 3336  11.818   4.997  10.730
32737W        W 3337   8.787  38.031  14.846
32738W        W 3338   7.004  23.376  13.353
32739W        W 3339  28.351   9.060   3.069
32740W        W 3340  34.011  15.757  13.465
32741W        W 3341  24.000  24.983   0.029
32742W        W 3342   3.145  40.876   3.269
32743W        W 3343  20.392  23.600  11.706
32744W        W 3344   6.388  10.568   5.134
32745W        W 3345  40.832  20.740   0.358
32746W        W 3346  30.228  43.642   0.938
32747W        W 3347  34.536  32.518  13.812
32748W        W 3348   9.862  22.731   1.299
32749W        W 3349   8.258   7.349   0.497
32750W        W 3350   6.671  21.823   4.120
32751W        W 3351  39.297  42.754  14.985
32752W        W 3352  23.476  42.828   4.167
32753W        W 3353  37.604  18.574   3.159
32754W        W 3354   3.003  17.004   1.874
32755W        W 3355  15.203  22.299   3.241
32756W        W 3356   3.270  43.422   3.586
32757W        W 3357  33.111  41.335  10.289
32758W        W 3358   2.318  31.900   4.759
32759W        W 3359  14.267  27.130  14.441
32760W        W 3360  28.484  12.086  11.073
32761W        W 3361  35.865  28.174   3.248
32762W        W 3362  40.403   7.996  12.527
32763W        W 3363  13.281   5.935  14.812
32764W        W 3364  42.046   0.929   4.388
32765W        W 3365  20.109  36.574   0.023
32766W        W 3366  40.884  31.894   0.012
32767W        W 3367  31.917  39.512   1.164
32768W        W 3368   7.375  16.135   2.924
32769W        W 3369  22.036   2.858   4.657
32770W        W 3370  34.476  33.600  14.914
32771W        W 3371  10.812  24.701  11.524
32772W        W 3372  13.802  23.773  14.768
32773W        W 3373  26.423   9.804   2.533
32774W        W 3374  14.908  33.352  12.434
32775W        W 3375  24.220   1.008  14.779
32776W        W 3376  22.174  12.253  12.937
32777W        W 3377  15.335  38.615   0.945
32778W        W 3378  31.179  13.200   4.866
32779W        W 3379   3.750  16.219  12.381
32780W        W 3380  39.337  24.041   3.688
32781W        W 3381  38.437  15.729   2.882
32782W        W 3382   1.940   5.932  10.641
32783W        W 3383   0.923  43.017   4.918
32784W        W 3384  13.205  37.807  10.753
32785W        W 3385  25.063  41.495  13.399
32786W        W 3386  11.160  38.442   2.360
32787W        W 3387   4.486  42.321   1.790
32788W        W 3388   4.292  36.640  12.901
32789W        W 3389  33.391   8.232   2.113
32790W        W 3390  30.200  17.284   4.302
32791W        W 3391  32.387  10.905   1.281
32792W        W 3392  17.555  23.017  12.485
32793W        W 3393  15.224  36.299   3.133
32794W        W 3394  35.909  41.439  12.486
32795W        W 3395  17.145  27.947   2.332
32796W        W 3396  43.949  40.620   1.576
32797W        W 3397   5.422   7.287   3.966
32798W        W 3398  18.852  44.345  13.509
32799W        W 3399  11.547  42.352  10.478
32800W        W 3400  15.808   1.648  10.330
32801W        W 3401  13.237  18.551  13.536
32802W        W 3402   8.927  39.035  12.931
32803W        W 3403   4.649  20.227   3.261
32804W        W 3404   3.026  34.613  12.502
32805W        W 3405  20.222  26.379  14.060
32806W        W 3406   6.677  14.657  11.989
32807W        W 3407  32.208  23.277   2.169
32808W        W 3408  36.835  15.733   3.389
32809W        W 3409   7.865   4.467  13.339
32810W        W 3410  28.033  43.716  13.433
32811W        W 3411  26.266  37.293  12.086
32812W        W 3412  31.910  13.575  13.497
32813W        W 3413  36.345  40.372  10.726
32814W        W 3414  18.989  42.420   0.122
32815W        W 3415  14.189   3.243   3.046
32816W        W 3416  18.809   5.440  13.277
32817W        W 3417  22.680  29.482  12.373
32818W        W 3418  44.066  33.966   2.655
32819W        W 3419   7.749  30.008  14.593
32820W        W 3420   9.069   9.681   2.291
32821W        W 3421   9.266  28.611   3.535
32822W        W 3422  42.569  32.962  11.466
32823W        W 3423  28.212  31.481  14.537
32824W        W 3424  11.476  36.361   4.120
32825W        W 3425  15.085  43.062   2.723
32826W        W 3426  18.140  16.595  11.066
32827W        W 3427  24.134   6.986   3.641
32828W        W 3428  43.918  29.398   4.195
32829W        W 3429   5.310   3.966   3.748
32830W        W 3430  37.217  26.665   1.931
32831W        W 3431  41.504  36.205  13.798
32832W        W 3432  25.517   5.257   1.966
32833W        W 3433   8.002  44.766   3.848
32834W        W 3434  31.354  23.012   2.728
32835W        W 3435   6.213  10.835  14.187
32836W        W 3436  29.372  27.696  13.892
32837W        W 3437   7.297  10.906   3.761
32838W        W 3438  41.420  18.167   2.168
32839W        W 3439  19.680  32.501  14.404
32840W        W 3440  16.092  18.665  10.832
32841W        W 3441  43.681  23.200  12.066
32842W        W 3442  15.633  24.679  14.739
32843W        W 3443  32.013  23.681  11.941
32844W        W 3444  37.934  43.456   0.293
32845W        W 3445  36.470   4.737   4.328
32846W        W 3446  13.743   5.718   1.614
32847W        W 3447  11.915  36.291   4.916
32848W        W 3448   0.760  37.830   4.028
32849W        W 3449  42.850  31.084  10.620
32850W        W 3450  18.899  21.197  11.583
32851W        W 3451  40.121  16.227  14.389
32852W        W 3452   1.863  26.679  13.340
32853W        W 3453  42.405  23.106  14.043
32854W        W 3454   1.454   6.946  13.850
32855W        W 3455  23.800  34.755   1.882
32856W        W 3456  23.624  10.118  14.271
32857W        W 3457  30.614  16.683  13.995
32858W        W 3458  11.676  15.482  11.223
32859W        W 3459   6.805  21.899   2.371
32860W        W 3460   0.940  20.233   4.829
32861W        W 3461   7.673  35.359   0.951
32862W        W 3462  19.060  37.068   3.681
32863W        W 3463  40.888  32.080  13.043
32864W        W 3464  12.296  10.359   3.530
32865W        W 3465  20.155  13.238  14.484
32866W        W 3466   3.845  25.660  12.107
32867W        W 3467  21.911  31.009  12.889
32868W        W 3468  41.385  21.139   3.308
32869W        W 3469  38.038  30.855   4.614
32870W        W 3470  38.919  34.677   5.067
32871W        W 3471  37.113  24.492  13.035
32872W        W 3472  32.021   4.856   9.938
32873W        W 3473  16.140  19.587  14.465
32874W        W 3474  18.106  26.441  13.417
32875W        W 3475  15.378  18.667  10.208
32876W        W 3476  30.593  28.214   1.793
32877W        W 3477   1.408  41.016   0.772
32878W        W 3478  43.782  42.345  14.862
32879W        W 3479  38.798  41.871  11.123
32880W        W 3480  13.843  30.517   3.879
32881W        W 3481  15.198  36.950   1.694
32882W        W 3482   8.993  14.372   0.378
32883W        W 3483  32.158   8.795  12.321
32884W        W 3484  14.013  25.257  11.150
32885W        W 3485  44.245  10.786   0.407
32886W        W 3486   9.870  43.773   4.546
32887W        W 3487  26.662  21.702   4.941
32888W        W 3488  22.156  27.910   0.225
32889W        W 3489   9.523  19.150  12.282
32890W        W 3490  35.359  18.359   4.192
32891W        W 3491  44.579  21.774  10.512
32892W        W 3492  28.033  19.868   1.611
32893W        W 3493  37.015  37.437   2.737
32894W        W 3494  11.413  18.264   1.926
32895W        W 3495  27.684  22.036   2.414
32896W        W 3496  11.744  25.432   2.786
32897W        W 3497  26.105  16.370  12.495
32898W        W 3498  33.417  32.091  13.729
32899W        W 3499   4.065  25.074  11.477
32900W        W 3500  10.110   4.025   0.608
32901W        W 3501   0.735   7.414   1.108
32902W        W 3502  13.766  30.731  12.608
32903W        W 3503  33.433  12.583  12.040
32904W        W 3504  13.582  35.067   1.307
32905W        W 3505   1.207  22.157   0.936
32906W        W 3506  22.996  31.573   2.373
32907W        W 3507   7.200   7.422   4.271
32908W        W 3508  20.190   4.025  12.050
32909W        W 3509  19.071  36.506  14.020
32910W        W 3510  14.319  10.386  11.210
32911W        W 3511  15.186  23.273  10.641
32912W        W 3512  10.161   1.505  14.819
32913W        W 3513  32.241  14.197   4.280
32914W        W 3514   3.280   3.380  11.897
32915W        W 3515  10.685  18.178  12.866
32916W        W 3516  34.117  36.065  13.503
32917W        W 3517  15.601   7.450   2.865
32918W        W 3518  40.302  12.112   2.875
32919W        W 3519  10.585  14.121   5.230
32920W        W 3520  33.925  39.873   5.015
32921W        W 3521  14.855   8.886   1.160
32922W        W 3522   7.090  19.680  12.078
32923W        W 3523  16.756  15.194   5.388
32924W        W 3524   2.902  24.763  12.176
32925W        W 3525  16.018  24.621   0.591
32926W        W 3526  13.635   2.064  13.938
32927W        W 3527  14.424  18.625   0.327
32928W        W 3528  28.682   9.202  11.140
32929W        W 3529  43.505  43.968   2.767
32930W        W 3530  40.394  33.966   2.839
32931W        W 3531   7.378  11.447  14.675
32932W        W 3532  29.448  10.923   2.752
32933W        W 3533  31.044  36.719   1.357
32934W        W 3534  44.833  39.119   1.747
32935W        W 3535  25.182  33.821  11.928
32936W        W 3536  44.758  15.328  13.833
32937W        W 3537  39.762   2.072  13.565
32938W        W 3538   0.657  33.538   3.594
32939W        W 3539   5.978  14.817   2.327
32940W        W 3540  31.501  44.017  14.915
32941W        W 3541  38.575  14.761   2.895
32942W        W 3542  22.156  18.763   3.530
32943W        W 3543   4.036  14.565   0.487
32944W        W 3544   3.860   5.287   3.512
32945W        W 3545  23.153   1.802  10.332
32946W        W 3546  37.359  23.089  12.975
32947W        W 3547  26.003  35.100  12.296
32948W        W 3548  16.349  28.197   3.327
32949W        W 3549  34.049  20.164   4.360
32950W        W 3550   3.598  12.370  10.984
32951W        W 3551   4.852  39.263   1.128
32952W        W 3552  15.601   9.477  12.455
32953W        W 3553  36.059  41.405   3.686
32954W        W 3554   1.682  10.363   2.883
32955W        W 3555   4.457   2.441   5.116
32956W        W 3556   7.817  12.358   0.362
32957W        W 3557  18.723  10.803   2.733
32958W        W 3558  39.447  44.421   2.301
32959W        W 3559   6.356   7.775   2.098
32960W        W 3560  27.687  17.455   0.373
32961W        W 3561  20.061  41.569  11.560
32962W        W 3562   6.116  41.791   2.705
32963W        W 3563   0.702  33.183   0.980
32964W        W 3564  25.210  10.493  13.870
32965W        W 3565  42.583  11.231  11.650
32966W        W 3566  36.597  20.131   2.783
32967W        W 3567  21.719  17.876   4.160
32968W        W 3568  31.058  40.233  14.559
32969W        W 3569  23.767   4.719   3.451
32970W        W 3570   0.342  43.746   0.122
32971W        W 3571  16.567   6.221  10.652
32972W        W 3572  10.424  18.786  13.503
32973W        W 3573  38.345   4.579  12.970
32974W        W 3574  24.548  42.514   1.604
32975W        W 3575   3.679  13.685  13.087
32976W        W 3576  14.034   8.543  13.936
32977W        W 3577   8.223  30.459   1.343
32978W        W 3578  23.640  12.824   1.709
32979W        W 3579   2.754  33.638  12.703
32980W        W 3580  26.804   8.290  12.545
32981W        W 3581  37.709  27.252  10.788
32982W        W 3582  40.445  32.520   0.457
32983W        W 3583  17.755  43.374   1.787
32984W        W 3584  19.674  32.486   4.627
32985W        W 3585  21.219   3.327   3.635
32986W        W 3586  13.094  21.753  10.754
32987W        W 3587  16.233  21.258  10.465
32988W        W 3588   3.435  43.809  11.972
32989W        W 3589   1.241  40.379   2.794
32990W        W 3590  11.699  25.225   9.883
32991W        W 3591  35.003  39.578   1.255
32992W        W 3592  39.816  37.785   3.169
32993W        W 3593  13.602   9.101   2.404
32994W        W 3594  15.182   5.920   4.632
32995W        W 3595   7.314  32.458  14.864
32996W        W 3596  18.177  35.561  12.377
32997W        W 3597   6.305  37.203   9.948
32998W        W 3598  40.454   2.429   0.833
32999W        W 3599   0.290  42.679   2.842
33000W        W 3600  24.464  35.034  10.689
33001W        W 3601   6.743  35.166  14.871
33002W        W 3602  18.556  33.720  10.993
33003W        W 3603   9.942  13.154   2.180
33004W        W 3604   8.310   2.776  12.373
33005W        W 3605  19.463   5.879   3.169
33006W        W 3606  33.560  35.453   0.331
33007W        W 3607  38.832  18.118  12.159
33008W        W 3608   1.933   1.244   3.737
33009W        W 3609   4.746   7.159  10.759
33010W        W 3610  20.200  15.776  13.882
33011W        W 3611  43.258  39.438   0.322
33012W        W 3612  36.054  23.908  12.428
33013W        W 3613   1.820  10.923   2.252
33014W        W 3614  23.765   9.320  12.452
33015W        W 3615  15.637  22.606   1.960
33016W        W 3616   9.162  20.588   2.217
33017W        W 3617   7.638  14.997  11.220
33018W        W 3618  14.170  35.043   0.417
33019W        W 3619  23.643  27.239   1.401
33020W        W 3620  12.020  10.123  11.968
33021W        W 3621   0.045  42.396   4.102
33022W        W 3622   6.297   6.970  13.520
33023W        W 3623  36.595  31.213  13.044
33024W        W 3624   8.701  40.069  10.642
33025W        W 3625  10.423  14.546  12.545
33026W        W 3626   0.244  10.337   2.690
33027W        W 3627  26.709   1.913   3.891
33028W        W 3628   3.880  23.736   2.209
33029W        W 3629  12.228   1.360  14.367
33030W        W 3630   1.688   7.158   3.305
33031W        W 3631  22.778  11.759  10.348
33032W        W 3632   5.686  41.946   0.500
33033W        W 3633  32.287  41.581  10.686
33034W        W 3634  27.882   8.628  14.767
33035W        W 3635  43.475   5.001  12.449
33036W        W 3636   4.522  37.397  11.607
33037W        W 3637  11.393  34.531   2.465
33038W        W 3638  18.493  36.540   4.119
33039W        W 3639  42.020  25.612   1.404
33040W        W 3640  23.172  26.791  13.491
33041W        W 3641  22.945   5.761  12.437
33042W        W 3642  34.480  27.434  14.495
33043W        W 3643  39.064  33.621   0.846
33044W        W 3644  37.862  10.758  10.832
33045W        W 3645  39.319  14.343  14.649
33046W        W 3646   8.632   6.331  13.568
33047W        W 3647   5.670  31.504  14.973
33048W        W 3648  27.300  33.911  13.426
33049W        W 3649  21.052  24.954   3.225
33050W        W 3650  20.517  16.764  13.791
33051W        W 3651  29.053  41.444   3.068
33052W        W 3652  32.464  16.610   2.048
33053W        W 3653   3.817  22.636  14.818
33054W        W 3654  37.829  14.309   0.767
33055W        W 3655  34.445  39.756   3.488
33056W        W 3656  12.380  35.391  11.961
33057W        W 3657   4.495  37.997  12.897
33058W        W 3658  44.893  14.898  11.190
33059W        W 3659  19.202  39.520   3.822
33060W        W 3660  42.719  14.479   3.286
33061W        W 3661  29.877  11.856  13.833
33062W        W 3662   1.947  35.590  11.387
33063W        W 3663  26.040  18.788   2.594
33064W        W 3664   8.006   9.842   3.211
33065W        W 3665  34.057  14.210  12.152
33066W        W 3666  10.162  30.585   5.016
33067W        W 3667  15.434  42.392   0.014
33068W        W 3668  39.754  23.619  13.529
33069W        W 3669  35.370  40.047   4.676
33070W        W 3670  32.447  23.097  11.384
33071W        W 3671  28.129  41.057   1.156
33072W        W 3672  11.649  37.919   3.964
33073W        W 3673   2.691  22.195  14.752
33074W        W 3674  34.529  43.893   4.239
33075W        W 3675  33.836  35.985   0.901
33076W        W 3676  29.931   9.074   1.274
33077W        W 3677   3.383  34.970   1.018
33078W        W 3678  23.499  44.415  14.457
33079W        W 3679  19.931  13.104  12.825
33080W        W 3680  19.303  42.478   4.107
33081W        W 3681  13.887  33.475  14.515
33082W        W 3682   5.331  31.680   0.980
33083W        W 3683  17.217   0.411  13.086
33084W        W 3684  41.399  14.409   0.884
33085W        W 3685  13.035  23.364   0.351
33086W        W 3686  35.086   0.553  11.693
33087W        W 3687  37.126  39.372  13.388
33088W        W 3688  23.179   3.696  10.692
33089W        W 3689  35.499  25.553  14.196
33090W        W 3690   7.307  39.879   4.476
33091W        W 3691   0.203  19.300  11.381
33092W        W 3692  18.736  32.335  12.061
33093W        W 3693  34.702   3.332  14.485
33094W        W 3694  10.661  43.454  12.883
33095W        W 3695  10.613  25.564   1.518
33096W        W 3696   9.365  21.031  10.759
33097W        W 3697  34.089  18.475  13.606
33098W        W 3698   3.920  14.646   1.389
33099W        W 3699  40.614  10.380   1.056
33100W        W 3700  36.813  32.214  14.061
33101W        W 3701  33.109  35.368   3.192
33102W        W 3702  21.269   4.940  11.469
33103W        W 3703   5.884  44.464  12.277
33104W        W 3704   6.209  29.108  11.602
33105W        W 3705  11.636  21.575  13.494
33106W        W 3706   9.280  12.375   0.758
33107W        W 3707  44.316   8.868   1.985
33108W        W 3708  36.921  36.774   3.315
33109W        W 3709   4.727  10.173   1.748
33110W        W 3710  44.610   1.097   5.086
33111W        W 3711  35.410  36.156   3.614
33112W        W 3712  40.080  27.342  11.061
33113W        W 3713  42.587  15.276  14.856
33114W        W 3714   0.750  43.262  13.510
33115W        W 3715  33.332  32.465   2.774
33116W        W 3716  28.740  19.531   4.954
33117W        W 3717   7.023   2.352   1.270
33118W        W 3718  38.965   5.962   1.910
33119W        W 3719   0.279  32.100   3.187
33120W        W 3720  15.540  44.041  11.216
33121W        W 3721  22.209   1.049  11.995
33122W        W 3722   1.765   4.495  13.110
33123W        W 3723  14.529  12.218   2.314
33124W        W 3724  25.036  42.691  11.086
33125W        W 3725   3.694  27.981   1.974
33126W        W 3726   6.283  15.168  14.930
33127W        W 3727  36.778  27.488  11.855
33128W        W 3728  13.247  13.663   4.757
33129W        W 3729  14.390  40.601  13.906
33130W        W 3730  18.631  22.406  12.921
33131W        W 3731  28.578  22.556  14.322
33132W        W 3732   3.086  36.028   0.750
33133W        W 3733  36.938  39.890  13.412
33134W        W 3734  41.295  11.530   2.411
33135W        W 3735   5.226  13.739  10.515
33136W        W 3736  17.848  38.957   4.204
33137W        W 3737  30.518  20.980  12.871
33138W        W 3738  35.118   9.665   2.869
33139W        W 3739  36.375   4.956  13.874
33140W        W 3740  35.627  29.053  13.546
33141W        W 3741  24.708  20.602  10.412
33142W        W 3742   8.058   3.836  11.043
33143W        W 3743  13.785  37.108  10.722
33144W        W 3744  15.611  16.690  10.550
33145W        W 3745  12.814  36.280   5.107
33146W        W 3746  19.351  35.050  11.947
33147W        W 3747  16.865  30.646   2.895
33148W        W 3748  39.977  37.213  13.828
33149W        W 3749   6.878  33.018  10.732
33150W        W 3750  11.277  29.958  13.853
33151W        W 3751   6.150   8.522   3.792
33152W        W 3752   8.530  11.476   3.614
33153W        W 3753  31.986  24.046   4.091
33154W        W 3754   5.419  33.459   0.030
33155W        W 3755  11.329  44.468  14.420
33156W        W 3756   2.900  38.843  11.086
33157W        W 3757   0.926   4.344   0.785
33158W        W 3758   8.853  25.683  10.710
33159W        W 3759   9.185  40.219   2.831
33160W        W 3760  15.098  20.076   3.364
33161W        W 3761  26.236  11.252   0.281
33162W        W 3762  20.798  14.168  13.426
33163W        W 3763  32.688  40.457   0.785
33164W        W 3764  17.763   0.459  10.855
33165W        W 3765  19.536   6.791  10.744
33166W        W 3766  38.224  11.507  13.984
33167W        W 3767  22.717   2.925   3.517
33168W        W 3768  18.175  23.245  11.617
33169W        W 3769  43.926  40.141  13.839
33170W        W 3770  33.730   5.664  10.884
33171W        W 3771   8.992  34.778   4.126
33172W        W 3772  30.062  21.007   0.304
33173W        W 3773  35.808  16.280  14.549
33174W        W 3774   1.432  32.478   0.845
33175W        W 3775  34.649  37.946  14.616
33176W        W 3776  35.064   1.838   1.824
33177W        W 3777  24.237  29.867   3.135
33178W        W 3778   2.733  11.106   4.439
33179W        W 3779  38.861  16.687  10.941
33180W        W 3780  17.103   4.397  14.600
33181W        W 3781  27.299  34.100  14.454
33182W        W 3782   5.363  17.215   3.166
33183W        W 3783  13.707  39.617  11.410
33184W        W 3784  16.845  22.889   0.430
33185W        W 3785  43.187  19.855   0.735
33186W        W 3786  10.765  33.994   4.152
33187W        W 3787  26.160   9.813  14.502
33188W        W 3788  19.335  42.694  14.728
33189W        W 3789  38.989  33.045  13.465
33190W        W 3790   4.644  40.936  12.600
33191W        W 3791  21.839   5.226  14.826
33192W        W 3792   2.230  33.616   0.545
33193W        W 3793  18.988  37.755   2.870
33194W        W 3794  37.343  25.640  14.314
33195W        W 3795  24.812  13.141   2.627
33196W        W 3796  15.172   5.169   4.134
33197W        W 3797  29.915  44.457   3.572
33198W        W 3798  44.749  12.245  10.737
33199W        W 3799  16.054   4.366  13.554
33200W        W 3800  16.338  19.168   3.285
33201W        W 3801  29.460   0.356   3.851
33202W        W 3802  12.617  14.734   3.076
33203W        W 3803  42.926  30.390  13.400
33204W        W 3804  27.461  29.982   4.704
33205W        W 3805  11.613  15.569   3.277
33206W        W 3806  10.487  43.329   1.375
33207W        W 3807  31.748   3.947   2.318
33208W        W 3808  44.451  20.575   3.664
33209W        W 3809  15.243   4.825   1.238
33210W        W 3810  26.551  38.524  11.553
33211W        W 3811   0.305  16.288  12.816
33212W        W 3812  36.194  44.203  11.024
33213W        W 3813  39.015  19.003   0.772
33214W        W 3814  12.420  42.523   2.359
33215W        W 3815  16.328   2.789   1.681
33216W        W 3816   0.304  18.653  12.047
33217W        W 3817  13.578  16.593  11.630
33218W        W 3818  41.020  11.858  11.003
33219W        W 3819   9.308   0.792   4.520
33220W        W 3820  29.676   2.402   2.391
33221W        W 3821  20.826  16.150   0.337
33222W        W 3822  30.438  38.108   0.432
33223W        W 3823  23.725  42.399  14.314
33224W        W 3824   3.932  35.271   2.806
33225W        W 3825  35.372   6.287  10.592
33226W        W 3826  43.575  39.445   3.042
33227W        W 3827  31.060  38.025  10.634
33228W        W 3828  22.786  34.512   3.909
33229W        W 3829  34.915  36.580   4.150
33230W        W 3830  25.611  27.001   3.212
33231W        W 3831  29.418  13.036  10.583
33232W        W 3832  44.387  23.305  13.991
33233W        W 3833  29.227  36.048   3.661
33234W        W 3834   5.537  11.860   1.665
33235W        W 3835  26.237  11.599   1.746
33236W        W 3836  17.307  17.629  11.689
33237W        W 3837  44.884   6.911  11.618
33238W        W 3838  38.120  28.093   9.979
33239W        W 3839   9.794  31.574   1.795
33240W        W 3840   9.998  38.031  14.814
33241W        W 3841  10.249  44.400   3.541
33242W        W 3842  26.425  43.132  14.812
33243W        W 3843  32.969  21.967  10.430
33244W        W 3844   1.669  34.779  14.751
33245W        W 3845   3.187  31.459   0.777
33246W        W 3846  25.705  21.939   2.248
33247W        W 3847  39.840  43.985   1.175
33248W        W 3848  43.856  20.031   4.100
33249W        W 3849  41.046  30.189   3.312
33250W        W 3850  28.935  18.294  13.117
33251W        W 3851  26.148  40.304  11.222
33252W        W 3852  35.196  28.164  14.274
33253W        W 3853  43.133  11.675   1.328
33254W        W 3854  39.517  12.369   3.611
33255W        W 3855  41.364  11.149  14.230
33256W        W 3856  12.777  12.653  13.041
33257W        W 3857  36.156  33.942  13.280
33258W        W 3858  13.447  21.189   3.144
33259W        W 3859  10.260  43.903  14.680
33260W        W 3860  10.236  33.790   4.155
33261W        W 3861  20.056  31.621  14.189
33262W        W 3862   4.727  22.026  10.663
33263W        W 3863  41.218   8.751  12.311
33264W        W 3864   3.249  24.175  11.986
33265W        W 3865  33.618  33.586  13.059
33266W        W 3866  22.244  43.809   2.300
33267W        W 3867   8.383   4.786  14.777
33268W        W 3868  11.804  22.616   0.889
33269W        W 3869  40.438   7.325  13.350
33270W        W 3870  17.665  15.320  11.607
33271W        W 3871   2.153  36.610  12.015
33272W        W 3872  25.203  30.832  11.185
33273W        W 3873  29.398   0.198  13.523
33274W        W 3874  40.043  26.444  14.482
33275W        W 3875  34.912  38.983  13.694
33276W        W 3876  26.920  10.862   4.841
33277W        W 3877  17.168  19.776  10.610
33278W        W 3878   9.163   0.855  14.359
33279W        W 3879  21.966   5.713   3.194
33280W        W 3880  37.891  25.717   3.760
33281W        W 3881  10.207  22.278   4.194
33282W        W 3882  21.211  27.604   0.472
33283W        W 3883  13.302  40.662  14.510
33284W        W 3884  42.769   6.445   0.485
33285W        W 3885  13.602   8.266   4.300
33286W        W 3886   1.818  40.439   3.870
33287W        W 3887  31.116  40.317   0.068
33288W        W 3888  13.084   3.710   0.448
33289W        W 3889  11.336   9.424   4.494
33290W        W 3890  37.123  43.900  13.941
33291W        W 3891   2.121   9.132  13.619
33292W        W 3892  38.876  21.053   2.654
33293W        W 3893  40.040   1.192   3.640
33294W        W 3894  38.286  10.745   3.823
33295W        W 3895  29.408   9.173  11.609
33296W        W 3896  14.630  27.901   1.160
33297W        W 3897   8.893  21.112   0.929
33298W        W 3898  42.025  29.386  10.030
33299W        W 3899  26.707  36.050  12.930
33300W        W 3900   1.389  23.794   3.712
33301W        W 3901  12.162  26.465  12.017
33302W        W 3902  24.198  40.818  13.984
33303W        W 3903   6.390  33.830  12.691
33304W        W 3904   2.523  44.553   3.906
33305W        W 3905  35.213   5.669   1.293
33306W        W 3906  37.954  11.172   0.228
33307W        W 3907  11.804  24.556  14.795
33308W        W 3908   9.688  24.068  12.245
33309W        W 3909  36.644  26.165   3.614
33310W        W 3910  34.519  14.412  14.852
33311W        W 3911  14.502  18.918   0.771
33312W        W 3912  33.934  42.337   0.826
33313W        W 3913  11.847  34.323  13.031
33314W        W 3914   7.427   6.452  13.737
33315W        W 3915   4.689  18.288   4.962
33316W        W 3916  21.507   7.526  13.338
33317W        W 3917   7.169  15.575  14.697
33318W        W 3918  36.615  27.073   2.183
33319W        W 3919  42.518  15.271   0.800
33320W        W 3920  30.541  42.467  11.209
33321W        W 3921  18.428  35.854  11.571
33322W        W 3922  24.625  16.330  13.408
33323W        W 3923  33.365   0.579  11.607
33324W        W 3924  26.238  23.246   1.369
33325W        W 3925  16.992  34.338  14.253
33326W        W 3926  15.491   5.158  10.613
33327W        W 3927  10.203  36.937   2.647
33328W        W 3928  19.603   5.086   1.174
33329W        W 3929   6.230  41.895  11.808
33330W        W 3930  36.463  41.595   4.018
33331W        W 3931   6.351  11.343   4.152
33332W        W 3932  27.386   8.077   3.191
33333W        W 3933  33.393   7.359   2.862
33334W        W 3934   7.344  18.218  14.891
33335W        W 3935  15.530  42.893  12.462
33336W        W 3936  24.634  24.580  11.106
33337W        W 3937   9.134  14.811  11.878
33338W        W 3938   2.718  16.227   2.240
33339W        W 3939  41.480  14.552   2.162
33340W        W 3940   3.292  35.234  12.031
33341W        W 3941  33.521  10.641  12.511
33342W        W 3942  10.104  24.224   2.660
33343W        W 3943  18.990  21.870   2.703
33344W        W 3944   3.433  23.026  13.608
33345W        W 3945  26.093  44.312   1.249
33346W        W 3946  41.881  16.367  14.687
33347W        W 3947  28.800  41.561  12.957
33348W        W 3948   5.083  16.679  10.030
33349W        W 3949  14.575  19.784  11.696
33350W        W 3950   7.673  35.515  14.519
33351W        W 3951   3.827  10.788  12.433
33352W        W 3952  43.446   9.866  11.637
33353W        W 3953  41.413  29.433  13.054
33354W        W 3954  31.684   0.592   0.027
33355W        W 3955  28.212  24.483  11.647
33356W        W 3956  32.407   1.300   0.940
33357W        W 3957  33.438  42.498  10.453
33358W        W 3958  23.488  21.853  14.525
33359W        W 3959  29.489  18.671  12.089
33360W        W 3960   7.413  32.530  13.355
33361W        W 3961   2.756  31.673   4.561
33362W        W 3962   1.728   0.736   1.867
33363W        W 3963  16.339  41.616  11.994
33364W        W 3964  30.563  26.683   1.928
33365W        W 3965  10.019  43.496  11.599
33366W        W 3966   0.310  19.845  13.407
33367W        W 3967   6.291  25.978  14.019
33368W        W 3968   6.308   2.324  13.804
33369W        W 3969  35.643   1.362  12.071
33370W        W 3970  27.045  25.686  11.604
33371W        W 3971  24.217  32.188   3.386
33372W        W 3972  42.414  30.460   4.612
33373W        W 3973  12.984  14.146  12.060
33374W        W 3974  33.476  18.721   0.312
33375W        W 3975  39.935   8.376   1.942
33376W        W 3976   9.105  20.127  14.347
33377W        W 3977  37.334  33.346  14.354
33378W        W 3978   2.994  44.491   1.482
33379W        W 3979  42.873  22.207  14.875
33380W        W 3980  30.846  44.179  14.339
33381W        W 3981  19.459  24.483  10.644
33382W        W 3982   4.847   3.379   4.153
33383W        W 3983  17.090   1.444   2.274
33384W        W 3984  38.570  33.322  12.967
33385W        W 3985  26.788   0.715  12.472
33386W        W 3986  28.594  21.174  14.354
33387W        W 3987  40.316  27.649   3.223
33388W        W 3988  23.801  11.282  13.361
33389W        W 3989   9.330  25.078  13.088
33390W        W 3990  30.129   9.084   4.478
33391W        W 3991  43.899   4.625  13.009
33392W        W 3992  26.071   2.400   0.590
33393W        W 3993   1.308   2.511   3.296
33394W        W 3994  23.621  28.198  12.117
33395W        W 3995  35.469  37.382  14.725
33396W        W 3996  19.804  11.724   2.832
33397W        W 3997  31.532   6.683   2.949
33398W        W 3998  17.156   9.192   4.534
33399W        W 3999   0.440  19.426   1.332
33400W        W 4000   7.601   7.710   3.385
33401W        W 4001  36.045  41.259   4.826
33402W        W 4002  31.813  15.150  11.987
33403W        W 4003  41.778  10.161   4.659
33404W        W 4004  20.581   0.235   1.336
33405W        W 4005  18.182  35.613   4.511
33406W        W 4006  40.467  18.660   3.925
33407W        W 4007  15.337   8.767  12.468
33408W        W 4008  28.131  35.886  11.267
33409W        W 4009  12.439  16.680   2.132
33410W        W 4010   1.337  27.462  11.924
33411W        W 4011  31.513   5.186  13.997
33412W        W 4012   9.296   9.207  13.041
33413W        W 4013   0.679   6.222  13.723
33414W        W 4014  21.887   3.353   3.154
33415W        W 4015   0.956   4.081  11.253
33416W        W 4016   9.841   5.353   0.959
33417W        W 4017  20.747  19.316   1.317
33418W        W 4018  34.817  38.800   4.979
33419W        W 4019  42.489  42.504   1.357
33420W        W 4020  10.826  35.999  10.678
33421W        W 4021  24.173   5.544  10.294
33422W        W 4022  26.321   1.779  13.043
33423W        W 4023   0.853  11.317  13.692
33424W        W 4024  17.275   9.909  11.615
33425W        W 4025  20.063  21.810  14.367
33426W        W 4026  14.717  23.057  10.803
33427W        W 4027  18.805  12.374  13.408
33428W        W 4028  39.401   1.507   0.375
33429W        W 4029  31.165  31.016  11.099
33430W        W 4030   2.305  28.905  12.434
33431W        W 4031  38.414  42.422  13.262
33432W        W 4032   9.206  18.735   3.208
33433W        W 4033  31.949  22.221  14.435
33434W        W 4034  23.846  25.320  11.004
33435W        W 4035  15.665  23.572   1.032
33436W        W 4036  17.521  20.221  12.978
33437W        W 4037  10.017  41.289   2.358
33438W        W 4038  26.453  32.663  11.141
33439W        W 4039  14.034   1.957  10.769
33440W        W 4040  44.493  15.325  14.896
33441W        W 4041   8.975  17.742   3.216
33442W        W 4042  35.859  37.590  11.649
33443W        W 4043  17.340   9.124   0.341
33444W        W 4044  18.561  21.342  12.449
33445W        W 4045  35.340   3.152  12.049
33446W        W 4046  28.980  40.457  13.725
33447W        W 4047  37.081   7.299  14.311
33448W        W 4048  25.627  16.331   4.980
33449W        W 4049  31.864   2.789  13.234
33450W        W 4050   4.472  21.110  13.861
33451W        W 4051  10.233  41.096   4.625
33452W        W 4052  35.410  15.685   2.740
33453W        W 4053   8.854   1.530  12.441
33454W        W 4054   7.385  14.870   1.347
33455W        W 4055  41.046  28.189   2.902
33456W        W 4056  15.125  10.877   4.500
33457W        W 4057  38.895  12.258   3.184
33458W        W 4058  20.580  30.535  12.163
33459W        W 4059  10.592   8.264  14.976
33460W        W 4060  33.995  37.314   1.244
33461W        W 4061  43.397  39.576  14.512
33462W        W 4062  28.454  23.031  12.077
33463W        W 4063  17.513  24.008  14.885
33464W        W 4064  39.321  30.736  13.478
33465W        W 4065  33.628  15.349  10.680
33466W        W 4066  15.822   5.463  13.933
33467W        W 4067   2.492  17.292   4.143
33468W        W 4068  20.652  21.296   0.917
33469W        W 4069   3.766  10.326  14.330
33470W        W 4070  30.489  36.890  14.792
33471W        W 4071   5.327  43.937   0.808
33472W        W 4072   3.156  25.045  13.997
33473W        W 4073  30.856  19.633  10.901
33474W        W 4074  17.310  40.852  14.083
33475W        W 4075  34.000  20.793   0.056
33476W        W 4076  43.835  41.601  13.902
33477W        W 4077   5.440  23.244   3.179
33478W        W 4078  14.322  26.752   3.181
33479W        W 4079  14.658   3.133   3.270
33480W        W 4080   5.278  41.701  12.974
33481W        W 4081  38.481  28.465   0.866
33482W        W 4082  44.525  16.838  12.982
33483W        W 4083  19.005  29.099  12.130
33484W        W 4084   8.769  42.384   2.309
33485W        W 4085  15.081  35.985  14.400
33486W        W 4086   3.615  35.683   2.657
33487W        W 4087  40.491   3.347  14.272
33488W        W 4088  44.958   9.878  10.401
33489W        W 4089  39.946   9.718   0.470
33490W        W 4090  37.037   0.401   2.253
33491W        W 4091  33.127  21.216  13.731
33492W        W 4092   2.518   2.326   3.689
33493W        W 4093  27.062  12.045   0.778
33494W        W 4094  16.772  34.851   3.157
33495W        W 4095  40.801   7.721   1.278
33496W        W 4096  12.106  25.916   0.636
33497W        W 4097  20.248  11.148  13.024
33498W        W 4098   7.214  27.552   0.247
33499W        W 4099  44.345  33.566   3.675
33500W        W 4100  16.536   6.745   2.180
33501W        W 4101  26.129  29.605   3.816
33502W        W 4102  37.955  38.533  14.810
33503W        W 4103  18.561  14.451  10.456
33504W        W 4104  26.032  10.885   4.599
33505W        W 4105  32.998  13.400   1.695
33506W        W 4106  32.398  13.205  12.040
33507W        W 4107  24.075  23.888  11.910
33508W        W 4108  21.537  21.247  12.021
33509W        W 4109   2.346  43.259  10.825
33510W        W 4110   5.526  36.625  14.327
33511W        W 4111  10.606  30.526  12.870
33512W        W 4112   0.110   5.327   2.810
33513W        W 4113  24.449  41.019  14.999
33514W        W 4114  25.236  33.725   0.743
33515W        W 4115  42.342  44.497  13.881
33516W        W 4116  35.963  24.450  11.065
33517W        W 4117  28.091  39.397   1.193
33518W        W 4118  13.734  17.992  11.611
33519W        W 4119  37.234  25.080   1.748
33520W        W 4120  31.934   2.982   2.756
33521W        W 4121  38.623   4.850   2.732
33522W        W 4122  41.328  39.087  11.400
33523W        W 4123  38.311  14.191  12.835
33524W        W 4124  15.102  28.772   4.159
33525W        W 4125  33.233  39.707   0.840
33526W        W 4126  27.504  34.544  12.980
33527W        W 4127  27.175   2.708  14.509
33528W        W 4128  18.123  31.073  10.565
33529W        W 4129  13.815  44.554   4.181
33530W        W 4130  24.520  36.890   4.356
33531W        W 4131   9.220  28.712   1.723
33532W        W 4132  31.350  21.883  13.900
33533W        W 4133  14.541  42.968   4.191
33534W        W 4134  32.923  18.886  14.432
33535W        W 4135   1.025  29.605  12.753
33536W        W 4136  41.018  25.677   3.809
33537W        W 4137   4.277  38.712   1.935
33538W        W 4138  20.142   5.945   4.700
33539W        W 4139   4.401  17.269  12.049
33540W        W 4140  15.698  30.640  14.504
33541W        W 4141  12.241  40.747   3.049
33542W        W 4142   8.672  33.249   5.077
33543W        W 4143   6.205  42.384  11.651
33544W        W 4144   6.928  29.496  10.550
33545W        W 4145  40.179  38.547  13.937
33546W        W 4146   1.464  26.627   3.068
33547W        W 4147   8.080   8.246   0.992
33548W        W 4148  24.059  19.791  14.843
33549W        W 4149  36.646  39.207  13.404
33550W        W 4150  34.132  10.327  14.379
33551W        W 4151  41.398  40.562  14.745
33552W        W 4152  38.695  23.643  13.955
33553W        W 4153  17.405  22.217  13.976
33554W        W 4154   4.464  37.012  12.010
33555W        W 4155  40.802  26.519  12.918
33556W        W 4156  23.654   4.650   2.954
33557W        W 4157  28.157  43.534   1.336
33558W        W 4158  39.265  16.849   1.884
33559W        W 4159  42.426  19.234  14.533
33560W        W 4160  27.429  13.644  12.406
33561W        W 4161  22.377  10.003   0.761
33562W        W 4162  34.476  18.807   1.295
33563W        W 4163  38.751  10.634  13.227
33564W        W 4164  22.720  37.926  12.841
33565W        W 4165  22.689  30.148   1.144
33566W        W 4166  44.775  15.101  12.105
33567W        W 4167  39.347  42.383   3.305
33568W        W 4168  15.155  42.070  13.884
33569W        W 4169  30.118  16.613  12.817
33570W        W 4170  10.320   3.556  14.040
33571W        W 4171  41.152  38.885   0.609
33572W        W 4172   6.025  36.523  10.699
33573W        W 4173  33.517  21.674  12.119
33574W        W 4174  20.475  28.901  11.443
33575W        W 4175  35.316  35.217   0.920
33576W        W 4176  34.093  39.365  14.881
33577W        W 4177  43.994  35.117   1.490
33578W        W 4178  12.465  29.112  14.088
33579W        W 4179  17.826  31.427  13.360
33580W        W 4180  22.585  42.274  14.833
33581W        W 4181  41.410  32.986   2.754
33582W        W 4182  43.520  41.520   3.740
33583W        W 4183  17.185  41.840   4.564
33584W        W 4184   6.832   4.207  13.506
33585W        W 4185  38.373   0.493   0.549
33586W        W 4186  32.568   7.909  13.245
33587W        W 4187  10.148  43.508   0.384
33588W        W 4188  22.290  16.306   1.765
33589W        W 4189  13.551  28.444  12.389
33590W        W 4190   1.311  39.237  12.570
33591W        W 4191  42.514   8.280  11.186
33592W        W 4192  18.708   6.418   1.318
33593W        W 4193  12.691  18.827   2.931
33594W        W 4194  33.684  26.272  13.356
33595W        W 4195   4.455  10.021  11.015
33596W        W 4196   2.367  30.195   4.965
33597W        W 4197  37.653  23.624  13.829
33598W        W 4198  13.356   3.456   4.079
33599W        W 4199  30.346  41.092  12.496
33600W        W 4200  16.313  27.581  14.999
33601W        W 4201  20.495  13.159  11.171
33602W        W 4202  40.032  22.852  12.153
33603W        W 4203  37.091  17.791   3.234
33604W        W 4204  17.611  27.543   3.390
33605W        W 4205   8.420  42.654   0.380
33606W        W 4206  37.288  10.921   4.564
33607W        W 4207  28.033   1.823   0.725
33608W        W 4208  44.502  11.861  10.486
33609W        W 4209  21.675  29.473  12.999
33610W        W 4210  17.160  44.891   3.260
33611W        W 4211  33.989  34.586  14.353
33612W        W 4212  16.644  25.428   3.203
33613W        W 4213  29.044  34.227   0.751
33614W        W 4214   2.467  24.012  14.374
33615W        W 4215  26.925  31.129  12.996
33616W        W 4216  14.045  41.408  11.566
33617W        W 4217  34.552  19.328  12.912
33618W        W 4218  44.229  44.094   3.860
33619W        W 4219  20.812   0.089   3.541
33620W        W 4220  22.263  30.317   0.421
33621W        W 4221  41.666  34.319  11.987
33622W        W 4222  22.456   3.065   4.422
33623W        W 4223  35.668  32.580  12.443
33624W        W 4224   0.468  18.919   1.161
33625W        W 4225  15.059   9.201   3.693
33626W        W 4226  32.948  12.580  12.417
33627W        W 4227  16.298   1.870   2.415
33628W        W 4228  20.705  10.681  11.863
33629W        W 4229   5.255  34.355   2.754
33630W        W 4230  28.559  18.791  13.928
33631W        W 4231  22.696   9.649  13.824
33632W        W 4232  32.362   2.851  13.057
33633W        W 4233  44.471  21.208  10.853
33634W        W 4234  25.220  32.232   3.392
33635W        W 4235  30.487  40.008  13.500
33636W        W 4236   8.707   1.020  13.488
33637W        W 4237  44.273   8.733  11.239
33638W        W 4238  35.641  36.025  13.401
33639W        W 4239  32.908  21.284   2.159
33640W        W 4240  40.352   6.985   2.247
33641W        W 4241  28.548  39.044   3.355
33642W        W 4242   6.684  28.507  10.534
33643W        W 4243   9.238   4.337  11.610
33644W        W 4244  36.918   3.895  10.481
33645W        W 4245  21.685  15.736  11.499
33646W        W 4246  39.937  34.239  12.483
33647W        W 4247  18.501  38.134  13.485
33648W        W 4248  18.181   2.958  13.914
33649W        W 4249  41.153  10.655   2.639
33650W        W 4250  33.105  31.248  12.368
33651W        W 4251   0.832  22.080   4.699
33652W        W 4252  20.226  20.774  12.900
33653W        W 4253  30.187  36.815   0.252
33654W        W 4254  44.332  40.318   4.398
33655W        W 4255  26.020  12.663   4.374
33656W        W 4256  36.773  22.286   1.765
33657W        W 4257  29.058  31.973  11.062
33658W        W 4258  16.783   6.471  14.922
33659W        W 4259  26.030   2.387   2.362
33660W        W 4260  15.204  33.818   1.391
33661W        W 4261  22.509  21.293  14.393
33662W        W 4262  34.513  11.865   2.854
33663W        W 4263  12.805  17.782   3.810
33664W        W 4264   0.190  31.141   2.140
33665W        W 4265   6.026   4.949   3.141
33666W        W 4266  30.414  11.415   3.204
33667W        W 4267  34.268  23.140   1.384
33668W        W 4268  40.320  41.579  14.463
33669W        W 4269  38.568   8.596   2.333
33670W        W 4270   1.912  43.602  12.064
33671W        W 4271  28.882  35.053  14.420
33672W        W 4272   2.241  42.101   0.051
33673W        W 4273  39.850  25.607  11.619
33674W        W 4274  23.499  35.787   0.477
33675W        W 4275  41.318   7.424  11.633
33676W        W 4276  36.817   8.187  10.728
33677W        W 4277  40.540   1.431   1.756
33678W        W 4278  33.217  14.650   0.094
33679W        W 4279  44.413  44.447   1.235
33680W        W 4280  29.941  38.241   4.880
33681W        W 4281  44.977   9.248  12.452
33682W        W 4282  26.611  28.808  11.768
33683W        W 4283  44.864  16.985  12.618
33684W        W 4284  19.725  26.004   0.668
33685W        W 4285  13.027  17.572   1.420
33686W        W 4286  24.961  17.317  11.434
33687W        W 4287  10.896   8.376  14.131
33688W        W 4288   8.410   2.163   0.772
33689W        W 4289  12.570   0.062   4.004
33690W        W 4290   0.436  38.011  12.070
33691W        W 4291  44.526  32.401  10.184
33692W        W 4292  38.067  22.535   2.188
33693W        W 4293  22.603  41.666  10.510
33694W        W 4294   7.326  20.894   0.452
33695W        W 4295  15.064   4.379   2.956
33696W        W 4296  26.703  42.783  10.689
33697W        W 4297   4.429  25.654  10.837
33698W        W 4298  39.442  30.830  14.823
33699W        W 4299  36.027  15.133  14.546
33700W        W 4300   0.457  11.503   0.334
33701W        W 4301  40.418  36.258   4.807
33702W        W 4302  13.095  13.863   4.266
33703W        W 4303   4.224  38.414  12.992
33704W        W 4304  14.234  38.067  14.814
33705W        W 4305  36.450  15.040  13.641
33706W        W 4306  36.057  34.864   3.677
33707W        W 4307  18.773  30.936   3.752
33708W        W 4308  34.378  22.896  11.426
33709W        W 4309  28.638   8.271  14.288
33710W        W 4310  34.871   3.957  10.481
33711W        W 4311   0.870  11.667  10.257
33712W        W 4312  10.092  35.951   2.574
33713W        W 4313  13.071  37.631  14.563
33714W        W 4314  11.692   7.223  10.773
33715W        W 4315  25.753   9.205   3.008
33716W        W 4316  28.569  44.366   1.311
33717W        W 4317  29.538  40.140   3.520
33718W        W 4318  34.326  35.433   3.670
33719W        W 4319  36.190  16.567  12.915
33720W        W 4320  22.980  42.885   0.920
33721W        W 4321  33.677  24.965   4.128
33722W        W 4322  29.033  35.582   1.302
33723W        W 4323  40.340  23.249  14.376
33724W        W 4324  28.065   8.995  10.890
33725W        W 4325   4.212  24.413   0.958
33726W        W 4326  22.523  23.735  12.873
33727W        W 4327  23.772   5.734  12.117
33728W        W 4328  12.639   7.681  11.585
33729W        W 4329  38.860   7.610   1.518
33730W        W 4330  12.703  39.267   2.266
33731W        W 4331   6.294  44.865  11.169
33732W        W 4332   5.381  20.939   3.255
33733W        W 4333  24.597  14.283   0.911
33734W        W 4334  14.360  43.811  13.998
33735W        W 4335  33.770  33.026  14.857
33736W        W 4336  39.423  13.276  13.557
33737W        W 4337  18.970   9.635  11.034
33738W        W 4338  21.965  28.087  12.518
33739W        W 4339  22.623   5.387   4.693
33740W        W 4340   8.150  36.901   3.819
33741W        W 4341  20.352   3.005  12.481
33742W        W 4342  39.950  14.616  14.494
33743W        W 4343  33.697  12.200   2.241
33744W        W 4344   0.691   6.796  13.938
33745W        W 4345  29.375  23.095   3.637
33746W        W 4346  33.412  29.474  13.006
33747W        W 4347   8.360  26.075  12.597
33748W        W 4348  42.072  13.704   3.724
33749W        W 4349  28.783  30.456   1.770
33750W        W 4350  40.053  11.337   3.801
33751W        W 4351  24.205  12.283   2.770
33752W        W 4352  20.549  40.398   1.357
33753W        W 4353  39.229  41.582  10.436
33754W        W 4354   5.614   7.675   2.588
33755W        W 4355  26.102  10.720  10.644
33756W        W 4356  37.860  23.192   3.828
33757W        W 4357  17.550  39.159  12.890
33758W        W 4358  24.147   9.693  10.501
33759W        W 4359  13.901  24.734   4.132
33760W        W 4360  40.073  38.480  11.453
33761W        W 4361  13.158   1.687  12.613
33762W        W 4362  37.391   6.246   3.777
33763W        W 4363  23.209   6.713   4.109
33764W        W 4364  29.093  26.610  14.629
33765W        W 4365  19.777   8.900  10.617
33766W        W 4366  21.284   0.908  12.041
33767W        W 4367   8.755   0.353   0.812
33768W        W 4368  11.049  16.186  13.802
33769W        W 4369  34.554  14.719   0.331
33770W        W 4370   4.079  29.270   2.640
33771W        W 4371   2.665  35.543   4.308
33772W        W 4372   3.216   8.871   2.757
33773W        W 4373  29.206  22.435   2.216
33774W        W 4374  41.505  31.131   2.142
33775W        W 4375  27.851  27.525  11.848
33776W        W 4376  31.625  32.133  13.915
33777W        W 4377  11.874  28.440  11.996
33778W        W 4378  20.472  27.677   1.867
33779W        W 4379   3.686  39.981  11.068
33780W        W 4380   4.711   1.094   9.933
33781W        W 4381  33.527  20.837   4.575
33782W        W 4382  34.584   7.857   2.742
33783W        W 4383  17.563   0.192   0.857
33784W        W 4384  18.059   7.609   1.829
33785W        W 4385   7.204  17.547   1.466
33786W        W 4386  12.808   5.932   3.184
33787W        W 4387   7.035  34.573   1.741
33788W        W 4388  16.759  15.688   0.927
33789W        W 4389  42.543   6.306  14.544
33790W        W 4390   7.826   6.446   1.252
33791W        W 4391  25.445  18.288  10.595
33792W        W 4392  10.094   7.654  14.920
33793W        W 4393  16.522  23.042   3.339
33794W        W 4394  34.917  10.291  13.842
33795W        W 4395   0.778  16.138  13.985
33796W        W 4396  10.022  39.648  11.483
33797W        W 4397  24.172  11.340   2.674
33798W        W 4398  13.347  38.344  13.382
33799W        W 4399  35.916  33.289  12.430
33800W        W 4400   8.676  21.976   4.124
33801W        W 4401   3.187  38.043  12.519
33802W        W 4402   6.379  25.242   2.457
33803W        W 4403   8.962  25.589   0.711
33804W        W 4404  17.005  41.852   1.805
33805W        W 4405  26.508  33.349  14.548
33806W        W 4406  17.695  35.084  14.352
33807W        W 4407  44.485  10.762  13.536
33808W        W 4408  17.645  32.150   1.063
33809W        W 4409  42.647  23.613  10.665
33810W        W 4410  34.601  42.794  11.199
33811W        W 4411  17.386  12.139  11.365
33812W        W 4412  29.920   9.702   2.488
33813W        W 4413   0.223  43.844  11.127
33814W        W 4414  36.283  30.447   2.614
33815W        W 4415  12.844  34.569  12.396
33816W        W 4416  24.266  39.100   4.147
33817W        W 4417  44.676   1.416   4.192
33818W        W 4418  13.106  28.687   2.847
33819W        W 4419  42.679  21.140   2.886
33820W        W 4420   8.299  18.978  11.085
33821W        W 4421  35.724  30.141  13.809
33822W        W 4422  30.517   0.863  13.325
33823W        W 4423  32.799  43.519  13.058
33824W        W 4424  16.193   6.290   3.761
33825W        W 4425  14.915  44.787  11.580
33826W        W 4426  31.515  11.341   2.910
33827W        W 4427  13.602  16.123   4.725
33828W        W 4428   7.272  31.511   3.296
33829W        W 4429  29.593  36.962  11.153
33830W        W 4430  30.460   5.775  11.568
33831W        W 4431  19.600   1.445  13.143
33832W        W 4432   4.674  39.381   1.845
33833W        W 4433  37.071  27.967  12.999
33834W        W 4434  22.317  14.870  14.290
33835W        W 4435  29.613  22.494   4.678
33836W        W 4436  35.121  33.323   5.003
33837W        W 4437   7.911  12.195   3.914
33838W        W 4438  16.368  13.860   1.417
33839W        W 4439  22.688  21.674   1.910
33840W        W 4440  27.074  43.592   3.184
33841W        W 4441   0.738  28.499  13.271
33842W        W 4442   9.930  23.764   0.389
33843W        W 4443  40.107  10.846   3.052
33844W        W 4444  37.604  36.994  13.042
33845W        W 4445   9.574  18.473  14.974
33846W        W 4446  26.030   1.390  13.798
33847W        W 4447   6.818  35.706  13.797
33848W        W 4448   0.193  36.905   0.367
33849W        W 4449   5.921   0.221  11.045
33850W        W 4450  17.228   2.233   4.389
33851W        W 4451  43.119  23.656  11.440
33852W        W 4452  30.036   6.806  12.632
33853W        W 4453  27.746  26.471   2.734
33854W        W 4454  22.621  35.857  13.969
33855W        W 4455  40.857  11.900  13.258
33856W        W 4456  35.285  38.638  11.450
33857W        W 4457  30.456  38.270   4.823
33858W        W 4458  14.597  43.580  12.983
33859W        W 4459  34.542  30.580  12.374
33860W        W 4460  22.577  20.510  13.956
33861W        W 4461   5.761   4.276   2.600
33862W        W 4462   2.787  32.343  14.305
33863W        W 4463  34.354  42.946   4.535
33864W        W 4464   0.732  32.176  10.648
33865W        W 4465   3.903  34.115   1.926
33866W        W 4466  15.154  29.700   3.617
33867W        W 4467  20.723  43.820   9.943
33868W        W 4468  28.874  17.164  13.955
33869W        W 4469  15.171  32.530   0.650
33870W        W 4470  13.497   7.759   2.210
33871W        W 4471  43.833  23.041   2.103
33872W        W 4472  22.171  39.691  11.654
33873W        W 4473  27.993   1.300   4.552
33874W        W 4474  40.106  17.121   4.169
33875W        W 4475  36.574  14.201  14.100
33876W        W 4476  29.381   7.221  11.602
33877W        W 4477   6.860  13.941  13.642
33878W        W 4478   1.227  16.850  12.514
33879W        W 4479  25.344  20.751  13.534
33880W        W 4480  33.676  11.614   2.342
33881W        W 4481   1.126  28.739  11.915
33882W        W 4482  36.794  10.705  10.729
33883W        W 4483   9.385   7.908  12.343
33884W        W 4484   5.333  16.123   2.267
33885W        W 4485   8.939  35.818   1.241
33886W        W 4486  15.314   8.530  12.935
33887W        W 4487   3.767   2.190  11.572
33888W        W 4488  12.582  33.165   2.122
33889W        W 4489  41.808  34.699  12.946
33890W        W 4490  12.472  24.070   1.389
33891W        W 4491  37.763   2.395   1.235
33892W        W 4492  22.293  11.202  13.381
33893W        W 4493  26.532  34.943  11.621
33894W        W 4494   0.234  29.021   3.691
33895W        W 4495  38.777  43.848   1.222
33896W        W 4496  11.825  29.999  13.848
33897W        W 4497  10.715  23.335   3.813
33898W        W 4498   8.903  12.817   0.747
33899W        W 4499  33.803  40.984  13.499
33900W        W 4500  22.136  19.269  10.716
33901W        W 4501  34.036  23.088  12.893
33902W        W 4502  26.724  40.441   3.262
33903W        W 4503   4.877  14.681  13.488
33904W        W 4504   6.856  15.281  10.664
33905W        W 4505   1.280  11.334  12.230
33906W        W 4506  24.991   4.664  11.980
33907W        W 4507  43.443  34.547  11.195
33908W        W 4508  35.173  31.169   4.393
33909W        W 4509  29.530  29.152  14.923
33910W        W 4510   0.485   7.814  11.927
33911W        W 4511  29.095  23.293  13.482
33912W        W 4512  33.298  31.112  12.832
33913W        W 4513   9.576  33.408  14.611
33914W        W 4514  44.364   9.375  10.582
33915W        W 4515   6.869  30.080   1.356
33916W        W 4516  35.158  16.689   3.224
33917W        W 4517  21.780  11.530   0.264
33918W        W 4518   6.121  12.646  13.487
33919W        W 4519  13.446   7.887  12.173
33920W        W 4520  17.344  36.516   3.831
33921W        W 4521  41.504  24.300   3.326
33922W        W 4522  25.147  19.661  14.279
33923W        W 4523  24.972  17.639   4.370
33924W        W 4524   6.243  44.232   3.204
33925W        W 4525  36.557  31.232   2.846
33926W        W 4526  42.620  43.362   4.079
33927W        W 4527  25.081  13.744   4.831
33928W        W 4528  15.639  30.792   4.551
33929W        W 4529   8.894   2.838  13.636
33930W        W 4530  12.589  15.721   2.445
33931W        W 4531  40.870  24.606   4.319
33932W        W 4532  38.775  31.127   3.181
33933W        W 4533  33.404  19.728   2.187
33934W        W 4534  17.090  22.009  14.343
33935W        W 4535  27.152   2.445  13.100
33936W        W 4536  10.495  11.240  13.374
33937W        W 4537  19.489  41.962  13.875
33938W        W 4538  25.252  14.377  13.059
33939W        W 4539  35.329  27.356  12.074
33940W        W 4540  19.140  13.863   1.989
33941W        W 4541  13.352  15.038   2.448
33942W        W 4542  23.863   0.818   9.531
33943W        W 4543   4.446  37.925   4.218
33944W        W 4544  24.629  24.251  12.620
33945W        W 4545  17.733  13.780   0.934
33946W        W 4546  33.572  10.988   1.706
33947W        W 4547  38.213  24.249   4.161
33948W        W 4548  33.462  17.553  12.755
33949W        W 4549  40.266  43.193   3.760
33950W        W 4550  29.573  13.041   3.655
33951W        W 4551  10.839   0.443   3.615
33952W        W 4552  10.400  37.871  12.054
33953W        W 4553   4.037   5.362   4.485
33954W        W 4554  44.431  41.072   0.874
33955W        W 4555  16.865  31.340  13.092
33956W        W 4556  24.198   9.025   2.916
33957W        W 4557  40.861   3.852  13.489
33958W        W 4558  29.781   4.049  13.025
33959W        W 4559  31.389  22.510  14.713
33960W        W 4560  31.868  10.859  14.448
33961W        W 4561  10.719  39.142   0.913
33962W        W 4562  19.267  23.003   0.816
33963W        W 4563  34.464  39.793  10.724
33964W        W 4564  41.947  22.925  14.208
33965W        W 4565  28.694   2.835   0.407
33966W        W 4566   5.247  30.785  13.085
33967W        W 4567  37.752  33.477   3.233
33968W        W 4568  14.575  17.515   2.746
33969W        W 4569  11.739  32.940   0.360
33970W        W 4570   3.004  13.688  12.667
33971W        W 4571  33.134  37.920   0.040
33972W        W 4572  14.633   0.816   3.129
33973W        W 4573  13.559   5.807   2.082
33974W        W 4574  25.435  28.534  14.417
33975W        W 4575  37.514   7.369   0.340
33976W        W 4576  11.187  43.484  12.930
33977W        W 4577  17.619  41.795   2.684
33978W        W 4578  33.235   8.163   4.437
33979W        W 4579  26.610  12.462   2.529
33980W        W 4580  31.047  28.432   1.690
33981W        W 4581  17.172  25.139   1.329
33982W        W 4582  13.098  40.733   4.859
33983W        W 4583   5.318   2.774   0.332
33984W        W 4584  11.214   2.869   2.356
33985W        W 4585  16.310   6.389  13.012
33986W        W 4586  43.999  30.918   4.391
33987W        W 4587   4.493  28.530   0.950
33988W        W 4588  14.455  41.885   5.331
33989W        W 4589   3.034   4.426  13.443
33990W        W 4590  32.688  19.811   4.608
33991W        W 4591  33.527   5.074   3.602
33992W        W 4592  14.112  34.933  10.107
33993W        W 4593  10.655  11.728   4.312
33994W        W 4594  41.251  34.926   1.808
33995W        W 4595  16.781  40.529   4.771
33996W        W 4596  40.441  27.175  14.910
33997W        W 4597  22.557  40.042   0.454
33998W        W 4598  33.577  30.668   4.070
33999W        W 4599  22.991   1.387  12.446
34000W        W 4600   1.551  23.024  11.643
34001W        W 4601  36.466   5.157   0.808
34002W        W 4602  41.546   0.083   2.693
34003W        W 4603  26.041  26.050   4.198
34004W        W 4604  27.591  43.368   1.328
34005W        W 4605   4.807  37.709   1.305
34006W        W 4606  42.682  10.280  14.039
34007W        W 4607  43.127  28.076   1.854
34008W        W 4608   1.380  34.872   1.030
34009W        W 4609  26.086  37.790  14.811
34010W        W 4610  26.536  35.370  10.654
34011W        W 4611  21.002   4.369  12.946
34012W        W 4612  13.698  14.056   0.863
34013W        W 4613  35.253   7.826  12.237
34014W        W 4614  44.246  41.608  14.587
34015W        W 4615   0.451  35.416  13.541
34016W        W 4616  15.903   6.114  13.154
34017W        W 4617  39.583   5.761   2.269
34018W        W 4618   5.167  33.543   3.158
34019W        W 4619   1.284   7.974  14.070
34020W        W 4620  33.049   2.378   3.381
34021W        W 4621   4.293  10.588   1.791
34022W        W 4622  35.848  28.606  13.399
34023W        W 4623   5.199   8.424  13.981
34024W        W 4624   0.460  35.902   1.751
34025W        W 4625  17.179   0.958  12.057
34026W        W 4626  13.047  20.604   0.309
34027W        W 4627  27.696   7.223   3.333
34028W        W 4628  30.231  12.621   2.791
34029W        W 4629  31.668  22.508  12.897
34030W        W 4630  44.997  25.197   3.718
34031W        W 4631  15.163   0.966  13.842
34032W        W 4632   0.670  12.995  11.607
34033W        W 4633  39.457  37.135   4.883
34034W        W 4634  20.104   3.003   4.827
34035W        W 4635  31.981  11.351   4.159
34036W        W 4636  28.755   6.685  11.122
34037W        W 4637  30.124  21.594  13.033
34038W        W 4638  22.281   0.278  13.507
34039W        W 4639  37.388  21.628  10.615
34040W        W 4640  39.419   8.909   3.823
34041W        W 4641  14.624  15.243  11.334
34042W        W 4642   7.396   2.446  13.016
34043W        W 4643  30.108  26.284   4.604
34044W        W 4644   2.788  19.705  13.024
34045W        W 4645  38.640  18.154  14.811
34046W        W 4646  21.174  24.666  12.475
34047W        W 4647   5.950  27.376  12.203
34048W        W 4648   8.449  42.995   0.810
34049W        W 4649  40.792  36.634   0.274
34050W        W 4650  14.543  34.648   9.930
34051W        W 4651   0.559  19.006   3.405
34052W        W 4652  32.914   3.270   0.045
34053W        W 4653  37.815   9.161  12.573
34054W        W 4654  44.931  21.607   2.829
34055W        W 4655  37.918  33.851   1.429
34056W        W 4656   6.843  15.146   0.090
34057W        W 4657  23.494  28.509   3.284
34058W        W 4658  23.562  42.375   2.649
34059W        W 4659  23.653  39.011  10.570
34060W        W 4660  34.469  26.600  11.698
34061W        W 4661  30.612  36.424   4.479
34062W        W 4662  29.363  33.483  12.467
34063W        W 4663  43.069   6.362  14.499
34064W        W 4664  34.140  39.228   2.128
34065W        W 4665  31.171  29.217   4.167
34066W        W 4666  28.420  39.597  14.683
34067W        W 4667  22.894  41.764   0.223
34068W        W 4668  32.375   9.364  12.574
34069W        W 4669  28.579   5.224   4.613
34070W        W 4670  16.646  43.994   4.349
34071W        W 4671  39.959  36.546   4.737
34072W        W 4672  24.596  16.625  12.400
34073W        W 4673  34.659  30.292  14.739
34074W        W 4674  41.387  41.383  12.383
34075W        W 4675   6.782  27.985   2.567
34076W        W 4676  13.190  38.864  11.878
34077W        W 4677   2.926  19.335  12.020
34078W        W 4678  24.641  42.028  11.483
34079W        W 4679   2.428  17.422  11.862
34080W        W 4680  14.501  40.113   4.959
34081W        W 4681  39.304   7.749  11.794
34082W        W 4682  35.874  15.613   4.167
34083W        W 4683  15.585  24.966  12.411
34084W        W 4684   6.525  28.719  13.999
34085W        W 4685   2.140  27.170  12.012
34086W        W 4686  43.755  10.840   2.751
34087W        W 4687  28.078  17.731   2.413
34088W        W 4688  19.499  40.960   3.726
34089W        W 4689  35.632   7.487  14.452
34090W        W 4690  38.816  14.061   2.874
34091W        W 4691   9.158  23.616   0.715
34092W        W 4692  30.959  22.680  13.422
34093W        W 4693   5.245   2.940   1.208
34094W        W 4694  40.273  35.195   0.757
34095W        W 4695  15.674  28.197  14.949
34096W        W 4696   8.126  22.451   2.691
34097W        W 4697  28.230  27.310  11.571
34098W        W 4698  17.718  24.931  10.795
34099W        W 4699  25.370  24.645  11.600
34100W        W 4700   1.761  31.127   2.795
34101W        W 4701   9.118  28.885   0.868
34102W        W 4702  35.462  35.632  10.909
34103W        W 4703  17.471  40.524   0.880
34104W        W 4704  20.700   3.907  13.836
34105W        W 4705   3.860  30.769   3.624
34106W        W 4706  26.940  26.505   3.254
34107W        W 4707  15.285   5.135   2.324
34108W        W 4708  43.310  32.918  14.414
34109W        W 4709  11.709   3.218   0.003
34110W        W 4710  20.569  27.260  11.190
34111W        W 4711  28.191  34.713   2.328
34112W        W 4712  22.146  35.857   4.133
34113W        W 4713  21.231  11.546  12.108
34114W        W 4714  24.660  16.188   2.539
34115W        W 4715  35.903  40.928  12.373
34116W        W 4716  31.616  17.805   2.635
34117W        W 4717  10.179  37.637  10.094
34118W        W 4718  41.866  38.459   0.676
34119W        W 4719  13.113  16.740  14.286
34120W        W 4720  42.887  33.598   0.943
34121W        W 4721  22.533  33.436   1.830
34122W        W 4722  37.497  26.468  10.964
34123W        W 4723  33.570   2.787  14.349
34124W        W 4724   1.235  29.133   2.349
34125W        W 4725  13.401  11.141   4.312
34126W        W 4726  13.029   4.192   1.440
34127W        W 4727  11.366  38.947  13.025
34128W        W 4728   2.819  30.107   1.039
34129W        W 4729   9.957  38.902   2.918
34130W        W 4730  14.383  13.625   2.539
34131W        W 4731  43.775   8.801   1.931
34132W        W 4732  37.539  11.380   2.351
34133W        W 4733  16.697  29.194  10.561
34134W        W 4734  25.274  21.617   4.577
34135W        W 4735  19.486  37.173   2.352
34136W        W 4736  26.507  44.072   2.285
34137W        W 4737   7.924  16.787  11.525
34138W        W 4738  23.084  13.833   2.685
34139W        W 4739   1.062  11.762  13.819
34140W        W 4740   2.937  11.589  10.758
34141W        W 4741  28.593  27.466  10.755
34142W        W 4742  23.109  43.757   0.523
34143W        W 4743  33.069  22.007  10.991
34144W        W 4744   4.369   3.206   0.353
34145W        W 4745  14.982  43.858   1.745
34146W        W 4746   7.920  28.174   2.709
34147W        W 4747  25.870  34.498   3.204
34148W        W 4748  21.974   3.179   4.154
34149W        W 4749   5.324   5.735  14.312
34150W        W 4750  17.754  14.530  13.405
34151W        W 4751  29.547  27.683  12.085
34152W        W 4752   5.838  42.676  10.940
34153W        W 4753  35.995   5.375   1.709
34154W        W 4754  19.475  29.083  12.972
34155W        W 4755  28.770  24.127  13.646
34156W        W 4756   6.444  12.774   4.555
34157W        W 4757  25.662  20.365   1.723
34158W        W 4758  29.809  20.654  13.949
34159W        W 4759  11.709  35.416   1.288
34160W        W 4760  16.288  21.876  14.070
34161W        W 4761   3.368  15.766  13.534
34162W        W 4762  14.783   8.660  14.848
34163W        W 4763   4.241   3.300   4.963
34164W        W 4764  12.267  38.665   1.281
34165W        W 4765   8.144  23.692   0.838
34166W        W 4766  33.517  15.601   0.798
34167W        W 4767  35.972   9.073   2.724
34168W        W 4768  32.488   5.439  12.984
34169W        W 4769  33.091  20.237   0.049
34170W        W 4770  43.521  44.044  13.016
34171W        W 4771  30.539  15.480   0.326
34172W        W 4772  43.384  19.070  13.896
34173W        W 4773  15.043  24.452  11.605
34174W        W 4774   5.363   4.972   3.704
34175W        W 4775   0.007  41.556  13.512
34176W        W 4776  11.423  20.169   1.880
34177W        W 4777  14.282  30.201   4.618
34178W        W 4778  11.888   9.914  13.779
34179W        W 4779  20.057  10.166  11.536
34180W        W 4780  26.297  13.451  13.527
34181W        W 4781  17.240  17.255  12.564
34182W        W 4782  37.482  20.782  13.975
34183W        W 4783  17.707   3.169  13.967
34184W        W 4784  42.902  18.448  12.652
34185W        W 4785   6.223  44.062   0.839
34186W        W 4786  27.579  30.827   1.238
34187W        W 4787   5.434  15.017   0.250
34188W        W 4788   1.452  26.094   3.207
34189W        W 4789  29.699  20.611  13.003
34190W        W 4790  41.395   1.508   3.814
34191W        W 4791  35.093  35.657   2.956
34192W        W 4792  26.961  10.124  11.615
34193W        W 4793  43.897   5.574   3.448
34194W        W 4794   0.696  17.266   2.794
34195W        W 4795  36.081  37.527  12.530
34196W        W 4796  27.880  24.648  12.188
34197W        W 4797  23.021  39.297  14.073
34198W        W 4798  10.612  31.201   4.098
34199W        W 4799  29.540  33.543  11.438
34200W        W 4800  39.421  36.664   1.391
34201W        W 4801   4.247   1.810   2.812
34202W        W 4802  21.221  12.700  12.915
34203W        W 4803  23.232   2.231   2.841
34204W        W 4804  42.211  43.034   4.109
34205W        W 4805   6.469   5.140   0.494
34206W        W 4806  12.342   0.904   2.847
34207W        W 4807  16.261  24.106   1.872
34208W        W 4808  26.602   3.754  12.484
34209W        W 4809  42.117  14.045  10.444
34210W        W 4810   5.822   6.278  13.464
34211W        W 4811   5.940  14.914  11.149
34212W        W 4812  16.993   2.635  11.090
34213W        W 4813   6.407  44.781   4.747
34214W        W 4814  17.184   2.444  11.761
34215W        W 4815  11.582  14.401  10.647
34216W        W 4816  31.554  36.907   1.150
34217W        W 4817  42.217  28.843   2.829
34218W        W 4818  12.780  15.435   0.754
34219W        W 4819  30.159  26.467   1.636
34220W        W 4820  17.247   6.150  13.055
34221W        W 4821  35.891  15.555  12.873
34222W        W 4822  26.988  20.560   4.298
34223W        W 4823  42.225  28.933   4.566
34224W        W 4824  14.877  32.972  13.450
34225W        W 4825  11.658   3.149   3.450
34226W        W 4826  34.555  22.847   4.084
34227W        W 4827   9.271  25.986  10.499
34228W        W 4828   8.392  21.255   0.936
34229W        W 4829  25.475  22.506   0.358
34230W        W 4830   6.755  23.161  14.752
34231W        W 4831  43.370  10.113   1.784
34232W        W 4832  30.455  10.496  10.036
34233W        W 4833   6.724  15.189   3.341
34234W        W 4834  29.954   5.885  12.110
34235W        W 4835  26.005   5.685   2.769
34236W        W 4836  27.873  12.754   4.670
34237W        W 4837   1.298   4.734  11.745
34238W        W 4838  43.526  10.816   3.239
34239W        W 4839  30.948  16.018  12.715
34240W        W 4840  33.012  33.970  14.488
34241W        W 4841   9.916  16.152   2.722
34242W        W 4842  43.287   2.199   3.606
34243W        W 4843  34.354   7.568  12.939
34244W        W 4844  21.557  24.714  13.160
34245W        W 4845  36.119  23.228   2.490
34246W        W 4846  20.051   2.573   2.446
34247W        W 4847  36.867   6.448  10.964
34248W        W 4848  15.355  43.958  13.892
34249W        W 4849  28.859  36.938  14.010
34250W        W 4850   9.798  31.952   3.018
34251W        W 4851  22.532  19.678   0.665
34252W        W 4852   5.305  28.893  12.177
34253W        W 4853  23.181  18.655  14.091
34254W        W 4854  15.915   7.886   3.733
34255W        W 4855   7.881  32.600  11.591
34256W        W 4856   7.370  38.315   2.817
34257W        W 4857  30.499  18.620  14.454
34258W        W 4858  39.231   8.910   4.751
34259W        W 4859  27.986   4.022   2.109
34260W        W 4860   7.567  10.807   0.742
34261W        W 4861  31.676  35.975   1.692
34262W        W 4862  22.157  29.255  11.423
34263W        W 4863  37.799  31.860  13.885
34264W        W 4864   4.439  40.135  10.618
34265W        W 4865  32.552  44.565  10.270
34266W        W 4866   1.848  29.658  14.836
34267W        W 4867  41.931  23.825  12.027
34268W        W 4868   1.588  30.299  13.947
34269W        W 4869  25.707  24.114   2.726
34270W        W 4870  31.104  22.543  14.288
34271W        W 4871  16.334  23.180  13.388
34272W        W 4872   9.042   1.460   4.968
34273W        W 4873  17.226   6.283  13.549
34274W        W 4874  15.190  17.367   4.128
34275W        W 4875   2.322  34.045   0.864
34276W        W 4876  10.899  27.998  10.811
34277W        W 4877   6.536  39.146   2.210
34278W        W 4878  24.911  14.262   2.278
34279W        W 4879  38.478  43.478   4.567
34280W        W 4880  38.852  40.561   1.714
34281W        W 4881  12.843   1.522   2.214
34282W        W 4882  16.649  19.704  14.506
34283W        W 4883  21.605  36.968  13.838
34284W        W 4884  20.494  10.424  13.910
34285W        W 4885  40.481  38.597  11.127
34286W        W 4886   1.890  14.285  13.509
34287W        W 4887   7.335  25.026  11.575
34288W        W 4888   1.496  33.141  12.029
34289W        W 4889  34.804   9.287  12.416
34290W        W 4890   7.331  38.215  10.404
34291W        W 4891  35.650  11.873   1.471
34292W        W 4892  37.987  21.973  10.475
34293W        W 4893  43.842  44.044  10.635
34294W        W 4894   9.360  13.744  14.302
34295W        W 4895  42.706  35.070   0.830
34296W        W 4896  36.226  38.417   1.283
34297W        W 4897  18.614  27.601  14.053
34298W        W 4898  26.866   1.399  12.020
34299W        W 4899  40.879  39.057  13.086
34300W        W 4900  37.830  21.456  12.049
34301W        W 4901  21.288  27.615   3.545
34302W        W 4902  41.845  41.342  14.430
34303W        W 4903  39.996  34.388   0.853
34304W        W 4904   9.353   4.842   0.186
34305W        W 4905  15.092  26.473  14.863
34306W        W 4906  39.398   9.134   4.305
34307W        W 4907  20.431   0.260  12.143
34308W        W 4908  26.014  34.605  10.595
34309W        W 4909  26.899  34.471  10.814
34310W        W 4910  26.848  20.669   4.880
34311W        W 4911  27.028   0.372   4.563
34312W        W 4912  12.773  40.342   1.396
34313W        W 4913  40.956  15.271   4.168
34314W        W 4914  16.670  35.471  14.372
34315W        W 4915  21.282  40.574   2.195
34316W        W 4916  38.131   9.870   0.562
34317W        W 4917  16.320   2.623  11.182
34318W        W 4918  14.016  24.405  12.529
34319W        W 4919   3.489  19.497  13.498
34320W        W 4920   2.824   3.732   0.916
34321W        W 4921  41.848  18.774   0.365
34322W        W 4922  11.478  39.767   1.261
34323W        W 4923  37.956   6.735   4.321
34324W        W 4924   0.091  30.400  11.935
34325W        W 4925  44.336   7.082  13.910
34326W        W 4926   8.322  30.263  12.582
34327W        W 4927  41.517  35.997   1.640
34328W        W 4928  44.069  39.539   2.905
34329W        W 4929  42.969  44.295   9.701
34330W        W 4930   6.369  24.544  12.981
34331W        W 4931  32.447   9.108   1.878
34332W        W 4932   9.931  17.269   2.254
34333W        W 4933  29.995  16.780   2.396
34334W        W 4934  37.039  11.306   2.294
34335W        W 4935  37.831  11.909  11.125
34336W        W 4936  37.993   6.684  14.346
34337W        W 4937  18.345  19.195   3.451
34338W        W 4938  41.255  12.114   0.263
34339W        W 4939   3.343   3.042   1.196
34340W        W 4940   4.982   4.167  13.535
34341W        W 4941  13.681  34.080   4.879
34342W        W 4942  34.310  39.874   1.336
34343W        W 4943  37.588   3.738   1.826
34344W        W 4944   4.696   7.770   2.264
34345W        W 4945  14.281  21.547   4.711
34346W        W 4946  44.692  31.339   2.274
34347W        W 4947  12.069  39.961  11.848
34348W        W 4948  37.484  27.478   2.277
34349W        W 4949   7.908  23.202   1.642
34350W        W 4950   6.409  22.490   1.216
34351W        W 4951   6.247  28.756  12.924
34352W        W 4952  31.495  30.687  10.936
34353W        W 4953  30.473   8.085   3.708
34354W        W 4954   9.982   2.431  11.439
34355W        W 4955  32.652  23.742   3.748
34356W        W 4956   7.274  36.436   4.128
34357W        W 4957  13.634   4.985   3.384
34358W        W 4958  16.738   4.470  12.535
34359W        W 4959   0.356  12.757   2.787
34360W        W 4960  32.464  27.531  13.523
34361W        W 4961  25.144  24.164   0.491
34362W        W 4962  13.963  37.402  10.325
34363W        W 4963  25.109  30.170  12.392
34364W        W 4964  39.877  13.080  11.915
34365W        W 4965  27.010  22.858   4.641
34366W        W 4966  37.903  10.405   1.439
34367W        W 4967  35.367  17.251   2.220
34368W        W 4968  39.017  37.996   3.402
34369W        W 4969  12.812   9.135   3.898
34370W        W 4970  11.188  18.740   4.128
34371W        W 4971  33.818  38.313  13.090
34372W        W 4972  28.339  24.337   0.235
34373W        W 4973  33.954  23.077   0.495
34374W        W 4974  27.100  13.996   0.507
34375W        W 4975  44.892   6.065  12.636
34376W        W 4976   9.889  32.001  12.380
34377W        W 4977  22.340  17.323   1.959
34378W        W 4978   4.947  20.667   4.633
34379W        W 4979  22.326  34.251   4.084
34380W        W 4980  41.353  40.349  11.568
34381W        W 4981  19.368  38.858   3.172
34382W        W 4982  33.495  35.463  13.565
34383W        W 4983  10.508  32.369  14.562
34384W        W 4984  21.488   9.410   3.482
34385W        W 4985  42.994  29.454   4.119
34386W        W 4986  13.563  28.024   4.938
34387W        W 4987  43.588   5.776   4.071
34388W        W 4988  22.917  41.495   0.669
34389W        W 4989  37.818  30.799  12.596
34390W        W 4990  40.406  21.108  11.164
34391W        W 4991  26.646  23.706   4.394
34392W        W 4992  21.864  25.216  11.996
34393W        W 4993  38.050  18.549   2.694
34394W        W 4994   8.203  41.289   2.238
34395W        W 4995  43.363  22.366   2.644
34396W        W 4996  12.290  14.693   5.017
34397W        W 4997  37.737  11.805  12.464
34398W        W 4998   8.734   5.998   1.179
34399W        W 4999  13.459  26.642   5.144
34400W        W 5000  36.771  15.891  14.469
34401W        W 5001  40.372   6.831  10.656
34402W        W 5002  24.043  39.922   3.573
34403W        W 5003  43.728  39.922  14.263
34404W        W 5004  34.043   6.726  12.089
34405W        W 5005  29.426  19.480  10.324
34406W        W 5006  16.206  33.924   1.469
34407W        W 5007  29.556  19.834  14.852
34408W        W 5008  30.930   6.256   1.287
34409W        W 5009  44.282   7.404  14.885
34410W        W 5010  33.529  25.030  13.744
34411W        W 5011  36.611  29.998  12.608
34412W        W 5012  14.031   8.811  13.081
34413W        W 5013  33.996   4.895  10.232
34414W        W 5014  16.051  16.670   5.344
34415W        W 5015  23.689   2.456  11.524
34416W        W 5016  21.702  26.102  10.421
34417W        W 5017   2.284   2.817   2.372
34418W        W 5018   0.769  30.098  12.963
34419W        W 5019  30.420  28.086  10.719
34420W        W 5020  40.518  38.943  12.629
34421W        W 5021  30.793   5.142  11.092
34422W        W 5022  26.005  44.860   0.853
34423W        W 5023  20.145   4.428  12.389
34424W        W 5024  39.322   6.298  11.305
34425W        W 5025  11.671  22.503   3.256
34426W        W 5026  32.697  17.616  12.194
34427W        W 5027  32.569  34.384   4.608
34428W        W 5028  24.175  25.556  14.375
34429W        W 5029  17.633  34.582   1.501
34430W        W 5030  29.635  32.392  12.085
34431W        W 5031  13.020  31.334  14.056
34432W        W 5032   9.672  37.000   4.933
34433W        W 5033   0.304  10.591  11.603
34434W        W 5034  14.941  25.571  10.689
34435W        W 5035  32.424  37.302   4.566
34436W        W 5036   8.496  25.282   2.872
34437W        W 5037   3.547  44.898  11.195
34438W        W 5038  39.439  28.768   2.715
34439W        W 5039  18.427   0.235   1.392
34440W        W 5040  19.182  29.004   4.858
34441W        W 5041   4.175  32.233  12.973
34442W        W 5042   2.949  23.360  11.214
34443W        W 5043  22.005  41.840   0.451
34444W        W 5044  43.216  29.944   4.283
34445W        W 5045  19.837  29.897   0.956
34446W        W 5046  28.539  12.654   0.976
34447W        W 5047  34.451   9.084   3.298
34448W        W 5048  41.512  25.193  14.851
34449W        W 5049  15.311  23.029  13.392
34450W        W 5050  16.243  41.852   2.193
34451W        W 5051   0.086   1.290  11.686
34452W        W 5052  21.375  42.880  11.606
34453W        W 5053   6.394   7.173   1.239
34454W        W 5054  32.090  12.799   4.113
34455W        W 5055  11.771  24.871  13.948
34456W        W 5056  44.234  17.159   1.498
34457W        W 5057  40.400   7.234  14.725
34458W        W 5058  16.531   9.182   2.783
34459W        W 5059   0.919  12.772  12.031
34460W        W 5060  31.623  16.600   4.571
34461W        W 5061  39.707   6.161   3.592
34462W        W 5062   2.004  38.896  12.728
34463W        W 5063   0.371  39.574   4.357
34464W        W 5064  33.101  26.076  14.977
34465W        W 5065  14.336  36.502  14.909
34466W        W 5066  18.668  29.378  13.390
34467W        W 5067  16.275  44.835  14.127
34468W        W 5068  26.032  39.384   2.378
34469W        W 5069   3.875  22.053   1.196
34470W        W 5070  22.263   3.149  12.535
34471W        W 5071  36.670   9.661   1.493
34472W        W 5072  18.916   3.348  11.571
34473W        W 5073   1.631  13.676   0.364
34474W        W 5074  24.662   1.850  13.885
34475W        W 5075  43.981  33.970  11.013
34476W        W 5076   5.365   8.667  12.093
34477W        W 5077   5.384   7.174  12.106
34478W        W 5078  30.632   3.116  10.020
34479W        W 5079  27.376   3.909   0.905
34480W        W 5080   4.784  38.749   1.258
34481W        W 5081  23.147   4.194   4.161
34482W        W 5082  39.561   9.778   1.185
34483W        W 5083   0.176  30.160   1.418
34484W        W 5084  14.903  19.403  10.292
34485W        W 5085  38.968   7.976   2.808
34486W        W 5086  12.231   6.923   0.390
34487W        W 5087  31.797  38.115   0.614
34488W        W 5088  20.323  32.960  14.987
34489W        W 5089   2.507  39.034   3.836
34490W        W 5090  32.160   2.644  14.748
34491W        W 5091   2.864  25.924  11.327
34492W        W 5092   7.538   8.224  14.329
34493W        W 5093  41.814  19.958   2.989
34494W        W 5094  10.380   8.712   3.163
34495W        W 5095  44.457   2.827  13.453
34496W        W 5096  40.896  13.547   3.823
34497W        W 5097  38.581  33.882  12.274
34498W        W 5098  42.332  23.766   3.373
34499W        W 5099  44.047  30.567  12.620
34500W        W 5100  39.402  21.199   1.327
34501W        W 5101  32.077  17.134  12.685
34502W        W 5102  13.337   6.546   0.425
34503W        W 5103  15.267  28.843  14.421
34504W        W 5104  26.221  44.469  10.504
34505W        W 5105  27.518  23.158  13.797
34506W        W 5106  30.696  26.590  12.046
34507W        W 5107   2.239  34.155   3.594
34508W        W 5108   8.866  17.252   0.273
34509W        W 5109  18.966  10.088  14.817
34510W        W 5110   0.188  36.097   0.158
34511W        W 5111   2.484   7.241   4.705
34512W        W 5112  21.634  18.473   0.191
34513W        W 5113  42.292  29.475   4.525
34514W        W 5114  18.708  26.262  10.766
34515W        W 5115  28.426  11.249  11.404
34516W        W 5116  35.647  40.331   1.045
34517W        W 5117  35.908  36.547  11.398
34518W        W 5118  31.975  26.949   1.772
34519W        W 5119  37.528   8.608  11.040
34520W        W 5120  42.631  36.058  11.909
34521W        W 5121   1.130   7.690   0.858
34522W        W 5122  40.364   3.703  13.357
34523W        W 5123  11.898  33.175  10.977
34524W        W 5124  36.063  10.042   2.819
34525W        W 5125  18.321  27.960  12.422
34526W        W 5126  26.118  16.596  11.125
34527W        W 5127  26.636   7.737  13.590
34528W        W 5128  21.207   6.849  14.725
34529W        W 5129  37.809  20.631   5.206
34530W        W 5130  43.875  19.326  14.542
34531W        W 5131   4.414  35.451   4.571
34532W        W 5132  14.377  38.119  12.196
34533W        W 5133  26.822  23.329   3.648
34534W        W 5134  28.937   6.720   4.107
34535W        W 5135  37.563  12.270   2.921
34536W        W 5136  34.217   9.902  11.833
34537W        W 5137  13.626  28.656  10.638
34538W        W 5138  10.603  15.589   3.265
34539W        W 5139  40.276  13.056   4.516
34540W        W 5140  41.609  16.096  10.531
34541W        W 5141   8.694  42.794  12.074
34542W        W 5142  17.707  29.386  11.420
34543W        W 5143  20.211  39.932   3.418
34544W        W 5144  25.634  28.598  14.903
34545W        W 5145  44.482  23.425  10.213
34546W        W 5146   4.848  41.849  14.846
34547W        W 5147  32.728   5.879  14.851
34548W        W 5148  36.742  42.918   1.454
34549W        W 5149  36.571  17.510   1.328
34550W        W 5150  15.339  14.639  10.874
34551W        W 5151  16.057  25.110  10.809
34552W        W 5152   8.142   8.602  10.995
34553W        W 5153  10.083  27.108  10.822
34554W        W 5154   2.839  43.688   3.487
34555W        W 5155  41.340  23.217  12.529
34556W        W 5156  10.577  17.668  12.115
34557W        W 5157  41.749  20.982   3.673
34558W        W 5158   2.267  41.910  10.693
34559W        W 5159   9.673  11.299  11.641
34560W        W 5160  34.925   2.415  11.748
34561W        W 5161  11.012   8.216  13.064
34562W        W 5162   0.480   1.560  10.407
34563W        W 5163  28.918  11.345  12.339
34564W        W 5164  28.243  22.732  10.029
34565W        W 5165  17.887  28.445  11.875
34566W        W 5166   6.738  14.401   2.887
34567W        W 5167  17.723   0.893  14.439
34568W        W 5168  36.567  27.816   3.335
34569W        W 5169   7.670  10.298  14.785
34570W        W 5170  33.867   0.738  12.565
34571W        W 5171  44.308   6.803   3.822
34572W        W 5172  10.430   8.614  10.848
34573W        W 5173  15.349  14.087   3.996
34574W        W 5174  44.829  39.107  14.437
34575W        W 5175  37.480  19.393   3.946
34576W        W 5176   6.176  29.693  14.110
34577W        W 5177  38.938  25.933   3.412
34578W        W 5178  39.471  32.219  14.862
34579W        W 5179  12.272  33.201   0.885
34580W        W 5180  28.064  10.728   2.678
34581W        W 5181  43.090  32.036  14.485
34582W        W 5182  16.834  37.208   1.009
34583W        W 5183  34.470   9.811   3.684
34584W        W 5184  19.076  41.887   0.531
34585W        W 5185  14.328  35.412  10.239
34586W        W 5186  17.761  43.301   0.777
34587W        W 5187  24.488  21.240  13.032
34588W        W 5188  42.100   1.335  12.026
34589W        W 5189  17.926  32.866  11.776
34590W        W 5190   0.852  23.880  11.758
34591W        W 5191  29.432  20.032   4.182
34592W        W 5192   8.736  26.759  12.480
34593W        W 5193   1.486  20.867   3.136
34594W        W 5194  42.869  40.087  13.353
34595W        W 5195  34.210  27.423  12.949
34596W        W 5196  10.367  40.287  11.186
34597W        W 5197  25.219  38.411  13.975
34598W        W 5198  13.124  22.821   5.054
34599W        W 5199  31.803  34.107   3.998
34600W        W 5200  26.431  21.651  13.051
34601W        W 5201  38.051  24.179   2.193
34602W        W 5202  10.609   5.913   4.564
34603W        W 5203  29.627  21.983   1.043
34604W        W 5204   8.844  38.934  11.851
34605W        W 5205  21.318  26.119  12.034
34606W        W 5206  21.480  28.257  12.450
34607W        W 5207  30.151   9.275  12.054
34608W        W 5208  33.026   5.677   3.270
34609W        W 5209  42.722  10.646  12.541
34610W        W 5210  16.317  38.067  12.090
34611W        W 5211  27.094  14.796  11.995
34612W        W 5212  39.324  33.481   1.325
34613W        W 5213   6.273  12.584  11.120
34614W        W 5214  40.142   3.554   2.194
34615W        W 5215  29.100  28.981   0.217
34616W        W 5216  23.233   7.827   1.162
34617W        W 5217  11.897  29.670   9.780
34618W        W 5218   5.401   8.897  11.596
34619W        W 5219  20.295  22.518  13.380
34620W        W 5220   0.478  21.442   0.941
34621W        W 5221  35.000  31.100  14.889
34622W        W 5222  22.066  25.645   2.720
34623W        W 5223  30.107  41.969  14.292
34624W        W 5224  17.653  24.066  13.442
34625W        W 5225  28.564  35.303   4.590
34626W        W 5226   3.785   5.291  12.568
34627W        W 5227  44.440   9.509  13.476
34628W        W 5228  11.538  11.370  11.640
34629W        W 5229   1.857  27.999  11.695
34630W        W 5230  12.331  24.065   3.714
34631W        W 5231  34.114  37.586   4.056
34632W        W 5232  40.818   8.295   1.840
34633W        W 5233  25.955   0.296   2.176
34634W        W 5234  41.571  31.984   4.996
34635W        W 5235  16.259  20.514  12.638
34636W        W 5236   2.622   4.268   1.466
34637W        W 5237  15.358  16.250   4.936
34638W        W 5238   4.496  18.034  13.575
34639W        W 5239  20.691   6.601   3.813
34640W        W 5240  40.443  35.434   0.275
34641W        W 5241  18.289  20.212   2.459
34642W        W 5242  28.883   9.050   2.995
34643W        W 5243  17.323   8.107   3.796
34644W        W 5244  24.899   5.445  12.619
34645W        W 5245  37.196  32.199   4.267
34646W        W 5246  24.642  38.874  13.961
34647W        W 5247   9.760  43.499  14.421
34648W        W 5248  31.045  34.268  11.107
34649W        W 5249   2.309  25.630   0.008
34650W        W 5250  19.174  25.493   2.167
34651W        W 5251  25.655  25.364  14.234
34652W        W 5252  40.287  25.039  13.420
34653W        W 5253   8.251  34.881  12.780
34654W        W 5254  24.996  18.619  14.040
34655W        W 5255   8.362   8.598  11.470
34656W        W 5256  37.256  27.050   0.877
34657W        W 5257  10.617  11.264   3.958
34658W        W 5258  20.062  18.287   3.766
34659W        W 5259  19.708  36.129   3.013
34660W        W 5260   2.408  29.916   4.542
34661W        W 5261  14.168  19.204   1.293
34662W        W 5262   9.888  18.947   2.028
34663W        W 5263   7.623  11.657  14.283
34664W        W 5264  38.938  29.623  11.260
34665W        W 5265  23.731  25.742   3.195
34666W        W 5266  27.686  42.494   3.799
34667W        W 5267   8.766  34.286   4.179
34668W        W 5268  37.909   0.064   0.053
34669W        W 5269  11.319  40.948  13.947
34670W        W 5270  25.687  19.561   2.272
34671W        W 5271   9.421  26.964  14.941
34672W        W 5272  40.762  24.588   1.783
34673W        W 5273   2.089  11.531  10.416
34674W        W 5274  16.700  41.453   4.323
34675W        W 5275  38.369   5.947  12.953
34676W        W 5276  12.356  28.353   3.173
34677W        W 5277   9.615  35.529   2.613
34678W        W 5278  26.186  35.837   1.933
34679W        W 5279  22.480  25.894  14.910
34680W        W 5280  13.308  41.067   9.819
34681W        W 5281  39.632  29.837   3.680
34682W        W 5282  11.632  20.020  14.011
34683W        W 5283  29.396  11.141  12.362
34684W        W 5284  35.059  34.969   3.782
34685W        W 5285  16.548  28.947  12.019
34686W        W 5286  26.664  42.753   3.058
34687W        W 5287  17.233  37.324  11.662
34688W        W 5288  12.202  15.388   0.757
34689W        W 5289  15.916  16.691   0.262
34690W        W 5290  33.640   1.447  13.904
34691W        W 5291   8.648  21.496  13.382
34692W        W 5292  24.699   7.795   0.477
34693W        W 5293  10.145  40.492   3.282
34694W        W 5294  35.091  27.344   5.120
34695W        W 5295   7.364  31.291   4.624
34696W        W 5296  13.226   3.285  11.668
34697W        W 5297  11.688  20.678   3.375
34698W        W 5298  36.078  23.794  11.572
34699W        W 5299  33.505   3.970   2.420
34700W        W 5300  33.892   7.312  10.877
34701W        W 5301  21.164  14.905  11.733
34702W        W 5302   8.758  28.595   3.656
34703W        W 5303  38.305  11.871   1.350
34704W        W 5304   0.217  22.681  11.456
34705W        W 5305  35.368  17.693  10.715
34706W        W 5306  14.575  40.624   4.162
34707W        W 5307  16.591  30.598  10.963
34708W        W 5308  18.510  36.397  12.190
34709W        W 5309  32.647  15.403  13.949
34710W        W 5310   3.296   8.715  12.095
34711W        W 5311  31.034  30.884  14.808
34712W        W 5312   7.410  22.002  13.892
34713W        W 5313  43.145   8.499  13.158
34714W        W 5314  42.067   8.829  11.920
34715W        W 5315  17.636  12.437   1.666
34716W        W 5316  19.615  32.712   2.229
34717W        W 5317   5.475   4.914  14.921
34718W        W 5318  32.174  11.248  13.449
34719W        W 5319  24.856  38.676  11.074
34720W        W 5320  20.143  24.485   0.326
34721W        W 5321  44.861  17.273   3.689
34722W        W 5322  21.838  24.178  14.798
34723W        W 5323  40.267   8.078   2.207
34724W        W 5324  42.823  37.081  11.460
34725W        W 5325  44.489   1.904   4.144
34726W        W 5326  42.330  25.147   2.588
34727W        W 5327  32.940  44.031  11.702
34728W        W 5328  26.445   9.678   3.285
34729W        W 5329  11.295  13.780   2.326
34730W        W 5330  23.038  42.374   2.665
34731W        W 5331  44.461  25.597  11.551
34732W        W 5332  18.401  13.181   3.571
34733W        W 5333   5.227  16.727   3.408
34734W        W 5334  18.169  30.640  11.690
34735W        W 5335  40.338  16.492   4.521
34736W        W 5336  23.856  27.753   1.865
34737W        W 5337  39.080  10.061   1.893
34738W        W 5338   8.337  10.826   0.756
34739W        W 5339  18.211   1.912   2.009
34740W        W 5340  23.184  30.420   2.762
34741W        W 5341  33.760  33.600   0.501
34742W        W 5342  20.625  22.556  10.279
34743W        W 5343  34.736   6.368   0.790
34744W        W 5344  42.470  39.360  13.968
34745W        W 5345   8.118  15.665  10.901
34746W        W 5346  39.508   7.424   1.250
34747W        W 5347  22.151   2.528  14.718
34748W        W 5348  37.376   5.703   1.226
34749W        W 5349  30.588  13.119   0.877
34750W        W 5350  17.157   8.168  12.360
34751W        W 5351  11.168   3.799  12.881
34752W        W 5352   0.414  38.241   1.383
34753W        W 5353   1.102   5.502  12.051
34754W        W 5354  19.305   8.282  13.595
34755W        W 5355  19.573  32.948   3.205
34756W        W 5356  40.119  37.959   0.902
34757W        W 5357  31.130  35.105   2.257
34758W        W 5358  31.525  26.007  13.209
34759W        W 5359  16.311  37.488  11.439
34760W        W 5360  27.487  34.659  11.609
34761W        W 5361  36.027  31.982  13.154
34762W        W 5362  41.424   0.909   2.127
34763W        W 5363  38.580  34.947  11.568
34764W        W 5364  37.035  36.372   2.820
34765W        W 5365  43.825  12.500  12.459
34766W        W 5366  38.847  41.244  14.897
34767W        W 5367   6.233  30.144   2.925
34768W        W 5368  22.502   5.882   1.858
34769W        W 5369  31.636  34.662   1.360
34770W        W 5370  25.971  44.309  14.676
34771W        W 5371  21.029  39.970  12.911
34772W        W 5372  35.137  25.167   1.739
34773W        W 5373   0.733   5.749   3.476
34774W        W 5374  31.603  15.450  11.600
34775W        W 5375  44.258  18.544   1.789
34776W        W 5376   4.425  14.764   1.414
34777W        W 5377  34.336   8.876  14.367
34778W        W 5378  31.105   3.800  12.937
34779W        W 5379  40.718   9.280  11.777
34780W        W 5380   3.834  38.802  14.375
34781W        W 5381  38.355  39.984   0.777
34782W        W 5382  12.641  36.918  11.147
34783W        W 5383  33.546  43.468   0.998
34784W        W 5384  19.251   2.562  11.208
34785W        W 5385   4.774  22.106   3.157
34786W        W 5386  44.479  22.254   2.331
34787W        W 5387   1.771  13.758   3.663
34788W        W 5388  29.870  39.463   0.901
34789W        W 5389  35.368  12.232   1.233
34790W        W 5390   8.843  13.718   1.953
34791W        W 5391  37.870   9.890   1.495
34792W        W 5392   8.962  19.670   2.908
34793W        W 5393  18.658  44.377   5.067
34794W        W 5394   1.345  10.176  14.482
34795W        W 5395  37.115  30.516   3.245
34796W        W 5396  20.408  33.218   0.452
34797W        W 5397   5.263  21.597   4.281
34798W        W 5398  39.591  30.525  10.639
34799W        W 5399   0.975  29.846   1.047
34800W        W 5400  18.084  37.333  11.999
34801W        W 5401  13.745  27.893   1.292
34802W        W 5402  24.408  44.740   0.790
34803W        W 5403  18.236  10.043   5.019
34804W        W 5404  42.826  27.153   3.959
34805W        W 5405  16.117  26.550  10.113
34806W        W 5406  25.167  32.984   2.740
34807W        W 5407  13.343   0.975   0.813
34808W        W 5408  10.376  17.739   4.578
34809W        W 5409  44.861  23.419  12.813
34810W        W 5410   8.619   0.882  11.042
34811W        W 5411   6.380  23.911   5.129
34812W        W 5412   3.571   8.181   0.727
34813W        W 5413  19.529  23.039   2.275
34814W        W 5414  11.876  18.786  13.519
34815W        W 5415   0.970  40.872   0.242
34816W        W 5416  34.504   5.726  14.496
34817W        W 5417  18.203   8.620  11.318
34818W        W 5418  31.819  37.271   1.965
34819W        W 5419  32.533  12.412  11.105
34820W        W 5420  14.867  30.477  11.622
34821W        W 5421  20.540  40.388  13.969
34822W        W 5422  30.470  21.083  11.960
34823W        W 5423  10.919  10.166   0.286
34824W        W 5424  26.867   3.479  14.341
34825W        W 5425  37.771  13.230   3.233
34826W        W 5426  16.237  10.380   3.701
34827W        W 5427  44.531  22.423   4.245
34828W        W 5428  10.675   9.741   3.169
34829W        W 5429   3.699  22.106  12.682
34830W        W 5430  43.822  40.364  12.010
34831W        W 5431  38.531  36.996   2.401
34832W        W 5432  30.384  33.610   2.095
34833W        W 5433  38.431  25.051  12.552
34834W        W 5434   8.653  17.890   4.527
34835W        W 5435  37.438  15.104  12.086
34836W        W 5436   4.622  42.763   3.131
34837W        W 5437  11.539  42.485   4.561
34838W        W 5438  31.977  14.294  12.974
34839W        W 5439   0.004   4.244   3.543
34840W        W 5440  40.340  41.833  11.206
34841W        W 5441   2.152  27.486   0.496
34842W        W 5442  17.404  11.331   1.778
34843W        W 5443   2.422  11.167  11.449
34844W        W 5444   9.217   4.212   4.677
34845W        W 5445  40.108  31.433  12.803
34846W        W 5446   0.913  44.083  10.683
34847W        W 5447  26.222   7.814  11.593
34848W        W 5448  18.275  32.129   0.320
34849W        W 5449  12.118  39.043  10.254
34850W        W 5450  22.547  15.369   0.518
34851W        W 5451  42.558  15.170  11.535
34852W        W 5452   1.444  24.990   1.306
34853W        W 5453  25.063  39.954   4.498
34854W        W 5454  20.405  39.947  13.718
34855W        W 5455  24.113   5.082  12.908
34856W        W 5456  16.067  13.085   3.188
34857W        W 5457   4.187  14.131  13.228
34858W        W 5458  35.466  29.500   4.124
34859W        W 5459  43.517  10.781   4.808
34860W        W 5460  31.882  25.546   1.758
34861W        W 5461  37.341   7.368  11.533
34862W        W 5462   1.360  43.446   3.302
34863W        W 5463  14.250  38.139  13.185
34864W        W 5464  18.695  40.234  14.466
34865W        W 5465  24.163  15.209   1.945
34866W        W 5466  38.948  35.245   5.041
34867W        W 5467  43.250  15.008   2.371
34868W        W 5468  36.497  40.607  11.159
34869W        W 5469  15.123  21.491   2.864
34870W        W 5470  11.761   2.491  14.764
34871W        W 5471   7.309   2.448  14.249
34872W        W 5472  12.846   8.133  11.490
34873W        W 5473   0.574  12.309   0.781
34874W        W 5474  30.685  17.642  11.999
34875W        W 5475  11.038  14.446  13.391
34876W        W 5476  42.986  34.025  14.782
34877W        W 5477  41.338  21.470   1.998
34878W        W 5478  16.587  22.060  11.546
34879W        W 5479  20.168  36.568   2.726
34880W        W 5480   4.586  13.869   1.282
34881W        W 5481  42.573  41.072  10.559
34882W        W 5482  31.610  24.365  12.557
34883W        W 5483  27.094   4.191   2.131
34884W        W 5484  32.701  13.634  11.913
34885W        W 5485  18.153  34.165  11.645
34886W        W 5486   6.201  41.529   3.329
34887W        W 5487  26.472   4.841   2.252
34888W        W 5488  32.116  10.885  11.037
34889W        W 5489  29.676  20.220   1.036
34890W        W 5490  21.587  25.052   3.181
34891W        W 5491  32.943  25.556  10.943
34892W        W 5492  28.542  35.123   2.349
34893W        W 5493  35.710  12.410  11.483
34894W        W 5494  23.873  37.391   2.823
34895W        W 5495  29.398  41.465   0.350
34896W        W 5496  33.369  33.283  11.601
34897W        W 5497  26.508   4.749   3.170
34898W        W 5498  26.019  36.652   4.841
34899W        W 5499  22.671  29.115   0.593
34900W        W 5500  22.686  20.004   3.218
34901W        W 5501   3.290  13.818   1.374
34902W        W 5502  15.779  16.598   2.375
34903W        W 5503  35.044  10.798   4.903
34904W        W 5504  29.024  43.808   4.390
34905W        W 5505   7.244  35.348   1.304
34906W        W 5506  31.185  39.301  11.199
34907W        W 5507  27.981  23.266  12.903
34908W        W 5508  33.915  11.715   0.220
34909W        W 5509  13.060  24.869  13.386
34910W        W 5510  13.165  36.949  11.998
34911W        W 5511   9.777  43.415   4.893
34912W        W 5512  14.038  25.427  12.477
34913W        W 5513  44.284   1.135   1.570
34914W        W 5514  40.372  38.113  12.109
34915W        W 5515   4.405  30.443   4.914
34916W        W 5516   0.938  11.730  14.320
34917W        W 5517  35.912  14.213   4.152
34918W        W 5518  32.561  38.533  14.588
34919W        W 5519  36.905   5.866   1.446
34920W        W 5520  30.964  39.853   0.278
34921W        W 5521   2.180  15.185   0.320
34922W        W 5522   8.799  15.231   4.553
34923W        W 5523   3.603   6.725   2.255
34924W        W 5524   3.956   0.773  11.960
34925W        W 5525  34.366  29.544  11.837
34926W        W 5526  10.621   8.775   4.436
34927W        W 5527  11.662  14.706   0.177
34928W        W 5528  36.806  11.331   0.814
34929W        W 5529  13.953  39.590   0.438
34930W        W 5530  38.363  12.740  11.449
34931W        W 5531  20.302  23.117   1.798
34932W        W 5532  39.094   9.259  12.815
34933W        W 5533  40.585   3.727   4.968
34934W        W 5534  16.715  23.958   2.957
34935W        W 5535  42.040  26.686   4.160
34936W        W 5536  37.403  36.563   1.728
34937W        W 5537  16.230  21.824  12.674
34938W        W 5538   4.238  10.732  13.825
34939W        W 5539  34.127  31.720  11.106
34940W        W 5540   5.477  19.196   1.313
34941W        W 5541   8.085  44.348  14.988
34942W        W 5542  19.269  32.945  11.515
34943W        W 5543  13.045   1.209  12.394
34944W        W 5544   8.446   5.200   1.274
34945W        W 5545  44.331  33.364   4.757
34946W        W 5546  21.443  27.572   3.063
34947W        W 5547  41.410   9.897  13.735
34948W        W 5548   3.526  30.524  14.950
34949W        W 5549  34.130  11.461   3.595
34950W        W 5550  30.375  39.519  11.526
34951W        W 5551  21.008  25.737   1.778
34952W        W 5552   0.301  17.552  14.840
34953W        W 5553  26.587   0.516  11.657
34954W        W 5554  26.102  42.986   4.754
34955W        W 5555  23.186  10.890   0.781
34956W        W 5556  39.388  31.918  12.875
34957W        W 5557  37.429   4.944   3.346
34958W        W 5558  42.815  20.278   2.304
34959W        W 5559  36.424  33.624  12.945
34960W        W 5560   1.730  21.927  11.005
34961W        W 5561  32.673  31.692   3.155
34962W        W 5562  17.683   1.700   0.760
34963W        W 5563  38.024  40.034   3.645
34964W        W 5564  44.249  13.826   4.587
34965W        W 5565  19.489   3.317   2.473
34966W        W 5566  23.258  18.329   2.219
34967W        W 5567  25.707   9.120  12.384
34968W        W 5568   2.877  43.760  13.318
34969W        W 5569  44.945   4.726  12.565
34970W        W 5570  26.805  33.649   1.241
34971W        W 5571  26.442  35.818   3.205
34972W        W 5572  12.144  17.373   3.223
34973W        W 5573  38.668  23.624  10.716
34974W        W 5574   1.558  22.750  13.417
34975W        W 5575  41.836   9.599   2.110
34976W        W 5576   2.294  29.108  14.526
34977W        W 5577   6.799   1.605   3.327
34978W        W 5578  33.878  16.140  11.524
34979W        W 5579   8.319  40.440   2.946
34980W        W 5580  41.542  32.423  14.957
34981W        W 5581  33.341  15.570  11.080
34982W        W 5582  25.693  28.147  13.654
34983W        W 5583   3.038   0.434   4.881
34984W        W 5584  44.425  15.295   1.823
34985W        W 5585  22.424  14.652  13.060
34986W        W 5586  35.001  32.598   1.468
34987W        W 5587  31.873  19.214  10.785
34988W        W 5588  34.890  35.666   4.323
34989W        W 5589  40.845   6.994  11.548
34990W        W 5590  43.089  19.575  13.350
34991W        W 5591  17.302   6.487   2.824
34992W        W 5592  26.417  11.368   3.731
34993W        W 5593  30.910  35.419  13.084
34994W        W 5594   6.934   1.666  13.487
34995W        W 5595  12.234  35.452  13.244
34996W        W 5596  16.047  32.442   2.765
34997W        W 5597  11.347   5.841  10.721
34998W        W 5598  18.221   6.203  13.570
34999W        W 5599  16.299  16.148  14.386
35000W        W 5600  30.751  11.578   1.048
35001W        W 5601  38.362  14.359   2.014
35002W        W 5602  33.526  26.451  13.820
35003W        W 5603  23.616  23.148   1.337
35004W        W 5604  19.318  41.830  12.156
35005W        W 5605   6.665  21.799   3.243
35006W        W 5606  44.252  37.928  10.929
35007W        W 5607  44.053  11.726  12.185
35008W        W 5608  44.263   0.508   3.900
35009W        W 5609  23.211  42.460  12.443
35010W        W 5610  39.788  31.423   2.396
35011W        W 5611   2.015  12.411  14.425
35012W        W 5612  11.901   2.299   0.373
35013W        W 5613   7.358  35.465  14.114
35014W        W 5614  14.074   1.700   0.824
35015W        W 5615  35.527  18.552   2.883
35016W        W 5616  17.202  17.487   4.203
35017W        W 5617  34.863   5.292  12.646
35018W        W 5618   0.255   5.854  12.934
35019W        W 5619  17.304  33.513  11.566
35020W        W 5620  16.630   9.801  12.923
35021W        W 5621  26.566   2.683  12.443
35022W        W 5622   4.762  26.541  14.738
35023W        W 5623  26.687  22.471   2.419
35024W        W 5624  22.130  24.317   1.585
35025W        W 5625  27.230  40.919  10.671
35026W        W 5626  10.149  35.908   4.114
35027W        W 5627  11.638   6.737   1.850
35028W        W 5628  23.009  42.572   4.989
35029W        W 5629  28.480  38.340  10.274
35030W        W 5630  44.309  32.899  11.759
35031W        W 5631  21.184   9.659  10.708
35032W        W 5632  32.834  33.464   1.846
35033W        W 5633  29.496  28.553   0.981
35034W        W 5634  37.454  24.462  10.687
35035W        W 5635  10.340  20.985  14.055
35036W        W 5636  25.939  35.397  11.066
35037W        W 5637   6.293  35.103   4.242
35038W        W 5638  33.876  34.464  14.840
35039W        W 5639   7.779  41.580  12.445
35040W        W 5640  10.702  16.037   2.268
35041W        W 5641  34.920  35.569  14.090
35042W        W 5642  34.126  12.751   4.010
35043W        W 5643  11.616  16.142  11.225
35044W        W 5644  35.775  42.549   4.576
35045W        W 5645  11.531  44.162  10.954
35046W        W 5646  24.889  22.933  12.101
35047W        W 5647  13.596  33.910   2.271
35048W        W 5648  14.785  44.401   3.277
35049W        W 5649  22.644   5.252   1.211
35050W        W 5650  42.844  20.562  14.205
35051W        W 5651  39.919  12.574   4.695
35052W        W 5652  36.585  10.804   2.734
35053W        W 5653  44.868  36.615  12.834
35054W        W 5654  35.397  28.127  14.740
35055W        W 5655  17.151  15.709   1.719
35056W        W 5656  18.703  44.313   1.282
35057W        W 5657  42.438  13.709   2.402
35058W        W 5658  44.563   2.777  14.212
35059W        W 5659  43.390  32.656  13.868
35060W        W 5660  32.590  38.459   1.051
35061W        W 5661  24.442  25.403  13.948
35062W        W 5662   2.746  43.778   2.796
35063W        W 5663  27.483  34.409   2.743
35064W        W 5664   0.805  39.863  11.091
35065W        W 5665   1.891  25.337   0.402
35066W        W 5666  30.474  37.958   1.303
35067W        W 5667  27.872  10.285  11.558
35068W        W 5668  21.549   2.755  11.455
35069W        W 5669  21.789  26.054   0.124
35070W        W 5670   6.209   9.414   1.771
35071W        W 5671  27.364  15.037   4.177
35072W        W 5672  11.296  36.351   3.613
35073W        W 5673  19.281  11.326  12.070
35074W        W 5674  28.492  22.065   2.872
35075W        W 5675  33.111  18.912  11.140
35076W        W 5676  43.231  36.850  14.862
35077W        W 5677  42.538   0.420   0.987
35078W        W 5678  28.340  41.569   1.906
35079W        W 5679  21.940  33.872  12.482
35080W        W 5680   4.800  24.525  13.553
35081W        W 5681  20.818  23.123   1.746
35082W        W 5682  26.587  32.042   2.833
35083W        W 5683  41.927  30.265   4.633
35084W        W 5684  24.419  14.199   1.904
35085W        W 5685  39.407  13.113   4.058
35086W        W 5686  16.848  39.538   1.903
35087W        W 5687  10.853  21.789  13.857
35088W        W 5688  13.421  37.934   3.761
35089W        W 5689   3.026  40.496   1.193
35090W        W 5690  18.278  34.283   2.863
35091W        W 5691  33.213  13.807  14.788
35092W        W 5692   9.735  39.991  13.275
35093W        W 5693  35.529  14.202  11.232
35094W        W 5694   4.522   8.457   2.479
35095W        W 5695  19.154  34.530  14.104
35096W        W 5696   6.635   6.237  13.156
35097W        W 5697  15.564   6.710  12.115
35098W        W 5698  32.107  34.823   9.922
35099W        W 5699  33.993  20.607   2.461
35100W        W 5700  34.237  27.684   1.537
35101W        W 5701  25.219  36.810   3.964
35102W        W 5702   5.862   4.174  14.841
35103W        W 5703  14.318  36.368   1.278
35104W        W 5704  20.225  39.758  10.766
35105W        W 5705  15.195  39.299  11.132
35106W        W 5706  28.298  15.985  13.073
35107W        W 5707  35.057   2.805   4.160
35108W        W 5708  25.139  30.907   4.392
35109W        W 5709  35.352   7.463   5.045
35110W        W 5710  25.960   7.560   5.034
35111W        W 5711  17.785   2.689  13.026
35112W        W 5712  17.989  29.257  13.958
35113W        W 5713  41.119   5.893   2.385
35114W        W 5714  44.301   2.888   3.600
35115W        W 5715   1.230  23.549  10.624
35116W        W 5716  18.700  42.839   0.315
35117W        W 5717  44.389  25.704   0.979
35118W        W 5718   6.323  33.620  10.915
35119W        W 5719  31.875   9.362   2.452
35120W        W 5720  44.459  16.710   1.201
35121W        W 5721   8.776  42.600  12.979
35122W        W 5722   0.063  25.406  13.258
35123W        W 5723  37.183  22.147  14.343
35124W        W 5724  29.290  10.647  11.661
35125W        W 5725   1.499  43.953   3.141
35126W        W 5726   1.425  31.633   1.318
35127W        W 5727  41.196   3.671   4.173
35128W        W 5728  12.155  27.565   0.252
35129W        W 5729  24.574   7.437  12.333
35130W        W 5730  41.751  37.050   3.705
35131W        W 5731   3.281  28.927  14.274
35132W        W 5732   9.454   8.389  13.133
35133W        W 5733  36.989  18.494  12.082
35134W        W 5734  33.108  24.668  13.006
35135W        W 5735  37.929  15.033   0.393
35136W        W 5736  29.477   4.983  12.435
35137W        W 5737   2.947   3.273   4.651
35138W        W 5738   1.498   6.207   0.712
35139W        W 5739  32.044  28.694   3.185
35140W        W 5740  14.809  26.124   4.338
35141W        W 5741  21.797  24.855  13.591
35142W        W 5742  19.070  40.350   1.819
35143W        W 5743  32.263  30.282   3.220
35144W        W 5744  30.938  27.513  13.366
35145W        W 5745  27.627  23.607  13.060
35146W        W 5746   0.698  18.147  10.274
35147W        W 5747  42.878  25.508   4.158
35148W        W 5748  13.285  22.242   1.841
35149W        W 5749   7.682  44.483  10.716
35150W        W 5750  38.191   6.921  11.182
35151W        W 5751  32.422  30.428   0.891
35152W        W 5752  12.417  29.699  12.360
35153W        W 5753   4.801  10.365   2.258
35154W        W 5754   3.101  18.870  13.078
35155W        W 5755  26.780  38.162   0.655
35156W        W 5756  44.041   3.660  11.410
35157W        W 5757  21.101  37.768  14.947
35158W        W 5758  30.686  20.288   4.729
35159W        W 5759  34.637  17.455   0.361
35160W        W 5760  15.696  42.255   4.156
35161W        W 5761   6.250  35.955   0.219
35162W        W 5762   7.172   4.886  12.797
35163W        W 5763   1.789  11.405   4.149
35164W        W 5764   4.725  35.344   2.322
35165W        W 5765  17.966  23.691   0.644
35166W        W 5766  41.489  12.758   1.975
35167W        W 5767   7.463  16.937   3.218
35168W        W 5768  31.831  37.455  11.913
35169W        W 5769  22.901  43.867   4.517
35170W        W 5770  19.197  17.530   3.839
35171W        W 5771   0.767   4.351  14.548
35172W        W 5772  11.829  17.271   2.738
35173W        W 5773  21.616  31.830  14.889
35174W        W 5774  20.853   9.722   2.287
35175W        W 5775  27.133   3.461  13.887
35176W        W 5776  16.651  25.509   1.873
35177W        W 5777   4.874  11.467   1.438
35178W        W 5778  41.493  40.014  13.803
35179W        W 5779   1.000  39.147   3.649
35180W        W 5780  20.503  40.806  13.094
35181W        W 5781  39.569  30.087  14.344
35182W        W 5782  34.848   6.051  10.187
35183W        W 5783  39.893   2.348   2.303
35184W        W 5784   9.846  36.389  10.448
35185W        W 5785  18.267   3.999  14.249
35186W        W 5786  30.165  11.103   2.729
35187W        W 5787  41.743  11.705   0.349
35188W        W 5788  26.514  12.051  11.177
35189W        W 5789  27.573  13.687  12.913
35190W        W 5790  30.079   8.987  14.474
35191W        W 5791  24.144  42.883  10.732
35192W        W 5792   1.097   9.326  11.609
35193W        W 5793  19.618  29.909  13.584
35194W        W 5794  21.635  10.294  11.612
35195W        W 5795  26.688  12.612  13.790
35196W        W 5796  21.505   1.539  13.854
35197W        W 5797   5.006  19.129   3.193
35198W        W 5798  23.105  23.812  11.987
35199W        W 5799   7.388  26.717  14.427
35200W        W 5800  40.682  20.130  12.142
35201W        W 5801   4.443  40.286   4.188
35202W        W 5802  12.617  31.057   4.049
35203W        W 5803  27.976  22.648   5.017
35204W        W 5804  30.654  11.144   0.285
35205W        W 5805  35.069  39.567  14.334
35206W        W 5806   1.414  18.990  12.067
35207W        W 5807   7.810  22.676  11.892
35208W        W 5808  43.437  12.231   2.855
35209W        W 5809  25.581   6.065   1.398
35210W        W 5810  31.277   0.571   1.771
35211W        W 5811  41.468   6.259   2.187
35212W        W 5812  35.147  42.841  10.354
35213W        W 5813  28.968  27.120   3.601
35214W        W 5814  27.124  22.451  11.071
35215W        W 5815  22.968  14.697   1.515
35216W        W 5816  28.164   9.736   0.458
35217W        W 5817  11.751  10.150   1.717
35218W        W 5818  16.644  31.666   4.162
35219W        W 5819  31.976  25.285   5.181
35220W        W 5820  32.439  39.691  14.797
35221W        W 5821   8.780  19.304   2.255
35222W        W 5822  28.449   0.380  12.133
35223W        W 5823   6.144  25.049   3.293
35224W        W 5824  26.528  22.019   2.190
35225W        W 5825  21.068  37.019   0.740
35226W        W 5826   0.470  10.818  11.120
35227W        W 5827  26.854   4.045   1.706
35228W        W 5828  36.491  38.170   2.728
35229W        W 5829   8.107  23.878   4.145
35230W        W 5830  37.638  41.396   1.995
35231W        W 5831   5.910  31.905  12.015
35232W        W 5832  40.029  39.359  11.993
35233W        W 5833  15.830  30.018   2.201
35234W        W 5834  39.423   6.287  12.589
35235W        W 5835  38.390  37.898   4.263
35236W        W 5836  44.965  12.307   1.905
35237W        W 5837   2.657   8.254   4.223
35238W        W 5838  35.155   1.350   0.939
35239W        W 5839  20.244   9.007   2.352
35240W        W 5840  34.906  11.155   1.646
35241W        W 5841   2.806  23.042  14.811
35242W        W 5842  17.225  32.437   4.556
35243W        W 5843   9.413  24.520  11.648
35244W        W 5844  40.509  44.477   0.391
35245W        W 5845  13.543  23.211   0.344
35246W        W 5846  24.704  41.510  12.446
35247W        W 5847  31.435  26.198  11.935
35248W        W 5848  37.033  16.524  11.920
35249W        W 5849   7.113  38.905   0.559
35250W        W 5850  33.081  25.757   4.295
35251W        W 5851  36.820  35.458  14.950
35252W        W 5852  32.580  26.221   1.136
35253W        W 5853  19.624   8.803  12.402
35254W        W 5854  21.396  16.783  14.829
35255W        W 5855  36.883  24.912  11.152
35256W        W 5856  12.075   1.078   3.256
35257W        W 5857  11.234  11.679  13.950
35258W        W 5858  41.453  19.708  13.071
35259W        W 5859  39.331  23.551   1.391
35260W        W 5860   4.757  24.158   0.028
35261W        W 5861  42.920   1.454   1.941
35262W        W 5862  18.012   1.854   4.738
35263W        W 5863   4.784   6.144   4.070
35264W        W 5864  20.875  12.886  10.370
35265W        W 5865  26.030  18.571  13.686
35266W        W 5866  35.770   4.479   3.942
35267W        W 5867  37.416  39.982   4.562
35268W        W 5868  29.021  33.109   2.292
35269W        W 5869  44.163  22.106  10.586
35270W        W 5870   4.928  34.905  10.148
35271W        W 5871  33.551   4.260   4.614
35272W        W 5872  29.532   6.791  10.905
35273W        W 5873  42.433   7.028   3.852
35274W        W 5874   0.434  29.718  11.422
35275W        W 5875  24.511  38.065  12.379
35276W        W 5876  22.398   3.653  13.424
35277W        W 5877  37.379  29.708  13.000
35278W        W 5878  41.198   9.061   4.957
35279W        W 5879  22.170  23.089   1.128
35280W        W 5880  44.741   1.398   2.342
35281W        W 5881  40.562  30.709  10.890
35282W        W 5882   1.022   0.184  11.811
35283W        W 5883   0.481  41.298  12.649
35284W        W 5884   8.885  25.624   3.050
35285W        W 5885  27.371  34.874   2.500
35286W        W 5886  25.194  27.175  11.615
35287W        W 5887  31.069  13.765   1.719
35288W        W 5888  29.018   0.493  13.764
35289W        W 5889  22.199  17.249   0.094
35290W        W 5890  17.566   7.972   3.221
35291W        W 5891   6.372   1.771   0.631
35292W        W 5892  19.479  16.599  11.507
35293W        W 5893  35.241  11.273  11.737
35294W        W 5894  32.782  30.394   0.033
35295W        W 5895  24.855  17.310  13.426
35296W        W 5896  40.803  22.769  11.621
35297W        W 5897   1.375   5.927   3.829
35298W        W 5898  29.999  39.326  13.504
35299W        W 5899  40.497  44.171  11.905
35300W        W 5900  14.573  20.365   1.777
35301W        W 5901  17.927  34.115  12.487
35302W        W 5902   1.538  36.318  11.255
35303W        W 5903   1.808   7.605  11.359
35304W        W 5904  38.700  18.331  13.058
35305W        W 5905  13.674  25.437   3.135
35306W        W 5906  10.743  12.709  13.104
35307W        W 5907  17.466  19.146   2.765
35308W        W 5908   7.532  19.327   5.079
35309W        W 5909  39.570  16.087   2.181
35310W        W 5910  35.124  44.326  14.858
35311W        W 5911  16.296  11.329  11.624
35312W        W 5912  36.632  22.965   0.146
35313W        W 5913  14.713  25.162   3.158
35314W        W 5914   2.277  16.561   4.646
35315W        W 5915   2.733  21.557  13.284
35316W        W 5916   9.395  34.529   3.227
35317W        W 5917  38.024   4.067  13.470
35318W        W 5918  29.354  23.180  11.300
35319W        W 5919   6.007  29.132   4.613
35320W        W 5920  11.223  26.989   1.313
35321W        W 5921   8.167  37.406  14.539
35322W        W 5922  43.258  44.738   2.322
35323W        W 5923  21.782   7.461   1.287
35324W        W 5924   8.609  27.267  12.676
35325W        W 5925  14.420  14.666   2.705
35326W        W 5926   5.235   9.147   4.241
35327W        W 5927  19.740   6.333  10.869
35328W        W 5928   2.750  35.614   3.048
35329W        W 5929   2.565  21.121   3.209
35330W        W 5930  27.799  42.391  13.256
35331W        W 5931  20.765   0.984   4.577
35332W        W 5932  38.544  44.062  12.904
35333W        W 5933  17.696   4.273  12.271
35334W        W 5934  44.749   7.153  14.225
35335W        W 5935  17.670  44.769   3.105
35336W        W 5936  20.643  38.054  14.912
35337W        W 5937   0.960  31.846  11.995
35338W        W 5938  21.361  32.412   0.756
35339W        W 5939  14.418  18.466   1.910
35340W        W 5940  38.444  20.576   2.329
35341W        W 5941  43.679  30.118  14.032
35342W        W 5942  14.079  26.757   5.244
35343W        W 5943   0.143  26.498  13.969
35344W        W 5944  12.173  39.893   0.258
35345W        W 5945  17.986  24.835   5.245
35346W        W 5946   8.230  32.356  12.415
35347W        W 5947  24.696  11.905   4.348
35348W        W 5948   0.969  34.001  10.197
35349W        W 5949  34.949   7.647   1.395
35350W        W 5950  29.638  38.474   2.114
35351W        W 5951   0.934  21.344   2.455
35352W        W 5952  16.659  20.304  11.058
35353W        W 5953   0.176  21.725  14.535
35354W        W 5954  30.631  31.186  14.674
35355W        W 5955   0.775  27.143  13.133
35356W        W 5956  33.667   1.833   4.997
35357W        W 5957  25.357   7.387  11.127
35358W        W 5958  23.584  25.214   2.332
35359W        W 5959  11.109  22.001  12.481
35360W        W 5960   1.253  32.842   1.768
35361W        W 5961  34.353  12.631   1.847
35362W        W 5962  44.302   6.891  12.525
35363W        W 5963  12.703  15.318  10.311
35364W        W 5964  36.762  29.615   5.121
35365W        W 5965  28.019  19.869  11.989
35366W        W 5966  14.364  30.329   2.320
35367W        W 5967  25.173  31.553  10.643
35368W        W 5968  16.166  27.090  11.676
35369W        W 5969  11.978  11.791  14.856
35370W        W 5970   1.085  27.845  12.956
35371W        W 5971   7.971   9.117   1.180
35372W        W 5972  21.476  42.790  13.450
35373W        W 5973  34.391  32.144   3.580
35374W        W 5974  31.208  37.429   5.178
35375W        W 5975   2.854  18.714   2.223
35376W        W 5976  31.165  33.600  10.591
35377W        W 5977  28.210  35.613   2.769
35378W        W 5978  25.714   1.748   0.778
35379W        W 5979  30.392  44.928   4.679
35380W        W 5980  43.931   9.619  10.745
35381W        W 5981  44.221  16.649   1.646
35382W        W 5982  20.686  24.133  14.258
35383W        W 5983  34.490  32.092   4.932
35384W        W 5984  15.258  44.302   1.934
35385W        W 5985  38.070   9.318  12.987
35386W        W 5986  34.554  19.130   2.041
35387W        W 5987  17.844  17.726  11.689
35388W        W 5988   2.029  15.625   1.330
35389W        W 5989  10.587   6.391   0.803
35390W        W 5990  31.866  34.103   0.960
35391W        W 5991   5.678  42.750   4.548
35392W        W 5992  29.922   5.473  12.606
35393W        W 5993  22.681  17.279   0.334
35394W        W 5994   3.533  38.562  10.993
35395W        W 5995   5.084  37.344  11.685
35396W        W 5996  23.491   0.951   2.615
35397W        W 5997  27.549  27.071  12.604
35398W        W 5998  25.024  18.618  10.455
35399W        W 5999  27.972  39.440  14.850
35400W        W 6000  29.559  26.506  10.581
35401W        W 6001  18.250  34.140   3.356
35402W        W 6002  40.773  15.824  14.310
35403W        W 6003  43.298  19.157   1.415
35404W        W 6004  39.356  34.655  13.123
35405W        W 6005   9.346  26.394  11.687
35406W        W 6006  32.552   4.835  10.098
35407W        W 6007  32.057  13.537   3.719
35408W        W 6008  42.383  12.833   3.490
35409W        W 6009  32.323  44.508  12.922
35410W        W 6010  18.592  31.088  11.721
35411W        W 6011  44.772  17.999  12.491
35412W        W 6012   9.616  12.776   2.258
35413W        W 6013  36.604  37.781  13.426
35414W        W 6014   5.072  14.943   2.829
35415W        W 6015   8.811  18.259   1.855
35416W        W 6016   5.814   4.942  14.532
35417W        W 6017  43.804   2.789  10.707
35418W        W 6018  37.008  37.369  10.823
35419W        W 6019  42.805  39.142   2.072
35420W        W 6020  35.210  24.307   3.587
35421W        W 6021   1.985  10.853   0.875
35422W        W 6022  10.725   4.350   0.957
35423W        W 6023  10.160   0.740   3.247
35424W        W 6024  17.283   2.813   2.145
35425W        W 6025   7.899  14.738   1.738
35426W        W 6026  23.460  31.761  11.965
35427W        W 6027   3.931   6.826  14.681
35428W        W 6028  39.514  19.310  13.540
35429W        W 6029   6.324  38.289  12.407
35430W        W 6030   1.815  29.931  11.523
35431W        W 6031  19.742  37.057   1.327
35432W        W 6032  20.541   3.209   4.991
35433W        W 6033  23.343  31.860   3.271
35434W        W 6034  12.488  22.429  11.647
35435W        W 6035  22.110  24.538  13.345
35436W        W 6036   4.908  22.304  11.038
35437W        W 6037   0.441   0.839  12.021
35438W        W 6038  27.352  40.979  11.552
35439W        W 6039  38.880  18.253  10.724
35440W        W 6040   7.437  36.537   3.654
35441W        W 6041   5.957  40.887  13.148
35442W        W 6042  33.816  11.194   3.302
35443W        W 6043  36.494  41.524   1.394
35444W        W 6044  20.324  21.057   2.187
35445W        W 6045  25.575  17.378   0.913
35446W        W 6046  39.605  38.466   1.857
35447W        W 6047   0.027  13.808  12.484
35448W        W 6048  43.358  13.142   4.905
35449W        W 6049  24.032  10.670   4.390
35450W        W 6050  37.743  25.287   3.507
35451W        W 6051  19.635  33.029  14.357
35452W        W 6052  42.119   8.868  13.406
35453W        W 6053  12.752  27.768  11.858
35454W        W 6054  16.649   1.787   4.910
35455W        W 6055   2.699  40.975   2.901
35456W        W 6056  11.557  36.377  13.262
35457W        W 6057  31.443  25.596   3.567
35458W        W 6058  11.112   6.578   0.770
35459W        W 6059  36.480  19.143   4.635
35460W        W 6060  39.592  34.379  12.040
35461W        W 6061  18.294  39.555   2.752
35462W        W 6062   0.920  29.544  12.262
35463W        W 6063  42.228  26.511   1.814
35464W        W 6064   7.184  22.589  13.049
35465W        W 6065   0.738  12.772   1.025
35466W        W 6066  39.812   0.945   3.235
35467W        W 6067   1.332  15.783   0.024
35468W        W 6068  15.391  22.508  13.447
35469W        W 6069  34.566  30.157  11.992
35470W        W 6070  36.393  22.539  12.132
35471W        W 6071  41.458  13.984  11.489
35472W        W 6072   4.373   5.334  13.283
35473W        W 6073  21.744  16.276   2.011
35474W        W 6074  39.481  37.618   0.430
35475W        W 6075   1.838  43.942  12.815
35476W        W 6076  13.593  28.302  14.320
35477W        W 6077  27.517  30.111   0.399
35478W        W 6078   2.234  10.133  14.497
35479W        W 6079  21.749  38.538  12.127
35480W        W 6080  26.430  39.858   1.328
35481W        W 6081   9.534  31.651  14.241
35482W        W 6082  14.687   9.418   2.427
35483W        W 6083  27.115  11.249  14.792
35484W        W 6084  31.217  39.099  14.093
35485W        W 6085  41.923  31.095   3.299
35486W        W 6086  33.859  24.995   1.232
35487W        W 6087  33.098  38.133   3.791
35488W        W 6088  36.451  30.540   0.738
35489W        W 6089  34.430  40.341   1.499
35490W        W 6090  39.240   3.118   3.688
35491W        W 6091  36.583  19.583   0.979
35492W        W 6092  28.060  12.230  14.918
35493W        W 6093  28.251  26.507  11.102
35494W        W 6094  36.989  15.461   1.252
35495W        W 6095  41.064  23.796  11.684
35496W        W 6096  10.165  15.997  12.015
35497W        W 6097  33.013   7.150  12.508
35498W        W 6098   7.259  37.149  13.102
35499W        W 6099  22.020  31.643  13.544
35500W        W 6100   7.370   8.081  11.116
35501W        W 6101   8.295  13.740  13.277
35502W        W 6102  18.675  40.507   0.307
35503W        W 6103   8.748   9.150   3.076
35504W        W 6104  37.055  18.034   0.684
35505W        W 6105  25.132   7.330  10.661
35506W        W 6106  39.576  16.536   4.854
35507W        W 6107   7.697  17.528   0.577
35508W        W 6108  42.847  29.035  13.832
35509W        W 6109  13.797  42.368   1.417
35510W        W 6110  28.125  15.127   0.593
35511W        W 6111  12.126  15.590   4.556
35512W        W 6112  30.472  35.113  11.241
35513W        W 6113   4.377  20.999  11.112
35514W        W 6114  18.202   6.272  13.047
35515W        W 6115   7.707  41.571   2.815
35516W        W 6116  44.679  36.057   2.473
35517W        W 6117  34.917  37.378   0.352
35518W        W 6118   7.734   0.289  14.255
35519W        W 6119  11.828  26.600   3.321
35520W        W 6120  38.873  17.541   0.453
35521W        W 6121  12.204  17.549  12.542
35522W        W 6122  35.450  14.758  14.813
35523W        W 6123   6.577  21.206   2.785
35524W        W 6124  14.407  37.732   0.206
35525W        W 6125  20.190  19.795   1.802
35526W        W 6126   9.383  27.768  13.359
35527W        W 6127  16.553  32.622   1.395
35528W        W 6128  11.725  14.085  14.233
35529W        W 6129   6.425  15.221   4.734
35530W        W 6130  18.378  20.044  13.968
35531W        W 6131   4.229  23.485  12.922
35532W        W 6132  28.737  24.595   4.449
35533W        W 6133  24.710  41.004  14.120
35534W        W 6134  33.391  34.515   2.672
35535W        W 6135  10.220  19.069   0.240
35536W        W 6136  17.196  15.328   3.211
35537W        W 6137  37.872  19.639   2.285
35538W        W 6138  42.363  32.148  14.764
35539W        W 6139  28.849  25.589   3.790
35540W        W 6140  41.084  25.474  13.787
35541W        W 6141   1.846  18.085   3.311
35542W        W 6142  29.549  35.694   1.876
35543W        W 6143  35.000   8.449   3.786
35544W        W 6144  32.407  27.098   2.751
35545W        W 6145  32.545   5.033   3.901
35546W        W 6146  39.848  41.525   4.283
35547W        W 6147  39.967  16.637  14.043
35548W        W 6148  36.046  31.484  12.904
35549W        W 6149  39.708  14.673   0.961
35550W        W 6150  20.296  37.839   1.490
35551W        W 6151  24.403  21.843   2.705
35552W        W 6152  11.851  39.002  13.871
35553W        W 6153   1.411  26.398   4.037
35554W        W 6154  19.704  31.457  11.636
35555W        W 6155   6.845  17.862  14.278
35556W        W 6156  10.230  35.771   5.003
35557W        W 6157  18.135  24.158   1.911
35558W        W 6158  31.688  36.565   4.662
35559W        W 6159   0.695   6.833   4.197
35560W        W 6160  26.538   4.695  11.011
35561W        W 6161  21.033   9.388  12.463
35562W        W 6162  29.862  20.214  12.281
35563W        W 6163   1.955  32.970  11.886
35564W        W 6164  11.835  13.137  14.727
35565W        W 6165  42.750   2.018   0.764
35566W        W 6166  34.353  16.126  14.247
35567W        W 6167  28.064  27.737  10.628
35568W        W 6168  25.143  37.080   3.087
35569W        W 6169  35.562  13.517  14.326
35570W        W 6170  10.678  13.780   1.015
35571W        W 6171  26.539  38.455  13.450
35572W        W 6172  14.796  23.663   2.300
35573W        W 6173  17.237  37.266   4.163
35574W        W 6174   7.046   2.825  12.974
35575W        W 6175  27.417   0.384  12.922
35576W        W 6176  34.358  18.239  12.838
35577W        W 6177   9.314   6.910   0.492
35578W        W 6178   6.611   8.640   2.193
35579W        W 6179  37.510  44.693  14.722
35580W        W 6180  32.184  16.129   4.389
35581W        W 6181  37.252   1.968   2.931
35582W        W 6182  28.945  40.395   2.257
35583W        W 6183  31.101  28.591   3.715
35584W        W 6184  43.800  30.112  12.632
35585W        W 6185   4.644  40.967   2.310
35586W        W 6186  33.404  30.366   0.929
35587W        W 6187  14.307  31.487   2.609
35588W        W 6188  39.352  18.601   1.404
35589W        W 6189   4.824   1.187  12.034
35590W        W 6190   1.451  31.587  14.764
35591W        W 6191  40.079  12.120  12.858
35592W        W 6192  27.437  11.507   4.487
35593W        W 6193  13.115  36.054  13.932
35594W        W 6194  34.047   6.195   4.305
35595W        W 6195  42.041  35.152  11.154
35596W        W 6196  41.328  34.910  13.383
35597W        W 6197  28.510  12.217   0.689
35598W        W 6198   2.409  29.153  11.528
35599W        W 6199   0.968  31.289  13.543
35600W        W 6200  21.004  32.008   1.745
35601W        W 6201  32.541  21.726  11.147
35602W        W 6202  17.128  20.719  11.645
35603W        W 6203  41.997  33.820  13.933
35604W        W 6204  32.595  11.608  11.411
35605W        W 6205  14.356  10.326  10.697
35606W        W 6206  42.160   9.351   2.938
35607W        W 6207  19.466  27.042  12.011
35608W        W 6208  28.671  23.271  11.645
35609W        W 6209   8.797  22.717   1.406
35610W        W 6210  39.014  18.999   1.899
35611W        W 6211  25.189  28.008  12.388
35612W        W 6212  44.779  22.762  10.704
35613W        W 6213  37.674   6.349  13.361
35614W        W 6214  27.226  15.768  14.480
35615W        W 6215  33.984   6.216   3.265
35616W        W 6216  27.101  35.947  12.623
35617W        W 6217  28.010  26.720  13.894
35618W        W 6218  37.636  43.233  14.153
35619W        W 6219  32.231  19.338  13.992
35620W        W 6220  13.356  13.810   1.704
35621W        W 6221   2.499  16.138   0.895
35622W        W 6222  30.104  29.896   1.967
35623W        W 6223  23.592   3.152  12.075
35624W        W 6224  13.837  26.614   4.803
35625W        W 6225  39.546  41.931   3.208
35626W        W 6226   9.636  19.075  10.748
35627W        W 6227  42.364  20.072   1.409
35628W        W 6228  20.808  34.320   4.078
35629W        W 6229  28.583  10.346   3.650
35630W        W 6230  35.170  34.206   0.767
35631W        W 6231  40.060  41.945   3.264
35632W        W 6232  21.510   2.330  13.182
35633W        W 6233  21.304  33.454   2.887
35634W        W 6234  10.330  44.950  13.855
35635W        W 6235  40.960  20.420   9.835
35636W        W 6236  24.490  12.369  13.388
35637W        W 6237  37.872  44.219  13.821
35638W        W 6238  15.157  35.935   1.721
35639W        W 6239  18.321  23.262   1.442
35640W        W 6240  10.251  38.474   2.863
35641W        W 6241  21.229  18.727  11.886
35642W        W 6242  37.034  10.727   0.154
35643W        W 6243   7.294  43.318  11.631
35644W        W 6244  41.274  41.939  11.133
35645W        W 6245  10.799  37.544   4.182
35646W        W 6246  28.963  44.448  11.499
35647W        W 6247  22.690  27.562  12.615
35648W        W 6248  31.007  36.943   4.017
35649W        W 6249  22.318   9.610   3.772
35650W        W 6250  18.074  38.610   4.725
35651W        W 6251  40.137  32.993  11.721
35652W        W 6252  21.655  23.152  12.723
35653W        W 6253  19.808   5.419  14.914
35654W        W 6254  15.278   4.180  10.981
35655W        W 6255  24.106  29.126   0.854
35656W        W 6256  38.040   5.931  10.898
35657W        W 6257  15.897  43.285  11.717
35658W        W 6258  10.628   3.467  12.527
35659W        W 6259  30.756  28.782  12.466
35660W        W 6260  14.388   5.751   0.841
35661W        W 6261  32.963  36.480   2.453
35662W        W 6262  24.248   2.058   2.210
35663W        W 6263  37.925   2.739   2.211
35664W        W 6264   4.081   4.848  14.335
35665W        W 6265  31.392  38.202  10.975
35666W        W 6266  15.884  14.311   0.330
35667W        W 6267  40.823  22.501  13.809
35668W        W 6268   0.433   2.252  11.959
35669W        W 6269  27.969  23.420   3.878
35670W        W 6270  23.333  38.662  13.941
35671W        W 6271  16.337   9.445  10.920
35672W        W 6272  16.220   7.269   0.124
35673W        W 6273  37.674  15.735  10.387
35674W        W 6274  33.601  37.452  10.196
35675W        W 6275  44.550  32.198  11.048
35676W        W 6276  11.167  35.405  14.185
35677W        W 6277  21.402  26.911  14.477
35678W        W 6278  42.584  40.817   1.459
35679W        W 6279   5.252   8.706  10.419
35680W        W 6280  38.097  10.249   4.688
35681W        W 6281  33.586   3.995  13.049
35682W        W 6282  28.369   9.203   4.104
35683W        W 6283  17.150  19.770  11.536
35684W        W 6284   7.374  33.605   3.823
35685W        W 6285  16.944  16.841   1.006
35686W        W 6286  23.672  10.630  12.113
35687W        W 6287  44.682  33.880   2.312
35688W        W 6288  35.050  26.674  12.333
35689W        W 6289  32.091  15.152  14.826
35690W        W 6290  11.181   1.405   2.165
35691W        W 6291  26.991  27.261  13.912
35692W        W 6292  26.485  40.218  13.966
35693W        W 6293  31.034  42.773   1.835
35694W        W 6294  22.992  15.943   0.028
35695W        W 6295  15.961  41.501  10.373
35696W        W 6296  17.068  34.349   1.837
35697W        W 6297  35.345  23.616  14.994
35698W        W 6298  26.627  10.162   4.244
35699W        W 6299  28.804   5.975  13.786
35700W        W 6300  23.657  13.020  13.900
35701W        W 6301   5.399   4.116   0.093
35702W        W 6302  41.041  12.679   3.772
35703W        W 6303  19.899   1.083   5.120
35704W        W 6304  23.504  42.902   3.318
35705W        W 6305  15.241   7.883   4.325
35706W        W 6306   1.677   9.406  12.931
35707W        W 6307   0.592  21.977   1.832
35708W        W 6308  32.540   0.203   0.266
35709W        W 6309   9.771  43.170  13.982
35710W        W 6310  27.537  27.013   4.630
35711W        W 6311  26.551  21.812   1.345
35712W        W 6312   0.369   9.702  10.692
35713W        W 6313  39.040  21.315   2.213
35714W        W 6314  19.069  16.063   2.658
35715W        W 6315  26.863  32.797   4.827
35716W        W 6316  28.617  31.064  13.765
35717W        W 6317   9.237   0.565   2.307
35718W        W 6318  28.990  16.404   0.278
35719W        W 6319  39.412  19.196   0.527
35720W        W 6320  33.923  11.707   0.758
35721W        W 6321  25.098  38.392   0.456
35722W        W 6322   8.220  18.937  14.264
35723W        W 6323  20.735   2.500  11.657
35724W        W 6324  42.841  40.772   3.736
35725W        W 6325   4.388  13.141  12.184
35726W        W 6326  44.964  21.891  13.093
35727W        W 6327  18.248   1.745  14.363
35728W        W 6328  23.527  36.927   4.036
35729W        W 6329  16.798  32.609  12.686
35730W        W 6330  26.616  22.515   4.575
35731W        W 6331   5.705  35.744  10.830
35732W        W 6332  32.861  13.692  11.440
35733W        W 6333   5.198   8.764   0.177
35734W        W 6334  38.941  30.450  10.648
35735W        W 6335  22.630   0.532   4.159
35736W        W 6336  12.222   6.124   4.733
35737W        W 6337  37.981   7.703   0.790
35738W        W 6338  24.947  30.918  12.058
35739W        W 6339  16.552   9.889  10.778
35740W        W 6340   0.086  39.603   1.723
35741W        W 6341  25.157  12.874  13.132
35742W        W 6342   8.869  31.026  12.648
35743W        W 6343  43.817  35.589  11.759
35744W        W 6344  14.293   2.412  12.095
35745W        W 6345   6.184   9.916  11.573
35746W        W 6346   2.448   7.780   4.671
35747W        W 6347  15.660  35.443  13.503
35748W        W 6348  40.902  23.525   3.303
35749W        W 6349   4.792  37.885  11.038
35750W        W 6350  23.304  10.698  13.836
35751W        W 6351   4.664  17.262   3.754
35752W        W 6352   5.234  40.080  10.507
35753W        W 6353  43.020  31.116   4.090
35754W        W 6354  32.326  28.775   5.048
35755W        W 6355  10.695  19.474   3.595
35756W        W 6356   6.943   4.897   3.808
35757W        W 6357  31.168  11.638   2.174
35758W        W 6358  14.395  29.714   3.967
35759W        W 6359  19.127  10.919  13.567
35760W        W 6360  22.681   7.230   4.264
35761W        W 6361  32.493  38.627  12.479
35762W        W 6362  36.926   8.878   2.790
35763W        W 6363  34.972  41.266  10.690
35764W        W 6364  22.033  24.682  12.031
35765W        W 6365  23.031  39.026   3.764
35766W        W 6366  43.364  16.975   2.401
35767W        W 6367  11.304   4.450   2.428
35768W        W 6368   6.455   9.305   3.282
35769W        W 6369   6.714  20.251  10.738
35770W        W 6370  28.751  35.449  11.662
35771W        W 6371   9.356  17.954   2.922
35772W        W 6372  39.372  27.522   3.691
35773W        W 6373  29.875  31.977   0.418
35774W        W 6374  25.524  34.479  10.743
35775W        W 6375  20.185  36.821   1.405
35776W        W 6376  27.230  42.012  11.946
35777W        W 6377  29.873  27.772  11.658
35778W        W 6378  13.355  19.673  13.601
35779W        W 6379   4.708   4.725   4.041
35780W        W 6380  19.553  16.917  13.829
35781W        W 6381  24.663  40.597  13.817
35782W        W 6382   2.085  39.620   0.795
35783W        W 6383  44.229  10.462   0.810
35784W        W 6384  33.000   4.517   0.898
35785W        W 6385  33.498  36.205  10.806
35786W        W 6386  21.021  42.092  11.207
35787W        W 6387   8.159  39.460  13.900
35788W        W 6388  38.008  32.082  14.649
35789W        W 6389  41.535  41.400   4.535
35790W        W 6390  25.555  29.133  13.045
35791W        W 6391  38.556   6.798  12.391
35792W        W 6392  42.409  42.936  13.477
35793W        W 6393  30.376  24.690  12.408
35794W        W 6394   9.114  37.533   0.737
35795W        W 6395  20.784  34.877   1.673
35796W        W 6396  29.629  27.150  14.993
35797W        W 6397  11.832   4.374  14.129
35798W        W 6398   2.212  26.516  10.443
35799W        W 6399   0.087  11.918   1.318
35800W        W 6400   1.286  25.646   4.395
35801W        W 6401  39.509  32.523   3.487
35802W        W 6402  37.460  40.973  13.806
35803W        W 6403  42.295  14.149   3.532
35804W        W 6404  28.064  39.425  10.510
35805W        W 6405  38.760   6.234   2.329
35806W        W 6406  15.079   0.850  10.539
35807W        W 6407  13.687  28.415   1.258
35808W        W 6408  23.055  38.802   0.433
35809W        W 6409  35.568  26.576   0.792
35810W        W 6410  31.366  10.440   1.364
35811W        W 6411  41.063   5.881   1.047
35812W        W 6412  24.629  31.978  11.613
35813W        W 6413  14.756  33.825  14.857
35814W        W 6414   1.208  15.119   3.217
35815W        W 6415  35.526   1.290   3.343
35816W        W 6416  44.989  25.694   4.731
35817W        W 6417  39.481  38.135   0.371
35818W        W 6418  30.639  14.750   3.635
35819W        W 6419  17.324  31.529  13.523
35820W        W 6420  41.548  29.562  13.937
35821W        W 6421  41.418  28.505  12.348
35822W        W 6422  24.207  31.386   1.283
35823W        W 6423  14.808  21.499   0.356
35824W        W 6424  36.499  42.975   0.736
35825W        W 6425  39.324  10.592  13.827
35826W        W 6426  19.594  29.205  14.208
35827W        W 6427  17.088  43.418  12.072
35828W        W 6428  40.828  38.535   0.797
35829W        W 6429   3.419   7.716  12.452
35830W        W 6430   0.954  24.376  11.648
35831W        W 6431   4.643  17.074  12.471
35832W        W 6432  40.311  20.200  13.632
35833W        W 6433   4.682  44.758  13.843
35834W        W 6434  17.678  30.022  10.528
35835W        W 6435  18.748  42.965  12.053
35836W        W 6436  43.747  28.684  14.839
35837W        W 6437  20.073  26.506  14.523
35838W        W 6438  15.359  44.310  12.630
35839W        W 6439   4.068   3.197   3.693
35840W        W 6440  10.772  41.782  13.763
35841W        W 6441  27.432  41.621  13.896
35842W        W 6442   0.416   5.659   1.262
35843W        W 6443  14.360  23.476  11.502
35844W        W 6444  18.567  34.578   0.538
35845W        W 6445  22.431  38.506   3.668
35846W        W 6446  42.432  27.191  13.440
35847W        W 6447   4.183  18.693  13.005
35848W        W 6448  16.244   3.889   3.719
35849W        W 6449  30.867  24.568  11.040
35850W        W 6450  13.900  34.961  14.521
35851W        W 6451  15.771  16.772   2.843
35852W        W 6452  12.016  19.882  12.441
35853W        W 6453  31.892  16.566   2.766
35854W        W 6454   0.729  42.335   2.862
35855W        W 6455  24.019  29.595  13.963
35856W        W 6456  11.188  12.209  14.794
35857W        W 6457   6.755  22.767   3.279
35858W        W 6458  21.664   5.613   2.769
35859W        W 6459  22.472  26.143   4.204
35860W        W 6460  40.012  17.650  13.425
35861W        W 6461  35.494   1.361  11.590
35862W        W 6462  41.952  34.627  14.407
35863W        W 6463   2.373  18.056   2.784
35864W        W 6464  21.731  21.054   1.921
35865W        W 6465   3.060  13.561  13.330
35866W        W 6466  23.623  11.600  12.196
35867W        W 6467  41.420  29.654  12.582
35868W        W 6468  34.517  23.363  11.205
35869W        W 6469  11.116  33.141  10.689
35870W        W 6470  13.228   6.459   1.642
35871W        W 6471  26.655  27.570  11.674
35872W        W 6472   3.685  34.592   1.999
35873W        W 6473  13.792  27.735   3.666
35874W        W 6474   5.396   7.238   0.352
35875W        W 6475  21.043  40.865   3.805
35876W        W 6476  43.948   4.792  12.496
35877W        W 6477  43.017   1.963  11.482
35878W        W 6478  30.744   5.852  14.778
35879W        W 6479  10.914  20.430   2.534
35880W        W 6480  43.823   5.908   4.516
35881W        W 6481  16.682   3.178   1.780
35882W        W 6482  13.685  26.009   1.714
35883W        W 6483  37.849   5.787   1.466
35884W        W 6484   6.014  21.230  10.246
35885W        W 6485  25.081  25.749   2.078
35886W        W 6486  43.949  14.705   0.236
35887W        W 6487   3.367   1.720   0.869
35888W        W 6488  36.513  18.067  14.014
35889W        W 6489   0.987  44.773  13.467
35890W        W 6490  22.921  19.222  12.395
35891W        W 6491  18.403  25.190   5.251
35892W        W 6492   8.105  11.803  14.234
35893W        W 6493  33.842  14.499   0.722
35894W        W 6494  35.458  41.732  12.456
35895W        W 6495  16.098  20.519  14.469
35896W        W 6496  29.127  26.023   3.745
35897W        W 6497  30.447   1.483  13.767
35898W        W 6498  22.617  40.064  13.686
35899W        W 6499   1.391  37.300  10.508
35900W        W 6500  38.752   1.286  12.023
35901W        W 6501  35.812  10.615  12.092
35902W        W 6502  35.925  32.889  12.745
35903W        W 6503  40.815  28.649   4.710
35904W        W 6504   8.301  16.356  14.755
35905W        W 6505  23.147  14.752  10.757
35906W        W 6506  16.725  18.037  14.464
35907W        W 6507   3.894  12.770  10.732
35908W        W 6508  17.826  35.843  12.980
35909W        W 6509  10.855  12.378  13.526
35910W        W 6510   0.516  41.695  14.875
35911W        W 6511  27.528  20.285  13.975
35912W        W 6512  33.653   9.419  14.011
35913W        W 6513  19.604  44.225   3.329
35914W        W 6514   0.267  41.804  12.134
35915W        W 6515  17.796  22.434   3.718
35916W        W 6516  20.250   2.510   4.168
35917W        W 6517  17.751  12.106   0.718
35918W        W 6518  14.000   5.299   0.241
35919W        W 6519  40.878  35.473  10.666
35920W        W 6520  43.049   5.444  14.535
35921W        W 6521  11.386  22.625   3.663
35922W        W 6522  42.354  33.368   3.210
35923W        W 6523  24.153  25.242  10.261
35924W        W 6524  18.664   5.818   4.234
35925W        W 6525  43.737  35.821   1.941
35926W        W 6526  16.141   4.811  14.812
35927W        W 6527  22.250  20.026   0.946
35928W        W 6528   8.426   1.289   4.541
35929W        W 6529   3.760  24.267  12.058
35930W        W 6530  15.098  11.391  10.600
35931W        W 6531  18.712  30.631  14.420
35932W        W 6532   4.945  40.832   3.268
35933W        W 6533  39.100   8.520  11.573
35934W        W 6534  38.476  38.827   1.239
35935W        W 6535  16.264  20.454   4.629
35936W        W 6536  10.639   7.152  12.905
35937W        W 6537  32.839  31.165  11.199
35938W        W 6538  12.201  35.110  14.720
35939W        W 6539  42.131   5.676   2.224
35940W        W 6540  38.885  36.844  11.382
35941W        W 6541  11.165  11.819   4.094
35942W        W 6542  31.664  44.749   1.260
35943W        W 6543  23.937  32.178   4.673
35944W        W 6544  24.778  26.194   3.643
35945W        W 6545  28.456  36.651  13.803
35946W        W 6546   4.090  10.126   2.787
35947W        W 6547  30.789   1.366  12.160
35948W        W 6548  13.257  21.590   3.693
35949W        W 6549  40.835  30.687   0.274
35950W        W 6550  24.407  17.348   4.251
35951W        W 6551  12.766  41.047  11.441
35952W        W 6552   9.868  23.683  13.108
35953W        W 6553  27.112  11.931  12.049
35954W        W 6554  37.054   6.393   4.554
35955W        W 6555  35.887   6.148  12.080
35956W        W 6556  41.421  42.449  10.709
35957W        W 6557  36.496  29.905  11.248
35958W        W 6558   7.740  27.676   1.802
35959W        W 6559   3.942  40.456   1.638
35960W        W 6560   4.305  43.695   2.819
35961W        W 6561  39.001  12.398   3.660
35962W        W 6562  24.671  44.701  13.906
35963W        W 6563  36.381   1.022   3.709
35964W        W 6564  25.134  43.251  13.035
35965W        W 6565  25.330  37.601   3.704
35966W        W 6566  19.798   9.887   0.349
35967W        W 6567  35.154  11.775   1.390
35968W        W 6568  16.481   1.111  10.976
35969W        W 6569  25.701  41.326  14.347
35970W        W 6570  14.879  30.137  11.993
35971W        W 6571  13.624  23.099   3.309
35972W        W 6572   9.916  19.988   1.870
35973W        W 6573  18.486  42.366   3.757
35974W        W 6574  29.182   9.897   4.115
35975W        W 6575  41.814  24.651   1.004
35976W        W 6576   1.208  30.943  13.232
35977W        W 6577  10.206  34.900   2.672
35978W        W 6578   9.878  44.844   3.371
35979W        W 6579  10.533  27.182   4.198
35980W        W 6580  19.189  16.807  12.765
35981W        W 6581   3.670  19.608   4.166
35982W        W 6582  44.211  31.559   2.267
35983W        W 6583  11.588   1.952   4.167
35984W        W 6584   0.373   1.661  14.520
35985W        W 6585  18.024  21.197  11.582
35986W        W 6586  38.773   5.756  12.673
35987W        W 6587   8.679  38.815   1.447
35988W        W 6588  11.255  42.469   1.851
35989W        W 6589   9.315   7.452  14.157
35990W        W 6590  10.694   9.524  13.057
35991W        W 6591  18.266   2.814  12.923
35992W        W 6592   9.683  37.351  13.549
35993W        W 6593  34.085  23.859  11.663
35994W        W 6594  28.105   3.442  12.067
35995W        W 6595  36.509  10.239   0.649
35996W        W 6596  24.232  25.631   3.190
35997W        W 6597  26.582  40.302  13.382
35998W        W 6598  16.104  26.508  14.918
35999W        W 6599  23.339  11.159  13.544
36000W        W 6600  27.055  26.142   2.482
36001W        W 6601  35.987  37.080   2.361
36002W        W 6602  15.439  34.825  14.237
36003W        W 6603  11.730  31.846   3.302
36004W        W 6604  40.827  25.946   2.840
36005W        W 6605  28.574  21.356   0.877
36006W        W 6606  22.954  36.543   1.290
36007W        W 6607  33.495  11.834  14.897
36008W        W 6608  30.524  13.760   4.614
36009W        W 6609  44.760  28.489  14.851
36010W        W 6610  10.403   7.785  14.536
36011W        W 6611  15.207  21.088  11.163
36012W        W 6612  35.583  32.079  12.508
36013W        W 6613  33.532  34.271  10.256
36014W        W 6614  25.124  26.487   1.791
36015W        W 6615  28.644  33.059   4.496
36016W        W 6616  25.612  39.823   1.713
36017W        W 6617  17.617   5.369   0.141
36018W        W 6618   1.701  19.584   0.291
36019W        W 6619  35.556  13.121  13.380
36020W        W 6620  12.125   2.032  13.713
36021W        W 6621  19.745  24.328  12.074
36022W        W 6622   9.750  14.053  10.789
36023W        W 6623  24.367  30.587   1.762
36024W        W 6624  37.331  43.266  14.754
36025W        W 6625  28.961  13.394   4.217
36026W        W 6626   0.750  43.838  11.114
36027W        W 6627   4.770  28.548   4.594
36028W        W 6628  41.987   4.706  12.933
36029W        W 6629  28.754  13.073  12.966
36030W        W 6630  29.595  11.445  12.007
36031W        W 6631  10.149   9.661  12.462
36032W        W 6632  10.735  15.383   4.619
36033W        W 6633  17.347  14.666   0.903
36034W        W 6634  33.002  25.059  12.120
36035W        W 6635  34.041  11.153  13.145
36036W        W 6636  35.146  39.075   3.092
36037W        W 6637  36.024  38.521   2.260
36038W        W 6638   2.698  10.374   0.351
36039W        W 6639  35.092   1.076   3.606
36040W        W 6640  22.215  26.080  12.877
36041W        W 6641   8.881  39.989  14.784
36042W        W 6642  35.284  24.746  14.434
36043W        W 6643  20.298  37.034   0.462
36044W        W 6644  38.147  31.569  14.839
36045W        W 6645  11.691  22.861   0.314
36046W        W 6646  11.210  16.267   2.205
36047W        W 6647  28.055   5.421   1.917
36048W        W 6648  38.945  29.577   0.574
36049W        W 6649  37.281  38.595   0.840
36050W        W 6650  30.422   4.758   0.239
36051W        W 6651   9.378  33.752   2.807
36052W        W 6652  20.558  21.711  10.750
36053W        W 6653  20.615  14.875   2.174
36054W        W 6654  29.210  24.941  14.421
36055W        W 6655  43.936  15.575  11.926
36056W        W 6656  31.876  13.707   0.294
36057W        W 6657  24.440   4.902   4.599
36058W        W 6658   4.882  30.417  13.868
36059W        W 6659   9.750  14.287   0.765
36060W        W 6660   0.200  44.793   1.069
36061W        W 6661  20.655  41.210   2.382
36062W        W 6662   2.559  21.324  14.908
36063W        W 6663  35.143  15.706  14.172
36064W        W 6664  19.669  12.795   1.831
36065W        W 6665  16.979   0.907   0.932
36066W        W 6666   3.931  33.293   3.669
36067W        W 6667  27.668  17.508   2.679
36068W        W 6668  24.416  14.164   3.764
36069W        W 6669  12.280  15.241  11.888
36070W        W 6670  16.043  30.607  12.849
36071W        W 6671   7.961  10.032  13.861
36072W        W 6672  12.288   3.414  13.866
36073W        W 6673  40.300   7.531   2.239
36074W        W 6674  19.736  16.852   2.667
36075W        W 6675  27.697  24.616  14.882
36076W        W 6676  31.073  43.259  12.299
36077W        W 6677   7.743  16.591   4.134
36078W        W 6678   5.477  44.018  13.671
36079W        W 6679  27.165  30.939   3.099
36080W        W 6680  37.608  12.367  11.045
36081W        W 6681  16.398  12.643   4.659
36082W        W 6682  11.700  34.390   1.282
36083W        W 6683   6.421  40.913   1.881
36084W        W 6684  15.228  35.451   1.877
36085W        W 6685   5.978  20.039  14.890
36086W        W 6686   7.298   5.779  14.540
36087W        W 6687  39.369   3.455  14.581
36088W        W 6688  40.285  14.575  13.583
36089W        W 6689  41.815  18.693   1.793
36090W        W 6690  32.868  27.994   2.402
36091W        W 6691  38.372  42.432   4.406
36092W        W 6692  24.336   4.153   2.830
36093W        W 6693  27.769   5.204  11.395
36094W        W 6694   8.334  10.155  13.061
36095W        W 6695  39.014   2.188  11.469
36096W        W 6696  41.263   9.216   3.671
36097W        W 6697  27.942  30.538  10.770
36098W        W 6698   5.546  26.119   3.647
36099W        W 6699  19.793  32.093  11.219
36100W        W 6700  43.937  33.027   4.664
36101W        W 6701  18.244  10.716  10.394
36102W        W 6702   5.195  41.547  13.457
36103W        W 6703   7.370  20.379   0.686
36104W        W 6704  15.563  28.466   2.802
36105W        W 6705   9.592  38.393   1.213
36106W        W 6706  43.266  42.294  14.822
36107W        W 6707  23.753  39.014   2.198
36108W        W 6708  20.092  37.103   4.558
36109W        W 6709  27.182  32.185  11.836
36110W        W 6710   4.933   2.408   0.424
36111W        W 6711  22.602  16.629  13.389
36112W        W 6712   9.672  35.974   2.883
36113W        W 6713   0.920  26.468  14.129
36114W        W 6714  41.888  15.573  13.852
36115W        W 6715  29.449  23.970   0.799
36116W        W 6716  15.264  13.344  14.353
36117W        W 6717   1.708   2.753   3.714
36118W        W 6718   5.649  25.714   4.131
36119W        W 6719  20.762  22.079  11.059
36120W        W 6720   4.876   3.360   9.851
36121W        W 6721   3.478  34.869  14.550
36122W        W 6722  37.554  23.810   1.632
36123W        W 6723  25.175   9.949  10.612
36124W        W 6724  20.047  39.582   2.693
36125W        W 6725   7.234  13.294   4.594
36126W        W 6726  20.019  33.382   0.051
36127W        W 6727  14.265  31.862   3.582
36128W        W 6728   7.225  10.592   1.748
36129W        W 6729   6.604  23.009   2.567
36130W        W 6730   4.530  12.794  13.562
36131W        W 6731  36.986  16.308   4.993
36132W        W 6732  31.585  35.858   2.189
36133W        W 6733   2.949  32.368  13.384
36134W        W 6734   4.441   8.286   3.116
36135W        W 6735  36.910  12.265   0.430
36136W        W 6736  26.932  23.136  13.013
36137W        W 6737  18.636  38.672  10.379
36138W        W 6738  17.122  23.018   4.348
36139W        W 6739  24.407  28.324  11.899
36140W        W 6740  13.635   8.301  11.890
36141W        W 6741  17.380  35.145   2.292
36142W        W 6742  29.034  31.439  11.170
36143W        W 6743  21.588   6.837   2.881
36144W        W 6744  29.083   1.728  12.472
36145W        W 6745  11.356   3.484   3.140
36146W        W 6746  19.725  29.025  12.057
36147W        W 6747  13.809  40.111   2.122
36148W        W 6748   5.889  43.292   3.063
36149W        W 6749  25.519  16.038  13.348
36150W        W 6750  42.733  12.567   4.268
36151W        W 6751  24.061  13.561   0.626
36152W        W 6752  33.113  40.086  11.605
36153W        W 6753  38.656  15.284   5.268
36154W        W 6754   2.202  10.400   2.964
36155W        W 6755  18.017  22.082  12.473
36156W        W 6756  13.059   6.850   2.432
36157W        W 6757   1.950  30.652  12.090
36158W        W 6758   8.699  10.093   1.635
36159W        W 6759   1.663  35.590  12.330
36160W        W 6760  10.910  10.124  13.933
36161W        W 6761   6.804  10.748   2.012
36162W        W 6762  24.109   8.201  11.208
36163W        W 6763   2.401  11.326   1.213
36164W        W 6764   6.360  36.426  11.102
36165W        W 6765  29.580   9.952  11.213
36166W        W 6766  18.231   0.156  14.488
36167W        W 6767  34.585  27.205   0.054
36168W        W 6768   1.333  36.782  11.442
36169W        W 6769  10.346  21.641   5.061
36170W        W 6770  25.113  38.129  13.563
36171W        W 6771  34.891  22.272   0.890
36172W        W 6772  24.983  41.608   1.351
36173W        W 6773  35.259  42.536   4.511
36174W        W 6774  26.394  24.000  11.544
36175W        W 6775  37.834   9.669  11.503
36176W        W 6776  14.775   0.784   1.170
36177W        W 6777   2.181   3.308  12.531
36178W        W 6778  12.750   9.445  14.044
36179W        W 6779   6.316   7.764   0.321
36180W        W 6780  43.412  32.616   3.653
36181W        W 6781   7.701  29.541   0.551
36182W        W 6782  40.867  42.899   2.330
36183W        W 6783  28.103  40.617  12.178
36184W        W 6784  19.840  36.597  12.579
36185W        W 6785   9.421  37.932   0.619
36186W        W 6786  12.339  13.615  11.175
36187W        W 6787  22.628  31.000  11.712
36188W        W 6788   1.799  15.264  13.446
36189W        W 6789  35.110  44.901   1.407
36190W        W 6790  39.811  29.609   4.948
36191W        W 6791  35.469  20.774   1.243
36192W        W 6792  16.614  16.547   3.239
36193W        W 6793  16.629  44.709   0.942
36194W        W 6794  43.563  28.759   0.330
36195W        W 6795  34.772  41.604  12.849
36196W        W 6796  27.947  43.247   1.705
36197W        W 6797  10.581  29.523   3.760
36198W        W 6798  44.469  13.879   1.895
36199W        W 6799   2.961  12.333  11.963
36200W        W 6800  28.416  40.865  10.891
36201W        W 6801   7.795  43.057  13.495
36202W        W 6802  36.537  21.041   4.957
36203W        W 6803  27.378  33.515  14.453
36204W        W 6804  43.989  12.437   1.658
36205W        W 6805  12.742  31.991   4.334
36206W        W 6806  43.532  12.967  11.987
36207W        W 6807  41.355  17.275  11.560
36208W        W 6808  17.616  22.724  12.060
36209W        W 6809   0.774  15.680   1.844
36210W        W 6810  19.208  20.242  12.677
36211W        W 6811  29.591  28.002  12.489
36212W        W 6812  30.521  36.820   4.155
36213W        W 6813  35.799  44.005   1.867
36214W        W 6814   6.378  38.909  14.777
36215W        W 6815  35.072  26.558   1.711
36216W        W 6816  37.042  32.180   1.874
36217W        W 6817   8.434  20.511  12.763
36218W        W 6818  14.053   9.747   2.311
36219W        W 6819  37.958  40.831   2.277
36220W        W 6820  23.898  32.029   3.788
36221W        W 6821  16.300  34.164  13.898
36222W        W 6822  20.117  25.089  11.536
36223W        W 6823   6.264   0.718  12.227
36224W        W 6824  31.063  14.387   1.810
36225W        W 6825  30.955  21.078   5.005
36226W        W 6826  43.339  17.065   4.627
36227W        W 6827  42.980  11.391   3.194
36228W        W 6828  34.380  37.517  11.571
36229W        W 6829  11.342  23.462   0.784
36230W        W 6830  13.180   8.624  10.688
36231W        W 6831  42.905   0.277  11.999
36232W        W 6832  36.218  35.002   1.994
36233W        W 6833  41.917  24.410   4.138
36234W        W 6834   5.766   2.475   4.364
36235W        W 6835  40.322  37.555   0.631
36236W        W 6836  36.074  27.584   1.776
36237W        W 6837  42.526   0.475  12.345
36238W        W 6838  22.222  27.572   2.182
36239W        W 6839  17.367  16.390  11.185
36240W        W 6840  43.471   8.868  13.056
36241W        W 6841  15.417   6.233  12.935
36242W        W 6842  27.998   4.846  14.884
36243W        W 6843  35.096  39.621  14.856
36244W        W 6844   8.160  34.662   3.690
36245W        W 6845  30.255  27.577   1.262
36246W        W 6846  14.865  17.008  14.038
36247W        W 6847  14.758   4.988   2.893
36248W        W 6848  15.379  31.401   1.891
36249W        W 6849  14.372  34.154  14.907
36250W        W 6850  26.399  29.954  13.039
36251W        W 6851  19.733  35.917  11.081
36252W        W 6852  40.349  34.150   0.446
36253W        W 6853  37.524  31.025   0.931
36254W        W 6854   9.345   2.601  13.866
36255W        W 6855  21.594  17.614  12.585
36256W        W 6856  13.711  30.842  12.085
36257W        W 6857  35.487  42.523   3.676
36258W        W 6858   2.243  35.832   0.333
36259W        W 6859  40.906  25.154   2.629
36260W        W 6860   0.485  20.775  14.480
36261W        W 6861  39.748  17.461   2.232
36262W        W 6862  23.239  41.442   1.389
36263W        W 6863  26.777  16.553  12.979
36264W        W 6864  28.653  37.502   1.738
36265W        W 6865  15.119  13.512   2.040
36266W        W 6866   0.237  14.626  13.402
36267W        W 6867   4.427  32.362  11.171
36268W        W 6868  23.090  40.861  11.827
36269W        W 6869  39.879   9.726   4.750
36270W        W 6870  27.401  23.959   0.902
36271W        W 6871  42.211   1.275  13.111
36272W        W 6872  32.359  19.843  11.610
36273W        W 6873  32.398  43.419   4.551
36274W        W 6874  30.903  16.899   2.686
36275W        W 6875  23.591  29.613  14.852
36276W        W 6876  33.194  12.155   0.229
36277W        W 6877   9.267  30.319  12.137
36278W        W 6878  39.846  28.665  11.290
36279W        W 6879  28.178  18.642  13.481
36280W        W 6880  34.133  15.699  14.478
36281W        W 6881  28.941  18.199  11.645
36282W        W 6882  14.650   2.030  14.781
36283W        W 6883  12.357   2.686  13.058
36284W        W 6884  14.087   5.465  14.279
36285W        W 6885  21.267   0.341   2.711
36286W        W 6886   6.397  28.351   2.675
36287W        W 6887  33.632  35.851  11.670
36288W        W 6888  41.373  32.014  12.061
36289W        W 6889  36.648  20.822   3.959
36290W        W 6890  21.285  14.249   1.358
36291W        W 6891   5.775  26.282  14.737
36292W        W 6892  44.526   1.871  10.250
36293W        W 6893  38.539  27.470   2.402
36294W        W 6894  10.086  25.993  13.399
36295W        W 6895  20.264  15.736   3.581
36296W        W 6896  31.926  11.649  12.937
36297W        W 6897   5.836  23.439  11.977
36298W        W 6898  43.847  39.064   3.272
36299W        W 6899  37.355  22.906   3.824
36300W        W 6900   5.413  16.989  13.352
36301W        W 6901   4.370   9.725  13.724
36302W        W 6902  19.958  33.173  11.035
36303W        W 6903  15.628   4.784  12.932
36304W        W 6904  11.852  13.012   4.132
36305W        W 6905   3.288   5.438   2.276
36306W        W 6906  22.210  28.737  12.430
36307W        W 6907  44.218  30.950  13.416
36308W        W 6908  27.773  17.769  14.569
36309W        W 6909  35.712  23.503   2.717
36310W        W 6910  27.082  21.592   0.703
36311W        W 6911  10.537   8.883   0.218
36312W        W 6912   3.758   7.330   2.429
36313W        W 6913  26.531  14.855  14.926
36314W        W 6914  23.518  42.792  10.562
36315W        W 6915  42.318  31.384   3.121
36316W        W 6916  20.759  42.032   2.728
36317W        W 6917   0.460   6.371   4.183
36318W        W 6918  22.477  28.431   3.267
36319W        W 6919  19.518  21.115   4.648
36320W        W 6920  26.577  15.161   3.602
36321W        W 6921  24.137  27.028   1.363
36322W        W 6922  22.233  35.283   2.593
36323W        W 6923  20.441   5.377   0.947
36324W        W 6924  30.074  36.942  10.971
36325W        W 6925   9.065  17.683   0.481
36326W        W 6926  24.147  39.571  13.092
36327W        W 6927  26.005  37.620   2.250
36328W        W 6928  20.243  24.182  11.539
36329W        W 6929   0.906  28.631   1.835
36330W        W 6930   9.187   5.674  10.539
36331W        W 6931  18.933   7.367  12.964
36332W        W 6932   5.288  39.537   4.704
36333W        W 6933  35.442  18.106  14.003
36334W        W 6934   9.882  29.890   0.534
36335W        W 6935   6.925  34.214  13.954
36336W        W 6936  15.344  21.800  10.030
36337W        W 6937  28.362   9.223  14.442
36338W        W 6938  10.948  16.983  11.008
36339W        W 6939  25.700  30.371  12.457
36340W        W 6940  23.911   1.682   0.242
36341W        W 6941   4.684  43.228  11.079
36342W        W 6942  10.484  31.029  10.664
36343W        W 6943  33.194  10.648   1.645
36344W        W 6944   8.099  41.087  10.755
36345W        W 6945  35.802   8.272  11.524
36346W        W 6946  28.883  30.582   4.521
36347W        W 6947   5.389  13.245   3.244
36348W        W 6948   3.269   6.720  11.204
36349W        W 6949  33.644   0.775   9.782
36350W        W 6950  28.112   4.239   0.842
36351W        W 6951  22.125  20.233  13.964
36352W        W 6952  13.696  26.290  14.332
36353W        W 6953  40.907  22.661   1.921
36354W        W 6954  42.352   7.008  14.289
36355W        W 6955  19.735   0.852   4.643
36356W        W 6956  27.079  28.876  11.516
36357W        W 6957  14.349  35.890  13.602
36358W        W 6958  18.326   9.267  12.476
36359W        W 6959  34.890  30.914  11.465
36360W        W 6960   1.821   2.339  14.706
36361W        W 6961  24.490  14.761  14.044
36362W        W 6962  16.947  21.736  14.765
36363W        W 6963  24.593  29.141   4.722
36364W        W 6964   1.534  19.125   4.402
36365W        W 6965  37.014  27.840  14.088
36366W        W 6966   6.351  41.634   3.816
36367W        W 6967  44.567  14.296  14.889
36368W        W 6968   4.850   5.934  14.440
36369W        W 6969  34.538  17.754   2.352
36370W        W 6970  10.682  11.439  10.690
36371W        W 6971  44.368   9.030  13.313
36372W        W 6972  21.666  41.539  10.945
36373W        W 6973  25.939  36.979   1.059
36374W        W 6974  21.482  11.122  11.868
36375W        W 6975  11.664  10.597  10.692
36376W        W 6976  23.131  22.656   0.806
36377W        W 6977  33.882  14.273  13.477
36378W        W 6978   3.542  31.757   3.191
36379W        W 6979  40.904  39.320   0.708
36380W        W 6980  39.828  38.336   0.699
36381W        W 6981  42.038  39.389  13.018
36382W        W 6982  40.091  43.957  14.359
36383W        W 6983  12.756  19.296   2.716
36384W        W 6984  44.746   3.830  12.161
36385W        W 6985  33.587  20.882   3.734
36386W        W 6986  42.378  11.102  14.289
36387W        W 6987  16.402  22.646  13.502
36388W        W 6988   8.193  27.294   3.239
36389W        W 6989  42.081   0.190   2.752
36390W        W 6990  11.654   5.265  14.950
36391W        W 6991   1.406  32.582   1.349
36392W        W 6992  22.551   5.524  10.687
36393W        W 6993   9.221   5.364  11.767
36394W        W 6994   0.456  33.804   2.757
36395W        W 6995  22.034   9.604  11.100
36396W        W 6996  14.262  19.611  13.556
36397W        W 6997  43.293  20.336   3.157
36398W        W 6998   2.274  24.610  14.739
36399W        W 6999  39.359  20.647   0.102
36400W        W 7000  15.798   6.328  11.152
36401W        W 7001  17.855  35.972   1.870
36402W        W 7002  30.421  31.445   3.299
36403W        W 7003  25.598  16.357  14.910
36404W        W 7004   0.235  25.119   3.250
36405W        W 7005  35.604   7.808  12.620
36406W        W 7006  26.118   4.414   3.174
36407W        W 7007  15.295   3.208  13.307
36408W        W 7008  32.675  35.028   1.626
36409W        W 7009  43.355  25.928  13.756
36410W        W 7010   4.339  29.552  10.605
36411W        W 7011  38.778  18.107   4.470
36412W        W 7012   1.770   5.795   0.883
36413W        W 7013  14.236   3.903   2.448
36414W        W 7014  27.244  14.185   1.514
36415W        W 7015   1.684  24.656  10.966
36416W        W 7016  34.368  21.117  11.429
36417W        W 7017   4.431  23.953  10.995
36418W        W 7018  25.028  18.996  13.690
36419W        W 7019  10.477  20.507   2.798
36420W        W 7020   1.448   8.126  10.685
36421W        W 7021  13.174  20.461   2.813
36422W        W 7022   2.410  33.214  11.971
36423W        W 7023  25.424  42.987  14.886
36424W        W 7024  24.709  28.674  13.263
36425W        W 7025   7.186  27.870  10.428
36426W        W 7026  42.244  42.697  14.015
36427W        W 7027  18.757  23.800  12.654
36428W        W 7028   5.828  18.568   4.219
36429W        W 7029   5.330  26.934  14.328
36430W        W 7030  21.718  32.610  12.504
36431W        W 7031  26.478   9.649  11.950
36432W        W 7032  23.227   3.432   1.504
36433W        W 7033   4.565   8.146   0.694
36434W        W 7034  26.409  26.121  11.257
36435W        W 7035  30.051   5.699  14.027
36436W        W 7036  31.309  43.505   2.296
36437W        W 7037  44.362   4.724   3.365
36438W        W 7038  23.247   7.648  13.920
36439W        W 7039  36.101  25.541   1.287
36440W        W 7040  32.420  28.945   0.744
36441W        W 7041  31.313   1.870   3.229
36442W        W 7042  34.766  27.645   4.634
36443W        W 7043  41.812  27.972  14.319
36444W        W 7044  30.430  24.705   3.594
36445W        W 7045  14.845  28.686  10.904
36446W        W 7046  39.237  23.650   1.966
36447W        W 7047   0.820  28.104   4.153
36448W        W 7048  35.320   0.392   4.123
36449W        W 7049   7.516   1.239  11.508
36450W        W 7050  12.043  38.332   2.096
36451W        W 7051  15.866  42.333   0.933
36452W        W 7052  39.878  35.402   0.465
36453W        W 7053  25.379  18.708  14.984
36454W        W 7054   1.331  44.203  12.009
36455W        W 7055  26.602   0.107   1.450
36456W        W 7056  33.013  40.465   1.191
36457W        W 7057   7.620  27.293   2.279
36458W        W 7058  11.095   2.819   4.130
36459W        W 7059  10.233  26.169  14.494
36460W        W 7060  37.350  20.526   2.981
36461W        W 7061  12.772  39.219   3.684
36462W        W 7062  11.142  23.077   3.745
36463W        W 7063  22.394  21.049   1.188
36464W        W 7064  25.226  15.314   4.967
36465W        W 7065  40.438  26.373   3.643
36466W        W 7066  37.475  20.038   1.746
36467W        W 7067  10.842  25.451   2.930
36468W        W 7068  19.849  16.586   4.614
36469W        W 7069   5.940  21.853   0.027
36470W        W 7070  23.416   0.050   0.835
36471W        W 7071   3.777  26.221  14.823
36472W        W 7072  17.049   3.184  12.817
36473W        W 7073   6.137  11.133  13.766
36474W        W 7074  14.127  39.774  10.427
36475W        W 7075  39.944  31.978  12.012
36476W        W 7076  34.053  38.585  14.316
36477W        W 7077  29.537  24.508   0.784
36478W        W 7078  35.624  10.172  12.791
36479W        W 7079  40.367   3.765  10.337
36480W        W 7080  14.920  17.370  11.000
36481W        W 7081  42.583  12.632  11.144
36482W        W 7082  18.456  34.834  13.572
36483W        W 7083  31.137  32.359  11.013
36484W        W 7084  16.599  35.987  14.169
36485W        W 7085  33.332  16.277   1.794
36486W        W 7086  14.050  25.493   2.774
36487W        W 7087  10.836  32.169  12.881
36488W        W 7088  40.887   9.803   2.408
36489W        W 7089   1.341  44.489   1.961
36490W        W 7090   1.914  25.810   3.221
36491W        W 7091  44.305  36.285  14.490
36492W        W 7092  29.170  40.106  13.271
36493W        W 7093  30.366  11.427  13.547
36494W        W 7094  21.211  32.916   1.807
36495W        W 7095   4.088  10.924  13.357
36496W        W 7096  11.682   9.809  12.870
36497W        W 7097   8.922   3.029   0.540
36498W        W 7098  12.143  20.787   3.610
36499W        W 7099  33.036  37.008   0.685
36500W        W 7100  21.906  14.174  12.024
36501W        W 7101   6.178  39.297   2.607
36502W        W 7102   1.957  10.053   1.193
36503W        W 7103   5.866  32.411  14.240
36504W        W 7104  21.732  19.083   1.920
36505W        W 7105  25.969  37.792   2.731
36506W        W 7106  21.027   1.836   1.265
36507W        W 7107   4.832  30.842  11.605
36508W        W 7108   3.415  43.053   0.735
36509W        W 7109   4.284  34.395   2.650
36510W        W 7110  38.322  37.950  10.587
36511W        W 7111  16.302  31.332   1.567
36512W        W 7112  37.463  29.227   3.247
36513W        W 7113  42.111  19.602   9.811
36514W        W 7114  10.868  30.983  12.943
36515W        W 7115  37.958   9.266   3.148
36516W        W 7116   6.666  32.013   3.670
36517W        W 7117   2.541  26.881  11.808
36518W        W 7118   4.782   8.755  10.639
36519W        W 7119  26.681   2.539   2.272
36520W        W 7120  24.117  28.272  12.408
36521W        W 7121  42.451  26.476   3.133
36522W        W 7122  30.981  25.152  10.430
36523W        W 7123   9.330   8.710  11.498
36524W        W 7124  12.215  16.075  13.386
36525W        W 7125  11.115   6.256   0.309
36526W        W 7126  41.379   6.256   1.195
36527W        W 7127  12.717  15.571  12.894
36528W        W 7128  26.137  23.020  12.208
36529W        W 7129  41.827   0.112   1.799
36530W        W 7130   0.484  19.146   0.708
36531W        W 7131  43.037  36.765  14.376
36532W        W 7132  10.282  34.118   3.215
36533W        W 7133  28.395  28.718  11.555
36534W        W 7134  41.197  32.165  13.455
36535W        W 7135   2.796   8.411   2.363
36536W        W 7136   7.819  14.352   4.050
36537W        W 7137  40.532  28.495  14.705
36538W        W 7138   8.179  37.203  13.197
36539W        W 7139  32.909  35.831  14.894
36540W        W 7140  36.493   3.783  14.505
36541W        W 7141  36.612   5.776   4.740
36542W        W 7142   1.523  21.713  12.443
36543W        W 7143  31.579   6.480  11.465
36544W        W 7144  13.657   7.171   4.962
36545W        W 7145  31.909  32.944  12.485
36546W        W 7146  34.830  32.569   3.998
36547W        W 7147   8.483   0.377  11.201
36548W        W 7148  37.893  12.406   4.673
36549W        W 7149  10.843   1.263   0.370
36550W        W 7150  43.454  32.608  11.032
36551W        W 7151  11.431  20.685   4.748
36552W        W 7152  35.492  16.830   1.803
36553W        W 7153  33.535  27.100  10.576
36554W        W 7154   7.135  15.574  11.645
36555W        W 7155  11.908   5.703  12.366
36556W        W 7156   4.304  23.441  10.978
36557W        W 7157  19.661  23.636   4.466
36558W        W 7158  27.147   6.870  14.984
36559W        W 7159  34.017   8.931  12.057
36560W        W 7160   9.543  11.732   1.813
36561W        W 7161   5.089  26.736   1.997
36562W        W 7162  40.548  28.562  11.977
36563W        W 7163  13.245  22.663   2.173
36564W        W 7164  12.388  21.464   4.270
36565W        W 7165  20.715   2.241  12.112
36566W        W 7166  25.956  31.905   3.974
36567W        W 7167  15.008  18.318  14.811
36568W        W 7168  31.436   9.315  10.777
36569W        W 7169  38.384  35.636   2.686
36570W        W 7170  30.001  13.633   4.565
36571W        W 7171   1.255  39.620   3.659
36572W        W 7172  13.113  34.040  12.388
36573W        W 7173   3.769  13.406  10.701
36574W        W 7174  31.359  24.299   3.325
36575W        W 7175  22.411  20.221   2.795
36576W        W 7176  23.394   4.962   0.591
36577W        W 7177  26.783  36.104   2.850
36578W        W 7178  12.078  12.550  11.932
36579W        W 7179  21.105   4.043  12.535
36580W        W 7180  25.422  10.692   4.310
36581W        W 7181  42.297  17.798   0.135
36582W        W 7182   8.139  29.199   0.910
36583W        W 7183  38.779   9.338  12.403
36584W        W 7184  30.700  42.327   3.201
36585W        W 7185  44.702  29.914   1.268
36586W        W 7186  40.411  22.637   2.238
36587W        W 7187  23.249  15.679   1.876
36588W        W 7188  44.789   8.119   2.844
36589W        W 7189  18.330  14.304  12.019
36590W        W 7190  21.601   1.228  11.632
36591W        W 7191  12.821  10.476  13.995
36592W        W 7192  30.355  38.613   0.522
36593W        W 7193   6.898  11.878   1.475
36594W        W 7194  21.029  34.490   1.920
36595W        W 7195  15.662   2.368   1.189
36596W        W 7196  12.128   0.549   3.191
36597W        W 7197  15.574  43.245  13.501
36598W        W 7198  12.222  27.159  12.423
36599W        W 7199  27.546  34.742  14.468
36600W        W 7200  13.087  32.479  11.545
36601W        W 7201   6.245  19.134   0.281
36602W        W 7202  13.062  18.183  11.191
36603W        W 7203  15.679  31.999  10.213
36604W        W 7204  19.766  13.231  10.434
36605W        W 7205  30.108  18.128   0.096
36606W        W 7206  18.518  18.692  12.938
36607W        W 7207  41.067   3.349  13.880
36608W        W 7208   6.650  20.624  12.047
36609W        W 7209  31.554   4.149   4.583
36610W        W 7210  40.784  30.962  11.662
36611W        W 7211  29.865  34.603  10.636
36612W        W 7212  20.921   3.312  10.299
36613W        W 7213  17.071  19.975  14.701
36614W        W 7214  19.900  39.896   4.724
36615W        W 7215  18.565  19.613  11.818
36616W        W 7216  27.033  40.440  10.646
36617W        W 7217  12.843  26.461   0.346
36618W        W 7218  24.425   0.976   4.972
36619W        W 7219  34.305   8.155  14.558
36620W        W 7220  16.807   5.887   2.105
36621W        W 7221  14.846  39.745   0.966
36622W        W 7222  29.065  16.860  11.523
36623W        W 7223  10.785   6.285  11.179
36624W        W 7224  29.016  25.001   2.700
36625W        W 7225  10.212  12.004  12.492
36626W        W 7226   8.695  17.502  12.524
36627W        W 7227  25.645  15.325  12.988
36628W        W 7228  13.320   6.451   2.655
36629W        W 7229  40.986  34.696   2.191
36630W        W 7230  27.520  15.297  12.388
36631W        W 7231  38.748  33.999   4.321
36632W        W 7232  14.600   4.901   4.252
36633W        W 7233  23.113   0.495  12.107
36634W        W 7234  17.222  24.709   0.371
36635W        W 7235   3.334   8.324  13.251
36636W        W 7236  40.118  21.171  13.035
36637W        W 7237  14.078  36.468   3.524
36638W        W 7238  20.405   4.376   0.334
36639W        W 7239  23.659   5.325   2.206
36640W        W 7240  39.908  37.907   4.479
36641W        W 7241   2.900  29.504   3.964
36642W        W 7242   0.272  17.647  12.053
36643W        W 7243  40.820   2.440   4.189
36644W        W 7244  15.127  15.500   2.703
36645W        W 7245  33.352  18.811  11.602
36646W        W 7246  16.309  37.051  13.972
36647W        W 7247  40.606  13.228   4.897
36648W        W 7248  32.347  21.720   1.612
36649W        W 7249  36.902   3.956   2.735
36650W        W 7250   5.967  36.942   0.209
36651W        W 7251   8.800   4.406   0.294
36652W        W 7252  10.243  40.875   2.071
36653W        W 7253  17.374  16.632   2.112
36654W        W 7254  29.542  36.392  10.441
36655W        W 7255  27.620   0.981  14.932
36656W        W 7256  41.069  43.111   1.500
36657W        W 7257  38.591  17.325  11.979
36658W        W 7258  39.369  15.880   0.566
36659W        W 7259   8.220  11.837   1.457
36660W        W 7260  17.249  38.274   0.653
36661W        W 7261   0.663  17.759   4.403
36662W        W 7262  23.290   1.584   3.638
36663W        W 7263   5.358  31.388  14.543
36664W        W 7264   1.886  40.547   2.435
36665W        W 7265  44.004   4.818   1.859
36666W        W 7266  12.285  11.519  11.189
36667W        W 7267  38.016  11.797   2.911
36668W        W 7268  21.021  19.780  11.984
36669W        W 7269  13.286  25.079  12.965
36670W        W 7270  28.183  25.214  12.750
36671W        W 7271  33.708  29.662   2.462
36672W        W 7272  38.024  20.781  10.806
36673W        W 7273  28.376  25.189   3.853
36674W        W 7274   0.687  30.819  14.246
36675W        W 7275  11.781  25.015  14.475
36676W        W 7276  11.794  21.601  10.047
36677W        W 7277  40.705  11.916   2.599
36678W        W 7278   3.231  44.238  12.906
36679W        W 7279  38.773  43.318   0.210
36680W        W 7280  33.069   0.426   1.805
36681W        W 7281  24.148  16.153  11.746
36682W        W 7282  34.357  17.166  11.988
36683W        W 7283  21.057  13.353   1.314
36684W        W 7284  12.783   9.106  13.106
36685W        W 7285   5.059  33.876   1.207
36686W        W 7286  42.308  39.357   1.962
36687W        W 7287  30.810  21.210   3.132
36688W        W 7288  32.836  39.750   1.506
36689W        W 7289  13.909  12.507   2.473
36690W        W 7290  28.964   9.717   4.545
36691W        W 7291  35.841  14.374   1.266
36692W        W 7292  40.686  25.507  14.569
36693W        W 7293  21.121  17.690  13.920
36694W        W 7294   4.835  11.385   0.027
36695W        W 7295  31.317  36.989  14.275
36696W        W 7296   9.626  42.256  11.589
36697W        W 7297  34.030  19.318   4.303
36698W        W 7298  33.959  27.596  13.382
36699W        W 7299  20.675  31.099   3.399
36700W        W 7300  34.457  22.949  14.441
36701W        W 7301  22.424  32.019   4.790
36702W        W 7302   4.354   9.999   2.133
36703W        W 7303  12.840   8.745   2.143
36704W        W 7304  43.282  34.274  13.798
36705W        W 7305   3.254  39.316  10.722
36706W        W 7306  37.887  11.147   4.162
36707W        W 7307  39.632   6.482  14.325
36708W        W 7308  43.830  18.803  13.118
36709W        W 7309  25.435  22.587  12.208
36710W        W 7310  21.272  37.840   3.206
36711W        W 7311  20.881  19.836   4.951
36712W        W 7312   4.482   5.115  14.622
36713W        W 7313  15.663  41.814   4.442
36714W        W 7314  16.330  34.627   1.123
36715W        W 7315   7.410  21.514   4.587
36716W        W 7316  43.534  28.238  11.632
36717W        W 7317   1.938  27.915   0.271
36718W        W 7318  23.189   0.270  12.600
36719W        W 7319   7.648   1.543  12.396
36720W        W 7320   0.819  16.549   3.095
36721W        W 7321   7.233   2.415   4.520
36722W        W 7322  19.518   8.944   3.565
36723W        W 7323  34.155   3.616   1.806
36724W        W 7324  11.915  14.099  13.762
36725W        W 7325  24.152  30.616   3.931
36726W        W 7326  31.622  43.078   4.531
36727W        W 7327  37.954  37.389  13.215
36728W        W 7328   3.902   8.356   0.366
36729W        W 7329  37.817  31.829  12.702
36730W        W 7330  10.701  35.651  14.420
36731W        W 7331   3.796  30.119   0.898
36732W        W 7332  24.055   2.378   4.570
36733W        W 7333  37.050  24.614  14.396
36734W        W 7334   0.410  34.318  12.968
36735W        W 7335   9.116  15.101   3.701
36736W        W 7336  44.537  29.003  13.635
36737W        W 7337   8.099  20.526   2.113
36738W        W 7338   1.004  20.481  12.070
36739W        W 7339  25.868   4.193   0.699
36740W        W 7340  34.084   8.397  11.176
36741W        W 7341  27.484  27.140  13.856
36742W        W 7342  21.873  21.640  12.071
36743W        W 7343  39.728  39.846   3.646
36744W        W 7344   2.012   6.252   0.768
36745W        W 7345  20.499   0.263   2.388
36746W        W 7346  28.656  16.603  13.601
36747W        W 7347   5.232   3.729   4.233
36748W        W 7348  30.963   4.748  10.743
36749W        W 7349  13.701   7.624   1.315
36750W        W 7350  34.983  10.848   1.188
36751W        W 7351  29.538  14.541   4.947
36752W        W 7352  38.090  13.265   1.453
36753W        W 7353  35.639  34.659  10.997
36754W        W 7354  42.296  34.998  13.637
36755W        W 7355  19.761  23.621  13.459
36756W        W 7356  32.605   3.731   1.940
36757W        W 7357  15.327  29.631  10.623
36758W        W 7358  35.981   8.672   0.462
36759W        W 7359  13.805  36.541   1.916
36760W        W 7360  28.772   0.870   2.737
36761W        W 7361  21.108  29.340  12.076
36762W        W 7362  21.210   2.431  14.737
36763W        W 7363   3.725   4.738  11.155
36764W        W 7364   9.961  39.910   0.201
36765W        W 7365  24.691  18.138  14.835
36766W        W 7366  30.245  44.235  13.282
36767W        W 7367  11.555   9.457  12.335
36768W        W 7368   8.569  22.749   0.910
36769W        W 7369  17.468  41.942   3.145
36770W        W 7370  40.969  29.143  13.089
36771W        W 7371  10.863   7.709  11.702
36772W        W 7372  13.733  32.963  14.505
36773W        W 7373  28.839   3.013  11.933
36774W        W 7374  11.926  29.985  13.018
36775W        W 7375  31.925   5.484  13.921
36776W        W 7376  10.646   5.272   3.256
36777W        W 7377  29.006  38.969   3.655
36778W        W 7378  24.462   4.444  14.291
36779W        W 7379  12.725   6.403  12.445
36780W        W 7380  39.011  20.622   0.495
36781W        W 7381  35.519  16.048   0.872
36782W        W 7382  34.329  31.046   2.400
36783W        W 7383   7.116  18.291  12.432
36784W        W 7384  14.128  10.531   3.762
36785W        W 7385   5.749  26.790  10.899
36786W        W 7386  40.798  35.547   2.724
36787W        W 7387  13.690   4.504  12.988
36788W        W 7388  25.134  44.327   2.845
36789W        W 7389   1.803  36.664   2.763
36790W        W 7390  44.733  28.994   3.634
36791W        W 7391  15.102  28.071   4.669
36792W        W 7392  26.893  13.101   0.307
36793W        W 7393  43.347  42.627  12.951
36794W        W 7394  24.845  12.673   3.414
36795W        W 7395   7.126  10.602  11.301
36796W        W 7396  31.606  42.007   2.868
36797W        W 7397  29.425  35.802  11.115
36798W        W 7398  14.565  40.547  10.403
36799W        W 7399  41.333   2.336   0.344
36800W        W 7400  42.083   8.373   1.267
36801W        W 7401   1.707  36.290   0.973
36802W        W 7402  17.489  35.218   5.529
36803W        W 7403  21.548  25.954   4.707
36804W        W 7404  26.090   9.843  12.822
36805W        W 7405  30.907   9.395   2.134
36806W        W 7406  14.240  39.015   1.203
36807W        W 7407  42.074  12.612  14.400
36808W        W 7408  33.581  31.451  13.122
36809W        W 7409  20.555  38.827  13.795
36810W        W 7410   3.943  36.173  10.325
36811W        W 7411  20.988  31.599   0.319
36812W        W 7412  37.334  30.683  12.467
36813W        W 7413  26.520  20.272   1.736
36814W        W 7414   5.429  17.574  11.693
36815W        W 7415  19.657  34.893   4.544
36816W        W 7416   9.348   0.812   3.646
36817W        W 7417  41.756   2.481   4.815
36818W        W 7418   6.832   1.814   4.633
36819W        W 7419   7.247  12.511   1.980
36820W        W 7420   3.752  17.624   3.938
36821W        W 7421  37.363  17.509  12.912
36822W        W 7422  21.856  19.374  13.844
36823W        W 7423  18.455  21.797   3.605
36824W        W 7424  41.837  31.402  13.989
36825W        W 7425  13.808   3.681   2.207
36826W        W 7426  19.129  17.864   1.249
36827W        W 7427  15.698  12.513   4.753
36828W        W 7428  33.591  43.308  11.210
36829W        W 7429  11.209  26.683  14.940
36830W        W 7430  22.111  42.999  12.138
36831W        W 7431  16.222  20.054  12.366
36832W        W 7432  40.625  12.206   5.012
36833W        W 7433  41.350  11.274   0.935
36834W        W 7434  44.840   4.797   1.472
36835W        W 7435  20.108  42.396  13.034
36836W        W 7436  34.765  25.673  13.652
36837W        W 7437   7.726  24.215   4.300
36838W        W 7438  25.548  34.801  14.475
36839W        W 7439   6.329  41.239   1.404
36840W        W 7440   4.786   0.395   2.954
36841W        W 7441  23.613   2.295   0.365
36842W        W 7442  23.261  12.631  13.353
36843W        W 7443   6.876  29.454   4.394
36844W        W 7444  27.617  15.888   1.768
36845W        W 7445  43.998  43.861   2.686
36846W        W 7446   1.859  34.542  13.770
36847W        W 7447  39.772  42.558   0.077
36848W        W 7448  34.148  32.982  11.925
36849W        W 7449  15.531  30.126   1.753
36850W        W 7450  28.134  36.062  12.185
36851W        W 7451   3.217   7.146  13.815
36852W        W 7452  17.327  40.731  13.564
36853W        W 7453  16.077  24.952  12.652
36854W        W 7454  24.000  21.356  10.191
36855W        W 7455  26.417  43.386  14.352
36856W        W 7456  36.688  35.839  13.505
36857W        W 7457   5.468  16.200   2.803
36858W        W 7458  38.097  31.973  10.399
36859W        W 7459  23.572  11.978  13.911
36860W        W 7460  37.133  22.904   1.436
36861W        W 7461  13.541  35.001   3.121
36862W        W 7462  38.385  34.510   2.440
36863W        W 7463  37.964  39.362   0.317
36864W        W 7464  29.868  17.622   3.075
36865W        W 7465  24.688  15.814   1.733
36866W        W 7466   6.594  20.224   2.970
36867W        W 7467  41.854  44.004  12.992
36868W        W 7468   1.270  39.591  14.116
36869W        W 7469  39.364  36.080   0.185
36870W        W 7470   2.918  44.248   1.915
36871W        W 7471  10.344  18.208   4.330
36872W        W 7472  25.709  39.621   3.386
36873W        W 7473  14.972   8.978  14.032
36874W        W 7474  16.397  21.546  13.675
36875W        W 7475   0.238  35.499   4.057
36876W        W 7476  38.019  18.050  13.854
36877W        W 7477  21.304  39.026  11.621
36878W        W 7478  21.040   8.920   0.004
36879W        W 7479   8.302  41.046   4.095
36880W        W 7480  22.737   4.919   2.727
36881W        W 7481  36.472   5.744   2.677
36882W        W 7482  12.132   9.999   2.483
36883W        W 7483   7.117  13.653  11.660
36884W        W 7484  22.827  18.520   1.442
36885W        W 7485  40.494  26.247   0.371
36886W        W 7486   7.173   2.792  13.867
36887W        W 7487  16.679  32.753   2.403
36888W        W 7488   5.187  23.116  11.607
36889W        W 7489   5.991  18.085  11.902
36890W        W 7490  32.933  16.080  11.711
36891W        W 7491   8.811   5.829   3.270
36892W        W 7492  21.214  19.801   1.663
36893W        W 7493   8.866  31.876   3.414
36894W        W 7494   7.333  15.615   0.190
36895W        W 7495  20.664  22.265  14.997
36896W        W 7496   9.324  32.501  10.676
36897W        W 7497  27.144   8.368  12.948
36898W        W 7498  40.771  10.307   2.388
36899W        W 7499  32.449  11.654   1.247
36900W        W 7500  39.294   3.175   0.929
36901W        W 7501  23.433  19.957   1.261
36902W        W 7502  10.415   9.248   4.339
36903W        W 7503   8.103  43.149   4.054
36904W        W 7504   6.353  22.182  13.878
36905W        W 7505  39.456  38.147   3.175
36906W        W 7506  37.857  12.082   0.217
36907W        W 7507  37.475  34.905  14.767
36908W        W 7508  38.384  11.131  12.929
36909W        W 7509  15.959  18.596  14.068
36910W        W 7510   9.339  43.465   0.799
36911W        W 7511  28.554  10.038  12.366
36912W        W 7512  37.538  43.757   3.894
36913W        W 7513   7.803  16.011  11.161
36914W        W 7514  25.511   7.715   5.733
36915W        W 7515  18.545  12.881   1.826
36916W        W 7516   6.259   9.720   2.221
36917W        W 7517  44.787  20.361  14.508
36918W        W 7518   3.974  30.513  11.667
36919W        W 7519  25.486  39.120  10.486
36920W        W 7520  32.211  41.162  10.255
36921W        W 7521  23.182  18.191   0.721
36922W        W 7522  11.236  31.605  14.811
36923W        W 7523  25.843  14.532  12.642
36924W        W 7524  12.066   3.360   1.186
36925W        W 7525  17.788  40.365   4.218
36926W        W 7526  24.544   5.193  14.031
36927W        W 7527  36.373   6.954   3.437
36928W        W 7528  17.055  29.006  12.045
36929W        W 7529  40.482  36.132  11.522
36930W        W 7530  26.628  25.551  13.354
36931W        W 7531  36.592  43.988   3.407
36932W        W 7532  16.376  23.087  14.280
36933W        W 7533   0.415  11.420   4.703
36934W        W 7534  32.618  21.693   3.090
36935W        W 7535  22.647  21.518   2.397
36936W        W 7536  13.836  24.804  14.475
36937W        W 7537   0.773  18.137   4.089
36938W        W 7538   3.903  31.347   4.993
36939W        W 7539  40.794  42.781  13.953
36940W        W 7540  11.272  44.740  11.960
36941W        W 7541  18.163  28.234  11.472
36942W        W 7542  24.464  17.160  13.071
36943W        W 7543  18.794  22.300  14.098
36944W        W 7544  33.793  20.186  13.635
36945W        W 7545  14.838  16.515   0.350
36946W        W 7546  13.397   8.423   0.310
36947W        W 7547  22.273   6.899  10.312
36948W        W 7548  19.762   3.497   4.615
36949W        W 7549  32.608   8.801   4.201
36950W        W 7550   1.745  34.895   2.307
36951W        W 7551  28.929   5.376  14.288
36952W        W 7552  37.882   9.238   0.793
36953W        W 7553  39.539  23.644   2.411
36954W        W 7554  30.594   0.215  12.994
36955W        W 7555  25.124  33.391   4.084
36956W        W 7556   9.671  44.874   1.742
36957W        W 7557  44.888  42.853   0.796
36958W        W 7558  35.106  31.473   0.896
36959W        W 7559   9.882   2.282   1.840
36960W        W 7560   8.934  17.364  11.068
36961W        W 7561   6.307   5.500   2.728
36962W        W 7562   2.748  41.825   0.838
36963W        W 7563  38.566  30.655   2.338
36964W        W 7564  31.576  14.644   0.668
36965W        W 7565  43.999  21.000  11.120
36966W        W 7566  26.002  42.970  11.164
36967W        W 7567  29.860  21.596  11.131
36968W        W 7568   0.933  22.882   0.407
36969W        W 7569  44.998  31.049   3.300
36970W        W 7570  29.094   8.385  13.150
36971W        W 7571  23.408   7.693  12.126
36972W        W 7572  38.458  40.612   0.567
36973W        W 7573  12.156  39.365  14.022
36974W        W 7574  42.374   3.309   1.889
36975W        W 7575  40.307  30.326   4.469
36976W        W 7576  18.101  39.314  11.535
36977W        W 7577   9.241  16.663   0.832
36978W        W 7578   1.948   3.482   0.994
36979W        W 7579   5.469  21.547   1.652
36980W        W 7580   0.513  12.279   2.687
36981W        W 7581  35.089  17.205  12.576
36982W        W 7582  27.944  16.372   2.966
36983W        W 7583  30.866  38.468   1.902
36984W        W 7584  21.744  24.676  14.978
36985W        W 7585  29.771  36.253   4.985
36986W        W 7586   3.445  37.314   3.041
36987W        W 7587  33.323  16.075  14.333
36988W        W 7588  27.994  12.403  13.989
36989W        W 7589   1.745  21.922   0.027
36990W        W 7590  43.291  24.071   3.661
36991W        W 7591  34.125  11.891   2.265
36992W        W 7592  39.391  17.511  10.621
36993W        W 7593  43.095   1.429  11.159
36994W        W 7594  27.129  33.564   0.850
36995W        W 7595  41.452  19.101   1.897
36996W        W 7596  44.372   5.648  10.887
36997W        W 7597  27.417  13.695   1.422
36998W        W 7598  26.924   0.757  10.706
36999W        W 7599  40.889  40.355   0.848
37000W        W 7600   5.831  16.169  13.741
37001W        W 7601  36.432   2.517   1.815
37002W        W 7602  36.127  14.094   2.729
37003W        W 7603   7.643  42.938   0.218
37004W        W 7604  25.618  29.081   1.782
37005W        W 7605  12.305  35.552  13.728
37006W        W 7606  21.281  14.417  11.495
37007W        W 7607  20.582  32.816   4.566
37008W        W 7608   3.871  16.355   4.723
37009W        W 7609  40.323  29.934  13.822
37010W        W 7610  21.738  24.646  11.086
37011W        W 7611  33.703  15.380   1.247
37012W        W 7612  31.196  37.129   2.456
37013W        W 7613  41.027   4.372  14.798
37014W        W 7614  22.550  33.529  13.080
37015W        W 7615  12.791  15.057  12.009
37016W        W 7616   3.913  13.010   3.131
37017W        W 7617  24.809  29.606   3.830
37018W        W 7618  30.071  25.439   2.402
37019W        W 7619   4.229  15.251   2.291
37020W        W 7620   5.862   8.318  10.862
37021W        W 7621   6.081  43.050  12.486
37022W        W 7622   3.695  17.663  11.593
37023W        W 7623  13.660  20.917  13.055
37024W        W 7624   0.894   6.467  13.298
37025W        W 7625  28.024   3.904  11.092
37026W        W 7626  13.312  27.182  13.409
37027W        W 7627  43.849  33.106  13.788
37028W        W 7628  21.915  10.247   3.414
37029W        W 7629  28.041  22.584  13.597
37030W        W 7630  19.216   2.511   1.706
37031W        W 7631   8.246   1.671  11.107
37032W        W 7632  27.295  22.732  14.907
37033W        W 7633  26.247   4.742   1.779
37034W        W 7634  10.120  36.465   3.284
37035W        W 7635  35.430  36.341  12.119
37036W        W 7636  27.730  20.812  13.517
37037W        W 7637  41.458  15.307  13.983
37038W        W 7638  42.999  13.267  12.715
37039W        W 7639  20.309   7.604  12.421
37040W        W 7640  28.416  44.501  12.207
37041W        W 7641  33.947   1.400  13.480
37042W        W 7642  41.033  11.159   0.128
37043W        W 7643   7.792  11.429  12.930
37044W        W 7644  25.387  22.542  14.401
37045W        W 7645   2.030  16.651  12.035
37046W        W 7646   4.201  36.319  13.750
37047W        W 7647  27.207  43.849   3.626
37048W        W 7648  44.818  36.370  11.923
37049W        W 7649  35.960  10.834   3.904
37050W        W 7650  18.040  34.110  12.970
37051W        W 7651  18.433  32.850  11.994
37052W        W 7652  43.375  15.525   0.375
37053W        W 7653  39.318   8.302  14.365
37054W        W 7654  31.863   8.168   4.562
37055W        W 7655  13.763  17.134   0.877
37056W        W 7656  19.162   9.285   0.392
37057W        W 7657  10.752  33.646  12.078
37058W        W 7658  25.049  28.710  14.116
37059W        W 7659  31.623  24.009  13.557
37060W        W 7660  30.488  23.541   4.191
37061W        W 7661  44.211  43.342   2.706
37062W        W 7662   5.788   2.123  10.713
37063W        W 7663  19.168  35.790   1.638
37064W        W 7664  20.843  18.139  12.849
37065W        W 7665   6.692  30.411   2.856
37066W        W 7666  14.811  22.522   0.291
37067W        W 7667  16.628  31.020   4.764
37068W        W 7668   3.398  27.596  13.692
37069W        W 7669   3.808  21.802  11.989
37070W        W 7670   2.031  10.149  13.467
37071W        W 7671   4.579  12.158  12.496
37072W        W 7672  42.509  30.741  11.891
37073W        W 7673   6.692   8.312   0.781
37074W        W 7674  40.835  32.082  14.304
37075W        W 7675  35.805  35.979  12.057
37076W        W 7676   0.856  13.104   4.152
37077W        W 7677   8.035  10.258  11.652
37078W        W 7678  17.862  44.930   1.207
37079W        W 7679   7.720  24.453  12.984
37080W        W 7680   6.145  22.622  14.775
37081W        W 7681  33.116  44.033  11.231
37082W        W 7682  25.418  42.733  11.964
37083W        W 7683   2.938  38.576   1.265
37084W        W 7684   2.553  35.420   1.308
37085W        W 7685   5.280  33.024   0.324
37086W        W 7686  18.787  21.613  13.446
37087W        W 7687   4.296  39.493   2.310
37088W        W 7688  35.904  19.624   0.248
37089W        W 7689   6.009  36.067  12.540
37090W        W 7690  34.136  44.851  13.070
37091W        W 7691  10.401  39.456  10.703
37092W        W 7692  22.426   1.995  10.852
37093W        W 7693  17.766  43.910  10.581
37094W        W 7694  35.218  29.206  12.093
37095W        W 7695  25.623  24.479   4.538
37096W        W 7696  40.547  27.566   1.248
37097W        W 7697  32.067  40.634  12.357
37098W        W 7698  27.730  11.034   2.407
37099W        W 7699  30.993  44.309   3.634
37100W        W 7700  10.235  31.192  12.579
37101W        W 7701  41.836  34.997  13.396
37102W        W 7702  36.679  13.947   3.501
37103W        W 7703  13.731  15.668  14.147
37104W        W 7704  24.441  37.384  11.973
37105W        W 7705   7.523  27.682  13.395
37106W        W 7706  32.006   4.978   4.229
37107W        W 7707   9.605   8.788  11.987
37108W        W 7708  10.400  10.231  11.893
37109W        W 7709   8.985  25.651  11.250
37110W        W 7710   6.093  20.966  12.956
37111W        W 7711   9.840  21.172  10.684
37112W        W 7712  42.103  18.682  14.002
37113W        W 7713  41.534   6.701  12.106
37114W        W 7714  13.261  10.959  13.506
37115W        W 7715  35.869  30.869   5.094
37116W        W 7716  38.625  41.088   4.130
37117W        W 7717  31.742  33.889   2.403
37118W        W 7718  16.648   7.183   2.446
37119W        W 7719  21.134  16.159   4.615
37120W        W 7720  29.177  26.594   4.691
37121W        W 7721   5.026  10.536   1.389
37122W        W 7722  10.291  20.165   0.445
37123W        W 7723   4.311   5.955  11.077
37124W        W 7724  11.805   2.978  11.815
37125W        W 7725  21.294  25.952  10.754
37126W        W 7726  29.390   5.713  11.527
37127W        W 7727   3.006  36.983   4.637
37128W        W 7728  20.542  18.701  13.479
37129W        W 7729  10.240   2.647  12.418
37130W        W 7730  31.002  12.803  11.967
37131W        W 7731  41.530  21.163   0.061
37132W        W 7732   6.566  33.934   1.410
37133W        W 7733   7.417  32.982  14.021
37134W        W 7734  12.155   2.772  11.071
37135W        W 7735  28.497   0.218   0.501
37136W        W 7736  39.837  36.815   3.313
37137W        W 7737  21.759   2.831  10.670
37138W        W 7738  29.881  35.844   1.493
37139W        W 7739  22.088  22.051  14.547
37140W        W 7740  42.456  38.892   4.605
37141W        W 7741  27.684  22.519   3.371
37142W        W 7742  11.107  17.248  10.569
37143W        W 7743  24.249  19.303  12.344
37144W        W 7744   9.806  40.591  11.118
37145W        W 7745   2.990   0.225  12.923
37146W        W 7746  31.826  34.146  13.151
37147W        W 7747  18.060  19.266  10.743
37148W        W 7748   7.034  18.282  11.156
37149W        W 7749   0.291   0.861   4.385
37150W        W 7750  21.277  31.471  13.935
37151W        W 7751  34.177   1.867   2.355
37152W        W 7752   0.987   5.362   1.248
37153W        W 7753  43.968  41.281  14.304
37154W        W 7754  23.717   9.626  10.764
37155W        W 7755  35.794   7.358  14.934
37156W        W 7756   1.910  38.478   2.970
37157W        W 7757  36.561  23.401   2.699
37158W        W 7758  28.440  42.861   0.789
37159W        W 7759  20.900  26.021  14.498
37160W        W 7760  44.380  23.482   2.780
37161W        W 7761  42.684  20.179  14.581
37162W        W 7762  38.475  33.167  12.473
37163W        W 7763  22.984  15.784  10.059
37164W        W 7764  24.928   0.235   1.326
37165W        W 7765  22.603   3.990  13.796
37166W        W 7766   4.980  32.994   0.747
37167W        W 7767  25.982  38.666  14.353
37168W        W 7768  40.413  40.114   0.852
37169W        W 7769   4.403  30.953  14.425
37170W        W 7770  24.305  23.103  11.497
37171W        W 7771  23.427  16.083   2.174
37172W        W 7772  21.460  27.451  12.096
37173W        W 7773   7.386  41.374  14.563
37174W        W 7774  21.530   3.186  13.208
37175W        W 7775  32.974  29.527  11.345
37176W        W 7776  13.079  31.939   5.047
37177W        W 7777  16.954  37.908   2.804
37178W        W 7778  32.690  29.153  14.395
37179W        W 7779  25.068  37.087  11.281
37180W        W 7780  25.665  17.118   1.333
37181W        W 7781  35.385  39.130  10.713
37182W        W 7782   3.833   5.717   0.755
37183W        W 7783  23.207  26.190  12.417
37184W        W 7784  37.054   4.223   4.372
37185W        W 7785  26.536  24.674   1.336
37186W        W 7786  25.265  30.054   1.644
37187W        W 7787  23.616  10.919   4.196
37188W        W 7788  37.538  17.015  11.228
37189W        W 7789  25.354  42.348   4.985
37190W        W 7790   6.434  36.217  14.256
37191W        W 7791   4.360   4.162   1.391
37192W        W 7792  16.762   0.221   1.890
37193W        W 7793  39.918  41.903  14.394
37194W        W 7794  41.922  16.275   1.367
37195W        W 7795   3.262  10.216  14.447
37196W        W 7796  39.749  33.560   0.334
37197W        W 7797   7.962  22.583  10.978
37198W        W 7798  17.641  28.066   4.584
37199W        W 7799  13.735  35.393   1.870
37200W        W 7800  12.833  11.548  10.700
37201W        W 7801   7.471  40.881   0.186
37202W        W 7802  39.442   7.288   3.163
37203W        W 7803  11.656  23.586   1.844
37204W        W 7804  12.519  33.840  11.497
37205W        W 7805   1.743  41.924  10.790
37206W        W 7806  33.003   9.140   4.137
37207W        W 7807   9.358   1.983   3.816
37208W        W 7808  33.163  17.335   1.040
37209W        W 7809   4.948  29.045   2.942
37210W        W 7810  35.585  33.699   1.820
37211W        W 7811  10.134  32.844   2.746
37212W        W 7812  30.425  37.567  13.529
37213W        W 7813  32.124  42.251  13.497
37214W        W 7814  21.982  42.009  13.010
37215W        W 7815  23.699  35.846  10.717
37216W        W 7816  42.291  24.133   2.157
37217W        W 7817   1.873   0.152  10.686
37218W        W 7818  11.870  20.844  13.873
37219W        W 7819  24.843  43.972  12.547
37220W        W 7820  31.994  37.496   0.001
37221W        W 7821  27.520  27.096   2.229
37222W        W 7822   2.463  41.089   3.856
37223W        W 7823  32.531  17.137  12.417
37224W        W 7824  17.850  24.446   3.678
37225W        W 7825  32.095   6.249  13.534
37226W        W 7826  20.294  13.203   0.438
37227W        W 7827   3.425  14.311   0.419
37228W        W 7828  36.622  18.598   2.855
37229W        W 7829  16.874   2.337   2.639
37230W        W 7830   6.822  36.609  11.073
37231W        W 7831  13.812  39.373  12.152
37232W        W 7832  33.442  25.436  10.926
37233W        W 7833  11.213  13.854  11.450
37234W        W 7834  26.736  19.038  12.982
37235W        W 7835  15.032  21.182   4.628
37236W        W 7836  40.554  27.540  10.928
37237W        W 7837  32.302   1.790   0.952
37238W        W 7838  17.216  32.589  14.390
37239W        W 7839  43.800   8.739  11.005
37240W        W 7840  24.724   2.751  12.085
37241W        W 7841  24.842  30.603   4.769
37242W        W 7842  30.451  22.789  12.667
37243W        W 7843   2.503  32.121  13.844
37244W        W 7844  14.152  15.366   1.429
37245W        W 7845  32.426   1.748   2.877
37246W        W 7846  37.294  17.751   2.208
37247W        W 7847  11.322  29.093  10.724
37248W        W 7848  13.690  22.969  10.510
37249W        W 7849  37.068  31.808   1.059
37250W        W 7850   9.619  41.312  12.210
37251W        W 7851  34.094  44.988  14.512
37252W        W 7852  12.163  20.158  10.760
37253W        W 7853   4.034   0.968   3.633
37254W        W 7854  24.216  41.762  11.628
37255W        W 7855   2.237   7.069  12.022
37256W        W 7856   8.818  31.953   3.954
37257W        W 7857  19.031  37.367  14.913
37258W        W 7858   7.687  44.240  14.087
37259W        W 7859   5.464  31.476  11.640
37260W        W 7860  44.865  32.941  12.965
37261W        W 7861  16.029  40.411   2.376
37262W        W 7862  39.776  11.368   2.810
37263W        W 7863  19.639  22.969   3.167
37264W        W 7864  15.731  12.092   4.455
37265W        W 7865   1.937  13.314   1.809
37266W        W 7866  29.863   8.761  14.940
37267W        W 7867  31.173  38.745   5.416
37268W        W 7868  19.447  41.518   5.045
37269W        W 7869  43.834  35.593   1.354
37270W        W 7870  44.443  32.315   4.584
37271W        W 7871  37.627   0.725   2.727
37272W        W 7872  13.313  25.744   1.468
37273W        W 7873  40.336  25.190  12.120
37274W        W 7874  29.023  27.514   3.260
37275W        W 7875  22.826   2.640  11.436
37276W        W 7876  19.575  28.817  11.598
37277W        W 7877  39.976  23.280   1.707
37278W        W 7878   8.267  34.994  13.803
37279W        W 7879  27.416  21.671  12.717
37280W        W 7880  31.324  16.240   1.647
37281W        W 7881  13.546  16.767  14.580
37282W        W 7882  19.590  38.546   3.795
37283W        W 7883  32.433  16.837  11.592
37284W        W 7884   1.803  44.038  12.312
37285W        W 7885   4.390  15.927  12.658
37286W        W 7886  23.715  37.082  12.906
37287W        W 7887  40.460  35.776   3.192
37288W        W 7888   1.323  37.988   2.401
37289W        W 7889   8.625   9.603   2.549
37290W        W 7890  27.544  37.910  14.918
37291W        W 7891  10.609   7.756   0.007
37292W        W 7892  39.796  29.751  10.744
37293W        W 7893  40.371  19.299  14.480
37294W        W 7894   5.491   9.266   5.257
37295W        W 7895  10.548  30.100  12.015
37296W        W 7896   1.233  21.631  13.815
37297W        W 7897  24.917  24.407  11.516
37298W        W 7898  39.716   1.516  13.565
37299W        W 7899  34.853   8.672  11.798
37300W        W 7900  29.196   5.032  11.100
37301W        W 7901  20.994  26.743   0.028
37302W        W 7902  18.972  36.511  11.193
37303W        W 7903  38.871  27.995  13.512
37304W        W 7904   1.204  23.123  14.987
37305W        W 7905  17.596  21.856  14.357
37306W        W 7906  34.654  39.366  13.396
37307W        W 7907   9.420  20.134  12.069
37308W        W 7908  18.731  11.057  12.639
37309W        W 7909  24.956  36.831  13.508
37310W        W 7910  40.456  34.012   4.333
37311W        W 7911  19.124  37.071   4.570
37312W        W 7912  26.177  33.689   0.897
37313W        W 7913  44.638  19.194   1.333
37314W        W 7914  10.098   1.188  11.957
37315W        W 7915  19.939  16.205  13.707
37316W        W 7916  33.844   8.138   2.810
37317W        W 7917   7.192  14.667   4.668
37318W        W 7918  44.557  26.078   3.731
37319W        W 7919  40.757  43.165  14.316
37320W        W 7920  37.913   7.918   0.328
37321W        W 7921  24.444  35.498   0.805
37322W        W 7922  39.557  27.261   4.188
37323W        W 7923   3.442  25.938  14.401
37324W        W 7924   6.763  14.119  10.745
37325W        W 7925  24.024  41.783   1.391
37326W        W 7926  43.886  19.709  12.880
37327W        W 7927  13.056  15.361  11.253
37328W        W 7928  33.868  28.897  14.583
37329W        W 7929   5.418  43.000   1.018
37330W        W 7930   4.929   9.803   2.683
37331W        W 7931  42.038  38.487  12.951
37332W        W 7932   3.401  26.197   3.205
37333W        W 7933  23.109  17.239   3.162
37334W        W 7934   4.030   8.325  11.905
37335W        W 7935  13.349  31.593   0.717
37336W        W 7936  38.565  39.372   2.199
37337W        W 7937  25.013  23.349   2.763
37338W        W 7938  35.629   5.242  12.959
37339W        W 7939  37.811  18.213   0.267
37340W        W 7940  17.149   8.085   1.811
37341W        W 7941   1.374   2.806  14.952
37342W        W 7942  44.905   8.201  13.433
37343W        W 7943  18.905  27.102   1.896
37344W        W 7944  23.734   6.873  13.810
37345W        W 7945  23.082   5.516  11.984
37346W        W 7946  31.074   4.348   4.616
37347W        W 7947  33.060  13.289  14.738
37348W        W 7948  14.149   9.402  12.545
37349W        W 7949  41.751  43.413  14.416
37350W        W 7950  18.987  39.258  11.951
37351W        W 7951   0.501   2.693  14.595
37352W        W 7952  12.239   5.128  12.878
37353W        W 7953   8.307  14.705  13.155
37354W        W 7954   9.853   7.707  10.645
37355W        W 7955  21.244  18.223  11.979
37356W        W 7956  12.645  37.961  11.471
37357W        W 7957  42.383  29.739  14.339
37358W        W 7958   1.837  12.763   1.912
37359W        W 7959  19.273  37.922   3.267
37360W        W 7960  29.084  39.162   1.206
37361W        W 7961  13.165  27.961   4.592
37362W        W 7962   4.933  12.489  11.141
37363W        W 7963  25.196  21.476  13.863
37364W        W 7964  43.866  44.476  13.044
37365W        W 7965  38.964   6.287   4.344
37366W        W 7966  42.596  28.160   1.808
37367W        W 7967  26.224  34.797  13.433
37368W        W 7968  23.169  29.917   2.525
37369W        W 7969  21.536   0.768  13.431
37370W        W 7970  22.083  13.730  14.919
37371W        W 7971  36.264   7.529  12.016
37372W        W 7972  22.220   9.701  11.618
37373W        W 7973  30.349   3.269   0.507
37374W        W 7974  29.739  29.260  14.018
37375W        W 7975   1.857  43.387   0.531
37376W        W 7976  13.368   8.731   2.127
37377W        W 7977  37.172  21.213   0.277
37378W        W 7978  33.354  17.814  11.518
37379W        W 7979  10.555  13.954   4.640
37380W        W 7980  31.053  31.913  14.927
37381W        W 7981   5.875  19.033  11.582
37382W        W 7982   0.300  14.025   4.129
37383W        W 7983  27.451  10.009  11.449
37384W        W 7984  13.287  11.482   1.270
37385W        W 7985  38.316  21.101  13.502
37386W        W 7986   2.688  13.803  13.075
37387W        W 7987  15.821  36.936   1.006
37388W        W 7988  44.908  22.784  14.450
37389W        W 7989  20.225   4.739   4.109
37390W        W 7990  19.095  21.512  14.676
37391W        W 7991  20.270   4.746  13.559
37392W        W 7992   3.489  33.457   0.254
37393W        W 7993  13.763  29.116   3.880
37394W        W 7994  26.173   7.259   2.453
37395W        W 7995  15.616  19.616   0.226
37396W        W 7996  44.933  25.232   2.347
37397W        W 7997  13.989  30.565  10.192
37398W        W 7998  29.458   4.864  12.936
37399W        W 7999   5.219  34.120  13.521
37400W        W 8000  28.596  33.696   1.122
37401W        W 8001  30.521  17.232   2.830
37402W        W 8002   9.670  25.100   0.217
37403W        W 8003   7.469  30.544   4.186
37404W        W 8004  24.969  25.738   2.569
37405W        W 8005  12.976  12.262  14.234
37406W        W 8006  43.420  40.288  13.936
37407W        W 8007  11.566  11.938   1.722
37408W        W 8008  31.612  10.624   0.929
37409W        W 8009  41.481  22.071  14.333
37410W        W 8010  40.900   0.129  11.195
37411W        W 8011  31.043   0.468  12.925
37412W        W 8012  41.511   9.188   2.196
37413W        W 8013  38.037  15.801  13.610
37414W        W 8014  25.769  12.699   2.253
37415W        W 8015  30.981  44.075  13.416
37416W        W 8016  26.645  13.573  11.915
37417W        W 8017  27.146  36.126   0.815
37418W        W 8018   8.753  20.260   4.641
37419W        W 8019  37.854   4.396  12.929
37420W        W 8020  30.213   7.757   2.037
37421W        W 8021  17.330  31.099  12.612
37422W        W 8022  29.296   6.282   4.677
37423W        W 8023  42.402  31.849  12.521
37424W        W 8024  12.719   9.204   3.403
37425W        W 8025  43.851  26.495   3.301
37426W        W 8026   7.339  24.963   2.274
37427W        W 8027  24.078  29.837   4.506
37428W        W 8028  14.344  18.069  13.348
37429W        W 8029  10.599  21.738   0.908
37430W        W 8030  19.020  35.413  11.240
37431W        W 8031  34.577  18.715  11.153
37432W        W 8032   9.284  43.044   2.863
37433W        W 8033  15.852  29.120   4.991
37434W        W 8034   8.955  38.235   5.094
37435W        W 8035   0.463  20.566   2.692
37436W        W 8036  22.662  18.355  10.216
37437W        W 8037  33.405  43.045   3.687
37438W        W 8038   9.231  36.049   0.856
37439W        W 8039  27.609  23.685  14.089
37440W        W 8040  11.151  38.449   1.836
37441W        W 8041  12.152  13.648   4.199
37442W        W 8042  25.472  17.606   2.268
37443W        W 8043  26.560  43.423   4.487
37444W        W 8044  44.358  39.651   3.777
37445W        W 8045  18.258  13.085  13.434
37446W        W 8046   6.218  23.552  13.168
37447W        W 8047  36.303  35.592  13.914
37448W        W 8048  16.346  12.841   1.287
37449W        W 8049  20.027  34.517   2.362
37450W        W 8050  12.845  35.376   1.808
37451W        W 8051  35.418  13.016  14.247
37452W        W 8052  21.414  39.896  10.312
37453W        W 8053  26.894  10.811   4.316
37454W        W 8054  39.968  13.031  14.294
37455W        W 8055  11.564  31.520  11.962
37456W        W 8056  37.751  26.130  12.144
37457W        W 8057  12.368  18.872  11.240
37458W        W 8058  13.682   9.159  11.407
37459W        W 8059  10.896   5.312   2.346
37460W        W 8060   6.513  40.013  14.002
37461W        W 8061   9.697  29.100  13.947
37462W        W 8062  21.723  42.183  14.816
37463W        W 8063  18.063  31.083   2.762
37464W        W 8064  11.722  32.108   2.847
37465W        W 8065  37.369  33.931   0.319
37466W        W 8066  17.159  12.452  12.920
37467W        W 8067  42.486  23.542   4.782
37468W        W 8068   0.257  18.029   3.508
37469W        W 8069  32.472   6.025   0.775
37470W        W 8070   7.175   1.241   3.253
37471W        W 8071  12.113  32.588   3.963
37472W        W 8072  31.173  12.746  12.880
37473W        W 8073  21.787  17.107   1.808
37474W        W 8074   1.101  13.933  14.799
37475W        W 8075  29.350  38.900   2.366
37476W        W 8076  29.493  28.624  12.922
37477W        W 8077  17.038   6.814   2.072
37478W        W 8078   3.869  33.824   3.132
37479W        W 8079   4.866  26.119   0.526
37480W        W 8080   5.643  10.343  10.312
37481W        W 8081   7.788  27.580  13.997
37482W        W 8082   9.757  26.028   3.408
37483W        W 8083  37.231  41.271   1.077
37484W        W 8084  10.301   1.956   0.513
37485W        W 8085  25.051  37.551  12.927
37486W        W 8086  25.685  24.015   0.367
37487W        W 8087  30.669   6.774   1.234
37488W        W 8088  25.377   8.694   1.845
37489W        W 8089   7.313  30.134   0.395
37490W        W 8090  40.553  24.339  11.246
37491W        W 8091  22.623  26.162   0.329
37492W        W 8092  40.466   9.340  14.968
37493W        W 8093  18.969   6.713   3.649
37494W        W 8094  20.176  25.408  13.844
37495W        W 8095  14.512  43.527   3.377
37496W        W 8096   5.828  39.492  14.945
37497W        W 8097  34.923  37.923  13.389
37498W        W 8098  23.821  23.010  11.392
37499W        W 8099  11.896  43.062  13.006
37500W        W 8100  17.533   2.115  11.513
37501W        W 8101  21.758  35.354  11.300
37502W        W 8102  30.528   6.976   2.644
37503W        W 8103  38.355  40.353   3.907
37504W        W 8104  25.985  23.654  10.356
37505W        W 8105  26.640   7.224  13.231
37506W        W 8106   6.952  10.328  10.653
37507W        W 8107  10.595  36.597   1.476
37508W        W 8108  16.038   4.179   0.706
37509W        W 8109  16.648   5.419   4.000
37510W        W 8110  13.536  22.062  10.705
37511W        W 8111   2.526  15.972  11.475
37512W        W 8112  32.434  12.706  14.535
37513W        W 8113  30.888  20.693   3.184
37514W        W 8114   9.803  40.861   4.334
37515W        W 8115  23.577  21.120  10.380
37516W        W 8116  16.799   6.301   2.845
37517W        W 8117   0.248  13.490   1.433
37518W        W 8118   0.958  40.437  13.545
37519W        W 8119  13.119  20.330  12.596
37520W        W 8120   8.853  37.883  10.400
37521W        W 8121  16.355  33.962   1.970
37522W        W 8122  24.714  13.359   0.795
37523W        W 8123  23.469  35.503  13.770
37524W        W 8124  30.568   1.785   2.444
37525W        W 8125  34.308   2.851  14.934
37526W        W 8126  42.122  32.095  11.628
37527W        W 8127   0.983  29.634  11.432
37528W        W 8128  13.132  28.635  14.871
37529W        W 8129  12.254   2.571   4.706
37530W        W 8130  35.864  28.241   0.216
37531W        W 8131  31.888  16.609  13.383
37532W        W 8132  36.014  26.189   1.446
37533W        W 8133   6.489   1.035  12.593
37534W        W 8134   4.449  17.066   4.174
37535W        W 8135  29.155   1.917  13.401
37536W        W 8136  44.380  21.469  11.764
37537W        W 8137  40.562  38.553   4.296
37538W        W 8138  23.054  38.996  11.407
37539W        W 8139  41.000  20.121   4.246
37540W        W 8140   3.444  18.080  13.327
37541W        W 8141  31.334  42.833   0.026
37542W        W 8142  23.684  33.597   1.357
37543W        W 8143   6.690  41.337   3.227
37544W        W 8144  43.621  18.800  10.310
37545W        W 8145  20.223   3.452   0.117
37546W        W 8146  11.857  28.709  11.136
37547W        W 8147  42.277  24.562  10.867
37548W        W 8148   2.711  38.952   0.826
37549W        W 8149  22.676  13.961  11.634
37550W        W 8150  44.890  17.539  10.663
37551W        W 8151   8.275  28.876   4.549
37552W        W 8152  39.922   4.460   1.863
37553W        W 8153  26.733  12.056  13.559
37554W        W 8154  21.100   1.839   0.722
37555W        W 8155  38.319  31.844  13.856
37556W        W 8156  36.954   3.476  13.350
37557W        W 8157  37.829   6.237   2.615
37558W        W 8158   9.279   3.350  14.321
37559W        W 8159  32.521   3.752  13.886
37560W        W 8160  24.175  29.692  12.741
37561W        W 8161  34.426   7.388   2.770
37562W        W 8162  11.812  27.012  13.009
37563W        W 8163  25.269   2.142   4.123
37564W        W 8164  33.601  30.847   4.713
37565W        W 8165  23.169  33.129   0.606
37566W        W 8166  40.052  39.138   4.703
37567W        W 8167  13.157  31.203   2.104
37568W        W 8168  10.718   4.351   4.067
37569W        W 8169  10.619   9.808  12.103
37570W        W 8170  16.361   3.896  14.288
37571W        W 8171  41.078  10.064   3.799
37572W        W 8172  12.511  38.851   4.057
37573W        W 8173  31.684  36.004   0.159
37574W        W 8174  11.617  38.471   2.912
37575W        W 8175   4.962  37.556   4.079
37576W        W 8176  39.776  30.025  14.825
37577W        W 8177  42.821   9.237   0.248
37578W        W 8178  20.520  31.892  10.766
37579W        W 8179  11.230  21.056  11.844
37580W        W 8180   4.902   7.434   2.787
37581W        W 8181  33.269   8.056   3.463
37582W        W 8182  34.980   1.538  12.395
37583W        W 8183  42.927  35.285  11.128
37584W        W 8184  33.546  44.885   4.092
37585W        W 8185   8.289  21.064   4.888
37586W        W 8186  35.597  23.355   4.533
37587W        W 8187  37.636  16.908   1.251
37588W        W 8188  10.624  21.112  12.551
37589W        W 8189   3.007  40.538  11.588
37590W        W 8190  20.733  29.692   3.313
37591W        W 8191  18.630  19.921   0.407
37592W        W 8192   7.282  36.154  14.922
37593W        W 8193   6.610  27.964  12.233
37594W        W 8194   3.656  12.563   3.121
37595W        W 8195   5.775  34.783  10.419
37596W        W 8196  30.588  12.341  10.734
37597W        W 8197  22.527   8.219   1.010
37598W        W 8198  22.778  18.102  12.912
37599W        W 8199  32.681  34.100   3.317
37600W        W 8200  19.261  42.738  12.038
37601W        W 8201  19.434  44.405  12.742
37602W        W 8202  28.395  10.778  13.313
37603W        W 8203  36.613  15.017  13.146
37604W        W 8204  14.558  19.446  12.104
37605W        W 8205  11.310  41.297   1.319
37606W        W 8206   9.669   6.650   2.681
37607W        W 8207   6.735   4.859  12.533
37608W        W 8208   6.647  44.995  14.750
37609W        W 8209  15.560  29.987   4.712
37610W        W 8210   4.667  33.049   1.178
37611W        W 8211   5.229   0.387  10.645
37612W        W 8212   9.662  15.190  11.617
37613W        W 8213   4.665  15.500  14.785
37614W        W 8214  42.623  18.561  10.847
37615W        W 8215  15.267  41.094  13.905
37616W        W 8216  29.088  30.462  13.398
37617W        W 8217  41.058   5.440   1.370
37618W        W 8218   9.828  17.684  13.101
37619W        W 8219  29.473  23.441   0.729
37620W        W 8220  33.155  28.964   2.176
37621W        W 8221  24.028  14.363   2.237
37622W        W 8222   0.413   4.921   3.716
37623W        W 8223  43.031   3.892   3.261
37624W        W 8224  22.351  39.350   1.901
37625W        W 8225   2.009  19.147  12.937
37626W        W 8226  18.203  19.502   1.899
37627W        W 8227   2.861   2.740  14.446
37628W        W 8228  30.150   3.272   9.913
37629W        W 8229   0.267  43.240   0.065
37630W        W 8230  26.960  22.230   2.026
37631W        W 8231   7.891   8.218  11.191
37632W        W 8232  14.271   7.246   0.821
37633W        W 8233  33.653   4.506   3.647
37634W        W 8234   7.358  13.007  14.141
37635W        W 8235  39.068   4.200  13.409
37636W        W 8236   3.219  37.586   2.127
37637W        W 8237  33.087  21.067  11.447
37638W        W 8238  32.428  32.113   2.182
37639W        W 8239  14.582   3.991   2.810
37640W        W 8240  25.613  42.854   4.004
37641W        W 8241  24.541   1.102   1.808
37642W        W 8242  18.245  43.833   1.703
37643W        W 8243  29.596  23.016  13.480
37644W        W 8244  41.545  38.499  13.022
37645W        W 8245  18.364  25.919   1.620
37646W        W 8246  12.675   4.878   4.869
37647W        W 8247  16.563  22.587  12.265
37648W        W 8248  37.200   1.652  12.792
37649W        W 8249   5.951  21.267   0.198
37650W        W 8250   2.852  35.516  14.277
37651W        W 8251  25.324  39.056   0.008
37652W        W 8252  36.430  42.503   2.017
37653W        W 8253   3.098   6.296  14.762
37654W        W 8254  37.797  13.609  12.108
37655W        W 8255  19.019  24.429  11.487
37656W        W 8256  15.144  26.485  11.923
37657W        W 8257   9.857   0.959  11.518
37658W        W 8258  30.354  16.389  11.671
37659W        W 8259  33.585  44.493   1.967
37660W        W 8260  35.866  27.490   2.268
37661W        W 8261  20.592   2.880   1.452
37662W        W 8262  14.989  12.766  12.730
37663W        W 8263   3.081  34.591  14.794
37664W        W 8264  15.356  27.068  11.962
37665W        W 8265  24.877  11.894  12.978
37666W        W 8266   8.417  29.572  14.834
37667W        W 8267  32.000   8.212   3.677
37668W        W 8268  27.819  24.168  13.979
37669W        W 8269  31.704  38.378  10.605
37670W        W 8270  42.239  43.784   0.780
37671W        W 8271  14.242  16.388   2.951
37672W        W 8272  43.039   0.039  14.882
37673W        W 8273  32.912   9.695   3.130
37674W        W 8274   0.641   8.265  11.712
37675W        W 8275  24.884  40.974  13.439
37676W        W 8276   8.164  22.329  12.480
37677W        W 8277  31.858   1.624   2.369
37678W        W 8278   8.273  37.100   0.518
37679W        W 8279   0.831  26.562  10.711
37680W        W 8280   7.861   8.701  11.429
37681W        W 8281  29.684  34.654  12.453
37682W        W 8282  13.882  33.199  12.250
37683W        W 8283  42.921  36.764  12.134
37684W        W 8284  21.249  14.669   2.727
37685W        W 8285  36.092  33.615   3.010
37686W        W 8286   2.299  16.760  13.440
37687W        W 8287   8.912  14.044  11.623
37688W        W 8288  19.672  40.332   4.569
37689W        W 8289   7.296  18.449   0.570
37690W        W 8290  38.933  38.694  14.846
37691W        W 8291  19.315  16.339   2.274
37692W        W 8292  18.614  33.952  11.842
37693W        W 8293   5.374   8.827  12.591
37694W        W 8294  31.983  27.446   1.825
37695W        W 8295  42.049   3.482  14.492
37696W        W 8296  29.453  13.095  14.740
37697W        W 8297  11.749   5.941   4.549
37698W        W 8298  21.140  26.122   2.429
37699W        W 8299   9.712  35.998  10.851
37700W        W 8300  44.043  41.414  13.460
37701W        W 8301  17.503  35.545   5.110
37702W        W 8302  24.466   0.790  10.667
37703W        W 8303  44.832  29.931  14.763
37704W        W 8304  17.788  13.411  10.914
37705W        W 8305   8.816   9.095   1.827
37706W        W 8306  18.096  21.716   2.687
37707W        W 8307  44.198  21.443  12.237
37708W        W 8308  25.927  35.930  14.792
37709W        W 8309  44.485   4.327  11.513
37710W        W 8310  25.172  36.132   4.734
37711W        W 8311  18.228  16.834   2.129
37712W        W 8312   2.003  41.811   4.075
37713W        W 8313  15.431   7.184  11.554
37714W        W 8314  31.316   6.743  14.693
37715W        W 8315  35.152  38.360   0.445
37716W        W 8316  34.197  38.073  14.388
37717W        W 8317  28.998  15.795  13.495
37718W        W 8318  16.553  19.440   5.313
37719W        W 8319  33.751  18.329   3.866
37720W        W 8320  28.133  31.357  12.052
37721W        W 8321  20.745  10.901  13.915
37722W        W 8322  21.523  26.953  10.617
37723W        W 8323   6.490  27.492  13.374
37724W        W 8324  26.802  15.515  12.974
37725W        W 8325   5.671  44.827  14.966
37726W        W 8326  11.685  35.626  11.471
37727W        W 8327  35.153  43.946   3.195
37728W        W 8328  28.997  12.072  13.444
37729W        W 8329  13.241  13.791   0.802
37730W        W 8330  10.410  24.037  12.036
37731W        W 8331  29.661   1.990  14.911
37732W        W 8332  39.065  39.452  14.240
37733W        W 8333   4.224  38.002  13.386
37734W        W 8334  30.378  19.792  11.151
37735W        W 8335  27.206  13.123  14.473
37736W        W 8336  31.435   3.506  11.071
37737W        W 8337  23.129  29.137   0.372
37738W        W 8338   7.854   5.929   1.398
37739W        W 8339  30.737   4.024  13.801
37740W        W 8340  12.766  13.379  11.032
37741W        W 8341   6.785  38.003  11.625
37742W        W 8342  39.263  32.924   1.350
37743W        W 8343  25.710  12.269   2.526
37744W        W 8344  23.244   5.772   3.616
37745W        W 8345   7.784   5.908  14.363
37746W        W 8346  35.839  30.400   3.627
37747W        W 8347   1.066  39.307  11.999
37748W        W 8348  38.393  33.667   0.168
37749W        W 8349  19.471  43.889  12.935
37750W        W 8350  22.613   7.676   2.763
37751W        W 8351  37.514  28.584   3.874
37752W        W 8352   8.959  43.984   4.558
37753W        W 8353  42.422  17.179   4.389
37754W        W 8354  41.058  22.154   1.791
37755W        W 8355  24.745  41.982   0.905
37756W        W 8356  39.328  11.655  13.811
37757W        W 8357   1.983  39.808   4.344
37758W        W 8358   2.323   9.808  12.529
37759W        W 8359  13.863   1.158   1.337
37760W        W 8360  28.032  34.595   0.684
37761W        W 8361   0.476   1.366  13.042
37762W        W 8362  27.399   6.806   4.137
37763W        W 8363  29.975  44.495   3.059
37764W        W 8364  23.769  12.515  12.077
37765W        W 8365   5.956  43.368   0.254
37766W        W 8366  16.715  24.766   3.948
37767W        W 8367   2.718   7.568  13.793
37768W        W 8368  43.301   5.845   4.626
37769W        W 8369  17.747  22.516  13.372
37770W        W 8370   9.838  38.781  10.922
37771W        W 8371  29.628   4.007  12.530
37772W        W 8372   9.666   7.200   2.681
37773W        W 8373   0.522  43.428   0.494
37774W        W 8374  15.306  23.550  13.473
37775W        W 8375  28.947   9.245   1.949
37776W        W 8376  30.934  29.023   4.596
37777W        W 8377   2.149  34.071  13.609
37778W        W 8378  22.995  27.976   4.460
37779W        W 8379  34.426  24.031   1.646
37780W        W 8380   4.392   6.219  13.463
37781W        W 8381  16.318  18.828   0.400
37782W        W 8382  21.082  33.319   5.008
37783W        W 8383   1.278  15.247   0.507
37784W        W 8384  27.521   2.002   4.861
37785W        W 8385  33.219  38.474   2.331
37786W        W 8386   8.430  25.590   1.689
37787W        W 8387   3.764  20.545  13.274
37788W        W 8388   7.714  38.178  14.840
37789W        W 8389  22.075   9.510   2.681
37790W        W 8390  36.836  42.275   1.786
37791W        W 8391  24.122  25.960  14.039
37792W        W 8392  41.552  21.606   1.103
37793W        W 8393  29.180  42.811  13.424
37794W        W 8394  15.241   8.430  11.105
37795W        W 8395   7.304  35.303  12.494
37796W        W 8396  10.909  22.606  13.384
37797W        W 8397  28.550  23.129  14.899
37798W        W 8398  36.150  35.848  13.477
37799W        W 8399  33.150  31.882   0.378
37800W        W 8400  17.650  24.938   3.686
37801W        W 8401  17.683  25.757   3.185
37802W        W 8402  10.830  25.213   3.905
37803W        W 8403  24.605  24.173  13.121
37804W        W 8404   9.140  42.502   3.784
37805W        W 8405  13.190  37.418  13.472
37806W        W 8406   5.839  10.408  14.837
37807W        W 8407   5.895  15.081  13.817
37808W        W 8408  21.048  40.523   0.438
37809W        W 8409  13.831  19.871  12.319
37810W        W 8410   9.871  26.255   1.328
37811W        W 8411  14.644  17.205   2.333
37812W        W 8412  10.166  36.607   1.794
37813W        W 8413  36.865   4.038   0.295
37814W        W 8414  25.015  20.100   1.355
37815W        W 8415  41.895  10.005   0.705
37816W        W 8416  12.265  11.088   0.351
37817W        W 8417  29.032  39.278   3.249
37818W        W 8418  38.871  31.960  12.961
37819W        W 8419   1.389  12.839   0.205
37820W        W 8420   8.127   8.850   4.976
37821W        W 8421   0.319  17.684  13.087
37822W        W 8422   4.683  41.135  12.134
37823W        W 8423  32.617  18.311   4.467
37824W        W 8424   0.437   7.760  12.919
37825W        W 8425   7.605  39.826   2.351
37826W        W 8426   1.644  30.544   0.819
37827W        W 8427   2.716  34.879  13.876
37828W        W 8428  20.260  44.911   2.705
37829W        W 8429   9.300  33.069  14.344
37830W        W 8430   4.930  20.543  13.988
37831W        W 8431  14.536  23.978   0.237
37832W        W 8432  13.750  37.767   2.250
37833W        W 8433  37.678  38.315  13.867
37834W        W 8434  20.718   9.892  10.782
37835W        W 8435  37.468  18.234  12.054
37836W        W 8436  19.908  20.994   0.026
37837W        W 8437  32.044  38.966   1.418
37838W        W 8438   1.027  44.979  12.976
37839W        W 8439  29.378  39.476   3.588
37840W        W 8440  44.801  18.806  14.001
37841W        W 8441  20.255  42.510   3.409
37842W        W 8442  37.452  14.634   4.934
37843W        W 8443   1.458  26.639   3.583
37844W        W 8444  14.839  25.483  11.194
37845W        W 8445  41.242  14.553   3.185
37846W        W 8446  29.042   1.904   0.973
37847W        W 8447  10.581   4.923  12.469
37848W        W 8448  34.453  37.911  13.598
37849W        W 8449  12.533   5.622   0.218
37850W        W 8450  12.066  23.245   1.337
37851W        W 8451  24.669  27.913   0.723
37852W        W 8452  10.824  29.107  12.866
37853W        W 8453  27.488   2.831   1.821
37854W        W 8454  33.828  44.484  12.844
37855W        W 8455  20.163  27.211  13.417
37856W        W 8456  14.334  22.067   4.590
37857W        W 8457  11.161   7.199  10.654
37858W        W 8458  34.305   1.693  11.864
37859W        W 8459  18.135  44.513   2.585
37860W        W 8460  34.059  39.400   2.616
37861W        W 8461   0.388  13.686  10.368
37862W        W 8462   2.418   2.362  13.599
37863W        W 8463   3.909  30.417  13.955
37864W        W 8464  23.963   1.592  11.533
37865W        W 8465   2.341  17.570  12.327
37866W        W 8466  10.894  17.252  12.000
37867W        W 8467   1.183  26.758  12.485
37868W        W 8468  38.694  43.959   4.579
37869W        W 8469  22.817  19.515   3.367
37870W        W 8470  18.296   5.701  14.807
37871W        W 8471  26.069  35.460  14.031
37872W        W 8472  20.151  39.923  11.540
37873W        W 8473  23.601  11.635   1.754
37874W        W 8474  31.434   7.843  11.396
37875W        W 8475  30.071   9.148  13.084
37876W        W 8476  23.632  26.355   3.108
37877W        W 8477   4.290  16.460   1.801
37878W        W 8478   8.827  10.253  10.251
37879W        W 8479   2.655  20.039  13.772
37880W        W 8480   6.134  10.845  14.704
37881W        W 8481  17.578   3.262   3.231
37882W        W 8482  15.702  23.065  11.248
37883W        W 8483  39.920   4.361   3.345
37884W        W 8484  30.959  32.936  14.763
37885W        W 8485  20.522  39.060   3.870
37886W        W 8486  26.065  39.507   0.704
37887W        W 8487  36.472   0.369  11.711
37888W        W 8488  31.145  26.713  12.991
37889W        W 8489  41.305   0.830  12.568
37890W        W 8490   8.622  40.379  13.103
37891W        W 8491  43.278  16.802   1.928
37892W        W 8492   4.838  33.243  11.622
37893W        W 8493  27.618  18.979   3.198
37894W        W 8494  36.951  17.478  14.810
37895W        W 8495  11.797  43.567  11.124
37896W        W 8496  30.790   3.805   1.414
37897W        W 8497  16.764  34.252  11.466
37898W        W 8498  27.218   1.918   1.397
37899W        W 8499   8.755   6.751   2.817
37900W        W 8500  17.107   3.505  11.462
37901W        W 8501  17.733  23.110  13.381
37902W        W 8502  27.007  19.674   0.918
37903W        W 8503  36.403   8.969   0.368
37904W        W 8504  27.050  38.501   2.441
37905W        W 8505  24.516  42.438   3.811
37906W        W 8506  37.912  24.084  13.368
37907W        W 8507  41.809  14.752   4.257
37908W        W 8508   1.453  12.894  12.809
37909W        W 8509   6.926   5.518  13.825
37910W        W 8510   0.236   0.724   1.385
37911W        W 8511   3.863  14.512  13.141
37912W        W 8512  10.378  41.358   0.368
37913W        W 8513  23.858  41.807   2.562
37914W        W 8514  23.706  37.649   0.051
37915W        W 8515  11.354  34.529  13.966
37916W        W 8516  44.447  20.561   2.700
37917W        W 8517  23.255  34.331   4.110
37918W        W 8518  44.254   5.251   1.721
37919W        W 8519  43.669   1.950  14.554
37920W        W 8520   4.508   0.104   3.288
37921W        W 8521   2.162  17.093  14.993
37922W        W 8522   3.220   8.034  12.070
37923W        W 8523  33.700  18.832   4.708
37924W        W 8524   2.059  40.491   0.862
37925W        W 8525  17.743  38.109  14.541
37926W        W 8526  44.467  29.472   4.618
37927W        W 8527   0.487  14.467   3.904
37928W        W 8528  33.329  25.065   3.779
37929W        W 8529  14.367  16.127   0.786
37930W        W 8530   2.859  10.226  12.606
37931W        W 8531   3.552   8.402  11.074
37932W        W 8532  10.725  28.379   3.780
37933W        W 8533  21.638  42.984   0.465
37934W        W 8534   6.080  20.442  11.298
37935W        W 8535  27.794  41.163  12.204
37936W        W 8536  10.259  10.655  12.206
37937W        W 8537  42.385  35.043   0.384
37938W        W 8538  26.154  34.398   4.616
37939W        W 8539   3.485  26.235   4.152
37940W        W 8540  32.098  29.529  14.107
37941W        W 8541  39.472  19.695   4.069
37942W        W 8542  44.264  15.939  10.325
37943W        W 8543  37.395   1.373  14.295
37944W        W 8544  40.250  19.515   3.670
37945W        W 8545  15.431  12.653  12.506
37946W        W 8546  42.666  28.943  13.111
37947W        W 8547  34.557   5.749   3.758
37948W        W 8548  29.130   8.327   3.908
37949W        W 8549  24.654  30.007   0.215
37950W        W 8550  36.811  11.827   3.696
37951W        W 8551  27.238  34.922  13.681
37952W        W 8552  22.495  15.339  14.452
37953W        W 8553  33.038  22.382   1.645
37954W        W 8554  28.078  19.343   1.497
37955W        W 8555   2.249  28.178   1.345
37956W        W 8556  44.202  25.942   0.009
37957W        W 8557  41.198  41.006   1.467
37958W        W 8558  12.338  11.952  13.442
37959W        W 8559  18.238  13.544  14.227
37960W        W 8560  28.419  31.067   3.919
37961W        W 8561   2.894  26.426  11.503
37962W        W 8562  26.063  35.639  10.615
37963W        W 8563  35.683   6.267   0.753
37964W        W 8564   8.666  41.729  13.405
37965W        W 8565   8.389  41.056  11.197
37966W        W 8566  26.379  36.936  10.772
37967W        W 8567   0.550  40.811  14.285
37968W        W 8568  35.471   1.514  12.525
37969W        W 8569  31.110  24.130  11.223
37970W        W 8570  25.495  24.507   0.294
37971W        W 8571  14.299  36.517  13.042
37972W        W 8572   7.671   9.927  10.731
37973W        W 8573   7.153   4.208  13.902
37974W        W 8574  31.516  21.583   2.235
37975W        W 8575   5.977   2.457  11.128
37976W        W 8576  26.011  38.603   0.303
37977W        W 8577  28.881  18.221   3.695
37978W        W 8578   9.705  26.341  13.405
37979W        W 8579  19.078  40.826  12.095
37980W        W 8580   4.351   0.563   3.530
37981W        W 8581  18.238  23.987  12.479
37982W        W 8582  37.306  12.599   4.100
37983W        W 8583  33.484  25.999  14.597
37984W        W 8584  22.565  26.630  11.934
37985W        W 8585  11.825  24.970   1.813
37986W        W 8586  36.871  16.948   2.756
37987W        W 8587  41.835  18.612   3.716
37988W        W 8588  12.744  31.510  11.573
37989W        W 8589  36.996  42.459   1.317
37990W        W 8590  15.161  12.616   4.650
37991W        W 8591  18.167  15.124  13.853
37992W        W 8592  13.045  12.446   0.275
37993W        W 8593   3.741  19.386  10.814
37994W        W 8594   5.771  30.160   4.811
37995W        W 8595  35.074  25.430  11.932
37996W        W 8596  42.864   1.482  11.607
37997W        W 8597   0.290  44.268  13.883
37998W        W 8598   3.288  17.244   2.699
37999W        W 8599  26.965  37.287   2.186
38000W        W 8600  13.801  10.708   2.845
38001W        W 8601  36.148   9.739   4.803
38002W        W 8602  41.947  25.564  11.675
38003W        W 8603  19.841  35.071  12.138
38004W        W 8604  22.509  40.252  12.114
38005W        W 8605  15.119  41.958   1.903
38006W        W 8606  38.438  30.616  12.125
38007W        W 8607  44.297  29.662  12.943
38008W        W 8608   5.232  15.263  13.053
38009W        W 8609  42.451   2.414  13.928
38010W        W 8610  11.861  15.785   0.927
38011W        W 8611  19.146  28.987   5.402
38012W        W 8612  27.251   5.223  10.810
38013W        W 8613   3.680  43.016   2.616
38014W        W 8614  15.377  30.639   1.589
38015W        W 8615  22.057  25.295  12.873
38016W        W 8616  19.250  10.699   1.866
38017W        W 8617   4.960  43.457   4.162
38018W        W 8618  34.903  39.169  14.658
38019W        W 8619  16.415  24.960   3.165
38020W        W 8620   2.477  29.204   3.985
38021W        W 8621  20.071  39.267  10.728
38022W        W 8622  43.804  37.262  10.545
38023W        W 8623  17.937  38.336  11.460
38024W        W 8624  42.507  38.421   4.819
38025W        W 8625  31.563  12.969   2.823
38026W        W 8626  21.974  27.478  12.027
38027W        W 8627  13.140   4.077   3.315
38028W        W 8628  44.199  14.616  11.619
38029W        W 8629  30.954  38.433  14.810
38030W        W 8630   0.800  22.217  12.524
38031W        W 8631  20.608  13.806   4.914
38032W        W 8632  16.135  32.673  11.135
38033W        W 8633  33.534   4.487   2.299
38034W        W 8634  19.439  38.447  12.545
38035W        W 8635  16.299  13.391   0.403
38036W        W 8636  32.197  44.760   1.138
38037W        W 8637  34.586  39.906   4.258
38038W        W 8638   6.619   5.151   4.139
38039W        W 8639  23.313  10.442  10.677
38040W        W 8640  13.574  26.502  13.083
38041W        W 8641  39.638  41.493  10.748
38042W        W 8642  13.794   9.227  12.888
38043W        W 8643  37.907  10.848   2.454
38044W        W 8644  39.095  16.197  14.409
38045W        W 8645  43.576  39.531  12.066
38046W        W 8646  18.616  28.693   2.346
38047W        W 8647  17.167   4.020  11.374
38048W        W 8648  41.823   8.763  10.642
38049W        W 8649  38.481  27.425  12.155
38050W        W 8650  36.121  44.414   3.617
38051W        W 8651  12.231  24.767   1.490
38052W        W 8652  23.113   2.952  12.210
38053W        W 8653  11.797  20.778   2.867
38054W        W 8654  43.358  29.586  12.097
38055W        W 8655  23.219  44.486  13.543
38056W        W 8656   9.429  35.432  10.424
38057W        W 8657   9.594  39.525  13.834
38058W        W 8658  31.728  19.227  14.002
38059W        W 8659  30.926  12.598  13.347
38060W        W 8660  25.222  43.863   1.707
38061W        W 8661  28.641  34.194   2.725
38062W        W 8662  15.785   3.376  12.419
38063W        W 8663  40.408  23.095   1.488
38064W        W 8664  22.621   5.706   0.429
38065W        W 8665  14.325  17.287  12.918
38066W        W 8666  15.565  42.895  14.837
38067W        W 8667  18.017  11.870  12.163
38068W        W 8668  26.684  34.070   0.294
38069W        W 8669  38.568  22.140   1.921
38070W        W 8670   4.729  42.856   0.285
38071W        W 8671  13.115  25.986   3.668
38072W        W 8672   6.880  29.701  12.976
38073W        W 8673  37.463  16.980   2.648
38074W        W 8674  21.673  19.147   3.385
38075W        W 8675  25.667  38.516  12.058
38076W        W 8676  27.024   8.860  14.304
38077W        W 8677  42.438   6.898   0.646
38078W        W 8678  12.452   8.934  11.363
38079W        W 8679  44.926  19.256  13.082
38080W        W 8680   8.061  26.467  13.374
38081W        W 8681  34.655  23.043   3.606
38082W        W 8682   6.843  26.510   1.814
38083W        W 8683  20.134  20.061  14.629
38084W        W 8684  18.104  22.096   3.348
38085W        W 8685  16.096  29.129   4.494
38086W        W 8686  17.583   0.776  13.058
38087W        W 8687   7.949  12.816  13.041
38088W        W 8688  41.154  14.878   0.769
38089W        W 8689   0.803  33.157   3.894
38090W        W 8690   6.767  22.969   0.772
38091W        W 8691  19.923  12.841   1.362
38092W        W 8692  18.829  17.565  13.888
38093W        W 8693  34.078  31.216   3.261
38094W        W 8694   8.970  10.852   1.291
38095W        W 8695  17.092  44.305  10.553
38096W        W 8696   0.331   2.484  10.682
38097W        W 8697  25.113  22.574  12.918
38098W        W 8698  34.498  44.694  12.363
38099W        W 8699  17.190  25.694  11.230
38100W        W 8700  44.639  34.122  14.056
38101W        W 8701  39.562  40.338  13.036
38102W        W 8702   1.714  37.554   4.177
38103W        W 8703   9.209  11.621  12.408
38104W        W 8704   5.974   0.989  12.562
38105W        W 8705   8.699   1.878  11.095
38106W        W 8706   8.672  21.516  14.708
38107W        W 8707  25.561   6.169  12.899
38108W        W 8708   9.667  36.543  11.130
38109W        W 8709  41.986   4.197  13.074
38110W        W 8710  15.099  28.277  12.123
38111W        W 8711  31.845   8.686   1.332
38112W        W 8712   7.850  13.149  14.380
38113W        W 8713  40.348  40.543  11.506
38114W        W 8714  38.460  15.237   4.426
38115W        W 8715   5.804   6.797  11.966
38116W        W 8716  35.838  38.461  11.326
38117W        W 8717   3.942  17.137  13.776
38118W        W 8718  28.116  34.604   0.169
38119W        W 8719  19.137  39.065   2.730
38120W        W 8720  23.432  31.927   0.355
38121W        W 8721  39.424  39.434   0.025
38122W        W 8722  35.551  25.714   4.196
38123W        W 8723  28.493  32.549  13.842
38124W        W 8724   8.867  37.335  14.361
38125W        W 8725  10.180  44.908   1.797
38126W        W 8726  44.407  29.684  10.751
38127W        W 8727   0.949   1.982   4.225
38128W        W 8728  17.852  28.087  12.251
38129W        W 8729   7.125  10.952  14.560
38130W        W 8730  43.909  26.713   1.915
38131W        W 8731  24.954  37.473   4.560
38132W        W 8732  23.093   3.870   3.223
38133W        W 8733  22.538  34.024  14.311
38134W        W 8734  24.004  35.394   1.156
38135W        W 8735  36.278  42.640  14.413
38136W        W 8736  40.110  24.919   0.395
38137W        W 8737  41.214  17.497  10.322
38138W        W 8738   8.175  10.303   3.393
38139W        W 8739  31.578   1.271  11.500
38140W        W 8740  25.234  18.738  13.280
38141W        W 8741  22.134  19.257   0.491
38142W        W 8742  41.345  21.515  12.407
38143W        W 8743  27.078   6.225  11.952
38144W        W 8744   1.050  41.959  14.299
38145W        W 8745  26.623  31.101   4.263
38146W        W 8746   2.916  17.794  13.966
38147W        W 8747  39.396  30.358   0.855
38148W        W 8748  44.469  40.866   0.238
38149W        W 8749  36.565  43.206   0.271
38150W        W 8750  17.185  35.002  13.803
38151W        W 8751  37.265  11.427   0.526
38152W        W 8752  23.913  23.461  13.102
38153W        W 8753  29.649  28.795  13.387
38154W        W 8754  43.960  20.609  13.586
38155W        W 8755   7.687  37.610   2.299
38156W        W 8756  29.870  12.617   3.721
38157W        W 8757  23.810   7.979  11.953
38158W        W 8758   1.905  14.331   1.986
38159W        W 8759  31.569  24.748   4.711
38160W        W 8760   3.244  38.200  13.519
38161W        W 8761  19.533  40.566  11.898
38162W        W 8762  21.966  41.423  12.207
38163W        W 8763  22.385   7.568   4.581
38164W        W 8764  38.837  43.435  13.381
38165W        W 8765  33.874  41.591  11.340
38166W        W 8766  21.756   0.527   3.622
38167W        W 8767  14.337   0.365  13.451
38168W        W 8768   5.081   7.996   0.664
38169W        W 8769  21.134  18.325   1.396
38170W        W 8770  12.849  33.964   0.292
38171W        W 8771  44.813   3.434  14.862
38172W        W 8772  34.161  31.599  13.932
38173W        W 8773   9.173  32.372   0.053
38174W        W 8774  24.674  35.871  12.906
38175W        W 8775  39.464  34.855  14.142
38176W        W 8776   0.807   9.868  12.466
38177W        W 8777  18.035  40.457  12.901
38178W        W 8778  35.086  28.386   4.660
38179W        W 8779  25.000  34.368   2.794
38180W        W 8780  20.262  21.222  11.681
38181W        W 8781  17.261  16.697   0.091
38182W        W 8782  38.719   5.816  11.980
38183W        W 8783   9.183  35.797   2.608
38184W        W 8784  44.430  29.814   5.040
38185W        W 8785  17.967   4.214   1.403
38186W        W 8786  14.763   4.354   1.390
38187W        W 8787  26.765  26.062  12.495
38188W        W 8788   5.885  21.673   4.977
38189W        W 8789  16.266  16.784  10.810
38190W        W 8790  11.257  38.923   2.129
38191W        W 8791   2.159   4.251   0.484
38192W        W 8792  43.077  21.265   3.223
38193W        W 8793  25.733  20.249  11.047
38194W        W 8794  24.704  37.024   4.825
38195W        W 8795  35.540  24.374   4.422
38196W        W 8796  41.129  20.970  12.880
38197W        W 8797  16.159  35.958   3.412
38198W        W 8798  16.406  30.133   4.911
38199W        W 8799  13.691  16.115  11.774
38200W        W 8800  34.346  40.099   3.123
38201W        W 8801  42.240  11.709   2.613
38202W        W 8802  29.377  41.814   1.753
38203W        W 8803  31.623  34.887   3.174
38204W        W 8804  23.759  14.616   2.712
38205W        W 8805  14.669  29.557   2.721
38206W        W 8806  18.148  14.622   1.364
38207W        W 8807  38.084  42.496  10.927
38208W        W 8808  43.109  24.350  11.127
38209W        W 8809   9.756  39.976  11.777
38210W        W 8810  36.073   4.967  10.395
38211W        W 8811  24.282   1.804  11.908
38212W        W 8812  41.571  39.342  14.349
38213W        W 8813  31.064  15.767  11.717
38214W        W 8814   9.519  44.163   1.821
38215W        W 8815  40.221  17.615   0.721
38216W        W 8816  11.866  14.150   3.117
38217W        W 8817   4.862  15.780  12.491
38218W        W 8818  22.992  39.427  14.989
38219W        W 8819  12.392  14.436   3.829
38220W        W 8820  25.158  27.170  13.443
38221W        W 8821  39.323  37.925   2.701
38222W        W 8822   0.784   3.912   0.427
38223W        W 8823  27.894  11.739   1.346
38224W        W 8824  36.535  13.928  12.318
38225W        W 8825  14.643  34.713   3.609
38226W        W 8826   7.733   7.902  13.470
38227W        W 8827  32.446  44.854   2.042
38228W        W 8828  35.257   8.877   5.097
38229W        W 8829  28.633  14.598  12.085
38230W        W 8830   3.471  36.529   4.717
38231W        W 8831  11.868  42.556  10.139
38232W        W 8832  37.788  38.671  13.444
38233W        W 8833  37.862   8.290   4.167
38234W        W 8834   9.674  39.420   3.771
38235W        W 8835   0.047  20.274  10.978
38236W        W 8836   4.034  20.767   3.998
38237W        W 8837   7.659  10.625   0.219
38238W        W 8838   4.202  18.964   4.247
38239W        W 8839  37.104  20.264  14.517
38240W        W 8840  30.426   6.319   1.360
38241W        W 8841  16.257  42.075  14.778
38242W        W 8842  11.160   1.444  13.970
38243W        W 8843  24.063   2.968  14.333
38244W        W 8844  29.483   0.964   0.009
38245W        W 8845  26.372  13.668   3.723
38246W        W 8846  29.949  16.684  11.358
38247W        W 8847  28.470  43.190   4.431
38248W        W 8848  44.116  20.015   1.385
38249W        W 8849   4.448  39.828  13.497
38250W        W 8850  22.558  30.437  13.055
38251W        W 8851  21.089  25.850   3.612
38252W        W 8852  34.035  34.551  13.419
38253W        W 8853  26.822   3.549   0.018
38254W        W 8854  15.836   1.978   1.514
38255W        W 8855  21.190   3.774  10.318
38256W        W 8856   5.645  10.380   1.656
38257W        W 8857  22.799  24.235  12.018
38258W        W 8858  13.724  20.654   2.766
38259W        W 8859  35.898  39.933   4.620
38260W        W 8860  40.565  32.509  14.467
38261W        W 8861   1.651  42.606  11.321
38262W        W 8862  30.693  37.091   2.364
38263W        W 8863  30.775  13.857   1.277
38264W        W 8864   0.256  20.362  10.520
38265W        W 8865  30.376  19.956   1.455
38266W        W 8866  14.333  40.950   2.204
38267W        W 8867  39.428   3.889  14.273
38268W        W 8868  25.108  13.105  11.650
38269W        W 8869  28.580   9.260  13.119
38270W        W 8870   5.845   0.624  14.283
38271W        W 8871  41.976  14.035  13.984
38272W        W 8872  20.969  26.554  10.735
38273W        W 8873  38.175  35.846  12.386
38274W        W 8874   1.105  35.527  14.341
38275W        W 8875  12.714  25.430   4.179
38276W        W 8876   3.510   7.597   1.272
38277W        W 8877  32.679  31.440   0.818
38278W        W 8878  24.022  18.953  14.407
38279W        W 8879   3.944  24.981  13.352
38280W        W 8880  25.687  30.520  13.432
38281W        W 8881  33.905  12.391  12.345
38282W        W 8882  38.102  16.774   2.152
38283W        W 8883  36.897   7.756   3.814
38284W        W 8884   9.980  15.477   2.336
38285W        W 8885  20.131  30.049  11.128
38286W        W 8886   6.420  14.543  12.421
38287W        W 8887  43.048  33.576   4.774
38288W        W 8888   5.666  21.635   0.432
38289W        W 8889  27.348  24.606   1.708
38290W        W 8890  25.989   6.986   0.286
38291W        W 8891  10.821  27.932  13.420
38292W        W 8892   3.241  28.016   1.745
38293W        W 8893  26.455  28.476   0.512
38294W        W 8894   3.366  44.354   0.748
38295W        W 8895   5.473  23.082  12.064
38296W        W 8896  23.113   9.126  11.685
38297W        W 8897   6.881  11.662   0.523
38298W        W 8898   8.987  17.678   2.695
38299W        W 8899  27.606  28.737   2.868
38300W        W 8900  17.711  17.226   1.347
38301W        W 8901  20.702  35.106  13.951
38302W        W 8902  18.087  39.915   0.589
38303W        W 8903  20.008  17.544  10.642
38304W        W 8904  17.520   0.178  14.911
38305W        W 8905  36.424   8.725   1.376
38306W        W 8906   7.087  30.914   0.790
38307W        W 8907  39.922  28.613   4.366
38308W        W 8908   8.026  28.762  11.553
38309W        W 8909  22.532   6.677   2.870
38310W        W 8910  14.658  27.075  11.629
38311W        W 8911   6.534  23.991  13.853
38312W        W 8912  44.370   7.678   3.357
38313W        W 8913   1.843   3.404  14.581
38314W        W 8914  29.371   5.303   3.761
38315W        W 8915   2.429  23.276  13.897
38316W        W 8916  37.352  15.797   0.398
38317W        W 8917  20.000  17.087  14.336
38318W        W 8918  19.847  42.959   2.361
38319W        W 8919  12.286  22.395  13.983
38320W        W 8920  17.286  19.046   0.326
38321W        W 8921  26.916  16.670  14.037
38322W        W 8922  14.739  42.386   2.382
38323W        W 8923   6.140  42.493   2.300
38324W        W 8924  17.317  31.533  11.473
38325W        W 8925  24.066   0.364  12.054
38326W        W 8926   0.049  37.661   0.375
38327W        W 8927   6.666  15.652  12.828
38328W        W 8928  16.191   4.183  11.202
38329W        W 8929  36.858  43.574  13.603
38330W        W 8930  34.604  43.797   2.344
38331W        W 8931  38.436  43.800  11.461
38332W        W 8932  26.508  37.525  13.448
38333W        W 8933  22.560  32.317  10.752
38334W        W 8934  40.712  42.584   5.016
38335W        W 8935  28.717  29.924   3.346
38336W        W 8936  12.119  28.748   1.750
38337W        W 8937  13.104  39.502  14.023
38338W        W 8938   9.423  30.261   3.619
38339W        W 8939  31.800   5.301  11.371
38340W        W 8940  40.865   2.989  14.291
38341W        W 8941  43.478   3.887  14.051
38342W        W 8942  35.848   9.708   0.400
38343W        W 8943  44.010  17.144   0.412
38344W        W 8944  19.486  20.249  10.579
38345W        W 8945  24.920  37.430  13.881
38346W        W 8946  16.906   5.704  14.470
38347W        W 8947  23.146  15.925   4.902
38348W        W 8948   2.310  34.474  12.871
38349W        W 8949  22.300  38.444  13.908
38350W        W 8950   1.009   5.938  12.567
38351W        W 8951  14.072   9.930   3.297
38352W        W 8952  20.407  39.603  11.216
38353W        W 8953  43.867   0.221   1.690
38354W        W 8954   7.227  33.242   5.129
38355W        W 8955  26.748   3.027   2.473
38356W        W 8956  37.599  44.794   1.360
38357W        W 8957  15.263  15.972   1.420
38358W        W 8958  28.147  35.419  11.062
38359W        W 8959  40.321  19.707   2.832
38360W        W 8960  33.964  39.259  10.164
38361W        W 8961  16.288   7.688   0.704
38362W        W 8962  44.327  30.423   1.474
38363W        W 8963  23.050  42.246   0.321
38364W        W 8964  13.281  39.597  12.927
38365W        W 8965   8.303  30.013   4.641
38366W        W 8966  14.676  26.938  13.789
38367W        W 8967   8.127  12.725  11.224
38368W        W 8968  11.337  42.359  13.770
38369W        W 8969  17.137  40.470  12.897
38370W        W 8970  20.515  31.328   2.149
38371W        W 8971   8.410  10.128   3.883
38372W        W 8972   1.359  34.376   0.972
38373W        W 8973   0.903   1.169  11.687
38374W        W 8974  23.104   7.146   0.423
38375W        W 8975  26.434  12.249   3.807
38376W        W 8976  31.468  21.358   2.696
38377W        W 8977  13.882   1.702   1.319
38378W        W 8978  29.906  33.182   3.973
38379W        W 8979  33.425  38.828   0.776
38380W        W 8980  34.865  17.068   2.224
38381W        W 8981  42.376  23.224   0.410
38382W        W 8982  28.140   3.635   4.604
38383W        W 8983  17.047  24.605   0.846
38384W        W 8984  21.152  41.305  12.758
38385W        W 8985  13.469  11.790   0.014
38386W        W 8986  42.099  39.438  11.900
38387W        W 8987   7.918  42.501   0.266
38388W        W 8988  40.437   1.691  11.952
38389W        W 8989  31.891   5.165  12.735
38390W        W 8990  23.557  42.390   0.314
38391W        W 8991  24.136  24.421  11.942
38392W        W 8992   6.188  19.561  14.988
38393W        W 8993  10.641  40.824   4.863
38394W        W 8994  38.294  38.829   3.519
38395W        W 8995  16.169   5.328   2.670
38396W        W 8996   3.219  34.835  14.083
38397W        W 8997  33.657  32.646  13.468
38398W        W 8998   0.744   6.822   3.143
38399W        W 8999  42.341  17.718   3.584
38400W        W 9000  35.326  30.820  10.979
38401W        W 9001  23.157  32.593  11.421
38402W        W 9002  15.842  34.137  13.622
38403W        W 9003   9.430   2.878   3.918
38404W        W 9004  25.010  21.742   3.342
38405W        W 9005  30.166  37.477  13.009
38406W        W 9006  36.558  22.492  11.657
38407W        W 9007  42.312  21.452  12.459
38408W        W 9008  36.547   5.808   3.584
38409W        W 9009  23.570   3.367  10.697
38410W        W 9010  25.522  22.164   2.673
38411W        W 9011  38.921  18.589  14.992
38412W        W 9012  28.532  15.674  11.694
38413W        W 9013  15.340   0.231   1.773
38414W        W 9014  25.574  36.383   4.903
38415W        W 9015  32.615  20.045  10.966
38416W        W 9016  11.194   9.552   3.981
38417W        W 9017  20.680  26.603  12.351
38418W        W 9018  27.941  36.049   2.759
38419W        W 9019  39.046  43.577   3.320
38420W        W 9020   5.863  41.543  11.851
38421W        W 9021  30.853   9.397  12.499
38422W        W 9022  19.841  11.217   4.072
38423W        W 9023  24.161  10.859  13.391
38424W        W 9024  40.005  41.770   1.281
38425W        W 9025  38.092  32.345   2.636
38426W        W 9026   9.123  18.571   0.248
38427W        W 9027  18.433  35.969  10.713
38428W        W 9028  28.897   2.225   2.689
38429W        W 9029  23.377  32.072   3.730
38430W        W 9030   8.889   2.389  11.217
38431W        W 9031  10.281   7.679   2.352
38432W        W 9032  19.728  24.048  11.633
38433W        W 9033  14.707  15.191   1.431
38434W        W 9034  39.394  13.542  14.902
38435W        W 9035  29.268  19.826  13.471
38436W        W 9036   8.197  31.640   1.045
38437W        W 9037  19.554  10.237  12.577
38438W        W 9038  41.373  16.251  12.481
38439W        W 9039  39.199  27.923   1.191
38440W        W 9040   3.886  26.600   2.409
38441W        W 9041  35.790  27.510   3.740
38442W        W 9042  32.892  43.889   1.936
38443W        W 9043  38.059  31.237  14.454
38444W        W 9044  13.396  35.798  11.245
38445W        W 9045  14.876  16.887   1.390
38446W        W 9046  40.623  34.319  12.090
38447W        W 9047  10.205  41.558   1.496
38448W        W 9048  39.460   5.170   1.960
38449W        W 9049  10.322  32.254  10.236
38450W        W 9050  35.787  18.956   1.755
38451W        W 9051  44.314  33.008   2.932
38452W        W 9052  17.194  30.047  11.727
38453W        W 9053  29.370  44.145  13.556
38454W        W 9054  30.911  43.569   4.066
38455W        W 9055  21.199   9.642  12.029
38456W        W 9056  31.782  25.391   0.813
38457W        W 9057  37.495  36.244  13.322
38458W        W 9058   9.957  40.365  12.529
38459W        W 9059  32.614  20.128   2.223
38460W        W 9060  30.561  27.218   1.675
38461W        W 9061  34.444  40.628  13.132
38462W        W 9062  44.772  32.096   3.240
38463W        W 9063  22.990  31.410   3.224
38464W        W 9064  10.910  11.007   3.143
38465W        W 9065  23.532   0.747   4.620
38466W        W 9066   5.677  37.113   0.946
38467W        W 9067  30.187  42.069  12.722
38468W        W 9068   6.220   2.997   0.581
38469W        W 9069  37.519  31.347   4.439
38470W        W 9070  14.286   3.386   4.597
38471W        W 9071  32.489  28.547  14.866
38472W        W 9072  19.934  31.971   4.720
38473W        W 9073  13.542   3.479  10.950
38474W        W 9074   3.459  25.991   1.011
38475W        W 9075  24.174  24.895  12.988
38476W        W 9076   7.459  42.028   4.777
38477W        W 9077   7.412  39.127  12.099
38478W        W 9078   9.152   4.366   3.674
38479W        W 9079  30.416  23.049  14.849
38480W        W 9080  33.844   5.287  10.530
38481W        W 9081   5.874  32.078  12.969
38482W        W 9082  17.101  16.969   4.074
38483W        W 9083  35.920  29.599  12.332
38484W        W 9084   3.352  24.285  13.813
38485W        W 9085   0.054  35.608   1.680
38486W        W 9086  34.431  28.303  14.647
38487W        W 9087  26.957  11.226   1.900
38488W        W 9088  20.109  16.112  11.055
38489W        W 9089  13.259  25.561  13.092
38490W        W 9090   4.948  43.043   2.817
38491W        W 9091  21.577  36.328   4.650
38492W        W 9092  43.607  11.249   4.092
38493W        W 9093  25.440  23.892  13.523
38494W        W 9094   3.342  34.311  11.775
38495W        W 9095   9.690   1.189   3.597
38496W        W 9096   3.124  42.447   3.798
38497W        W 9097   2.520  13.586  12.567
38498W        W 9098  13.351  37.438   1.757
38499W        W 9099  23.913  29.510  11.965
38500W        W 9100  27.607  44.819   4.036
38501W        W 9101  35.970  11.359   0.189
38502W        W 9102  41.479  22.269   3.756
38503W        W 9103  16.932   1.860   1.871
38504W        W 9104  16.868  22.527  11.431
38505W        W 9105   6.767  16.264   0.419
38506W        W 9106  38.610  36.040  14.806
38507W        W 9107  29.414   4.370  12.805
38508W        W 9108  32.915  36.497   2.966
38509W        W 9109   4.732  31.567  12.288
38510W        W 9110  13.804  10.286   4.733
38511W        W 9111  27.587  24.049   2.434
38512W        W 9112  26.650   4.718   5.151
38513W        W 9113  15.857   0.833   4.641
38514W        W 9114  30.350  35.417   4.308
38515W        W 9115   8.157  39.257  11.624
38516W        W 9116   6.500  20.500   4.493
38517W        W 9117  34.211  28.958  12.141
38518W        W 9118  37.384   8.866  10.167
38519W        W 9119  22.389   8.665  13.425
38520W        W 9120  31.430  15.369  13.463
38521W        W 9121  36.167  41.406   3.169
38522W        W 9122  42.218   6.193  12.650
38523W        W 9123  42.804  20.673  14.712
38524W        W 9124  41.986  33.020   0.813
38525W        W 9125  44.467  24.963  11.033
38526W        W 9126  27.883  30.539   4.330
38527W        W 9127  14.260   8.581  13.469
38528W        W 9128  36.590  14.643   0.362
38529W        W 9129   1.940  35.604   3.743
38530W        W 9130  36.018  34.580  11.877
38531W        W 9131  31.089  21.812  10.637
38532W        W 9132  24.627  10.405   2.839
38533W        W 9133  15.876  14.562  14.026
38534W        W 9134   0.241  19.537  14.816
38535W        W 9135  15.790   9.991  12.497
38536W        W 9136  26.817  28.122  10.129
38537W        W 9137   1.817  23.278  14.556
38538W        W 9138   1.290  29.131   0.392
38539W        W 9139  25.831  16.858  12.918
38540W        W 9140  10.561   0.004  14.498
38541W        W 9141   2.470  25.729   3.378
38542W        W 9142  37.560   9.747  13.408
38543W        W 9143  10.170  16.773  14.899
38544W        W 9144  11.913  37.288   4.594
38545W        W 9145   2.447  15.769  11.986
38546W        W 9146  35.078  38.808   1.813
38547W        W 9147   9.407  18.991   0.553
38548W        W 9148  35.012  22.683   4.247
38549W        W 9149  40.017  11.121   0.326
38550W        W 9150   5.168  40.054   0.798
38551W        W 9151  30.138  23.762   3.630
38552W        W 9152   1.870  28.525  12.942
38553W        W 9153   7.293   3.732  13.836
38554W        W 9154  23.091  29.981   3.514
38555W        W 9155  32.158  11.860   4.125
38556W        W 9156  12.242  41.713   2.651
38557W        W 9157  35.111  30.919   1.594
38558W        W 9158  12.207  16.580  12.667
38559W        W 9159  31.746  30.362   0.785
38560W        W 9160  32.488  33.163  14.101
38561W        W 9161  33.485  39.341   0.512
38562W        W 9162  19.633  24.789  14.124
38563W        W 9163  37.984  18.145   1.213
38564W        W 9164  28.457  39.410   2.757
38565W        W 9165  25.650  12.911   4.630
38566W        W 9166  24.777  25.284  12.356
38567W        W 9167  18.126  17.722   0.281
38568W        W 9168  29.011  30.895  13.006
38569W        W 9169  18.615   1.071   5.435
38570W        W 9170   8.282  32.460  13.428
38571W        W 9171   1.330  33.893  13.722
38572W        W 9172  26.042  14.453  11.049
38573W        W 9173  30.591  40.886  12.921
38574W        W 9174  10.729  12.336   0.994
38575W        W 9175  35.044  18.342  11.661
38576W        W 9176  27.080  21.097  13.994
38577W        W 9177  29.509   6.706  11.880
38578W        W 9178  31.418   4.355  14.266
38579W        W 9179  15.537  36.383  13.586
38580W        W 9180  42.348  31.169   3.601
38581W        W 9181   9.368  13.865  11.950
38582W        W 9182  32.686   4.258  11.470
38583W        W 9183  24.553  28.259   2.402
38584W        W 9184  21.806  33.431  12.224
38585W        W 9185   6.711   2.608   4.205
38586W        W 9186  39.678   9.941  12.493
38587W        W 9187  20.096  11.839   4.631
38588W        W 9188  27.328  40.581  14.349
38589W        W 9189   2.357  40.319   2.343
38590W        W 9190  32.696   2.434  11.519
38591W        W 9191  37.692   6.852  11.116
38592W        W 9192  17.286  23.475   1.914
38593W        W 9193  29.982  42.214  11.204
38594W        W 9194  40.582  25.084  14.868
38595W        W 9195  17.665  15.576   3.199
38596W        W 9196   0.968  26.560   4.539
38597W        W 9197  13.896   6.082   1.295
38598W        W 9198  33.510  13.132  12.970
38599W        W 9199   7.751  10.734   3.572
38600W        W 9200  23.262  19.346   3.203
38601W        W 9201   7.989  40.917   0.197
38602W        W 9202  44.948  13.655  10.687
38603W        W 9203   0.222  43.235   1.926
38604W        W 9204  27.443  33.436   0.458
38605W        W 9205  10.529   8.880   4.933
38606W        W 9206   8.887   8.909   1.329
38607W        W 9207  44.548  11.316  14.781
38608W        W 9208   1.662  21.268  12.648
38609W        W 9209  25.435   5.770   4.078
38610W        W 9210  32.657  44.280  11.250
38611W        W 9211  33.923  20.452  11.202
38612W        W 9212  13.304   9.669   4.218
38613W        W 9213  17.759  22.521  14.909
38614W        W 9214   0.547  36.122  11.064
38615W        W 9215  16.894  34.343   4.021
38616W        W 9216  15.717   2.468  11.578
38617W        W 9217  34.018   5.777  13.386
38618W        W 9218  31.006  15.847  12.213
38619W        W 9219  20.579  42.428  11.569
38620W        W 9220  41.723  11.684   2.723
38621W        W 9221  42.950  21.217  13.779
38622W        W 9222  31.084  17.758   4.439
38623W        W 9223  17.472   9.212   1.252
38624W        W 9224  17.315  27.994   3.337
38625W        W 9225  27.126   2.793   0.094
38626W        W 9226  29.520  10.145  12.488
38627W        W 9227  43.224  36.011  13.465
38628W        W 9228  18.815  28.333   1.367
38629W        W 9229  37.837  20.459  11.142
38630W        W 9230  10.201   9.182   2.192
38631W        W 9231  10.931  38.828  10.038
38632W        W 9232  42.330   5.487  11.181
38633W        W 9233   1.558  24.546   0.229
38634W        W 9234  30.986  11.372  14.760
38635W        W 9235  20.734   6.387   0.796
38636W        W 9236  28.736  37.485  11.578
38637W        W 9237   0.858   8.601  12.492
38638W        W 9238  34.577  27.472  13.987
38639W        W 9239  23.024  20.735  12.445
38640W        W 9240   8.447   1.218  14.990
38641W        W 9241  23.698  22.058  13.759
38642W        W 9242  18.981  35.584  13.613
38643W        W 9243  16.532  31.470  10.953
38644W        W 9244  22.108  19.393   2.672
38645W        W 9245  40.768  25.251  13.414
38646W        W 9246  31.668   1.030   4.224
38647W        W 9247  36.488  43.267  11.177
38648W        W 9248  37.842   7.249  11.434
38649W        W 9249  32.387  30.726  13.895
38650W        W 9250  43.502   9.888   4.625
38651W        W 9251   9.355  26.718  13.523
38652W        W 9252  44.408  18.083  12.143
38653W        W 9253   7.148  40.051   0.716
38654W        W 9254  26.582  21.572   0.860
38655W        W 9255  31.178  27.050   3.743
38656W        W 9256   2.857  25.092  14.440
38657W        W 9257  14.663   2.623   3.089
38658W        W 9258  40.396  26.976  11.209
38659W        W 9259  41.991  24.218  11.712
38660W        W 9260   3.760  19.320   5.112
38661W        W 9261  17.040  29.767  12.116
38662W        W 9262  15.133  29.284  12.021
38663W        W 9263  24.442  16.844   4.472
38664W        W 9264   2.924   9.174   4.972
38665W        W 9265  22.002  29.769  13.373
38666W        W 9266  15.367  26.387   1.804
38667W        W 9267  15.860   0.365  10.826
38668W        W 9268  35.388  25.255  11.115
38669W        W 9269  15.706   6.754  11.434
38670W        W 9270   7.419   5.127   1.372
38671W        W 9271   0.822  33.693  10.582
38672W        W 9272  42.887  12.158   1.174
38673W        W 9273   2.284  21.053  11.515
38674W        W 9274  23.460  39.471  13.817
38675W        W 9275  43.278  19.665   0.259
38676W        W 9276  42.790  14.298  13.113
38677W        W 9277   1.254  33.409   4.263
38678W        W 9278  13.665  42.945   0.952
38679W        W 9279  32.435  20.514   0.455
38680W        W 9280  14.328  26.751   0.384
38681W        W 9281  36.831  21.911   1.361
38682W        W 9282  10.442  12.670  12.521
38683W        W 9283  10.305  20.788  13.583
38684W        W 9284  35.333   4.330  10.779
38685W        W 9285  25.596   6.710  11.533
38686W        W 9286   1.299   9.227   0.864
38687W        W 9287   9.146  27.990   9.641
38688W        W 9288  36.366  40.726  12.482
38689W        W 9289   3.738   7.903  11.936
38690W        W 9290  23.335   6.658   2.641
38691W        W 9291   7.595  26.093  11.083
38692W        W 9292   3.663  36.125  14.404
38693W        W 9293   9.841   6.070   1.797
38694W        W 9294   2.778   1.809  11.516
38695W        W 9295  25.357   3.536   0.959
38696W        W 9296   9.742  16.497  11.961
38697W        W 9297  38.363  28.461  12.328
38698W        W 9298  31.851  33.515  14.446
38699W        W 9299  13.558  23.592   4.659
38700W        W 9300  24.122  41.522   0.378
38701W        W 9301  36.392  14.219   1.789
38702W        W 9302  14.118   5.918  12.898
38703W        W 9303   2.885  14.822   3.135
38704W        W 9304   9.779  21.548   2.190
38705W        W 9305  40.296  22.470  10.947
38706W        W 9306   0.846  44.734  11.647
38707W        W 9307  29.655  44.676  14.814
38708W        W 9308  23.119   8.343  12.934
38709W        W 9309   0.472  35.837  14.810
38710W        W 9310   6.668  12.747  12.101
38711W        W 9311  24.439  44.692  11.552
38712W        W 9312  26.767  34.830  13.435
38713W        W 9313  44.030  22.696   1.309
38714W        W 9314  44.571   5.424   4.066
38715W        W 9315  24.512  26.414   0.934
38716W        W 9316  13.743  40.273  12.968
38717W        W 9317  27.251  12.110   3.317
38718W        W 9318  15.289  25.324   2.307
38719W        W 9319  33.854   7.419   3.556
38720W        W 9320   2.796  33.215   0.377
38721W        W 9321  12.617  41.365  11.067
38722W        W 9322   3.538  23.943  12.415
38723W        W 9323   1.505  33.607   3.122
38724W        W 9324  13.145  42.708  11.838
38725W        W 9325  31.178  23.089  13.645
38726W        W 9326  10.650  43.761   0.643
38727W        W 9327  38.311  28.262   0.386
38728W        W 9328  42.690   2.097   1.274
38729W        W 9329  23.484  25.757   3.662
38730W        W 9330  16.553  10.585   3.282
38731W        W 9331  33.939  28.689  12.525
38732W        W 9332  12.200  39.386   2.428
38733W        W 9333  42.411  32.464   1.454
38734W        W 9334  19.058  34.111   0.863
38735W        W 9335  44.444  31.179   1.024
38736W        W 9336  21.784  31.561  14.002
38737W        W 9337  22.863  23.864  14.696
38738W        W 9338  14.604   2.278  14.318
38739W        W 9339  13.261  41.192   5.045
38740W        W 9340   4.980  30.653   1.198
38741W        W 9341   2.791   1.213   1.879
38742W        W 9342  38.937  14.456   1.457
38743W        W 9343  19.195  30.217  13.478
38744W        W 9344  19.165  44.187  10.741
38745W        W 9345   8.835  29.433  12.355
38746W        W 9346   7.182  19.824  11.570
38747W        W 9347  30.900  29.153   3.719
38748W        W 9348  11.962  26.496  12.863
38749W        W 9349   9.936  43.930   1.993
38750W        W 9350  36.325  20.712  14.294
38751W        W 9351  22.480  20.236  11.131
38752W        W 9352  10.159  34.143   1.699
38753W        W 9353  13.298  16.996  13.356
38754W        W 9354  40.984  29.499   2.488
38755W        W 9355   2.266  15.212   0.860
38756W        W 9356   4.880  29.170   0.476
38757W        W 9357  23.961   8.339   1.342
38758W        W 9358  37.818   2.013  11.878
38759W        W 9359  33.859  19.990  13.147
38760W        W 9360  23.678  34.124   1.334
38761W        W 9361  15.253  20.532  11.548
38762W        W 9362  32.375  12.626   0.422
38763W        W 9363  36.933   8.302  12.477
38764W        W 9364  22.671   1.973   0.800
38765W        W 9365  10.897  16.828  14.306
38766W        W 9366  15.336  39.493  12.985
38767W        W 9367   5.236  18.769  14.539
38768W        W 9368  33.351   6.198  13.017
38769W        W 9369  11.747  13.674   3.300
38770W        W 9370  24.451  17.671   0.844
38771W        W 9371   3.759   8.661   0.808
38772W        W 9372  29.774  26.020  10.670
38773W        W 9373  20.498  15.249  12.416
38774W        W 9374   0.893  15.536   4.131
38775W        W 9375  25.241  29.106  10.771
38776W        W 9376   4.912   9.056  12.781
38777W        W 9377  19.350  13.173   3.672
38778W        W 9378  12.260  17.670   4.887
38779W        W 9379  37.470  24.632   1.914
38780W        W 9380  10.086  33.400  14.481
38781W        W 9381   8.140  17.375   0.373
38782W        W 9382  15.335  38.124  11.767
38783W        W 9383  41.529  33.053  13.956
38784W        W 9384  41.101  15.955   0.376
38785W        W 9385   9.964  30.028  10.525
38786W        W 9386  10.099  15.232   2.800
38787W        W 9387  14.519  30.646   4.484
38788W        W 9388  28.031  17.079   4.617
38789W        W 9389  18.753  41.864  14.649
38790W        W 9390  38.838  28.561   1.745
38791W        W 9391  41.307  39.821   2.827
38792W        W 9392  10.737  37.649  12.471
38793W        W 9393   4.778   6.231   2.587
38794W        W 9394  24.249  35.675   0.178
38795W        W 9395  37.918  16.757   3.751
38796W        W 9396  35.664  31.352  11.972
38797W        W 9397   9.584  39.115  10.616
38798W        W 9398  15.351  22.618  14.675
38799W        W 9399  22.308  31.000   4.039
38800W        W 9400  11.845  34.130   2.794
38801W        W 9401  22.061  26.548   2.200
38802W        W 9402   6.324  19.083  11.163
38803W        W 9403  15.646  27.142   1.899
38804W        W 9404  31.125  41.081  12.977
38805W        W 9405  28.643  24.486   3.033
38806W        W 9406  20.999  28.052  13.818
38807W        W 9407  36.425  14.135   3.923
38808W        W 9408  28.684  34.075   0.265
38809W        W 9409   0.421  42.723  12.864
38810W        W 9410  14.517  16.965   2.864
38811W        W 9411  40.926  31.452  11.877
38812W        W 9412  25.282   1.767  12.673
38813W        W 9413  10.244  17.234   0.209
38814W        W 9414  15.723  21.135   2.719
38815W        W 9415   6.153  12.290  13.883
38816W        W 9416  44.024  24.681   3.615
38817W        W 9417  39.276  42.755   3.666
38818W        W 9418  44.353  36.856   3.635
38819W        W 9419   3.659   3.290   1.542
38820W        W 9420  13.528  24.705  13.264
38821W        W 9421  26.946  18.528   1.772
38822W        W 9422  15.383  43.813  11.637
38823W        W 9423  15.075  19.215   2.793
38824W        W 9424   8.174  37.915  10.735
38825W        W 9425   6.329  19.636  12.518
38826W        W 9426  16.550   3.014  11.421
38827W        W 9427   4.856  33.645  12.063
38828W        W 9428  10.131  32.125  14.939
38829W        W 9429  34.626   0.965  13.823
38830W        W 9430  24.201  21.151  12.030
38831W        W 9431  42.529   2.623  13.446
38832W        W 9432   9.283  39.461  10.868
38833W        W 9433   1.748  38.604  14.915
38834W        W 9434  13.811   7.874   1.777
38835W        W 9435  20.539  11.730   3.745
38836W        W 9436  27.133   3.500   0.748
38837W        W 9437  10.583  28.722   1.784
38838W        W 9438   2.874  42.309   4.217
38839W        W 9439  28.301  23.994  11.804
38840W        W 9440  26.524  21.806  14.007
38841W        W 9441   8.787  43.353   2.384
38842W        W 9442  10.665  41.344   4.708
38843W        W 9443  32.782  17.891  14.422
38844W        W 9444   6.187  25.900   1.755
38845W        W 9445   3.468  27.590   1.401
38846W        W 9446  19.643  13.723   3.799
38847W        W 9447  31.999  42.075  12.015
38848W        W 9448  37.904   1.720   2.177
38849W        W 9449  21.136  19.239  13.010
38850W        W 9450  27.634  41.964   4.221
38851W        W 9451   2.272  32.455  11.721
38852W        W 9452  15.747  40.302  10.747
38853W        W 9453  30.079  16.036  12.560
38854W        W 9454  14.187  38.438  13.597
38855W        W 9455  40.819   0.122   2.766
38856W        W 9456   9.761   9.876  11.415
38857W        W 9457  21.214   3.417  14.946
38858W        W 9458  11.368  34.317   0.349
38859W        W 9459  41.906   5.493  12.557
38860W        W 9460   6.246   0.531  14.972
38861W        W 9461  31.278  33.369  11.063
38862W        W 9462   1.286  20.015   1.223
38863W        W 9463  14.355   5.194  12.529
38864W        W 9464  17.581  32.670   2.932
38865W        W 9465  11.230   8.277   3.836
38866W        W 9466  40.045  11.517   0.936
38867W        W 9467   4.668  13.381   2.162
38868W        W 9468  39.961  32.069   1.631
38869W        W 9469   1.308  42.065   1.789
38870W        W 9470  19.497   2.385   0.442
38871W        W 9471  18.732  13.898  12.137
38872W        W 9472  15.057  32.318   4.719
38873W        W 9473  30.555   0.706  12.827
38874W        W 9474  21.088  12.832   1.365
38875W        W 9475   3.379  28.076  12.995
38876W        W 9476   3.287   2.001  13.560
38877W        W 9477   5.006  41.034   3.755
38878W        W 9478  21.079  10.766   2.456
38879W        W 9479   8.774  21.071  14.336
38880W        W 9480  30.314  20.533  14.007
38881W        W 9481  37.352  22.596   4.270
38882W        W 9482  10.301  23.742  13.393
38883W        W 9483   0.309  43.520  14.622
38884W        W 9484  32.038   4.439  12.479
38885W        W 9485  42.985  26.596   2.354
38886W        W 9486  37.910   1.198   4.469
38887W        W 9487  40.832   5.228  14.292
38888W        W 9488  26.186  44.267   3.767
38889W        W 9489  25.441   5.323   4.451
38890W        W 9490   2.619  29.163  14.959
38891W        W 9491  38.049  34.811   2.721
38892W        W 9492   6.748  25.771   1.336
38893W        W 9493  41.475  17.280   3.501
38894W        W 9494  33.550  44.684  11.575
38895W        W 9495  29.505  33.991  14.913
38896W        W 9496  43.512  29.540   1.867
38897W        W 9497   2.089  39.091  13.199
38898W        W 9498   0.402  43.376  14.098
38899W        W 9499  37.333  37.331   1.288
38900W        W 9500  22.186  40.390   3.021
38901W        W 9501  21.649  41.591  10.432
38902W        W 9502  35.949  19.615  14.273
38903W        W 9503   4.818  36.913   4.780
38904W        W 9504  37.993  17.727   1.536
38905W        W 9505  11.355   5.716   4.175
38906W        W 9506  30.118  22.277   2.518
38907W        W 9507  18.120   0.953  14.808
38908W        W 9508   3.996  35.599  11.635
38909W        W 9509  38.416  23.494  12.485
38910W        W 9510  31.459  30.894   2.359
38911W        W 9511  42.189  42.986   2.294
38912W        W 9512  42.097  12.015  13.047
38913W        W 9513  14.695  13.250  11.547
38914W        W 9514   7.513   6.450   2.278
38915W        W 9515  10.905  22.747   2.792
38916W        W 9516  15.597  38.880  13.424
38917W        W 9517   7.117  22.560  10.722
38918W        W 9518   4.035  13.728   4.821
38919W        W 9519  20.631  19.142  13.203
38920W        W 9520   4.273  11.851   3.711
38921W        W 9521  30.239   3.778  13.212
38922W        W 9522   7.315  15.894   3.364
38923W        W 9523  17.743  37.166   2.650
38924W        W 9524  19.467  15.711  13.632
38925W        W 9525  13.590   6.973   4.121
38926W        W 9526  35.446  13.677   4.719
38927W        W 9527  31.433  41.812   3.321
38928W        W 9528  13.249  29.652   0.937
38929W        W 9529  24.815  27.441   4.314
38930W        W 9530  28.770  27.562   0.242
38931W        W 9531  14.592  24.214  14.770
38932W        W 9532  21.025  23.134  13.625
38933W        W 9533  17.084  18.647  14.952
38934W        W 9534  32.827  23.621   0.004
38935W        W 9535  35.183  35.437  12.058
38936W        W 9536  39.357   8.301   4.657
38937W        W 9537  20.535  32.436  12.064
38938W        W 9538  37.920   8.143  11.659
38939W        W 9539  11.476  11.410   4.198
38940W        W 9540   3.695  10.565  11.064
38941W        W 9541  34.535   5.686  12.472
38942W        W 9542  41.823  17.320   1.652
38943W        W 9543   5.481  18.500  11.354
38944W        W 9544  32.627  17.325  12.917
38945W        W 9545   1.610  31.918  11.280
38946W        W 9546  12.528  34.076  13.555
38947W        W 9547  33.426  17.981  13.038
38948W        W 9548  32.933  24.954   4.548
38949W        W 9549  12.595  21.963  10.757
38950W        W 9550  44.906  27.410  13.097
38951W        W 9551  42.789  37.796   4.573
38952W        W 9552   8.273  44.312   2.393
38953W        W 9553  13.152  18.657  11.964
38954W        W 9554   3.804  28.503  13.350
38955W        W 9555  18.764   5.533  14.659
38956W        W 9556  21.683  17.655   1.236
38957W        W 9557  24.022  23.524  11.055
38958W        W 9558   2.026  24.411   4.613
38959W        W 9559   4.274  28.717  11.199
38960W        W 9560   2.430   6.915   3.180
38961W        W 9561   1.466  24.695   0.755
38962W        W 9562   8.751  35.067   3.735
38963W        W 9563  24.176  10.828  11.090
38964W        W 9564  34.016  24.033   3.238
38965W        W 9565   2.147   4.213  13.780
38966W        W 9566  22.998  44.203   1.766
38967W        W 9567  22.228  30.375   1.262
38968W        W 9568  12.870  29.995  12.944
38969W        W 9569   6.323  25.629  12.756
38970W        W 9570  29.361  34.405   1.476
38971W        W 9571  25.340  44.959  13.413
38972W        W 9572  38.993  22.154  14.396
38973W        W 9573  28.079  15.525  14.057
38974W        W 9574  36.556   1.305  13.759
38975W        W 9575   8.091  35.093  11.530
38976W        W 9576  33.549  40.631  13.825
38977W        W 9577   8.667   3.926  12.114
38978W        W 9578  14.087  39.033   0.681
38979W        W 9579  19.775   2.221   3.285
38980W        W 9580  43.007  31.879   3.653
38981W        W 9581  26.132  26.473   2.730
38982W        W 9582   2.708  35.246  11.121
38983W        W 9583   9.660   8.006  12.865
38984W        W 9584  26.829  34.942  14.798
38985W        W 9585  40.921  10.440   1.837
38986W        W 9586  35.289  44.894   0.084
38987W        W 9587  37.782  17.192  13.787
38988W        W 9588  17.780  43.035  13.568
38989W        W 9589   9.856  44.735   4.853
38990W        W 9590  14.309   6.580  14.967
38991W        W 9591  35.116  30.893   3.960
38992W        W 9592  18.743   0.251  12.480
38993W        W 9593   7.334  19.664   2.607
38994W        W 9594  21.892  39.436   1.609
38995W        W 9595  18.145   1.973   3.955
38996W        W 9596   4.770  43.514  10.155
38997W        W 9597  12.133  44.485   1.634
38998W        W 9598  29.845  21.642  14.800
38999W        W 9599  31.433  11.841  12.097
39000W        W 9600  10.619   1.475  13.541
39001W        W 9601  42.028  25.397   2.233
39002W        W 9602  26.955  41.526  13.116
39003W        W 9603  41.057  29.688   1.276
39004W        W 9604  19.854   2.861   1.613
39005W        W 9605   0.787  44.416  12.140
39006W        W 9606  28.864  22.294   2.591
39007W        W 9607  29.984  30.984   0.547
39008W        W 9608  33.067  15.647   3.415
39009W        W 9609  22.004  14.192   3.448
39010W        W 9610   4.715   3.728  11.309
39011W        W 9611  19.304  19.440  14.841
39012W        W 9612  33.960  19.920  14.051
39013W        W 9613  17.796  40.245  11.000
39014W        W 9614   5.022  25.460   2.205
39015W        W 9615  19.246   5.062  11.169
39016W        W 9616   3.241  13.403   3.760
39017W        W 9617  10.917   0.778  12.979
39018W        W 9618  10.456  25.122  13.911
39019W        W 9619  32.230  40.461  11.317
39020W        W 9620  15.100  30.692  12.924
39021W        W 9621  43.259  36.947   4.590
39022W        W 9622  36.991  22.830   3.166
39023W        W 9623   2.715  15.160  10.422
39024W        W 9624  32.137  34.593  12.399
39025W        W 9625  22.534  26.447  10.751
39026W        W 9626  30.629  44.484   4.846
39027W        W 9627  12.345  42.444   3.283
39028W        W 9628  18.790  38.434  11.642
39029W        W 9629  31.412  23.946  14.041
39030W        W 9630  37.413  29.650  12.469
39031W        W 9631  33.634  19.219   0.380
39032W        W 9632   0.661  15.782  11.188
39033W        W 9633  10.656  39.009  12.515
39034W        W 9634   3.720   7.712  12.894
39035W        W 9635  34.395  38.735  10.674
39036W        W 9636  40.328  24.291  12.833
39037W        W 9637  12.280   1.944  12.504
39038W        W 9638  44.202  44.425  10.757
39039W        W 9639  14.145   4.805  11.612
39040W        W 9640  23.206  33.293  13.135
39041W        W 9641  33.026  36.834  14.011
39042W        W 9642  38.405  19.898   1.687
39043W        W 9643  26.599  32.878  11.919
39044W        W 9644  22.918  11.352   0.779
39045W        W 9645  34.387   3.074   2.865
39046W        W 9646  41.207  10.664  10.803
39047W        W 9647  41.969  39.135  13.907
39048W        W 9648  34.450   4.826   3.559
39049W        W 9649  34.285  34.976  14.100
39050W        W 9650  41.806   1.433   3.193
39051W        W 9651  14.419  40.036   1.767
39052W        W 9652  14.661  39.096   4.451
39053W        W 9653  30.050  44.364  14.944
39054W        W 9654   1.587  31.894   1.726
39055W        W 9655   6.796   0.101  10.671
39056W        W 9656  11.398  38.935   3.123
39057W        W 9657  28.096  42.314   0.754
39058W        W 9658  33.332  40.017  14.802
39059W        W 9659   6.336  19.320   1.840
39060W        W 9660  23.090   6.966  13.553
39061W        W 9661  27.706  28.570   1.968
39062W        W 9662  16.959  21.340  11.910
39063W        W 9663   1.472  18.288  14.080
39064W        W 9664  41.271   2.823  11.936
39065W        W 9665   9.713  12.638   4.586
39066W        W 9666  22.692  14.377  14.444
39067W        W 9667   7.847  12.986   5.119
39068W        W 9668   4.285   1.134  10.265
39069W        W 9669   7.652  23.691  11.542
39070W        W 9670  12.679  13.236   0.286
39071W        W 9671  37.020  42.745  12.434
39072W        W 9672  43.702   1.907   3.628
39073W        W 9673  14.606  39.656   3.685
39074W        W 9674  40.388  37.828   2.384
39075W        W 9675  44.511  39.316  10.773
39076W        W 9676  11.511   8.589   4.131
39077W        W 9677  37.865  15.304   4.585
39078W        W 9678  42.133   2.272  14.904
39079W        W 9679   2.782  19.373   2.924
39080W        W 9680  44.024  28.457  12.148
39081W        W 9681  18.258  40.907  13.772
39082W        W 9682  32.143  16.024   0.847
39083W        W 9683  25.184  43.102  12.557
39084W        W 9684  19.124  24.957   2.128
39085W        W 9685  31.476   1.241   2.421
39086W        W 9686   8.068  38.304   1.591
39087W        W 9687  33.543  18.090  12.553
39088W        W 9688  28.819   6.463   4.547
39089W        W 9689  19.985  29.000  14.969
39090W        W 9690  17.582  36.375   4.563
39091W        W 9691  13.767  12.842  10.240
39092W        W 9692  43.513  39.512  10.598
39093W        W 9693  42.966   8.515  11.053
39094W        W 9694   4.791  38.180   0.447
39095W        W 9695  36.577  31.429  11.075
39096W        W 9696  24.092  31.984   2.912
39097W        W 9697  37.286  35.062   2.823
39098W        W 9698  44.317  40.917   1.833
39099W        W 9699  11.661  39.043  10.505
39100W        W 9700   5.476   3.323  14.047
39101W        W 9701  24.627  27.686   2.620
39102W        W 9702  19.861  39.079   0.481
39103W        W 9703  28.780   0.904  13.001
39104W        W 9704  44.454  43.724  14.892
39105W        W 9705  32.347   3.505   2.899
39106W        W 9706  31.523  38.530  14.618
39107W        W 9707   0.328   3.754  13.848
39108W        W 9708  42.850  14.351  11.049
39109W        W 9709  17.615   5.773   1.926
39110W        W 9710  26.745  22.811  12.486
39111W        W 9711  27.356   1.308   0.246
39112W        W 9712  35.117   2.781   2.863
39113W        W 9713  44.702   3.771   3.621
39114W        W 9714  34.441  38.860  11.950
39115W        W 9715  11.320   6.345  14.397
39116W        W 9716  18.789  25.748  14.379
39117W        W 9717  19.283  31.456   3.330
39118W        W 9718  24.102  32.896  13.850
39119W        W 9719  39.130  16.452   9.946
39120W        W 9720   8.548  14.662  11.002
39121W        W 9721  31.076  10.252   3.213
39122W        W 9722   6.084  13.125   2.494
39123W        W 9723  43.117  34.904  14.186
39124W        W 9724   0.627   5.245   2.712
39125W        W 9725  20.920  40.455   1.767
39126W        W 9726  25.178  36.558   2.914
39127W        W 9727   0.995  38.908   2.221
39128W        W 9728   3.861   0.507   3.772
39129W        W 9729   4.179   7.614  12.071
39130W        W 9730  18.827  26.544  11.189
39131W        W 9731  27.372   5.344   3.205
39132W        W 9732  30.395  26.321  14.540
39133W        W 9733  17.752   1.786   1.261
39134W        W 9734  20.032  37.877   2.290
39135W        W 9735  32.525  32.068  11.527
39136W        W 9736  35.974   8.958  10.843
39137W        W 9737  42.231  33.395  11.500
39138W        W 9738   0.301  44.392   1.676
39139W        W 9739  24.133  13.650   3.706
39140W        W 9740  19.923   4.498  13.879
39141W        W 9741  42.346  41.791   2.719
39142W        W 9742   6.303  40.432   1.735
39143W        W 9743  44.938  23.765  14.194
39144W        W 9744  33.907   4.906   0.968
39145W        W 9745  37.495  20.728   3.418
39146W        W 9746  36.011  11.114  13.732
39147W        W 9747  20.587   2.037   1.836
39148W        W 9748  16.824  39.134  11.488
39149W        W 9749  35.331   2.418  11.373
39150W        W 9750  34.347   1.224   1.946
39151W        W 9751  27.198  22.123  12.906
39152W        W 9752  33.521   6.841  12.053
39153W        W 9753  23.621  28.006  14.389
39154W        W 9754  10.111   2.237  13.516
39155W        W 9755   0.545   2.208  12.871
39156W        W 9756  11.172  22.517  10.398
39157W        W 9757  35.812  26.608  12.983
39158W        W 9758  38.425  36.526   2.674
39159W        W 9759  21.206  37.778   4.099
39160W        W 9760  11.384  18.251  14.786
39161W        W 9761   6.251  15.410   3.451
39162W        W 9762  26.740  33.342   1.644
39163W        W 9763  44.482  30.959  14.288
39164W        W 9764  15.675  37.621   2.843
39165W        W 9765  10.745   4.164  10.558
39166W        W 9766  41.182  42.432  11.184
39167W        W 9767   4.909  24.740   4.219
39168W        W 9768  37.164  31.062   1.354
39169W        W 9769   5.849  38.765   2.034
39170W        W 9770  44.470  35.018  12.809
39171W        W 9771  31.482  21.942   3.259
39172W        W 9772  15.482  28.189   0.424
39173W        W 9773  35.050   6.179   1.386
39174W        W 9774  41.526  12.103  13.803
39175W        W 9775  16.685   4.568   2.893
39176W        W 9776  14.133  30.486   0.871
39177W        W 9777  28.531  24.415   3.533
39178W        W 9778  15.504  16.030  13.037
39179W        W 9779  38.015   8.414   2.134
39180W        W 9780   1.997  13.813   3.199
39181W        W 9781  37.317  21.034  12.557
39182W        W 9782  25.947  30.454  14.747
39183W        W 9783  41.905  15.055  13.842
39184W        W 9784  28.131  42.915   3.282
39185W        W 9785  12.729  21.813   2.438
39186W        W 9786   0.491  32.857  13.486
39187W        W 9787  25.049   9.499   1.165
39188W        W 9788  36.184  42.278  12.077
39189W        W 9789  37.852  43.830   3.493
39190W        W 9790  43.399   6.000   2.072
39191W        W 9791  12.192  42.450   1.891
39192W        W 9792  22.892  22.706  11.130
39193W        W 9793   9.197  31.774   0.043
39194W        W 9794   0.315  23.368   3.996
39195W        W 9795  12.325  31.995   1.328
39196W        W 9796  26.944  31.147   0.794
39197W        W 9797  20.170   5.886  11.511
39198W        W 9798  14.718  42.541   1.375
39199W        W 9799  41.980  32.491   4.324
39200W        W 9800  36.094  13.601  14.502
39201W        W 9801  28.847  17.321   1.405
39202W        W 9802  43.421  32.414  11.526
39203W        W 9803  44.027  40.437  10.713
39204W        W 9804   5.660  13.096   3.746
39205W        W 9805  24.660  13.616  10.992
39206W        W 9806  16.790  42.974   4.214
39207W        W 9807  14.876  17.142  14.559
39208W        W 9808   2.523  32.341  10.286
39209W        W 9809   8.325  38.865  11.130
39210W        W 9810  22.502  25.359  14.874
39211W        W 9811   6.736   2.148  13.482
39212W        W 9812   3.192   4.248  13.921
39213W        W 9813  43.565  42.692   3.143
39214W        W 9814   0.750   7.947   2.633
39215W        W 9815  15.555  37.866  10.981
39216W        W 9816   7.416  43.360   5.049
39217W        W 9817  25.630  32.989   1.713
39218W        W 9818  33.607   5.357  12.196
39219W        W 9819  10.637  37.991   4.750
39220W        W 9820  37.634  27.510   2.827
39221W        W 9821   9.731  38.095  13.962
39222W        W 9822  12.890  33.059  14.501
39223W        W 9823  20.565   4.283  10.649
39224W        W 9824   1.685   0.796   4.607
39225W        W 9825  39.315  29.044   3.120
39226W        W 9826  44.105  19.772  10.153
39227W        W 9827  42.365  24.050  14.078
39228W        W 9828  16.740  12.942   4.943
39229W        W 9829  26.508  11.104   4.610
39230W        W 9830   2.998  33.422   2.287
39231W        W 9831  14.096  14.653   3.614
39232W        W 9832   4.148  29.069   0.619
39233W        W 9833  37.620  34.953  13.841
39234W        W 9834   2.846  37.798   3.716
39235W        W 9835   6.811  13.573   0.908
39236W        W 9836   7.198  32.062  11.126
39237W        W 9837  15.894  33.496   5.605
39238W        W 9838   1.251  21.018   1.583
39239W        W 9839  32.944   4.708   4.668
39240W        W 9840  23.753  36.460   3.275
39241W        W 9841  12.736   8.905  14.946
39242W        W 9842  28.859   7.254  11.682
39243W        W 9843  13.300  32.665   1.735
39244W        W 9844  11.461   8.449   0.294
39245W        W 9845  20.308  32.928  11.393
39246W        W 9846  17.263  12.636  11.442
39247W        W 9847  16.197  39.386   4.567
39248W        W 9848  33.492   8.603  14.245
39249W        W 9849  36.069  42.241  13.458
39250W        W 9850  34.577  36.516  11.539
39251W        W 9851  14.255  36.057   4.025
39252W        W 9852  35.479   9.265  14.715
39253W        W 9853  10.107  18.266   1.357
39254W        W 9854  37.028   2.633   2.369
39255W        W 9855  34.820  29.664  12.049
39256W        W 9856  33.130  11.541   2.353
39257W        W 9857  41.417  24.750   3.590
39258W        W 9858   2.671  42.053   4.619
39259W        W 9859  33.468   9.442   4.290
39260W        W 9860   6.955  43.542  12.590
39261W        W 9861  36.108  37.351  13.455
39262W        W 9862  17.273  32.967   1.712
39263W        W 9863  18.944  39.926   4.943
39264W        W 9864  14.289  20.509   3.693
39265W        W 9865  41.253  20.711   0.030
39266W        W 9866  34.545   7.546   4.552
39267W        W 9867  27.251  21.507   1.739
39268W        W 9868  28.844  32.732   1.963
39269W        W 9869  10.644  38.776   0.056
39270W        W 9870  30.954  23.467   4.408
39271W        W 9871  11.096   2.465   4.797
39272W        W 9872  13.671  12.034  12.842
39273W        W 9873  38.016  10.749  14.467
39274W        W 9874  38.104  44.767   4.578
39275W        W 9875  25.754  14.796   1.868
39276W        W 9876   4.287  39.978   0.983
39277W        W 9877  33.679  18.711  13.247
39278W        W 9878   5.350   0.202  11.991
39279W        W 9879  34.239   2.175  13.983
39280W        W 9880  39.975  14.802   1.397
39281W        W 9881  15.078  38.849   1.822
39282W        W 9882  28.688  36.309  10.705
39283W        W 9883  16.753   0.853  11.703
39284W        W 9884   3.024   9.194   1.233
39285W        W 9885  41.341  26.500   2.405
39286W        W 9886  34.243  39.548  11.110
39287W        W 9887  33.375  15.062  11.158
39288W        W 9888  16.246  25.675   0.396
39289W        W 9889  44.297  39.937  13.549
39290W        W 9890   0.421  15.755  14.029
39291W        W 9891  24.249  42.355  14.259
39292W        W 9892  30.584  43.460   4.782
39293W        W 9893  19.963  12.262  11.940
39294W        W 9894  22.499  36.526   3.702
39295W        W 9895   7.878  28.146  10.230
39296W        W 9896   9.182  20.026  12.513
39297W        W 9897  44.785  32.991   3.144
39298W        W 9898  36.057  32.575   4.479
39299W        W 9899  11.318  20.598  11.603
39300W        W 9900   2.430  29.941  11.133
39301W        W 9901  25.256  29.115   1.382
39302W        W 9902  37.541  31.079   2.749
39303W        W 9903   4.665  14.607   2.808
39304W        W 9904  15.131  31.407  10.639
39305W        W 9905   7.880  17.671  13.333
39306W        W 9906  26.908  38.550   4.944
39307W        W 9907  32.953  40.445  13.991
39308W        W 9908   0.102  16.051  13.291
39309W        W 9909   5.700  22.083   2.813
39310W        W 9910  25.412   5.210   0.279
39311W        W 9911  26.415  21.562  14.466
39312W        W 9912  27.272  19.537   4.285
39313W        W 9913   3.399  24.624   1.129
39314W        W 9914   0.114  12.924   3.612
39315W        W 9915  20.827  32.429   0.897
39316W        W 9916  31.000  20.328  11.591
39317W        W 9917  17.202  31.694   1.939
39318W        W 9918  18.419  14.843   4.200
39319W        W 9919  42.473  34.563  14.464
39320W        W 9920  41.577   1.792  12.480
39321W        W 9921   5.336   7.736  13.362
39322W        W 9922   3.979  36.620  13.326
39323W        W 9923  39.020  26.478  10.938
39324W        W 9924  41.344  17.864  10.691
39325W        W 9925  16.952   8.707  13.523
39326W        W 9926  37.193  39.309   3.954
39327W        W 9927  40.928  38.851  13.619
39328W        W 9928  33.526   7.117  14.524
39329W        W 9929  26.527  30.371   4.664
39330W        W 9930  39.339  10.353  13.350
39331W        W 9931  25.404  39.860   1.228
39332W        W 9932  30.453  23.505  11.954
39333W        W 9933  12.721   2.008  10.887
39334W        W 9934  24.719  43.179  12.258
39335W        W 9935  13.668   8.841  14.830
39336W        W 9936  25.132  44.645   2.405
39337W        W 9937  29.577   8.238   1.351
39338W        W 9938  18.117   7.960  13.165
39339W        W 9939  40.980  38.791  11.655
39340W        W 9940  26.455   2.058   2.277
39341W        W 9941  31.972  14.894  14.373
39342W        W 9942  43.275  16.460   2.377
39343W        W 9943  16.170  37.146   1.393
39344W        W 9944   9.722   8.175  11.436
39345W        W 9945   6.091  27.106  12.656
39346W        W 9946  22.594  21.004  13.106
39347W        W 9947  14.147  19.571   3.519
39348W        W 9948   1.692   8.136  13.797
39349W        W 9949  44.978  38.985   2.242
39350W        W 9950   3.991  31.576   9.851
39351W        W 9951   9.329  31.901  10.712
39352W        W 9952  29.015  39.103  13.520
39353W        W 9953   5.873  44.049   4.201
39354W        W 9954  33.165  36.848   1.663
39355W        W 9955  20.618  42.810  13.549
39356W        W 9956   8.402   9.857  13.584
39357W        W 9957  36.129  23.337   2.998
39358W        W 9958  43.761  19.827   0.958
39359W        W 9959  37.368  37.104   2.567
39360W        W 9960  22.294  31.504  13.989
39361W        W 9961  33.794  37.612  14.403
39362W        W 9962  30.284   4.466  11.853
39363W        W 9963  43.370   5.862   2.577
39364W        W 9964  30.479   6.911  13.841
39365W        W 9965  16.272  11.346  12.550
39366W        W 9966  23.997  12.180  11.715
39367W        W 9967  37.985  15.759   4.305
39368W        W 9968  18.320   7.257  11.517
39369W        W 9969  15.393  36.145  14.792
39370W        W 9970   1.732  32.779  14.685
39371W        W 9971  15.936   9.597   4.082
39372W        W 9972   9.842  10.104   3.901
39373W        W 9973  38.526  35.062  12.491
39374W        W 9974  32.668  25.941   4.566
39375W        W 9975  44.272   7.282  14.380
39376W        W 9976  32.859  17.706   0.793
39377W        W 9977  25.839   2.430  13.758
39378W        W 9978  42.289  43.843  11.481
39379W        W 9979  19.062  20.119  10.868
39380W        W 9980  34.896  18.572   2.151
39381W        W 9981  44.294  18.149  14.416
39382W        W 9982  44.481  15.540   5.000
39383W        W 9983  12.709  38.200   4.702
39384W        W 9984  31.605   5.755  12.090
39385W        W 9985  22.900  31.003  10.740
39386W        W 9986   2.362   5.147  12.787
39387W        W 9987   3.962  17.588  11.179
39388W        W 9988  35.208  18.866  11.763
39389W        W 9989   5.456  15.113  14.555
39390W        W 9990   2.145   3.446   0.376
39391W        W 9991  41.566  43.016   4.108
39392W        W 9992   3.871  14.785   2.272
39393W        W 9993  23.581  16.508   3.228
39394W        W 9994  37.605  15.554   4.040
39395W        W 9995   1.013   2.233  14.040
39396W        W 9996  41.451   7.896  13.875
39397W        W 9997   1.213  43.239  11.619
39398W        W 9998  32.965  14.774  11.985
39399W        W 9999  39.900  12.344   2.633
39400W        W10000  30.018   5.733   3.836
39401W        W10001  20.945   5.369   1.020
39402W        W10002  17.128  15.737  14.282
39403W        W10003  32.116  17.210  13.546
39404W        W10004   3.951  21.162   1.824
39405W        W10005  37.583   5.934  11.657
39406W        W10006  42.367   1.819   4.822
39407W        W10007  37.058   7.923  11.132
39408W        W10008  14.676  26.676   0.753
39409W        W10009  24.072   9.206   4.127
39410W        W10010  34.384   4.762  12.017
39411W        W10011  31.659  11.755  11.201
39412W        W10012  38.832  22.970  11.528
39413W        W10013  33.900  14.214   5.029
39414W        W10014   6.875  32.208  12.495
39415W        W10015  37.901  18.329  12.423
39416W        W10016  38.873  34.417   2.651
39417W        W10017   4.222  21.203  11.562
39418W        W10018  40.825  17.034  12.523
39419W        W10019  18.290  37.853   3.801
39420W        W10020  40.273  12.826   0.805
39421W        W10021  14.876  21.952  12.972
39422W        W10022  43.824   4.303  14.553
39423W        W10023  42.995   5.397   0.463
39424W        W10024  25.875  43.588   1.796
39425W        W10025  44.899   7.841  13.010
39426W        W10026   0.443  22.313   4.406
39427W        W10027  13.598  44.695   1.210
39428W        W10028  22.037  17.540   1.600
39429W        W10029  32.099  17.849   3.215
39430W        W10030  37.930  31.354   3.625
39431W        W10031   8.660  41.362  11.543
39432W        W10032  10.645  32.580   1.138
39433W        W10033  44.329  18.559   3.622
39434W        W10034  19.024   7.752  11.260
39435W        W10035   6.347  39.617   2.224
39436W        W10036  39.379  35.649   0.970
39437W        W10037  13.356   7.673   4.601
39438W        W10038  31.156  10.818  12.076
39439W        W10039   0.973  33.357  12.058
39440W        W10040  23.629  33.928   4.739
39441W        W10041  29.657  16.194   0.927
39442W        W10042  39.769  16.594  11.551
39443W        W10043  25.480   2.843  14.278
39444W        W10044  10.801  35.844  14.898
39445W        W10045   7.366   9.558   2.898
39446W        W10046  10.815   4.659   1.367
39447W        W10047   3.954  37.969  12.920
39448W        W10048  22.742  24.802   4.500
39449W        W10049  11.886  26.418  11.564
39450W        W10050   4.937  31.044   4.510
39451W        W10051   4.268  34.606   1.285
39452W        W10052   3.347  44.557   0.272
39453W        W10053   2.210  17.029   2.895
39454W        W10054  34.413   5.919   3.200
39455W        W10055   7.788  38.187   0.768
39456W        W10056   8.316  12.283   1.189
39457W        W10057  25.608  44.254   0.509
39458W        W10058   4.288  37.544   0.554
39459W        W10059  14.007   4.806   0.856
39460W        W10060  33.902  17.072   3.024
39461W        W10061  14.565  27.988   4.626
39462W        W10062   1.406  35.417   3.670
39463W        W10063  19.386  12.878  10.388
39464W        W10064  41.869   1.686   3.654
39465W        W10065  10.415   0.294  12.069
39466W        W10066  44.205  21.859   0.238
39467W        W10067  26.629  17.796  10.491
39468W        W10068   7.956  24.202   0.803
39469W        W10069  35.608  33.394   1.415
39470W        W10070   4.362  18.795  12.511
39471W        W10071  32.188  20.378   4.621
39472W        W10072  34.917  33.061  12.570
39473W        W10073  38.388  11.147   2.892
39474W        W10074  32.137  14.194   2.933
39475W        W10075  27.176  24.475  13.138
39476W        W10076  37.126  16.199  14.264
39477W        W10077  10.526  28.429  11.496
39478W        W10078   6.670  34.130   1.879
39479W        W10079   9.144  21.800  11.588
39480W        W10080  23.857   3.263  13.940
39481W        W10081   3.168   8.278  12.530
39482W        W10082   5.734  30.388  12.256
39483W        W10083   6.746  39.981   4.513
39484W        W10084  11.934   8.869  11.309
39485W        W10085  42.843   0.907   2.645
39486W        W10086  35.847  16.323   2.339
39487W        W10087  29.124  10.880   3.155
39488W        W10088  14.118  16.448  11.954
39489W        W10089  20.653  13.570   1.638
39490W        W10090  27.411  25.543   1.902
39491W        W10091   5.437   6.710  11.201
39492W        W10092   6.709  14.815  11.508
39493W        W10093  12.762  25.398   1.716
39494W        W10094  38.630  32.665   0.748
39495W        W10095  20.736  36.243   3.740
39496W        W10096   8.553  21.160  12.177
39497W        W10097  43.993  39.789  12.886
39498W        W10098  21.019  16.820  13.819
39499W        W10099  35.567  40.521  14.803
39500W        W10100  27.512  10.170  11.971
39501W        W10101   0.227   1.909  14.999
39502W        W10102  33.059  30.788   4.646
39503W        W10103  18.173  44.582  11.573
39504W        W10104   7.660  32.838  11.176
39505W        W10105  10.546  17.978   3.315
39506W        W10106  14.188  29.186  11.999
39507W        W10107   8.217   4.182   2.630
39508W        W10108  16.166  31.901   4.081
39509W        W10109  33.702  17.997   2.188
39510W        W10110  28.157  33.010  12.149
39511W        W10111   8.775  12.251  11.045
39512W        W10112  23.095  25.777   1.162
39513W        W10113  37.303  20.858   4.014
39514W        W10114  30.779  16.260   5.035
39515W        W10115  18.549  35.558  12.029
39516W        W10116  38.569  13.099  12.046
39517W        W10117   9.711  44.388   3.539
39518W        W10118  33.213   8.825   3.775
39519W        W10119  19.752  16.185   0.615
39520W        W10120  38.710  17.798  13.101
39521W        W10121   4.903  42.367   4.918
39522W        W10122  14.150  18.868  11.383
39523W        W10123   5.827   3.296  11.532
39524W        W10124  22.167  13.172  14.078
39525W        W10125   6.642  27.068  12.549
39526W        W10126   3.921  40.523  11.896
39527W        W10127  14.554  34.425  12.530
39528W        W10128  16.755  30.171   3.081
39529W        W10129  23.182  43.632   0.020
39530W        W10130  19.143  40.827   0.212
39531W        W10131  25.466  28.455   2.282
39532W        W10132  38.614  10.364   4.592
39533W        W10133   4.295   8.412  11.471
39534W        W10134  35.522   4.699   0.845
39535W        W10135  11.746  15.722   2.742
39536W        W10136  13.695   3.869   4.147
39537W        W10137   6.809  44.694  13.024
39538W        W10138  42.313  28.630   1.938
39539W        W10139  29.908  19.984  11.812
39540W        W10140  16.846  34.892  12.802
39541W        W10141   9.654  35.375  14.765
39542W        W10142  27.032  33.502  10.865
39543W        W10143  38.830   7.147   3.856
39544W        W10144  22.765  37.440   0.708
39545W        W10145  30.987   9.148   4.060
39546W        W10146  15.602  35.946  12.999
39547W        W10147  12.870  30.604   2.848
39548W        W10148  40.067  30.422  13.800
39549W        W10149  10.105  12.546  14.799
39550W        W10150  24.606  38.879   3.260
39551W        W10151  33.979  28.904  13.049
39552W        W10152  42.097  32.261  14.275
39553W        W10153  38.613  33.018  11.984
39554W        W10154  20.724   3.395  13.810
39555W        W10155  26.800   4.798   3.611
39556W        W10156  40.943  19.151   4.526
39557W        W10157   7.957   5.829   0.452
39558W        W10158   8.562  42.029   1.215
39559W        W10159   9.254  14.379   1.830
39560W        W10160  16.793  40.522  12.495
39561W        W10161  28.438  27.262   1.282
39562W        W10162  34.947   2.237   0.402
39563W        W10163  27.737  43.339  11.688
39564W        W10164  20.016  28.168  11.093
39565W        W10165  36.981  26.595  12.331
39566W        W10166  28.883  28.081  11.617
39567W        W10167  41.527  16.409   4.324
39568W        W10168  21.528  21.112   4.571
39569W        W10169  12.184  15.232  10.389
39570W        W10170  25.098  18.163  10.208
39571W        W10171  18.930  30.895  13.032
39572W        W10172  21.311  36.217   5.072
39573W        W10173  34.394   3.394   2.285
39574W        W10174  36.754   7.843  13.648
39575W        W10175   7.410   3.717   0.887
39576W        W10176  36.593  41.957  12.275
39577W        W10177  27.061   5.360   0.920
39578W        W10178  24.129   8.306  11.709
39579W        W10179  40.414  24.976   2.562
39580W        W10180  38.911   1.717  10.642
39581W        W10181  21.321  13.737  14.071
39582W        W10182  18.099   4.698  12.933
39583W        W10183   5.891  16.692  14.554
39584W        W10184  27.043  15.662   4.721
39585W        W10185  12.209  15.679  14.149
39586W        W10186  44.382   6.463   0.015
39587W        W10187  10.321   9.908   2.794
39588W        W10188  12.183  35.025   2.358
39589W        W10189  42.351   1.072   2.516
39590W        W10190  26.154  31.776  13.954
39591W        W10191  28.117  37.519   0.903
39592W        W10192  13.357  39.809   4.284
39593W        W10193  21.988   6.478   4.096
39594W        W10194  26.770  35.980   4.922
39595W        W10195  36.441  35.626   2.804
39596W        W10196   2.612   6.665   3.618
39597W        W10197  21.560  23.032   2.268
39598W        W10198  10.341  21.627   1.987
39599W        W10199   2.954  37.280   3.651
39600W        W10200  44.252   9.436   4.571
39601W        W10201  40.091  43.677  13.832
39602W        W10202  25.159   3.218  14.541
39603W        W10203  43.891  43.892  13.693
39604W        W10204   6.376  13.094  11.136
39605W        W10205   5.615  21.082  14.400
39606W        W10206  14.786  10.625  13.308
39607W        W10207   9.208   7.329   4.054
39608W        W10208  29.429  42.304  11.461
39609W        W10209  15.722   1.280   1.087
39610W        W10210  13.212  19.181  14.490
39611W        W10211  24.802  15.670   3.133
39612W        W10212  14.704  14.059  12.031
39613W        W10213  35.988  28.922   0.737
39614W        W10214  15.334  25.643  12.106
39615W        W10215  22.729  43.325  10.971
39616W        W10216  15.503  34.775   1.493
39617W        W10217  12.889  43.463   1.281
39618W        W10218   2.752  10.566   4.676
39619W        W10219   6.186  27.564  12.976
39620W        W10220  35.400  32.628  14.377
39621W        W10221  26.470   6.250  14.578
39622W        W10222  28.080   8.514  10.743
39623W        W10223  16.476  20.068  12.805
39624W        W10224   1.758  34.398  12.020
39625W        W10225   5.337  40.985   1.486
39626W        W10226  15.094  18.230   4.527
39627W        W10227   4.619  37.382   3.713
39628W        W10228  29.883  30.247   4.858
39629W        W10229   7.661  44.952  14.652
39630W        W10230  30.993  15.054  13.442
39631W        W10231   2.895  44.800   4.203
39632W        W10232  19.551  42.081   1.985
39633W        W10233  44.941  27.525  14.988
39634W        W10234  40.422  39.886  11.284
39635W        W10235  14.425  35.867   2.907
39636W        W10236  38.498  26.252   3.325
39637W        W10237   4.458   7.297  11.164
39638W        W10238  44.104  11.132  14.982
39639W        W10239   0.872  43.803   4.880
39640W        W10240   7.491  18.499  13.556
39641W        W10241   8.878   6.251   1.594
39642W        W10242   4.321  24.904   0.774
39643W        W10243   0.316  40.381  12.172
39644W        W10244  22.493  22.774  13.062
39645W        W10245   4.368  40.379  13.392
39646W        W10246  15.423  15.584   4.129
39647W        W10247  16.345  17.341  13.812
39648W        W10248  44.859  16.579  10.442
39649W        W10249  12.649  42.895  14.164
39650W        W10250  27.594  40.310   1.731
39651W        W10251   7.347  10.400   3.760
39652W        W10252  13.759  38.439   3.763
39653W        W10253  29.729  16.190   3.817
39654W        W10254   7.816   3.435   4.652
39655W        W10255  19.028  20.196  10.354
39656W        W10256  31.061  20.517   3.629
39657W        W10257  11.696  25.930   4.826
39658W        W10258  39.423  27.465   0.032
39659W        W10259  25.172  30.325  11.172
39660W        W10260  13.632  10.559  11.845
39661W        W10261   3.755   3.759  14.427
39662W        W10262  17.594   3.210  14.948
39663W        W10263  40.492  25.849   4.529
39664W        W10264   1.504  22.143   2.235
39665W        W10265  30.967  30.363  14.779
39666W        W10266  21.586  39.066   3.701
39667W        W10267   8.127  30.229  14.048
39668W        W10268  38.011  37.024   3.312
39669W        W10269  32.024  23.606   0.426
39670W        W10270  28.928  44.310   4.640
39671W        W10271  38.412   1.175  10.910
39672W        W10272  24.312   7.101  10.334
39673W        W10273  11.388  16.867  10.757
39674W        W10274   3.430  27.281  11.469
39675W        W10275  34.410   3.262  10.660
39676W        W10276  19.932  29.064  12.539
39677W        W10277  41.583  25.129  10.703
39678W        W10278  37.947  34.087  10.498
39679W        W10279  29.446  33.970   2.275
39680W        W10280  23.143  27.506  12.898
39681W        W10281   1.273  34.869   4.469
39682W        W10282  41.505  32.328   0.930
39683W        W10283  42.699   5.923   1.396
39684W        W10284  31.341  44.731  11.085
39685W        W10285  25.250  15.623  12.028
39686W        W10286  38.932  20.894   4.346
39687W        W10287  34.939  11.071   0.709
39688W        W10288  26.688   1.893   3.376
39689W        W10289   3.687  17.869  14.413
39690W        W10290  34.328  13.595  12.840
39691W        W10291  22.715  20.123  11.590
39692W        W10292   6.042  20.775   0.359
39693W        W10293  26.225   6.762  14.846
39694W        W10294   2.761   4.276  12.960
39695W        W10295  16.126   0.073   4.222
39696W        W10296   7.863  36.420  12.781
39697W        W10297  30.196  38.115   1.714
39698W        W10298  15.261   3.369  10.711
39699W        W10299  11.611   0.823   3.156
39700W        W10300  25.411  10.323   0.807
39701W        W10301  35.237   2.915  13.016
39702W        W10302  20.688   0.104   2.903
39703W        W10303  29.580  20.107   2.247
39704W        W10304  34.896  25.976   4.326
39705W        W10305  16.255  36.109  13.799
39706W        W10306  21.097  40.405   3.111
39707W        W10307  24.520   6.937   4.603
39708W        W10308  12.030  27.902   3.669
39709W        W10309  31.482  35.650  11.122
39710W        W10310  10.078   5.825   2.671
39711W        W10311   0.841  37.306  13.605
39712W        W10312  15.316  41.407   0.247
39713W        W10313  35.986  25.571  14.345
39714W        W10314  41.799   0.739  12.494
39715W        W10315  16.263  39.637   3.217
39716W        W10316  20.544  24.105  12.365
39717W        W10317  25.428  36.093   2.787
39718W        W10318  32.158  18.170  13.499
39719W        W10319  22.018  20.261  14.818
39720W        W10320  22.089   5.713  14.893
39721W        W10321  18.782   2.766  11.044
39722W        W10322  39.941  43.048   3.379
39723W        W10323  24.660   7.224   0.531
39724W        W10324  13.418  37.910  12.080
39725W        W10325  39.423  36.975  12.093
39726W        W10326  25.012  38.104   3.150
39727W        W10327  40.283   1.385  11.339
39728W        W10328  17.124  32.222   1.205
39729W        W10329  27.224  37.374  14.230
39730W        W10330  35.861   9.197  13.875
39731W        W10331  17.826   2.716   0.856
39732W        W10332  17.674  15.062   3.173
39733W        W10333  16.767  32.532   0.887
39734W        W10334  20.666  26.887  13.331
39735W        W10335  29.504  33.516   4.079
39736W        W10336  38.870  26.241   2.967
39737W        W10337  30.036  12.212   0.066
39738W        W10338  29.967   6.826   1.896
39739W        W10339  40.015  26.234  12.426
39740W        W10340   3.063  14.725   0.390
39741W        W10341   8.802  30.458  12.355
39742W        W10342  14.869  41.588   2.229
39743W        W10343  21.733  13.817   2.247
39744W        W10344   4.703  28.870   2.394
39745W        W10345  23.531  39.277   3.758
39746W        W10346  42.343  19.602   3.549
39747W        W10347  31.953  15.178   1.061
39748W        W10348  31.413  12.619  14.334
39749W        W10349  17.796  16.652   1.852
39750W        W10350  23.926  32.176  12.784
39751W        W10351  18.622  28.715   2.888
39752W        W10352  25.436  15.531  13.520
39753W        W10353  19.660  19.912   3.174
39754W        W10354  41.098  38.285  11.739
39755W        W10355  20.590  43.017  12.320
39756W        W10356   3.369  27.632  10.004
39757W        W10357   7.953  42.438  11.157
39758W        W10358  13.668  10.671  14.305
39759W        W10359  25.182   2.563  12.953
39760W        W10360  31.568   0.065  14.963
39761W        W10361   2.964  18.329  12.284
39762W        W10362  18.659  39.983   0.351
39763W        W10363  39.186   1.515   3.119
39764W        W10364  28.080  19.217   3.193
39765W        W10365  17.320  13.134   1.334
39766W        W10366   7.619  23.109   4.229
39767W        W10367   4.814  13.666   2.889
39768W        W10368  42.427  42.840  12.428
39769W        W10369  12.581   6.862  13.120
39770W        W10370  10.465  27.631   0.908
39771W        W10371  26.560  24.805   4.576
39772W        W10372  41.272  27.457   4.704
39773W        W10373  26.294   7.012   0.722
39774W        W10374   7.128   0.351  13.928
39775W        W10375  27.919  14.571   3.407
39776W        W10376  17.808  32.926   3.876
39777W        W10377  15.108  40.543  12.445
39778W        W10378  23.656   1.261  12.866
39779W        W10379   6.960  36.771   3.212
39780W        W10380  12.805  32.528  11.123
39781W        W10381  36.478   3.868   2.226
39782W        W10382  32.095  42.220   2.179
39783W        W10383  41.384  25.234   0.363
39784W        W10384  15.492  29.970   0.060
39785W        W10385   6.745  12.383  11.238
39786W        W10386  29.127  44.793   0.421
39787W        W10387  24.694  39.964  10.943
39788W        W10388  36.399  25.061   3.258
39789W        W10389   2.378  43.714   2.224
39790W        W10390   1.870   7.710  14.840
39791W        W10391  22.079  34.440   1.669
39792W        W10392  28.676  18.248  14.953
39793W        W10393  10.125  36.569   4.624
39794W        W10394  11.632  33.853   3.178
39795W        W10395  15.126   6.544  13.359
39796W        W10396  42.419  34.496   0.353
39797W        W10397  23.300  27.670   2.712
39798W        W10398  19.118  43.943  14.236
39799W        W10399  35.841  43.051   1.918
39800W        W10400   6.458  40.343   4.114
39801W        W10401  10.561  35.235   2.866
39802W        W10402  43.865   5.903  14.612
39803W        W10403  20.553  43.051   0.180
39804W        W10404   7.662   5.732   2.736
39805W        W10405  40.477  16.872   1.207
39806W        W10406  33.418  42.212  13.019
39807W        W10407  35.937  20.583  13.968
39808W        W10408   6.443   7.045   4.695
39809W        W10409   1.326  33.577   2.246
39810W        W10410  20.628  28.622  14.150
39811W        W10411  32.930   8.187  12.511
39812W        W10412  37.536  33.468  11.591
39813W        W10413   1.245  29.091  14.458
39814W        W10414  38.522  44.462  11.017
39815W        W10415  27.536  40.985   3.900
39816W        W10416  35.597  34.121   2.833
39817W        W10417  31.611  26.028  12.672
39818W        W10418  30.025  13.649  13.982
39819W        W10419   9.262  42.266   2.466
39820W        W10420   3.776   6.273   1.996
39821W        W10421   9.874  41.058  10.917
39822W        W10422  24.683  10.635   3.316
39823W        W10423   3.423  33.149  12.878
39824W        W10424  29.499  31.778   3.491
39825W        W10425  24.694  36.897   2.907
39826W        W10426   4.513  19.295  12.413
39827W        W10427  30.188   5.974  11.179
39828W        W10428  20.153   8.691  13.219
39829W        W10429  27.688  37.852   0.452
39830W        W10430  33.076  19.151   4.755
39831W        W10431   4.806  10.682   1.840
39832W        W10432   1.534  38.357   1.999
39833W        W10433  24.160  36.153   3.258
39834W        W10434   5.156  38.468  10.824
39835W        W10435  43.760  25.074  14.095
39836W        W10436  34.082   0.719  14.934
39837W        W10437   4.873   2.315   2.845
39838W        W10438   6.215  12.654   2.760
39839W        W10439  34.943  13.064   1.720
39840W        W10440  35.653  30.984   2.636
39841W        W10441  19.037  10.087   4.136
39842W        W10442  39.232  17.081   2.955
39843W        W10443  15.046  14.814   0.278
39844W        W10444  43.538   1.005  13.401
39845W        W10445  38.536  28.419   2.341
39846W        W10446  36.086  40.259  13.781
39847W        W10447  36.937   4.507   0.480
39848W        W10448  43.913   1.976   4.162
39849W        W10449   9.181  40.608  14.310
39850W        W10450  15.772  29.652   1.846
39851W        W10451  43.581  23.047   1.281
39852W        W10452  26.570  30.864   2.329
39853W        W10453  26.245  30.595  13.448
39854W        W10454   7.669  14.175  14.343
39855W        W10455  42.253  29.594   2.362
39856W        W10456  29.542   2.372  13.482
39857W        W10457  20.166  23.032   0.489
39858W        W10458  30.684  22.747   0.377
39859W        W10459  42.723  29.817   2.463
39860W        W10460  44.420  31.274   4.421
39861W        W10461  20.184  44.407  10.674
39862W        W10462   3.013   2.803   0.883
39863W        W10463  15.240   0.674   5.509
39864W        W10464  12.714  30.958  10.852
39865W        W10465  21.337   6.964   2.137
39866W        W10466  25.445  17.185  12.970
39867W        W10467  27.180  18.997   1.847
39868W        W10468  44.863  30.527   3.165
39869W        W10469   2.759  30.777  11.796
39870W        W10470  33.155   9.391   0.746
39871W        W10471  21.087  29.369   1.216
39872W        W10472  24.928  37.066  13.057
39873W        W10473  37.078   0.500   3.520
39874W        W10474  19.906  39.759  11.986
39875W        W10475   9.013   6.317   0.839
39876W        W10476  10.676  17.226   2.869
39877W        W10477   9.316  21.286  11.195
39878W        W10478  15.155   9.442   4.550
39879W        W10479  14.232  30.577  12.861
39880W        W10480  43.768  14.571   4.636
39881W        W10481  20.115   2.353   2.909
39882W        W10482   1.385  34.872   2.720
39883W        W10483  30.635  38.930   2.677
39884W        W10484   3.240  15.745  14.542
39885W        W10485  36.480  33.997   0.803
39886W        W10486  27.042   0.395   1.416
39887W        W10487  43.973  31.249   3.982
39888W        W10488  36.346  31.550  14.231
39889W        W10489  41.016  26.415  13.970
39890W        W10490  42.247  39.797   2.407
39891W        W10491  41.022  37.098  12.110
39892W        W10492  26.211  18.666  14.458
39893W        W10493  15.621  23.640  13.910
39894W        W10494  38.063   7.984  14.013
39895W        W10495  30.598   1.446   4.667
39896W        W10496  24.460  39.434  11.661
39897W        W10497  21.742  24.338   2.831
39898W        W10498   4.159  14.310   2.277
39899W        W10499  12.377  34.507  12.157
39900W        W10500  24.463  32.361   4.614
39901W        W10501  16.358   4.772  13.427
39902W        W10502  25.669  16.087  12.456
39903W        W10503   1.311  33.061   2.229
39904W        W10504   2.328  33.876   2.768
39905W        W10505   9.514  36.593  12.991
39906W        W10506  10.728   7.980  12.704
39907W        W10507  36.195  15.092   3.317
39908W        W10508  38.601   9.873   0.779
39909W        W10509  21.201  17.203   4.566
39910W        W10510  16.786   6.309  13.287
39911W        W10511  22.522  37.440  13.906
39912W        W10512  11.334  42.962   1.790
39913W        W10513  35.616  32.785   3.748
39914W        W10514   4.995  19.454   0.737
39915W        W10515   9.240   1.464   3.726
39916W        W10516  39.111  35.958  12.941
39917W        W10517  18.883  44.944  13.954
39918W        W10518  18.456   3.529  11.636
39919W        W10519   0.684  39.820   0.273
39920W        W10520  33.411   2.956   0.813
39921W        W10521  22.692  29.144   0.036
39922W        W10522  41.596   9.876  14.226
39923W        W10523  18.379  22.583  13.991
39924W        W10524  40.720  30.228  12.430
39925W        W10525  12.780  13.522   4.619
39926W        W10526  43.546   4.148   5.074
39927W        W10527  34.398  16.231  12.905
39928W        W10528  15.443   9.702   4.059
39929W        W10529  10.778  23.266  10.692
39930W        W10530  12.088  12.573   1.193
39931W        W10531  20.065  21.067  13.626
39932W        W10532  20.316   6.800   3.537
39933W        W10533   6.332  33.024   3.586
39934W        W10534  29.056  41.247  14.270
39935W        W10535   5.086  30.202  11.132
39936W        W10536  38.045  28.163  14.952
39937W        W10537  43.794  34.472  13.060
39938W        W10538  30.046  23.589  14.474
39939W        W10539  36.573  26.247   0.897
39940W        W10540  41.595  41.827  10.759
39941W        W10541  40.747  27.239  12.509
39942W        W10542  40.907  40.575   2.796
39943W        W10543   3.358  39.018   2.321
39944W        W10544  24.107  43.896   1.171
39945W        W10545  44.432  16.489  12.124
39946W        W10546  18.322   4.480  11.026
39947W        W10547  14.351  33.135   3.471
39948W        W10548  23.522   7.961   2.965
39949W        W10549   9.053   6.145   4.198
39950W        W10550  37.470  42.044  12.033
39951W        W10551  24.401  31.995  10.734
39952W        W10552   8.422   0.404   2.036
39953W        W10553  38.928  20.800   2.166
39954W        W10554  38.008   0.339  11.233
39955W        W10555  40.400  40.006   4.740
39956W        W10556   0.219   8.756   2.470
39957W        W10557   3.335   2.514  11.583
39958W        W10558  29.923  14.889   0.433
39959W        W10559   1.781  14.701   3.698
39960W        W10560  31.620  32.351  14.858
39961W        W10561  14.338  41.007  11.713
39962W        W10562  41.889  44.353  12.068
39963W        W10563  40.996   2.235   0.933
39964W        W10564  27.085  22.650  12.906
39965W        W10565  33.792  25.776  13.397
39966W        W10566  31.874   9.145  11.675
39967W        W10567  21.738  39.016  11.210
39968W        W10568   9.550  22.336   2.541
39969W        W10569   5.427  33.003  13.011
39970W        W10570   9.594  13.890  13.650
39971W        W10571  43.317  24.602  10.732
39972W        W10572  26.625  42.570   2.065
39973W        W10573  11.315  40.038   2.719
39974W        W10574  27.513  33.024  14.246
39975W        W10575  16.096  32.427   1.105
39976W        W10576   4.259  11.099  14.222
39977W        W10577  18.765  33.037  14.237
39978W        W10578  17.515   8.380  12.719
39979W        W10579   4.748   9.338  13.764
39980W        W10580  10.132  31.375   0.978
39981W        W10581  27.847  42.341  14.864
39982W        W10582  41.901  21.631   2.610
39983W        W10583   6.536  36.800   0.868
39984W        W10584  28.589  10.862  13.807
39985W        W10585  43.744  17.912   2.069
39986W        W10586  34.948  22.513   1.637
39987W        W10587  25.133  21.673  10.979
39988W        W10588  19.747  38.061  14.640
39989W        W10589   6.627   0.417  13.842
39990W        W10590  34.646  17.658   3.260
39991W        W10591   8.989   3.057  10.421
39992W        W10592  16.192  15.776   1.895
39993W        W10593  37.533  25.610  10.900
39994W        W10594  28.578  31.802   2.164
39995W        W10595  17.080  24.711  13.500
39996W        W10596   4.226  14.240   1.337
39997W        W10597   7.840   1.256   3.668
39998W        W10598  40.966  10.612  11.783
39999W        W10599  35.292  12.178   3.834
40000W        W10600   1.779  29.873   0.303
40001W        W10601  24.455  44.955   2.647
40002W        W10602  14.398  37.430   3.164
40003W        W10603   5.978  34.428   3.069
40004W        W10604   0.658  34.441  10.299
40005W        W10605  10.222  42.228   4.536
40006W        W10606  29.898   6.645  13.091
40007W        W10607   6.655  16.751   2.000
40008W        W10608  37.404  20.674   2.479
40009W        W10609  19.211   3.038  11.062
40010W        W10610  33.399  24.573  11.483
40011W        W10611   5.728  43.442  12.494
40012W        W10612  12.086   1.919   4.135
40013W        W10613  34.235  26.679  13.965
40014W        W10614  30.946   9.661   0.927
40015W        W10615  32.647  25.499  14.304
40016W        W10616  42.309   6.318   1.429
40017W        W10617  35.407  29.097  11.629
40018W        W10618   4.790  40.610  13.590
40019W        W10619  19.335  32.375   0.686
40020W        W10620  38.857  39.691  12.844
40021W        W10621   0.024  14.316   0.903
40022W        W10622  33.152  34.414  13.889
40023W        W10623  23.901   5.782   0.754
40024W        W10624  21.180   3.313  11.972
40025W        W10625  17.639  32.644  12.764
40026W        W10626  36.137  30.249   3.230
40027W        W10627  18.950  15.576   2.451
40028W        W10628  23.692  13.188   0.668
40029W        W10629  35.154  32.441  13.341
40030W        W10630  13.628  12.483   3.697
40031W        W10631  30.450  42.371   1.347
40032W        W10632  37.363  14.588  13.515
40033W        W10633  25.436  43.112  10.627
40034W        W10634  13.990  11.235  12.156
40035W        W10635  25.189  27.249  14.929
40036W        W10636  15.471  23.988  12.546
40037W        W10637  22.609  21.851  13.426
40038W        W10638  11.439  42.220   2.273
40039W        W10639  35.028   6.708  13.038
40040W        W10640   7.286  11.851   3.234
40041W        W10641  10.839  10.090  13.056
40042W        W10642  38.967  39.564   3.652
40043W        W10643  37.042  22.208   0.369
40044W        W10644  17.051  11.748  14.418
40045W        W10645  36.603  10.402   9.596
40046W        W10646   9.995  43.955   3.584
40047W        W10647  21.664   9.873  13.982
40048W        W10648  30.198  22.204  13.793
40049W        W10649   7.375  18.084  10.792
40050W        W10650  19.598   2.468   4.671
40051W        W10651  31.981   6.526  13.971
40052W        W10652  44.368   6.811  13.403
40053W        W10653  12.550  18.246   3.814
40054W        W10654  30.208  37.225   5.185
40055W        W10655  33.098  12.354  13.374
40056W        W10656  15.744  25.431  11.048
40057W        W10657  11.313  31.813   4.566
40058W        W10658  22.630   6.460  14.256
40059W        W10659  21.652   4.743  12.156
40060W        W10660   6.320  15.960   4.147
40061W        W10661  14.824  14.311   3.866
40062W        W10662  11.908   4.945   9.762
40063W        W10663  34.015  30.683  13.521
40064W        W10664  16.118   5.989  14.733
40065W        W10665   7.244  15.660   4.821
40066W        W10666  32.480   7.316   2.329
40067W        W10667  12.833   2.069  10.399
40068W        W10668  31.495  24.663   1.639
40069W        W10669   2.005  11.107  10.710
40070W        W10670  17.156   1.571  14.934
40071W        W10671  42.181  44.342  14.358
40072W        W10672  16.347  39.522   1.892
40073W        W10673  38.407  20.125   4.799
40074W        W10674  33.029  21.548   2.635
40075W        W10675   3.311  34.407  14.361
40076W        W10676  24.668  17.071  11.097
40077W        W10677  22.234  11.839  14.511
40078W        W10678   0.265  30.732  11.550
40079W        W10679  10.089   6.685   3.301
40080W        W10680  25.353  42.259  12.151
40081W        W10681   9.959  24.326   4.591
40082W        W10682  30.633  28.554  10.622
40083W        W10683   5.372  12.381   3.256
40084W        W10684  44.506  26.457  11.034
40085W        W10685  36.692  37.081   4.654
40086W        W10686  22.098  17.646   4.445
40087W        W10687  14.403  34.920  10.957
40088W        W10688  22.047  41.711   3.234
40089W        W10689   1.799  25.921   1.275
40090W        W10690   4.235   5.936  12.109
40091W        W10691   1.808   8.476  12.960
40092W        W10692  24.539  22.262  14.714
40093W        W10693  18.643   4.260   1.341
40094W        W10694  35.313  16.098  13.828
40095W        W10695  36.080  10.749   3.350
40096W        W10696  23.762   9.960  13.470
40097W        W10697  31.019  15.584   4.557
40098W        W10698  34.599  23.106  14.938
40099W        W10699  15.244  28.640   3.690
40100W        W10700  28.987   9.023  12.317
40101W        W10701  29.912   5.460   4.319
40102W        W10702   2.673  44.993  12.547
40103W        W10703  40.570  34.296  11.116
40104W        W10704   1.934  36.518   0.056
40105W        W10705  43.341  24.423   4.128
40106W        W10706  22.221   1.280   3.159
40107W        W10707   0.098  22.252  10.682
40108W        W10708  36.620  12.056  11.796
40109W        W10709  40.551  15.543  13.429
40110W        W10710   2.158  31.225   2.391
40111W        W10711  13.649  10.627  12.821
40112W        W10712   3.296  15.560   4.024
40113W        W10713  28.865  35.274   1.707
40114W        W10714  42.806  25.429   1.799
40115W        W10715  29.238  26.074  12.660
40116W        W10716  26.388  18.781  12.699
40117W        W10717  33.500   0.818  14.770
40118W        W10718   6.965  27.083   3.910
40119W        W10719  29.478  35.398   4.814
40120W        W10720  12.574   6.698  11.665
40121W        W10721  30.045  20.634   1.667
40122W        W10722  37.639  26.952  11.715
40123W        W10723   9.908   4.041  10.916
40124W        W10724  22.097  33.346   4.245
40125W        W10725  20.842  13.299  12.112
40126W        W10726  36.898  20.704  10.792
40127W        W10727  40.798  22.636   4.216
40128W        W10728  36.913  11.224  10.860
40129W        W10729  30.142  16.197  11.235
40130W        W10730  39.912  19.076   0.757
40131W        W10731  29.574  31.912   2.213
40132W        W10732  16.190  32.617   2.279
40133W        W10733   0.473   8.024  13.569
40134W        W10734   2.466  18.692  11.561
40135W        W10735   2.386  19.112  14.225
40136W        W10736  23.516  21.247   1.814
40137W        W10737   9.212  26.191  13.549
40138W        W10738  40.507  23.042   4.879
40139W        W10739   9.100  28.534  11.597
40140W        W10740   5.688  13.755  14.032
40141W        W10741   8.954  18.284   4.696
40142W        W10742  32.759  29.347   2.280
40143W        W10743  34.957  36.119  14.982
40144W        W10744  25.435  26.401   1.037
40145W        W10745  23.981  10.370   1.697
40146W        W10746  34.410  18.266   0.407
40147W        W10747  14.544  43.285  13.397
40148W        W10748  31.071  18.791  12.025
40149W        W10749  34.086   4.806  10.738
40150W        W10750   9.802   0.719   4.607
40151W        W10751   5.165   7.435  13.873
40152W        W10752   5.414   0.801   0.942
40153W        W10753  38.627  12.756  13.255
40154W        W10754  18.265  29.956   0.837
40155W        W10755   9.604  39.648   0.480
40156W        W10756   9.158  40.606   2.483
40157W        W10757  38.500   8.390  13.317
40158W        W10758  42.389  44.256   2.386
40159W        W10759  37.872  18.001  13.338
40160W        W10760  11.376  35.866   3.357
40161W        W10761  38.271  13.766   3.776
40162W        W10762  29.546  40.431   3.083
40163W        W10763  44.817  18.798   0.386
40164W        W10764  24.166   5.029  14.791
40165W        W10765  29.642  12.573  12.913
40166W        W10766  28.092   4.092   0.324
40167W        W10767  27.655  10.116  12.464
40168W        W10768  41.897  20.175   5.282
40169W        W10769   5.302   5.661  13.466
40170W        W10770  37.277  16.565  11.231
40171W        W10771   3.432   1.942  14.968
40172W        W10772   4.173  13.586   1.392
40173W        W10773  37.074  18.093   4.643
40174W        W10774  39.858   2.297   4.183
40175W        W10775   0.029  24.532   2.933
40176W        W10776  26.725  37.897   3.463
40177W        W10777  10.677   7.599   1.459
40178W        W10778  16.953  35.847  13.206
40179W        W10779  44.038  18.184  11.001
40180W        W10780  38.628  10.426   0.762
40181W        W10781  13.103  21.902   4.058
40182W        W10782  22.267   5.639   4.433
40183W        W10783  33.669   9.705   1.856
40184W        W10784  17.388  19.811  11.085
40185W        W10785  30.747  42.344  10.661
40186W        W10786  19.005  19.033   2.682
40187W        W10787  13.107  36.636  12.500
40188W        W10788   9.012  21.405  11.882
40189W        W10789   0.110   2.979  10.967
40190W        W10790  23.511  42.309   1.749
40191W        W10791  21.574  13.078   3.010
40192W        W10792   8.314   9.746   1.301
40193W        W10793  44.807  19.202  12.149
40194W        W10794  30.680  10.432  12.625
40195W        W10795  26.733  32.153   1.878
40196W        W10796  30.213  28.006   0.855
40197W        W10797  10.188  29.021  14.862
40198W        W10798  15.866  22.939  13.348
40199W        W10799  25.516  38.297  12.958
40200W        W10800  31.581  23.288   0.313
40201W        W10801  27.318  20.779   2.850
40202W        W10802  30.906  37.105   2.896
40203W        W10803  18.427  27.260  10.778
40204W        W10804   0.463  10.883  13.186
40205W        W10805  15.068  31.450  14.989
40206W        W10806  23.578   7.381   2.193
40207W        W10807  32.298  26.957  14.426
40208W        W10808  14.851   1.256   1.414
40209W        W10809  27.539  31.491  12.967
40210W        W10810  37.674  23.744  12.902
40211W        W10811  44.860  20.312   2.114
40212W        W10812  35.983  11.819  12.619
40213W        W10813   0.904  34.634   0.916
40214W        W10814  12.920  41.184  11.918
40215W        W10815  43.653  38.082   4.966
40216W        W10816  17.150   6.978  10.445
40217W        W10817  23.323  12.829   3.571
40218W        W10818   8.195  12.365   3.521
40219W        W10819  42.811   3.397   0.468
40220W        W10820  29.409  26.934   2.245
40221W        W10821  16.508   0.738  13.647
40222W        W10822  10.685  28.644  12.566
40223W        W10823  10.443  13.634  11.046
40224W        W10824   3.767  40.478   0.687
40225W        W10825   2.919  38.438  14.243
40226W        W10826   2.011   0.385   4.632
40227W        W10827  25.946  29.709  11.876
40228W        W10828  11.788  11.662   2.621
40229W        W10829  37.902  12.678   2.391
40230W        W10830  15.187  14.358   1.132
40231W        W10831   3.204  28.071  14.472
40232W        W10832  32.081  34.171   4.451
40233W        W10833  18.523   5.906  10.607
40234W        W10834  16.977  27.373  12.880
40235W        W10835  34.384   4.505  11.111
40236W        W10836  26.593  27.778  10.806
40237W        W10837   2.110  16.221  14.966
40238W        W10838  12.036  43.998  11.021
40239W        W10839  22.990  11.662   2.092
40240W        W10840  38.204  18.009  11.065
40241W        W10841  32.238  43.769   4.129
40242W        W10842  28.384  37.031  14.210
40243W        W10843  38.283  29.309  12.628
40244W        W10844  41.890   9.227  13.682
40245W        W10845  21.251  25.431  10.875
40246W        W10846  33.971   4.410   1.346
40247W        W10847  15.851  32.113   0.763
40248W        W10848  43.455  19.413   0.794
40249W        W10849  19.608  14.267   2.631
40250W        W10850  13.281   7.344   1.405
40251W        W10851   6.369   2.786  12.166
40252W        W10852   4.838   6.975  14.247
40253W        W10853  32.599  39.545   1.924
40254W        W10854  32.106  23.388   3.755
40255W        W10855   2.704  33.405  13.167
40256W        W10856  44.405  37.494   5.019
40257W        W10857  44.873  39.083  13.561
40258W        W10858  15.583  15.330  13.584
40259W        W10859  34.852  25.878  12.861
40260W        W10860  23.448   2.840  10.792
40261W        W10861  22.782  20.672  10.986
40262W        W10862  42.543  13.747   3.931
40263W        W10863   3.256  24.656   0.610
40264W        W10864  25.446  14.119   1.518
40265W        W10865  27.474  35.426  14.350
40266W        W10866  24.498  15.817  13.425
40267W        W10867   1.675  42.951   2.817
40268W        W10868  36.491   2.889   4.640
40269W        W10869  39.711  39.207   0.920
40270W        W10870  33.060  36.347  13.861
40271W        W10871  41.491   2.704  14.933
40272W        W10872  42.328  30.008  12.005
40273W        W10873   0.779  31.726   3.640
40274W        W10874  20.997   4.288   2.179
40275W        W10875  20.266  41.212   0.431
40276W        W10876  17.058   4.648   3.728
40277W        W10877   8.603  31.887   0.791
40278W        W10878  42.283  24.252   0.051
40279W        W10879  41.384   2.099   1.808
40280W        W10880  38.330  10.198   4.204
40281W        W10881  35.379   4.816  14.087
40282W        W10882  10.132  40.923  13.358
40283W        W10883   7.861  24.129   2.704
40284W        W10884  33.770   0.213  11.578
40285W        W10885  26.653  26.983   3.316
40286W        W10886  22.101  18.186  11.987
40287W        W10887  32.372  24.017   3.177
40288W        W10888  39.846  32.161  11.506
40289W        W10889  37.483  17.937   1.276
40290W        W10890   9.139   0.966  11.034
40291W        W10891  32.524  26.371   3.095
40292W        W10892   2.319  20.967   4.662
40293W        W10893  40.637  16.326  14.387
40294W        W10894  39.353  13.814   1.492
40295W        W10895   7.517  12.329   4.258
40296W        W10896  29.984  31.602   2.189
40297W        W10897  15.404  24.273  10.705
40298W        W10898   1.276  31.713  14.230
40299W        W10899  25.288  22.129  13.287
40300W        W10900  32.157  15.394   3.354
40301W        W10901  32.044  18.269  10.695
40302W        W10902  19.058   6.855  14.878
40303W        W10903  31.225  44.032   4.110
40304W        W10904  43.435  19.797  10.650
40305W        W10905  22.887  23.396   3.943
40306W        W10906  40.559   6.839  11.158
40307W        W10907   0.257  17.782  14.372
40308W        W10908   7.692   5.802   4.174
40309W        W10909  25.165  10.381  12.914
40310W        W10910  31.635  27.504  14.785
40311W        W10911  19.732  20.786   0.469
40312W        W10912  28.379  29.473  13.877
40313W        W10913  34.882  33.401  13.110
40314W        W10914  16.063  30.840  14.829
40315W        W10915  37.136   7.141  11.966
40316W        W10916  22.623   7.034  10.666
40317W        W10917  32.376  39.380   1.417
40318W        W10918  34.400  42.046  11.557
40319W        W10919  41.004  31.891  10.758
40320W        W10920  32.788  28.921  12.622
40321W        W10921  32.874   2.254  11.979
40322W        W10922  30.565  37.400   1.920
40323W        W10923   6.392   7.820  10.643
40324W        W10924  31.240  41.514   4.245
40325W        W10925  15.565   4.452  13.342
40326W        W10926   0.402  32.894   4.084
40327W        W10927  35.388   3.314   4.635
40328W        W10928  23.066  25.254   3.720
40329W        W10929   4.287  14.046  11.839
40330W        W10930  12.388  21.624   3.787
40331W        W10931  41.249   3.344  11.123
40332W        W10932  32.917   2.407  12.624
40333W        W10933  39.840  24.207   3.585
40334W        W10934  21.490   9.149  12.401
40335W        W10935  42.721  28.603   4.149
40336W        W10936  30.931  39.938  13.259
40337W        W10937  36.005   2.853  13.780
40338W        W10938  34.212   4.118   1.729
40339W        W10939  43.081   2.270  13.138
40340W        W10940  26.585  42.904   0.682
40341W        W10941  15.276  20.551   3.609
40342W        W10942  19.717  29.547  12.405
40343W        W10943  22.088  14.291  12.500
40344W        W10944  37.455  13.242  13.110
40345W        W10945   6.431  27.159   4.081
40346W        W10946  36.735  38.362  11.552
40347W        W10947  35.166   6.694   3.089
40348W        W10948   4.355  27.039   1.455
40349W        W10949  41.355  41.260  11.618
40350W        W10950  13.320  35.061   2.652
40351W        W10951  12.303  37.461   2.612
40352W        W10952  32.894  17.598   2.725
40353W        W10953  38.527  21.724  11.596
40354W        W10954  20.070  34.480   1.760
40355W        W10955  27.992  40.546   1.465
40356W        W10956  23.419  40.535   1.472
40357W        W10957   7.673  42.212  13.877
40358W        W10958   3.557  16.095  14.794
40359W        W10959  24.239  25.159   4.669
40360W        W10960  16.565   5.473  11.439
40361W        W10961  32.950  42.814   0.281
40362W        W10962  43.197  30.178  14.299
40363W        W10963  43.386  43.937  11.382
40364W        W10964   7.603  37.352   2.770
40365W        W10965  43.267  10.767   0.073
40366W        W10966  11.896  36.778   4.136
40367W        W10967  16.165  32.153  13.874
40368W        W10968  21.569   8.723   2.472
40369W        W10969  33.008  18.669  13.927
40370W        W10970  35.735  19.620  12.788
40371W        W10971  32.578  29.741  13.971
40372W        W10972  31.404  30.198   2.872
40373W        W10973  16.891  13.320   9.810
40374W        W10974  42.941  35.223  13.778
40375W        W10975   6.833  15.536  11.109
40376W        W10976   8.492   0.519  13.508
40377W        W10977   7.877  37.305  12.496
40378W        W10978  25.217  41.322  11.194
40379W        W10979  22.006  36.819  14.599
40380W        W10980  10.159  36.562  14.861
40381W        W10981  44.902  43.591  12.765
40382W        W10982  20.226  36.079   2.904
40383W        W10983  32.916   8.710  10.675
40384W        W10984  27.339  39.454   3.551
40385W        W10985  43.332  25.020   1.269
40386W        W10986  28.868  29.581  10.401
40387W        W10987  26.660   1.929   4.409
40388W        W10988  27.921  12.927  13.999
40389W        W10989  24.597  42.460  11.228
40390W        W10990   6.512  12.391   0.268
40391W        W10991  39.839  40.216   0.310
40392W        W10992  30.657  19.792   0.578
40393W        W10993  17.751   8.011  10.795
40394W        W10994  38.559   3.345  11.210
40395W        W10995  19.588  26.699  11.639
40396W        W10996  23.570  37.823   2.841
40397W        W10997   8.679  44.969   1.820
40398W        W10998  23.021  21.417  13.053
40399W        W10999  17.482  25.669  14.884
40400W        W11000   6.134   7.182  13.052
40401W        W11001  18.065   2.805   1.375
40402W        W11002  40.095  29.663  12.949
40403W        W11003  36.530  14.210  10.602
40404W        W11004  21.061   2.445   2.648
40405W        W11005  17.235  42.892  14.218
40406W        W11006  20.330  39.510   3.106
40407W        W11007  16.756  28.678  12.461
40408W        W11008  39.749  41.708   1.723
40409W        W11009  37.915  33.302  12.416
40410W        W11010  27.169  23.222   2.260
40411W        W11011  20.759  23.988  11.385
40412W        W11012  43.460  14.607   1.625
40413W        W11013  33.802   9.357  12.417
40414W        W11014  11.194  37.700   0.618
40415W        W11015  14.670  28.651   2.909
40416W        W11016   8.332  34.092   4.568
40417W        W11017  28.871  41.063   4.019
40418W        W11018  19.047  14.041  11.318
40419W        W11019  20.675  10.268  12.994
40420W        W11020   9.356  35.054   2.389
40421W        W11021  38.366  35.614   3.742
40422W        W11022  14.117  30.118   4.129
40423W        W11023  23.512  37.927  12.538
40424W        W11024   0.023   4.232  11.958
40425W        W11025  37.277  40.564   5.157
40426W        W11026  26.296  43.797   3.640
40427W        W11027  21.567  34.381   1.722
40428W        W11028  37.612  11.451   3.732
40429W        W11029  34.477  35.695  12.812
40430W        W11030   7.151  33.043   2.574
40431W        W11031  31.950  40.757   0.465
40432W        W11032  37.362  31.460  10.673
40433W        W11033  22.607  24.078   0.456
40434W        W11034  34.615  22.094   1.720
40435W        W11035   3.681  14.770  13.544
40436W        W11036  20.506  18.644   3.704
40437W        W11037  43.543  29.645  12.573
40438W        W11038  31.885  34.622   0.907
40439W        W11039  37.485  10.193  12.926
40440W        W11040  25.135  33.902  13.370
40441W        W11041  18.297  44.029  12.395
40442W        W11042  27.423  42.557  13.918
40443W        W11043  34.371  25.320  11.155
40444W        W11044  38.946  27.650   2.122
40445W        W11045  42.702  34.005   0.230
40446W        W11046  40.298  13.156   1.743
40447W        W11047  19.542   0.754   3.654
40448W        W11048  22.477  29.455   3.182
40449W        W11049  19.480  38.596   4.558
40450W        W11050  18.672  41.023   0.168
40451W        W11051  28.180  26.097   3.323
40452W        W11052  40.938  22.984  13.716
40453W        W11053  33.150  36.676   0.287
40454W        W11054  37.197   9.700  14.734
40455W        W11055  10.103   8.375   1.705
40456W        W11056  35.353   5.650  14.799
40457W        W11057  17.653   6.856  14.834
40458W        W11058   8.603  16.068  13.337
40459W        W11059  31.539  32.894   0.539
40460W        W11060   3.447   1.555   2.234
40461W        W11061  15.691  41.662  14.998
40462W        W11062  10.627  14.297  11.157
40463W        W11063  29.961  25.841  14.038
40464W        W11064  13.196  35.429  11.585
40465W        W11065  10.296  14.783  10.054
40466W        W11066   9.592  14.142   3.684
40467W        W11067  12.802   3.211   2.353
40468W        W11068  25.121  44.136   0.331
40469W        W11069  31.023  22.240  11.871
40470W        W11070  39.573   8.202  14.970
40471W        W11071  26.024  24.664   1.359
40472W        W11072  26.460  40.238   0.459
40473W        W11073  41.361  36.226   2.322
40474W        W11074   7.858  28.133  14.335
40475W        W11075   6.893  34.841  11.031
40476W        W11076  26.055   6.622   1.658
40477W        W11077  33.484  22.084  12.448
40478W        W11078  12.616  10.698   0.320
40479W        W11079  25.143  25.331   2.866
40480W        W11080  25.979  40.474   3.766
40481W        W11081  15.283  42.560  12.146
40482W        W11082  17.179  17.067   4.586
40483W        W11083  14.199  29.576   1.008
40484W        W11084  32.728  11.616   3.340
40485W        W11085  19.269  10.417   0.966
40486W        W11086  16.812  44.384  11.458
40487W        W11087  18.620  21.547  10.663
40488W        W11088  30.071  41.431   2.090
40489W        W11089  20.234  37.352  13.157
40490W        W11090  27.071  28.669  11.999
40491W        W11091   9.856  20.632  11.916
40492W        W11092  38.187  33.554   0.679
40493W        W11093  34.450   4.878   4.063
40494W        W11094  30.596  36.617  13.174
40495W        W11095  18.621  26.461  13.375
40496W        W11096   0.788  18.551  10.626
40497W        W11097  13.382  25.053  14.297
40498W        W11098  21.552  37.638  13.089
40499W        W11099  28.337  16.641   3.391
40500W        W11100  43.131  37.262  14.503
40501W        W11101  42.775  40.464  14.935
40502W        W11102  33.515  32.715   4.149
40503W        W11103   5.539   5.942  13.836
40504W        W11104  14.855   5.782   1.316
40505W        W11105   0.901   8.691  14.729
40506W        W11106  14.255  37.872   0.676
40507W        W11107  14.621  18.159   0.104
40508W        W11108  35.976   2.814   3.547
40509W        W11109   6.206   4.253  12.940
40510W        W11110  22.046   6.781  14.841
40511W        W11111  22.717  37.993   0.428
40512W        W11112  15.454  18.553  14.236
40513W        W11113   2.824  42.520  14.031
40514W        W11114  18.176  12.196   0.424
40515W        W11115  14.129  18.828  14.932
40516W        W11116  19.482  12.774  12.558
40517W        W11117   0.725   4.314  12.547
40518W        W11118  33.835  24.205   3.700
40519W        W11119   9.653   9.675   4.216
40520W        W11120  42.082  43.488  11.038
40521W        W11121  16.810   1.762   0.812
40522W        W11122  16.316  24.652  10.428
40523W        W11123  35.912  17.325   0.793
40524W        W11124  32.278   0.483   1.520
40525W        W11125  22.346   6.399  13.045
40526W        W11126  30.228  44.447   2.085
40527W        W11127   4.724  40.053  11.205
40528W        W11128  29.518  19.840   0.731
40529W        W11129  31.566   3.009   0.041
40530W        W11130  22.011  16.519   3.606
40531W        W11131  12.136  28.881  12.858
40532W        W11132  38.252  39.948  13.739
40533W        W11133  13.283  40.856   0.835
40534W        W11134  23.754   9.693  11.705
40535W        W11135  38.775  41.262   0.739
40536W        W11136   1.244  40.579  14.869
40537W        W11137  10.116  30.774  13.446
40538W        W11138  25.734  14.705   2.842
40539W        W11139  27.928   9.088   0.818
40540W        W11140   5.439  42.309   1.690
40541W        W11141  24.784  35.028   4.157
40542W        W11142   2.966  12.720  13.939
40543W        W11143  19.773  35.616  13.939
40544W        W11144   8.333  36.119  12.356
40545W        W11145  33.475   8.931   4.256
40546W        W11146  22.122   2.998  13.840
40547W        W11147   6.339  26.389   3.662
40548W        W11148   2.827   5.397  10.742
40549W        W11149   9.090  32.638   0.510
40550W        W11150  20.997  42.095   1.125
40551W        W11151  43.212  39.276   1.284
40552W        W11152  33.937   3.485   3.661
40553W        W11153  32.396  22.659  11.115
40554W        W11154  41.880  25.972   0.295
40555W        W11155  44.338   3.275  11.209
40556W        W11156   1.838  21.349  12.162
40557W        W11157  36.979   5.565  14.433
40558W        W11158  35.440  33.007  12.646
40559W        W11159   5.652  38.558  12.498
40560W        W11160  24.697   5.981  13.803
40561W        W11161  20.686  18.203  13.322
40562W        W11162  12.868  13.007   4.071
40563W        W11163   8.401  37.949   1.776
40564W        W11164  19.723  28.992   4.122
40565W        W11165  15.796   3.227  13.853
40566W        W11166  17.868   6.458  11.050
40567W        W11167  30.998  11.480   1.556
40568W        W11168  25.455  15.654   3.634
40569W        W11169  26.533   0.777   1.730
40570W        W11170   8.950  25.939   1.426
40571W        W11171  23.285  14.673   4.261
40572W        W11172  30.596   7.568   4.453
40573W        W11173  20.591  20.382   0.431
40574W        W11174   7.266  34.481  13.672
40575W        W11175  29.873  32.021   3.160
40576W        W11176   8.384   8.569   4.018
40577W        W11177  23.769   3.035  14.794
40578W        W11178  24.735  24.135   4.375
40579W        W11179  20.168  20.642   4.573
40580W        W11180   0.183  40.534   2.739
40581W        W11181  38.885  35.916   0.409
40582W        W11182   8.980  42.130  12.986
40583W        W11183   7.745  40.053   4.712
40584W        W11184  20.178   6.859  14.911
40585W        W11185   2.755  38.034   2.905
40586W        W11186  39.666  30.541   1.702
40587W        W11187  12.915   6.150   1.317
40588W        W11188  12.020  21.165   0.936
40589W        W11189  26.109  14.648  10.424
40590W        W11190  17.559  27.446  14.389
40591W        W11191   8.339   2.711  13.870
40592W        W11192  28.496  29.232   3.864
40593W        W11193  15.036  33.310   0.561
40594W        W11194  21.124   2.789   2.255
40595W        W11195  37.386  19.714   2.487
40596W        W11196  12.293  29.642   2.870
40597W        W11197  13.584  44.236  12.972
40598W        W11198  17.347  34.635  13.390
40599W        W11199  14.058  44.234  13.894
40600W        W11200  20.258  10.694   2.827
40601W        W11201  33.366  14.663   0.634
40602W        W11202   6.328  11.378   3.247
40603W        W11203  43.728  18.233  12.331
40604W        W11204  34.501  43.790   4.775
40605W        W11205  15.035  24.388   0.963
40606W        W11206  13.337  28.684  13.016
40607W        W11207   1.354  20.423   4.555
40608W        W11208   0.541  15.053  13.407
40609W        W11209  21.742   1.248  12.134
40610W        W11210  20.338   8.586   9.789
40611W        W11211  22.183  41.495   1.234
40612W        W11212  25.238  35.308  11.727
40613W        W11213   0.884  19.620  12.297
40614W        W11214   5.244  27.695  12.781
40615W        W11215  20.341  20.027   5.063
40616W        W11216  32.306  37.339   1.741
40617W        W11217  37.171  17.182   4.999
40618W        W11218  38.924  36.627  14.088
40619W        W11219  32.906  16.301  12.160
40620W        W11220  13.618  39.183   0.422
40621W        W11221  19.537  18.519   0.118
40622W        W11222   1.218   0.509   0.387
40623W        W11223  31.326  36.906   3.161
40624W        W11224  20.517   2.570   9.948
40625W        W11225   0.533  36.705   1.255
40626W        W11226  19.486  34.906  14.741
40627W        W11227   0.521  26.181  10.529
40628W        W11228   9.325   4.023   2.221
40629W        W11229  12.828   1.407  13.052
40630W        W11230  33.484   2.263   4.091
40631W        W11231   6.255  19.813   1.723
40632W        W11232  11.706  39.546   2.234
40633W        W11233   6.134  17.091  12.481
40634W        W11234  10.223  29.883   0.938
40635W        W11235  33.959  13.165   0.640
40636W        W11236  38.396  42.480   1.656
40637W        W11237  31.090  34.349  13.739
40638W        W11238  15.788   5.515  10.855
40639W        W11239  18.474   0.974   1.718
40640W        W11240  17.707  29.794   3.631
40641W        W11241  36.320   8.316  11.597
40642W        W11242  17.464  10.241   1.693
40643W        W11243  17.920  38.803  12.965
40644W        W11244  18.099   8.672   2.666
40645W        W11245  15.995  33.638   0.266
40646W        W11246  29.867  18.747  10.765
40647W        W11247  21.997  24.512  11.527
40648W        W11248   7.502   8.953   0.954
40649W        W11249  36.276  11.502   2.031
40650W        W11250  18.196  12.540  14.403
40651W        W11251  14.003  31.006   3.736
40652W        W11252  30.908  13.830  11.146
40653W        W11253  20.442  20.708  11.635
40654W        W11254  35.947  11.702  14.382
40655W        W11255  10.408  32.548  14.034
40656W        W11256  19.185   1.463   4.048
40657W        W11257   5.365  12.184  11.180
40658W        W11258  34.059  38.649   4.125
40659W        W11259   6.633   7.220  12.676
40660W        W11260  34.608  33.407   4.474
40661W        W11261   5.419  31.397  11.145
40662W        W11262  30.727  38.574  13.618
40663W        W11263   6.195  39.575   3.565
40664W        W11264  22.405  22.999  14.826
40665W        W11265  28.211   1.918   3.737
40666W        W11266  44.512  28.627   1.791
40667W        W11267  40.950  10.913   3.613
40668W        W11268  44.418  16.344  13.765
40669W        W11269   8.456  40.833  14.785
40670W        W11270  20.446   0.368   4.378
40671W        W11271  12.173   7.825  13.395
40672W        W11272  23.336  22.354  11.997
40673W        W11273  37.538  14.696   1.556
40674W        W11274  39.388   4.247  10.698
40675W        W11275  33.550  27.379   4.332
40676W        W11276  35.113   0.784  13.899
40677W        W11277  12.675  44.880   3.552
40678W        W11278  20.131  11.926   3.188
40679W        W11279  21.057  21.257  14.353
40680W        W11280  12.555  28.625   3.778
40681W        W11281  40.437  29.429  11.103
40682W        W11282  30.830   2.757  11.890
40683W        W11283  29.406  22.154  14.392
40684W        W11284  13.301  30.297   0.353
40685W        W11285  29.551  25.021   1.748
40686W        W11286  19.708  21.967   3.186
40687W        W11287  42.787  17.257  11.198
40688W        W11288  27.177  28.420   1.906
40689W        W11289  27.057  31.688  11.867
40690W        W11290  22.729  44.255   3.655
40691W        W11291   4.449  10.325  12.887
40692W        W11292   5.936  34.505  11.712
40693W        W11293  37.693  24.260   4.175
40694W        W11294   7.115  39.037  12.540
40695W        W11295  22.792  24.914   3.993
40696W        W11296  18.244   3.315   0.318
40697W        W11297  16.672  33.648  10.204
40698W        W11298  21.627  23.359   4.616
40699W        W11299  21.717  24.058   0.281
40700W        W11300  23.138  44.650  11.222
40701W        W11301   5.109  26.589  11.456
40702W        W11302  28.410  21.535  13.426
40703W        W11303  36.846  37.597   3.603
40704W        W11304  25.292  32.306   0.541
40705W        W11305  36.726   8.830   3.271
40706W        W11306   9.358  24.000  10.744
40707W        W11307   3.947   1.672  11.582
40708W        W11308  43.175  29.967   1.201
40709W        W11309  28.007   0.450  14.076
40710W        W11310  34.538  44.598  13.279
40711W        W11311   5.196   5.296  12.522
40712W        W11312  26.644  32.848   0.840
40713W        W11313   4.619  25.642  14.794
40714W        W11314   3.056  37.024  13.432
40715W        W11315  31.181  20.711  11.931
40716W        W11316   1.615  32.423   1.798
40717W        W11317   0.383   3.655   0.682
40718W        W11318   4.333  17.831  14.906
40719W        W11319   7.178  19.443   0.826
40720W        W11320  19.214  14.670   1.335
40721W        W11321  35.119  42.272   4.059
40722W        W11322  23.545  22.663  10.693
40723W        W11323  17.584  40.988   3.572
40724W        W11324  14.728  27.570   1.801
40725W        W11325  31.151  18.334  12.543
40726W        W11326  31.868  44.919   0.788
40727W        W11327  14.454  41.343   1.853
40728W        W11328  12.714   4.210   2.399
40729W        W11329  41.588  30.698  11.245
40730W        W11330  26.719   8.749  13.355
40731W        W11331   7.692  28.225   0.860
40732W        W11332  21.037  11.949  12.582
40733W        W11333  41.112  24.578   1.419
40734W        W11334  26.090  24.281  13.572
40735W        W11335  31.494  11.630  14.850
40736W        W11336   6.325  16.004  12.538
40737W        W11337  28.237  16.142   3.311
40738W        W11338  17.603  41.293  12.594
40739W        W11339  41.598  12.923  12.559
40740W        W11340   7.552  26.941   1.356
40741W        W11341  37.127  44.883   2.228
40742W        W11342  44.677   9.375  11.828
40743W        W11343   5.830   4.329   4.653
40744W        W11344  43.465   2.752  14.643
40745W        W11345  14.613   9.252  11.485
40746W        W11346  43.821  28.901   0.754
40747W        W11347   3.322  29.661   4.202
40748W        W11348   7.068   0.424   2.883
40749W        W11349  31.688  33.658  11.694
40750W        W11350  30.452  42.552   0.311
40751W        W11351   7.142  36.828   2.285
40752W        W11352  22.482  16.315   4.673
40753W        W11353  20.370  44.318   2.577
40754W        W11354  36.779  28.880  10.753
40755W        W11355  14.099  31.223  10.852
40756W        W11356  32.393  30.517  10.762
40757W        W11357  36.131   3.816  13.537
40758W        W11358  15.792  20.665   4.138
40759W        W11359  14.634  26.028   2.498
40760W        W11360  41.887  19.752  11.686
40761W        W11361  16.265   1.433   4.945
40762W        W11362   0.059  25.459  10.557
40763W        W11363  15.712  17.765   2.099
40764W        W11364  41.841  36.343   4.798
40765W        W11365   9.640  40.876  13.508
40766W        W11366  22.827  40.432  14.033
40767W        W11367  32.986  26.280   3.796
40768W        W11368  30.605   0.277   2.486
40769W        W11369  34.137  30.902   2.860
40770W        W11370  29.997  16.390   0.174
40771W        W11371  39.345  40.405   2.414
40772W        W11372  16.803   0.371  13.420
40773W        W11373  36.585  27.153  11.534
40774W        W11374   2.286  30.174  10.700
40775W        W11375  29.285   7.195   0.566
40776W        W11376  12.631  16.272   3.818
40777W        W11377  42.116   1.709  12.426
40778W        W11378  35.096  17.159   1.759
40779W        W11379   3.702  24.521  13.490
40780W        W11380  13.639  13.697  12.825
40781W        W11381  40.828  21.739  11.493
40782W        W11382  39.589   2.827   2.304
40783W        W11383   4.054  39.460   0.633
40784W        W11384  27.562  38.773   0.394
40785W        W11385  11.045  35.469  13.446
40786W        W11386   0.667  31.362   0.298
40787W        W11387  21.141  12.548  14.880
40788W        W11388  35.524  21.269  13.106
40789W        W11389  32.376  27.856   2.327
40790W        W11390  22.995  12.174   2.290
40791W        W11391   6.188  24.101  13.419
40792W        W11392  11.725  42.072  14.486
40793W        W11393  26.496  26.922   2.386
40794W        W11394  41.055  21.047  10.695
40795W        W11395   0.909  40.864   4.279
40796W        W11396   8.834   7.574   3.153
40797W        W11397  35.061  18.138   4.541
40798W        W11398  31.191   5.821   0.554
40799W        W11399  42.802  18.667   2.647
40800W        W11400  35.367  14.612   2.178
40801W        W11401  20.074  32.696  11.955
40802W        W11402  41.880  35.553   1.719
40803W        W11403  16.790   3.659  12.113
40804W        W11404  35.769  27.468  14.534
40805W        W11405  43.254  32.921   2.811
40806W        W11406   7.429  18.045  13.305
40807W        W11407  26.673   4.752  13.369
40808W        W11408  23.427  23.081   0.754
40809W        W11409  16.203  26.152  12.936
40810W        W11410  36.583  38.503   2.332
40811W        W11411  29.501  34.896   1.413
40812W        W11412   8.510   7.284  13.467
40813W        W11413  42.285  37.527  10.703
40814W        W11414  22.013  18.874  13.675
40815W        W11415  21.471   6.639   4.311
40816W        W11416  11.309  15.103   2.422
40817W        W11417   5.287  27.002   0.655
40818W        W11418  31.068  30.494  13.025
40819W        W11419   7.765  12.586   4.676
40820W        W11420   3.736  32.492  14.810
40821W        W11421   7.680  39.207   3.163
40822W        W11422   5.726  24.161  10.786
40823W        W11423   6.377  43.352   3.282
40824W        W11424  16.049   9.436   0.361
40825W        W11425  23.612  22.592  11.601
40826W        W11426  23.757  30.362  12.103
40827W        W11427  21.350  22.082  12.004
40828W        W11428  29.574   6.857   2.242
40829W        W11429  21.623  39.860   2.729
40830W        W11430   5.346   6.690  13.306
40831W        W11431  42.189  41.388  14.869
40832W        W11432  35.823  16.388  10.829
40833W        W11433  21.613  33.480  13.133
40834W        W11434  10.711  34.655   1.433
40835W        W11435  26.701  29.454  10.994
40836W        W11436  30.094  24.518   2.127
40837W        W11437  20.320  14.087   4.173
40838W        W11438  18.782  25.714   4.438
40839W        W11439  17.417  23.646   9.905
40840W        W11440  40.047  30.641  11.614
40841W        W11441   2.927   9.467   2.098
40842W        W11442  10.369  37.520   3.914
40843W        W11443  25.275   7.073   4.124
40844W        W11444   0.779   3.988  13.819
40845W        W11445   3.959  32.851  13.820
40846W        W11446  37.629  13.147  11.171
40847W        W11447  10.714   6.700  10.879
40848W        W11448  32.725  38.028   0.408
40849W        W11449  24.766  10.756  13.951
40850W        W11450  10.538  12.207  13.900
40851W        W11451   6.827  15.262  13.973
40852W        W11452  23.973   8.976   5.515
40853W        W11453  10.244  44.339   1.228
40854W        W11454  22.975  25.740   3.619
40855W        W11455  23.058   4.497   0.670
40856W        W11456  31.986  17.793  11.615
40857W        W11457  12.219  17.236   2.352
40858W        W11458  42.264  38.049  13.112
40859W        W11459  24.764  25.603   4.086
40860W        W11460  27.911  27.961   1.179
40861W        W11461  10.233  38.006  12.525
40862W        W11462   1.459   3.310  13.990
40863W        W11463  14.814  38.313  12.490
40864W        W11464   3.622  17.310  12.834
40865W        W11465  16.059   0.591   4.155
40866W        W11466   3.329  33.004   2.317
40867W        W11467  26.215   8.308   1.834
40868W        W11468   9.398  35.549  10.930
40869W        W11469   1.918  18.825   2.165
40870W        W11470   4.358  13.206  13.844
40871W        W11471   0.967  19.739  11.304
40872W        W11472   3.550   1.956   4.193
40873W        W11473  11.328   7.407  11.947
40874W        W11474   8.535  35.463   1.148
40875W        W11475  38.306  23.240  10.685
40876W        W11476  27.676  37.616  14.087
40877W        W11477  15.588  30.920   1.957
40878W        W11478   0.941  25.963  10.748
40879W        W11479  43.840   0.511  10.664
40880W        W11480  17.159  24.230  13.312
40881W        W11481   0.302   7.428  10.618
40882W        W11482  29.931  13.792  14.744
40883W        W11483  40.986  14.563   0.300
40884W        W11484  28.010  14.071   4.936
40885W        W11485  19.553  40.485   2.966
40886W        W11486  16.381  30.577  11.423
40887W        W11487  13.409  42.524   3.114
40888W        W11488   8.064  25.133  12.572
40889W        W11489  42.835   4.474   0.430
40890W        W11490  26.223  22.706   2.243
40891W        W11491  43.984  24.690   0.908
40892W        W11492   6.053  40.073   0.953
40893W        W11493  34.482  22.560   4.519
40894W        W11494  37.831   5.270   1.407
40895W        W11495  18.554   8.618  14.415
40896W        W11496  16.210  21.307  12.794
40897W        W11497  10.873  44.599   3.309
40898W        W11498  35.702  28.672   3.192
40899W        W11499  19.233  32.893  12.583
40900W        W11500  11.778  17.508   2.123
40901W        W11501  44.637  39.332   2.773
40902W        W11502  42.195  11.190  13.808
40903W        W11503  30.381   8.275   0.669
40904W        W11504  31.666  21.729   4.130
40905W        W11505  24.943  14.732  14.408
40906W        W11506  44.240  31.481   1.382
40907W        W11507  34.058  20.511   0.525
40908W        W11508   2.821  32.487  14.813
40909W        W11509  21.070   6.352  14.830
40910W        W11510  38.084   7.788  11.294
40911W        W11511  30.640  19.766  13.476
40912W        W11512   3.290  21.529   2.315
40913W        W11513   2.931   8.894   0.398
40914W        W11514  19.741  32.594   2.761
40915W        W11515  40.888  42.262  14.150
40916W        W11516  25.009   2.334   0.662
40917W        W11517  34.402  27.671   0.297
40918W        W11518   4.247  31.510  13.470
40919W        W11519  16.870  19.570  14.976
40920W        W11520   4.946  41.079   0.602
40921W        W11521   0.463  40.097   3.745
40922W        W11522  19.128  20.129   0.360
40923W        W11523  40.428  19.512   0.446
40924W        W11524   9.790   8.461   2.377
40925W        W11525   3.820  39.541   4.194
40926W        W11526  28.794  16.613  11.065
40927W        W11527  34.061   7.103  11.683
40928W        W11528   3.760  26.522  11.125
40929W        W11529  16.275   3.241   1.412
40930W        W11530  14.442  27.257  11.208
40931W        W11531  17.385   8.325   2.285
40932W        W11532   2.052   6.331  11.535
40933W        W11533  30.153   7.958  14.348
40934W        W11534  44.567  17.615   1.609
40935W        W11535  41.216  30.557   1.368
40936W        W11536  40.425  34.570  10.712
40937W        W11537  33.302   5.332   3.984
40938W        W11538  24.512  34.535   3.957
40939W        W11539   3.519  16.319  11.431
40940W        W11540  28.012  38.771   4.119
40941W        W11541   0.937  36.905   2.316
40942W        W11542  27.964  44.261   3.473
40943W        W11543  44.926  16.401  12.439
40944W        W11544  38.373  23.238  11.564
40945W        W11545  32.987   2.900   4.041
40946W        W11546  31.071  30.630  14.347
40947W        W11547  39.731  17.657   0.860
40948W        W11548  11.906  18.614   0.290
40949W        W11549  34.577   6.425  11.445
40950W        W11550   5.279  28.515   4.503
40951W        W11551  42.954  29.926  10.997
40952W        W11552  24.043  11.556  10.562
40953W        W11553  31.164  35.328   2.736
40954W        W11554  31.421  26.580  13.425
40955W        W11555  19.680  14.594   1.792
40956W        W11556  24.084  34.362   1.662
40957W        W11557   6.202   3.291  14.783
40958W        W11558   6.368  24.747   0.312
40959W        W11559  30.446  19.105  14.223
40960W        W11560   9.589  14.805  12.141
40961W        W11561  42.976   1.792  12.860
40962W        W11562   3.990  19.468  13.391
40963W        W11563   6.694  31.173  12.685
40964W        W11564  24.601  37.389   2.245
40965W        W11565  23.266  38.093  12.095
40966W        W11566  37.894   0.527   0.298
40967W        W11567  24.955  40.388   2.726
40968W        W11568  36.062   9.993   0.783
40969W        W11569  28.073   0.073   3.140
40970W        W11570  23.152  43.518   2.708
40971W        W11571  41.780  31.858  12.951
40972W        W11572  30.322   0.552  11.570
40973W        W11573   6.476   6.722  12.882
40974W        W11574  38.543  18.933  10.149
40975W        W11575   8.244  18.759  12.476
40976W        W11576   7.982  10.171   2.223
40977W        W11577  13.770  21.693   1.505
40978W        W11578  14.360   8.795   2.116
40979W        W11579   8.784  16.574   4.373
40980W        W11580  29.874  40.561   3.508
40981W        W11581  21.586  12.719   1.299
40982W        W11582  10.821  39.781   3.299
40983W        W11583  38.995  39.844  13.847
40984W        W11584   2.161  22.216  14.943
40985W        W11585  19.222  20.879  13.894
40986W        W11586   5.375  20.964   0.939
40987W        W11587  11.887  37.908   0.908
40988W        W11588  35.343  39.958   1.243
40989W        W11589  19.003  26.146  11.933
40990W        W11590   5.767  27.653   2.680
40991W        W11591   3.458  17.376  14.498
40992W        W11592  31.059  26.804   4.517
40993W        W11593  42.610  31.245  11.942
40994W        W11594  40.015  29.062   3.334
40995W        W11595  17.351  31.087  11.119
40996W        W11596  27.026  34.743  12.979
40997W        W11597  19.211  12.740  13.630
40998W        W11598  25.565  28.384   0.951
40999W        W11599  37.418  12.822  10.831
41000W        W11600  15.230  40.565  13.890
41001W        W11601  28.796  27.183  11.694
41002W        W11602  38.469  27.959  12.283
41003W        W11603  33.879  32.577   0.330
41004W        W11604  43.304  12.841   3.783
41005W        W11605  39.243  24.555   3.180
41006W        W11606   2.102   1.095  13.793
41007W        W11607  35.556  33.345  13.874
41008W        W11608  27.209  40.627  12.829
41009W        W11609  26.374   7.437   9.900
41010W        W11610  11.422  23.663   2.886
41011W        W11611  44.819  40.930   3.526
41012W        W11612   5.628  25.700   2.770
41013W        W11613   4.676  27.634   5.248
41014W        W11614  38.779  12.328   2.294
41015W        W11615  17.331  29.116  11.628
41016W        W11616  14.089  44.727  12.555
41017W        W11617  15.722  38.056   1.399
41018W        W11618  16.524  26.231  12.058
41019W        W11619  40.109  39.084   1.214
41020W        W11620  44.317  23.647   1.269
41021W        W11621  26.270  30.048   2.510
41022W        W11622  33.104  39.418  10.404
41023W        W11623  19.949  23.051  12.303
41024W        W11624  43.990  22.133   2.315
41025W        W11625  34.440  32.608   3.337
41026W        W11626  24.733  39.628   2.928
41027W        W11627   2.946   9.538   3.347
41028W        W11628  38.221   7.352   4.602
41029W        W11629  11.090  40.363  10.735
41030W        W11630  25.171  32.440  10.516
41031W        W11631  17.619  18.765  13.039
41032W        W11632  27.085  21.380   0.223
41033W        W11633  23.297  33.670  14.000
41034W        W11634  44.372  43.822  13.927
41035W        W11635  15.843   7.423  10.378
41036W        W11636  18.126   9.608   3.646
41037W        W11637  27.643   9.753   1.331
41038W        W11638  11.149  43.357   4.176
41039W        W11639  14.305   5.322   2.159
41040W        W11640  15.698  12.224  14.081
41041W        W11641   3.409   6.263  13.533
41042W        W11642   3.318   3.289   0.228
41043W        W11643  19.867  25.766  11.868
41044W        W11644   8.876  27.153  11.706
41045W        W11645  42.742  11.929   2.621
41046W        W11646   8.733   7.377  12.849
41047W        W11647  38.146  44.197   2.252
41048W        W11648  26.030   8.324  11.987
41049W        W11649  21.116  19.757  13.023
41050W        W11650  13.247  19.947  14.042
41051W        W11651  18.296  16.516  14.260
41052W        W11652  41.006  21.853  13.420
41053W        W11653  29.713   7.765   4.002
41054W        W11654  29.930  37.653  10.359
41055W        W11655  24.383  22.493  10.916
41056W        W11656  28.198   3.251  10.758
41057W        W11657  11.150  22.159   3.621
41058W        W11658  23.007  22.100   2.759
41059W        W11659  28.695   8.553   4.591
41060W        W11660  24.085   5.290   1.336
41061W        W11661  10.230   3.606  12.157
41062W        W11662  20.608  11.381   4.121
41063W        W11663  41.736  14.805   0.733
41064W        W11664   1.467  11.754  14.269
41065W        W11665  34.480  20.905  13.403
41066W        W11666  29.547  14.266  12.559
41067W        W11667  38.356  32.110   2.256
41068W        W11668  21.292  41.935  11.658
41069W        W11669  11.816   8.733   3.155
41070W        W11670  24.114  33.831   3.800
41071W        W11671  25.049   4.098  11.121
41072W        W11672   4.217  26.678  10.920
41073W        W11673   3.931  20.272   3.958
41074W        W11674  34.111  42.418   3.152
41075W        W11675   5.012   8.374  14.500
41076W        W11676  20.825  22.612   1.892
41077W        W11677  44.929   6.088  13.302
41078W        W11678  18.468  20.716  14.362
41079W        W11679  43.439  43.708   1.393
41080W        W11680  14.755  11.238   4.586
41081W        W11681  10.081  39.293  13.890
41082W        W11682  26.976  22.597  11.948
41083W        W11683  10.448  19.803  13.529
41084W        W11684   0.686  27.870  14.407
41085W        W11685  43.821  13.459   3.906
41086W        W11686  31.971  31.008   1.739
41087W        W11687  19.566  41.590   1.850
41088W        W11688  25.713  39.905   0.806
41089W        W11689  42.664  19.788   1.726
41090W        W11690  32.440  26.882   0.307
41091W        W11691  23.767  18.249   4.211
41092W        W11692  29.028  29.115  10.186
41093W        W11693  15.149   2.658   1.671
41094W        W11694   1.771  17.403   4.615
41095W        W11695   3.328  40.515   0.278
41096W        W11696  14.766  13.279   3.302
41097W        W11697  33.862  24.682  14.538
41098W        W11698  14.036  38.067  10.692
41099W        W11699  11.979  32.496   1.353
41100W        W11700  42.347  15.786  11.171
41101W        W11701  14.079  36.908  11.079
41102W        W11702  42.749  14.981   3.243
41103W        W11703   2.804  36.511  12.607
41104W        W11704   2.700   6.125  13.039
41105W        W11705  40.405   0.989   1.970
41106W        W11706  21.287  43.313   3.032
41107W        W11707  17.308  31.938  11.161
41108W        W11708   6.735  26.053  14.312
41109W        W11709  10.709  21.240   4.956
41110W        W11710  42.028   1.456   4.534
41111W        W11711  41.304  28.047  14.510
41112W        W11712  42.678  23.680  12.364
41113W        W11713  40.227  13.603  13.200
41114W        W11714  21.979  27.100  12.402
41115W        W11715   1.996  37.339   0.352
41116W        W11716  42.173   7.732   0.865
41117W        W11717  39.875   0.179  11.474
41118W        W11718  23.535  11.835   0.214
41119W        W11719   2.807  23.457   0.711
41120W        W11720  31.738  20.425   1.774
41121W        W11721  37.393   7.720   1.322
41122W        W11722  25.800  11.259   0.011
41123W        W11723   0.643   2.351   0.933
41124W        W11724  13.841  16.759   2.149
41125W        W11725  34.459  11.291   1.876
41126W        W11726  39.550  30.391  13.140
41127W        W11727  18.668  37.095   3.333
41128W        W11728  10.766  26.416   4.593
41129W        W11729   2.519   2.918   0.912
41130W        W11730  10.832  33.919   0.686
41131W        W11731  18.750  25.962   1.298
41132W        W11732  36.092  31.726   0.911
41133W        W11733   1.375  12.642  14.230
41134W        W11734  35.027  28.910  14.813
41135W        W11735  29.067  40.304   3.287
41136W        W11736  22.248  23.279  14.043
41137W        W11737   1.461  28.156   0.172
41138W        W11738   0.379  43.186  10.026
41139W        W11739  37.229  25.554  12.912
41140W        W11740  12.389  16.997  12.919
41141W        W11741  25.999  40.808  14.048
41142W        W11742  35.997   6.626   3.288
41143W        W11743  27.455  27.213  11.679
41144W        W11744  21.050  11.664   4.085
41145W        W11745  22.138  31.951   2.489
41146W        W11746  31.851  18.557   0.248
41147W        W11747  36.869   6.961   2.371
41148W        W11748  27.668  32.881  10.420
41149W        W11749  11.665   5.795   3.682
41150W        W11750   3.273  36.885   2.793
41151W        W11751   7.843  11.222   0.946
41152W        W11752  18.542   3.435   3.290
41153W        W11753  32.477  30.222  12.981
41154W        W11754   5.088  20.302   2.333
41155W        W11755  34.016  44.430  14.474
41156W        W11756  22.471   8.019  11.896
41157W        W11757  14.610  31.883   0.412
41158W        W11758  23.863  37.550   5.037
41159W        W11759  23.760  17.286   0.202
41160W        W11760  43.206  29.963   2.638
41161W        W11761  40.641  10.803  13.109
41162W        W11762  44.362   6.055  10.089
41163W        W11763  42.823  39.849  12.917
41164W        W11764  14.769  10.954   4.143
41165W        W11765   2.219  11.613  11.646
41166W        W11766  21.021  42.765  10.758
41167W        W11767  11.876  26.725   0.452
41168W        W11768  37.040  43.206  10.628
41169W        W11769  33.966  33.366  12.229
41170W        W11770  28.622  28.436  12.834
41171W        W11771  22.210   4.916  12.866
41172W        W11772   0.418  21.755   4.658
41173W        W11773  28.956   6.734  11.629
41174W        W11774  13.549  44.249  13.934
41175W        W11775  42.431  16.003   2.297
41176W        W11776  11.274  25.664  13.786
41177W        W11777  24.969  26.594   2.768
41178W        W11778   4.707   3.790   1.011
41179W        W11779  30.574  28.848  11.025
41180W        W11780  31.385  32.999  12.521
41181W        W11781  13.311   2.770  14.340
41182W        W11782  21.609  40.540   4.853
41183W        W11783  32.907  21.227  13.279
41184W        W11784  15.308  29.109  12.591
41185W        W11785  20.578  10.909   0.373
41186W        W11786  14.243  31.620   3.115
41187W        W11787  25.546   4.321  11.145
41188W        W11788  21.129  37.109   2.701
41189W        W11789  16.228  27.983  12.606
41190W        W11790   7.821  42.790   2.457
41191W        W11791  17.673  31.490  12.458
41192W        W11792  28.547  37.404  10.708
41193W        W11793  24.019  29.771  14.587
41194W        W11794  23.724  40.927  11.893
41195W        W11795  12.161  26.610  13.310
41196W        W11796  31.796  44.534  14.384
41197W        W11797   3.962  12.167  14.415
41198W        W11798  20.666  44.552  14.508
41199W        W11799  42.975   9.873   3.437
41200W        W11800  14.168  24.261   1.516
41201W        W11801  15.584  22.188   1.170
41202W        W11802   6.263  43.056   0.591
41203W        W11803  10.579  30.414   4.748
41204W        W11804  44.107  25.216  13.734
41205W        W11805  22.179  12.363  12.021
41206W        W11806  11.214  23.823  11.036
41207W        W11807  38.514  17.867  13.894
41208W        W11808  13.120  30.424   4.596
41209W        W11809   3.236  44.757  10.792
41210W        W11810   4.507  27.476   4.105
41211W        W11811  31.035   5.054  14.864
41212W        W11812  44.468  14.625   0.283
41213W        W11813  17.152  43.775  13.856
41214W        W11814  13.200  42.748  14.438
41215W        W11815  15.758  40.755   3.663
41216W        W11816  37.468  13.872   2.720
41217W        W11817   5.935  26.165   4.003
41218W        W11818  33.496  44.264   2.937
41219W        W11819   8.470  36.560  12.012
41220W        W11820  23.936  43.857   3.389
41221W        W11821  20.598  14.892  14.849
41222W        W11822  28.664   2.462  13.895
41223W        W11823  14.712  23.646  10.511
41224W        W11824  15.805  32.167  10.699
41225W        W11825   1.413  25.492   0.579
41226W        W11826  16.831  24.654   4.629
41227W        W11827   5.825  21.597   3.026
41228W        W11828   9.706  19.707   2.286
41229W        W11829  33.630  25.568   2.950
41230W        W11830  42.410  26.678  13.499
41231W        W11831  44.953  32.123  14.798
41232W        W11832   7.142  39.369   4.500
41233W        W11833  17.341  24.262   3.783
41234W        W11834  25.141   5.560  12.175
41235W        W11835  19.283   8.570   2.303
41236W        W11836  23.058   2.555  13.807
41237W        W11837  35.375  10.100   1.958
41238W        W11838   2.801   1.903   4.665
41239W        W11839  44.064  19.510  11.921
41240W        W11840   4.005  27.586   0.162
41241W        W11841  38.340  17.207  12.928
41242W        W11842  10.926  12.738   4.010
41243W        W11843  42.868  32.657  12.591
41244W        W11844  26.951  10.293   1.808
41245W        W11845  23.629  22.124   5.011
41246W        W11846  34.017  25.800  13.867
41247W        W11847   0.208  33.931   3.203
41248W        W11848   6.234  21.450   4.616
41249W        W11849   8.802  16.779   0.467
41250W        W11850  20.214  31.165   3.601
41251W        W11851  12.540  15.943  14.448
41252W        W11852  41.886  39.051   1.931
41253W        W11853   0.768  21.285  13.331
41254W        W11854  40.751  11.555   0.377
41255W        W11855  30.419  39.001  11.546
41256W        W11856  24.526   5.849  11.559
41257W        W11857  15.537  11.337   0.414
41258W        W11858  33.500  20.233   2.223
41259W        W11859  38.059  33.134  10.937
41260W        W11860  34.980   6.130  11.137
41261W        W11861  17.174   5.471   4.113
41262W        W11862  19.411   6.890  13.509
41263W        W11863  22.312  37.876  11.826
41264W        W11864  33.222  34.477   3.746
41265W        W11865   7.709  10.607  11.803
41266W        W11866  34.355  29.965  11.535
41267W        W11867  33.986  11.250  11.524
41268W        W11868   8.198  32.647  11.993
41269W        W11869  30.703   4.735  14.292
41270W        W11870   3.434  36.176  10.403
41271W        W11871   1.809  44.466  11.485
41272W        W11872  12.180   9.985   1.963
41273W        W11873  42.885  35.885   0.469
41274W        W11874   2.169  17.754  10.652
41275W        W11875  41.573  33.138  13.406
41276W        W11876  14.536  35.257   5.011
41277W        W11877  11.684  40.338  13.884
41278W        W11878  15.164   5.080  14.832
41279W        W11879   4.273  39.519   3.792
41280W        W11880  33.207   2.425  11.505
41281W        W11881   3.941   9.837  13.453
41282W        W11882  27.327   2.976  14.061
41283W        W11883  41.829  10.267   0.221
41284W        W11884  22.231  24.050   0.125
41285W        W11885  23.456  23.980   4.610
41286W        W11886  33.340  24.848   0.622
41287W        W11887  20.166   8.908  11.868
41288W        W11888  14.799  38.070   1.397
41289W        W11889  31.675  31.892  11.824
41290W        W11890  39.266  15.251  12.994
41291W        W11891   8.737  25.863  13.319
41292W        W11892  30.565   8.457   2.194
41293W        W11893   3.750   4.474   3.117
41294W        W11894  19.589  39.046   1.776
41295W        W11895  41.904   4.172  14.004
41296W        W11896  16.332  40.678   4.567
41297W        W11897  36.531  40.481  13.941
41298W        W11898   6.329  38.508   3.777
41299W        W11899  12.498  13.876  10.081
41300W        W11900  32.170  13.823  13.120
41301W        W11901  25.406  19.773   0.096
41302W        W11902  10.311  23.515  10.816
41303W        W11903  29.510  44.308   0.839
41304W        W11904  31.957   2.884  10.687
41305W        W11905  13.104  37.858   0.420
41306W        W11906  27.670   3.279  10.597
41307W        W11907  25.897  13.919   4.052
41308W        W11908  24.600  14.656   3.820
41309W        W11909  23.713  11.828   0.823
41310W        W11910   6.417   8.890   4.114
41311W        W11911   5.861  12.600   3.751
41312W        W11912  16.510  22.582   0.893
41313W        W11913  11.327  32.130  13.142
41314W        W11914  22.745  22.671   4.292
41315W        W11915  27.974  43.266  14.342
41316W        W11916  14.284   8.615   3.334
41317W        W11917   5.286  22.574   0.381
41318W        W11918   0.374  39.258   1.412
41319W        W11919  41.870  29.031   3.153
41320W        W11920  36.483  14.563   4.594
41321W        W11921  33.491  44.257   1.345
41322W        W11922  11.190  18.841   3.230
41323W        W11923  25.000  29.062  11.526
41324W        W11924   5.787  35.808  13.010
41325W        W11925  18.999  43.723  12.907
41326W        W11926  28.414  12.768  12.555
41327W        W11927   5.744   7.389   4.349
41328W        W11928   1.930  30.597   3.115
41329W        W11929  26.037  38.565   1.859
41330W        W11930  34.396  35.942   4.555
41331W        W11931   8.011   1.171   0.840
41332W        W11932  36.076  31.378   3.754
41333W        W11933  37.499  25.580  11.953
41334W        W11934  27.961  12.732  14.806
41335W        W11935  22.495  27.546   0.057
41336W        W11936  29.740  38.334  13.381
41337W        W11937  33.861  20.406   2.908
41338W        W11938  43.718   6.096  10.721
41339W        W11939  42.553  27.191  11.070
41340W        W11940  13.574  33.151  12.640
41341W        W11941  37.511   3.915   3.165
41342W        W11942  30.516  22.647  11.494
41343W        W11943  23.327  14.112   4.892
41344W        W11944  14.777  20.265  11.605
41345W        W11945   1.430  36.805  11.967
41346W        W11946   2.280  38.591   0.794
41347W        W11947  32.576   8.604   1.684
41348W        W11948  43.986   5.531   1.341
41349W        W11949  22.988  18.050   3.789
41350W        W11950   0.020   1.369  12.786
41351W        W11951  15.146   6.289  11.998
41352W        W11952  43.849  20.102  10.732
41353W        W11953  13.608  26.020   3.095
41354W        W11954  18.581  18.017  12.513
41355W        W11955  43.357   4.529   2.349
41356W        W11956  17.997  23.222   4.374
41357W        W11957   3.212  22.651  12.454
41358W        W11958  15.119  41.482   4.597
41359W        W11959  35.190  42.938  12.608
41360W        W11960  33.384   0.683  12.440
41361W        W11961  19.080  20.087   4.630
41362W        W11962  41.317  14.019   4.930
41363W        W11963   1.977  18.364   2.717
41364W        W11964  38.589  36.731  10.136
41365W        W11965  17.891  38.498  14.227
41366W        W11966  35.567  25.048   1.979
41367W        W11967  44.621  31.206  10.413
41368W        W11968  24.502   3.534   0.116
41369W        W11969   9.483  24.018   0.924
41370W        W11970   4.344  21.943   0.960
41371W        W11971  20.286  30.431   4.784
41372W        W11972  30.739  12.749   1.702
41373W        W11973  34.135  18.189  14.843
41374W        W11974  38.817  17.277  13.068
41375W        W11975  36.574  24.876   2.402
41376W        W11976  11.292  41.431  14.779
41377W        W11977  42.991  36.485  13.431
41378W        W11978   4.700  21.417   0.467
41379W        W11979   2.025  31.679   1.939
41380W        W11980  16.576  24.178  13.948
41381W        W11981  41.060  26.601  10.169
41382W        W11982   4.302  43.584  11.017
41383W        W11983   0.048  37.860   4.996
41384W        W11984  40.401   5.490  13.374
41385W        W11985   3.381   7.654   0.492
41386W        W11986   2.727  10.540   1.674
41387W        W11987  19.788  26.434   1.690
41388W        W11988  43.805  18.479   0.203
41389W        W11989  16.630  39.155   1.636
41390W        W11990  37.900   6.232   4.182
41391W        W11991  30.564  10.282  10.650
41392W        W11992  33.784  39.883   1.364
41393W        W11993  21.613   9.709  12.334
41394W        W11994   0.927  11.271  13.195
41395W        W11995  42.474  35.360  11.364
41396W        W11996  29.900  37.554  12.110
41397W        W11997   7.360  36.183  12.923
41398W        W11998  17.571  34.376   1.956
41399W        W11999  15.753  22.177   4.204
41400W        W12000  11.224   3.719   3.576
41401W        W12001  40.311  25.663  11.921
41402W        W12002  31.450  36.334   3.891
41403W        W12003  40.501  27.712  14.211
41404W        W12004  16.762  10.341  14.826
41405W        W12005  43.463  29.495   4.458
41406W        W12006  31.417   5.870  13.036
41407W        W12007  18.539  24.443  11.702
41408W        W12008   8.406  42.763   3.877
41409W        W12009  23.070  28.805   4.748
41410W        W12010  42.251  22.029   2.483
41411W        W12011  19.355   1.943  11.797
41412W        W12012  25.070  33.380   3.567
41413W        W12013  38.254  13.608  13.393
41414W        W12014  15.973  44.849   3.757
41415W        W12015  16.808   1.902   2.376
41416W        W12016  13.731  26.151  12.701
41417W        W12017  33.930  31.451   0.278
41418W        W12018  19.007  18.166   3.204
41419W        W12019  29.219  22.090   4.553
41420W        W12020  17.170   3.932  11.871
41421W        W12021  32.016  17.291   0.516
41422W        W12022   7.187  35.312   2.230
41423W        W12023   8.847  44.497  14.589
41424W        W12024  21.669  23.824   2.826
41425W        W12025  15.235  10.193  10.786
41426W        W12026  11.853  33.688  10.871
41427W        W12027  37.236  26.508   4.608
41428W        W12028  19.087  36.030  13.349
41429W        W12029  13.567  13.688  11.521
41430W        W12030  40.334  32.003  14.443
41431W        W12031  21.005  22.263  10.624
41432W        W12032  10.615   9.256  13.543
41433W        W12033   7.859  34.633  11.615
41434W        W12034  26.980  40.481   2.814
41435W        W12035  32.031  10.267   3.501
41436W        W12036  14.391  40.522   1.883
41437W        W12037  20.134  41.933   1.461
41438W        W12038  35.337  42.504  13.003
41439W        W12039  36.940  38.918  14.925
41440W        W12040   2.906  29.383  11.393
41441W        W12041  42.944  15.715  12.981
41442W        W12042  19.993  11.354  11.980
41443W        W12043  19.587  17.881   4.204
41444W        W12044   3.175  26.050   4.548
41445W        W12045  20.010  36.459   4.190
41446W        W12046  41.370   3.835   3.705
41447W        W12047  14.401  20.865   1.678
41448W        W12048  40.510   8.331  11.679
41449W        W12049  21.015   3.986   3.443
41450W        W12050  44.266  24.359  13.506
41451W        W12051  38.776  21.563   0.794
41452W        W12052  21.053  28.395  12.214
41453W        W12053  27.895  21.195   2.387
41454W        W12054  35.196  39.961  11.215
41455W        W12055  21.138  13.212  12.641
41456W        W12056  10.681  14.449   4.824
41457W        W12057   3.756  35.930  10.752
41458W        W12058  14.412  27.783  12.379
41459W        W12059   4.493  12.564   1.194
41460W        W12060  39.540   9.177  14.921
41461W        W12061   9.628  12.773  11.471
41462W        W12062  15.527   4.715  12.040
41463W        W12063  23.470   5.673  14.364
41464W        W12064   3.416  20.972  13.421
41465W        W12065   1.028  31.359  14.525
41466W        W12066   5.909   5.796   3.545
41467W        W12067   3.363   7.311   4.911
41468W        W12068  32.511  11.665  11.985
41469W        W12069  36.002  11.563  11.219
41470W        W12070  37.375  17.972  14.409
41471W        W12071  27.423  41.583  12.169
41472W        W12072   0.762  27.627   3.713
41473W        W12073  39.074  32.589   5.047
41474W        W12074  21.782  43.997   2.101
41475W        W12075  31.548  21.676   1.313
41476W        W12076  12.853  30.499  12.097
41477W        W12077  44.913   3.223   4.172
41478W        W12078  26.680   7.214   3.231
41479W        W12079  13.357   7.920  12.697
41480W        W12080  41.591  34.710   3.292
41481W        W12081  14.378  11.974  10.569
41482W        W12082  28.029   2.754  14.849
41483W        W12083  24.390  13.286  13.430
41484W        W12084  34.046  26.890  11.821
41485W        W12085  25.446  29.553   1.640
41486W        W12086  21.749  28.138   4.134
41487W        W12087   4.667  40.140   3.706
41488W        W12088   1.789  33.454  11.718
41489W        W12089  17.143  22.391   3.399
41490W        W12090  17.368  26.404   0.049
41491W        W12091  15.173  21.010   3.408
41492W        W12092  15.061  43.322  13.006
41493W        W12093  18.312   4.045   3.586
41494W        W12094  18.511   6.576   2.187
41495W        W12095  34.667  24.530  12.873
41496W        W12096  33.190  11.542   3.600
41497W        W12097   4.946  18.182   4.152
41498W        W12098  40.802   5.867  13.942
41499W        W12099  28.032  31.085  10.709
41500W        W12100  42.528  31.823   4.126
41501W        W12101   7.191  20.334  11.599
41502W        W12102  40.883   6.352  13.782
41503W        W12103  12.574  34.408   0.374
41504W        W12104  11.252  25.143   2.886
41505W        W12105  37.632   1.881  12.584
41506W        W12106  39.105  10.788  11.371
41507W        W12107  41.372  30.328  13.479
41508W        W12108  11.927   7.467  12.517
41509W        W12109   9.954  29.867   1.375
41510W        W12110   4.234  14.253  14.754
41511W        W12111  16.817  12.093  12.449
41512W        W12112  28.154  20.151  12.483
41513W        W12113  24.687  28.679   3.600
41514W        W12114  36.849   6.754  10.504
41515W        W12115  11.584  30.284   0.764
41516W        W12116   9.678  44.766  13.483
41517W        W12117  17.204   7.581  12.956
41518W        W12118  19.479  26.456  13.629
41519W        W12119  35.171  17.616   0.205
41520W        W12120  11.844   7.183  11.585
41521W        W12121  29.263  43.688  10.493
41522W        W12122  20.417  35.866   3.605
41523W        W12123  40.379   4.498   0.355
41524W        W12124  14.285  15.885  14.838
41525W        W12125  22.926  18.198   0.285
41526W        W12126  40.449  10.897   1.130
41527W        W12127   1.289  37.865   1.365
41528W        W12128  17.279  22.421  11.857
41529W        W12129   1.800  43.479  13.023
41530W        W12130   2.307  38.336  10.642
41531W        W12131  32.398  11.131  11.955
41532W        W12132  20.645   3.961   3.034
41533W        W12133   0.473  15.270   4.232
41534W        W12134  27.207  26.178  11.610
41535W        W12135  30.779  22.048   1.724
41536W        W12136  36.837  24.501  12.576
41537W        W12137  22.766   8.313  11.098
41538W        W12138  10.263   5.818  10.203
41539W        W12139   4.052  18.290   3.084
41540W        W12140  26.578   2.350   4.122
41541W        W12141  19.735  44.508  14.911
41542W        W12142  33.141  27.538   1.763
41543W        W12143  16.846  31.146   3.330
41544W        W12144  31.966   8.298  14.443
41545W        W12145  33.034  20.721  13.426
41546W        W12146  44.908  14.837  13.809
41547W        W12147  27.441  12.699  11.589
41548W        W12148  27.106  10.576   0.528
41549W        W12149  25.531   0.519   0.360
41550W        W12150   1.249  25.076   3.583
41551W        W12151  30.544  21.994  12.124
41552W        W12152  36.450   2.999  14.977
41553W        W12153  28.178   9.422  12.368
41554W        W12154   6.884  43.476  10.535
41555W        W12155   1.883  38.398  12.720
41556W        W12156   8.737  27.987  12.124
41557W        W12157  27.494  40.234  12.650
41558W        W12158   4.906  34.709   9.657
41559W        W12159   3.902  21.222  10.225
41560W        W12160  41.219  14.320   1.470
41561W        W12161  11.274  24.731  13.788
41562W        W12162  14.191   5.441   1.643
41563W        W12163  37.064  25.653   0.753
41564W        W12164  29.742  22.772  12.049
41565W        W12165  34.029  20.764  11.618
41566W        W12166   1.113  42.543  13.030
41567W        W12167   4.946   8.770  11.796
41568W        W12168  32.127  19.942  10.279
41569W        W12169  34.591   0.110  13.349
41570W        W12170  44.399  16.897  10.295
41571W        W12171   8.334  21.521  13.841
41572W        W12172  37.359  27.930   4.095
41573W        W12173   7.373  22.275   0.802
41574W        W12174   6.199  21.537  14.580
41575W        W12175   3.278  10.462   0.812
41576W        W12176  35.789  28.611   2.659
41577W        W12177  13.577   9.819  14.690
41578W        W12178  17.764  10.388  13.371
41579W        W12179  25.856  21.152  11.118
41580W        W12180  22.001  15.293  14.288
41581W        W12181  36.920  21.752  12.408
41582W        W12182  13.679  33.887  14.272
41583W        W12183   8.674  33.401   2.166
41584W        W12184   4.327  12.105  14.784
41585W        W12185  15.882   8.122   4.885
41586W        W12186  36.601  25.742  12.115
41587W        W12187  21.638  30.613  11.686
41588W        W12188  40.390  13.653   3.715
41589W        W12189  19.626  30.507   3.647
41590W        W12190  23.254  18.420   1.172
41591W        W12191  36.323  19.188  14.369
41592W        W12192  31.576  20.312  14.393
41593W        W12193  43.062  10.285   4.107
41594W        W12194  34.837  22.694  14.208
41595W        W12195  26.182  22.796  13.537
41596W        W12196  35.633   2.533  13.977
41597W        W12197  16.378  44.942   0.544
41598W        W12198  35.959  29.588   1.723
41599W        W12199  29.975  32.344  10.821
41600W        W12200  24.526  21.080   1.784
41601W        W12201  11.644   8.087   0.783
41602W        W12202  12.821   5.949  13.323
41603W        W12203  11.389  29.500  12.475
41604W        W12204  42.607  35.427  14.433
41605W        W12205  39.983  32.158  14.783
41606W        W12206  15.712  21.715   1.415
41607W        W12207  20.747  25.515  14.421
41608W        W12208  23.027  12.319  11.594
41609W        W12209  22.731  16.181   3.757
41610W        W12210  18.468  10.485   0.536
41611W        W12211  38.445  37.553  11.418
41612W        W12212   8.453   0.720  12.373
41613W        W12213  30.546   2.260   1.238
41614W        W12214  18.137  30.676   3.715
41615W        W12215  15.174  27.976   1.875
41616W        W12216  15.095  35.612  10.708
41617W        W12217  30.337  39.382   2.689
41618W        W12218   5.876  19.308  13.408
41619W        W12219  23.845  14.114  11.644
41620W        W12220  10.331  10.319  10.874
41621W        W12221  35.886   6.633   0.357
41622W        W12222   0.675  24.098  12.998
41623W        W12223   7.937  20.265  11.947
41624W        W12224  38.030  34.440  12.024
41625W        W12225   5.366  42.453  11.059
41626W        W12226  16.124  23.182   4.444
41627W        W12227  39.430  16.611  12.836
41628W        W12228  38.181  21.258   1.926
41629W        W12229  34.395   3.315  12.420
41630W        W12230  16.597  15.704  14.468
41631W        W12231  17.187  19.297   1.884
41632W        W12232  27.538   1.527   4.617
41633W        W12233  43.888  23.688   2.756
41634W        W12234  35.625  16.185   4.380
41635W        W12235  16.097   4.488   2.721
41636W        W12236  27.473  42.920  12.568
41637W        W12237  32.430  21.027  12.181
41638W        W12238  41.349  12.727  11.410
41639W        W12239  24.642  19.222  13.047
41640W        W12240   1.457  38.928  10.802
41641W        W12241  41.190  14.868   4.583
41642W        W12242  42.796  24.578  10.785
41643W        W12243  14.070  22.102  11.561
41644W        W12244  33.881  11.071  13.637
41645W        W12245  10.546  33.737   5.013
41646W        W12246  29.035  23.326  14.813
41647W        W12247  42.882  18.448  13.486
41648W        W12248  13.220  40.732  12.087
41649W        W12249  44.463  26.973   1.753
41650W        W12250   5.371  41.829   1.945
41651W        W12251   0.414  34.613  14.342
41652W        W12252  35.220   1.920  10.170
41653W        W12253  30.156  34.590   2.435
41654W        W12254  19.267   6.966  13.028
41655W        W12255  29.641  22.253  13.874
41656W        W12256  27.461  26.549  14.923
41657W        W12257  34.615  39.349  12.582
41658W        W12258  14.736  27.786  12.970
41659W        W12259  25.070  10.686   2.988
41660W        W12260  11.723  15.312  14.990
41661W        W12261   1.218  23.156   3.204
41662W        W12262  31.154  34.784  11.155
41663W        W12263  21.714  39.061   3.196
41664W        W12264  35.000  11.569   4.981
41665W        W12265  36.213  43.961  11.570
41666W        W12266  13.117  39.071   1.258
41667W        W12267   4.787  44.492   0.975
41668W        W12268   6.219  21.064   5.026
41669W        W12269  40.927  33.946   1.649
41670W        W12270  12.978  41.356   2.333
41671W        W12271  28.014  33.891  14.893
41672W        W12272  26.559  14.536  11.180
41673W        W12273  17.215  18.793   5.151
41674W        W12274  27.208  26.404  13.409
41675W        W12275  28.049  28.718  10.600
41676W        W12276   6.581  17.150  14.960
41677W        W12277   3.715  44.430  13.938
41678W        W12278  40.747  10.086  14.206
41679W        W12279   2.771   1.774   3.746
41680W        W12280   6.207  13.244  13.184
41681W        W12281  27.980  36.072  13.560
41682W        W12282   6.759  28.904   2.320
41683W        W12283  33.582  43.210  13.256
41684W        W12284  30.419  34.052  12.027
41685W        W12285  38.202  23.073   4.195
41686W        W12286   6.355  12.780  13.019
41687W        W12287   4.771  43.375  13.977
41688W        W12288  20.134  21.711  12.496
41689W        W12289  34.322  43.832  13.706
41690W        W12290  41.257   7.291   3.564
41691W        W12291  29.030  19.660   0.876
41692W        W12292  29.131  30.111   2.211
41693W        W12293  27.211  28.086   3.163
41694W        W12294  15.400  29.129   1.024
41695W        W12295  22.173  19.628  11.074
41696W        W12296  38.078   0.866   4.058
41697W        W12297  44.415   5.162   0.439
41698W        W12298  21.797  19.757  11.423
41699W        W12299  38.724  22.297   1.445
41700W        W12300  21.577  17.604  14.126
41701W        W12301  25.698  33.925  10.769
41702W        W12302  11.412  43.804  12.599
41703W        W12303   5.310  34.585  12.544
41704W        W12304  41.344  36.332   3.290
41705W        W12305  32.469  32.309  11.980
41706W        W12306  26.183  17.167   4.108
41707W        W12307  13.357  37.637   0.012
41708W        W12308  21.060  42.843   1.802
41709W        W12309   8.211  19.280   2.819
41710W        W12310  17.596  44.451   1.292
41711W        W12311  12.182  34.032   3.800
41712W        W12312  29.526   5.862   2.569
41713W        W12313  40.430   4.927  12.695
41714W        W12314  10.500  37.905  14.844
41715W        W12315  13.891  38.425  12.381
41716W        W12316  21.091  29.187  13.379
41717W        W12317  41.035  29.453  13.928
41718W        W12318  13.671  18.828   4.482
41719W        W12319  34.641  18.143  11.993
41720W        W12320  36.537  41.747  11.182
41721W        W12321   4.205  12.723  11.805
41722W        W12322   2.726  35.914  14.638
41723W        W12323  33.667   2.965  11.927
41724W        W12324  21.766   1.883  13.015
41725W        W12325   3.477  16.048   2.702
41726W        W12326  43.468  39.362   1.976
41727W        W12327  30.600  43.890  13.120
41728W        W12328  15.644   2.437   1.704
41729W        W12329  36.593   7.228  10.658
41730W        W12330  13.724  13.237   2.683
41731W        W12331  29.522  20.346  14.958
41732W        W12332  28.860   4.426  10.942
41733W        W12333  14.667  33.971   1.316
41734W        W12334  23.505  31.590  12.470
41735W        W12335   9.093   9.376   1.466
41736W        W12336   3.872  15.635  11.568
41737W        W12337  11.186  19.035   4.645
41738W        W12338   9.833   5.543   1.476
41739W        W12339  41.824  28.738  12.540
41740W        W12340   6.177  40.068   3.761
41741W        W12341  14.566  23.012  11.629
41742W        W12342  24.630   9.577   3.259
41743W        W12343  44.218   7.306  13.465
41744W        W12344  16.341  22.157  12.038
41745W        W12345   1.908  26.683   0.605
41746W        W12346  14.245   7.810  12.977
41747W        W12347  32.880  36.314   3.900
41748W        W12348  11.669  27.208   1.382
41749W        W12349  41.936  29.512   4.151
41750W        W12350  21.258  31.552   1.715
41751W        W12351   6.353  42.089   0.890
41752W        W12352  14.962   7.745  12.012
41753W        W12353  18.163  14.798   3.290
41754W        W12354  44.496  22.995   3.043
41755W        W12355  27.888  29.627  14.834
41756W        W12356  30.573   5.938   2.195
41757W        W12357  19.816  35.651  12.492
41758W        W12358  18.664  28.006   3.035
41759W        W12359  32.116  34.566   4.809
41760W        W12360  26.146  40.439  13.119
41761W        W12361  25.603  25.984  11.067
41762W        W12362   4.467  23.521   3.195
41763W        W12363  19.745  42.932  10.407
41764W        W12364  32.819   3.365  10.653
41765W        W12365  12.109  24.088   1.019
41766W        W12366  19.113  18.821  14.284
41767W        W12367  11.600  19.507   1.987
41768W        W12368  39.545   7.689   3.985
41769W        W12369  28.915  15.285   0.919
41770W        W12370  19.194  10.942   3.337
41771W        W12371  17.781   7.319  11.912
41772W        W12372  35.409  40.734  12.277
41773W        W12373   3.728  17.797  13.646
41774W        W12374  42.728  39.904   3.319
41775W        W12375  36.850  38.132  14.258
41776W        W12376  34.070  36.172   0.484
41777W        W12377  18.626   4.393  11.856
41778W        W12378  43.619  44.366   3.672
41779W        W12379  35.222  40.927   0.279
41780W        W12380   6.399   2.079  11.121
41781W        W12381  27.640  17.223   1.950
41782W        W12382   2.878   2.247   1.692
41783W        W12383  31.998   5.618  12.986
41784W        W12384  30.971   7.878  11.641
41785W        W12385  26.382  34.735   4.910
41786W        W12386  40.277  12.115  14.493
41787W        W12387  17.986   6.639   0.797
41788W        W12388  36.991  16.633  14.774
41789W        W12389   4.843  10.420  14.786
41790W        W12390   7.932  32.441   1.639
41791W        W12391   4.917   2.676   0.916
41792W        W12392  43.309  44.937  11.965
41793W        W12393  43.900  43.000   1.237
41794W        W12394  27.221   8.350   2.400
41795W        W12395  11.222  25.129   3.477
41796W        W12396  26.121   4.976  10.816
41797W        W12397  32.618  42.489   3.330
41798W        W12398  18.228  20.614   0.747
41799W        W12399  31.970  22.110  13.448
41800W        W12400   3.912  17.547  14.740
41801W        W12401  36.304   5.309   2.203
41802W        W12402  36.924  34.515   0.967
41803W        W12403  29.596  37.958   0.339
41804W        W12404  40.631  37.032   3.670
41805W        W12405  29.158  43.040   2.265
41806W        W12406  35.504   7.768   4.120
41807W        W12407   3.197  18.702   2.630
41808W        W12408  25.910  18.330   2.813
41809W        W12409   0.706  26.511  12.490
41810W        W12410  44.512  38.247   1.008
41811W        W12411   8.165  18.052   1.396
41812W        W12412  34.314  10.364  10.590
41813W        W12413  27.182  42.909   2.247
41814W        W12414  13.718  35.689   0.825
41815W        W12415  18.262  36.551   1.220
41816W        W12416  18.731  24.587   3.331
41817W        W12417  34.983  33.433  14.847
41818W        W12418  14.284  22.574  11.657
41819W        W12419  12.176  16.805   3.260
41820W        W12420  26.800  35.116  13.870
41821W        W12421  28.603  20.117  10.439
41822W        W12422   5.813  40.463  13.934
41823W        W12423  44.880  40.760  12.647
41824W        W12424   7.108  38.458   0.290
41825W        W12425  33.378  33.359   1.892
41826W        W12426  32.219  23.007  10.499
41827W        W12427  13.035   8.904   0.808
41828W        W12428  41.325  30.442   2.886
41829W        W12429   7.490  10.413  12.585
41830W        W12430  15.083  22.030  14.366
41831W        W12431  42.352  24.109  12.119
41832W        W12432  38.517   7.408   4.177
41833W        W12433   0.364  26.675  10.511
41834W        W12434   4.101  41.956   0.275
41835W        W12435   3.870  30.441   2.459
41836W        W12436   1.994  28.459   2.357
41837W        W12437  23.175  29.603  13.104
41838W        W12438   0.994  33.919  12.316
41839W        W12439  12.409  30.101  10.998
41840W        W12440  11.443   7.050  11.170
41841W        W12441  44.474  29.132   4.089
41842W        W12442  38.455  24.389  13.891
41843W        W12443  44.940  15.274   1.807
41844W        W12444   7.157   3.947  12.527
41845W        W12445  20.154  37.821  12.925
41846W        W12446   4.964  28.267   4.093
41847W        W12447  33.606  15.138   3.109
41848W        W12448  24.447  18.254  14.323
41849W        W12449  29.809  44.449  13.577
41850W        W12450  38.912  20.574  10.881
41851W        W12451  14.976  23.291   3.179
41852W        W12452  28.572  30.040   0.398
41853W        W12453  28.508  22.107   0.204
41854W        W12454  40.834  29.496  13.452
41855W        W12455  26.523  12.217  10.672
41856W        W12456  19.673  38.103  13.322
41857W        W12457  17.487  28.969   1.607
41858W        W12458  29.130  19.524  14.839
41859W        W12459  29.593  32.651  13.088
41860W        W12460  22.934  24.590  14.502
41861W        W12461  30.366  42.985   5.064
41862W        W12462   2.634  27.364  11.910
41863W        W12463  42.017  42.505   3.512
41864W        W12464   8.143  24.732  12.893
41865W        W12465  32.996  18.418  11.036
41866W        W12466  42.958  37.086  13.591
41867W        W12467  30.717  34.264   1.343
41868W        W12468  44.216   9.353   2.870
41869W        W12469  22.586  39.474  10.973
41870W        W12470  29.985   5.364  10.845
41871W        W12471  18.324   3.249   2.864
41872W        W12472  33.681   2.420  11.701
41873W        W12473   7.792  40.441   0.277
41874W        W12474  32.956  41.006   1.775
41875W        W12475  20.161  24.537  13.361
41876W        W12476  36.531  34.573   1.997
41877W        W12477  40.555   6.277  14.210
41878W        W12478   5.835  11.282   4.016
41879W        W12479  23.009   6.263   3.910
41880W        W12480  26.584   6.249   5.028
41881W        W12481  42.785  41.902  11.525
41882W        W12482  37.138  33.899  10.548
41883W        W12483  30.049  41.436   3.244
41884W        W12484  21.629   5.894   0.946
41885W        W12485   8.312   2.982   2.200
41886W        W12486  37.430   3.465   2.251
41887W        W12487   0.791  41.342   4.100
41888W        W12488  31.357  21.957   3.773
41889W        W12489   4.771  30.675  12.859
41890W        W12490   3.384  15.710  10.608
41891W        W12491  25.608   6.421   0.925
41892W        W12492  28.156  33.417   2.876
41893W        W12493  44.923  25.232  12.618
41894W        W12494  26.262  33.301  14.062
41895W        W12495  41.806  13.616   0.902
41896W        W12496  41.613  30.925  12.039
41897W        W12497  24.227  31.419  11.225
41898W        W12498  20.279  13.865  11.625
41899W        W12499   5.559  37.833   1.684
41900W        W12500  42.375  43.985  10.949
41901W        W12501  13.895  10.189  10.443
41902W        W12502  24.893   9.728  11.029
41903W        W12503  38.845   3.713   1.492
41904W        W12504  15.205  21.294   3.874
41905W        W12505   5.326  39.442   1.394
41906W        W12506  44.348  21.220  13.591
41907W        W12507   2.871  36.630  13.097
41908W        W12508  23.805  28.077  13.455
41909W        W12509  24.946  22.561  13.848
41910W        W12510  31.334  26.916   2.358
41911W        W12511   7.453  40.952  14.278
41912W        W12512  23.679  39.922  13.926
41913W        W12513   6.335  20.365  11.717
41914W        W12514  23.877  35.502   1.681
41915W        W12515  12.398  10.247  13.104
41916W        W12516   9.632   0.488  14.392
41917W        W12517   0.909  14.346  10.995
41918W        W12518  28.736  13.624   1.234
41919W        W12519  23.999   8.258   4.054
41920W        W12520  25.150  17.211  10.400
41921W        W12521  21.225  11.928   3.109
41922W        W12522  23.659  35.999  14.667
41923W        W12523  16.114   5.277  13.558
41924W        W12524   5.618  34.335  12.897
41925W        W12525   1.396  37.519  10.962
41926W        W12526   8.375  31.530   4.067
41927W        W12527   8.324   2.181   4.500
41928W        W12528   7.414   1.020   1.442
41929W        W12529   9.194  32.417   2.871
41930W        W12530  42.968   6.717  12.853
41931W        W12531  37.619   5.737   4.677
41932W        W12532  10.093  10.590  14.461
41933W        W12533  11.619  36.013  14.867
41934W        W12534  20.710  10.931   2.844
41935W        W12535   7.114  19.497   2.178
41936W        W12536   4.445  34.127   0.357
41937W        W12537   7.652  26.050   0.932
41938W        W12538   4.696  17.544   4.180
41939W        W12539  43.987   8.077   2.307
41940W        W12540  42.768  43.448  13.029
41941W        W12541  40.307  23.614  13.438
41942W        W12542   2.248  39.823  10.796
41943W        W12543  33.346   4.688   1.856
41944W        W12544   8.054   8.887   2.187
41945W        W12545   7.317  17.565  13.092
41946W        W12546   4.055  26.693   1.725
41947W        W12547  19.500  27.944  13.804
41948W        W12548  18.813   8.687   4.246
41949W        W12549   6.271   8.965  14.519
41950W        W12550  13.626  41.716   1.774
41951W        W12551   5.071  12.078  12.567
41952W        W12552   6.679  31.990   1.702
41953W        W12553   9.775  23.020   0.848
41954W        W12554  10.850  24.997  14.400
41955W        W12555  19.730   6.774  13.931
41956W        W12556   1.948   0.362  14.311
41957W        W12557   7.998  44.265  11.557
41958W        W12558  28.362  14.623  12.563
41959W        W12559  27.017  37.000   3.242
41960W        W12560   9.925  19.753   0.499
41961W        W12561  14.642  24.060  13.907
41962W        W12562  36.753  41.850   2.722
41963W        W12563  30.678  42.388   1.827
41964W        W12564  44.973  39.270  11.005
41965W        W12565  24.941  25.445   0.883
41966W        W12566  39.465  16.828   0.789
41967W        W12567  28.243  18.096  14.696
41968W        W12568  13.928  37.919  12.006
41969W        W12569  40.581  20.267  14.596
41970W        W12570  23.483  11.074  11.123
41971W        W12571  42.906  28.042   2.914
41972W        W12572  36.406  10.596  13.458
41973W        W12573  14.359  26.234   0.439
41974W        W12574  32.677  39.991  12.012
41975W        W12575  10.161  36.869   4.156
41976W        W12576   7.369  13.171   3.709
41977W        W12577   6.474  34.349   3.127
41978W        W12578  32.923  19.080  11.627
41979W        W12579  23.641  31.879  14.895
41980W        W12580  44.843  11.851   2.718
41981W        W12581  28.663  31.403   1.773
41982W        W12582  16.206   5.340  10.582
41983W        W12583  18.660  13.947  13.541
41984W        W12584  12.206   3.259  10.375
41985W        W12585  38.117  26.954   1.466
41986W        W12586  19.608  36.541  14.843
41987W        W12587  37.846  37.816   2.388
41988W        W12588  13.896  44.231   2.398
41989W        W12589  33.517   4.808  11.488
41990W        W12590   6.241   0.676   4.227
41991W        W12591  35.564  28.610  13.900
41992W        W12592  33.007  34.983  12.965
41993W        W12593  39.879   2.142  14.378
41994W        W12594  12.832  16.371   0.750
41995W        W12595   5.000  19.324   1.470
41996W        W12596  13.233   5.770   1.471
41997W        W12597  18.925  22.666   3.630
41998W        W12598   3.353  41.586   4.376
41999W        W12599   3.490  15.259  13.384
42000W        W12600  32.461   7.834  10.697
42001W        W12601  16.796  31.548   2.810
42002W        W12602  10.812  44.067   1.807
42003W        W12603  34.969   1.437  10.588
42004W        W12604  10.633  11.729  14.514
42005W        W12605  44.771  26.966  11.561
42006W        W12606   1.835  19.507  11.671
42007W        W12607  20.736  20.641   1.737
42008W        W12608  43.951  11.732  11.687
42009W        W12609  31.454  35.025  11.981
42010W        W12610  44.701  39.970   3.538
42011W        W12611  16.704  43.367   2.862
42012W        W12612  15.028  30.072  14.834
42013W        W12613  13.219   7.686  13.145
42014W        W12614  11.232  31.165   0.081
42015W        W12615  43.321  33.444  12.659
42016W        W12616  18.352   6.344   3.719
42017W        W12617   9.439  31.619   2.248
42018W        W12618  43.728  23.134   2.621
42019W        W12619  38.643  31.185  13.593
42020W        W12620   7.518  17.974   0.325
42021W        W12621  16.155  38.589  11.600
42022W        W12622  42.039  16.111   0.718
42023W        W12623  23.719  11.126  12.877
42024W        W12624  19.282  42.703  10.481
42025W        W12625   0.922   5.424  14.344
42026W        W12626  34.433   9.609   1.411
42027W        W12627  42.890   8.917   1.398
42028W        W12628  27.506  39.316  11.997
42029W        W12629   4.360  16.694  10.394
42030W        W12630  27.718  33.274  11.431
42031W        W12631  14.103  26.547   3.998
42032W        W12632  32.831   4.390  14.995
42033W        W12633  20.783  12.367  12.174
42034W        W12634  23.672  42.329  10.746
42035W        W12635  18.860  11.351   3.374
42036W        W12636  34.136  11.921  12.663
42037W        W12637  30.698  18.275   4.372
42038W        W12638   7.282  26.936  12.078
42039W        W12639  43.434  22.304  13.293
42040W        W12640  24.217  23.998   4.147
42041W        W12641  21.658  15.395   4.299
42042W        W12642  39.650  29.518  14.930
42043W        W12643   5.519  28.138   4.768
42044W        W12644  44.513  18.935   2.535
42045W        W12645  23.727  23.592   2.170
42046W        W12646   5.825  20.720   2.896
42047W        W12647  27.442  29.227   3.949
42048W        W12648  34.797  12.318  12.132
42049W        W12649  36.605  42.445  12.510
42050W        W12650  29.934  12.884  13.240
42051W        W12651  15.375   0.494   4.130
42052W        W12652  29.639  11.635  12.999
42053W        W12653  22.863  36.690   3.217
42054W        W12654   2.208  18.622   3.422
42055W        W12655  41.065  43.635   4.072
42056W        W12656  34.479  26.080  13.861
42057W        W12657  30.989  10.364  11.483
42058W        W12658  35.883  16.664   2.744
42059W        W12659  33.047   1.938   3.661
42060W        W12660  22.233  34.114  11.668
42061W        W12661  25.543  20.497   3.285
42062W        W12662  34.662   9.931   2.846
42063W        W12663   5.863  13.445  13.485
42064W        W12664  29.648   9.913  12.956
42065W        W12665  27.145  42.030   4.948
42066W        W12666   8.833  33.049  14.589
42067W        W12667  29.054  32.065   2.402
42068W        W12668  35.959  39.082   4.330
42069W        W12669   6.852  26.087  12.898
42070W        W12670   3.965  36.441  14.676
42071W        W12671  40.456  31.329   3.314
42072W        W12672  21.921  34.262   3.731
42073W        W12673  10.845  11.450   2.331
42074W        W12674  23.823  18.203  12.863
42075W        W12675   2.766  43.093  11.113
42076W        W12676  40.056   5.409  14.944
42077W        W12677   9.114  11.779  11.946
42078W        W12678  31.615   7.360   1.349
42079W        W12679  27.160  34.422   4.986
42080W        W12680  35.417  32.486   2.844
42081W        W12681  27.898   6.365  13.761
42082W        W12682  18.149  38.607   2.802
42083W        W12683  36.283  35.508   1.797
42084W        W12684  40.284  11.287   3.329
42085W        W12685  26.140  30.518   2.319
42086W        W12686  22.245  12.640  14.818
42087W        W12687  39.466  20.315  14.195
42088W        W12688  10.285  27.263  13.055
42089W        W12689  30.032  26.171   3.188
42090W        W12690   5.884   8.903  14.847
42091W        W12691  35.973  37.073  11.469
42092W        W12692  14.486   7.092   4.995
42093W        W12693  15.311  39.423  12.082
42094W        W12694  43.738  17.878  13.558
42095W        W12695  23.382   1.418   9.405
42096W        W12696  23.495   1.208  12.354
42097W        W12697  22.054  18.494   3.972
42098W        W12698  40.451  35.431  14.182
42099W        W12699  12.780  31.469  12.603
42100W        W12700  38.447   9.147   3.941
42101W        W12701  43.822   6.954   3.557
42102W        W12702  31.538   7.618  12.397
42103W        W12703   3.909  18.882   0.462
42104W        W12704  43.985  38.951   2.349
42105W        W12705  28.057  25.723   0.008
42106W        W12706  17.537   2.579   3.821
42107W        W12707  25.195  26.075   4.566
42108W        W12708  21.480   2.681   4.788
42109W        W12709  13.367  34.035  11.421
42110W        W12710  37.531  22.576  10.576
42111W        W12711  39.172  10.144   3.679
42112W        W12712  22.373  39.006  12.684
42113W        W12713  26.984   1.429  11.107
42114W        W12714  37.855  34.899  12.351
42115W        W12715   9.679  12.733  14.572
42116W        W12716  15.384  23.760  10.665
42117W        W12717  44.208  34.045   3.506
42118W        W12718  34.794  33.492   9.772
42119W        W12719  22.453   4.198  13.344
42120W        W12720   8.431   2.330  12.091
42121W        W12721  35.110  38.854   0.301
42122W        W12722  36.474  17.512  13.169
42123W        W12723  20.709  41.730  13.403
42124W        W12724  12.266  26.541  14.502
42125W        W12725   6.399  34.357   9.744
42126W        W12726   0.422  25.454   4.552
42127W        W12727  36.702   8.295   1.220
42128W        W12728  16.811  40.569   4.259
42129W        W12729  30.384  36.386   0.947
42130W        W12730  22.076  41.300   2.410
42131W        W12731  18.128  33.343  11.187
42132W        W12732  19.251  14.235  12.387
42133W        W12733   4.001  28.021   2.399
42134W        W12734  30.458  33.136  13.020
42135W        W12735  34.876  41.310   2.641
42136W        W12736  16.417  39.595   3.707
42137W        W12737  22.920  41.285  13.935
42138W        W12738   7.623  29.592  13.492
42139W        W12739  24.034  14.291   4.134
42140W        W12740   8.756  18.054  10.407
42141W        W12741   0.695   3.372  10.749
42142W        W12742   2.486  22.962   1.922
42143W        W12743  34.897   2.207  13.624
42144W        W12744  10.759  14.736   3.940
42145W        W12745  39.232  29.108  10.701
42146W        W12746   6.447  23.124  13.914
42147W        W12747  41.030  26.216  13.316
42148W        W12748   0.033  40.644  14.465
42149W        W12749   9.131  26.821  12.134
42150W        W12750  13.213  13.477  10.580
42151W        W12751   4.385  18.341  14.974
42152W        W12752   5.024  13.180  14.405
42153W        W12753  42.253  15.679   0.015
42154W        W12754  12.713  30.402   1.071
42155W        W12755  10.646  23.196   2.812
42156W        W12756  15.861   2.386  10.743
42157W        W12757  42.058   6.463  12.099
42158W        W12758   7.636  12.732   1.598
42159W        W12759  27.582  40.973   3.350
42160W        W12760  10.696   4.655  14.247
42161W        W12761  11.629  25.306  11.242
42162W        W12762  33.939  32.461   3.594
42163W        W12763  43.106  20.753   3.737
42164W        W12764   2.909  33.743   1.891
42165W        W12765  36.969  34.495   3.955
42166W        W12766  31.561  25.308  11.716
42167W        W12767  28.637  41.116   3.175
42168W        W12768  44.707  15.117   2.296
42169W        W12769  24.123   5.168   4.939
42170W        W12770  11.619  30.404   3.598
42171W        W12771  31.593  13.293   3.292
42172W        W12772  42.352  44.031   0.321
42173W        W12773  25.581   4.253  11.663
42174W        W12774  41.683  15.237  11.074
42175W        W12775  36.076  11.298   4.800
42176W        W12776  32.059  37.279  12.336
42177W        W12777  12.872  41.376   1.419
42178W        W12778  13.251   9.361  11.120
42179W        W12779  22.206   8.877  10.728
42180W        W12780   7.246  38.886  11.675
42181W        W12781  17.209   2.457   3.440
42182W        W12782   9.562  31.555   2.769
42183W        W12783   6.968   5.384   1.346
42184W        W12784  20.577  24.396   0.046
42185W        W12785   0.767  39.006   4.543
42186W        W12786  41.723  40.930   1.855
42187W        W12787  17.113  18.138   4.652
42188W        W12788  37.143  27.495  12.234
42189W        W12789  29.135   3.714   4.682
42190W        W12790  12.113  26.107   1.815
42191W        W12791  35.161  26.837   2.463
42192W        W12792  11.743   9.802   2.238
42193W        W12793  38.396  21.726  10.719
42194W        W12794  27.431   7.116  13.610
42195W        W12795  44.544  14.392   0.746
42196W        W12796  42.837  37.612  11.478
42197W        W12797  40.398  16.505  12.268
42198W        W12798  38.820  10.362   1.245
42199W        W12799   0.310  14.806   0.953
42200W        W12800  11.519  40.393   2.217
42201W        W12801  40.777  22.018   3.253
42202W        W12802  42.067  31.502  13.514
42203W        W12803  38.842   1.040   2.234
42204W        W12804  38.807  25.108  12.127
42205W        W12805  40.951  20.834  13.403
42206W        W12806  10.838   3.926  12.402
42207W        W12807  16.987  25.728  12.811
42208W        W12808  29.250  40.894   2.284
42209W        W12809  42.294  37.052   4.695
42210W        W12810   5.179  13.829  14.050
42211W        W12811   1.838  34.865   0.248
42212W        W12812  25.957   5.312  13.855
42213W        W12813   7.956  20.149   3.288
42214W        W12814  37.397  27.058  14.515
42215W        W12815  31.487   4.845  10.582
42216W        W12816  10.259   2.017  13.975
42217W        W12817  19.687   6.346  11.878
42218W        W12818   1.329  36.839   4.745
42219W        W12819  11.662  22.174   3.713
42220W        W12820   1.946   9.423   2.253
42221W        W12821  34.338  25.196   1.290
42222W        W12822   7.757  43.771  11.570
42223W        W12823  30.205  22.734  12.235
42224W        W12824  41.557  38.212  11.472
42225W        W12825   1.473  43.074   1.966
42226W        W12826  14.432  23.454   3.324
42227W        W12827  37.137  43.812   0.505
42228W        W12828  23.231  16.404  14.977
42229W        W12829  33.747  36.352  14.781
42230W        W12830  17.567  39.661   2.882
42231W        W12831  26.686  23.925   2.422
42232W        W12832   3.060  19.815  10.562
42233W        W12833  15.489  44.303   2.830
42234W        W12834  40.929   4.296  13.238
42235W        W12835  31.647  15.847   1.695
42236W        W12836  42.210  12.827   0.793
42237W        W12837  12.775  13.780   3.568
42238W        W12838  25.918  37.075  10.621
42239W        W12839   6.937  42.953  11.598
42240W        W12840  10.325  42.779   0.238
42241W        W12841  39.957  42.518   2.463
42242W        W12842   4.322   1.500  11.237
42243W        W12843   0.220  30.578  13.577
42244W        W12844  30.977   6.320   4.622
42245W        W12845  32.392  24.614   0.911
42246W        W12846  16.062   3.792   4.659
42247W        W12847  16.053  14.361  14.502
42248W        W12848  20.461   2.049  12.521
42249W        W12849   7.775  17.559   4.263
42250W        W12850  30.539  33.149  14.968
42251W        W12851  28.916   3.268  12.794
42252W        W12852  32.270  18.654   3.604
42253W        W12853  44.308  11.318  12.338
42254W        W12854  16.875  37.528  14.184
42255W        W12855   3.297  37.490   0.764
42256W        W12856  28.443  21.698  11.110
42257W        W12857  44.696  37.285   0.974
42258W        W12858  16.808  31.708  14.375
42259W        W12859   4.694   2.537   2.340
42260W        W12860  26.000  12.537  14.668
42261W        W12861   4.496  11.996   4.169
42262W        W12862  29.686   8.799   2.351
42263W        W12863  36.539   0.414  14.225
42264W        W12864  36.387   7.641  10.923
42265W        W12865   5.672  27.914  13.387
42266W        W12866  18.535  34.823  14.798
42267W        W12867  32.768   9.935  13.530
42268W        W12868  16.608  18.910   3.703
42269W        W12869  12.173  21.838  12.439
42270W        W12870  22.625  37.933  14.893
42271W        W12871   5.859  10.115  14.353
42272W        W12872  10.699  11.137  13.902
42273W        W12873  32.677  18.668  12.189
42274W        W12874  29.361   9.410   2.358
42275W        W12875  14.151  40.759   0.326
42276W        W12876   5.745  19.725  11.804
42277W        W12877  28.396  29.397  12.089
42278W        W12878  31.753  24.632   3.327
42279W        W12879  37.530  39.847  10.672
42280W        W12880   1.021  24.212   2.853
42281W        W12881  29.147   5.030  10.145
42282W        W12882  31.317  32.512   0.264
42283W        W12883  37.130  39.736  11.021
42284W        W12884  36.085   1.790  14.226
42285W        W12885  17.454  12.907   1.807
42286W        W12886  15.635  42.727  12.941
42287W        W12887  23.944  12.792   2.113
42288W        W12888  27.211  20.048   3.776
42289W        W12889  34.242   7.381  11.237
42290W        W12890  13.245  31.460  12.871
42291W        W12891  12.356  31.687  13.476
42292W        W12892  31.331  31.572   2.699
42293W        W12893   9.912  19.255   3.429
42294W        W12894  37.631  26.133   0.214
42295W        W12895  30.873  37.579  10.808
42296W        W12896  36.800  26.003   3.095
42297W        W12897   4.187  13.649  13.075
42298W        W12898   9.358  40.955   1.654
42299W        W12899  35.382  30.949  13.795
42300W        W12900  23.103  36.579  10.713
42301W        W12901  26.232  14.818  12.451
42302W        W12902  25.168   2.868  10.796
42303W        W12903   4.912  36.677  13.256
42304W        W12904  43.163  26.283   4.254
42305W        W12905  10.206  20.957   2.837
42306W        W12906   5.301  27.968   3.776
42307W        W12907  22.581  31.644   3.744
42308W        W12908  23.741  15.186  11.117
42309W        W12909   1.835  39.722  10.510
42310W        W12910   8.768   8.971  11.566
42311W        W12911   7.909   5.846   2.259
42312W        W12912   5.831  38.967   0.006
42313W        W12913  39.627  10.995  14.955
42314W        W12914  20.492  33.160  14.269
42315W        W12915   7.904  24.551  13.453
42316W        W12916  11.315  18.145  10.700
42317W        W12917  40.495   2.851   2.796
42318W        W12918  40.060  35.921   1.685
42319W        W12919   9.958  42.270   4.074
42320W        W12920  22.673  15.871   0.460
42321W        W12921  12.372  36.010   4.979
42322W        W12922   9.887  33.111   0.928
42323W        W12923  32.713  40.356   4.135
42324W        W12924  22.100  13.558   0.845
42325W        W12925   5.745  28.527   2.250
42326W        W12926  29.745  36.431   4.506
42327W        W12927  38.346   0.911   3.604
42328W        W12928   7.874  39.628   1.893
42329W        W12929  33.392  41.092  14.799
42330W        W12930  36.005  34.571   1.264
42331W        W12931  21.028   2.310   0.967
42332W        W12932  15.637  20.731  13.074
42333W        W12933  37.083   9.062  11.962
42334W        W12934  25.571  41.369  11.576
42335W        W12935   0.333  18.308  10.672
42336W        W12936  44.791   4.519   3.161
42337W        W12937  38.589   2.219  14.095
42338W        W12938  12.629   0.189  11.141
42339W        W12939  34.103   7.285   1.444
42340W        W12940  34.551  32.333   2.358
42341W        W12941  43.548  10.287  14.137
42342W        W12942  38.799  20.769  14.475
42343W        W12943  34.994  34.961  12.874
42344W        W12944  36.294   8.637   3.438
42345W        W12945  29.656  18.867   2.696
42346W        W12946  33.108  24.072  14.961
42347W        W12947  43.129  17.659   4.147
42348W        W12948  40.263  41.024   3.640
42349W        W12949  13.770   2.753   4.706
42350W        W12950   9.766  35.577   4.137
42351W        W12951  24.199  16.371   4.128
42352W        W12952   4.502  41.273   0.870
42353W        W12953  20.147   0.853   0.101
42354W        W12954  27.236   6.650  12.164
42355W        W12955  12.718  26.410   1.209
42356W        W12956  15.730  11.532  10.843
42357W        W12957  14.807  24.632   2.207
42358W        W12958  39.110  19.409  11.550
42359W        W12959   8.681   6.803  13.351
42360W        W12960  28.462  44.496  13.073
42361W        W12961  25.705  40.841  10.672
42362W        W12962  13.070  11.297   3.899
42363W        W12963  21.737  15.655  14.538
42364W        W12964  32.248  17.115   4.522
42365W        W12965  27.569  31.689   3.172
42366W        W12966  34.608   2.373   2.314
42367W        W12967  40.289  37.556   5.291
42368W        W12968  26.671   2.746  13.399
42369W        W12969   7.896  18.001  10.938
42370W        W12970  25.035   3.203  12.083
42371W        W12971  10.666   2.086   3.873
42372W        W12972   0.928   3.281  10.295
42373W        W12973  34.435  36.506  10.722
42374W        W12974  17.536  39.477   2.372
42375W        W12975  18.613  26.226   2.894
42376W        W12976  25.255  28.594   4.156
42377W        W12977  28.796   5.439   3.036
42378W        W12978  26.223  18.676   1.265
42379W        W12979  11.546  15.529   2.283
42380W        W12980  43.046  28.032   2.399
42381W        W12981  10.678   8.423  11.849
42382W        W12982  22.256  11.867  11.096
42383W        W12983  28.118  38.094  13.439
42384W        W12984  38.858   9.205   3.125
42385W        W12985  41.398   9.339   1.280
42386W        W12986  27.615  25.578   2.413
42387W        W12987  17.850  31.513  10.587
42388W        W12988   7.728  14.770   3.762
42389W        W12989  44.107  40.791  14.230
42390W        W12990  39.022  21.783  12.136
42391W        W12991   5.401  43.456  11.546
42392W        W12992  29.816  26.962  13.974
42393W        W12993   4.163  27.047  13.359
42394W        W12994   5.439  16.592   2.481
42395W        W12995  24.711   0.190   1.830
42396W        W12996  30.279   1.745   3.450
42397W        W12997  34.122  40.563  12.442
42398W        W12998  37.099   2.220   3.346
42399W        W12999  44.744  19.571   2.839
42400W        W13000  18.665  20.118   1.680
42401W        W13001   0.366   7.280  14.866
42402W        W13002  26.368  37.902  10.726
42403W        W13003  38.746  33.775  10.387
42404W        W13004   1.681  16.822   1.673
42405W        W13005  41.452  31.520   2.933
42406W        W13006   3.933  35.528   1.176
42407W        W13007  24.685  15.837  10.548
42408W        W13008  28.571  31.696  11.158
42409W        W13009   2.241  23.150   3.246
42410W        W13010  41.210  22.151   1.270
42411W        W13011  10.176  10.237  14.862
42412W        W13012  12.631  23.413  12.994
42413W        W13013  26.988  17.619   4.954
42414W        W13014  38.944  28.213   0.755
42415W        W13015  14.477  41.854  11.677
42416W        W13016  22.490  29.401  10.638
42417W        W13017   8.369  39.581  14.364
42418W        W13018  28.143  43.990   4.471
42419W        W13019  11.358  13.276   3.294
42420W        W13020  11.878  16.761   5.186
42421W        W13021  43.422   7.700   0.098
42422W        W13022  26.731  31.938  11.150
42423W        W13023   1.925  43.946   2.148
42424W        W13024  19.982  18.312  12.472
42425W        W13025   7.161  19.314  11.690
42426W        W13026  24.547   3.703   2.920
42427W        W13027   3.316  35.351  14.759
42428W        W13028  16.268  14.875  13.936
42429W        W13029  13.578  18.727   2.205
42430W        W13030  36.827  25.052   4.206
42431W        W13031  33.872   2.287  13.069
42432W        W13032  15.059   1.384   2.256
42433W        W13033  16.957  20.991   3.205
42434W        W13034  27.014  35.322  11.053
42435W        W13035  17.032   3.229   2.339
42436W        W13036  13.005  34.576   2.662
42437W        W13037  11.162  30.440   4.091
42438W        W13038  24.228  35.612  14.241
42439W        W13039  27.199  37.990   3.116
42440W        W13040  42.098   7.428   3.842
42441W        W13041  21.993   8.386  14.273
42442W        W13042   7.179  41.904  12.402
42443W        W13043  30.554  12.917   2.159
42444W        W13044  14.878  30.635   4.066
42445W        W13045  36.914  36.598   2.373
42446W        W13046  28.170  23.683   3.016
42447W        W13047  24.627  44.950   0.344
42448W        W13048  38.113   7.935   3.143
42449W        W13049  43.931  25.547  14.320
42450W        W13050  43.458   8.906  14.487
42451W        W13051  22.580   9.254  14.534
42452W        W13052   4.720   6.928   3.636
42453W        W13053  13.459   8.980   3.287
42454W        W13054  18.538  43.556   0.847
42455W        W13055   1.472  25.036   0.355
42456W        W13056   2.554   0.748  12.898
42457W        W13057   2.570  42.979  12.038
42458W        W13058  33.807  27.195   0.801
42459W        W13059  24.126   7.683   4.599
42460W        W13060   9.865   9.242  12.035
42461W        W13061  16.623  13.887  14.890
42462W        W13062  39.888  30.668  12.769
42463W        W13063  20.669   4.217  13.351
42464W        W13064  29.653   4.435   2.613
42465W        W13065  12.192   1.314   1.534
42466W        W13066  11.935  39.505  14.968
42467W        W13067  26.004  33.981  14.032
42468W        W13068  25.485  31.150   0.276
42469W        W13069  42.868  20.571   2.746
42470W        W13070   0.807   7.717   1.635
42471W        W13071  28.505  41.743  13.932
42472W        W13072   4.934   4.326   4.313
42473W        W13073  13.492  40.931   4.141
42474W        W13074  43.344  13.379  10.775
42475W        W13075  34.648  32.601  12.476
42476W        W13076   6.633   7.160  13.173
42477W        W13077  18.146   3.676   0.806
42478W        W13078  27.844  33.805  11.476
42479W        W13079  15.808   5.831   4.116
42480W        W13080  43.646  11.841   3.913
42481W        W13081   1.395  20.817  14.270
42482W        W13082  41.307  22.642   0.117
42483W        W13083  25.336   4.334   1.455
42484W        W13084  28.991  19.773  10.544
42485W        W13085  38.876  32.846  14.365
42486W        W13086  16.218  22.746   2.195
42487W        W13087   5.661  17.581   0.799
42488W        W13088   8.062  29.912   2.843
42489W        W13089  30.875  27.481   3.725
42490W        W13090  19.220  12.860   4.514
42491W        W13091  24.287  41.863  11.118
42492W        W13092  42.138  10.384   2.275
42493W        W13093  26.815   5.854   0.806
42494W        W13094  32.007  27.734   4.045
42495W        W13095   2.875  23.018   2.774
42496W        W13096  17.752   7.928  13.533
42497W        W13097  16.868  12.271   2.432
42498W        W13098  31.802   5.453   4.299
42499W        W13099  10.589  43.144   3.400
42500W        W13100  25.706  16.042   1.228
42501W        W13101  16.584  44.289  10.411
42502W        W13102  19.337  35.631  10.927
42503W        W13103  38.879  14.302  11.129
42504W        W13104   4.814  23.353   4.230
42505W        W13105   4.780  21.378   3.955
42506W        W13106  33.751  26.458   2.677
42507W        W13107  17.315  39.201   2.766
42508W        W13108  26.766   0.824   3.057
42509W        W13109  44.952  34.938   2.356
42510W        W13110  13.730  12.567   4.498
42511W        W13111   8.316  33.442  10.719
42512W        W13112  20.509   7.344   0.938
42513W        W13113   0.833  44.970  13.933
42514W        W13114  31.912  17.775  14.809
42515W        W13115  20.751  19.155   0.191
42516W        W13116  16.070  22.511   0.452
42517W        W13117  31.380  15.539  14.341
42518W        W13118  32.973  33.235   0.159
42519W        W13119  35.649  25.033  10.728
42520W        W13120   2.837   5.221   1.948
42521W        W13121  32.079  21.510   3.828
42522W        W13122  10.089  22.270   2.681
42523W        W13123  43.443  13.656   2.145
42524W        W13124   5.480   8.709   0.871
42525W        W13125  17.188  41.992  14.783
42526W        W13126  14.622   2.777   2.257
42527W        W13127  44.371  20.751  13.867
42528W        W13128  12.086   9.882  13.299
42529W        W13129  29.618  21.489  13.337
42530W        W13130  42.446  32.577   0.063
42531W        W13131  18.634  43.202  14.501
42532W        W13132   9.798  10.842  10.630
42533W        W13133  32.479  44.685   1.561
42534W        W13134  21.702  32.655   0.423
42535W        W13135   0.825  22.414   0.129
42536W        W13136  22.321  29.939   1.560
42537W        W13137  36.845  26.611  12.812
42538W        W13138  38.982  18.092  13.437
42539W        W13139  40.137   2.311   1.838
42540W        W13140  11.159  13.591   4.130
42541W        W13141   9.792  20.555  13.332
42542W        W13142  32.576   1.743  13.314
42543W        W13143  18.682  31.667   2.319
42544W        W13144  36.568  27.906  11.044
42545W        W13145  32.011  31.539   0.084
42546W        W13146  14.161  26.609   0.877
42547W        W13147  16.570  21.153   2.348
42548W        W13148   8.523  39.577  12.992
42549W        W13149  32.172  26.055   4.811
42550W        W13150  10.761  23.531  13.486
42551W        W13151  30.296  23.300  12.906
42552W        W13152  11.703  44.978  11.924
42553W        W13153  12.636  33.600   4.436
42554W        W13154  38.338  28.972  12.223
42555W        W13155  38.036  30.550   2.305
42556W        W13156  38.267  25.183   1.616
42557W        W13157  38.431  37.973  11.698
42558W        W13158  43.881  32.906  13.020
42559W        W13159  35.090  32.558   0.003
42560W        W13160  25.608  27.348   2.818
42561W        W13161   8.408  39.060  14.265
42562W        W13162  37.525  11.713   0.890
42563W        W13163  34.846  16.137  14.051
42564W        W13164  43.023  30.904  12.922
42565W        W13165   8.403   9.134  14.010
42566W        W13166  39.092  25.908  11.581
42567W        W13167  18.711  14.770  11.881
42568W        W13168  25.628  44.086   1.427
42569W        W13169  12.119  25.782   2.800
42570W        W13170  12.177  17.203   0.269
42571W        W13171  20.401  30.611   5.243
42572W        W13172  18.101  15.138  14.825
42573W        W13173   3.775  15.368   3.146
42574W        W13174  35.815  34.912  13.390
42575W        W13175  12.450  13.352  12.403
42576W        W13176  32.345   2.249   4.233
42577W        W13177  21.473  44.841  12.595
42578W        W13178  16.589  40.424  10.711
42579W        W13179   6.823  41.255   2.194
42580W        W13180   6.249  15.070   1.411
42581W        W13181  40.876   3.978  12.487
42582W        W13182  27.412  12.346  12.026
42583W        W13183  13.379  40.883  13.891
42584W        W13184  37.038  33.302  12.276
42585W        W13185   3.207  21.800  13.113
42586W        W13186  18.886  36.110   1.927
42587W        W13187   0.291  11.239   3.413
42588W        W13188  40.077   8.324  13.849
42589W        W13189  23.622  33.518   3.303
42590W        W13190  29.585   1.808  11.599
42591W        W13191  15.041   5.187   0.337
42592W        W13192  36.421  37.147   0.628
42593W        W13193   8.382  32.517  13.957
42594W        W13194  35.808  30.511   1.344
42595W        W13195   2.378  44.893  12.112
42596W        W13196  34.386  13.831  12.375
42597W        W13197  31.188  14.011  13.534
42598W        W13198  33.573  26.682  11.565
42599W        W13199  16.818  24.289   3.801
42600W        W13200   5.317   5.142  13.486
42601W        W13201  16.756  33.532   1.124
42602W        W13202   2.238  21.011   0.889
42603W        W13203  18.293  19.781   2.731
42604W        W13204  10.126  21.726   1.190
42605W        W13205  41.720  26.109   1.491
42606W        W13206  17.788   0.541  13.520
42607W        W13207  14.110  39.791   3.584
42608W        W13208  34.973   0.505   3.149
42609W        W13209  33.510  37.613   3.542
42610W        W13210  12.831  39.944   2.259
42611W        W13211  19.967  42.876  14.526
42612W        W13212  34.060  10.716   2.962
42613W        W13213  10.656  36.904  10.727
42614W        W13214  15.508  20.234  12.965
42615W        W13215  13.391  34.523   4.773
42616W        W13216  15.574  24.755   2.742
42617W        W13217   8.143  12.659  13.561
42618W        W13218  26.075   0.825  11.145
42619W        W13219  30.591  27.089  12.227
42620W        W13220  12.785  13.630   1.010
42621W        W13221  19.366  34.118   3.459
42622W        W13222  19.713  13.150   0.636
42623W        W13223  35.367  38.057   4.597
42624W        W13224  36.044  24.407  14.924
42625W        W13225  18.565  19.720   1.317
42626W        W13226   6.440  10.829   4.118
42627W        W13227  32.152  14.119  14.959
42628W        W13228  20.340  11.248   1.999
42629W        W13229  32.167   6.361  12.167
42630W        W13230   4.625  41.206   4.061
42631W        W13231  39.914  39.544  14.815
42632W        W13232  32.501   4.662  12.450
42633W        W13233  36.411  27.193  14.378
42634W        W13234  23.725  28.859   1.091
42635W        W13235  32.387  36.484   0.830
42636W        W13236  35.799   3.734   3.739
42637W        W13237   7.134  21.686  12.203
42638W        W13238  39.426  39.414   1.818
42639W        W13239  34.868  43.475  14.311
42640W        W13240  20.674  36.517   4.171
42641W        W13241  30.862  41.113  14.375
42642W        W13242   1.735  36.800   1.738
42643W        W13243  33.009  23.606   4.142
42644W        W13244  14.156  16.144   1.954
42645W        W13245  10.450  29.602   3.239
42646W        W13246  44.549  20.078   1.754
42647W        W13247  42.839  17.950  13.654
42648W        W13248  37.169  37.518  11.995
42649W        W13249  21.926  31.182   4.355
42650W        W13250   8.137  31.636  12.904
42651W        W13251  31.139  36.114  13.798
42652W        W13252  23.535   4.408   2.348
42653W        W13253  42.057  37.986  10.830
42654W        W13254   1.913   0.040  11.939
42655W        W13255  35.394  24.539  10.707
42656W        W13256  16.773  16.077   3.149
42657W        W13257  10.866   6.483  11.671
42658W        W13258  43.300  44.437  12.112
42659W        W13259  16.671  38.756  12.824
42660W        W13260  19.109  25.478   3.171
42661W        W13261   9.394  16.795   1.362
42662W        W13262  27.215  20.675   1.248
42663W        W13263   6.233  34.859  13.072
42664W        W13264  40.336   1.468  10.326
42665W        W13265  10.067  11.763   1.844
42666W        W13266   5.173   3.662   0.830
42667W        W13267  38.995  39.161  12.706
42668W        W13268   2.781  18.647   0.373
42669W        W13269  11.261  21.692   0.329
42670W        W13270  17.044   9.913   2.310
42671W        W13271  40.900   5.658  13.428
42672W        W13272  42.378  29.485  10.437
42673W        W13273  14.110  12.740  11.146
42674W        W13274   4.201  24.170   4.351
42675W        W13275  26.593   7.233  13.785
42676W        W13276  25.108  38.385  10.712
42677W        W13277  18.417  38.628  14.287
42678W        W13278  10.781  15.110   2.312
42679W        W13279  31.015  27.426   1.883
42680W        W13280  13.165  28.432   4.309
42681W        W13281  41.325   5.017  11.197
42682W        W13282  31.099  10.221   2.321
42683W        W13283  31.181  35.119  11.564
42684W        W13284  15.049  30.917  10.446
42685W        W13285  16.987  24.657  14.523
42686W        W13286   3.743  26.453  11.644
42687W        W13287  16.261  26.068   2.532
42688W        W13288  39.371  12.831   2.701
42689W        W13289  21.705  14.341   2.274
42690W        W13290   8.294  13.248  11.396
42691W        W13291  18.717  27.557   0.940
42692W        W13292  24.556  42.934  11.022
42693W        W13293  14.630  42.923  11.602
42694W        W13294  36.205   4.635   1.201
42695W        W13295  16.329  10.130   3.227
42696W        W13296  35.006  17.384   2.629
42697W        W13297  28.226  29.994  12.617
42698W        W13298  32.547  24.874   0.230
42699W        W13299  18.511  37.485  14.764
42700W        W13300   1.420  28.711   0.670
42701W        W13301  25.273  29.463   4.067
42702W        W13302  16.071  32.783  11.976
42703W        W13303  35.794  31.879   4.339
42704W        W13304  18.688  44.469   9.893
42705W        W13305  25.045  29.532  13.534
42706W        W13306  21.739  29.084  13.984
42707W        W13307  14.192  29.096  12.887
42708W        W13308  38.843   5.479   0.638
42709W        W13309  21.927  39.356  13.874
42710W        W13310   2.841  35.574   0.682
42711W        W13311  16.495  35.379   0.462
42712W        W13312  44.840   1.671  10.629
42713W        W13313  22.590  13.314   0.939
42714W        W13314   3.417  33.449   4.367
42715W        W13315   1.419  12.836   0.755
42716W        W13316  43.503   2.944   1.775
42717W        W13317  29.410  24.021  10.799
42718W        W13318  23.073  34.806  10.999
42719W        W13319  26.132   8.133  13.110
42720W        W13320   0.245   4.793   1.157
42721W        W13321  30.437  11.172   0.923
42722W        W13322  37.472  26.972   4.672
42723W        W13323   8.542  22.172   0.002
42724W        W13324  33.933   0.237   2.965
42725W        W13325  23.820   7.392   4.914
42726W        W13326  12.110  28.646  10.684
42727W        W13327  25.423  11.326   2.729
42728W        W13328  39.132  12.683  13.275
42729W        W13329  17.827  29.482  12.294
42730W        W13330  39.617  37.070  12.939
42731W        W13331  25.481  33.522  13.488
42732W        W13332  40.940  34.329  10.781
42733W        W13333  24.692  12.614  12.330
42734W        W13334  17.267  44.811   0.259
42735W        W13335  10.339  12.561  13.470
42736W        W13336   8.294  31.560   0.528
42737W        W13337  29.082  39.451   2.349
42738W        W13338  20.489  21.067   4.608
42739W        W13339   9.047   5.302   4.181
42740W        W13340   1.807   1.203   1.299
42741W        W13341  12.192  17.697   1.217
42742W        W13342  28.917  34.780  13.867
42743W        W13343  21.017  21.943   1.888
42744W        W13344   8.767  31.033  12.160
42745W        W13345  29.676   2.696   0.463
42746W        W13346  25.466  37.958  10.907
42747W        W13347  19.676  31.594  12.975
42748W        W13348  28.420  34.368  12.129
42749W        W13349  36.683  27.949   2.139
42750W        W13350  25.824  28.136  11.638
42751W        W13351  31.980   0.324  11.136
42752W        W13352  12.617  40.976   0.170
42753W        W13353   4.386  38.451   2.397
42754W        W13354  12.336  12.759   1.986
42755W        W13355  12.187  42.211   3.733
42756W        W13356  44.845  21.570  14.914
42757W        W13357  23.845  37.432   3.674
42758W        W13358   6.432  14.265   1.761
42759W        W13359  10.226   7.846   5.047
42760W        W13360   9.788   4.755  11.889
42761W        W13361  24.150   2.477   1.704
42762W        W13362   5.296  34.018  14.852
42763W        W13363  43.191  38.431  10.279
42764W        W13364  43.772  38.445  14.440
42765W        W13365  38.091  26.901   1.999
42766W        W13366  11.784  23.916   0.379
42767W        W13367  32.560  41.846  14.341
42768W        W13368   9.163  24.278   3.436
42769W        W13369  39.970  36.603  12.083
42770W        W13370   8.794  14.643   1.847
42771W        W13371  19.982  34.151   1.308
42772W        W13372   5.769  36.098   4.232
42773W        W13373  24.445   9.080  11.112
42774W        W13374  34.028   7.727   1.693
42775W        W13375  43.707  15.302   3.400
42776W        W13376   9.208  20.784  11.193
42777W        W13377  12.145  42.096   0.341
42778W        W13378   3.167  15.249   2.214
42779W        W13379  28.566  36.809  12.075
42780W        W13380  17.102  25.685   1.671
42781W        W13381  24.030  14.867   2.330
42782W        W13382  20.107   2.668  12.871
42783W        W13383  12.682  43.489   0.275
42784W        W13384  15.529  39.305  10.712
42785W        W13385  43.934  10.850  13.455
42786W        W13386  20.985  35.372  15.000
42787W        W13387   9.671  19.764   0.034
42788W        W13388  44.095   4.604  10.681
42789W        W13389  29.672  42.410   0.977
42790W        W13390  21.683  44.679  12.142
42791W        W13391  37.763  32.561   2.293
42792W        W13392   9.893  26.996   1.613
42793W        W13393  11.401  39.004   4.942
42794W        W13394  31.983  36.867   4.348
42795W        W13395   8.975  35.327   1.402
42796W        W13396  11.815  21.640  12.922
42797W        W13397  16.386  42.824  13.530
42798W        W13398  24.261  36.439  14.459
42799W        W13399  40.807   1.236  13.781
42800W        W13400   2.888  39.603   2.815
42801W        W13401  42.242  11.581   0.317
42802W        W13402  16.871  42.502  12.019
42803W        W13403  11.444  11.372  14.339
42804W        W13404  12.176   6.801  13.428
42805W        W13405  21.508   6.770   0.671
42806W        W13406   9.359  38.191  13.627
42807W        W13407   7.237  10.584  14.897
42808W        W13408   8.904  40.368  13.536
42809W        W13409  16.045  42.053  12.050
42810W        W13410   9.465  15.861   4.113
42811W        W13411   7.338  24.205   3.562
42812W        W13412   9.419  28.456  11.189
42813W        W13413  44.016  31.926  12.827
42814W        W13414  14.427   3.417  12.407
42815W        W13415  32.468  26.552  11.552
42816W        W13416  33.884  35.471  11.099
42817W        W13417  24.119   4.310  13.329
42818W        W13418   1.550  31.503   3.314
42819W        W13419   0.296  39.877  13.888
42820W        W13420   7.219  33.174   0.402
42821W        W13421  39.357   9.498  11.237
42822W        W13422  41.221   4.652   1.841
42823W        W13423  15.764  40.892  13.821
42824W        W13424  27.157   3.965  10.735
42825W        W13425   3.741  41.024   4.919
42826W        W13426  21.551  14.799   4.716
42827W        W13427  14.228  30.864   1.222
42828W        W13428   1.599  25.958   3.706
42829W        W13429  43.107  11.838   0.848
42830W        W13430  39.926  17.924   1.455
42831W        W13431  39.671  10.200  12.037
42832W        W13432  38.043  40.479  10.584
42833W        W13433  22.656   3.980   4.331
42834W        W13434  43.759  28.467  13.665
42835W        W13435   4.481  37.276  12.453
42836W        W13436  28.805  31.357  12.825
42837W        W13437   4.932  24.456  14.550
42838W        W13438   3.479   5.643   3.768
42839W        W13439  27.401   6.621   1.728
42840W        W13440  26.602   9.301  14.992
42841W        W13441  11.367  38.489   4.849
42842W        W13442  23.291  37.561   5.138
42843W        W13443  21.177  21.971   4.152
42844W        W13444  21.723  14.228   4.098
42845W        W13445  40.559  29.884   1.367
42846W        W13446  29.514   6.363   3.347
42847W        W13447  32.875   6.822   4.159
42848W        W13448  28.106  13.316   3.852
42849W        W13449  36.439  26.761  14.709
42850W        W13450  35.301  37.532   1.660
42851W        W13451   5.863  15.557   2.579
42852W        W13452  13.078  39.109  10.949
42853W        W13453   9.391  38.325  11.539
42854W        W13454  33.361   7.278   0.554
42855W        W13455  30.807  42.115  10.196
42856W        W13456  24.404   5.835   0.643
42857W        W13457  34.973  17.621  11.946
42858W        W13458   9.721  30.966   3.122
42859W        W13459  17.718  14.205   3.414
42860W        W13460  31.361  33.439  14.340
42861W        W13461  19.700  37.342  13.303
42862W        W13462  38.273   8.824   1.970
42863W        W13463  10.192  17.170  13.329
42864W        W13464  25.290  33.122  11.201
42865W        W13465  27.228   5.197  13.358
42866W        W13466  35.240   5.106   1.362
42867W        W13467  41.858  27.046  11.653
42868W        W13468   0.052  31.626   3.173
42869W        W13469  20.641  12.529   1.419
42870W        W13470   1.939  28.476  11.926
42871W        W13471  22.828  18.964  11.355
42872W        W13472  34.057   7.669   0.664
42873W        W13473   2.767   3.375   0.159
42874W        W13474  37.181   3.484  14.788
42875W        W13475   1.189   6.430   1.445
42876W        W13476  24.609  40.711   3.416
42877W        W13477   0.865  12.862   2.873
42878W        W13478  13.562  25.277  12.572
42879W        W13479  18.959  34.913  11.087
42880W        W13480   8.515  44.513   1.964
42881W        W13481   1.804   5.613  14.969
42882W        W13482  30.598  16.198   4.419
42883W        W13483  15.132   3.933  13.829
42884W        W13484  32.520  25.843   3.184
42885W        W13485  34.177  32.492   0.778
42886W        W13486  29.929  35.302  12.020
42887W        W13487  17.311   0.925   4.106
42888W        W13488  24.540  37.871  14.812
42889W        W13489  22.714  38.000   4.445
42890W        W13490   4.401  31.030   0.461
42891W        W13491  13.235   3.296   2.651
42892W        W13492  16.887  30.629  11.432
42893W        W13493   5.200  24.769  14.883
42894W        W13494  42.909  15.588  10.928
42895W        W13495  28.082   0.382  13.416
42896W        W13496  35.112  17.137   0.380
42897W        W13497   2.778  30.721   0.389
42898W        W13498  16.243  11.587  13.448
42899W        W13499  30.920  33.685  14.378
42900W        W13500  14.690  43.439   2.236
42901W        W13501   3.828  44.076   0.780
42902W        W13502   4.966  41.413  13.918
42903W        W13503  36.350   8.125  14.824
42904W        W13504   8.861  44.769  13.830
42905W        W13505  22.962  42.604  14.966
42906W        W13506   1.165  33.181  10.104
42907W        W13507  32.165  31.713  11.645
42908W        W13508  35.511  29.586   1.326
42909W        W13509  41.856  20.280  11.566
42910W        W13510   6.179  13.016   3.698
42911W        W13511  14.282  39.978   1.239
42912W        W13512  25.147  37.304   4.083
42913W        W13513  42.126  31.059  11.987
42914W        W13514   1.696  22.910  14.958
42915W        W13515  13.330   2.495   4.580
42916W        W13516  34.621  35.987  11.569
42917W        W13517  29.585  32.986   3.025
42918W        W13518  13.151  21.780  11.487
42919W        W13519  26.421  10.879  13.860
42920W        W13520  37.466   6.565   1.016
42921W        W13521  19.210  21.734   3.167
42922W        W13522   6.697  27.419   0.907
42923W        W13523   6.161  16.020   1.514
42924W        W13524   8.643  32.912   4.269
42925W        W13525   8.083  16.623   2.289
42926W        W13526   6.227  20.218  12.448
42927W        W13527  29.000  37.605   1.352
42928W        W13528  19.317  22.213   2.922
42929W        W13529  29.983  36.665   1.837
42930W        W13530  28.167   5.905   1.260
42931W        W13531  25.616  17.328  10.162
42932W        W13532  27.519  16.657  11.212
42933W        W13533  34.498  22.214  12.835
42934W        W13534  18.306  14.080   2.076
42935W        W13535  11.279   4.511   2.960
42936W        W13536  39.206  18.005   1.804
42937W        W13537  26.506  16.733  10.296
42938W        W13538  16.419   1.824   1.701
42939W        W13539   4.203  33.900  13.714
42940W        W13540  24.797  14.677  10.753
42941W        W13541  38.398  11.642  12.860
42942W        W13542  38.556   7.812   1.029
42943W        W13543  24.425   8.340   3.698
42944W        W13544  18.795  13.260   2.746
42945W        W13545  27.266  23.639  11.629
42946W        W13546   5.184   3.310   2.129
42947W        W13547  17.234  21.359  12.893
42948W        W13548  36.438  19.667   2.949
42949W        W13549  14.234  23.239  11.961
42950W        W13550  43.445  27.716   2.978
42951W        W13551  36.557  31.806   3.200
42952W        W13552  36.403  12.323   0.926
42953W        W13553  40.616   5.478  12.914
42954W        W13554   2.268   6.285   0.317
42955W        W13555   3.175   1.264  14.815
42956W        W13556  35.101   5.801   2.900
42957W        W13557  39.666   6.374   4.913
42958W        W13558  33.851  18.061   4.579
42959W        W13559  25.981  35.931  14.267
42960W        W13560  31.579  13.078  14.571
42961W        W13561  22.500  38.805   1.928
42962W        W13562   3.162  18.243   2.375
42963W        W13563   9.934  13.739  14.347
42964W        W13564  42.311  16.638  11.630
42965W        W13565   1.135  19.875   0.303
42966W        W13566  38.982  13.353   2.346
42967W        W13567  16.004  29.499  13.438
42968W        W13568  29.389  17.483   1.376
42969W        W13569  32.981  12.911   2.896
42970W        W13570  23.595   3.416   1.156
42971W        W13571  42.055  34.536  13.497
42972W        W13572  21.165  26.654  12.616
42973W        W13573   9.193  34.785  13.992
42974W        W13574   1.342  21.134   0.570
42975W        W13575  26.443   5.311   0.081
42976W        W13576  35.368  40.115  11.667
42977W        W13577   0.656  14.274  13.826
42978W        W13578   7.166   4.496   4.067
42979W        W13579  37.848  29.272   3.623
42980W        W13580  25.851  42.532   0.910
42981W        W13581   2.338  19.455   4.022
42982W        W13582  24.193  10.900   0.755
42983W        W13583  16.810   1.418   3.636
42984W        W13584  36.009  20.238   4.577
42985W        W13585  16.352  24.151  12.994
42986W        W13586  22.400  19.734   4.567
42987W        W13587  22.689  41.147   9.933
42988W        W13588  19.031  18.295  12.480
42989W        W13589  19.224  24.951  12.458
42990W        W13590  16.161  26.465   5.035
42991W        W13591  34.948   4.841   2.324
42992W        W13592  24.104   0.744  14.364
42993W        W13593  13.052  44.184  13.027
42994W        W13594   4.474  40.151   0.034
42995W        W13595  35.102   9.026   0.008
42996W        W13596   1.817   0.218   3.753
42997W        W13597  44.235  43.952   2.226
42998W        W13598  15.825   2.716  11.147
42999W        W13599  11.321  21.906  12.955
43000W        W13600  38.412  23.277   1.907
43001W        W13601   2.272  19.608   0.469
43002W        W13602  21.306   4.382   0.091
43003W        W13603  40.642  30.939   0.715
43004W        W13604   1.548  43.726   1.204
43005W        W13605  30.495  23.612   3.267
43006W        W13606  20.757  14.818   2.873
43007W        W13607  10.615  20.008   3.672
43008W        W13608  41.061  10.063  13.163
43009W        W13609  23.477  41.004  13.469
43010W        W13610  24.900  13.830  10.560
43011W        W13611  31.431  39.055   0.401
43012W        W13612  18.759   3.914   3.283
43013W        W13613  24.752  15.123   3.628
43014W        W13614  16.824  17.218  13.976
43015W        W13615   0.956  25.926   3.198
43016W        W13616   5.364  35.408   2.722
43017W        W13617  37.443  37.664   1.711
43018W        W13618  27.054  24.705   2.792
43019W        W13619   9.158  13.897   3.599
43020W        W13620   2.317  15.269   4.953
43021W        W13621  39.168  13.085  11.186
43022W        W13622   4.982   2.922  12.716
43023W        W13623   0.581  21.307   3.233
43024W        W13624   0.254  37.992  10.800
43025W        W13625  29.540  32.914  11.874
43026W        W13626  42.963  19.926   4.005
43027W        W13627  18.325  17.350   2.211
43028W        W13628  39.497  40.841   2.653
43029W        W13629  21.143  29.094  10.248
43030W        W13630  25.332  38.129  12.100
43031W        W13631  21.681   3.271  14.712
43032W        W13632  27.535  12.536   4.304
43033W        W13633  34.964  24.252   2.388
43034W        W13634  22.635  32.809  11.519
43035W        W13635  28.025  21.704  10.332
43036W        W13636  16.105   3.699   1.610
43037W        W13637   9.896   0.339   1.681
43038W        W13638  29.408  30.503  11.228
43039W        W13639  30.055  39.543  11.920
43040W        W13640   2.662  32.124  11.539
43041W        W13641  34.055  19.384   0.634
43042W        W13642  39.314  33.304  12.036
43043W        W13643  20.809  31.833   5.008
43044W        W13644  20.491  40.467   0.504
43045W        W13645   1.391  42.432   4.420
43046W        W13646  41.574  12.610  13.483
43047W        W13647  14.837  18.320   3.163
43048W        W13648  21.065  14.207  12.558
43049W        W13649  36.019   6.290   4.120
43050W        W13650  12.585  17.703   0.842
43051W        W13651  41.218  24.777  11.628
43052W        W13652  28.149  29.100   0.689
43053W        W13653  15.310  11.703  12.369
43054W        W13654  28.589  27.894   4.161
43055W        W13655  24.087  32.677  12.828
43056W        W13656  31.345  31.329  13.470
43057W        W13657  34.067  13.426  13.679
43058W        W13658   1.317  29.364   1.814
43059W        W13659  13.238  11.867  14.038
43060W        W13660  11.380  41.453  13.738
43061W        W13661  42.060  42.825   1.809
43062W        W13662  32.609  24.048  14.795
43063W        W13663   1.769   9.469   4.683
43064W        W13664  27.742  19.307  12.440
43065W        W13665  37.607  37.626   0.010
43066W        W13666  15.647  14.119  13.804
43067W        W13667  24.919  44.638  14.550
43068W        W13668  40.300   8.958  12.327
43069W        W13669  36.912  20.015   0.834
43070W        W13670   5.342  26.167  12.568
43071W        W13671  37.489  17.695   1.723
43072W        W13672  31.500   1.240   0.646
43073W        W13673  13.738  43.972   3.617
43074W        W13674  35.427  34.308  11.679
43075W        W13675  22.941  11.190   3.757
43076W        W13676  18.911  20.668  11.515
43077W        W13677  12.855  38.996  13.004
43078W        W13678  32.045  40.926  13.926
43079W        W13679  37.116  42.498  14.859
43080W        W13680  30.380  13.387  11.887
43081W        W13681  19.161  25.007  14.057
43082W        W13682  27.535  30.113  11.420
43083W        W13683  19.020  14.966  11.091
43084W        W13684  16.559  40.645  13.801
43085W        W13685   9.206  36.340  13.887
43086W        W13686   6.654  18.885  13.480
43087W        W13687  27.613  25.580   4.324
43088W        W13688  15.890  21.253  13.803
43089W        W13689   4.997   6.278   2.110
43090W        W13690  15.108  38.418  13.937
43091W        W13691   4.774  30.009  11.532
43092W        W13692   7.682  40.406   5.108
43093W        W13693  30.078  44.734  12.468
43094W        W13694   4.141  10.328  12.477
43095W        W13695  23.646   6.992   9.757
43096W        W13696   0.954  12.273  12.132
43097W        W13697  31.445  36.148  12.846
43098W        W13698  26.161  44.874  11.289
43099W        W13699  30.857  31.949   4.060
43100W        W13700  43.981  29.656  14.982
43101W        W13701  16.933  10.906   4.145
43102W        W13702  41.580   5.322   2.684
43103W        W13703  16.663  25.157   4.845
43104W        W13704  39.437  13.867  14.431
43105W        W13705  22.518  36.620   2.756
43106W        W13706   5.893  24.035   1.166
43107W        W13707  16.663  28.068  14.982
43108W        W13708  32.143  15.330   4.285
43109W        W13709  13.318  30.509   2.625
43110W        W13710  22.566  20.339  14.852
43111W        W13711  12.804  19.031   3.621
43112W        W13712  19.649  26.233   1.247
43113W        W13713   1.392  30.886  10.707
43114W        W13714  44.217   2.938   2.751
43115W        W13715  27.452  16.170   0.082
43116W        W13716   8.154  27.676   3.601
43117W        W13717  43.851   2.400  14.712
43118W        W13718  30.479  33.451   1.603
43119W        W13719  24.142  40.804   3.729
43120W        W13720  29.115   6.818   2.764
43121W        W13721  12.364  16.378   1.694
43122W        W13722  28.630   6.879   0.751
43123W        W13723   3.192   0.291  12.091
43124W        W13724   7.839  28.604  10.672
43125W        W13725   9.332  34.885  13.489
43126W        W13726   4.975  29.388   1.078
43127W        W13727  15.212  11.377  13.066
43128W        W13728  35.020   8.915  11.078
43129W        W13729  44.264  30.613  12.118
43130W        W13730  25.157  40.922   4.127
43131W        W13731  27.766  30.136  14.238
43132W        W13732  11.116  12.709  11.634
43133W        W13733   2.391   8.269  11.369
43134W        W13734  32.440  18.190   1.945
43135W        W13735   5.998   5.883   1.305
43136W        W13736   0.473  20.030  11.115
43137W        W13737  24.419  27.837  11.692
43138W        W13738  28.031  34.086   0.882
43139W        W13739   2.550  24.411   4.656
43140W        W13740  32.823  40.319  14.470
43141W        W13741  21.599  20.416   0.710
43142W        W13742   2.779  34.839  11.852
43143W        W13743  23.544  15.662   1.375
43144W        W13744  37.821   2.571   1.742
43145W        W13745  32.559   0.515   2.398
43146W        W13746  30.073  24.298  11.093
43147W        W13747   5.639  44.418   4.521
43148W        W13748  36.119  16.576   3.197
43149W        W13749  41.783  35.219   4.020
43150W        W13750  41.271   6.905   4.683
43151W        W13751   1.931   4.197   4.511
43152W        W13752  31.935   3.003  11.530
43153W        W13753   3.184  27.175   1.586
43154W        W13754  44.407   0.800  11.064
43155W        W13755  40.960  25.736  12.442
43156W        W13756  31.662  33.646  10.788
43157W        W13757  42.108  31.671   0.391
43158W        W13758  21.529  39.412  10.466
43159W        W13759  18.157  10.184  12.465
43160W        W13760  25.136  20.887  12.639
43161W        W13761  42.715  19.998  11.531
43162W        W13762   8.862  30.321  11.130
43163W        W13763  36.416  28.506  13.987
43164W        W13764  14.837  15.693   3.204
43165W        W13765  18.237  42.705   3.464
43166W        W13766  38.430  32.517  13.625
43167W        W13767  20.171   9.876  13.624
43168W        W13768   7.248  41.308   2.806
43169W        W13769  18.941   6.240   2.887
43170W        W13770  36.367   6.846   2.418
43171W        W13771  18.127  10.754  13.407
43172W        W13772   6.610  34.506   0.863
43173W        W13773  36.652  28.342   4.710
43174W        W13774  36.527  19.883  12.251
43175W        W13775  42.818   1.428  10.723
43176W        W13776  26.814  17.726   4.257
43177W        W13777  43.035  33.097  11.695
43178W        W13778   9.233   2.874   4.769
43179W        W13779  25.609  27.465   2.321
43180W        W13780  44.080  10.124  11.099
43181W        W13781  22.418   7.918  11.157
43182W        W13782  18.514   6.072  14.502
43183W        W13783  18.817  18.543   1.920
43184W        W13784  14.746  28.755   2.299
43185W        W13785   9.100  36.951  10.514
43186W        W13786   2.205  37.547  14.908
43187W        W13787   6.523  36.656  10.657
43188W        W13788  24.220  20.028  14.393
43189W        W13789  24.747  44.493   1.141
43190W        W13790   3.323  11.809   3.514
43191W        W13791  37.976  26.646   5.143
43192W        W13792   0.608   4.416   1.207
43193W        W13793   3.001  19.720   0.827
43194W        W13794  43.154  39.486  10.988
43195W        W13795  42.378  27.438   1.041
43196W        W13796  28.918  33.561  12.014
43197W        W13797   6.827  39.283   0.805
43198W        W13798  40.961   2.360   3.246
43199W        W13799  41.089  33.075   1.912
43200W        W13800  33.162  17.582   3.208
43201W        W13801  33.165  13.151  10.710
43202W        W13802   7.184   9.746  11.560
43203W        W13803  16.234  27.176  14.346
43204W        W13804  27.421  18.043  11.573
43205W        W13805  34.838   7.713  12.777
43206W        W13806  22.696  23.098   3.184
43207W        W13807  27.936  29.230  13.870
43208W        W13808  38.843   4.468  13.021
43209W        W13809   5.605  36.632   4.238
43210W        W13810  13.062  35.097   2.212
43211W        W13811  39.543  21.415   0.461
43212W        W13812   9.136  39.065   3.656
43213W        W13813  26.712  21.122  10.763
43214W        W13814   8.717  25.190   3.320
43215W        W13815  31.366   3.352   3.993
43216W        W13816   0.070  36.265  10.955
43217W        W13817  35.929  15.524   3.261
43218W        W13818  16.678  41.500   4.822
43219W        W13819  25.097  29.198   1.886
43220W        W13820  39.429  10.634  12.107
43221W        W13821   4.261  18.062   0.383
43222W        W13822  19.458  25.729  12.575
43223W        W13823  37.574  14.006  14.902
43224W        W13824   6.686  39.602  11.553
43225W        W13825  32.176  44.429  11.122
43226W        W13826  17.759  25.942  13.084
43227W        W13827  17.521  32.049   4.429
43228W        W13828  41.725   0.815   1.230
43229W        W13829   7.382  33.534   4.352
43230W        W13830  38.414  13.708  10.738
43231W        W13831  19.121  16.047   4.274
43232W        W13832  14.830  22.628  14.786
43233W        W13833  24.761  40.389   0.907
43234W        W13834  23.960  23.736  10.546
43235W        W13835  17.549  17.118  12.925
43236W        W13836  33.073  13.030  12.680
43237W        W13837  40.533   0.965   4.520
43238W        W13838   1.471  11.715  11.945
43239W        W13839  13.724  10.156   0.655
43240W        W13840  42.389   5.196  13.404
43241W        W13841  34.520   8.614   2.380
43242W        W13842  23.791   8.817   5.038
43243W        W13843  40.274   6.286   2.172
43244W        W13844  35.895  22.249  11.709
43245W        W13845  42.050  36.450   1.628
43246W        W13846   2.291  32.393  13.085
43247W        W13847   1.337  35.939   1.709
43248W        W13848  39.891  34.127   4.616
43249W        W13849   7.382  26.471   2.060
43250W        W13850   4.245   8.781  14.075
43251W        W13851  21.923  14.565  12.908
43252W        W13852  28.157  41.941   4.211
43253W        W13853  42.635   3.588   4.172
43254W        W13854  34.923  21.201  14.439
43255W        W13855  20.225   4.494  11.858
43256W        W13856   8.488  37.983  12.181
43257W        W13857  32.102  28.150  11.511
43258W        W13858  22.777  26.170  11.114
43259W        W13859   4.356  34.288  12.358
43260W        W13860  36.097  22.747  11.630
43261W        W13861  26.069  25.980  12.975
43262W        W13862  38.521  19.635  12.149
43263W        W13863   8.382   4.986  11.614
43264W        W13864  15.245  33.341   1.238
43265W        W13865  40.418  40.835   4.110
43266W        W13866  22.175  30.182   3.560
43267W        W13867  24.417  19.622   1.898
43268W        W13868   7.392  29.456   3.206
43269W        W13869  32.498   5.814  10.485
43270W        W13870  42.412  26.697   0.386
43271W        W13871  44.313  43.584  11.083
43272W        W13872  30.171  37.566   3.779
43273W        W13873  40.841  33.823  11.033
43274W        W13874  37.809   5.464  10.833
43275W        W13875   7.642  30.673   2.802
43276W        W13876  37.167  22.095   3.570
43277W        W13877  23.520  18.901   3.302
43278W        W13878   2.860  25.739  10.816
43279W        W13879  41.501  12.925   3.901
43280W        W13880  18.681   8.794  14.894
43281W        W13881   4.683  14.988   3.193
43282W        W13882  27.210  41.981   1.838
43283W        W13883  28.812  38.503   1.718
43284W        W13884  12.111  38.938  11.279
43285W        W13885  14.981  32.860  14.779
43286W        W13886  22.192  31.517   4.061
43287W        W13887  27.585  24.197  11.068
43288W        W13888  29.742  24.971   3.173
43289W        W13889  24.419   3.543  14.279
43290W        W13890   0.378  23.163   1.726
43291W        W13891  22.061  16.632   4.534
43292W        W13892   1.963  19.051   3.208
43293W        W13893  19.104  23.041   0.302
43294W        W13894   5.382   1.854  12.553
43295W        W13895  28.119  32.497  10.907
43296W        W13896  20.266  34.806  10.555
43297W        W13897  42.084  17.091   0.733
43298W        W13898  35.847  23.561   4.093
43299W        W13899  36.352  43.015   9.747
43300W        W13900   9.834  43.298   2.643
43301W        W13901  40.575  38.886  14.038
43302W        W13902   6.892  11.754   4.513
43303W        W13903   8.814  29.590   4.553
43304W        W13904  23.582  22.905   3.786
43305W        W13905  13.022  39.955   2.747
43306W        W13906  31.895  29.443  11.947
43307W        W13907  30.465  39.268  11.989
43308W        W13908  24.188  19.567  11.079
43309W        W13909  22.202   4.681  13.354
43310W        W13910  33.851   1.223   1.245
43311W        W13911  28.775   2.677   4.989
43312W        W13912  29.833  25.007  13.085
43313W        W13913   4.079  11.543  14.480
43314W        W13914  33.782  23.247   5.082
43315W        W13915  20.842  32.853   3.101
43316W        W13916   6.696  42.786   3.226
43317W        W13917  27.114  22.300  13.543
43318W        W13918  18.682  28.736   4.811
43319W        W13919  13.632  14.922  12.029
43320W        W13920  10.725   2.535  11.606
43321W        W13921  40.445  28.843   1.934
43322W        W13922  37.603  42.367  10.963
43323W        W13923  11.560  44.774  13.574
43324W        W13924  26.770  19.556  14.165
43325W        W13925  22.246  25.182  14.411
43326W        W13926  25.263   5.695   1.864
43327W        W13927   9.638  40.831  14.410
43328W        W13928  28.490  40.492  13.557
43329W        W13929  22.902  29.779  10.648
43330W        W13930   8.084  43.414   2.275
43331W        W13931  31.440  18.235   2.823
43332W        W13932   9.685  38.071  11.873
43333W        W13933  42.834   3.120  12.905
43334W        W13934  22.691  34.557  14.448
43335W        W13935  21.034   8.562   2.528
43336W        W13936  22.646  44.447   0.064
43337W        W13937  35.274  21.468   0.412
43338W        W13938   7.973  36.042   4.193
43339W        W13939   6.248   2.057  13.342
43340W        W13940  35.589  20.691   4.139
43341W        W13941  44.258  12.853  10.618
43342W        W13942  30.531  30.696  14.827
43343W        W13943  24.213  38.229   1.312
43344W        W13944   6.841  10.588  11.954
43345W        W13945  19.818   8.211  14.806
43346W        W13946  31.158  44.232  11.134
43347W        W13947  10.377  28.117   4.073
43348W        W13948  32.120  20.878  12.913
43349W        W13949  21.981   4.519  11.104
43350W        W13950  40.441  27.633  12.423
43351W        W13951   5.384  38.899  10.646
43352W        W13952   4.438  14.125   1.825
43353W        W13953  37.833  21.160   1.553
43354W        W13954  25.217  36.989  13.916
43355W        W13955  28.577  36.997  11.613
43356W        W13956   8.708  35.052   2.837
43357W        W13957  15.230  41.035  11.175
43358W        W13958   3.594   1.839  11.934
43359W        W13959  31.943  32.144   0.773
43360W        W13960  39.278  39.426  13.752
43361W        W13961  24.601  23.547  13.017
43362W        W13962   6.906  42.976   1.759
43363W        W13963   9.333  22.949   2.854
43364W        W13964   8.355  28.629  13.779
43365W        W13965  27.944  32.052  10.549
43366W        W13966  10.396  21.237  14.493
43367W        W13967  27.682   3.283   2.685
43368W        W13968  33.518   3.697   3.398
43369W        W13969  35.506   8.249   3.946
43370W        W13970  36.842   1.051  11.657
43371W        W13971  23.730  42.712   2.003
43372W        W13972   9.688  31.591   4.640
43373W        W13973   2.797  11.777   2.218
43374W        W13974  40.270   2.254  13.459
43375W        W13975  26.408   5.265   1.975
43376W        W13976  14.834   7.206   2.404
43377W        W13977  25.109  33.277  10.719
43378W        W13978  36.619   7.370   2.171
43379W        W13979  29.047   8.044  12.053
43380W        W13980  19.151  16.614  13.661
43381W        W13981   1.979   5.380   1.145
43382W        W13982  30.947  12.353   1.438
43383W        W13983  42.333  30.511  14.051
43384W        W13984  41.629  12.331  11.247
43385W        W13985  21.756  42.427   4.861
43386W        W13986  33.035  24.610   0.281
43387W        W13987  31.138   9.216   3.190
43388W        W13988   3.125  10.337   2.737
43389W        W13989  30.020  34.215  14.562
43390W        W13990  32.574   7.799  13.737
43391W        W13991  23.077  39.836  13.881
43392W        W13992  40.616  28.053   3.172
43393W        W13993   9.138   3.538   0.758
43394W        W13994  44.686   5.199  13.294
43395W        W13995  18.170  20.303   3.445
43396W        W13996  18.653  37.396  11.662
43397W        W13997   3.297  15.512  11.994
43398W        W13998  38.345  37.173  13.492
43399W        W13999  28.132  15.893   2.870
43400W        W14000  11.037   5.176  12.419
43401W        W14001  44.985  27.081   1.760
43402W        W14002  32.780  24.527   4.266
43403W        W14003  36.730  12.957   3.996
43404W        W14004  25.552  31.404   3.124
43405W        W14005  41.783   7.407   5.242
43406W        W14006  25.583  35.434   0.150
43407W        W14007   1.880   9.433   2.823
43408W        W14008  19.072   9.135  11.188
43409W        W14009  37.881   7.918   2.256
43410W        W14010   9.867  41.774   4.207
43411W        W14011  31.457  28.184   3.709
43412W        W14012  17.194  25.667  10.727
43413W        W14013  31.480  30.904  14.506
43414W        W14014  27.139   1.383   1.377
43415W        W14015  20.474  35.837  10.345
43416W        W14016  27.581  30.076  11.945
43417W        W14017   3.591  34.289   5.046
43418W        W14018  28.251  42.512  13.507
43419W        W14019  36.743  11.289   1.868
43420W        W14020   6.908  25.180  14.866
43421W        W14021  24.162  15.750   1.855
43422W        W14022  23.465  28.604   2.315
43423W        W14023  43.345  15.822  10.202
43424W        W14024  44.311  25.241   2.930
43425W        W14025  12.904   7.738   4.346
43426W        W14026  31.111  15.049  12.433
43427W        W14027   0.385  42.873  13.354
43428W        W14028  39.427  14.582   3.721
43429W        W14029  21.272   0.437   4.107
43430W        W14030   6.785   2.226  14.392
43431W        W14031  43.750   1.774   0.940
43432W        W14032  29.723   1.318  13.068
43433W        W14033  17.385  16.614   1.476
43434W        W14034  12.605   7.685  14.208
43435W        W14035  20.309  10.331  11.097
43436W        W14036   6.122   7.486   4.701
43437W        W14037   0.432  43.516   4.184
43438W        W14038   2.709  31.068   2.799
43439W        W14039  20.746  13.267   0.706
43440W        W14040  17.510  42.713  12.665
43441W        W14041   3.054  39.009   3.593
43442W        W14042  12.120  16.307   3.389
43443W        W14043  11.379  19.767   1.574
43444W        W14044  10.349   1.765   4.754
43445W        W14045  30.864  39.797   2.268
43446W        W14046  41.449   3.125   1.947
43447W        W14047  40.069  27.610   0.250
43448W        W14048   8.085  13.128   0.923
43449W        W14049  44.434  21.010   1.318
43450W        W14050  15.426  22.022  12.027
43451W        W14051  30.461  33.693   4.518
43452W        W14052  30.670   4.274  10.622
43453W        W14053  30.592  40.980  11.546
43454W        W14054  44.270  32.053  12.391
43455W        W14055  32.466  39.549  13.724
43456W        W14056  27.265  18.127  13.896
43457W        W14057  12.792  27.639   4.140
43458W        W14058  30.889   4.934   2.624
43459W        W14059  23.069  21.720   0.954
43460W        W14060  29.934  20.146  13.977
43461W        W14061  11.937  24.488   2.698
43462W        W14062  14.365  12.104   3.166
43463W        W14063   2.888  31.853   0.875
43464W        W14064  23.231  40.456   0.973
43465W        W14065  33.185  11.080  12.525
43466W        W14066  32.080   3.583  12.970
43467W        W14067  33.385   6.800   5.090
43468W        W14068  11.401  19.678   3.811
43469W        W14069  43.463  14.101  14.272
43470W        W14070  42.663  26.723   2.743
43471W        W14071  25.951  33.496  13.703
43472W        W14072  15.175  17.252  13.135
43473W        W14073  39.363   0.169   4.989
43474W        W14074  42.367  44.443   3.361
43475W        W14075  37.642  23.971   0.734
43476W        W14076   3.752  19.719  10.384
43477W        W14077  12.759  32.612  14.264
43478W        W14078  35.037  36.968  13.066
43479W        W14079  44.205  41.455  10.112
43480W        W14080  12.393  39.932  12.820
43481W        W14081  36.115   8.051  11.169
43482W        W14082   0.512   7.377  13.732
43483W        W14083  30.040  42.894  14.746
43484W        W14084  30.220   0.866   0.337
43485W        W14085   6.363   5.706   3.816
43486W        W14086  33.994  38.978   4.923
43487W        W14087   3.222  32.346  10.790
43488W        W14088   7.858  13.114   3.847
43489W        W14089  31.914  28.169  13.444
43490W        W14090  22.633  10.140   2.658
43491W        W14091   4.806   7.887   1.083
43492W        W14092  26.913  13.148  10.702
43493W        W14093  23.542   5.349   4.236
43494W        W14094   1.006  21.461   2.957
43495W        W14095  13.816  32.921   0.041
43496W        W14096  30.707  34.187  14.061
43497W        W14097  44.271  15.647  13.316
43498W        W14098  21.287  17.006   3.528
43499W        W14099  18.233  26.628   0.180
43500W        W14100  14.881  12.672  13.250
43501W        W14101  26.730  44.081   3.655
43502W        W14102  27.583  30.465  13.618
43503W        W14103  29.549  35.027   0.905
43504W        W14104  33.914  32.539  10.658
43505W        W14105   1.713  15.739  11.203
43506W        W14106  30.184  38.841  14.842
43507W        W14107  23.242  22.909  14.891
43508W        W14108  30.750  25.123  12.121
43509W        W14109  24.741  29.391  14.480
43510W        W14110  19.146  19.805  12.990
43511W        W14111  34.394  42.155   1.673
43512W        W14112  23.689  29.152   2.901
43513W        W14113   7.369  33.570   0.825
43514W        W14114   4.033  24.229  11.185
43515W        W14115  26.879  36.989  10.699
43516W        W14116   0.802  33.334   0.484
43517W        W14117  26.877  32.781   0.366
43518W        W14118   4.437  18.784   4.700
43519W        W14119   9.003  43.062  10.404
43520W        W14120  44.894  14.258   3.937
43521W        W14121  28.798   7.353  12.602
43522W        W14122  40.161  37.620  11.996
43523W        W14123   9.812  33.542   0.082
43524W        W14124  38.777   5.351   1.528
43525W        W14125  41.001  21.216   0.721
43526W        W14126  39.859  29.639  14.449
43527W        W14127  32.934  30.427   3.202
43528W        W14128   4.185  24.562   4.689
43529W        W14129  19.137  18.060  11.210
43530W        W14130  44.461  22.405   1.322
43531W        W14131  22.039  30.603  12.056
43532W        W14132  39.264  34.431   1.317
43533W        W14133  27.285   9.702   2.746
43534W        W14134  29.068  44.072  14.787
43535W        W14135  31.007  22.631   2.827
43536W        W14136  21.148   6.362   3.965
43537W        W14137   4.534  23.166  14.255
43538W        W14138  14.279  26.744  12.572
43539W        W14139  27.576  38.533  13.260
43540W        W14140   1.121  11.009   0.883
43541W        W14141  39.387  30.910   0.923
43542W        W14142  25.549   9.783  11.611
43543W        W14143  37.314   0.862   2.314
43544W        W14144  21.668  31.015   0.455
43545W        W14145  31.991  35.945  12.358
43546W        W14146   4.966  10.204  10.697
43547W        W14147  31.653  19.005  11.735
43548W        W14148  15.827  30.198   3.271
43549W        W14149  29.700  18.659  11.628
43550W        W14150   5.794  30.909   2.683
43551W        W14151  14.126  10.783   0.696
43552W        W14152  10.829  38.897   1.815
43553W        W14153  34.666  16.740   3.357
43554W        W14154  23.742  21.730  11.549
43555W        W14155  32.214  15.074   2.952
43556W        W14156  41.423  35.150  13.837
43557W        W14157  42.179  32.048   4.482
43558W        W14158   2.759  35.857   0.248
43559W        W14159  44.634  30.817   0.193
43560W        W14160   0.794  38.239  13.808
43561W        W14161   9.730  40.886  14.924
43562W        W14162   1.816  26.935   2.327
43563W        W14163  35.621  12.731  12.392
43564W        W14164  40.770   8.456  12.110
43565W        W14165   6.733  20.021   1.501
43566W        W14166  26.020   6.430  12.789
43567W        W14167  30.917  11.751  12.125
43568W        W14168   7.852  11.285  11.095
43569W        W14169  41.438   4.147  12.556
43570W        W14170  33.362   1.443  12.921
43571W        W14171  13.045  14.883   4.499
43572W        W14172  36.460  32.317   3.260
43573W        W14173   4.400   2.631   1.897
43574W        W14174  43.757   2.261  13.365
43575W        W14175  21.540  22.536   1.507
43576W        W14176  19.887  30.844   3.314
43577W        W14177  11.839  18.202   2.846
43578W        W14178  34.318  26.626   2.302
43579W        W14179  39.919  19.037  13.769
43580W        W14180  21.137  42.973   4.806
43581W        W14181   8.809   3.967  13.934
43582W        W14182  36.581   7.866  11.329
43583W        W14183  24.548  21.050   2.295
43584W        W14184  22.081  26.070   1.974
43585W        W14185  44.889  31.914  13.800
43586W        W14186  20.297  21.292   1.322
43587W        W14187  41.565  33.572  13.741
43588W        W14188   7.155   7.518  11.955
43589W        W14189  25.140   8.151  13.404
43590W        W14190   2.015   9.980  12.146
43591W        W14191   2.949  17.472  11.133
43592W        W14192  10.222  43.252   2.277
43593W        W14193  18.578  34.740   2.304
43594W        W14194  41.716  39.017  14.880
43595W        W14195  41.111  14.203  14.888
43596W        W14196  14.233   3.338  10.650
43597W        W14197  41.152  20.143  14.222
43598W        W14198   3.665  20.155   0.422
43599W        W14199   2.390   9.772   1.243
43600W        W14200   0.241   1.465   1.745
43601W        W14201   3.214  41.739   1.022
43602W        W14202  44.271  38.556   0.664
43603W        W14203  22.226  13.607   2.208
43604W        W14204  16.789  25.867   9.884
43605W        W14205  12.169  28.259  11.593
43606W        W14206  23.658   0.961   1.236
43607W        W14207   3.334  39.966   0.041
43608W        W14208  34.783   2.908   3.235
43609W        W14209  27.499   3.764  10.390
43610W        W14210  28.851  17.740   3.154
43611W        W14211   2.455  28.637  14.276
43612W        W14212  42.496  34.928  11.085
43613W        W14213  17.615  11.905  12.451
43614W        W14214  29.028  38.958   0.742
43615W        W14215  16.715   1.785  12.984
43616W        W14216  41.291  44.542  11.635
43617W        W14217  28.478  39.087  12.524
43618W        W14218  15.222  24.767  14.108
43619W        W14219  31.354  39.432   2.768
43620W        W14220  29.914  44.550  11.547
43621W        W14221  12.451   4.494  11.134
43622W        W14222  16.893   9.336   4.107
43623W        W14223  44.700  38.527   0.323
43624W        W14224  17.051  36.198   3.029
43625W        W14225  14.829   3.446  13.345
43626W        W14226  27.085  43.266   1.448
43627W        W14227   7.595   2.464  13.493
43628W        W14228  40.529  39.440  12.043
43629W        W14229  39.683   4.815  12.887
43630W        W14230  10.666  39.335   3.098
43631W        W14231   8.778  37.871  13.447
43632W        W14232  14.376  41.048  12.743
43633W        W14233  37.995  20.475  14.387
43634W        W14234  24.798   2.655  12.580
43635W        W14235  10.631  32.643  12.816
43636W        W14236  32.339   5.642   2.069
43637W        W14237  31.887  15.185   1.918
43638W        W14238   7.792  29.212  13.184
43639W        W14239  35.968   7.230   3.662
43640W        W14240  22.556  26.868   2.894
43641W        W14241   5.782  37.535   3.290
43642W        W14242  29.740   4.841  13.941
43643W        W14243   5.921   6.789  11.467
43644W        W14244  19.700  10.609   1.655
43645W        W14245  19.075  42.911  14.315
43646W        W14246  16.799  30.872   3.859
43647W        W14247  10.813   6.507  12.556
43648W        W14248  36.060  29.669  11.107
43649W        W14249   9.334  38.678   4.449
43650W        W14250  18.310  42.821  14.763
43651W        W14251   1.302  26.454  12.025
43652W        W14252  26.015  27.503   0.900
43653W        W14253  21.006   8.232   2.925
43654W        W14254  12.461  30.090   0.435
43655W        W14255  35.381  35.622   1.793
43656W        W14256  31.142  26.226   3.425
43657W        W14257  27.923  27.486   3.916
43658W        W14258  27.143   6.316   3.911
43659W        W14259  26.116  42.578  12.478
43660W        W14260  39.075  39.081  13.452
43661W        W14261  10.438   7.852  11.440
43662W        W14262  15.259  29.399   0.585
43663W        W14263   0.793  44.802   2.049
43664W        W14264  44.316  18.843  11.471
43665W        W14265   0.967  32.405   4.655
43666W        W14266   9.476  17.738   3.376
43667W        W14267  14.825   5.123   3.767
43668W        W14268  18.600   5.977   0.957
43669W        W14269  42.357  15.256   0.308
43670W        W14270  13.168  19.179   1.341
43671W        W14271  13.770  36.168  11.237
43672W        W14272  31.644  19.587   3.701
43673W        W14273  40.487  28.997   0.888
43674W        W14274   7.785  25.990  14.439
43675W        W14275  22.109  41.105  13.580
43676W        W14276   5.516  33.836   0.893
43677W        W14277  31.542  24.763  13.918
43678W        W14278  15.083   8.325  12.503
43679W        W14279  39.346  13.741  10.715
43680W        W14280  35.319  11.585  10.500
43681W        W14281  33.052  32.021  11.939
43682W        W14282  35.493   8.817  12.510
43683W        W14283   0.527   5.154   1.361
43684W        W14284   1.184  14.684   1.204
43685W        W14285  25.672  15.788  10.697
43686W        W14286  42.774  26.431   4.576
43687W        W14287  39.384  27.860  10.078
43688W        W14288  19.050  15.197   0.379
43689W        W14289  27.393   6.157   3.014
43690W        W14290  43.937  31.222   2.596
43691W        W14291  31.908  37.030  13.383
43692W        W14292  38.403   2.771  11.794
43693W        W14293   8.886  44.064  10.193
43694W        W14294  11.460  19.113  12.234
43695W        W14295  12.841  43.468   0.756
43696W        W14296  23.671  21.052   3.134
43697W        W14297   2.342  19.642   3.019
43698W        W14298  37.992   0.346  14.291
43699W        W14299   4.911   2.485   4.370
43700W        W14300  30.479  34.057   2.697
43701W        W14301  11.771  20.646  14.708
43702W        W14302   1.434  34.004   5.201
43703W        W14303  11.198  38.545  10.938
43704W        W14304  15.311  12.102  14.933
43705W        W14305  35.629  29.404   3.189
43706W        W14306  28.102  42.891   5.158
43707W        W14307  43.572  13.921  13.422
43708W        W14308  35.439  14.821  13.856
43709W        W14309  22.436  23.653  13.751
43710W        W14310  38.437  34.460   5.014
43711W        W14311  30.659  43.331  12.601
43712W        W14312   2.787   8.932  12.029
43713W        W14313  29.631   1.647  12.513
43714W        W14314   2.264  38.816   4.836
43715W        W14315  30.002  31.139   4.532
43716W        W14316  43.860   6.629   2.662
43717W        W14317  38.005  18.106   4.961
43718W        W14318  20.353  44.834   4.512
43719W        W14319  19.742  40.292  10.694
43720W        W14320   9.327  27.304  12.165
43721W        W14321  19.541  30.776  13.891
43722W        W14322   2.447  28.958   1.800
43723W        W14323  23.016   1.983  12.492
43724W        W14324  24.658   4.885  13.311
43725W        W14325  23.681  20.840   2.675
43726W        W14326   3.129   7.236   0.058
43727W        W14327  28.540  22.164   1.633
43728W        W14328   3.489  15.090   1.836
43729W        W14329  40.590   4.150  11.410
43730W        W14330  35.039   8.949   2.121
43731W        W14331   1.741  18.051  11.205
43732W        W14332   0.570  18.183  12.063
43733W        W14333  36.432   7.179  11.161
43734W        W14334  37.353   9.601  14.275
43735W        W14335  18.550  15.715  12.024
43736W        W14336  19.659  36.005   1.388
43737W        W14337  24.880  41.315  12.933
43738W        W14338  20.750  15.025  10.338
43739W        W14339  37.029  33.384  11.690
43740W        W14340  10.651  31.146   0.690
43741W        W14341  11.153  10.426  11.131
43742W        W14342   2.686  18.223   2.203
43743W        W14343  24.060  17.030  11.935
43744W        W14344  16.045   2.973  14.688
43745W        W14345  23.595  18.004  10.481
43746W        W14346   8.726  15.158   4.048
43747W        W14347  40.810  43.471   2.991
43748W        W14348   2.158  22.361   4.593
43749W        W14349  40.570  25.203  11.646
43750W        W14350  19.019  34.862  14.481
43751W        W14351  39.392  37.513   4.044
43752W        W14352  13.882  36.752   1.324
43753W        W14353  41.379  16.607   2.313
43754W        W14354  38.543  31.613  11.245
43755W        W14355   5.343  14.560  11.654
43756W        W14356   2.172   2.887   1.870
43757W        W14357  37.872   8.389  12.170
43758W        W14358  13.560  18.058  11.146
43759W        W14359  18.745   9.235   2.221
43760W        W14360  10.148   6.811  11.521
43761W        W14361   1.320  34.127  11.986
43762W        W14362   8.269  11.105   2.815
43763W        W14363   4.285  10.581   2.956
43764W        W14364  44.730   9.360   1.422
43765W        W14365  32.203  28.670   3.713
43766W        W14366  28.669  33.087  10.362
43767W        W14367  18.933  24.577   3.806
43768W        W14368  43.944  15.753  14.704
43769W        W14369  11.373  23.682  11.905
43770W        W14370  10.151  38.413  13.978
43771W        W14371  39.919  10.335  11.025
43772W        W14372  27.457  22.658   3.821
43773W        W14373   7.323  14.282  14.717
43774W        W14374   5.720  23.928  13.516
43775W        W14375   4.483   3.272  13.899
43776W        W14376  14.182   0.335  11.616
43777W        W14377   8.696  36.099   0.880
43778W        W14378  21.229  14.238  14.362
43779W        W14379  29.871  19.769   3.236
43780W        W14380  37.382  16.623  14.423
43781W        W14381  13.244   4.439  11.540
43782W        W14382  27.423  25.172  13.868
43783W        W14383  17.783  10.765   0.439
43784W        W14384   3.258  27.932  14.962
43785W        W14385   1.463  30.563   2.891
43786W        W14386  39.945   1.048  13.522
43787W        W14387  44.956  42.588   3.245
43788W        W14388  40.404  10.037   1.417
43789W        W14389  16.892  36.252   5.334
43790W        W14390  13.337  38.315   0.442
43791W        W14391  18.208  14.132  14.321
43792W        W14392  10.123  13.248   2.661
43793W        W14393  33.136   7.791   4.085
43794W        W14394  30.153   5.512  13.084
43795W        W14395  24.396  16.340   3.377
43796W        W14396  40.516  21.248   3.883
43797W        W14397   6.882   9.241   4.591
43798W        W14398  16.686  23.847  12.025
43799W        W14399   2.646  15.771  13.417
43800W        W14400  19.340  21.132  14.335
43801W        W14401  16.591  13.348  14.920
43802W        W14402  11.767  19.592   0.780
43803W        W14403   1.800   5.788   1.403
43804W        W14404  41.775  12.594   4.181
43805W        W14405   9.882  41.828  11.455
43806W        W14406  39.246  14.442  13.364
43807W        W14407   0.029  36.948   2.417
43808W        W14408  38.257   6.617  12.020
43809W        W14409  25.443  36.925   0.881
43810W        W14410  35.143   4.892  10.702
43811W        W14411  31.903   5.295   1.669
43812W        W14412  12.539  13.196  13.278
43813W        W14413  13.105  18.609  12.662
43814W        W14414   4.290  43.362  11.479
43815W        W14415  26.544   5.143   3.944
43816W        W14416  23.948  16.678   4.530
43817W        W14417  40.507   8.816  11.867
43818W        W14418  44.512   8.884   4.563
43819W        W14419  44.078   9.135  14.986
43820W        W14420  42.601  38.050  13.538
43821W        W14421  25.106   8.037   1.861
43822W        W14422  31.455   6.348  10.919
43823W        W14423  15.069  44.757   1.713
43824W        W14424  10.200  39.488  14.871
43825W        W14425   4.497  39.089   5.205
43826W        W14426  15.294  10.123   3.292
43827W        W14427   3.838  28.455   2.157
43828W        W14428  26.034  36.570  13.935
43829W        W14429  41.404  33.652   4.399
43830W        W14430  29.060   2.400  10.689
43831W        W14431  13.752  12.336   1.378
43832W        W14432   7.382  10.605   2.785
43833W        W14433   3.957  21.017   3.259
43834W        W14434  42.990  28.069   3.450
43835W        W14435  17.493  26.910   0.893
43836W        W14436  20.670   7.150  13.446
43837W        W14437   5.712  32.145   0.969
43838W        W14438  38.869  18.632   3.610
43839W        W14439  27.302   0.154   1.000
43840W        W14440  21.440  14.101   3.683
43841W        W14441  41.396   8.234   4.366
43842W        W14442   8.629  43.069  11.349
43843W        W14443  36.097  24.700   3.622
43844W        W14444   2.926  39.098   1.293
43845W        W14445  19.019  36.282  14.885
43846W        W14446  39.409  16.560   1.242
43847W        W14447  32.168  21.770  14.874
43848W        W14448  14.603  40.985   1.244
43849W        W14449   1.000  12.421   3.816
43850W        W14450  26.699  22.006   4.539
43851W        W14451  19.314   8.330   0.502
43852W        W14452  23.811  26.860   4.583
43853W        W14453  32.092  31.943   4.914
43854W        W14454  28.499   2.354  12.099
43855W        W14455  20.228   9.158  10.607
43856W        W14456  17.141  27.909  10.661
43857W        W14457  15.920  39.353   0.999
43858W        W14458  30.380  15.222   3.573
43859W        W14459  11.052  12.105   1.810
43860W        W14460  31.703  13.050   3.746
43861W        W14461  31.660  19.641   1.744
43862W        W14462  13.874  17.201  14.542
43863W        W14463  26.571  11.669   4.536
43864W        W14464  18.782  14.666   4.765
43865W        W14465  30.425  44.318   4.397
43866W        W14466  23.095  43.164  10.638
43867W        W14467  35.564  11.178   4.718
43868W        W14468  12.867   6.386   2.931
43869W        W14469  25.490  29.492   2.148
43870W        W14470  12.588  21.484   0.793
43871W        W14471  35.990   2.832  14.819
43872W        W14472  18.593  29.546  12.907
43873W        W14473   1.392   6.095   2.421
43874W        W14474  28.653   7.165  13.956
43875W        W14475  19.983  22.024   4.425
43876W        W14476  37.987   8.152  12.609
43877W        W14477   2.331  13.772  13.493
43878W        W14478   5.778  30.287   2.627
43879W        W14479  44.024  33.239  12.026
43880W        W14480  31.926  16.648  12.847
43881W        W14481   5.966  40.305   2.803
43882W        W14482  26.129  12.033   2.722
43883W        W14483   6.936  17.621   2.802
43884W        W14484   6.172  29.988   3.411
43885W        W14485  12.378   0.794   1.772
43886W        W14486  16.961  38.020  10.785
43887W        W14487   1.934  16.338   1.730
43888W        W14488   3.753  35.693   5.344
43889W        W14489  28.057  21.235  10.566
43890W        W14490   5.694  12.722   0.375
43891W        W14491  43.703  39.297   1.507
43892W        W14492  23.460   4.483  12.496
43893W        W14493  19.580  25.045   2.356
43894W        W14494  32.728   5.300   3.105
43895W        W14495  15.639  39.333  14.350
43896W        W14496  32.707  23.880  13.808
43897W        W14497  34.597   1.380  11.124
43898W        W14498   1.244   3.160   1.759
43899W        W14499  13.637   0.354   3.632
43900W        W14500  41.985  36.024   1.917
43901W        W14501  29.741  24.054  14.475
43902W        W14502  10.612   4.078  13.353
43903W        W14503  32.624  20.521  10.715
43904W        W14504  25.639  33.991   3.524
43905W        W14505  24.939  19.663  12.979
43906W        W14506   8.207  35.958   0.821
43907W        W14507  13.497  20.296   3.177
43908W        W14508  14.243  18.745   2.872
43909W        W14509  20.770  28.089   1.782
43910W        W14510  26.018  40.416  10.716
43911W        W14511  16.226  16.500  14.870
43912W        W14512  36.096  18.378   3.713
43913W        W14513  29.659  11.391  14.017
43914W        W14514  12.338  16.685   3.741
43915W        W14515  12.382  36.133   1.946
43916W        W14516  37.062  11.055  13.877
43917W        W14517  30.624   1.237  12.785
43918W        W14518  44.577   8.970   3.750
43919W        W14519   5.038  41.032   1.911
43920W        W14520   9.826  29.053  12.928
43921W        W14521   2.869  12.367  13.036
43922W        W14522   3.395  18.167   0.877
43923W        W14523  21.593  14.909   0.936
43924W        W14524  36.162  16.548  12.031
43925W        W14525  36.554   0.673   1.826
43926W        W14526  32.476  16.440   2.521
43927W        W14527  32.469  33.864   4.625
43928W        W14528   8.438  22.798   4.203
43929W        W14529  29.200  44.790   4.009
43930W        W14530  42.988  40.834   3.251
43931W        W14531  18.813   1.889  11.499
43932W        W14532  13.303  18.023  13.562
43933W        W14533  41.048  16.308   4.534
43934W        W14534  28.204  25.901   1.824
43935W        W14535  14.654  14.248  13.568
43936W        W14536  43.727  17.241   1.434
43937W        W14537  37.992  19.609   0.669
43938W        W14538  44.999  44.173   4.515
43939W        W14539  19.126  44.107  11.552
43940W        W14540  34.948   8.238   5.142
43941W        W14541  36.997  21.110   0.751
43942W        W14542  15.764  43.596   4.044
43943W        W14543  22.396  23.468  11.643
43944W        W14544  34.172  32.005  10.657
43945W        W14545  41.369  26.218   4.096
43946W        W14546  17.619  38.525   4.487
43947W        W14547  24.753  14.340   0.401
43948W        W14548  27.674   7.299   1.363
43949W        W14549  33.062   3.227   0.536
43950W        W14550  21.078  36.005  11.644
43951W        W14551  42.437  28.606  11.133
43952W        W14552   4.174  35.363   2.324
43953W        W14553  32.511  28.682   2.807
43954W        W14554  33.957   0.305   1.986
43955W        W14555   6.542  31.367  13.973
43956W        W14556  32.915  19.001   3.067
43957W        W14557   0.965  10.368   2.374
43958W        W14558   1.897   4.661   1.774
43959W        W14559   7.735  24.555   3.654
43960W        W14560  38.486  10.164   0.326
43961W        W14561  36.527  19.653  11.319
43962W        W14562  25.103  28.118   0.929
43963W        W14563  17.267  12.060   0.520
43964W        W14564  23.097  34.018  11.534
43965W        W14565  11.321  13.113  14.666
43966W        W14566  23.487  12.022  10.996
43967W        W14567  36.393  23.749  14.207
43968W        W14568  17.192   9.173  12.343
43969W        W14569  37.684  15.120   3.290
43970W        W14570   4.240  21.484   4.514
43971W        W14571  32.655  34.453  14.092
43972W        W14572  10.148  12.703  11.500
43973W        W14573  25.340  28.764  12.060
43974W        W14574  39.015  14.956   1.717
43975W        W14575  39.790  38.614   0.006
43976W        W14576  41.409   9.701   2.383
43977W        W14577  38.432  28.376   2.874
43978W        W14578   2.684  42.035  14.045
43979W        W14579   1.158  17.652  13.530
43980W        W14580  10.349  16.189  12.477
43981W        W14581   4.092  22.382  11.073
43982W        W14582   9.798  34.245   2.463
43983W        W14583   6.797  13.930   5.086
43984W        W14584  24.077   9.866  13.091
43985W        W14585  37.268  20.062  11.345
43986W        W14586  24.008  40.361   0.081
43987W        W14587  38.023  13.315  14.534
43988W        W14588  37.821  18.759  11.522
43989W        W14589  44.786  19.336  14.540
43990W        W14590   0.766  18.624   2.820
43991W        W14591  30.404  35.097  11.979
43992W        W14592   2.385   5.501   1.919
43993W        W14593  18.497  19.771  14.897
43994W        W14594   9.391   2.453   3.591
43995W        W14595   6.439  11.250  10.993
43996W        W14596  17.299  12.307  12.435
43997W        W14597   2.645   5.452   4.929
43998W        W14598  34.048  28.523  14.923
43999W        W14599  31.073  33.323   2.845
44000W        W14600  38.554   7.791   1.968
44001W        W14601  12.369  11.817  10.717
44002W        W14602   8.960  10.656  11.438
44003W        W14603  37.816  26.913  12.503
44004W        W14604  13.402  14.285   3.947
44005W        W14605   7.794  28.257  11.640
44006W        W14606  24.672  32.141   2.290
44007W        W14607  29.982  37.865  13.471
44008W        W14608   4.813  25.650   0.293
44009W        W14609  31.093   6.783   0.932
44010W        W14610  28.147  15.681   2.411
44011W        W14611  21.436  33.380   3.514
44012W        W14612   7.406   4.413  10.407
44013W        W14613  24.463   2.746  13.973
44014W        W14614  37.002  43.729  12.447
44015W        W14615  37.818  26.577   1.245
44016W        W14616  33.082  19.564  11.762
44017W        W14617  13.935  30.079   3.646
44018W        W14618  26.991  17.750  13.454
44019W        W14619  41.274  20.836   2.849
44020W        W14620  32.179  23.795  13.904
44021W        W14621   5.757  24.950   0.147
44022W        W14622  12.618  24.624  14.180
44023W        W14623  10.575  29.895  12.493
44024W        W14624  11.830  11.268  11.218
44025W        W14625  18.257  39.093   1.246
44026W        W14626  11.494  41.261   2.214
44027W        W14627  18.559  15.387   2.724
44028W        W14628  37.629   6.920   1.914
44029W        W14629  32.676  22.539  14.040
44030W        W14630  16.216  43.517  14.827
44031W        W14631   4.531  42.164  11.512
44032W        W14632   9.646   3.976   4.906
44033W        W14633  38.768  22.465  11.380
44034W        W14634  43.863  10.881   0.760
44035W        W14635  31.437  17.924  12.395
44036W        W14636  43.286  16.579   3.635
44037W        W14637   3.111  11.188  11.557
44038W        W14638  18.769  16.769  11.924
44039W        W14639  12.881  27.681  11.383
44040W        W14640  40.568   5.829  12.567
44041W        W14641  35.850  42.013  13.864
44042W        W14642  42.326  25.464   0.728
44043W        W14643  31.590   8.121  12.181
44044W        W14644  13.794   8.720   4.083
44045W        W14645   7.371  33.902  14.838
44046W        W14646   3.012  16.122  10.576
44047W        W14647  33.226  27.452  13.903
44048W        W14648  29.066   6.931  10.698
44049W        W14649  39.312  33.004   4.766
44050W        W14650  11.066  35.482   1.613
44051W        W14651  14.160  32.040  13.320
44052W        W14652  22.691  38.279   4.030
44053W        W14653  30.562  44.486  14.060
44054W        W14654   6.663   3.856  12.357
44055W        W14655   8.117  18.678   0.264
44056W        W14656  23.974  30.788  10.701
44057W        W14657  22.076  11.125   3.112
44058W        W14658  42.205  42.297  11.233
44059W        W14659  28.980  31.037   3.183
44060W        W14660   1.966   3.901  14.724
44061W        W14661  42.549  27.400   2.142
44062W        W14662  14.670   8.751   1.644
44063W        W14663  39.725  14.065  10.584
44064W        W14664  33.523   0.521   2.844
44065W        W14665  41.619  30.570  12.554
44066W        W14666   7.985   2.286  11.689
44067W        W14667  15.207   3.774  11.973
44068W        W14668  27.086  32.434   1.622
44069W        W14669  16.553  19.600   4.366
44070W        W14670   0.402  21.730  11.540
44071W        W14671  13.949   3.490   0.971
44072W        W14672  17.829  43.018   3.541
44073W        W14673   5.700  35.692   0.773
44074W        W14674  12.741  11.239  11.109
44075W        W14675  27.352   2.261   2.630
44076W        W14676  24.488  12.672   2.979
44077W        W14677  43.944  34.624   0.460
44078W        W14678  34.645  19.445   3.386
44079W        W14679  33.948  34.556   2.361
44080W        W14680  14.993  16.413  14.852
44081W        W14681  43.857  29.164  11.067
44082W        W14682  10.168  15.957   2.282
44083W        W14683  33.373   6.204   1.308
44084W        W14684  23.164  19.447   1.215
44085W        W14685  36.058  34.943   0.181
44086W        W14686  35.502   5.129   2.607
44087W        W14687  41.219  13.500  13.558
44088W        W14688  32.446  18.808   3.135
44089W        W14689  27.586  19.302   1.735
44090W        W14690  11.840  27.577   2.485
44091W        W14691  30.724  37.117   1.488
44092W        W14692  33.383  30.698  10.707
44093W        W14693   4.286  10.830   4.954
44094W        W14694  41.120  43.256  11.226
44095W        W14695   5.177   0.338  13.810
44096W        W14696  34.623  25.955  12.396
44097W        W14697  18.548   2.332  14.863
44098W        W14698   4.062  37.191  11.100
44099W        W14699  12.670  10.417   0.746
44100W        W14700  19.014  15.097  11.598
44101W        W14701  39.395   1.005   2.296
44102W        W14702   8.359  17.660  14.528
44103W        W14703  14.680   5.523   1.745
44104W        W14704  34.061   5.890  12.560
44105W        W14705  22.877   8.030  13.860
44106W        W14706  32.460  19.644   4.115
44107W        W14707  33.625  14.207   4.316
44108W        W14708  22.693   0.350  14.838
44109W        W14709  17.896  35.988  10.696
44110W        W14710  32.887   4.758  13.294
44111W        W14711   1.818  30.254  10.479
44112W        W14712   1.891  32.374  12.536
44113W        W14713  33.377  43.767   2.819
44114W        W14714  40.382  22.652   1.200
44115W        W14715  15.087  34.293  12.471
44116W        W14716   2.319  24.537   4.196
44117W        W14717  36.357  25.927  14.409
44118W        W14718   9.312  44.805  12.817
44119W        W14719   7.735  41.049  14.742
44120W        W14720  13.125  35.257  13.273
44121W        W14721  43.455   5.664  14.834
44122W        W14722  26.713   9.930  14.811
44123W        W14723  30.051  15.342  14.570
44124W        W14724   4.053  42.918  13.868
44125W        W14725  34.437  41.099   0.835
44126W        W14726  17.090  41.337  11.437
44127W        W14727   6.801  27.706  14.988
44128W        W14728  43.218   8.645  10.265
44129W        W14729  20.043  27.019   0.389
44130W        W14730  28.518  31.127  14.776
44131W        W14731  31.470  44.422   2.881
44132W        W14732  27.092  40.762   4.091
44133W        W14733   4.452  15.087   2.740
44134W        W14734   4.353  35.672   1.472
44135W        W14735  40.520  40.330  10.554
44136W        W14736  27.210  38.819   4.126
44137W        W14737  20.165   6.578   0.399
44138W        W14738  27.534   5.396   0.653
44139W        W14739   9.651  41.294  12.713
44140W        W14740  16.798   6.388  11.152
44141W        W14741   8.323  26.811   1.905
44142W        W14742  10.302  34.556  11.874
44143W        W14743  10.703  39.344  11.580
44144W        W14744  30.881  32.958  11.586
44145W        W14745   7.365  43.396   1.449
44146W        W14746  35.227  18.636   4.621
44147W        W14747   7.923  19.612  11.491
44148W        W14748  33.057  41.751   4.302
44149W        W14749  34.293  37.967  12.364
44150W        W14750  32.524  34.884   4.710
44151W        W14751  27.275  42.176  11.067
44152W        W14752  37.149   2.339  13.045
44153W        W14753   7.850  22.808   1.337
44154W        W14754   4.741  20.192  13.330
44155W        W14755  15.768  11.197  14.953
44156W        W14756  19.273   8.960  12.998
44157W        W14757  22.336  13.142  14.941
44158W        W14758  33.428  15.378   3.669
44159W        W14759  27.583  18.459   3.262
44160W        W14760   4.322   6.904  11.538
44161W        W14761  10.299   2.657   4.548
44162W        W14762  10.670  35.366   0.718
44163W        W14763  44.548  28.483   0.340
44164W        W14764  20.094  25.654   0.770
44165W        W14765  42.804  15.236  14.364
44166W        W14766  19.112  36.039  12.352
44167W        W14767  40.580  21.794   4.517
44168W        W14768  18.289  26.587   0.758
44169W        W14769   4.843   0.974  12.520
44170W        W14770  11.821   7.703  10.641
44171W        W14771  33.373   0.079  10.717
44172W        W14772   2.873  13.202   4.080
44173W        W14773   9.003  44.436   0.984
44174W        W14774  21.177  11.144   2.796
44175W        W14775  23.904   1.227   0.512
44176W        W14776  33.061  20.615   3.255
44177W        W14777   6.890  22.090  13.820
44178W        W14778  15.960  44.091   0.416
44179W        W14779   4.856  20.793  11.088
44180W        W14780  16.222  29.681  11.801
44181W        W14781  36.553  30.923  11.170
44182W        W14782  43.912  35.596   2.369
44183W        W14783  18.725  36.341   1.288
44184W        W14784   7.126  40.808  13.881
44185W        W14785  21.984  16.038  13.011
44186W        W14786  22.083   7.266   0.907
44187W        W14787   4.824  35.507   0.737
44188W        W14788  40.321  22.427  13.836
44189W        W14789  26.601  32.882  12.873
44190W        W14790  32.254  29.915  13.357
44191W        W14791  13.679  37.219   1.415
44192W        W14792  12.651   2.280   3.597
44193W        W14793  12.378  12.858  11.673
44194W        W14794  39.341  30.341  14.726
44195W        W14795  33.642   7.324  11.863
44196W        W14796   2.319  21.426   4.861
44197W        W14797  43.270  35.822   1.718
44198W        W14798   0.557  31.401   1.870
44199W        W14799  25.138  44.589  13.112
44200W        W14800   3.242  15.589  11.085
44201W        W14801  25.592  23.490  11.200
44202W        W14802  16.753  23.788   3.821
44203W        W14803  10.946  12.742   0.047
44204W        W14804  10.450  37.962   1.591
44205W        W14805  32.013  15.890   0.337
44206W        W14806  13.155  38.997   2.340
44207W        W14807   8.952  33.534   3.129
44208W        W14808  44.355   1.004   4.221
44209W        W14809  38.546  42.272   3.346
44210W        W14810  36.330  19.223   3.756
44211W        W14811  32.620   4.699  13.776
44212W        W14812  40.360  12.206   3.383
44213W        W14813  11.871  38.160  13.546
44214W        W14814  26.310  36.934  12.942
44215W        W14815  40.091   4.084   9.933
44216W        W14816  27.246   6.673  11.133
44217W        W14817   4.370  16.618   1.314
44218W        W14818  37.522  40.501   3.386
44219W        W14819   5.463  26.569   4.691
44220W        W14820   9.688  36.521  11.676
44221W        W14821  15.673   5.846   0.225
44222W        W14822   7.313  42.806   3.643
44223W        W14823   6.455  28.855   4.665
44224W        W14824  24.459   7.848   2.731
44225W        W14825  35.819  20.177  14.995
44226W        W14826   9.166  30.062  14.793
44227W        W14827   5.337  33.014   4.900
44228W        W14828   6.331  20.866   3.073
44229W        W14829  43.259  43.348  12.161
44230W        W14830  40.858  20.173   3.357
44231W        W14831  36.150  19.435   1.209
44232W        W14832  38.475  11.573  11.966
44233W        W14833  36.511  35.669   3.705
44234W        W14834  29.912   1.057   3.329
44235W        W14835  15.001  26.981   1.035
44236W        W14836  33.423   3.936  14.080
44237W        W14837  19.655   2.520   1.268
44238W        W14838   8.451  29.574   2.803
44239W        W14839   4.396  24.632   4.208
44240W        W14840  36.430   1.482  12.502
44241W        W14841  14.216  22.067   1.873
44242W        W14842  33.803   9.201   1.938
44243W        W14843   4.723  17.174   5.002
44244W        W14844  37.840  17.729   4.621
44245W        W14845  19.282  44.939   1.789
44246W        W14846  12.195  16.149  13.925
44247W        W14847  33.263  26.357  11.135
44248W        W14848  20.673  27.712   1.384
44249W        W14849  22.449  28.507   1.990
44250W        W14850   6.209  11.792  12.623
44251W        W14851  14.392  41.372  10.637
44252W        W14852  40.984  36.906  10.702
44253W        W14853   6.983  31.346   1.113
44254W        W14854   0.444  25.128  13.439
44255W        W14855  22.009   2.235  11.028
44256W        W14856  44.985  22.896  12.851
44257W        W14857  12.542  28.921   4.739
44258W        W14858  30.972  28.132   4.832
44259W        W14859  15.534  11.754  12.842
44260W        W14860  41.773   3.043  14.569
44261W        W14861  34.100  41.758  12.608
44262W        W14862  13.844  26.677   1.762
44263W        W14863  29.446  42.828  11.511
44264W        W14864  14.892   5.857   0.768
44265W        W14865  24.777  26.923  13.835
44266W        W14866   0.927  35.226  10.794
44267W        W14867  34.577   3.217  11.491
44268W        W14868  24.221  28.013   2.110
44269W        W14869   2.478  29.886  12.038
44270W        W14870  40.245  12.042   2.360
44271W        W14871   0.819   7.417  10.190
44272W        W14872  43.413   9.059  10.517
44273W        W14873  23.641  27.135   0.251
44274W        W14874  31.178  14.891   0.924
44275W        W14875  35.919  31.349   2.882
44276W        W14876   2.404  10.291  12.373
44277W        W14877  23.481  39.382  10.270
44278W        W14878  12.156  23.826  14.018
44279W        W14879  14.287  24.005   4.078
44280W        W14880  10.834   9.386   1.397
44281W        W14881  16.327  14.237   2.851
44282W        W14882  15.928  15.018   1.833
44283W        W14883  39.524  17.054   4.833
44284W        W14884  44.398  11.792   3.348
44285W        W14885  15.053  16.420   1.259
44286W        W14886  42.893  37.651  14.245
44287W        W14887   7.219  23.772   3.308
44288W        W14888  37.665  27.273  14.991
44289W        W14889   8.503  33.657  11.149
44290W        W14890  41.878  43.805   0.396
44291W        W14891  40.609  40.449  12.412
44292W        W14892  14.144  16.143  10.953
44293W        W14893   6.737  14.097   4.184
44294W        W14894  10.530   6.840  13.344
44295W        W14895   4.642  22.861   1.919
44296W        W14896  12.492  35.615   4.597
44297W        W14897  13.943  32.943   1.389
44298W        W14898   0.197   8.370  11.507
44299W        W14899  21.506  42.844  12.111
44300W        W14900  44.403  35.984   1.181
44301W        W14901  25.979  30.515  10.741
44302W        W14902  35.300  10.569   3.133
44303W        W14903  41.975  27.205  14.759
44304W        W14904  14.826  41.081   2.374
44305W        W14905   7.833  18.473   1.827
44306W        W14906   0.802   0.867   3.420
44307W        W14907  11.299  21.488   4.273
44308W        W14908  36.117  22.274  10.434
44309W        W14909   4.830  41.884  12.831
44310W        W14910  33.296   4.458  12.107
44311W        W14911  40.948  26.561   0.353
44312W        W14912  29.393  10.638  14.529
44313W        W14913  40.792   0.623   2.673
44314W        W14914  36.120  29.710  13.785
44315W        W14915  40.225  11.619   2.673
44316W        W14916  17.234  18.789   1.828
44317W        W14917  22.098  28.611   4.703
44318W        W14918  30.667   7.794   0.701
44319W        W14919  32.360  18.525   4.079
44320W        W14920  12.247  37.858  12.074
44321W        W14921  10.396  38.987   0.454
44322W        W14922  38.510  13.247  13.061
44323W        W14923  18.622  28.768  10.681
44324W        W14924  11.914  15.070   0.436
44325W        W14925  14.431  40.946   4.919
44326W        W14926   4.693  36.141  13.672
44327W        W14927  10.869  15.115   3.240
44328W        W14928  41.071  25.826  14.758
44329W        W14929  15.961  35.916   2.878
44330W        W14930  21.648  24.628   1.321
44331W        W14931  28.341  33.519  10.789
44332W        W14932   0.844  40.150  10.657
44333W        W14933  29.363  39.378   0.748
44334W        W14934  13.315  30.615  12.350
44335W        W14935  30.545   3.380   4.749
44336W        W14936  23.230  37.391   1.982
44337W        W14937  21.767  30.164  12.063
44338W        W14938   2.465  39.681   4.545
44339W        W14939  29.941  23.581  13.971
44340W        W14940  33.610  25.848   2.182
44341W        W14941   2.848  28.904  11.622
44342W        W14942  29.930   3.027  12.963
44343W        W14943  25.211  37.383   0.811
44344W        W14944  17.234  22.010   4.871
44345W        W14945   4.332  15.727  14.199
44346W        W14946  40.926  34.899  13.770
44347W        W14947  29.878  38.428   2.871
44348W        W14948  24.969  26.194   1.246
44349W        W14949  31.481  20.083  11.479
44350W        W14950   7.438  26.541   4.580
44351W        W14951  28.713  30.143  12.497
44352W        W14952  16.873  39.047   4.284
44353W        W14953  11.594  20.141  13.007
44354W        W14954  23.414  28.660  12.131
44355W        W14955   6.194  11.267   1.667
44356W        W14956  33.447  33.259   5.027
44357W        W14957  25.677  28.650   0.456
44358W        W14958  24.105  43.569   2.396
44359W        W14959  41.956  25.707   4.185
44360W        W14960  24.323  21.152  11.123
44361W        W14961  13.353  44.060   4.923
44362W        W14962  16.050   7.016  14.000
44363W        W14963  28.943  21.688  13.513
44364W        W14964  23.538  20.486   1.271
44365W        W14965  41.142   4.850  14.533
44366W        W14966  25.707   1.752  12.378
44367W        W14967  15.526  40.222   5.112
44368W        W14968  29.755  44.866  13.302
44369W        W14969  29.378   8.122  11.546
44370W        W14970   0.723   1.338   3.242
44371W        W14971  42.114  14.262   1.636
44372W        W14972  44.469   9.529   0.827
44373W        W14973   3.149  27.180  11.049
44374W        W14974  31.395  17.625  14.421
44375W        W14975  23.467  44.229  13.961
44376W        W14976  28.930  26.917  11.268
44377W        W14977  11.815   2.334  13.992
44378W        W14978  29.823  26.948  11.438
44379W        W14979  23.503  17.580   3.168
44380W        W14980  43.969  32.389  13.070
44381W        W14981  26.628  29.112  11.364
44382W        W14982  28.756  25.246   0.343
44383W        W14983  24.816  13.761   2.434
44384W        W14984  30.065  28.899  10.766
44385W        W14985  34.510  27.599   2.945
44386W        W14986  19.265  23.713  14.914
44387W        W14987  39.828  35.361   0.981
44388W        W14988  29.532  20.308  11.514
44389W        W14989  42.460  35.308  14.925
44390W        W14990  26.005  27.980  14.977
44391W        W14991  26.502  24.470  14.328
44392W        W14992   2.289   1.780  10.700
44393W        W14993  13.343   2.196   4.134
44394W        W14994  39.790  38.470   4.112
44395W        W14995  32.139  37.856  12.037
44396W        W14996   4.321  34.056   3.441
44397W        W14997  11.071   3.613   2.718
44398W        W14998  12.725   4.399  11.562
44399W        W14999  42.304  11.273   1.315
44400W        W15000  13.304  21.286  14.783
44401W        W15001  21.290  34.961   0.764
44402W        W15002  42.762   2.970  11.613
44403W        W15003  25.650  17.665   1.378
44404W        W15004  10.386  42.560   4.097
44405W        W15005  11.511   7.255   1.482
44406W        W15006  32.675   6.831  10.810
44407W        W15007  37.022  42.236   3.976
44408W        W15008  27.700  31.396  14.481
44409W        W15009   2.655  34.880   2.347
44410W        W15010   8.336  41.425   0.915
44411W        W15011  41.263  25.633  11.986
44412W        W15012  44.648  38.870  14.913
44413W        W15013  37.847   9.927  10.477
44414W        W15014  32.593  31.623   2.172
44415W        W15015  37.297  14.023  14.470
44416W        W15016  21.060  17.220  12.133
44417W        W15017  22.955  27.706  14.293
44418W        W15018   6.644   7.774   2.517
44419W        W15019  10.065   7.906  13.162
44420W        W15020  16.298  44.388  12.971
44421W        W15021  13.377  44.298   3.329
44422W        W15022  21.986  18.319  12.486
44423W        W15023  44.752  35.942  13.106
44424W        W15024  37.503   8.826   4.797
44425W        W15025   1.431  27.158   3.585
44426W        W15026  43.411  10.585   1.999
44427W        W15027  11.796   8.979  12.486
44428W        W15028   7.786  14.230   1.882
44429W        W15029   6.891  14.511   0.472
44430W        W15030  41.574   6.230   2.682
44431W        W15031  43.816  11.161  13.027
44432W        W15032  25.777   9.819   4.643
44433W        W15033   4.765  24.078   0.551
44434W        W15034  13.768  30.985   0.290
44435W        W15035  20.078   1.981   1.811
44436W        W15036  30.163  34.222  10.822
44437W        W15037  43.059  27.029  11.105
44438W        W15038  37.773  29.056  10.135
44439W        W15039   0.586  10.729   3.368
44440W        W15040  33.949   8.784  13.278
44441W        W15041  15.510  32.900   4.467
44442W        W15042  22.200   7.693   3.741
44443W        W15043  17.287   7.656   3.560
44444W        W15044   1.934  32.347   0.807
44445W        W15045   7.974  37.957   3.603
44446W        W15046   2.178   2.808  11.879
44447W        W15047  39.497  41.230  12.059
44448W        W15048  38.359   0.660  14.538
44449W        W15049  42.965  40.279  12.180
44450W        W15050  23.549  36.481   2.764
44451W        W15051  27.463  15.402  11.522
44452W        W15052   9.792  43.262   3.856
44453W        W15053   8.899  36.454  10.594
44454W        W15054  20.035  11.779   3.654
44455W        W15055   4.077  21.161   0.668
44456W        W15056  43.024   2.748  11.140
44457W        W15057  44.317   5.408   3.183
44458W        W15058  43.630  35.313  13.038
44459W        W15059  20.472   4.658   1.386
44460W        W15060  37.162  21.500  13.570
44461W        W15061  28.541  36.987   1.774
44462W        W15062   7.274  22.013   3.202
44463W        W15063  41.480  16.367   1.862
44464W        W15064  24.128  36.659  10.696
44465W        W15065  42.070  37.528  11.163
44466W        W15066  16.906  36.276   2.383
44467W        W15067  17.349   7.401  11.201
44468W        W15068  36.033  33.128  14.764
44469W        W15069  29.213  34.422  11.094
44470W        W15070  41.875   7.746   2.884
44471W        W15071  34.128  25.949  12.470
44472W        W15072  32.796   4.785  14.291
44473W        W15073  35.035  32.809  11.979
44474W        W15074  44.695   2.370   4.404
44475W        W15075  38.359  21.561  14.811
44476W        W15076  44.462   7.844   2.329
44477W        W15077  11.197   3.970   4.557
44478W        W15078  34.078   1.785   4.638
44479W        W15079  37.251  28.040   0.380
44480W        W15080  39.098  28.108  13.052
44481W        W15081  38.312  12.070   2.218
44482W        W15082  32.061  11.412  11.192
44483W        W15083  25.507   9.472  12.070
44484W        W15084  35.783  13.208  12.490
44485W        W15085  44.382  21.088   3.620
44486W        W15086  29.146   6.735   0.768
44487W        W15087  41.215  28.142   2.263
44488W        W15088   5.845  44.605   4.081
44489W        W15089  32.469  21.685   4.616
44490W        W15090  29.525  18.978   5.097
44491W        W15091  34.024  41.291  13.848
44492W        W15092   0.205   8.847  13.878
44493W        W15093  30.559  26.585  13.897
44494W        W15094  14.831  15.926  14.863
44495W        W15095  30.478   0.729   2.214
44496W        W15096  26.595  42.330  12.484
44497W        W15097  36.946  20.789   1.706
44498W        W15098  31.557  20.137  13.902
44499W        W15099  22.271   7.775   0.919
44500W        W15100  28.574   0.210  10.551
44501W        W15101  14.112  44.608   1.211
44502W        W15102  19.379  12.259  12.872
44503W        W15103  21.519  25.398   4.697
44504W        W15104  36.806   7.709  13.124
44505W        W15105  23.269  33.387   1.621
44506W        W15106   3.198   9.762  10.445
44507W        W15107  38.911  38.465   0.673
44508W        W15108   3.913  28.222  12.909
44509W        W15109   7.749  12.677  12.559
44510W        W15110  11.130  35.070  11.991
44511W        W15111  40.244  34.543   2.706
44512W        W15112  11.699  32.489  13.292
44513W        W15113  19.526  35.981  10.609
44514W        W15114  28.501  32.676   1.233
44515W        W15115   4.878  40.866  11.713
44516W        W15116  11.375  32.039   4.108
44517W        W15117  42.053  23.007  11.145
44518W        W15118   5.911  35.140   5.090
44519W        W15119  44.981  21.240  10.894
44520W        W15120  13.611  19.623  11.914
44521W        W15121   0.743  38.850   0.815
44522W        W15122  15.850  17.076  14.289
44523W        W15123  42.196  29.961   4.305
44524W        W15124  31.344   7.257  13.629
44525W        W15125   2.316  22.244   0.815
44526W        W15126  40.954  30.995  10.609
44527W        W15127   3.576  36.120   5.037
44528W        W15128  27.737  14.982   2.854
44529W        W15129  43.514   7.858   2.342
44530W        W15130  34.145  22.991   3.218
44531W        W15131  28.081   8.686  11.291
44532W        W15132  37.972  43.487  12.452
44533W        W15133   8.888   7.342  12.104
44534W        W15134   9.028  29.433  13.199
44535W        W15135   0.907   7.818  14.842
44536W        W15136   8.414  27.164  13.457
44537W        W15137  26.389  19.171  14.915
44538W        W15138  11.310  42.580  11.303
44539W        W15139  28.114   6.833   0.746
44540W        W15140  12.013   9.008  14.306
44541W        W15141  15.523  14.230   0.772
44542W        W15142  36.994  31.982  13.630
44543W        W15143  36.072  15.051   2.474
44544W        W15144  31.597  14.822   2.153
44545W        W15145  12.651  43.240   1.693
44546W        W15146  35.544  14.106   2.142
44547W        W15147  28.932  15.959   1.432
44548W        W15148   7.139   7.610  11.137
44549W        W15149  26.117  13.133   0.982
44550W        W15150  14.644  20.189  14.749
44551W        W15151  27.626  32.988   0.607
44552W        W15152  34.877  25.915  11.799
44553W        W15153  14.281  26.515  10.533
44554W        W15154  11.149  21.261   3.730
44555W        W15155   9.428  38.631  13.362
44556W        W15156  38.945  37.331  12.846
44557W        W15157  26.441  23.767  11.069
44558W        W15158   1.468  44.278   4.570
44559W        W15159  40.696  32.941  13.572
44560W        W15160   1.713   4.449  13.611
44561W        W15161   5.964  38.915  12.079
44562W        W15162  31.979  11.781   1.425
44563W        W15163  32.908  40.451   3.673
44564W        W15164  12.099   3.880   3.729
44565W        W15165  11.224  37.212   1.440
44566W        W15166  11.768  38.016  11.868
44567W        W15167  26.157  13.309   2.478
44568W        W15168  37.840  26.940   4.297
44569W        W15169  10.927  16.720   3.656
44570W        W15170  16.061  10.797   4.769
44571W        W15171   7.529   1.495   2.721
44572W        W15172  28.562  38.342   2.739
44573W        W15173   9.981   0.187  13.509
44574W        W15174   8.208  23.042   4.652
44575W        W15175  19.643  21.783  14.050
44576W        W15176  34.540  31.811   4.528
44577W        W15177  44.892  29.606  11.261
44578W        W15178  16.186  36.427  12.395
44579W        W15179  12.803  17.767  13.447
44580W        W15180  31.495  12.064   0.735
44581W        W15181  10.684  22.246  10.678
44582W        W15182   8.305  38.907   1.789
44583W        W15183  22.828  37.512   3.587
44584W        W15184  42.383  38.968   1.267
44585W        W15185  12.654  40.735  11.835
44586W        W15186   2.868   8.424  12.102
44587W        W15187  31.258  15.184   3.213
44588W        W15188  17.098  12.883   2.207
44589W        W15189  26.134   1.249  14.542
44590W        W15190  15.083   1.392  14.777
44591W        W15191  39.387  28.012   3.348
44592W        W15192   4.001  41.725  12.560
44593W        W15193  35.857  14.226   1.752
44594W        W15194  21.805  34.150  14.840
44595W        W15195  44.281  19.773   4.432
44596W        W15196  23.175  21.434  10.472
44597W        W15197   2.805   5.143   1.412
44598W        W15198   3.215  38.798   0.884
44599W        W15199  10.908  43.942  12.802
44600W        W15200   8.899  42.389   2.861
44601W        W15201   6.796  10.966   3.812
44602W        W15202   2.753  37.455  12.811
44603W        W15203  13.593  20.741  10.492
44604W        W15204  32.021   5.747  13.481
44605W        W15205  43.461  40.873  14.984
44606W        W15206   9.564  41.286  13.217
44607W        W15207  11.177  20.678   3.284
44608W        W15208  14.989  26.685   3.672
44609W        W15209  23.471   3.878   1.398
44610W        W15210  44.596  34.071  12.870
44611W        W15211  23.250  30.504  12.595
44612W        W15212   1.215  40.075  13.855
44613W        W15213  33.997  15.623  13.974
44614W        W15214  42.377  41.546   3.195
44615W        W15215  35.607  26.575  10.549
44616W        W15216  15.383   6.741   0.507
44617W        W15217  19.220  29.864   4.197
44618W        W15218  10.215   9.559  14.337
44619W        W15219   3.664  43.454   0.979
44620W        W15220  10.422  25.558   5.169
44621W        W15221  15.659  33.466  14.842
44622W        W15222  17.476  36.311   1.720
44623W        W15223   1.775  14.156   1.492
44624W        W15224  33.513  11.918   1.035
44625W        W15225  20.194  17.558   2.933
44626W        W15226  13.186  29.462  13.504
44627W        W15227  32.816  16.707  13.319
44628W        W15228  19.598  18.243  14.262
44629W        W15229   1.886  37.351   4.614
44630W        W15230  26.615  23.741   3.882
44631W        W15231  33.503   9.496  13.493
44632W        W15232   7.461  23.903  12.001
44633W        W15233   9.263  31.601   3.601
44634W        W15234  41.428  31.379   1.494
44635W        W15235  27.573  11.496  14.767
44636W        W15236   0.244  16.059  11.081
44637W        W15237  15.014  35.899  11.546
44638W        W15238  24.525  28.333   3.268
44639W        W15239  24.499  29.307  13.896
44640W        W15240   2.374   8.828  14.051
44641W        W15241  10.753  34.756   4.655
44642W        W15242  33.994   9.535   3.662
44643W        W15243  16.464   3.340   3.275
44644W        W15244  15.641   3.126   4.772
44645W        W15245   6.987  13.781   4.596
44646W        W15246  34.033  35.530   1.975
44647W        W15247   8.308  22.615   3.259
44648W        W15248  31.164  18.781   1.674
44649W        W15249   2.060  28.924   2.598
44650W        W15250   7.763  13.206   0.433
44651W        W15251  20.066   5.192  13.757
44652W        W15252   0.295  15.288  13.815
44653W        W15253  43.867  39.888  11.851
44654W        W15254  41.892  39.670  13.753
44655W        W15255   5.940  13.575  14.858
44656W        W15256  44.044  36.976   4.055
44657W        W15257  33.971  41.785   3.855
44658W        W15258  20.743  41.192  13.313
44659W        W15259  37.434  29.160  11.775
44660W        W15260  11.298   0.544   4.750
44661W        W15261  27.886  18.376   3.738
44662W        W15262  37.960   9.195   3.661
44663W        W15263  27.088  26.979  12.425
44664W        W15264  13.196  25.330  13.577
44665W        W15265  23.070  22.403  14.793
44666W        W15266  14.584  33.282   5.061
44667W        W15267  22.001  17.951  14.274
44668W        W15268  33.567  18.049   1.659
44669W        W15269  29.667  20.131  13.550
44670W        W15270  11.093  12.651  14.563
44671W        W15271  21.547  18.069  12.368
44672W        W15272  24.250  43.239   5.023
44673W        W15273   6.811  37.051  14.511
44674W        W15274   6.358  37.098   2.771
44675W        W15275  21.987   8.843   4.149
44676W        W15276  28.134  12.634  13.557
44677W        W15277   5.473  22.828   1.517
44678W        W15278  38.620  19.865  13.109
44679W        W15279  19.740   3.431  10.112
44680W        W15280   1.941  26.157   1.747
44681W        W15281  12.887  18.601   1.676
44682W        W15282   9.661   3.521  14.626
44683W        W15283  20.441  18.796   0.013
44684W        W15284   7.197  41.482  11.592
44685W        W15285  36.333   4.785  14.855
44686W        W15286  36.972  24.435  14.865
44687W        W15287  41.496  19.230  12.905
44688W        W15288  13.773   4.800   0.367
44689W        W15289  24.714  21.703   3.751
44690W        W15290  14.077  12.790  12.622
44691W        W15291  19.665  22.571  10.620
44692W        W15292  25.662  36.030  11.583
44693W        W15293   4.768   4.341   4.852
44694W        W15294  27.097  44.332   1.034
44695W        W15295   0.050   8.990   0.256
44696W        W15296  27.507  24.638  14.032
44697W        W15297   8.884  33.653   2.559
44698W        W15298   1.835  20.048   0.460
44699W        W15299   5.928  41.041  11.652
44700W        W15300  19.640  16.954   1.264
44701W        W15301  22.436  26.909  13.200
44702W        W15302  35.877  31.467  14.439
44703W        W15303  25.379   3.356   3.752
44704W        W15304  11.931  12.340   1.890
44705W        W15305  28.131   7.250  14.064
44706W        W15306  33.985   2.135   1.416
44707W        W15307  22.726   2.698   4.160
44708W        W15308  23.137  37.368  14.253
44709W        W15309  41.351  38.335  12.559
44710W        W15310  35.079  10.177   2.694
44711W        W15311  41.525  28.277  13.787
44712W        W15312  11.151  15.376  11.447
44713W        W15313   2.300  27.641  13.552
44714W        W15314   3.362  15.036   0.017
44715W        W15315   2.207  29.560   0.231
44716W        W15316   1.721  32.683  11.003
44717W        W15317  27.187  34.509   4.061
44718W        W15318  28.515  12.944  14.730
44719W        W15319   1.374  43.763  14.250
44720W        W15320  41.450  44.781   1.731
44721W        W15321  14.104   3.892  13.947
44722W        W15322  22.408  36.871   4.090
44723W        W15323  44.373  23.702  13.509
44724W        W15324  24.240  10.315   3.554
44725W        W15325  40.745  15.392  12.495
44726W        W15326  33.500   8.336  12.480
44727W        W15327  22.060  36.009   3.160
44728W        W15328  23.315  33.608  10.027
44729W        W15329   5.239  21.138   2.460
44730W        W15330  26.574   9.181  12.631
44731W        W15331  39.001   1.445  10.158
44732W        W15332  19.075  38.101   1.869
44733W        W15333  42.296   0.307   4.294
44734W        W15334  35.986  34.178   0.859
44735W        W15335   6.811  34.648  14.973
44736W        W15336  20.109  26.047   1.500
44737W        W15337  23.617  27.058  13.462
44738W        W15338  18.591  34.335   1.009
44739W        W15339   4.243   7.036   3.489
44740W        W15340  38.318  34.849   0.797
44741W        W15341  36.317  38.948   2.299
44742W        W15342  27.628  22.716  14.075
44743W        W15343   7.686   1.445   2.128
44744W        W15344  32.162  13.333   3.247
44745W        W15345   4.949  16.223  11.921
44746W        W15346  35.859   2.359   2.667
44747W        W15347  43.757  31.344   2.121
44748W        W15348  21.790  11.139  13.479
44749W        W15349  25.100   3.349   3.312
44750W        W15350  23.097   9.969  12.985
44751W        W15351  23.162  29.570  12.589
44752W        W15352  28.986   4.128   0.038
44753W        W15353  26.512  25.351   0.765
44754W        W15354  14.168  23.899   4.669
44755W        W15355  39.125  13.659   5.060
44756W        W15356  32.333  36.938   3.604
44757W        W15357  39.363   8.306  13.376
44758W        W15358  36.406  28.386   1.384
44759W        W15359   4.595  43.613  14.386
44760W        W15360  20.198   0.509   0.504
44761W        W15361  15.581  25.140   4.860
44762W        W15362   3.717  35.652  11.193
44763W        W15363   5.221  42.704   1.391
44764W        W15364   0.581  30.887   1.884
44765W        W15365  38.891  42.408  13.498
44766W        W15366  41.949   1.920   3.171
44767W        W15367  17.774  18.844   0.439
44768W        W15368  32.071  37.022  14.756
44769W        W15369  39.342  28.411   0.485
44770W        W15370  28.602  13.595   3.842
44771W        W15371   9.151  44.885   0.748
44772W        W15372   3.408  33.900  14.401
44773W        W15373   4.523  43.391  10.605
44774W        W15374  15.095  25.436   1.863
44775W        W15375  16.711  33.069   5.090
44776W        W15376  31.850   6.688  10.864
44777W        W15377   7.523  13.290   4.182
44778W        W15378  32.980   7.588   3.061
44779W        W15379  32.344  27.857  12.670
44780W        W15380  35.068  13.392  14.407
44781W        W15381  29.432  22.540  12.890
44782W        W15382  39.193  28.614  13.452
44783W        W15383   3.260   2.502   1.247
44784W        W15384  10.668  30.623   3.345
44785W        W15385   9.618   8.961   0.815
44786W        W15386  30.898  18.731   1.231
44787W        W15387  31.967   3.716  10.703
44788W        W15388  31.199  17.240   5.217
44789W        W15389  28.148  17.699  10.020
44790W        W15390  38.889  31.946   2.217
44791W        W15391  25.704  18.256  14.789
44792W        W15392  22.602  35.429   4.859
44793W        W15393  40.975  15.989  11.281
44794W        W15394  35.937  36.520  12.854
44795W        W15395  26.220   1.689   1.226
44796W        W15396  39.924   1.685   3.641
44797W        W15397   1.064   3.342   3.092
44798W        W15398  29.119   5.554  10.127
44799W        W15399  37.663  36.293   4.596
44800W        W15400  43.980  41.777   4.376
44801W        W15401  12.199   6.169   1.658
44802W        W15402  16.071  29.583  11.319
44803W        W15403  41.253  33.017  14.410
44804W        W15404   0.513   5.283  13.996
44805W        W15405  16.115  29.247  12.065
44806W        W15406  44.327  41.921  11.317
44807W        W15407  28.503  43.510  13.465
44808W        W15408   9.121  27.104  12.595
44809W        W15409  36.682  20.426   1.451
44810W        W15410  12.730   7.620   0.979
44811W        W15411  37.478  13.212   3.661
44812W        W15412  25.705  41.508   4.771
44813W        W15413  39.440  28.560  10.950
44814W        W15414   8.382  39.773   2.729
44815W        W15415  12.587  15.268   3.804
44816W        W15416  23.963   1.381   3.743
44817W        W15417  11.614  20.505  14.214
44818W        W15418  20.977  24.383  11.630
44819W        W15419  40.565   6.429   2.579
44820W        W15420  14.821   0.202   1.825
44821W        W15421  44.019   8.375   3.156
44822W        W15422  36.960  44.497  13.413
44823W        W15423  38.144   7.774   4.875
44824W        W15424   1.334  36.797  10.609
44825W        W15425  45.000  29.415   3.425
44826W        W15426  36.342  29.525   3.795
44827W        W15427  18.230   0.315  13.685
44828W        W15428   0.328  28.636   3.157
44829W        W15429   5.948  22.070  12.215
44830W        W15430  22.981  27.677  11.077
44831W        W15431   0.451  14.997   3.786
44832W        W15432  31.818  22.586  11.876
44833W        W15433  26.130  35.311   3.691
44834W        W15434  18.694  42.477   3.263
44835W        W15435   6.828  41.678   1.451
44836W        W15436  19.767  22.234   2.085
44837W        W15437  24.081  38.991  13.265
44838W        W15438  29.171  20.626  12.914
44839W        W15439  14.131  42.881   3.905
44840W        W15440   3.608  25.980  11.180
44841W        W15441  24.028   4.408  11.946
44842W        W15442   2.558  41.444  11.478
44843W        W15443  34.395  14.447   3.325
44844W        W15444  39.533   2.731   1.165
44845W        W15445  24.440   4.181  13.857
44846W        W15446  18.014  25.594  12.827
44847W        W15447  20.273   1.769   4.591
44848W        W15448  28.873  18.189   4.563
44849W        W15449  11.092   0.859   3.216
44850W        W15450  11.178  33.543  13.879
44851W        W15451   7.272   2.266  10.615
44852W        W15452  18.702  28.279   2.618
44853W        W15453  15.748  21.152  14.803
44854W        W15454  22.063   0.155  11.609
44855W        W15455  18.685  14.807   3.726
44856W        W15456  31.072   4.889  12.162
44857W        W15457  44.952  43.780   4.173
44858W        W15458  24.426  11.173  12.487
44859W        W15459   6.488  16.702   2.821
44860W        W15460  25.547  43.102   3.080
44861W        W15461  40.610   5.047  13.154
44862W        W15462  40.928   1.311   3.777
44863W        W15463  10.733  36.095  14.183
44864W        W15464  15.214  44.412   0.485
44865W        W15465  24.106  12.554  14.582
44866W        W15466  43.552  39.072  12.968
44867W        W15467  41.216   0.944   0.837
44868W        W15468  25.098   8.324   2.284
44869W        W15469  25.945   9.416  14.278
44870W        W15470   4.625  29.453   1.891
44871W        W15471   0.856  43.841   4.350
44872W        W15472  34.114  41.070  13.102
44873W        W15473  26.453   1.196  14.083
44874W        W15474  40.040  14.146   0.030
44875W        W15475  41.668  15.469  11.564
44876W        W15476  17.855  17.206  13.864
44877W        W15477  19.761  28.133   3.756
44878W        W15478  26.155   1.652  14.216
44879W        W15479  39.994  18.100  12.614
44880W        W15480  13.120  40.585  11.132
44881W        W15481  32.069   2.058  13.153
44882W        W15482  15.827   2.592   3.984
44883W        W15483  19.988  41.288   1.792
44884W        W15484  29.828  12.137   0.530
44885W        W15485  15.822  10.655  10.526
44886W        W15486  40.164  38.003  11.650
44887W        W15487  42.850   8.452  12.118
44888W        W15488  39.375  37.447   0.924
44889W        W15489  20.117  41.134  14.940
44890W        W15490  22.543   0.177   1.246
44891W        W15491   7.276  35.857  14.470
44892W        W15492  32.053  13.137   1.763
44893W        W15493  36.972  27.051  12.045
44894W        W15494  42.527  36.181   0.176
44895W        W15495   1.390  43.041  11.155
44896W        W15496  17.170  15.572   1.224
44897W        W15497  32.789  27.040  14.274
44898W        W15498  31.728  39.829   1.943
44899W        W15499   6.769  33.539  10.611
44900W        W15500  44.362   7.620  13.093
44901W        W15501  41.960  36.448  13.812
44902W        W15502  16.388   4.631  11.620
44903W        W15503  39.460  29.567   2.270
44904W        W15504   2.058  37.893   4.574
44905W        W15505  13.080  25.072   4.229
44906W        W15506   9.694  38.108   2.264
44907W        W15507  40.843  44.811  11.605
44908W        W15508  34.664   4.264  14.443
44909W        W15509  32.891  15.788  10.915
44910W        W15510   2.752   2.816   3.737
44911W        W15511  29.014  20.716  10.319
44912W        W15512  25.651  35.381  13.692
44913W        W15513   2.711  23.712   1.692
44914W        W15514   8.807  21.612   0.756
44915W        W15515  29.653  38.507  10.576
44916W        W15516  39.929  39.980  11.111
44917W        W15517  30.351  35.858  11.543
44918W        W15518  26.203  35.587  12.350
44919W        W15519   9.460  29.478  11.718
44920W        W15520  29.530  40.451  13.395
44921W        W15521  21.981  10.085   2.180
44922W        W15522  34.089  30.877  14.404
44923W        W15523  28.055  23.789   2.496
44924W        W15524  38.539  42.634   2.780
44925W        W15525  33.384   2.769   3.136
44926W        W15526   7.894  18.629  12.963
44927W        W15527  28.047  12.117   0.460
44928W        W15528   5.986  33.647   2.161
44929W        W15529  25.532  20.737  11.075
44930W        W15530  20.514  27.144   2.392
44931W        W15531  11.777   9.671  14.984
44932W        W15532  21.358  12.206   0.382
44933W        W15533  35.662  30.130   3.044
44934W        W15534  24.145   7.168   1.442
44935W        W15535  41.215  22.846  13.252
44936W        W15536  41.021  28.747   3.525
44937W        W15537  41.002  36.786   1.277
44938W        W15538   7.759   0.545  10.697
44939W        W15539  31.033  20.077   0.923
44940W        W15540  16.807  37.990   1.419
44941W        W15541  16.657  16.974   1.437
44942W        W15542  22.425  17.229  12.877
44943W        W15543  12.845  21.063  12.670
44944W        W15544  38.615  37.514  11.892
44945W        W15545   3.814  18.449  10.011
44946W        W15546  23.047   2.429   3.291
44947W        W15547   1.392   5.842   1.709
44948W        W15548  11.503   5.841   0.274
44949W        W15549  29.392  26.911   0.416
44950W        W15550  42.993  17.351  14.468
44951W        W15551  32.032  40.822   1.363
44952W        W15552  40.877  23.461   2.418
44953W        W15553  15.792   5.490  10.308
44954W        W15554  44.484  22.927  13.012
44955W        W15555   9.046   7.376  11.610
44956W        W15556   4.281  43.567  11.962
44957W        W15557  22.850  34.436   2.761
44958W        W15558  24.552  34.534  12.125
44959W        W15559  38.057  36.563  10.693
44960W        W15560  25.752  17.343   1.793
44961W        W15561  43.486   4.045   2.510
44962W        W15562  26.700  10.108   2.215
44963W        W15563   8.134  33.716  14.334
44964W        W15564  29.740  36.111   3.604
44965W        W15565  16.737   7.579   3.374
44966W        W15566  38.029  37.293   4.677
44967W        W15567  39.375   8.828  13.429
44968W        W15568  35.255  25.877  12.156
44969W        W15569  12.862  20.058  11.989
44970W        W15570  13.907  19.126  10.772
44971W        W15571  19.558  29.133   0.276
44972W        W15572   4.778   8.511  10.192
44973W        W15573  16.767  13.547   3.247
44974W        W15574  43.826  13.307  13.171
44975W        W15575  15.312  32.976  13.105
44976W        W15576  24.457  37.988  14.104
44977W        W15577   6.291  41.739  13.956
44978W        W15578  13.166  19.258   0.367
44979W        W15579  20.001  19.217  11.296
44980W        W15580  19.887  41.063   1.285
44981W        W15581  29.412   1.446  13.483
44982W        W15582  37.343   6.163  14.782
44983W        W15583   5.294   8.373  11.675
44984W        W15584  19.794  42.831  12.904
44985W        W15585  15.269  15.558  11.047
44986W        W15586   4.172  44.832  10.518
44987W        W15587  12.951  10.804   0.952
44988W        W15588  36.029  18.556   2.739
44989W        W15589  44.709  43.909   3.698
44990W        W15590  16.705  27.167   1.482
44991W        W15591   3.726  13.757   2.815
44992W        W15592  25.584  19.263   2.688
44993W        W15593  35.047   3.172  13.592
44994W        W15594  10.592  32.888  14.824
44995W        W15595  14.302  32.661   3.214
44996W        W15596  25.298  11.096   0.421
44997W        W15597  38.180  44.846  11.185
44998W        W15598  14.117  20.662  12.980
44999W        W15599   6.640  21.999  14.277
45000W        W15600  33.903   4.152  13.997
45001W        W15601  23.729  39.290   0.903
45002W        W15602  13.600  40.820   1.904
45003W        W15603  21.669  20.684  14.776
45004W        W15604  28.174  13.078  11.045
45005W        W15605   4.929  10.901   2.304
45006W        W15606   7.880  11.078   2.200
45007W        W15607  17.056  33.584  13.721
45008W        W15608   2.833  31.953   3.604
45009W        W15609  36.545  37.651   2.783
45010W        W15610  15.125  15.687   1.855
45011W        W15611  22.618  29.529  11.484
45012W        W15612  32.154  16.793  13.905
45013W        W15613  14.681  37.819  12.505
45014W        W15614  20.440  30.009   1.691
45015W        W15615   5.163  10.208   3.894
45016W        W15616   2.787  37.875   1.438
45017W        W15617   5.338  44.792   2.438
45018W        W15618  22.499   4.372   4.627
45019W        W15619  29.349  43.481   2.124
45020W        W15620  32.071  25.295   4.238
45021W        W15621  29.560  38.463  12.383
45022W        W15622  10.883  26.540   3.656
45023W        W15623   0.250   7.356  12.428
45024W        W15624  21.237  10.329   1.664
45025W        W15625  10.182  40.003   1.152
45026W        W15626  24.312  26.595   4.610
45027W        W15627  19.945   5.815  11.994
45028W        W15628   6.332  29.194  13.830
45029W        W15629  19.589  40.836   4.628
45030W        W15630  24.135   5.342   4.007
45031W        W15631  28.390  30.184  11.526
45032W        W15632   1.370   5.655   2.199
45033W        W15633  33.230  32.787  11.522
45034W        W15634  44.320  27.494   1.971
45035W        W15635  25.258   9.259   4.130
45036W        W15636   6.628  12.740  13.467
45037W        W15637  32.984  26.551   3.249
45038W        W15638  16.791  33.387   0.636
45039W        W15639  15.895  44.392  11.139
45040W        W15640   4.701  25.018  13.933
45041W        W15641   8.501  18.257   4.156
45042W        W15642  27.973  12.701  11.539
45043W        W15643  31.907  18.153   1.944
45044W        W15644   6.310  22.411  10.535
45045W        W15645  21.979   6.154   4.912
45046W        W15646  18.065  25.035   0.029
45047W        W15647   8.431  36.514  13.437
45048W        W15648  27.462   6.053  11.115
45049W        W15649  43.412  28.041   3.770
45050W        W15650   0.758  10.536   2.827
45051W        W15651  32.415   8.123   1.867
45052W        W15652  11.837  40.834  13.835
45053W        W15653  15.266  41.074  11.674
45054W        W15654   5.280   0.122  14.743
45055W        W15655  13.785  26.171   4.188
45056W        W15656  25.577  39.519  10.897
45057W        W15657  36.365   3.255  12.375
45058W        W15658   3.264  30.187  10.850
45059W        W15659  43.448  31.103  12.046
45060W        W15660  37.999  44.889  14.581
45061W        W15661   3.951  21.306  11.122
45062W        W15662  44.506  20.545   5.043
45063W        W15663  33.071   9.822  11.186
45064W        W15664  12.695  34.603  10.374
45065W        W15665  13.665  31.617   0.048
45066W        W15666  34.324  11.739  10.718
45067W        W15667   6.848  14.271   4.657
45068W        W15668  36.860  25.979  11.010
45069W        W15669  36.857  40.593  13.375
45070W        W15670   3.945  14.469  14.063
45071W        W15671  24.542  18.622  11.507
45072W        W15672  36.977  28.270   2.669
45073W        W15673  37.768  43.327  11.975
45074W        W15674  34.556  41.990   3.096
45075W        W15675   4.889  24.486   1.456
45076W        W15676  26.242  23.724   2.266
45077W        W15677   0.495   9.889   4.711
45078W        W15678  37.436  34.537   0.992
45079W        W15679  32.452  31.592   1.286
45080W        W15680  30.083  10.549   2.253
45081W        W15681  27.790  35.053   2.246
45082W        W15682   4.691  44.050   2.922
45083W        W15683  34.928  23.713  11.990
45084W        W15684  10.392  33.390  13.493
45085W        W15685  20.779  39.013  13.371
45086W        W15686  24.026  24.905  11.224
45087W        W15687  37.007  22.226  11.617
45088W        W15688  39.331  22.770   4.239
45089W        W15689   2.299   1.803   4.541
45090W        W15690  14.131  31.324   2.148
45091W        W15691  12.246  41.702  14.387
45092W        W15692  41.862  20.031  13.053
45093W        W15693  18.850  23.072   4.652
45094W        W15694  43.601  35.964  12.086
45095W        W15695   7.948  28.156   3.615
45096W        W15696  32.908   3.236   1.044
45097W        W15697  35.457  37.076  11.583
45098W        W15698   4.543  19.560   2.585
45099W        W15699   5.894  30.452   3.421
45100W        W15700  11.838  31.251   1.908
45101W        W15701   3.761  38.458   2.627
45102W        W15702  33.830   8.295  14.733
45103W        W15703  29.991  28.891   2.672
45104W        W15704  25.120   5.746   4.509
45105W        W15705  37.421  24.083  13.846
45106W        W15706   4.658  22.209  12.269
45107W        W15707  23.045  10.292  14.064
45108W        W15708   6.748  14.395   3.718
45109W        W15709  10.414  22.151   1.212
45110W        W15710  42.055  37.852   3.416
45111W        W15711  29.935  35.102   0.428
45112W        W15712  22.319  23.579   1.312
45113W        W15713   8.675  42.506  10.635
45114W        W15714  24.180  41.919  13.973
45115W        W15715  15.561  12.504  10.265
45116W        W15716  41.430  19.022  11.337
45117W        W15717  28.024  11.217   2.012
45118W        W15718  30.401   1.051  12.356
45119W        W15719  41.518  32.427   1.445
45120W        W15720  41.231  43.388   3.665
45121W        W15721  24.893  44.769   1.597
45122W        W15722  35.942  30.658  13.447
45123W        W15723  10.836  19.136  14.936
45124W        W15724  37.581  19.204  11.409
45125W        W15725  19.626  21.176  13.386
45126W        W15726   3.844  29.689  12.622
45127W        W15727  38.117  27.212   0.982
45128W        W15728  35.046  11.353   3.514
45129W        W15729  11.749  39.829  11.157
45130W        W15730  44.534  21.409   0.294
45131W        W15731  33.664  13.652   4.263
45132W        W15732  37.587  27.393  11.424
45133W        W15733  29.290  22.987  10.817
45134W        W15734  36.087  30.448  14.351
45135W        W15735  35.648  16.184  13.382
45136W        W15736   4.269  26.359   2.667
45137W        W15737  39.490  38.601   1.334
45138W        W15738  42.056   1.422   0.246
45139W        W15739  44.827  26.138  12.434
45140W        W15740  30.915  24.466  13.500
45141W        W15741  27.969  23.545  14.527
45142W        W15742  32.896  29.173   3.544
45143W        W15743  32.538  22.610   3.206
45144W        W15744  21.287  24.322  12.071
45145W        W15745  44.447  10.241   4.058
45146W        W15746  34.034  27.262   1.332
45147W        W15747   3.148  41.768  12.138
45148W        W15748  15.601  24.794   0.317
45149W        W15749  35.826  34.159   1.560
45150W        W15750   7.827  35.959  13.030
45151W        W15751  35.841  42.436  13.041
45152W        W15752  38.959   5.274  14.562
45153W        W15753  44.149  23.182   4.525
45154W        W15754   1.006  19.742   1.542
45155W        W15755   7.228   6.621  12.360
45156W        W15756  29.140   3.536  11.054
45157W        W15757   2.806   7.755   4.288
45158W        W15758   4.508  10.472   1.318
45159W        W15759  38.870  37.835  11.496
45160W        W15760  20.711  31.225  13.339
45161W        W15761  27.803  38.966   2.387
45162W        W15762  14.896  30.929  12.478
45163W        W15763   7.328  32.515  10.925
45164W        W15764  30.975  24.160   1.331
45165W        W15765  41.975  22.978   2.731
45166W        W15766   5.934  36.757   1.240
45167W        W15767   2.348  12.326  12.936
45168W        W15768  40.584  15.308  14.376
45169W        W15769   9.260  34.055  13.296
45170W        W15770  28.866  29.619  13.877
45171W        W15771  40.901  29.690  14.423
45172W        W15772  26.653  17.530  13.105
45173W        W15773   2.479  40.437  13.536
45174W        W15774  16.229  12.065   4.315
45175W        W15775  44.718  33.844   3.460
45176W        W15776   4.989  24.679  10.619
45177W        W15777  11.118  10.292   4.703
45178W        W15778  22.009   8.806   0.378
45179W        W15779  37.895  37.489   1.934
45180W        W15780  39.997  44.909   3.274
45181W        W15781   3.300  36.737  13.810
45182W        W15782   4.833  15.710  14.358
45183W        W15783  11.834  22.118   4.594
45184W        W15784  18.339  12.327  12.251
45185W        W15785  32.342   1.359  11.978
45186W        W15786  36.095   7.743   0.841
45187W        W15787  21.763  25.653   4.302
45188W        W15788   3.809   4.189  10.445
45189W        W15789  43.350  31.051   2.238
45190W        W15790  21.048   5.258   4.018
45191W        W15791   2.032  15.833  11.609
45192W        W15792  28.415  36.806   1.308
45193W        W15793  30.193  38.430  10.646
45194W        W15794  30.574  31.413  12.898
45195W        W15795   3.953   8.784   2.718
45196W        W15796  19.578  39.278   0.010
45197W        W15797  36.941   1.004   4.840
45198W        W15798   0.868   2.762  11.480
45199W        W15799  19.785  22.190  14.775
45200W        W15800  21.138  29.536   0.721
45201W        W15801  22.624  37.899   1.455
45202W        W15802  32.554  34.989  14.819
45203W        W15803  35.868  22.927  11.193
45204W        W15804   1.026  43.405   3.703
45205W        W15805  29.147  15.352   2.295
45206W        W15806  16.708  32.430  11.701
45207W        W15807   7.925  13.748  11.117
45208W        W15808  27.094   2.485   0.528
45209W        W15809  12.514  41.999   4.563
45210W        W15810  33.439  21.456  14.085
45211W        W15811   9.745   6.914   2.225
45212W        W15812  13.327  35.492   0.009
45213W        W15813  25.054  44.551  11.507
45214W        W15814  26.577  38.609  10.537
45215W        W15815  26.616   0.304   0.407
45216W        W15816   2.291  23.708   2.562
45217W        W15817  34.468  38.393   0.875
45218W        W15818  28.910  32.572   3.323
45219W        W15819  19.476  23.952  10.658
45220W        W15820  41.510  21.729   2.961
45221W        W15821  26.784  26.759   1.112
45222W        W15822  34.655  24.249  11.146
45223W        W15823   2.809  29.944  10.631
45224W        W15824  23.130  34.092   4.559
45225W        W15825  16.627   4.406   2.394
45226W        W15826  15.757  31.293   4.647
45227W        W15827  35.588   7.403   1.340
45228W        W15828  40.328  12.399   1.381
45229W        W15829   1.848   1.341  11.306
45230W        W15830  31.443   7.344  11.175
45231W        W15831  36.487  23.996  13.511
45232W        W15832  35.462  36.547  10.742
45233W        W15833  28.933  25.213  11.623
45234W        W15834  35.923  18.723   0.466
45235W        W15835  29.043  20.896  14.395
45236W        W15836   9.353  10.856  14.887
45237W        W15837  26.009  25.186   2.333
45238W        W15838  27.027   7.868  14.843
45239W        W15839  10.829  15.554  11.050
45240W        W15840  39.946   8.111  10.857
45241W        W15841   1.669  26.489  13.792
45242W        W15842  15.575  26.224  14.806
45243W        W15843  17.711   2.975  12.581
45244W        W15844  38.564  21.958  13.343
45245W        W15845  38.374  28.660   3.878
45246W        W15846  41.589  32.454   2.959
45247W        W15847  17.594  38.905  14.364
45248W        W15848   8.250  18.811   1.877
45249W        W15849  27.518  42.870   4.649
45250W        W15850  10.384  36.404   4.175
45251W        W15851  44.982  11.596   0.921
45252W        W15852   7.043  28.571  11.479
45253W        W15853  22.509  13.464  11.629
45254W        W15854   1.311   8.938   4.021
45255W        W15855  26.220  36.016  12.791
45256W        W15856   9.713   7.115  13.367
45257W        W15857  36.883  23.180  12.153
45258W        W15858  18.617  28.957  11.360
45259W        W15859  34.568  10.644   1.419
45260W        W15860  32.128   9.250  13.040
45261W        W15861  32.496  25.779   1.430
45262W        W15862  16.551   0.236   0.957
45263W        W15863  19.267  25.680  13.425
45264W        W15864  34.948  10.748   4.245
45265W        W15865  10.775  40.218   0.052
45266W        W15866   3.928   1.459  14.335
45267W        W15867  12.510  13.940   1.277
45268W        W15868  14.741  41.632  11.037
45269W        W15869  27.906  30.609  14.063
45270W        W15870   8.826   0.072   1.309
45271W        W15871  27.157   6.839   0.742
45272W        W15872  26.228  28.753  12.114
45273W        W15873  41.322  27.297   3.347
45274W        W15874  43.011  28.983   4.307
45275W        W15875  26.680  14.187   3.376
45276W        W15876  22.914  18.047  11.836
45277W        W15877  26.152   5.840   4.550
45278W        W15878  33.957  14.409   2.182
45279W        W15879  41.743  15.017   1.944
45280W        W15880   9.371  27.604  11.173
45281W        W15881  30.643  11.957  11.151
45282W        W15882   1.231   0.814   0.812
45283W        W15883  28.031   2.042   1.903
45284W        W15884  15.343  35.271  13.911
45285W        W15885  40.004  37.995  12.564
45286W        W15886  30.532  14.381  14.034
45287W        W15887  28.297  34.833   4.718
45288W        W15888  13.623  25.030  12.135
45289W        W15889  31.943  38.057   1.112
45290W        W15890  34.878  42.549  14.340
45291W        W15891  25.883   3.294  10.704
45292W        W15892  21.271  10.959   3.298
45293W        W15893  44.202   6.612  12.954
45294W        W15894  30.112  40.163  11.599
45295W        W15895   6.560  43.469   2.447
45296W        W15896  23.484  44.978  14.527
45297W        W15897   2.503  29.592   0.657
45298W        W15898  33.313  28.168  12.338
45299W        W15899  42.705  40.591  12.491
45300W        W15900  21.105   2.531   3.141
45301W        W15901  28.005   8.726  13.881
45302W        W15902  32.861  14.556  12.432
45303W        W15903  27.037  13.624  14.537
45304W        W15904  21.629  38.168  13.027
45305W        W15905  23.195  30.094   4.524
45306W        W15906   6.352   6.942  11.215
45307W        W15907   0.294  32.968   3.094
45308W        W15908  38.856  36.423  11.678
45309W        W15909  14.310   8.363  12.970
45310W        W15910  25.264  24.627  14.832
45311W        W15911  33.543  41.215   3.033
45312W        W15912  43.043  17.874  11.921
45313W        W15913  35.973  43.893  10.660
45314W        W15914  25.545  36.142   4.121
45315W        W15915  43.488  33.706   2.298
45316W        W15916  42.323   2.481  11.655
45317W        W15917  39.048   1.022  13.998
45318W        W15918  12.331  10.663  13.950
45319W        W15919  28.232  35.576  12.379
45320W        W15920  30.905  22.179  11.346
45321W        W15921  14.330  16.777  12.777
45322W        W15922  43.947   0.024  14.799
45323W        W15923  21.187  10.231   0.245
45324W        W15924  20.038  18.587  13.365
45325W        W15925  38.874  19.610  11.136
45326W        W15926  18.273   4.308   0.322
45327W        W15927  22.817   6.872  11.512
45328W        W15928  27.197  33.164   2.950
45329W        W15929  43.230  16.150  13.056
45330W        W15930   5.833  37.441   0.372
45331W        W15931  43.019  13.767   3.691
45332W        W15932  43.071  42.263  14.091
45333W        W15933  39.382  14.693  12.198
45334W        W15934  24.083  32.556   0.710
45335W        W15935   5.045  44.932  14.240
45336W        W15936  43.056   8.685   3.666
45337W        W15937  38.925  36.949  11.876
45338W        W15938  26.545  29.027   4.522
45339W        W15939  40.450  35.520  14.695
45340W        W15940  44.750   5.367   0.796
45341W        W15941  29.676  27.430  12.592
45342W        W15942   2.264  27.697   4.508
45343W        W15943  15.224  26.456   4.836
45344W        W15944  21.392   6.404   0.302
45345W        W15945   2.647  27.999  10.696
45346W        W15946  35.080  44.476   3.712
45347W        W15947   2.201  40.764  11.073
45348W        W15948  42.289   8.701   2.177
45349W        W15949  31.860   2.410  11.861
45350W        W15950  38.962   4.768  14.976
45351W        W15951  44.301  44.022  14.471
45352W        W15952  24.277   2.979  11.939
45353W        W15953  27.249  34.613  12.532
45354W        W15954   8.362  14.746   0.899
45355W        W15955   6.079   1.559  13.413
45356W        W15956  41.769  37.614  12.563
45357W        W15957  24.705  19.662   1.390
45358W        W15958  36.317  36.161   3.711
45359W        W15959  17.379   7.386   4.043
45360W        W15960  43.952  39.858  10.843
45361W        W15961  18.839   3.107  10.622
45362W        W15962   8.865  15.755  14.319
45363W        W15963  31.189  14.277   3.373
45364W        W15964  30.971  16.885   4.466
45365W        W15965  36.805  31.527  13.428
45366W        W15966   3.023  22.055   1.208
45367W        W15967  16.312  10.573  13.220
45368W        W15968   1.448  26.926   1.708
45369W        W15969  16.260  38.556  13.115
45370W        W15970   0.864  22.627  12.884
45371W        W15971   8.738  43.529  11.589
45372W        W15972  39.889  28.140   4.639
45373W        W15973  34.759   5.330   2.193
45374W        W15974  12.235  42.041  13.999
45375W        W15975  40.852  25.031   1.239
45376W        W15976  26.888  44.405  14.581
45377W        W15977   9.325  37.848  10.685
45378W        W15978  30.882   5.756   4.798
45379W        W15979  18.916   6.471  11.192
45380W        W15980  42.927  29.301  12.103
45381W        W15981  35.641  44.482   3.773
45382W        W15982   4.882  34.975  13.365
45383W        W15983  18.121  23.216   3.880
45384W        W15984  36.208  24.363   1.734
45385W        W15985  19.420  39.549  11.941
45386W        W15986  11.625  27.081   2.516
45387W        W15987  29.766   4.202   4.272
45388W        W15988   7.201  22.069   1.236
45389W        W15989  39.370  31.415   4.884
45390W        W15990   3.973  18.639  14.997
45391W        W15991  19.024  41.296   2.428
45392W        W15992  43.011  11.906   3.114
45393W        W15993  32.386  23.308   1.229
45394W        W15994  12.811  16.073  12.116
45395W        W15995  43.399  33.792   4.470
45396W        W15996  31.444  12.659   2.293
45397W        W15997   8.444  36.655   2.178
45398W        W15998   5.949  30.405  10.490
45399W        W15999  21.972  42.306   0.986
45400W        W16000  19.691  35.358   0.824
45401W        W16001  28.498  42.838   3.651
45402W        W16002  41.779   3.352   2.297
45403W        W16003  11.611  44.392   2.608
45404W        W16004  27.473   2.417   4.532
45405W        W16005   4.165  23.919  13.222
45406W        W16006  15.094  36.454   1.818
45407W        W16007  16.842  35.748  11.204
45408W        W16008  35.698  19.296   3.423
45409W        W16009  29.097  38.496   2.162
45410W        W16010  21.974  20.097  11.090
45411W        W16011   0.800  16.312   3.847
45412W        W16012  22.783  37.527   0.198
45413W        W16013  16.562  37.021  10.097
45414W        W16014  40.883   3.723  11.066
45415W        W16015   3.502  22.148   4.335
45416W        W16016  39.483   4.435  14.306
45417W        W16017   3.843  26.966  11.604
45418W        W16018  44.302  35.539  11.968
45419W        W16019   8.592  13.216   0.873
45420W        W16020  19.055  40.412   2.320
45421W        W16021  41.315  44.583   4.120
45422W        W16022   5.972  28.651   2.770
45423W        W16023  14.168  44.846   0.742
45424W        W16024   3.958  24.097   1.329
45425W        W16025  37.987  11.344   2.614
45426W        W16026  31.606  38.748  14.160
45427W        W16027  40.874  38.061   3.603
45428W        W16028  19.056  28.912  11.645
45429W        W16029  23.481  44.071   0.726
45430W        W16030  14.590  15.211  11.844
45431W        W16031   7.444  14.367  12.324
45432W        W16032   9.958  31.712   5.049
45433W        W16033   9.029  41.375   2.166
45434W        W16034  11.172   8.391  12.102
45435W        W16035   8.303  40.966  13.048
45436W        W16036  18.170  26.140  13.988
45437W        W16037   8.043  29.922  12.091
45438W        W16038   8.431  19.624  11.595
45439W        W16039  25.724  19.049   2.165
45440W        W16040   2.219  33.026   2.391
45441W        W16041   0.666  33.454  11.011
45442W        W16042  37.144  33.167   2.038
45443W        W16043   6.909  44.732   4.795
45444W        W16044  29.910  22.592  12.658
45445W        W16045  34.612   7.117  13.058
45446W        W16046  36.391  29.202  13.893
45447W        W16047  26.778  41.085  12.095
45448W        W16048   9.427  36.905  11.950
45449W        W16049  17.514  37.777   9.807
45450W        W16050  41.752  26.598   3.717
45451W        W16051  29.999  22.738   0.738
45452W        W16052  15.325  29.117   4.781
45453W        W16053   5.634  43.026   1.488
45454W        W16054  33.415  34.493   4.781
45455W        W16055  36.913  37.630   1.260
45456W        W16056  25.193  43.971   9.708
45457W        W16057  38.722  14.449  13.923
45458W        W16058  24.523  25.092  14.996
45459W        W16059   0.422  26.452   1.952
45460W        W16060  44.370  10.822  11.692
45461W        W16061  41.708  26.594  12.059
45462W        W16062  10.353   7.589  12.876
45463W        W16063  26.930  43.555  12.624
45464W        W16064  34.560  20.259  12.602
45465W        W16065  21.110  41.254  14.062
45466W        W16066  31.054  34.784   0.527
45467W        W16067  14.159  15.364  14.931
45468W        W16068  16.678  17.506  14.400
45469W        W16069  40.625  31.570  14.375
45470W        W16070  37.523  18.006  10.282
45471W        W16071  29.496  41.547  14.364
45472W        W16072  14.999  15.852   4.982
45473W        W16073   4.365   6.345  11.842
45474W        W16074  44.976   8.640   4.661
45475W        W16075  36.049  25.748  10.723
45476W        W16076  10.206  15.624   0.595
45477W        W16077   6.701   9.897  14.935
45478W        W16078   4.174   3.967   0.920
45479W        W16079  23.457  11.146  12.428
45480W        W16080  20.942   6.674  13.518
45481W        W16081  19.375  10.228   1.441
45482W        W16082  39.875  22.309   2.208
45483W        W16083  13.441  23.580  12.086
45484W        W16084  10.896  10.903  13.475
45485W        W16085  18.532  22.964   2.011
45486W        W16086  42.415   1.344   0.585
45487W        W16087  38.245  28.953  11.025
45488W        W16088  10.296   8.468   3.659
45489W        W16089  24.424  30.517  14.944
45490W        W16090  23.467  24.149   0.489
45491W        W16091   9.058   2.882   4.278
45492W        W16092   4.187  35.733   1.954
45493W        W16093   8.597  32.219  11.174
45494W        W16094  16.515  38.685   2.643
45495W        W16095   0.383   2.184  14.449
45496W        W16096  29.762   6.387   4.856
45497W        W16097  15.042   5.198   3.307
45498W        W16098  21.279  34.499   1.264
45499W        W16099   7.884   0.740   3.735
45500W        W16100  21.102  42.242  12.652
45501W        W16101  23.022  16.856  14.036
45502W        W16102  30.681  11.692  14.473
45503W        W16103   8.359  17.895  12.096
45504W        W16104  27.021  20.205  13.082
45505W        W16105  13.581  39.939   0.486
45506W        W16106  21.093  17.091   2.695
45507W        W16107  14.080  36.879   0.397
45508W        W16108  19.437  34.068   0.449
45509W        W16109  21.023  11.411   3.215
45510W        W16110  29.426  37.867  10.587
45511W        W16111  29.404  21.101  10.337
45512W        W16112  23.626   7.775   3.421
45513W        W16113  19.284  17.082   2.771
45514W        W16114  14.022   2.867  14.863
45515W        W16115  13.561   8.348  11.008
45516W        W16116  41.889  24.513   3.635
45517W        W16117  19.672  41.053  12.073
45518W        W16118   5.671  32.888  14.373
45519W        W16119  20.397  22.963   3.730
45520W        W16120  27.937  43.773  14.269
45521W        W16121  32.030  26.579   4.731
45522W        W16122  31.250  34.827   1.792
45523W        W16123  21.246  38.054   4.535
45524W        W16124  41.432   0.502  13.432
45525W        W16125  15.030  39.423   1.316
45526W        W16126  25.729  19.831   3.570
45527W        W16127   9.638  44.007   3.200
45528W        W16128  29.350  23.896  12.948
45529W        W16129  31.672   5.014   4.714
45530W        W16130  37.874  29.812  11.102
45531W        W16131  28.009  25.517  11.481
45532W        W16132  26.895  25.206   2.842
45533W        W16133  42.363  23.994   1.670
45534W        W16134  23.648  19.027  11.671
45535W        W16135  13.415  11.390  13.293
45536W        W16136  42.981  11.076  12.463
45537W        W16137  11.381  28.153   4.186
45538W        W16138  31.030  36.141  12.515
45539W        W16139  33.877  25.225   3.731
45540W        W16140  22.605   3.523  12.567
45541W        W16141  33.566  34.131   3.437
45542W        W16142  21.424  30.997  10.329
45543W        W16143  10.714  25.915  14.454
45544W        W16144  12.110   8.126   2.850
45545W        W16145  40.820  27.895  12.088
45546W        W16146   1.130   9.606   0.108
45547W        W16147   9.208   6.378   3.742
45548W        W16148  17.952  15.094   1.216
45549W        W16149  16.452  21.764  11.142
45550W        W16150   6.730   6.695  13.354
45551W        W16151   8.348  22.044   4.578
45552W        W16152   8.164  44.273  12.313
45553W        W16153   5.519  18.320  13.256
45554W        W16154  18.792   8.360  13.444
45555W        W16155   5.441  44.213  12.635
45556W        W16156  34.572  19.940   3.539
45557W        W16157   6.532  11.679   1.844
45558W        W16158  22.259  18.088   4.225
45559W        W16159   9.617   7.608  11.083
45560W        W16160  19.839  29.215   1.318
45561W        W16161  30.871  23.302  14.811
45562W        W16162  23.273  24.548   2.729
45563W        W16163  28.727  18.172  12.114
45564W        W16164  27.244   8.415  14.540
45565W        W16165  14.508   6.940  14.070
45566W        W16166  20.180  32.936   1.903
45567W        W16167  38.081  10.853  11.663
45568W        W16168  12.179  28.575   4.925
45569W        W16169   9.781   1.795  13.901
45570W        W16170  44.272   1.501  11.504
45571W        W16171  29.799   2.463  14.435
45572W        W16172   0.543  18.611   2.351
45573W        W16173   0.427  37.606   4.725
45574W        W16174  18.585  33.595  11.490
45575W        W16175   9.299   6.168  14.414
45576W        W16176  39.193  14.758   3.293
45577W        W16177  43.854  43.824  14.713
45578W        W16178   6.591  38.476  10.391
45579W        W16179   3.222   6.304   4.659
45580W        W16180  17.557  17.693  11.249
45581W        W16181   3.835  10.147  13.857
45582W        W16182  35.324  30.633   5.078
45583W        W16183  14.046   9.762  14.903
45584W        W16184  33.780  40.368   4.171
45585W        W16185  37.606  38.300   2.229
45586W        W16186  11.792  41.436   4.537
45587W        W16187  36.858  25.453  13.891
45588W        W16188  31.386  26.190   2.712
45589W        W16189   4.367  12.689   4.731
45590W        W16190  36.999  43.238  12.363
45591W        W16191  42.578  36.887   2.374
45592W        W16192   6.348  29.635  13.591
45593W        W16193   0.444  42.431  10.572
45594W        W16194   7.427  23.161   2.425
45595W        W16195   6.940  36.940   0.460
45596W        W16196  13.560  41.068  14.357
45597W        W16197  12.719  25.540  13.440
45598W        W16198   4.884  44.868  11.537
45599W        W16199  22.286   3.644   0.448
45600W        W16200  24.562  19.660  14.881
45601W        W16201  15.264  23.500   0.710
45602W        W16202  33.037  35.790   3.495
45603W        W16203   5.270  25.179  13.566
45604W        W16204  36.316  40.848  13.272
45605W        W16205  35.985  28.831  12.570
45606W        W16206  20.697  19.706  10.825
45607W        W16207  24.918   5.215   3.075
45608W        W16208  37.603  41.554   2.756
45609W        W16209  13.475  34.668  14.637
45610W        W16210  33.598  26.002  14.084
45611W        W16211   8.477   4.872   4.783
45612W        W16212  10.194  39.249   0.867
45613W        W16213  21.041  36.752   1.178
45614W        W16214  15.539  40.270  11.209
45615W        W16215   2.317  22.258   2.945
45616W        W16216   5.925  20.229   1.810
45617W        W16217  18.113   3.751   3.964
45618W        W16218  12.845   2.460  12.107
45619W        W16219  35.513  32.306  13.981
45620W        W16220  10.294  14.371  11.587
45621W        W16221   7.208  15.234  14.304
45622W        W16222  28.375  24.711  12.097
45623W        W16223  39.933  44.698  13.918
45624W        W16224  42.165  29.515  14.761
45625W        W16225  18.551   7.376  10.153
45626W        W16226  27.910  16.303   4.133
45627W        W16227  12.496  25.741   1.979
45628W        W16228  44.558  21.010  11.951
45629W        W16229  42.834  14.334   1.178
45630W        W16230  10.128  22.284  13.458
45631W        W16231   7.604  38.835  12.498
45632W        W16232  30.488   9.408  12.869
45633W        W16233  10.436  19.570   2.758
45634W        W16234  31.710   0.405   0.859
45635W        W16235  18.837  34.388  11.682
45636W        W16236  10.628  26.798  12.025
45637W        W16237  24.022  13.222   2.383
45638W        W16238   1.757  31.443  11.094
45639W        W16239   1.455  17.244  13.448
45640W        W16240  12.289  28.415   2.133
45641W        W16241   9.573  29.093  11.383
45642W        W16242  14.007   5.946  13.880
45643W        W16243  33.038  19.364  13.552
45644W        W16244   2.479   4.746   1.377
45645W        W16245  23.891  13.352  13.505
45646W        W16246  11.058  16.759   2.736
45647W        W16247  28.745  20.796  12.067
45648W        W16248  42.443  37.580   0.139
45649W        W16249  22.728  13.875  14.380
45650W        W16250   1.422  40.990   2.799
45651W        W16251  15.201  31.342   2.673
45652W        W16252  10.617   4.848  12.989
45653W        W16253  19.515  39.238  11.542
45654W        W16254  13.613  38.797  12.666
45655W        W16255   1.349  20.786  11.534
45656W        W16256  13.159  39.502   1.545
45657W        W16257   7.125  26.690   4.208
45658W        W16258  17.308  44.735  11.556
45659W        W16259  10.308  23.548  12.844
45660W        W16260  16.367   7.280   4.647
45661W        W16261  39.806  18.384   1.269
45662W        W16262  16.156  27.442   4.683
45663W        W16263  42.305   9.803  14.789
45664W        W16264  43.475  18.561   3.779
45665W        W16265  34.622  11.703   1.332
45666W        W16266  29.597  17.020  14.519
45667W        W16267  11.693  22.956  11.679
45668W        W16268   6.741  23.510   2.615
45669W        W16269  20.765   0.750   1.231
45670W        W16270  19.216   6.343  10.763
45671W        W16271  11.565  22.703  12.113
45672W        W16272  21.460   4.436   2.311
45673W        W16273  31.425   1.722   2.691
45674W        W16274   3.804  44.470  10.312
45675W        W16275  33.827  17.158   2.112
45676W        W16276  30.165  16.306   4.693
45677W        W16277   9.223  44.304   3.333
45678W        W16278   9.333  15.574  14.469
45679W        W16279  27.604  12.888   3.316
45680W        W16280  10.305   5.499  11.894
45681W        W16281  29.241   8.688   3.170
45682W        W16282  10.594   3.413   0.988
45683W        W16283  32.175   2.682   2.424
45684W        W16284   9.812   3.273  13.053
45685W        W16285  19.534  23.676  10.219
45686W        W16286   2.365  18.143  13.032
45687W        W16287  41.933   4.046   0.449
45688W        W16288  15.590  42.030   0.385
45689W        W16289  28.609  43.259   3.936
45690W        W16290  38.946  20.545   1.710
45691W        W16291   7.701  18.782   0.796
45692W        W16292  16.751  44.308   4.764
45693W        W16293  17.531  39.898  12.396
45694W        W16294   4.830  31.009   4.000
45695W        W16295  12.103  25.005   2.280
45696W        W16296  10.016  35.123  11.275
45697W        W16297   2.296  42.372   2.879
45698W        W16298  29.434   4.462  13.299
45699W        W16299  12.561  25.592   0.728
45700W        W16300  38.366  14.418  13.341
45701W        W16301  42.008   7.730  14.479
45702W        W16302  23.467  22.145   1.827
45703W        W16303   5.514  11.254  12.112
45704W        W16304   2.688  24.961  11.725
45705W        W16305  23.082  44.393   2.230
45706W        W16306  34.498  15.860  13.262
45707W        W16307  41.426  14.640  13.070
45708W        W16308  43.974  38.572   2.713
45709W        W16309  17.519  42.495  14.483
45710W        W16310   4.619   7.949   2.751
45711W        W16311  11.197   9.730  12.090
45712W        W16312   8.855   1.751  11.564
45713W        W16313  29.602  17.543   4.588
45714W        W16314  27.253  42.914  11.402
45715W        W16315  34.595   8.783   3.687
45716W        W16316  29.258   0.866  14.548
45717W        W16317  35.405  15.281   4.520
45718W        W16318  38.880  25.224  10.307
45719W        W16319  27.544  39.564   0.084
45720W        W16320  39.073  20.601  14.052
45721W        W16321   1.354   2.278   1.347
45722W        W16322  35.831  34.442  11.419
45723W        W16323  14.353  36.435  13.968
45724W        W16324  20.140  23.107   4.171
45725W        W16325   6.371  41.873  10.425
45726W        W16326  27.505  40.352  13.559
45727W        W16327  40.074   7.177   0.443
45728W        W16328  15.387   0.236  14.580
45729W        W16329  19.742   4.928  14.076
45730W        W16330  43.961   9.214  11.104
45731W        W16331  39.052  21.048  10.680
45732W        W16332  15.084  44.400   4.574
45733W        W16333  33.026   2.601  14.272
45734W        W16334  13.751  18.038   1.830
45735W        W16335  44.434   4.803   2.804
45736W        W16336   4.351  39.053  11.326
45737W        W16337  37.983  14.129   3.251
45738W        W16338  19.103  27.273  14.831
45739W        W16339   0.002  18.333   0.246
45740W        W16340  29.007  11.943  12.471
45741W        W16341  39.629  32.863   2.212
45742W        W16342  29.963  17.705  11.651
45743W        W16343  31.855  40.445   3.572
45744W        W16344  28.055  14.194   3.752
45745W        W16345  24.132  40.465   2.614
45746W        W16346  34.429  37.080   1.370
45747W        W16347  42.847  24.613   4.266
45748W        W16348  34.890   0.179   2.746
45749W        W16349  42.894  28.600   3.664
45750W        W16350   8.433   8.634  13.978
45751W        W16351   0.241  27.821   4.593
45752W        W16352  32.306  34.111  13.351
45753W        W16353  36.306  24.092   1.310
45754W        W16354  10.477  44.451   1.679
45755W        W16355  24.647  23.282  13.445
45756W        W16356  13.704  16.908   0.036
45757W        W16357  32.539  14.857   0.810
45758W        W16358  12.791  24.051   4.659
45759W        W16359  28.419   1.823  12.125
45760W        W16360  19.450   3.736   1.298
45761W        W16361  33.055  20.153   1.972
45762W        W16362  29.968  24.875   0.803
45763W        W16363  17.178  32.025  13.286
45764W        W16364  38.414   6.448  11.232
45765W        W16365  35.823  10.293   5.223
45766W        W16366  32.103   2.005   0.427
45767W        W16367  41.242  43.610   2.750
45768W        W16368  10.937  20.611   4.621
45769W        W16369   5.639  21.664  13.422
45770W        W16370  28.014  13.691   2.106
45771W        W16371  29.247   1.715   3.785
45772W        W16372  19.647   1.453   0.035
45773W        W16373  38.930  40.218   5.161
45774W        W16374  30.907  31.626   2.251
45775W        W16375  24.938  15.554  13.407
45776W        W16376  44.349  33.102  12.779
45777W        W16377  21.722   3.213   1.667
45778W        W16378  24.743  28.992   0.370
45779W        W16379   5.648   6.970  12.983
45780W        W16380  28.602   2.523   1.370
45781W        W16381  17.672  31.679   0.826
45782W        W16382  16.843  10.300   0.904
45783W        W16383  20.960  24.091   5.216
45784W        W16384  23.368  27.987  13.948
45785W        W16385  39.297  22.470   3.750
45786W        W16386   4.618  27.989  11.526
45787W        W16387  32.105  39.302   0.134
45788W        W16388  29.875  41.980  13.842
45789W        W16389  44.983  15.190  14.757
45790W        W16390  36.960   2.334   4.296
45791W        W16391  31.609  31.193   3.702
45792W        W16392  36.625  43.745   0.341
45793W        W16393  42.003  13.301  12.381
45794W        W16394   0.859  20.603   4.433
45795W        W16395  23.054   6.900   0.878
45796W        W16396  14.696   7.355  14.805
45797W        W16397  18.583  22.154   0.308
45798W        W16398  27.587  25.079   1.738
45799W        W16399  44.526  38.823   1.457
45800W        W16400  23.038  12.387   0.943
45801W        W16401  28.070   4.254  14.343
45802W        W16402  27.456  43.361  13.459
45803W        W16403  36.522   2.370   4.565
45804W        W16404  42.031  17.187  10.569
45805W        W16405   1.991   1.837  11.110
45806W        W16406  11.517  32.228   1.657
45807W        W16407   7.627   0.212  11.546
45808W        W16408  17.593  27.672  12.113
45809W        W16409  42.713  35.569   0.901
45810W        W16410   9.282  23.160   0.979
45811W        W16411   8.324   2.085   3.969
45812W        W16412  32.515  16.066   2.163
45813W        W16413  31.339  19.564  11.120
45814W        W16414  23.998   2.281  13.572
45815W        W16415  44.521  28.940   2.261
45816W        W16416  16.079   5.355   1.313
45817W        W16417  33.018  20.467   1.438
45818W        W16418  17.179  44.042   1.268
45819W        W16419  29.466  31.166   4.777
45820W        W16420  32.304   6.852  12.752
45821W        W16421  28.861   5.784  11.512
45822W        W16422  38.312   7.862   3.630
45823W        W16423   6.035  36.673   2.888
45824W        W16424  33.655  23.393  10.263
45825W        W16425   2.097  28.191  13.481
45826W        W16426  15.235  10.140   3.813
45827W        W16427   3.491   2.777   1.636
45828W        W16428  38.112  41.578   2.717
45829W        W16429   5.634  22.509   1.903
45830W        W16430  35.086  29.095  13.463
45831W        W16431  38.116  12.221  12.054
45832W        W16432  14.099  42.311   3.163
45833W        W16433  20.259   7.359  13.110
45834W        W16434   7.256  10.339   3.210
45835W        W16435  30.634  33.086   1.926
45836W        W16436  43.573  27.062  12.884
45837W        W16437  16.166  40.412  14.493
45838W        W16438   5.096  15.627   4.520
45839W        W16439   9.650  30.296  14.796
45840W        W16440  34.123  24.350   0.779
45841W        W16441  38.993  13.300  13.866
45842W        W16442  30.411  39.822   1.390
45843W        W16443  22.838  11.520   3.330
45844W        W16444  29.242  37.634  11.509
45845W        W16445  30.731  16.024   2.262
45846W        W16446  33.587  41.649   2.234
45847W        W16447  26.710  41.905  12.862
45848W        W16448  24.989  36.231   1.875
45849W        W16449  44.357  24.225   4.168
45850W        W16450  35.186   2.283  14.060
45851W        W16451  17.154  44.689  12.373
45852W        W16452  41.028  28.071  14.064
45853W        W16453  30.439  42.260   2.267
45854W        W16454  21.125   4.009  13.593
45855W        W16455  29.018  35.242   0.694
45856W        W16456  10.170   7.135  13.651
45857W        W16457  24.452  28.500   1.443
45858W        W16458   3.632  21.495  13.509
45859W        W16459   0.767   6.346  12.295
45860W        W16460  19.704  43.328   4.502
45861W        W16461  33.399  12.699  10.692
45862W        W16462   7.426  20.165   4.118
45863W        W16463  36.282  19.946   4.244
45864W        W16464  29.025  33.796  14.873
45865W        W16465  22.316  38.862  13.540
45866W        W16466   6.985  36.948  11.721
45867W        W16467   3.734  34.883  12.905
45868W        W16468   7.531  34.762   0.381
45869W        W16469  24.403   5.364  12.535
45870W        W16470  32.147  39.516  10.047
45871W        W16471   9.187  13.718  14.792
45872W        W16472  28.264  18.192  11.214
45873W        W16473   0.214  15.141   2.237
45874W        W16474   3.210  18.710   3.639
45875W        W16475   4.117   5.550  10.852
45876W        W16476  30.688  33.979   0.289
45877W        W16477  33.338  25.988  13.620
45878W        W16478  32.930  15.715   4.333
45879W        W16479   6.421   0.856  11.724
45880W        W16480  17.073  16.466  12.071
45881W        W16481  21.307  19.388  12.118
45882W        W16482  36.080  27.822  10.962
45883W        W16483  15.582  44.790   1.861
45884W        W16484  13.467  19.112  14.962
45885W        W16485  15.538  17.077   0.230
45886W        W16486  44.477   1.009   0.911
45887W        W16487   6.665  11.210  13.650
45888W        W16488   6.982  38.772  11.211
45889W        W16489  11.324  37.678  10.739
45890W        W16490  34.137  14.736  14.401
45891W        W16491  35.160  40.984   1.207
45892W        W16492  26.480  23.025   0.934
45893W        W16493  34.660  44.881   1.150
45894W        W16494  41.492  27.527  14.477
45895W        W16495  42.485  15.334  12.062
45896W        W16496  22.818  37.896  10.629
45897W        W16497  24.601   5.331   2.408
45898W        W16498  10.171  12.362  12.859
45899W        W16499  10.221  18.488  13.854
45900W        W16500  28.873  24.090   2.387
45901W        W16501  31.010  37.602   2.681
45902W        W16502  40.177  42.797  13.952
45903W        W16503  43.102  10.526  13.916
45904W        W16504  32.407  20.551  14.599
45905W        W16505  37.248  12.573  13.609
45906W        W16506  32.965  27.110   3.422
45907W        W16507  20.371  32.061  12.528
45908W        W16508  14.651  34.561  13.901
45909W        W16509  25.673  32.443  11.663
45910W        W16510  33.975  38.127   4.026
45911W        W16511  40.987  44.308   2.277
45912W        W16512  35.692  40.829   1.208
45913W        W16513  11.731   8.292   4.516
45914W        W16514   2.246  38.108   2.827
45915W        W16515  13.155  19.738  11.216
45916W        W16516  21.681  24.541  12.548
45917W        W16517  37.508  21.375  13.945
45918W        W16518  25.033  37.866   2.703
45919W        W16519  35.967  14.645   3.249
45920W        W16520  41.583   1.091  13.387
45921W        W16521  19.154   6.300   3.420
45922W        W16522  29.978  27.844  14.057
45923W        W16523  11.859  44.021  12.801
45924W        W16524   4.220  29.188  11.397
45925W        W16525  29.052  17.222  14.486
45926W        W16526  31.745   6.348  10.480
45927W        W16527  41.772  15.225   3.784
45928W        W16528  34.875  25.163  11.072
45929W        W16529  14.216  33.915  13.962
45930W        W16530  24.122   6.435   1.903
45931W        W16531  11.382  16.975  12.488
45932W        W16532  17.725   4.754   2.902
45933W        W16533  43.434  26.946  13.386
45934W        W16534  10.512  43.839   1.148
45935W        W16535  14.098  35.128  10.607
45936W        W16536   9.809  20.320   4.852
45937W        W16537   4.906  33.049  13.007
45938W        W16538  41.973   8.666   3.837
45939W        W16539  36.418  15.567  12.869
45940W        W16540  40.619  41.878  12.601
45941W        W16541  25.741  24.035  10.603
45942W        W16542  33.045   4.365  14.518
45943W        W16543   9.295  38.838  11.571
45944W        W16544   2.326  21.680  12.977
45945W        W16545  29.620  24.243  11.762
45946W        W16546  35.332  18.767   2.455
45947W        W16547  22.548   5.463  12.044
45948W        W16548   5.508  27.580  10.557
45949W        W16549  36.125  21.281  11.970
45950W        W16550   5.233  14.685  14.338
45951W        W16551  28.934  39.597   2.832
45952W        W16552  15.299  10.413  13.320
45953W        W16553  41.217   0.076   0.756
45954W        W16554  41.278  18.479  14.423
45955W        W16555  19.620  36.910   4.560
45956W        W16556   3.428  13.090   2.366
45957W        W16557   0.201  14.111   3.099
45958W        W16558  19.751  19.547  10.515
45959W        W16559  14.550  39.353  13.810
45960W        W16560   2.029   8.296  13.441
45961W        W16561   8.289  16.131  14.272
45962W        W16562  36.332  34.257   2.362
45963W        W16563   5.501  39.081   1.817
45964W        W16564   2.234  23.803  10.793
45965W        W16565  14.305  29.688  11.211
45966W        W16566  28.165  30.440  14.508
45967W        W16567  26.376   6.975  12.596
45968W        W16568  13.151  18.288  13.073
45969W        W16569  39.406  27.968   4.658
45970W        W16570  38.981   4.264  14.323
45971W        W16571   0.282  33.515  14.782
45972W        W16572  21.683  25.228  13.213
45973W        W16573  33.562  22.308   0.306
45974W        W16574  29.462  16.161  14.859
45975W        W16575  38.041   3.504   1.787
45976W        W16576   1.015  31.529   4.191
45977W        W16577  35.797   6.633   4.530
45978W        W16578  40.567  34.321   1.746
45979W        W16579  35.401   0.356  14.777
45980W        W16580  32.341  15.335   0.731
45981W        W16581  38.154  15.112  14.512
45982W        W16582   0.488  30.589   0.232
45983W        W16583  20.394  15.295  10.652
45984W        W16584  17.795   5.305  14.515
45985W        W16585  38.480  16.500   2.368
45986W        W16586  37.849  16.053   0.380
45987W        W16587   7.130  41.752   0.483
45988W        W16588  21.933  37.665  12.175
45989W        W16589  21.139  33.794  11.124
45990W        W16590  14.575  30.151  14.529
45991W        W16591   6.327  39.313   1.337
45992W        W16592  13.796  18.323   3.230
45993W        W16593  21.433  34.940  14.389
45994W        W16594  11.309   0.961  13.891
45995W        W16595   4.168  20.541  14.409
45996W        W16596  17.870  38.125   5.641
45997W        W16597  43.010   4.527   4.031
45998W        W16598  18.265  41.299   0.350
45999W        W16599  10.356  15.513  12.010
46000W        W16600   3.965  38.927   0.653
46001W        W16601  23.387   3.429   0.682
46002W        W16602  11.344   2.340  13.053
46003W        W16603  38.412  32.220   0.564
46004W        W16604  21.671  40.016   4.632
46005W        W16605  29.353  12.167   3.119
46006W        W16606  24.076   7.905   1.027
46007W        W16607   4.640  10.794  14.508
46008W        W16608  33.059  23.297   2.819
46009W        W16609   4.624  29.219   1.416
46010W        W16610  10.981  11.167   0.246
46011W        W16611  33.213  41.495   1.703
46012W        W16612  39.828  34.972   2.660
46013W        W16613   4.816  27.228  11.971
46014W        W16614  27.688  26.260  11.556
46015W        W16615  20.079   3.078  11.922
46016W        W16616  41.151  21.379   2.840
46017W        W16617  42.027   0.477   4.701
46018W        W16618  31.104  36.936  12.130
46019W        W16619  16.771  34.760  11.428
46020W        W16620   5.178  25.143  14.077
46021W        W16621   0.938  12.821   0.521
46022W        W16622  18.090  28.067  10.110
46023W        W16623  26.082   8.647   2.241
46024W        W16624  43.951   5.907  11.156
46025W        W16625  33.797   2.794  14.915
46026W        W16626   5.015   5.701   4.652
46027W        W16627  19.127   8.863   4.611
46028W        W16628  22.080  35.206  12.156
46029W        W16629  43.027   7.458   0.314
46030W        W16630  32.820  13.708   1.274
46031W        W16631  37.045  43.700  11.495
46032W        W16632  21.214  42.282  10.757
46033W        W16633  18.561  20.581  13.003
46034W        W16634  11.726  43.216   2.042
46035W        W16635  13.603  20.732  14.435
46036W        W16636  23.835  35.364   0.324
46037W        W16637  21.639  22.886   4.344
46038W        W16638  19.010  25.925  12.373
46039W        W16639  19.963   2.050  12.384
46040W        W16640   6.716  15.676  11.959
46041W        W16641  13.277   2.686   1.778
46042W        W16642  12.459  23.563   3.739
46043W        W16643  38.372  30.008   4.877
46044W        W16644   7.956  38.045   0.306
46045W        W16645  31.783  22.806  13.786
46046W        W16646   0.153   0.210   1.411
46047W        W16647  18.669  21.261  14.819
46048W        W16648   2.988  33.940  14.053
46049W        W16649  31.567   2.317  12.887
46050W        W16650  27.448   9.877   1.806
46051W        W16651  37.499  36.276   0.244
46052W        W16652  27.424  32.036   0.597
46053W        W16653  33.944   9.959   4.635
46054W        W16654  37.880  12.288  11.565
46055W        W16655  16.137  31.953   1.303
46056W        W16656  12.025  19.106   0.780
46057W        W16657  29.473   4.384  14.218
46058W        W16658  13.824   2.907   2.869
46059W        W16659  20.373   0.109  13.840
46060W        W16660  43.943  18.991   4.127
46061W        W16661  34.941   6.934  14.985
46062W        W16662   4.831  21.783   2.178
46063W        W16663  35.699  20.236   3.248
46064W        W16664  30.469  17.703  12.479
46065W        W16665  28.145  44.842  10.515
46066W        W16666  28.582   6.720   2.888
46067W        W16667  29.584  34.441  13.412
46068W        W16668  34.565  11.751  11.583
46069W        W16669  29.898  43.691  12.610
46070W        W16670  43.611  16.640   2.727
46071W        W16671  18.357  38.459   2.356
46072W        W16672   5.868  42.984  13.018
46073W        W16673  17.153  37.122   4.640
46074W        W16674  36.235   3.934   4.016
46075W        W16675   4.967  40.300   3.234
46076W        W16676   7.426   4.556   2.206
46077W        W16677  44.845  32.608   1.867
46078W        W16678  35.581   4.995   1.780
46079W        W16679  36.618  36.022  13.003
46080W        W16680  40.079  11.397  12.521
46081W        W16681  22.954  42.586   9.830
46082W        W16682  41.416  31.421   3.952
46083W        W16683  11.374  31.130  13.563
46084W        W16684  33.547  33.389  14.565
46085W        W16685   3.886  22.453  10.093
46086W        W16686  14.790   2.714  14.515
46087W        W16687  22.007  29.000  14.856
46088W        W16688  38.768   2.870   0.036
46089W        W16689  44.743  19.080  10.702
46090W        W16690   7.315  34.788  12.305
46091W        W16691  41.807  32.161   1.805
46092W        W16692  25.057  19.553  14.774
46093W        W16693  33.421  10.278   3.427
46094W        W16694  34.963  39.901  10.771
46095W        W16695  16.228  12.937  11.541
46096W        W16696  35.314  18.160   3.708
46097W        W16697  36.075  25.231   1.895
46098W        W16698   3.935  14.013  12.768
46099W        W16699  34.450  34.811  14.560
46100W        W16700  32.349  36.811   4.693
46101W        W16701  10.776  26.961  10.657
46102W        W16702  35.963  21.433  14.299
46103W        W16703  37.576  22.950  13.442
46104W        W16704   4.341  42.835   3.858
46105W        W16705  15.637  29.119   0.232
46106W        W16706  24.193  15.896   2.499
46107W        W16707  35.062  23.070  10.519
46108W        W16708  13.173  28.918   0.417
46109W        W16709  13.706  44.325  12.417
46110W        W16710  29.153   3.537   1.787
46111W        W16711  13.284  17.328  10.681
46112W        W16712  21.573  25.689  11.150
46113W        W16713  14.121   9.382   0.863
46114W        W16714  39.934  20.904  11.220
46115W        W16715  28.111  22.057  14.808
46116W        W16716  30.003  23.761   4.124
46117W        W16717  28.794  22.091   4.927
46118W        W16718   0.373  17.045  13.921
46119W        W16719  10.429   4.626  13.423
46120W        W16720  32.468  25.272   1.247
46121W        W16721  44.925  43.458  14.265
46122W        W16722  18.114  39.283  12.069
46123W        W16723  37.813  10.675   1.942
46124W        W16724  43.294  41.369  12.579
46125W        W16725  44.178   8.713   4.921
46126W        W16726  10.940  30.965  10.369
46127W        W16727  27.721  35.149  11.036
46128W        W16728  38.800  35.771  11.031
46129W        W16729   2.761   3.873   2.389
46130W        W16730  42.396   9.961  12.059
46131W        W16731  19.769   4.861  13.505
46132W        W16732  40.026  39.927   4.077
46133W        W16733  36.179  18.756  12.356
46134W        W16734   1.287  41.918   1.257
46135W        W16735  40.309   2.786   3.292
46136W        W16736  42.397  15.851  12.108
46137W        W16737  40.564  41.473   2.912
46138W        W16738  18.049  38.375  14.895
46139W        W16739  19.202  17.589  11.393
46140W        W16740  15.707  44.499  12.294
46141W        W16741  35.148   4.795   0.491
46142W        W16742  18.442  36.965   0.094
46143W        W16743  24.027   6.433  13.547
46144W        W16744   6.185   9.132   2.853
46145W        W16745  13.572  23.051   2.170
46146W        W16746  32.948  16.156   0.473
46147W        W16747  30.544  39.993   3.533
46148W        W16748  20.630  27.994  13.423
46149W        W16749   8.181   1.185  11.036
46150W        W16750  34.685  38.827   3.279
46151W        W16751   9.783  33.831  12.915
46152W        W16752  31.721   2.878   1.391
46153W        W16753  26.052  38.863   4.526
46154W        W16754  13.157   8.752  11.921
46155W        W16755  14.746  24.396  14.308
46156W        W16756  20.766   6.148  12.012
46157W        W16757   1.721  15.261   3.233
46158W        W16758   8.874  42.710  11.614
46159W        W16759  33.252   2.325  13.889
46160W        W16760  43.910   9.153  14.488
46161W        W16761   6.709   4.468  13.952
46162W        W16762   1.953  21.346   3.750
46163W        W16763  14.286  31.427   1.223
46164W        W16764  19.646  37.944   2.662
46165W        W16765  31.847   3.140  12.859
46166W        W16766  15.686   5.456   3.589
46167W        W16767  29.352  19.179   1.912
46168W        W16768  36.040  10.190  11.885
46169W        W16769  44.367  26.230   2.771
46170W        W16770  42.714  12.265   3.377
46171W        W16771  30.085  15.823  14.272
46172W        W16772   3.842   7.605   1.665
46173W        W16773  37.551   2.383   3.105
46174W        W16774   1.466  15.599  10.784
46175W        W16775   0.212  39.217   2.653
46176W        W16776   0.149  34.569  13.388
46177W        W16777   3.265   6.362   2.123
46178W        W16778  36.427  15.857   0.975
46179W        W16779  35.572  16.729  10.530
46180W        W16780  29.154   8.243   1.970
46181W        W16781  25.011  39.173  11.054
46182W        W16782  42.765  22.749  13.953
46183W        W16783  23.480  38.260   3.124
46184W        W16784  14.736  21.693  11.634
46185W        W16785  12.046  36.981   1.882
46186W        W16786   6.902  31.001   1.584
46187W        W16787  34.098   5.187  13.090
46188W        W16788  17.626  19.323   0.016
46189W        W16789   5.756  27.116   1.786
46190W        W16790  33.448  41.335  11.074
46191W        W16791   6.495   2.942   3.434
46192W        W16792   6.895  41.342  14.738
46193W        W16793  41.510  38.315  12.051
46194W        W16794  27.454  12.211   2.759
46195W        W16795  38.470  28.896   2.892
46196W        W16796  40.866  40.091  12.113
46197W        W16797  13.818   8.696   1.195
46198W        W16798  22.035  25.704   0.927
46199W        W16799  25.485  30.258   3.795
46200W        W16800  29.516   3.525   0.345
46201W        W16801  16.810  20.248  13.849
46202W        W16802  40.489  18.661   2.930
46203W        W16803  20.880  17.665  13.089
46204W        W16804  30.234  21.058   4.694
46205W        W16805  14.452  44.048   0.401
46206W        W16806   6.589  16.641  14.810
46207W        W16807  11.284  38.849  14.428
46208W        W16808  26.598   6.609   1.313
46209W        W16809  12.389  18.566   2.584
46210W        W16810  10.810  44.924   0.377
46211W        W16811  21.523   3.020   3.934
46212W        W16812  13.693  29.864  11.922
46213W        W16813  27.668  11.614  11.096
46214W        W16814  22.798  27.144   2.136
46215W        W16815   1.031  42.455   1.481
46216W        W16816  24.685  20.574  10.926
46217W        W16817  34.979  33.888   3.124
46218W        W16818  30.442   6.433  13.618
46219W        W16819  29.562  21.307   4.201
46220W        W16820  25.567   6.469  14.346
46221W        W16821  42.948  42.317  10.760
46222W        W16822  37.723  38.584   1.626
46223W        W16823  21.189  11.018   1.032
46224W        W16824  37.309  10.258   1.374
46225W        W16825   1.501  16.705   1.170
46226W        W16826  25.430  13.865   1.037
46227W        W16827   3.349  34.425   2.772
46228W        W16828  11.640  42.922  12.102
46229W        W16829  30.571   4.701  13.322
46230W        W16830   7.084   7.412  14.495
46231W        W16831   4.970   2.964  14.571
46232W        W16832  16.921  27.632   1.721
46233W        W16833  26.027  36.681  12.475
46234W        W16834  15.735  38.493   4.976
46235W        W16835   6.208  26.579   2.741
46236W        W16836  34.474  30.397   4.319
46237W        W16837  28.765  38.065   2.350
46238W        W16838   4.656  35.778  14.872
46239W        W16839   8.047  19.219   4.197
46240W        W16840  37.046  13.141  12.021
46241W        W16841  42.316   5.878  14.297
46242W        W16842   8.969  26.549   2.433
46243W        W16843  13.568   0.138  13.863
46244W        W16844  33.521  20.848  11.627
46245W        W16845   4.278  23.466  13.911
46246W        W16846  32.042  42.942  13.982
46247W        W16847   0.306  18.781  12.566
46248W        W16848  16.193  12.336   1.247
46249W        W16849  41.429  11.895  14.818
46250W        W16850  28.837   9.684   0.028
46251W        W16851   3.484  40.797  11.659
46252W        W16852  16.862  33.900   1.900
46253W        W16853  12.116  36.886  11.199
46254W        W16854  19.765  13.394  13.195
46255W        W16855  19.554  37.190   1.827
46256W        W16856   5.811  37.565  11.569
46257W        W16857  15.830  31.671  10.580
46258W        W16858  21.576  19.101   1.433
46259W        W16859  29.714  15.652  12.941
46260W        W16860   6.317  19.323   0.827
46261W        W16861  15.469   5.817   2.093
46262W        W16862   3.266  20.588   2.272
46263W        W16863  38.738  29.049  10.863
46264W        W16864  19.681  31.662  13.847
46265W        W16865  10.710  31.393  12.425
46266W        W16866   6.719  19.598  11.735
46267W        W16867  40.223  36.962   2.797
46268W        W16868  24.789   7.221  11.933
46269W        W16869  40.400  18.561  13.420
46270W        W16870  25.911  10.803  11.104
46271W        W16871  16.048  34.024  12.798
46272W        W16872  27.523   0.478   3.725
46273W        W16873   1.721  16.224   3.507
46274W        W16874  36.484   8.853  14.400
46275W        W16875  30.360  35.454   3.789
46276W        W16876  41.998  41.413   3.797
46277W        W16877  30.400  12.907   1.346
46278W        W16878  14.364  41.887   2.933
46279W        W16879   6.736  40.970  12.640
46280W        W16880  44.763  12.892  11.514
46281W        W16881  33.403  43.899   1.982
46282W        W16882   1.290  38.109  13.961
46283W        W16883   9.618   0.462   0.374
46284W        W16884  14.649  28.798  13.979
46285W        W16885   5.118  31.840   4.941
46286W        W16886  33.402  19.218  14.467
46287W        W16887  35.581  13.291  11.155
46288W        W16888  30.975   2.179   4.843
46289W        W16889  27.869   5.413   3.526
46290W        W16890  10.231   5.211   4.549
46291W        W16891  11.875  16.982  12.787
46292W        W16892  23.319  44.332  12.506
46293W        W16893  34.542  31.210   4.722
46294W        W16894  10.780   9.723   3.672
46295W        W16895  12.398  44.399  12.068
46296W        W16896  14.739  13.201   4.206
46297W        W16897  37.572  16.731   2.190
46298W        W16898   7.823  43.057   1.400
46299W        W16899  26.542  42.513   4.376
46300W        W16900  28.607   0.273   1.995
46301W        W16901  24.574   1.022   4.483
46302W        W16902  40.806  30.084   4.292
46303W        W16903  14.546  39.285  12.540
46304W        W16904   4.033  24.916  10.114
46305W        W16905  14.217  13.832   0.228
46306W        W16906   9.281  38.032   1.466
46307W        W16907   0.934  34.707  10.685
46308W        W16908  17.304   2.426   2.939
46309W        W16909  43.233  29.091   1.848
46310W        W16910  25.442  30.927   1.743
46311W        W16911  22.988   6.444  14.901
46312W        W16912  43.221  42.112   0.327
46313W        W16913  21.287  10.744  10.988
46314W        W16914  26.757  14.185   1.326
46315W        W16915  18.083  37.174  14.751
46316W        W16916  26.335   2.195   1.321
46317W        W16917  39.037  29.523   0.065
46318W        W16918   9.854  37.040  11.672
46319W        W16919  35.818   6.971   1.811
46320W        W16920  36.282  34.816  14.334
46321W        W16921  15.523   8.100   3.306
46322W        W16922  17.523  40.756   1.339
46323W        W16923  41.788  15.744  11.141
46324W        W16924  26.073  15.524   0.922
46325W        W16925  12.136  42.191   2.850
46326W        W16926  10.620  43.046  11.033
46327W        W16927  44.917  22.567   1.014
46328W        W16928  44.439  40.430   0.483
46329W        W16929  30.499  16.053  14.489
46330W        W16930  31.451   7.548   5.091
46331W        W16931  17.802  30.630   1.471
46332W        W16932  33.147  21.666  13.428
46333W        W16933  40.570  24.686   0.454
46334W        W16934  25.773  12.323   1.500
46335W        W16935   0.476   9.273   1.630
46336W        W16936  29.735  29.883   3.530
46337W        W16937  28.095  15.321  14.974
46338W        W16938  35.072  21.541   1.373
46339W        W16939  32.609  14.159  12.176
46340W        W16940  30.423  18.711   4.100
46341W        W16941  26.731   4.228   4.376
46342W        W16942  32.851  20.624   1.939
46343W        W16943   1.704  14.893  11.181
46344W        W16944  36.016  27.089  13.105
46345W        W16945   9.135   9.009   3.380
46346W        W16946  28.543  37.117   4.247
46347W        W16947  33.016   4.074   2.576
46348W        W16948   6.177   3.398   2.214
46349W        W16949   9.583  32.137  11.980
46350W        W16950  16.579  31.033  11.610
46351W        W16951  24.079  37.594  10.403
46352W        W16952  44.733  12.151   3.156
46353W        W16953  39.564  27.505  13.940
46354W        W16954   1.305  14.195   4.186
46355W        W16955   4.416  14.778   2.254
46356W        W16956  28.623  22.193   4.430
46357W        W16957  21.357   9.911   2.273
46358W        W16958  37.334  34.808   3.264
46359W        W16959   5.640  29.142   3.188
46360W        W16960  44.298  34.430   1.413
46361W        W16961  24.538  41.362  13.330
46362W        W16962  22.560  42.332  13.535
46363W        W16963  36.982  33.877   2.596
46364W        W16964  32.133  12.236  12.877
46365W        W16965   2.221  18.140  13.551
46366W        W16966   5.676  29.704  12.344
46367W        W16967  29.885  36.381  13.408
46368W        W16968  42.436  13.796  13.970
46369W        W16969  40.268  16.660  11.516
46370W        W16970  15.810  38.026  12.001
46371W        W16971  12.135  14.586  14.857
46372W        W16972  39.963  27.103  11.494
46373W        W16973  44.834  10.721  10.768
46374W        W16974  32.691  11.828   0.812
46375W        W16975  23.440   5.364   4.752
46376W        W16976  16.157   2.139  13.418
46377W        W16977  24.192  13.642   2.665
46378W        W16978  31.564  40.239  14.794
46379W        W16979  33.909  29.422  10.935
46380W        W16980  18.855  44.329   4.571
46381W        W16981  17.580   3.665   4.137
46382W        W16982  37.026  18.345  14.329
46383W        W16983  28.549   8.722  13.009
46384W        W16984  25.473  15.560  12.533
46385W        W16985  22.843  23.679   1.222
46386W        W16986   5.250  44.399   3.238
46387W        W16987  42.294  44.155  12.295
46388W        W16988  11.705  13.882  14.924
46389W        W16989  27.705  42.294  11.330
46390W        W16990  25.285  22.731   2.306
46391W        W16991   6.366  23.352  12.006
46392W        W16992  34.515   0.756  12.369
46393W        W16993  20.299  19.206   4.131
46394W        W16994  17.189  12.119   1.544
46395W        W16995  29.425  13.171   4.118
46396W        W16996   0.547  31.357  14.342
46397W        W16997   6.905  36.439  12.845
46398W        W16998  42.710  35.440   3.759
46399W        W16999  36.963   9.400   2.686
46400W        W17000  36.458  16.765   0.518
46401W        W17001  30.549   2.916  12.976
46402W        W17002  13.280  23.767  11.603
46403W        W17003  40.107  23.604  12.958
46404W        W17004  31.488  10.757   2.659
46405W        W17005   7.448   5.907   0.496
46406W        W17006  26.531  16.094   4.223
46407W        W17007  40.799  29.011  14.066
46408W        W17008   5.938  14.357  11.989
46409W        W17009  21.128  31.116   0.465
46410W        W17010  20.779  21.667  13.631
46411W        W17011   8.996  38.247  10.748
46412W        W17012  39.914  41.006   4.016
46413W        W17013  40.389  26.015  12.705
46414W        W17014  32.384  17.691   1.193
46415W        W17015  38.942  28.637   2.883
46416W        W17016  34.605  21.763   1.322
46417W        W17017  33.598  35.525  12.483
46418W        W17018   2.481  24.030  13.316
46419W        W17019  42.426  40.327  11.018
46420W        W17020   4.755  26.611   3.193
46421W        W17021  21.239   6.256   2.513
46422W        W17022  42.886   9.199  11.606
46423W        W17023   3.189  20.142   3.692
46424W        W17024   0.212  31.096   1.568
46425W        W17025  11.417  30.928  11.626
46426W        W17026  37.534  35.073   1.508
46427W        W17027  31.871  28.822   4.136
46428W        W17028  39.519   1.819  12.142
46429W        W17029  33.517   1.621   4.546
46430W        W17030  35.083  21.106  13.954
46431W        W17031  32.609  36.886   3.153
46432W        W17032  43.419  15.366  11.140
46433W        W17033   1.321  18.265   4.764
46434W        W17034  28.017  33.464  11.824
46435W        W17035  12.473  28.368   1.620
46436W        W17036  30.511  36.039  12.488
46437W        W17037  18.352  41.666   3.152
46438W        W17038  38.862  18.729   2.338
46439W        W17039  21.462   5.158  14.167
46440W        W17040  30.901  29.849  14.820
46441W        W17041  38.104  20.543  13.337
46442W        W17042  28.052  42.744  14.386
46443W        W17043  17.573  43.923  11.178
46444W        W17044  32.419  12.725   4.556
46445W        W17045  31.155   8.665  11.397
46446W        W17046   5.610  11.768  13.360
46447W        W17047  42.071  22.519  11.177
46448W        W17048  31.920  26.040  13.560
46449W        W17049  41.261  16.145   1.399
46450W        W17050  19.856  38.375   2.426
46451W        W17051  35.643  36.948  12.895
46452W        W17052  30.451   5.231   3.736
46453W        W17053   7.653  17.366   2.757
46454W        W17054  17.521  32.846   4.681
46455W        W17055  29.952  18.205  11.568
46456W        W17056  14.187   2.243   1.745
46457W        W17057   8.824  38.610   3.640
46458W        W17058  35.802  32.900   1.233
46459W        W17059  23.696  20.018   3.201
46460W        W17060  41.409  14.627  10.667
46461W        W17061  16.852  24.177  12.888
46462W        W17062   0.961   7.636  11.863
46463W        W17063  30.495  24.364   4.540
46464W        W17064  42.245  31.737   0.947
46465W        W17065  20.578  13.790  12.726
46466W        W17066  22.852  28.057  13.905
46467W        W17067  12.374   5.073   2.233
46468W        W17068  15.232   6.484   3.782
46469W        W17069  44.770  33.279   3.591
46470W        W17070  12.847  24.214  10.856
46471W        W17071  14.995   3.832  10.622
46472W        W17072  23.898  40.716  13.557
46473W        W17073   0.842   1.996   0.028
46474W        W17074  44.180   0.936  10.630
46475W        W17075  44.294  37.038   4.569
46476W        W17076  14.026  19.151   2.657
46477W        W17077  25.212  37.600   9.910
46478W        W17078   7.753  12.075   4.915
46479W        W17079  33.052  17.152  13.146
46480W        W17080  25.752  43.770  13.006
46481W        W17081   4.911  23.473   0.104
46482W        W17082  19.685  12.164   4.688
46483W        W17083   1.214   3.294  14.816
46484W        W17084  25.078  26.233  12.023
46485W        W17085  17.231  44.773  13.785
46486W        W17086  13.333  21.560   4.699
46487W        W17087   5.242   1.835  13.456
46488W        W17088  15.234   8.360   1.757
46489W        W17089  29.622  24.904  10.560
46490W        W17090  16.285  28.950  14.567
46491W        W17091  32.113  22.530   4.978
46492W        W17092  34.180   9.850   1.811
46493W        W17093  34.473  41.829   0.399
46494W        W17094  24.641  18.139   0.731
46495W        W17095  28.878   2.275   4.198
46496W        W17096  18.428  40.036   4.799
46497W        W17097  12.818  34.836  13.954
46498W        W17098  31.352  13.635  10.703
46499W        W17099  21.137  36.365  10.999
46500W        W17100   4.768  44.493  14.272
46501W        W17101  20.202   0.077  13.313
46502W        W17102   4.151   2.028   0.683
46503W        W17103  23.691  22.718  12.535
46504W        W17104  17.163  31.572  12.374
46505W        W17105   6.931   4.938   3.296
46506W        W17106   6.782   7.204  12.113
46507W        W17107   3.691   5.662  14.800
46508W        W17108  37.577  40.342   1.116
46509W        W17109  30.143  16.134   4.144
46510W        W17110  26.659  22.501   3.682
46511W        W17111   5.738   9.138  14.352
46512W        W17112  31.128  28.402   2.628
46513W        W17113  32.126  21.345  13.935
46514W        W17114  24.977   8.191  11.769
46515W        W17115  32.334  44.831   3.072
46516W        W17116  31.986   0.716   1.183
46517W        W17117  24.488  29.522  13.110
46518W        W17118  39.799   7.693   2.281
46519W        W17119  23.271  16.163  12.547
46520W        W17120  40.648  21.157  14.376
46521W        W17121  30.020  33.190  14.459
46522W        W17122  37.599   9.631  12.496
46523W        W17123   6.609  33.901   3.374
46524W        W17124  37.925   9.332   2.644
46525W        W17125  23.168   2.056   1.294
46526W        W17126  26.267  14.398   1.265
46527W        W17127  32.171  21.637  11.488
46528W        W17128  33.586  13.804  10.763
46529W        W17129  21.057  23.930  12.322
46530W        W17130  40.828  12.679  13.876
46531W        W17131  35.579  16.766  13.837
46532W        W17132  27.383   1.046  14.428
46533W        W17133  39.835  11.651  12.939
46534W        W17134  10.592  20.585   0.486
46535W        W17135  24.398   8.619  11.333
46536W        W17136  44.418   8.413   1.734
46537W        W17137  24.596  35.443   3.403
46538W        W17138  22.417   3.513   4.147
46539W        W17139   9.216  17.885   1.401
46540W        W17140  10.670  34.006   0.178
46541W        W17141   4.911  37.408   3.301
46542W        W17142  25.989  14.640  13.572
46543W        W17143  10.815  44.096   3.332
46544W        W17144  10.158  16.660   4.557
46545W        W17145   4.830   3.037   2.385
46546W        W17146  44.810  14.163  13.039
46547W        W17147   0.856  41.331   0.035
46548W        W17148  36.899  14.416  13.768
46549W        W17149  21.069   6.334  12.643
46550W        W17150  34.221   8.283  10.671
46551W        W17151  26.560  43.517  11.324
46552W        W17152   9.244  38.826   0.471
46553W        W17153  26.049   3.719   4.935
46554W        W17154   4.046  38.679  11.012
46555W        W17155  28.454  20.248  12.910
46556W        W17156   0.319  32.114   2.311
46557W        W17157   7.411  22.524   1.412
46558W        W17158   6.288  12.656   1.860
46559W        W17159  42.424  41.850  11.897
46560W        W17160   1.745  31.195   1.455
46561W        W17161   9.256  25.113   5.044
46562W        W17162  25.308  36.522   0.439
46563W        W17163  15.425  44.524   2.364
46564W        W17164  44.314  10.176   3.096
46565W        W17165  27.599  16.273  13.098
46566W        W17166  23.660  29.947  14.275
46567W        W17167  15.927  17.119  11.442
46568W        W17168  26.115  27.622   4.597
46569W        W17169   8.226   4.245   4.087
46570W        W17170   0.344  44.775  13.961
46571W        W17171  41.248   4.178   4.069
46572W        W17172  22.228  43.893   1.234
46573W        W17173  36.177  20.066   0.392
46574W        W17174  14.082  42.902  12.303
46575W        W17175   6.151  11.830   2.245
46576W        W17176  41.974  13.164   0.094
46577W        W17177  26.744  23.721  10.205
46578W        W17178  20.679  24.104   2.401
46579W        W17179  33.854  19.076   1.045
46580W        W17180  30.432   6.126  10.741
46581W        W17181  41.468   0.692  10.594
46582W        W17182  18.137   2.678  12.437
46583W        W17183   1.413  27.904   1.603
46584W        W17184  13.127  31.175  11.573
46585W        W17185  10.369   6.276  12.400
46586W        W17186  10.723  30.881  12.429
46587W        W17187   8.801  31.639  13.422
46588W        W17188  28.400   4.953   0.733
46589W        W17189  11.249   8.861  11.085
46590W        W17190   4.309  41.410  13.276
46591W        W17191   9.634  16.150  13.058
46592W        W17192   2.009  23.691  12.051
46593W        W17193  37.045  33.377   4.609
46594W        W17194  15.790  15.566  14.963
46595W        W17195  36.381  26.108  13.439
46596W        W17196  34.012  11.657   2.726
46597W        W17197  36.861   6.028   2.922
46598W        W17198  29.539  33.042  10.349
46599W        W17199  33.458  41.971  11.930
46600W        W17200  24.646  37.838  13.620
46601W        W17201  37.960  24.557   1.750
46602W        W17202  28.676  29.926  11.200
46603W        W17203  34.522  30.594  14.335
46604W        W17204  30.568  35.853   2.328
46605W        W17205  17.702  25.849  13.989
46606W        W17206   4.823  14.859   3.680
46607W        W17207   6.731  30.483  13.756
46608W        W17208  36.617  38.615  10.184
46609W        W17209  21.677  39.143  12.930
46610W        W17210  25.048  31.858   4.093
46611W        W17211  20.375  26.042  14.453
46612W        W17212  41.594  30.513  11.723
46613W        W17213  14.314  27.909  11.637
46614W        W17214   1.601   6.755   3.626
46615W        W17215   3.647  10.914   4.198
46616W        W17216  42.927  39.445  14.310
46617W        W17217  36.531  25.013   3.736
46618W        W17218  31.085  30.019   1.821
46619W        W17219  25.591   7.836  10.129
46620W        W17220  13.621  18.692  10.737
46621W        W17221  38.313  25.975   1.649
46622W        W17222  38.217  10.298  10.376
46623W        W17223  43.008  42.742   0.460
46624W        W17224  30.527  17.489   0.754
46625W        W17225   2.685  11.427   4.039
46626W        W17226   2.880   7.517   4.885
46627W        W17227   9.082  19.048  13.467
46628W        W17228  12.312  25.175   1.815
46629W        W17229  16.660  16.006   1.780
46630W        W17230  36.565  25.777   4.154
46631W        W17231  28.566  24.985  12.494
46632W        W17232   7.379   1.528   3.679
46633W        W17233  12.574  26.694   1.622
46634W        W17234  18.045   8.148  14.760
46635W        W17235  30.958  42.161  11.106
46636W        W17236  26.508  21.498   2.774
46637W        W17237  26.533  13.589   1.616
46638W        W17238   2.373  36.966   4.533
46639W        W17239  18.289  26.129  14.995
46640W        W17240  38.286  41.174   1.396
46641W        W17241  14.616  10.722   4.583
46642W        W17242  24.986   3.358   0.147
46643W        W17243  30.807  25.037  11.250
46644W        W17244   1.442  33.660   1.303
46645W        W17245  29.053  16.893   0.466
46646W        W17246  32.594  31.879   1.726
46647W        W17247   3.693   6.642  13.167
46648W        W17248  23.089  14.712   2.002
46649W        W17249  31.164  18.110   0.743
46650W        W17250  32.241   5.908  11.357
46651W        W17251   9.825  13.375   3.056
46652W        W17252  16.694  36.244  12.509
46653W        W17253  36.851  16.312  13.251
46654W        W17254  26.449  33.100   1.984
46655W        W17255   7.913  44.492  14.531
46656W        W17256  39.271  27.441   4.614
46657W        W17257  18.672  17.678   2.929
46658W        W17258  13.977  27.832  13.602
46659W        W17259   1.931  10.370  14.870
46660W        W17260  44.013  38.878   1.416
46661W        W17261   1.318  21.245  12.253
46662W        W17262  35.987  41.542   1.295
46663W        W17263   5.703  24.934   0.654
46664W        W17264   0.437  41.254   2.161
46665W        W17265  43.740   2.208   2.695
46666W        W17266  31.864  43.147  14.991
46667W        W17267  22.510   6.639   0.008
46668W        W17268  34.546  17.963  14.097
46669W        W17269   6.545  27.991   4.624
46670W        W17270  19.699   3.244  13.886
46671W        W17271  27.673  12.367   1.227
46672W        W17272  18.600  25.036   3.545
46673W        W17273  35.531   0.534  12.768
46674W        W17274  24.753  28.104  13.131
46675W        W17275  15.778  43.815   1.321
46676W        W17276  35.072  31.224  14.375
46677W        W17277  43.812  34.027  12.458
46678W        W17278  38.331  21.832   0.735
46679W        W17279  32.023  14.763  12.684
46680W        W17280  14.175  32.036   4.589
46681W        W17281   6.074  38.070   0.018
46682W        W17282  37.514  19.648  12.047
46683W        W17283  14.339   0.474   2.399
46684W        W17284  19.699  33.983   0.908
46685W        W17285  14.308  26.981   4.182
46686W        W17286  16.391  42.977   2.674
46687W        W17287  29.439  41.260  13.920
46688W        W17288  10.537  39.620   1.024
46689W        W17289   3.790   0.046  14.728
46690W        W17290   5.886  13.084  11.484
46691W        W17291  34.339  23.517  10.755
46692W        W17292  30.216  27.666  11.253
46693W        W17293  31.579   1.854  13.116
46694W        W17294  21.716  21.225  14.782
46695W        W17295   7.111  15.704  14.054
46696W        W17296  29.618  30.753   3.361
46697W        W17297  31.915   4.151  13.398
46698W        W17298  38.489  14.506   1.184
46699W        W17299   7.715  40.267   3.188
46700W        W17300  29.354  40.229  12.141
46701W        W17301   4.463  18.130  14.457
46702W        W17302  29.434   8.990   1.480
46703W        W17303  42.909  33.666  13.499
46704W        W17304  30.946   9.616   1.446
46705W        W17305  22.611  19.984  13.989
46706W        W17306  43.294  22.111  14.316
46707W        W17307  29.946  18.815   1.347
46708W        W17308  38.899  24.718   1.898
46709W        W17309  36.548  15.491  12.367
46710W        W17310  43.048  26.341  13.814
46711W        W17311  13.657   9.642   0.820
46712W        W17312   9.833  20.739  14.825
46713W        W17313  21.106   8.164  14.043
46714W        W17314  20.448  33.579  11.873
46715W        W17315  42.900  37.587  13.712
46716W        W17316  17.382  21.570  13.379
46717W        W17317   7.795  15.596   2.220
46718W        W17318  24.551  44.348   1.595
46719W        W17319  44.399  36.626  12.619
46720W        W17320  34.555  23.527   0.831
46721W        W17321   9.808  42.541   3.181
46722W        W17322  40.728  14.821   4.946
46723W        W17323  28.126   3.839   3.744
46724W        W17324  41.190  24.691   3.121
46725W        W17325  12.544  20.245   4.193
46726W        W17326  32.274  39.094   1.857
46727W        W17327   3.224  22.525  11.107
46728W        W17328  27.923  35.667  14.405
46729W        W17329  28.431  30.746  10.696
46730W        W17330  36.333  31.633  10.630
46731W        W17331  17.527  44.864  11.110
46732W        W17332   8.425  42.248  11.009
46733W        W17333  19.652   5.284  12.559
46734W        W17334  41.815  40.517   2.752
46735W        W17335   2.960   4.843   3.659
46736W        W17336  30.004  10.551   4.614
46737W        W17337  24.259  39.473   3.756
46738W        W17338  27.404  38.005   1.981
46739W        W17339  12.622  11.043  13.128
46740W        W17340   1.683  43.445  12.486
46741W        W17341  16.371  12.342  12.370
46742W        W17342  14.798  10.665  12.420
46743W        W17343  20.191   0.086  12.601
46744W        W17344  40.584  22.059  11.176
46745W        W17345  21.680  41.201   4.998
46746W        W17346  41.322  32.134   0.434
46747W        W17347  33.600  44.733  14.496
46748W        W17348   4.936  22.605   1.164
46749W        W17349  37.983  25.570  11.636
46750W        W17350  35.977  37.578   2.402
46751W        W17351  39.394   7.721   0.101
46752W        W17352   6.333  19.065  10.646
46753W        W17353   4.938  20.673   3.268
46754W        W17354  29.388  30.897   4.349
46755W        W17355  31.519   8.874   4.130
46756W        W17356  35.845  33.788  12.380
46757W        W17357  23.810  12.199   0.472
46758W        W17358  41.204  19.041  12.510
46759W        W17359  18.714   7.026   2.303
46760W        W17360  13.821  42.567   2.816
46761W        W17361  23.113  14.841   3.785
46762W        W17362   6.673   3.429  14.966
46763W        W17363  39.642   1.705  11.257
46764W        W17364   8.443  16.663  11.665
46765W        W17365  12.744  19.910  11.448
46766W        W17366  19.230   6.777   2.767
46767W        W17367  26.379  13.206   5.026
46768W        W17368  42.317  44.472   2.853
46769W        W17369   3.804  24.695   0.794
46770W        W17370   8.332   1.907   2.261
46771W        W17371  14.213   2.913   3.734
46772W        W17372  28.246  24.516   1.695
46773W        W17373  13.030  14.758  14.734
46774W        W17374   0.985  27.782  11.160
46775W        W17375  17.546   5.836  12.746
46776W        W17376   9.152  28.298  12.346
46777W        W17377  43.756  29.917   4.234
46778W        W17378   4.711  43.786   2.493
46779W        W17379  42.842  23.909  11.073
46780W        W17380  37.443   0.837   0.964
46781W        W17381  11.454  26.622   0.801
46782W        W17382  36.560  31.530   3.644
46783W        W17383  11.289  26.389  10.316
46784W        W17384  30.831  11.678   3.525
46785W        W17385  18.362  31.953  13.425
46786W        W17386  15.492  27.715   2.193
46787W        W17387  38.384  12.226  11.604
46788W        W17388  29.626  29.066  11.920
46789W        W17389  14.938   9.216   1.560
46790W        W17390  40.228  38.834   0.179
46791W        W17391  34.313  23.857  11.163
46792W        W17392  15.822  36.224  10.366
46793W        W17393  22.521  15.193  12.949
46794W        W17394  17.121   0.411   1.097
46795W        W17395  24.572   1.487  12.687
46796W        W17396  26.567   6.176  11.157
46797W        W17397   1.298  34.399   3.749
46798W        W17398  42.921  20.215  11.944
46799W        W17399  41.110  36.081  14.566
46800W        W17400  22.712  25.414  11.460
46801W        W17401   9.585  21.634   4.400
46802W        W17402  38.959   1.918   2.460
46803W        W17403   2.846  15.768   2.759
46804W        W17404  15.460  15.583  11.874
46805W        W17405   7.342  10.712  12.124
46806W        W17406  32.508  11.412  14.786
46807W        W17407  10.074  37.131   1.630
46808W        W17408  27.060  20.048  10.780
46809W        W17409   6.814  21.968  12.492
46810W        W17410  23.607  14.864  14.349
46811W        W17411  20.287   6.782  12.500
46812W        W17412  42.282  19.425   0.818
46813W        W17413  15.320   7.038  12.464
46814W        W17414   9.951  17.547   1.812
46815W        W17415  13.698  18.720   3.674
46816W        W17416  12.556  14.884  10.606
46817W        W17417  25.278  16.150  12.781
46818W        W17418  41.342  32.270  10.670
46819W        W17419  38.247  19.235  12.916
46820W        W17420   4.862  38.818  10.586
46821W        W17421  36.803   1.577  11.610
46822W        W17422  44.854  16.495   4.431
46823W        W17423  31.520   2.266  13.411
46824W        W17424  34.129  27.176   0.323
46825W        W17425  36.415  35.819   2.288
46826W        W17426  17.615  44.293  12.925
46827W        W17427   5.563  20.936   0.459
46828W        W17428   9.670  12.252  14.912
46829W        W17429   1.693  22.432   0.218
46830W        W17430  20.637  17.851  14.094
46831W        W17431  31.550  31.176  10.737
46832W        W17432   5.180   9.731   3.162
46833W        W17433  33.013  29.833  10.530
46834W        W17434  33.147  10.375   0.340
46835W        W17435  17.906  30.105  13.254
46836W        W17436  42.294  44.453   1.337
46837W        W17437   4.192   7.738  11.164
46838W        W17438  22.420  36.385   3.214
46839W        W17439  16.039  24.654  11.397
46840W        W17440  33.410  24.065  11.409
46841W        W17441  27.876  20.389   3.329
46842W        W17442  14.668  33.541   0.282
46843W        W17443  44.275  15.230  12.095
46844W        W17444  27.031  31.934   4.683
46845W        W17445  17.335  22.498   1.405
46846W        W17446  16.324  22.567   1.390
46847W        W17447   0.457  34.367   0.820
46848W        W17448  26.146  13.777   2.702
46849W        W17449   3.920  43.916  12.142
46850W        W17450  10.895  29.621  14.577
46851W        W17451  15.431   8.851   3.720
46852W        W17452  44.608  40.096  11.573
46853W        W17453   9.157   5.199  10.759
46854W        W17454  24.997   3.575  11.122
46855W        W17455   8.587   6.562   0.688
46856W        W17456   1.553  28.817  14.776
46857W        W17457  39.788  13.792   2.823
46858W        W17458  16.895  13.294  11.056
46859W        W17459  15.238   4.722   0.195
46860W        W17460   7.424   8.889  12.092
46861W        W17461  26.437  10.634   4.839
46862W        W17462  21.579   6.350  10.381
46863W        W17463   2.201  13.073   2.192
46864W        W17464   7.279  16.051   4.462
46865W        W17465  27.209  31.005   2.185
46866W        W17466  18.247  35.111  12.640
46867W        W17467  22.592  16.232   0.835
46868W        W17468  11.661  23.342   3.211
46869W        W17469  31.537  11.849   2.728
46870W        W17470  25.956  35.583  12.776
46871W        W17471  26.969  13.240  11.559
46872W        W17472  24.243   7.681   1.451
46873W        W17473  18.160   4.151  12.998
46874W        W17474  22.577  24.270   2.383
46875W        W17475   0.016  34.660   3.264
46876W        W17476   6.969  31.874   4.076
46877W        W17477  20.835  43.334   3.303
46878W        W17478   5.107   3.408   4.637
46879W        W17479  41.993   2.050  11.645
46880W        W17480  40.549   3.889   2.146
46881W        W17481  18.552  37.640   4.191
46882W        W17482  32.441  39.517  11.469
46883W        W17483  19.789  14.903   3.193
46884W        W17484  31.453  13.092  14.060
46885W        W17485  38.428  14.246  10.889
46886W        W17486   7.245  10.895   4.725
46887W        W17487  13.844   3.235   4.844
46888W        W17488   9.543  21.469  11.600
46889W        W17489   0.116  24.952   1.038
46890W        W17490  41.782  17.181   1.158
46891W        W17491  21.168  44.230   3.723
46892W        W17492  36.775   9.967   4.164
46893W        W17493  37.676   9.845   0.292
46894W        W17494  19.447  20.495  14.177
46895W        W17495   5.288  14.024   3.587
46896W        W17496   1.770  16.232  11.924
46897W        W17497   4.155  20.655   0.176
46898W        W17498  29.835  23.280  11.179
46899W        W17499   7.436  44.479   2.747
46900W        W17500  22.171  18.852   0.899
46901W        W17501  19.689   7.812   2.691
46902W        W17502   0.376  12.096   1.713
46903W        W17503   9.770  30.612   0.726
46904W        W17504   9.579  10.761  14.416
46905W        W17505  38.629  26.791   4.217
46906W        W17506   7.709   0.338  12.870
46907W        W17507  17.827  31.633   4.326
46908W        W17508  44.833   0.035  12.591
46909W        W17509  18.177  31.558   4.696
46910W        W17510  25.203  29.412  12.549
46911W        W17511  19.182  38.106  11.626
46912W        W17512  43.414   4.163  14.874
46913W        W17513  39.047  22.711   1.449
46914W        W17514  27.016   4.891  13.751
46915W        W17515  23.359   0.809   4.143
46916W        W17516  16.100  35.701  11.667
46917W        W17517  25.564   8.071   1.382
46918W        W17518   8.776   7.993  13.461
46919W        W17519  11.190  38.335  12.401
46920W        W17520  24.626  15.503   4.576
46921W        W17521  34.548  43.552   0.812
46922W        W17522  14.385  36.915  11.941
46923W        W17523   3.290  43.012  13.473
46924W        W17524  14.075   1.403  12.446
46925W        W17525  34.521   5.657   1.870
46926W        W17526  16.022   7.947  14.420
46927W        W17527  37.552  38.340   1.213
46928W        W17528  22.239  21.409  11.500
46929W        W17529  26.040  40.519   4.605
46930W        W17530  27.840  24.339   0.329
46931W        W17531  40.033   2.503   1.185
46932W        W17532  17.585   5.446   3.236
46933W        W17533  32.889  43.879   3.742
46934W        W17534   8.445   4.505   3.675
46935W        W17535  38.433  30.045  11.980
46936W        W17536  38.374  26.059   4.134
46937W        W17537  19.113  38.286  12.091
46938W        W17538  38.526  35.171   1.351
46939W        W17539   9.837  16.199   1.732
46940W        W17540  17.712  31.942   3.609
46941W        W17541   0.183  13.175  11.635
46942W        W17542  43.201  14.902  14.480
46943W        W17543  41.323   7.800  12.497
46944W        W17544   2.928  22.169   3.587
46945W        W17545   1.758  22.534  11.510
46946W        W17546  21.962   2.896   3.700
46947W        W17547  31.111   0.239  14.274
46948W        W17548  33.370  19.749   4.873
46949W        W17549   3.868  20.827   0.998
46950W        W17550  20.966  39.966  12.043
46951W        W17551  37.404  23.422   4.609
46952W        W17552  12.037  16.113  10.473
46953W        W17553  16.245  31.513   4.458
46954W        W17554  15.335  14.839   1.836
46955W        W17555   5.150  23.668  11.450
46956W        W17556  27.933   0.524  12.931
46957W        W17557  22.374  21.575  11.969
46958W        W17558   1.813   8.912   2.825
46959W        W17559   0.011  36.017   2.919
46960W        W17560   9.947  25.059   4.128
46961W        W17561  13.338   7.886   1.563
46962W        W17562  36.255  25.209  12.932
46963W        W17563  21.676  24.331  13.529
46964W        W17564  15.241  11.272   4.795
46965W        W17565  23.216  22.220   2.307
46966W        W17566  37.013  18.660   3.883
46967W        W17567  13.762  24.069   3.550
46968W        W17568  39.951  32.487  11.885
46969W        W17569  44.774  16.224  14.992
46970W        W17570  27.209   9.409  13.084
46971W        W17571  28.911  20.509  14.065
46972W        W17572   9.670  31.549  13.281
46973W        W17573   3.905  23.759  10.994
46974W        W17574  15.576  38.922   3.111
46975W        W17575  43.349   1.420   0.412
46976W        W17576  33.281  40.357   4.036
46977W        W17577   6.655  18.080  12.474
46978W        W17578   2.242  19.695   1.223
46979W        W17579  39.103  34.293   0.238
46980W        W17580  38.348  31.563   3.396
46981W        W17581  12.887  11.665   2.863
46982W        W17582  35.577   0.042  12.982
46983W        W17583  43.002  37.270  11.906
46984W        W17584  25.694  19.050   4.660
46985W        W17585  26.718  36.634  12.008
46986W        W17586  27.495   6.268   1.113
46987W        W17587  38.561  44.464   3.870
46988W        W17588  17.377  21.691  13.894
46989W        W17589   3.150  39.942  13.557
46990W        W17590   8.828  22.852   3.653
46991W        W17591  23.166  41.326   3.356
46992W        W17592  42.059  10.423  11.108
46993W        W17593  31.984  24.099  12.966
46994W        W17594  19.916   7.048  14.456
46995W        W17595  26.096  15.689  10.398
46996W        W17596   9.697  40.792   3.818
46997W        W17597  30.838  37.421   4.244
46998W        W17598  15.107   5.649  14.623
46999W        W17599   7.941  25.058   4.609
47000W        W17600   5.401  23.676   1.367
47001W        W17601   8.687  41.026   2.385
47002W        W17602  30.373  15.605  11.097
47003W        W17603  12.164  41.775   1.165
47004W        W17604  33.467   4.769   4.579
47005W        W17605   3.332   5.924  10.650
47006W        W17606  43.445  30.647  13.082
47007W        W17607  19.837  12.854  13.858
47008W        W17608   8.281  22.517  10.559
47009W        W17609  27.490  28.920  12.166
47010W        W17610  10.311  26.157  10.416
47011W        W17611   7.963   4.672   0.073
47012W        W17612  11.453  22.239   1.801
47013W        W17613  30.575  29.831  14.390
47014W        W17614  13.095  27.587  10.945
47015W        W17615  40.790  33.973  12.878
47016W        W17616  22.566  40.295  10.700
47017W        W17617  26.507   4.720  10.502
47018W        W17618  15.756   2.162   4.869
47019W        W17619   9.888   6.380  11.424
47020W        W17620   5.980  11.348  12.475
47021W        W17621  39.343  27.745  13.445
47022W        W17622  15.384   8.378   2.882
47023W        W17623  23.271   0.781  12.522
47024W        W17624  10.935   0.321  12.717
47025W        W17625  25.726   0.273  10.746
47026W        W17626  10.845  37.099  13.896
47027W        W17627  16.287  10.327   1.821
47028W        W17628  15.180  21.472  13.392
47029W        W17629   2.196   5.742   3.419
47030W        W17630  23.285  27.498  11.593
47031W        W17631   1.411  36.636   2.383
47032W        W17632  39.442  10.276   0.383
47033W        W17633   3.406   6.648   0.291
47034W        W17634  21.060  18.483  10.379
47035W        W17635   6.344  14.489  13.619
47036W        W17636   2.797  35.809   3.889
47037W        W17637  42.253  30.850  12.430
47038W        W17638  44.436   8.546  13.544
47039W        W17639  13.180  15.800  12.855
47040W        W17640   5.836  35.075   1.956
47041W        W17641  13.838  20.081   0.231
47042W        W17642   6.727   4.112   4.178
47043W        W17643  16.561  36.066   1.680
47044W        W17644  20.524  24.623  11.552
47045W        W17645  17.603  28.306  11.465
47046W        W17646  21.616  14.615   3.663
47047W        W17647  14.302  38.248   0.306
47048W        W17648  23.474  21.329  11.379
47049W        W17649   9.395  23.622  13.314
47050W        W17650  21.733  31.324  13.242
47051W        W17651  39.545  38.587  11.517
47052W        W17652   6.935   6.291  10.657
47053W        W17653  39.937   6.245  13.882
47054W        W17654   9.675  18.535   1.771
47055W        W17655  22.239  23.556  13.288
47056W        W17656  20.465   3.331   2.207
47057W        W17657  31.626  43.223  11.969
47058W        W17658  43.534  22.967  11.013
47059W        W17659  33.529  21.654   9.911
47060W        W17660  41.116  33.501  12.442
47061W        W17661  39.457  15.601  10.705
47062W        W17662  33.672  13.543   4.767
47063W        W17663  16.710  37.572   0.672
47064W        W17664  24.761  33.066   0.781
47065W        W17665   0.917  15.895  11.630
47066W        W17666  27.525  22.677  13.583
47067W        W17667  11.674  20.265   4.938
47068W        W17668  12.694  14.531   0.520
47069W        W17669   5.884   1.144  14.302
47070W        W17670  27.149   3.298  12.453
47071W        W17671   2.253  30.198   4.119
47072W        W17672  25.124   3.262  11.551
47073W        W17673  12.096  29.438  13.806
47074W        W17674   6.996  33.963   3.705
47075W        W17675  16.245  25.033   0.950
47076W        W17676  39.588  16.460  12.008
47077W        W17677   2.823   6.661   4.478
47078W        W17678  11.797   9.324  11.537
47079W        W17679  39.980   2.885   0.841
47080W        W17680  24.204   9.546   2.992
47081W        W17681  12.259   2.321  11.298
47082W        W17682   8.324  39.498   3.222
47083W        W17683  16.028  16.198  13.934
47084W        W17684   5.813  28.855   4.220
47085W        W17685   8.523  18.550   4.574
47086W        W17686  38.433  28.388   3.438
47087W        W17687  30.028   3.175   4.340
47088W        W17688  44.315   3.839  10.347
47089W        W17689  21.274  26.282  11.158
47090W        W17690  11.200  32.251  11.617
47091W        W17691  19.687  26.803  14.875
47092W        W17692  41.478  30.415   1.841
47093W        W17693  10.162  35.060  13.784
47094W        W17694  33.677  22.155  11.943
47095W        W17695   2.549  22.115   4.359
47096W        W17696  30.403  38.058   3.689
47097W        W17697  36.547  12.138  14.032
47098W        W17698  10.688  19.755  13.982
47099W        W17699  13.063  41.027   4.448
47100W        W17700  15.961  27.538   2.009
47101W        W17701  16.678   9.185  10.646
47102W        W17702  29.283  42.020   4.135
47103W        W17703  30.932   8.769   3.065
47104W        W17704  26.283  33.054  11.429
47105W        W17705  21.685  10.934  14.787
47106W        W17706  37.128   9.741   0.242
47107W        W17707  17.195   3.994  14.891
47108W        W17708  22.183  27.535  10.728
47109W        W17709  38.379  11.112   2.369
47110W        W17710  29.468   1.364   3.338
47111W        W17711  33.649  35.062  11.910
47112W        W17712  26.003  21.680  12.009
47113W        W17713  41.041  43.460  12.646
47114W        W17714  43.004  41.003   0.788
47115W        W17715  34.996   2.686  13.430
47116W        W17716  22.790  11.318  11.591
47117W        W17717  24.330  26.457   2.316
47118W        W17718  15.127  31.712  14.455
47119W        W17719  38.057  41.811   1.261
47120W        W17720  22.713  17.269   2.369
47121W        W17721  43.306  33.327   0.783
47122W        W17722   0.276  38.947  11.810
47123W        W17723  26.632  11.937   2.622
47124W        W17724  27.024  18.114   3.902
47125W        W17725  35.196  40.308   2.551
47126W        W17726  41.907  18.490   0.793
47127W        W17727  44.314  42.911  13.772
47128W        W17728  35.498  37.065   0.192
47129W        W17729   3.757  42.866   3.113
47130W        W17730  38.629   5.305  12.481
47131W        W17731   8.730  43.021  12.524
47132W        W17732   9.220   4.929   3.784
47133W        W17733  26.716  18.552  13.084
47134W        W17734   5.382  14.770  13.326
47135W        W17735  43.590  21.516   4.656
47136W        W17736  31.849  16.978   1.919
47137W        W17737  14.020  35.884  12.934
47138W        W17738  40.811  20.716  14.772
47139W        W17739  28.057   9.566  14.087
47140W        W17740  34.527  29.255  12.792
47141W        W17741  43.259  11.903  10.452
47142W        W17742  10.721  41.461   2.804
47143W        W17743  22.123   9.837   5.401
47144W        W17744  24.729  28.534  12.760
47145W        W17745  41.556   3.447  14.289
47146W        W17746   9.396  13.798  12.870
47147W        W17747  42.943   0.268   3.245
47148W        W17748   5.334   2.832   2.226
47149W        W17749   2.699   9.265   4.361
47150W        W17750  27.176  29.884  12.536
47151W        W17751  37.866   5.207   3.485
47152W        W17752  36.546  39.596   0.361
47153W        W17753  40.824  22.516  11.170
47154W        W17754  13.414  10.160  10.762
47155W        W17755   5.801  19.392   2.117
47156W        W17756  36.242  21.608   0.216
47157W        W17757  24.501  23.281  14.861
47158W        W17758  39.842   6.438  14.787
47159W        W17759   7.641  26.880  12.454
47160W        W17760  34.507  36.864  13.856
47161W        W17761   8.575  11.751  11.175
47162W        W17762  14.226  24.864   4.526
47163W        W17763  34.079  29.311   0.461
47164W        W17764  11.587  41.060   0.935
47165W        W17765  18.262  33.106   0.383
47166W        W17766  11.610  28.739   1.884
47167W        W17767  24.004  40.316  14.544
47168W        W17768  22.448   1.762  13.305
47169W        W17769  10.907  11.250   1.866
47170W        W17770  31.642  35.366  10.698
47171W        W17771   0.685   0.726  12.561
47172W        W17772  39.875  31.559  12.348
47173W        W17773  31.956   5.105  14.259
47174W        W17774  17.225   7.799   2.234
47175W        W17775   4.343   1.348   0.693
47176W        W17776  10.262  10.945   4.894
47177W        W17777   4.474   5.759   3.227
47178W        W17778  17.494  37.892  13.418
47179W        W17779  23.856  13.160  11.559
47180W        W17780  18.334   6.871   0.428
47181W        W17781  37.512  28.011  13.280
47182W        W17782  13.619   5.144  11.981
47183W        W17783  33.399   9.694  12.371
47184W        W17784  29.687   9.338   2.761
47185W        W17785   0.236  28.161   3.397
47186W        W17786  33.498  29.692  10.723
47187W        W17787  39.665  34.997  10.545
47188W        W17788  33.115  14.075   2.327
47189W        W17789  17.740   1.629  11.980
47190W        W17790  15.326  27.510  13.907
47191W        W17791  38.364  23.265  14.527
47192W        W17792  23.355   0.597   1.494
47193W        W17793  28.590  41.002  13.534
47194W        W17794  36.271   5.917  14.083
47195W        W17795  40.598  34.947   0.433
47196W        W17796  33.182  31.547   0.825
47197W        W17797  32.715   8.901   3.701
47198W        W17798  13.717  25.813   2.214
47199W        W17799  38.126  16.180  12.154
47200W        W17800  42.759  33.048   4.121
47201W        W17801   9.200  44.408   0.488
47202W        W17802  32.618  12.148  12.143
47203W        W17803   4.910  28.516  11.111
47204W        W17804  16.557   3.171  13.043
47205W        W17805   5.736  41.481  12.868
47206W        W17806  34.477  44.063  13.217
47207W        W17807   1.803  20.520   0.234
47208W        W17808  35.942  29.617  14.956
47209W        W17809  22.525  25.038   1.319
47210W        W17810   5.280  11.718  11.356
47211W        W17811   1.723  26.985  13.872
47212W        W17812  19.165  21.523   4.025
47213W        W17813  33.936  44.391   0.889
47214W        W17814  34.376  12.355  14.202
47215W        W17815  36.268  18.321   0.550
47216W        W17816  25.287   9.982   1.138
47217W        W17817  22.659  17.690  12.596
47218W        W17818  24.678  39.780   3.706
47219W        W17819  11.452  35.322  11.088
47220W        W17820  19.075  42.286  12.859
47221W        W17821  13.513  34.718   4.283
47222W        W17822  19.810   4.107   1.411
47223W        W17823   3.448  28.155   2.818
47224W        W17824  21.299  20.267   1.183
47225W        W17825  14.443  36.425  12.153
47226W        W17826  25.444  20.998   5.004
47227W        W17827  35.947  34.028  11.808
47228W        W17828  37.907  18.976  11.077
47229W        W17829  33.515   8.165  12.970
47230W        W17830  28.672  29.189  11.588
47231W        W17831   2.473  23.016  14.354
47232W        W17832   5.481   8.139   2.333
47233W        W17833  39.342   2.863  13.147
47234W        W17834  20.215   3.371   2.680
47235W        W17835  14.942  19.264  14.811
47236W        W17836  10.708  19.996   2.698
47237W        W17837  16.093  43.246  13.483
47238W        W17838  43.862   4.556  11.609
47239W        W17839  12.394  43.988   2.285
47240W        W17840   7.963  43.895  12.035
47241W        W17841  22.253  39.880   2.834
47242W        W17842  13.843  30.405  14.628
47243W        W17843   8.432  26.469   0.941
47244W        W17844  13.632  36.798   4.300
47245W        W17845  12.649  41.350   3.790
47246W        W17846  14.656  28.514  12.345
47247W        W17847  12.274  40.841  11.487
47248W        W17848  39.594   8.670  11.637
47249W        W17849  20.940  35.152  14.436
47250W        W17850   0.352  35.050  12.440
47251W        W17851   4.374  38.161  11.135
47252W        W17852  19.674   4.303   1.863
47253W        W17853  32.969  29.698  12.362
47254W        W17854  24.788  23.920  14.015
47255W        W17855  29.250   9.049  14.432
47256W        W17856  31.281   8.475  12.466
47257W        W17857  38.586  27.260   3.271
47258W        W17858  30.103   1.889  13.809
47259W        W17859  39.070   2.767   1.436
47260W        W17860  37.232   0.965  13.434
47261W        W17861  35.852  37.418  13.014
47262W        W17862  22.076  22.636  12.107
47263W        W17863  18.133  16.738   4.740
47264W        W17864  25.553  20.092   1.299
47265W        W17865  10.475  22.143  14.855
47266W        W17866  26.455  24.930   2.218
47267W        W17867   1.834  33.609   2.720
47268W        W17868  26.092   9.649  11.584
47269W        W17869   7.405  16.722   3.726
47270W        W17870   1.452   6.484  11.977
47271W        W17871   9.887  39.285   3.303
47272W        W17872  33.386  43.478   3.397
47273W        W17873  12.917  30.539   0.090
47274W        W17874  35.322   3.777  10.641
47275W        W17875  27.598   4.455   1.546
47276W        W17876  35.290  29.002   3.244
47277W        W17877   8.768  41.587   4.584
47278W        W17878  37.326  43.180  11.098
47279W        W17879  27.721  14.066   4.146
47280W        W17880  18.097  31.960  10.772
47281W        W17881  30.155  19.053   0.866
47282W        W17882  38.584  30.194   3.914
47283W        W17883  19.635   7.214   3.150
47284W        W17884  32.528  15.495  11.616
47285W        W17885  12.845  22.969  10.799
47286W        W17886  17.697  30.913  11.500
47287W        W17887  20.385   5.223   4.177
47288W        W17888   5.905  40.246   3.333
47289W        W17889   1.106  22.632  10.302
47290W        W17890  22.068   6.400  13.931
47291W        W17891  41.053  40.372  13.182
47292W        W17892   2.111  26.132   4.609
47293W        W17893  40.562  22.182  13.430
47294W        W17894  43.433   2.676   0.769
47295W        W17895  33.455  31.090  14.884
47296W        W17896  36.219  11.293  12.324
47297W        W17897  43.526   0.958  12.050
47298W        W17898  39.535  21.020  11.966
47299W        W17899  37.229  11.816   2.271
47300W        W17900  39.587  21.210  12.935
47301W        W17901   7.281   4.481  12.482
47302W        W17902  36.541  32.529   3.720
47303W        W17903  27.727  17.077   0.042
47304W        W17904  38.790   5.326   2.467
47305W        W17905  32.983  32.498   1.454
47306W        W17906   1.347  33.408  13.909
47307W        W17907   3.257  16.119  11.019
47308W        W17908   2.475  21.266   3.739
47309W        W17909  20.641  37.867   2.778
47310W        W17910  18.225  25.603  13.318
47311W        W17911   1.474  35.917  11.978
47312W        W17912  23.959  27.788  13.008
47313W        W17913  29.666  17.035   1.494
47314W        W17914  27.918   4.719   0.687
47315W        W17915  21.859   6.635   0.290
47316W        W17916  28.449  21.576  10.613
47317W        W17917  13.322  20.004  14.561
47318W        W17918  44.382  28.244   2.978
47319W        W17919  13.882   7.946  14.978
47320W        W17920  19.666  13.628   4.776
47321W        W17921  39.068  26.665  14.037
47322W        W17922  34.822   1.982   3.202
47323W        W17923   7.817  15.068  12.201
47324W        W17924  44.712  22.702  11.588
47325W        W17925  18.341  25.224   0.426
47326W        W17926   2.757  35.484  13.420
47327W        W17927  21.100  36.273  13.929
47328W        W17928  12.795  21.682   1.436
47329W        W17929  33.721  22.545  11.252
47330W        W17930  37.632  37.991   3.755
47331W        W17931  18.108  11.514  14.402
47332W        W17932  13.217  44.769   4.542
47333W        W17933   2.201  20.991  14.438
47334W        W17934  19.713   5.687   4.579
47335W        W17935  24.758  29.362  11.170
47336W        W17936   3.289   2.523  13.532
47337W        W17937   7.111  17.867   3.267
47338W        W17938  20.662  14.159  14.366
47339W        W17939  16.527  18.010  11.491
47340W        W17940  34.138   8.561   0.648
47341W        W17941  31.684  18.759   1.647
47342W        W17942  21.147  13.304   2.738
47343W        W17943  27.491   1.790   0.519
47344W        W17944  35.608   9.261   1.248
47345W        W17945  25.531  42.279  14.364
47346W        W17946  19.760   5.520  13.458
47347W        W17947   7.124  16.586   2.061
47348W        W17948  23.595   6.707  10.359
47349W        W17949  29.391  11.466  11.505
47350W        W17950  27.756  17.638   4.015
47351W        W17951  19.184  30.525   0.862
47352W        W17952  34.798   4.266  11.374
47353W        W17953  33.366  28.912   4.587
47354W        W17954  24.811  11.996   1.355
47355W        W17955  38.213   0.441  12.836
47356W        W17956  13.821   5.175   3.856
47357W        W17957  44.260  41.836   0.481
47358W        W17958  26.137  27.002   3.200
47359W        W17959  43.471  16.785   3.194
47360W        W17960  14.952   6.764  12.127
47361W        W17961  21.830  20.572   0.265
47362W        W17962  40.391  43.521  12.846
47363W        W17963  18.596  21.051  11.198
47364W        W17964  13.542  39.467   4.651
47365W        W17965  42.891  28.907  12.605
47366W        W17966  38.818   7.877  12.034
47367W        W17967  39.413  22.419   0.119
47368W        W17968  39.056   0.092  13.871
47369W        W17969   3.997  21.822  11.076
47370W        W17970   4.840  32.737  11.717
47371W        W17971  30.446  14.243  11.861
47372W        W17972  21.525   9.704   1.053
47373W        W17973  39.054  43.586  13.853
47374W        W17974   3.016  33.087  13.797
47375W        W17975  22.531  43.744   0.751
47376W        W17976  28.112  40.132   1.789
47377W        W17977  38.772   8.701  14.041
47378W        W17978  31.155  26.208  12.892
47379W        W17979  11.759   6.217  11.689
47380W        W17980  21.799  34.780   3.718
47381W        W17981  35.128   0.807  14.772
47382W        W17982  10.827  32.704   4.934
47383W        W17983   4.628  20.836  14.278
47384W        W17984   5.927  19.179   3.618
47385W        W17985   0.287  35.646   0.385
47386W        W17986   8.858  42.747   4.138
47387W        W17987  10.384  41.347  14.846
47388W        W17988  17.704  25.753  12.387
47389W        W17989  14.306  32.489  14.058
47390W        W17990  44.504  34.855   3.143
47391W        W17991  20.670  14.658  12.201
47392W        W17992  43.484   5.073   0.319
47393W        W17993  31.110  43.029   2.282
47394W        W17994   7.734  34.420  10.176
47395W        W17995  31.416  35.061  12.918
47396W        W17996  32.993  31.885  10.608
47397W        W17997  38.262  16.244   0.049
47398W        W17998  34.876  25.170   2.199
47399W        W17999  14.811  12.658   2.161
47400W        W18000  25.670  33.537   4.349
47401W        W18001   2.728  28.536   1.876
47402W        W18002  37.882  32.465  12.092
47403W        W18003  12.228  32.798   2.292
47404W        W18004  13.756  22.894  12.469
47405W        W18005  18.540  40.442  14.025
47406W        W18006   5.251  10.105   2.352
47407W        W18007  42.619   1.057  11.748
47408W        W18008  23.330   8.764  12.193
47409W        W18009  12.357  33.587  13.559
47410W        W18010   8.907  11.728  14.837
47411W        W18011   5.869   7.840  13.440
47412W        W18012   8.100  36.222   0.240
47413W        W18013  44.527  23.375   0.866
47414W        W18014  12.361  44.712  14.875
47415W        W18015  27.499  29.678   3.199
47416W        W18016  15.825  30.109  11.855
47417W        W18017  27.869  22.079   1.030
47418W        W18018  41.430   4.210   0.425
47419W        W18019   0.404  43.185  11.955
47420W        W18020   1.273   0.484  14.055
47421W        W18021  15.535  27.909   3.772
47422W        W18022  37.059  41.207  12.013
47423W        W18023  19.059  22.678  12.926
47424W        W18024  29.840  39.236   5.104
47425W        W18025   6.082   5.822  14.929
47426W        W18026   1.163  23.743   2.668
47427W        W18027   5.865  35.534   2.661
47428W        W18028  19.815  11.206   2.071
47429W        W18029   5.281  10.088   1.431
47430W        W18030  22.213  12.377   1.874
47431W        W18031   1.425   9.288  14.811
47432W        W18032  35.497  25.760  11.206
47433W        W18033  39.220  38.855   1.720
47434W        W18034  22.595  30.432   2.436
47435W        W18035   1.836  36.701   0.704
47436W        W18036   9.266  30.982  11.039
47437W        W18037   7.646  11.244   3.554
47438W        W18038  30.088  40.821   0.450
47439W        W18039  43.412  23.041   3.879
47440W        W18040  31.174   3.148  11.978
47441W        W18041   2.476   1.082   4.231
47442W        W18042  20.786  31.943  11.216
47443W        W18043  12.281  37.060   4.345
47444W        W18044  25.203  15.127  13.281
47445W        W18045   4.294  33.748  14.182
47446W        W18046   5.183  38.534   1.488
47447W        W18047  42.397  44.271  14.831
47448W        W18048  12.401  37.872   0.706
47449W        W18049  35.373  17.982   0.554
47450W        W18050  32.161  42.552   1.751
47451W        W18051  39.694  31.877  13.769
47452W        W18052  18.235  16.803  14.682
47453W        W18053   9.105  25.581  11.755
47454W        W18054   0.022   7.627  14.288
47455W        W18055  20.492  42.546   0.354
47456W        W18056   2.776  15.085   0.775
47457W        W18057  20.687  15.369   0.715
47458W        W18058  25.482  24.448  10.815
47459W        W18059   2.002  14.177  13.030
47460W        W18060  19.584  14.908  13.994
47461W        W18061  21.781  25.736  12.900
47462W        W18062  13.867  15.224  12.377
47463W        W18063  22.004  42.843  10.739
47464W        W18064  16.793  37.865  12.875
47465W        W18065  31.019  31.894  10.246
47466W        W18066  40.373   4.225   1.787
47467W        W18067  16.152  21.772  10.729
47468W        W18068  35.106   2.780  13.945
47469W        W18069  32.930  44.785  10.583
47470W        W18070   0.748   3.351   0.149
47471W        W18071  32.448  31.298  11.979
47472W        W18072   0.772  43.351   3.255
47473W        W18073  20.074  23.627   4.076
47474W        W18074  24.188  16.384  13.110
47475W        W18075  41.015  24.159   3.200
47476W        W18076  27.371   9.121   0.748
47477W        W18077  43.495  16.080   4.431
47478W        W18078  32.242  21.365  12.507
47479W        W18079  27.584  35.729   4.519
47480W        W18080  24.465  44.942  12.460
47481W        W18081  31.114  28.361  11.080
47482W        W18082   3.749  35.319   4.044
47483W        W18083  31.405  23.899  12.519
47484W        W18084  36.972  38.641  14.043
47485W        W18085   8.639  17.290   1.712
47486W        W18086  38.057   5.587  11.277
47487W        W18087   5.196  29.987  10.665
47488W        W18088  39.333  30.529   2.687
47489W        W18089  11.579  21.664   4.662
47490W        W18090  25.097  42.845  13.911
47491W        W18091  22.193   6.302   0.978
47492W        W18092  30.682  15.571   1.369
47493W        W18093  41.764  30.051  12.471
47494W        W18094  23.590  34.003   3.748
47495W        W18095  37.495  28.229   3.152
47496W        W18096  17.553   7.211   1.516
47497W        W18097  18.244  38.134  14.379
47498W        W18098  27.522   2.771  13.604
47499W        W18099  20.134  12.342   1.445
47500W        W18100   2.414  21.576  11.617
47501W        W18101   7.436  35.319   4.689
47502W        W18102  12.909  42.234  11.910
47503W        W18103  37.383  19.170  11.879
47504W        W18104   0.568   7.179   2.158
47505W        W18105  15.089  37.616   1.295
47506W        W18106  41.503  22.090  13.418
47507W        W18107  29.822   0.477  11.404
47508W        W18108  44.394   2.375   3.566
47509W        W18109  23.279  39.907   2.554
47510W        W18110   8.159   7.391   2.685
47511W        W18111  43.758   6.754   4.527
47512W        W18112  35.121   7.116   3.422
47513W        W18113  28.873   9.361   0.917
47514W        W18114   7.285   7.166   1.242
47515W        W18115  11.874  37.249   3.230
47516W        W18116  21.992  13.226  11.073
47517W        W18117   2.392  19.706  11.093
47518W        W18118  25.135  27.952   0.417
47519W        W18119  24.212  23.881  12.900
47520W        W18120   2.973  19.200   0.973
47521W        W18121  32.029  12.170   2.168
47522W        W18122  36.476  10.853   1.341
47523W        W18123  22.290  14.310  11.706
47524W        W18124  25.755  22.192  12.393
47525W        W18125  18.727   6.919   0.933
47526W        W18126  41.027   7.224   4.155
47527W        W18127  26.411  36.838   1.408
47528W        W18128  34.600  19.662   0.877
47529W        W18129  38.383  40.165   0.292
47530W        W18130   6.892  11.325   4.154
47531W        W18131   2.176   1.648  13.111
47532W        W18132  29.208   7.225   2.426
47533W        W18133   1.417  44.888   0.275
47534W        W18134  38.042   7.243  13.280
47535W        W18135  35.507   2.875  13.469
47536W        W18136  27.919   2.086  13.376
47537W        W18137   5.693   3.675   1.523
47538W        W18138  29.604  19.018   3.191
47539W        W18139  35.492  43.239  13.445
47540W        W18140   2.184  25.028   2.900
47541W        W18141  28.654  15.231   4.607
47542W        W18142   4.900  15.644   5.178
47543W        W18143  13.174  21.795  12.572
47544W        W18144  26.175  29.475  14.339
47545W        W18145  31.714  22.299   1.768
47546W        W18146   6.322  12.743  12.505
47547W        W18147  36.682  33.711  10.748
47548W        W18148   9.375  38.021  13.142
47549W        W18149   7.866   7.648  13.013
47550W        W18150  33.916  41.832   0.704
47551W        W18151  29.568  43.902  12.946
47552W        W18152  39.854  23.663   1.359
47553W        W18153  23.675  37.007   4.522
47554W        W18154  35.787   5.197   3.471
47555W        W18155  34.835   1.265   0.502
47556W        W18156  21.505  28.072  13.895
47557W        W18157  37.649  36.068  14.154
47558W        W18158  29.840  16.121  13.922
47559W        W18159  31.917   0.189   1.278
47560W        W18160  21.660   2.638   0.958
47561W        W18161  41.083  34.505   0.861
47562W        W18162  33.517  30.284   3.268
47563W        W18163  30.649  42.915  11.959
47564W        W18164  28.850   2.892  13.636
47565W        W18165  23.471  21.859   2.699
47566W        W18166  23.754  36.945  10.499
47567W        W18167  34.661  40.007  11.180
47568W        W18168   0.611   8.253  14.798
47569W        W18169   3.642  24.228   1.736
47570W        W18170   3.355   5.922   2.905
47571W        W18171  41.832  43.018  13.971
47572W        W18172  23.357  32.062  13.346
47573W        W18173  21.822  27.889   1.889
47574W        W18174  32.677  44.132   2.374
47575W        W18175  17.214  40.816   1.766
47576W        W18176  31.837   8.706   2.640
47577W        W18177  24.147   7.367   5.362
47578W        W18178  27.676  38.437  14.781
47579W        W18179  39.450  34.939   0.474
47580W        W18180  17.910  32.885  14.377
47581W        W18181  14.332  23.064   3.642
47582W        W18182   2.770  10.406   2.207
47583W        W18183  35.994  26.743   0.508
47584W        W18184  35.829  31.826   3.840
47585W        W18185  20.794  18.491  12.117
47586W        W18186  25.606  23.694   3.058
47587W        W18187  32.151  13.174  10.749
47588W        W18188  21.566  10.184   1.263
47589W        W18189  13.177   8.650  14.888
47590W        W18190  41.472  12.409   3.785
47591W        W18191  40.491   0.260  13.280
47592W        W18192   8.383   3.232  12.120
47593W        W18193  38.588   0.015   0.719
47594W        W18194  27.597  38.524   4.324
47595W        W18195  27.056   3.969  13.970
47596W        W18196  19.075  30.897  14.848
47597W        W18197   2.806   6.573   1.860
47598W        W18198   1.836   7.647  13.753
47599W        W18199   8.923  19.832   0.340
47600W        W18200  25.711  24.143   1.342
47601W        W18201  20.699   9.374  10.685
47602W        W18202  30.089  27.281  12.931
47603W        W18203  22.150  42.026  13.965
47604W        W18204  16.632  35.409   2.465
47605W        W18205  20.585  25.474   0.829
47606W        W18206   3.635  19.264   0.196
47607W        W18207  24.343  16.584   1.065
47608W        W18208  10.347  15.126   3.257
47609W        W18209  18.493  23.717   1.230
47610W        W18210  11.602  29.995  12.464
47611W        W18211  41.821   6.685  11.568
47612W        W18212  36.600  43.029   4.516
47613W        W18213  40.793  13.306  13.343
47614W        W18214  25.594   8.480   2.314
47615W        W18215  17.614  41.921  10.486
47616W        W18216   1.964   0.658  10.752
47617W        W18217   0.895   6.370   5.113
47618W        W18218  25.407  40.061  13.552
47619W        W18219  39.119  23.612  13.017
47620W        W18220   9.233  12.823   5.015
47621W        W18221  26.432   2.542   0.923
47622W        W18222  13.905  41.135  10.620
47623W        W18223  18.682  10.292   2.589
47624W        W18224  31.745  24.621  14.388
47625W        W18225   1.013   4.791  10.123
47626W        W18226   7.408  25.596   3.318
47627W        W18227  44.231   5.160  13.583
47628W        W18228   5.291  11.729  10.839
47629W        W18229  23.586   4.146  14.302
47630W        W18230  31.864  16.839   0.769
47631W        W18231  44.029  13.593  11.610
47632W        W18232  32.065  41.067  12.982
47633W        W18233   6.748  40.862   0.848
47634W        W18234   4.288   6.010   2.758
47635W        W18235  36.708   2.307  12.588
47636W        W18236  39.468  21.908  14.375
47637W        W18237  19.795  20.206  13.922
47638W        W18238  31.454   0.243   2.173
47639W        W18239  35.011   5.773   2.378
47640W        W18240   0.496  24.299   2.896
47641W        W18241  24.246  40.407  11.559
47642W        W18242  22.644  17.709   1.095
47643W        W18243  24.411  10.650  12.532
47644W        W18244   5.188  22.909   3.518
47645W        W18245  11.777  36.503   3.696
47646W        W18246  27.183  38.075   4.821
47647W        W18247  42.517  41.389   1.752
47648W        W18248  36.610  30.486  14.290
47649W        W18249  44.720  15.095   0.296
47650W        W18250   5.380  25.761   1.318
47651W        W18251  14.140  17.694  11.518
47652W        W18252  16.090  36.370   2.613
47653W        W18253  21.138  20.277  12.932
47654W        W18254   9.784  20.258  14.240
47655W        W18255   6.770  19.200   1.048
47656W        W18256  23.690  10.311   1.271
47657W        W18257  22.640   9.731   1.831
47658W        W18258  19.569  31.107  14.900
47659W        W18259  17.276  44.515   3.993
47660W        W18260  22.164   6.674  14.365
47661W        W18261  41.608  28.967  12.143
47662W        W18262  20.760  10.288  14.323
47663W        W18263  32.792  30.227  14.478
47664W        W18264   6.826  14.092   0.968
47665W        W18265  19.184  37.291  13.545
47666W        W18266  16.754  32.008   0.872
47667W        W18267  43.926  30.451  13.101
47668W        W18268   8.767  33.242  11.407
47669W        W18269  42.750   4.622   2.169
47670W        W18270   9.540  20.411  11.102
47671W        W18271   1.448   0.184  12.075
47672W        W18272  44.406   4.100   4.269
47673W        W18273  13.760  39.903   0.001
47674W        W18274   6.858  36.102  11.544
47675W        W18275  34.347  40.164  11.601
47676W        W18276  33.068  27.132   2.363
47677W        W18277  33.519  43.855  10.260
47678W        W18278  40.078  31.349   1.528
47679W        W18279   7.683  23.475  14.249
47680W        W18280  36.448  15.056   3.752
47681W        W18281   4.371  26.216   0.403
47682W        W18282  11.715  33.016  11.459
47683W        W18283  13.586  20.624   1.347
47684W        W18284  27.982  29.015  13.391
47685W        W18285   4.836  44.028  12.629
47686W        W18286   4.984  21.574  10.690
47687W        W18287   2.835  39.434   3.811
47688W        W18288  37.087  16.878   1.978
47689W        W18289  43.870  29.446  12.043
47690W        W18290  38.342  38.941  12.068
47691W        W18291   2.949  26.125   4.111
47692W        W18292   2.900  40.228   0.207
47693W        W18293  18.769  33.628   2.408
47694W        W18294   4.792  34.053   2.009
47695W        W18295  25.469   0.242   4.615
47696W        W18296  28.189  38.557  14.656
47697W        W18297  41.070  27.441  12.091
47698W        W18298  10.271  41.588  11.711
47699W        W18299  17.699   6.382   0.079
47700W        W18300  33.690  19.224  12.507
47701W        W18301  35.833  30.698   4.558
47702W        W18302  32.380  38.405   3.675
47703W        W18303  19.476   1.286   4.870
47704W        W18304  37.404  25.298  13.932
47705W        W18305  23.273  42.457   2.213
47706W        W18306   5.636  39.840   0.713
47707W        W18307  35.759  11.409  11.677
47708W        W18308   8.435  26.159   4.662
47709W        W18309  31.369  30.735  12.112
47710W        W18310   9.330  32.538  11.648
47711W        W18311  31.091  16.854   0.325
47712W        W18312   5.045   1.645   2.293
47713W        W18313  32.990   3.646  11.081
47714W        W18314  44.764  35.455   4.176
47715W        W18315   0.382  38.466   0.916
47716W        W18316  21.216  21.597   4.528
47717W        W18317  23.978  11.321  14.234
47718W        W18318  23.655  38.790  14.539
47719W        W18319   2.445  37.905  11.653
47720W        W18320   1.679  37.958  10.973
47721W        W18321  38.356  22.949  13.296
47722W        W18322  28.519  26.593  10.125
47723W        W18323  31.345  44.376   1.420
47724W        W18324  40.464  10.176   0.542
47725W        W18325   1.135   4.229  14.895
47726W        W18326  12.801  17.770  14.919
47727W        W18327  33.923  25.677   0.037
47728W        W18328  44.037  22.701   4.277
47729W        W18329  37.018  15.739  14.901
47730W        W18330  18.274  12.354   3.699
47731W        W18331  34.130  17.699   0.043
47732W        W18332   0.380  28.270   4.381
47733W        W18333   2.539   1.746   3.243
47734W        W18334  41.863  29.257   1.336
47735W        W18335   8.732  42.453   4.741
47736W        W18336   7.171  32.269   4.660
47737W        W18337   4.043  31.205   2.113
47738W        W18338  10.799  18.162   0.989
47739W        W18339  34.078  30.981   1.949
47740W        W18340  34.681   2.461  14.025
47741W        W18341  24.196   7.809  11.599
47742W        W18342  21.701  17.296   3.414
47743W        W18343  33.686   1.504  10.557
47744W        W18344  10.538   3.372   4.618
47745W        W18345  29.624  21.864   1.903
47746W        W18346  43.884  18.593  11.557
47747W        W18347  11.345  27.990   0.881
47748W        W18348   4.435  25.250  10.014
47749W        W18349   3.860  11.627   4.695
47750W        W18350  33.751  36.619  11.220
47751W        W18351  43.089  17.977   3.198
47752W        W18352  39.549  21.153   0.008
47753W        W18353  32.929  41.516  11.830
47754W        W18354  26.709   7.743   2.720
47755W        W18355  27.947   2.007  12.062
47756W        W18356  26.602  33.424   3.731
47757W        W18357   8.210  13.485   3.772
47758W        W18358   3.089   3.279  10.169
47759W        W18359  39.886  11.662   3.405
47760W        W18360  11.854  39.981  14.799
47761W        W18361   1.148  20.784   2.257
47762W        W18362  41.746  14.224  13.461
47763W        W18363   2.770   0.832   4.621
47764W        W18364   8.459   2.894  13.386
47765W        W18365  18.378  22.198   1.867
47766W        W18366  41.862   1.763   1.125
47767W        W18367   3.329  18.001  12.623
47768W        W18368  37.114  36.580  12.043
47769W        W18369  26.756  23.251   1.329
47770W        W18370  37.014  10.642  11.577
47771W        W18371  43.403  41.873  13.975
47772W        W18372  24.605  13.959   1.430
47773W        W18373  32.992  39.738   2.264
47774W        W18374  18.824  41.368  14.492
47775W        W18375  13.570  44.439   3.767
47776W        W18376  27.510   4.770   2.356
47777W        W18377  15.902  43.248   1.203
47778W        W18378   3.960  12.388  13.508
47779W        W18379  43.962   1.481  13.861
47780W        W18380  35.771  16.666  11.246
47781W        W18381  25.604  30.062  11.037
47782W        W18382  28.542  15.899   4.087
47783W        W18383  24.685  43.558   1.047
47784W        W18384  44.480  24.650   2.118
47785W        W18385   4.638  18.321  11.000
47786W        W18386  35.616   1.594   1.004
47787W        W18387  30.107  12.616  12.086
47788W        W18388  24.499  19.988  11.538
47789W        W18389  10.789  10.027   1.269
47790W        W18390   3.370  12.428  13.936
47791W        W18391  34.787  19.369  10.608
47792W        W18392  23.927  21.588   2.754
47793W        W18393  39.584  38.289   4.569
47794W        W18394   7.757  41.700  13.816
47795W        W18395   6.178  26.870  10.256
47796W        W18396  25.550  24.754  10.403
47797W        W18397   8.650  30.621  12.861
47798W        W18398  32.600  20.986  14.828
47799W        W18399  33.807   5.406   3.892
47800W        W18400  13.610  36.439  12.411
47801W        W18401   0.685  20.061  12.063
47802W        W18402  12.908  21.624  14.953
47803W        W18403  21.693  26.958   1.659
47804W        W18404   5.489  37.481   5.029
47805W        W18405   4.707  20.365  12.508
47806W        W18406  37.743  37.487   3.228
47807W        W18407  26.231  11.314  13.623
47808W        W18408  31.103  17.077   1.734
47809W        W18409  40.691  17.610  10.369
47810W        W18410  35.625   4.179   0.900
47811W        W18411  35.786  11.679   4.612
47812W        W18412  35.498  43.090   0.716
47813W        W18413   3.540  23.764  14.770
47814W        W18414  30.040  24.422   0.558
47815W        W18415  29.302  18.100  10.430
47816W        W18416  44.259  13.602   2.862
47817W        W18417  43.899  15.377   1.796
47818W        W18418   2.987  29.050   2.650
47819W        W18419  40.923  22.017  12.933
47820W        W18420  34.287  26.112   1.830
47821W        W18421  35.527  22.588  12.444
47822W        W18422  39.808   0.941  14.938
47823W        W18423  23.044  15.377  12.949
47824W        W18424  30.888  10.715   0.517
47825W        W18425   3.987  13.760   4.307
47826W        W18426   5.820  40.348   4.301
47827W        W18427  10.066  22.530   3.146
47828W        W18428  24.628  24.135   3.880
47829W        W18429  13.046   1.392   1.025
47830W        W18430  10.790  31.026  14.295
47831W        W18431  41.810  25.725  12.681
47832W        W18432   9.463   2.018  12.887
47833W        W18433  16.727  28.144  12.500
47834W        W18434   6.889   4.510  14.442
47835W        W18435   7.156  15.065   4.086
47836W        W18436  37.559  44.245   3.713
47837W        W18437  40.240  27.557  13.236
47838W        W18438   6.468  33.550   4.356
47839W        W18439  26.596  28.543  13.501
47840W        W18440  24.174  28.101  14.390
47841W        W18441   6.343  12.823   3.243
47842W        W18442   5.886  11.264   2.322
47843W        W18443   1.316   1.993  14.503
47844W        W18444   5.290  36.226   4.212
47845W        W18445  11.852  35.975   3.634
47846W        W18446  22.749  31.142   2.194
47847W        W18447  21.863  18.443  14.461
47848W        W18448  20.927  13.717  13.133
47849W        W18449  15.678  26.153  13.027
47850W        W18450  26.162  35.161  13.077
47851W        W18451   6.179   0.923   2.263
47852W        W18452  15.498  11.791   3.722
47853W        W18453  15.814   4.761   3.330
47854W        W18454   0.233  17.787   2.531
47855W        W18455  18.405  41.293   5.046
47856W        W18456  27.406  21.979   1.963
47857W        W18457  17.984   7.173   2.844
47858W        W18458  29.119   7.611  13.908
47859W        W18459  15.302   0.939   2.243
47860W        W18460  42.434  30.915   4.908
47861W        W18461  40.334  24.644  14.991
47862W        W18462  25.447  33.404  12.985
47863W        W18463  16.670  24.472  13.270
47864W        W18464   3.436  12.779  11.242
47865W        W18465  23.221  32.997   4.729
47866W        W18466  43.527  44.895  13.941
47867W        W18467   4.652  42.779   4.727
47868W        W18468  42.781  34.151   3.067
47869W        W18469   9.759  37.016   4.437
47870W        W18470  38.584  25.891  11.609
47871W        W18471  41.897  35.936  11.610
47872W        W18472  44.038  42.562  12.547
47873W        W18473  43.820   8.851   4.574
47874W        W18474   4.466  39.835   1.921
47875W        W18475  28.586   6.344   0.956
47876W        W18476  32.340  22.779   2.200
47877W        W18477  22.167  35.863   1.100
47878W        W18478  19.961  13.221   1.887
47879W        W18479   7.801  16.349   2.688
47880W        W18480  25.085  33.898   1.218
47881W        W18481   9.909  12.604  11.028
47882W        W18482  42.971   4.713  14.028
47883W        W18483  36.404  38.407  12.781
47884W        W18484  43.999   9.170   4.207
47885W        W18485  30.066   8.706   4.104
47886W        W18486   3.446  37.339  13.230
47887W        W18487  13.236  34.972  11.875
47888W        W18488  11.715   0.136   3.657
47889W        W18489   2.370  42.963   3.118
47890W        W18490  27.150  33.511  14.936
47891W        W18491   1.278  21.806   4.454
47892W        W18492  28.188  35.126  12.678
47893W        W18493  24.862   4.055   2.704
47894W        W18494  14.792  42.684  12.024
47895W        W18495  34.891  39.955  12.564
47896W        W18496  33.147  40.545  12.381
47897W        W18497  43.352  31.221  10.688
47898W        W18498   6.445  27.063  13.050
47899W        W18499  38.247   8.808  14.047
47900W        W18500  44.754  24.550  12.799
47901W        W18501   7.152  16.660  13.051
47902W        W18502  12.856   7.665  10.721
47903W        W18503  13.342   3.651   3.106
47904W        W18504  43.489   1.405   1.177
47905W        W18505   0.807  14.039   4.165
47906W        W18506  25.555  40.026  13.047
47907W        W18507   4.748  25.285  13.493
47908W        W18508  21.652  15.315  12.843
47909W        W18509  18.800   5.455   0.664
47910W        W18510  39.588  33.525   2.720
47911W        W18511  17.688  36.907   2.174
47912W        W18512  14.421  21.695  10.683
47913W        W18513  41.456  30.461   0.920
47914W        W18514  21.957  36.371  14.895
47915W        W18515   1.029   8.645   4.733
47916W        W18516  25.022  33.482  11.474
47917W        W18517  10.287  13.094  13.509
47918W        W18518   1.323  41.603  14.965
47919W        W18519   2.806  24.257   0.027
47920W        W18520  16.873  12.749   2.666
47921W        W18521  21.795  32.121  12.615
47922W        W18522  27.696  20.570   3.781
47923W        W18523   2.775  21.090   4.865
47924W        W18524  39.282  42.803   0.941
47925W        W18525  29.483  33.920   0.854
47926W        W18526  10.276   4.451   0.349
47927W        W18527   1.639  16.950  13.831
47928W        W18528  21.857  23.485  12.359
47929W        W18529  33.080  32.974  11.976
47930W        W18530   2.022   2.944   0.325
47931W        W18531   8.778  32.061  14.936
47932W        W18532  43.820  30.542   1.448
47933W        W18533  26.557  17.057  14.060
47934W        W18534  25.331  36.656  11.170
47935W        W18535  16.486  28.445  12.109
47936W        W18536  19.773  20.909  14.137
47937W        W18537  18.351  36.829  13.787
47938W        W18538  40.565   9.611  13.489
47939W        W18539  20.100  22.178   0.228
47940W        W18540   2.459  36.865  13.751
47941W        W18541  22.710  32.957   3.815
47942W        W18542  21.653  25.351   3.601
47943W        W18543  43.234  34.470  14.983
47944W        W18544  12.264   0.283   3.628
47945W        W18545  30.051  28.011   2.659
47946W        W18546  17.700  23.495  11.423
47947W        W18547   4.770  36.956  11.610
47948W        W18548  14.230  10.262  14.888
47949W        W18549  38.568  29.945   4.387
47950W        W18550  34.915  37.868   4.332
47951W        W18551  20.579  30.750  13.132
47952W        W18552  28.765  22.690   4.525
47953W        W18553  23.126  23.087  14.394
47954W        W18554  20.101  14.730  13.960
47955W        W18555  13.811   6.190  12.538
47956W        W18556  40.614  39.852  11.748
47957W        W18557   9.140  12.745  10.516
47958W        W18558  33.152  18.573  12.009
47959W        W18559  31.462  28.485  11.432
47960W        W18560  33.524   7.035   3.261
47961W        W18561  11.074   3.323   0.763
47962W        W18562  32.478   5.173  13.977
47963W        W18563  40.136  37.359  10.693
47964W        W18564  26.640  41.348  12.551
47965W        W18565   8.661  39.448  13.960
47966W        W18566  16.524  33.014   4.591
47967W        W18567  11.263  17.524   4.388
47968W        W18568  16.091  26.662   3.566
47969W        W18569  15.138  17.902   3.307
47970W        W18570  37.962  18.846  12.419
47971W        W18571   9.275  24.075   0.468
47972W        W18572  24.014  14.408  12.567
47973W        W18573  39.013  27.226  14.782
47974W        W18574  11.768  12.517   3.657
47975W        W18575  33.657  43.965   4.150
47976W        W18576  18.683  32.104   3.952
47977W        W18577  18.532  38.675  12.593
47978W        W18578  44.971  35.287  12.784
47979W        W18579  28.883  12.677  13.773
47980W        W18580  14.996  12.104  12.137
47981W        W18581  12.708  25.184   3.727
47982W        W18582  34.240  17.789   0.536
47983W        W18583  36.522  33.212   1.376
47984W        W18584  38.012  38.100   1.360
47985W        W18585  14.242  38.773   4.313
47986W        W18586  11.846  26.959  13.538
47987W        W18587   4.018  24.029   3.627
47988W        W18588  11.371  31.364   2.883
47989W        W18589  18.339  32.784   3.315
47990W        W18590  27.198  11.695  13.511
47991W        W18591  26.577  31.489  11.913
47992W        W18592   1.682  14.257   3.255
47993W        W18593  34.863  36.421   3.187
47994W        W18594  29.018  36.915  13.507
47995W        W18595   2.396   3.988   4.570
47996W        W18596  40.948  33.822   4.254
47997W        W18597  41.010   8.362  11.597
47998W        W18598  34.662  27.052  13.560
47999W        W18599  43.843  33.100   2.708
48000W        W18600  21.663   0.322   1.633
48001W        W18601  15.584  44.955  10.966
48002W        W18602   0.817   2.344  10.562
48003W        W18603  41.211  20.769   5.005
48004W        W18604  28.969  43.007  11.598
48005W        W18605  35.008  37.911   2.299
48006W        W18606   5.567  34.088   1.352
48007W        W18607  40.861  19.303  14.249
48008W        W18608   5.070  31.029  13.562
48009W        W18609  33.967  42.349  10.722
48010W        W18610  25.493  43.941  13.425
48011W        W18611  16.681  11.894  13.488
48012W        W18612  17.839  19.149   3.155
48013W        W18613  29.430   7.600   0.267
48014W        W18614   5.118   7.176   1.759
48015W        W18615  22.961  35.519   1.390
48016W        W18616  42.340  14.677   4.245
48017W        W18617  39.949   0.242   2.154
48018W        W18618  24.164   9.704  13.610
48019W        W18619   1.246   0.704   2.266
48020W        W18620  15.093   6.677   3.294
48021W        W18621  25.106  24.415  12.917
48022W        W18622  28.267  29.242   4.334
48023W        W18623  41.494  33.941   4.809
48024W        W18624  42.900  38.335   0.626
48025W        W18625  42.586  22.937   0.816
48026W        W18626  18.637  34.826  12.421
48027W        W18627  34.454  32.863   4.327
48028W        W18628  13.837  29.068   4.398
48029W        W18629  18.178  40.610  11.047
48030W        W18630  40.529  37.658  12.333
48031W        W18631  17.283  17.249  10.761
48032W        W18632   5.355  18.890   1.717
48033W        W18633  40.517  15.305   1.843
48034W        W18634  28.900  30.356  14.821
48035W        W18635  30.406   0.971   4.633
48036W        W18636  11.882  39.379  14.469
48037W        W18637  11.827   2.487  12.937
48038W        W18638  44.869   9.097  14.244
48039W        W18639  39.371  32.639   1.763
48040W        W18640  10.377  13.423  14.400
48041W        W18641  32.005  16.240   4.856
48042W        W18642  44.829  10.787   0.360
48043W        W18643  39.414  41.292   2.433
48044W        W18644   7.113  29.013   0.952
48045W        W18645  30.583  21.232  11.484
48046W        W18646   2.412  10.169  11.445
48047W        W18647  13.201  31.052  11.083
48048W        W18648  35.131   5.332  11.785
48049W        W18649  37.290   9.210  12.563
48050W        W18650  30.276  14.019  14.380
48051W        W18651   7.894  14.145  11.741
48052W        W18652  40.856  41.460   2.476
48053W        W18653  33.627  13.023   2.396
48054W        W18654  40.210   2.770  13.680
48055W        W18655  18.371  20.833  13.445
48056W        W18656   9.610  32.905   1.347
48057W        W18657  39.793  40.432  13.941
48058W        W18658  38.104  39.525  12.167
48059W        W18659   0.392  24.996   5.215
48060W        W18660  44.845   0.493  13.363
48061W        W18661  44.979   8.462   1.237
48062W        W18662  18.066  10.935  11.917
48063W        W18663  43.297   1.366   4.426
48064W        W18664  30.355  34.532  13.925
48065W        W18665  19.832   6.852   3.450
48066W        W18666  36.846  14.205   0.951
48067W        W18667   9.563  11.965  11.066
48068W        W18668  10.617  13.170  12.388
48069W        W18669  36.053   4.311   3.006
48070W        W18670  41.530  22.950  12.098
48071W        W18671  34.430   2.244   0.362
48072W        W18672   4.912  19.731   1.163
48073W        W18673   0.947  16.157   4.794
48074W        W18674   0.065   6.960  14.582
48075W        W18675   7.936  14.861   1.217
48076W        W18676   1.929  26.190   0.846
48077W        W18677  27.920  15.004  12.648
48078W        W18678  14.074  34.030   3.740
48079W        W18679  20.650   1.261   1.342
48080W        W18680  17.758  16.966   0.469
48081W        W18681  36.610   8.850  12.032
48082W        W18682  28.594  28.136  14.152
48083W        W18683  12.696  31.034  11.342
48084W        W18684  29.992  14.866   2.301
48085W        W18685   6.870  13.152   1.246
48086W        W18686  23.004   6.466  13.472
48087W        W18687  21.362  27.332  10.287
48088W        W18688  17.062  25.681   5.529
48089W        W18689   4.248  39.322  13.879
48090W        W18690  10.425  29.706  10.753
48091W        W18691  28.751  14.124   0.721
48092W        W18692  17.583  20.590   1.897
48093W        W18693  40.298  11.747   5.105
48094W        W18694   9.318  37.569   0.249
48095W        W18695  36.782  35.042  12.081
48096W        W18696  28.167  34.875  12.222
48097W        W18697  14.307  25.265  12.895
48098W        W18698   6.661  31.214   0.686
48099W        W18699  19.271  41.755   2.271
48100W        W18700  42.464  14.646   2.882
48101W        W18701  41.295   9.638   4.408
48102W        W18702  41.062  21.664  11.964
48103W        W18703  31.105   4.900   4.610
48104W        W18704  27.451  40.578   2.198
48105W        W18705  13.878  33.563   0.892
48106W        W18706  20.020  27.404  14.414
48107W        W18707  22.084   7.920  10.290
48108W        W18708   5.658  34.415  12.184
48109W        W18709   3.444  28.615   0.745
48110W        W18710   4.472  35.549   3.637
48111W        W18711  16.161   4.410  12.568
48112W        W18712  32.340  26.171  11.237
48113W        W18713  42.210  38.397   2.488
48114W        W18714  37.940  33.155  14.805
48115W        W18715  14.777  41.825   3.260
48116W        W18716  12.114  12.985  13.060
48117W        W18717  17.088   6.565   0.766
48118W        W18718  35.972  12.298   2.247
48119W        W18719  22.153  37.946   2.580
48120W        W18720  14.564  36.252   3.653
48121W        W18721   2.859  37.552  13.741
48122W        W18722  15.867  15.424   5.457
48123W        W18723  19.314  37.836  14.833
48124W        W18724  22.750  41.404  14.423
48125W        W18725  18.941  26.995  13.028
48126W        W18726   6.211  41.468  11.472
48127W        W18727   8.482   5.058  10.795
48128W        W18728  37.509  17.436   2.882
48129W        W18729  34.550  26.696  13.035
48130W        W18730  34.424   1.349  14.589
48131W        W18731  20.019   6.947   4.381
48132W        W18732  22.684  27.186   3.831
48133W        W18733  32.474  12.829   1.888
48134W        W18734  12.851   0.975  11.893
48135W        W18735  28.663  39.381  12.113
48136W        W18736   8.164   6.905  13.346
48137W        W18737  28.487  15.309   3.231
48138W        W18738  29.644   3.446  14.739
48139W        W18739  30.320  25.129  13.058
48140W        W18740   0.251  38.870  10.803
48141W        W18741  13.360  26.045  11.365
48142W        W18742  40.553   1.040   0.197
48143W        W18743  40.362  14.840  10.696
48144W        W18744  43.299  24.328   2.792
48145W        W18745  13.258  22.130  11.136
48146W        W18746  32.730  39.035   3.889
48147W        W18747  15.254  10.915  11.214
48148W        W18748  30.506  42.324  14.850
48149W        W18749  28.123  44.913  12.134
48150W        W18750  35.343  43.213  14.354
48151W        W18751   1.896  36.216   0.476
48152W        W18752  12.212  37.970   1.392
48153W        W18753  40.834  18.631   1.992
48154W        W18754  39.556  11.697   4.093
48155W        W18755  21.570  20.689   2.754
48156W        W18756   0.174  19.317  10.847
48157W        W18757   0.683  41.537  10.627
48158W        W18758  24.124  19.962   4.786
48159W        W18759  10.398  29.061   1.440
48160W        W18760   7.603   4.315  11.365
48161W        W18761  23.028  15.199   2.241
48162W        W18762  16.282  41.328   2.246
48163W        W18763  14.995  26.695   2.290
48164W        W18764   9.207  29.228   1.721
48165W        W18765  42.988  17.042   3.260
48166W        W18766   6.852  38.016  10.340
48167W        W18767  29.318  10.221  13.799
48168W        W18768  35.641  26.076   0.692
48169W        W18769  41.574  30.947  12.939
48170W        W18770   7.164   8.408  10.755
48171W        W18771  24.160  11.183   0.303
48172W        W18772  25.209  24.167   1.343
48173W        W18773   2.701  36.421  14.531
48174W        W18774  15.610  24.065   2.315
48175W        W18775  31.047  31.433  13.903
48176W        W18776  33.069  26.571  13.629
48177W        W18777  41.930   3.979  11.662
48178W        W18778  39.367   7.386  12.504
48179W        W18779   9.804  34.498   1.496
48180W        W18780  21.712  15.360  14.997
48181W        W18781  31.980   2.929  13.760
48182W        W18782  42.413  31.078   2.276
48183W        W18783  11.533  34.090  10.712
48184W        W18784  11.356  42.890   4.938
48185W        W18785  20.575  19.244  14.212
48186W        W18786  33.875  33.843  13.923
48187W        W18787  25.049  30.214   3.152
48188W        W18788  35.000   6.261   4.553
48189W        W18789  31.143  26.132   0.248
48190W        W18790  23.951  25.980   4.027
48191W        W18791  35.212  25.857   0.835
48192W        W18792   1.695  31.789  13.556
48193W        W18793  23.625  32.488  13.094
48194W        W18794  21.234   9.989  11.658
48195W        W18795   8.715  17.140  14.356
48196W        W18796  27.439  38.330   2.765
48197W        W18797  14.473  24.293  11.710
48198W        W18798  15.139   7.187   0.612
48199W        W18799  38.440  16.123  13.809
48200W        W18800  44.024  26.618   4.183
48201W        W18801  11.340   0.481  12.419
48202W        W18802  11.011  37.379   3.185
48203W        W18803  21.456  17.687   0.011
48204W        W18804  37.521   7.446  14.511
48205W        W18805  11.909  30.617  13.620
48206W        W18806  35.094  15.067  11.583
48207W        W18807   7.799  10.068  11.210
48208W        W18808  43.930  27.598  10.794
48209W        W18809  16.121  20.208   0.829
48210W        W18810  29.710  36.022  10.770
48211W        W18811  37.307  18.569  13.918
48212W        W18812  33.665  10.433   4.268
48213W        W18813  15.508  16.669  13.566
48214W        W18814  18.301  41.868  11.675
48215W        W18815  14.616   7.828  11.015
48216W        W18816  10.928  32.836   2.491
48217W        W18817   1.460   1.499   0.389
48218W        W18818  18.336  12.777   1.367
48219W        W18819   4.084  20.588  12.876
48220W        W18820  14.317  44.179   3.337
48221W        W18821  22.786  31.345  13.903
48222W        W18822  12.865  36.319   2.165
48223W        W18823  40.952  32.688  11.780
48224W        W18824   0.112  40.162  13.507
48225W        W18825  26.356  39.736   4.458
48226W        W18826   0.167  32.426  13.457
48227W        W18827  19.146  23.934  12.331
48228W        W18828   8.795  22.135  11.746
48229W        W18829  29.023   1.401  13.880
48230W        W18830  23.008  41.085  14.742
48231W        W18831  19.230  28.032   1.943
48232W        W18832  35.634  28.625   1.920
48233W        W18833  44.559  25.694  12.459
48234W        W18834   4.639  41.631   4.353
48235W        W18835  39.914  16.597   0.045
48236W        W18836   8.334  42.733  14.359
48237W        W18837  17.983  24.114   0.956
48238W        W18838  11.954  22.699   2.873
48239W        W18839  20.020  44.427  10.174
48240W        W18840  43.168  23.626  10.648
48241W        W18841  42.657  41.421   4.528
48242W        W18842   1.567  30.555  14.476
48243W        W18843  26.538  27.904  12.987
48244W        W18844  35.978   8.723  14.371
48245W        W18845  39.621  37.353  10.693
48246W        W18846   2.992  42.000   1.919
48247W        W18847  33.354  39.772   0.257
48248W        W18848  12.008   0.814  14.432
48249W        W18849  41.103  34.436   1.744
48250W        W18850  29.608   8.337  11.132
48251W        W18851  31.928  14.198   1.946
48252W        W18852  29.163  17.774  11.869
48253W        W18853  41.580  33.513  10.693
48254W        W18854  16.720   2.553  11.517
48255W        W18855  29.940  29.740   4.752
48256W        W18856   3.518  41.740  12.676
48257W        W18857  44.822  43.513   0.229
48258W        W18858  36.927  21.792  11.887
48259W        W18859  14.314   2.664  11.114
48260W        W18860  21.486  35.931  13.078
48261W        W18861  33.927  29.943   4.661
48262W        W18862  42.626   8.811  13.419
48263W        W18863  43.129   3.692   2.201
48264W        W18864   7.224  20.968  10.770
48265W        W18865   9.757  35.335   0.307
48266W        W18866  20.777   9.875   3.619
48267W        W18867  21.627  33.085  11.504
48268W        W18868  27.712  32.683   2.737
48269W        W18869  38.100  14.591  12.121
48270W        W18870  36.863   7.245  13.868
48271W        W18871  18.710   6.456  13.591
48272W        W18872  42.801  43.259   1.525
48273W        W18873  44.241   6.673   0.472
48274W        W18874  13.357  14.549  13.349
48275W        W18875  14.037  34.781   4.193
48276W        W18876   7.403   4.352  14.363
48277W        W18877  21.658   6.207  11.899
48278W        W18878  28.002  17.916  10.858
48279W        W18879   2.360  17.309   3.299
48280W        W18880   7.829  39.109   1.867
48281W        W18881   1.893  10.222  12.585
48282W        W18882  27.472  18.671   2.778
48283W        W18883  24.259  39.485   0.919
48284W        W18884  43.997  20.462   5.010
48285W        W18885  39.573  31.329   2.863
48286W        W18886  18.318   9.280   1.250
48287W        W18887   5.470   5.844   1.409
48288W        W18888  24.499  27.249  10.515
48289W        W18889   4.229  20.617   0.682
48290W        W18890  25.918  44.331   3.290
48291W        W18891  35.383   9.718   4.138
48292W        W18892  20.285   9.703  11.583
48293W        W18893  16.791  23.451  13.355
48294W        W18894  40.522  17.540  11.213
48295W        W18895   1.994  12.402  11.206
48296W        W18896  17.486  14.155   0.637
48297W        W18897  26.694   0.097   2.350
48298W        W18898  24.520  21.259  11.588
48299W        W18899  20.247  20.765   0.360
48300W        W18900   7.341  39.450  13.278
48301W        W18901  31.440  33.955  12.151
48302W        W18902   4.033  16.645   2.254
48303W        W18903  18.480  36.669  11.172
48304W        W18904   0.393  19.814  12.459
48305W        W18905  10.832   6.674   1.231
48306W        W18906  10.328  24.157  14.458
48307W        W18907  11.209  29.738  14.985
48308W        W18908   6.324  42.719   4.039
48309W        W18909  39.760   6.213   2.101
48310W        W18910  12.230  25.469   3.726
48311W        W18911  28.893  42.779  14.411
48312W        W18912  35.318  21.694  10.488
48313W        W18913  16.868  12.153   0.868
48314W        W18914  24.118  33.659  12.038
48315W        W18915  39.384  13.337   4.514
48316W        W18916  23.338  24.218   4.153
48317W        W18917  27.513  12.260  14.869
48318W        W18918  30.605  24.957  10.773
48319W        W18919   4.277   6.254   4.191
48320W        W18920   6.859  24.913  14.399
48321W        W18921   5.688  26.608   2.766
48322W        W18922   8.202  27.916  11.063
48323W        W18923  42.936  12.306   0.677
48324W        W18924   8.296   3.889  13.476
48325W        W18925   1.838  32.311   3.619
48326W        W18926  25.217   9.002  11.470
48327W        W18927  42.823  23.172  11.567
48328W        W18928  40.089  30.101  14.310
48329W        W18929  39.997  30.166  12.871
48330W        W18930   6.298  36.969  12.296
48331W        W18931  31.028  43.367   4.526
48332W        W18932  26.022   2.286  14.540
48333W        W18933  24.658  38.213  11.128
48334W        W18934   6.973   2.290  11.170
48335W        W18935  32.638  10.749  11.099
48336W        W18936  41.466  29.864  14.380
48337W        W18937  27.760  33.851  14.444
48338W        W18938  34.525  31.486   2.589
48339W        W18939   9.827  15.829   0.334
48340W        W18940  27.326   5.818   0.910
48341W        W18941  16.118  25.288  13.540
48342W        W18942  17.835  38.293   1.387
48343W        W18943   0.824   0.444  13.730
48344W        W18944  10.174  44.870  12.876
48345W        W18945  21.730  43.273  11.939
48346W        W18946  40.959  16.865  13.513
48347W        W18947   7.835  42.845   1.958
48348W        W18948  20.989   0.426   3.158
48349W        W18949  40.130  10.185   4.637
48350W        W18950   7.029  28.479   0.941
48351W        W18951  18.658  33.667  14.865
48352W        W18952   3.323  10.803   2.902
48353W        W18953   0.409  41.306  12.159
48354W        W18954  22.867   3.837  13.333
48355W        W18955  14.362  32.069  10.686
48356W        W18956  44.513  24.529   3.715
48357W        W18957   4.317   5.385   1.194
48358W        W18958   4.786  20.314  10.932
48359W        W18959  16.391  32.721   3.694
48360W        W18960  35.088  11.335  10.875
48361W        W18961  15.519  41.704   1.676
48362W        W18962  25.216  26.661   2.281
48363W        W18963  33.446  15.867  11.582
48364W        W18964  11.092   5.368   2.844
48365W        W18965  34.592  21.553   4.109
48366W        W18966   8.725  20.272  10.670
48367W        W18967  29.122   2.744   1.347
48368W        W18968  10.636   4.094   0.531
48369W        W18969  26.877  20.566   0.856
48370W        W18970  16.870  28.583  11.790
48371W        W18971   5.712  41.364   3.229
48372W        W18972  12.819  27.099  10.612
48373W        W18973  33.623  38.949  14.189
48374W        W18974   6.183  27.081   1.521
48375W        W18975  14.933  24.555  13.012
48376W        W18976   3.063  22.029  11.872
48377W        W18977  34.484  27.953  13.844
48378W        W18978   8.193   3.459   3.787
48379W        W18979   3.141   1.921   0.402
48380W        W18980  25.000   5.952  13.088
48381W        W18981  37.529  18.120  13.954
48382W        W18982  39.124  37.030  13.840
48383W        W18983  27.739  34.629  11.157
48384W        W18984  31.143  26.065  12.395
48385W        W18985  16.576  29.406  12.878
48386W        W18986   4.173  28.761  11.714
48387W        W18987  12.220  30.496   4.895
48388W        W18988  42.436  20.822   3.230
48389W        W18989  28.487  38.706  12.151
48390W        W18990  23.955  33.353   3.694
48391W        W18991  18.235   6.733   2.594
48392W        W18992   5.216  15.850  10.171
48393W        W18993  23.477  26.191   3.963
48394W        W18994  38.470  44.810  12.590
48395W        W18995  18.097  39.325  12.978
48396W        W18996  28.999  28.784  12.751
48397W        W18997  10.197  41.428   2.844
48398W        W18998  28.628  24.798  11.661
48399W        W18999  33.506  44.766   0.402
48400W        W19000  16.689  25.316  12.035
48401W        W19001  25.398  27.312   1.866
48402W        W19002  42.332  10.924   3.751
48403W        W19003  28.973   6.371   0.385
48404W        W19004  40.280  28.426   1.668
48405W        W19005   8.647  28.609  14.925
48406W        W19006  40.859  41.525   3.372
48407W        W19007   9.666   5.791   4.845
48408W        W19008  44.362  44.735  10.381
48409W        W19009  30.655  12.865   2.659
48410W        W19010  35.071  35.889   3.903
48411W        W19011  36.383  30.914  14.978
48412W        W19012   7.410  42.909   1.678
48413W        W19013   1.817  23.527   3.885
48414W        W19014  16.571  38.277  12.584
48415W        W19015  11.577  26.653  10.695
48416W        W19016  38.869  28.454  12.122
48417W        W19017  21.536  11.330  11.396
48418W        W19018  40.260   4.964   0.139
48419W        W19019   9.217  10.564   3.300
48420W        W19020  11.740  40.932  10.720
48421W        W19021  27.072  10.781   0.053
48422W        W19022  38.283  20.906  14.548
48423W        W19023   8.611   2.936   3.101
48424W        W19024  33.816  44.385   3.324
48425W        W19025  29.618  23.225  11.752
48426W        W19026   7.295  24.198  12.849
48427W        W19027  34.575  42.317   2.253
48428W        W19028  31.347  19.682  14.984
48429W        W19029   0.135  27.697   2.823
48430W        W19030  24.104   9.645   4.432
48431W        W19031  22.262  25.519   1.367
48432W        W19032  31.438  23.938   4.153
48433W        W19033  16.032  14.177   0.836
48434W        W19034  22.191  35.154  14.056
48435W        W19035   0.894  34.937  13.731
48436W        W19036  11.227  36.592  12.902
48437W        W19037  39.945  32.318   2.373
48438W        W19038  36.415  20.201  11.425
48439W        W19039  43.198   7.678   4.228
48440W        W19040  42.822  17.516  11.624
48441W        W19041  42.038  41.921  14.873
48442W        W19042   1.445  16.313  14.324
48443W        W19043  19.586  41.498   3.221
48444W        W19044  31.750  20.790   0.888
48445W        W19045  21.338  20.998   4.116
48446W        W19046  12.058  31.449   0.437
48447W        W19047   9.577  26.877   2.593
48448W        W19048  18.700  28.636   1.833
48449W        W19049   9.344  32.029  11.548
48450W        W19050  43.684  44.713   0.910
48451W        W19051  32.734  40.064   1.964
48452W        W19052   3.253  42.238   0.841
48453W        W19053  40.445  39.844   3.339
48454W        W19054  15.229  21.979  13.465
48455W        W19055  19.837  18.025  10.728
48456W        W19056  13.353  20.118   0.473
48457W        W19057  15.004  30.937   2.918
48458W        W19058   5.394  11.318  13.617
48459W        W19059  16.601  40.080   2.941
48460W        W19060  43.544  38.523  13.051
48461W        W19061  28.444  11.409   1.780
48462W        W19062  35.320   9.206   1.694
48463W        W19063  25.916  40.946  13.513
48464W        W19064  30.836  30.742   1.205
48465W        W19065  32.151   7.838   0.956
48466W        W19066   0.331  34.566   2.311
48467W        W19067  30.261  26.705   0.456
48468W        W19068  10.317  27.638  10.917
48469W        W19069  12.790  13.756   5.073
48470W        W19070   4.456  31.480  14.428
48471W        W19071   3.894   3.278  11.289
48472W        W19072  26.203  33.060  10.922
48473W        W19073  32.550  33.147   2.164
48474W        W19074   1.898   9.373  11.895
48475W        W19075  22.400  41.855   4.603
48476W        W19076   9.851  13.508  10.470
48477W        W19077  26.645  25.674   4.062
48478W        W19078   5.291  12.805  10.329
48479W        W19079  28.589  13.754   4.345
48480W        W19080   4.343  31.878   0.750
48481W        W19081  31.580  40.943  11.687
48482W        W19082  29.904  34.787  12.002
48483W        W19083  40.841   2.775  12.889
48484W        W19084  34.462  26.143   4.606
48485W        W19085  23.970  42.358   2.317
48486W        W19086  30.595   5.160   1.929
48487W        W19087  28.170  32.925   2.682
48488W        W19088  39.106   3.350   1.842
48489W        W19089  38.319   5.817  12.423
48490W        W19090  20.871  37.286   1.738
48491W        W19091   9.657  38.397   4.116
48492W        W19092   2.398   5.439  14.976
48493W        W19093   2.861  12.818   0.802
48494W        W19094  41.432  13.334   0.050
48495W        W19095  15.092  44.391   3.713
48496W        W19096   1.595  40.396  12.378
48497W        W19097  14.670  26.475  10.014
48498W        W19098   5.864   1.543  12.089
48499W        W19099  25.275  31.377   1.423
48500W        W19100  33.063  17.723   2.256
48501W        W19101  37.946  22.985   1.952
48502W        W19102   9.048  33.524  10.274
48503W        W19103  35.128  36.374   0.427
48504W        W19104  26.558  17.830  14.839
48505W        W19105  43.874  22.812  14.417
48506W        W19106  36.019  20.749  13.488
48507W        W19107  16.700  40.406   0.186
48508W        W19108  38.463  12.687  10.949
48509W        W19109  17.208  43.344  12.942
48510W        W19110  40.986   2.370  11.587
48511W        W19111   6.164  39.649  13.986
48512W        W19112  20.021  42.896  11.640
48513W        W19113  28.245  23.520   4.316
48514W        W19114  10.614  20.181   1.282
48515W        W19115   2.309  25.643   0.545
48516W        W19116  41.278   5.330   2.260
48517W        W19117  11.673  34.895   2.171
48518W        W19118   8.248  19.914   4.989
48519W        W19119   9.068   8.692  11.934
48520W        W19120   0.806  14.213   1.746
48521W        W19121   1.515  26.526   0.889
48522W        W19122  41.926   0.196  14.472
48523W        W19123  12.629  32.014  12.060
48524W        W19124  37.771  28.076   0.370
48525W        W19125  44.413  14.738  12.061
48526W        W19126  39.812   9.780   2.137
48527W        W19127  20.836  44.068   2.844
48528W        W19128  42.507   8.689  10.868
48529W        W19129   4.749   5.408  12.935
48530W        W19130  41.274  15.139  11.522
48531W        W19131  16.235  16.371  13.399
48532W        W19132   3.466  42.390   4.611
48533W        W19133  13.710  35.480  12.984
48534W        W19134  43.410   4.230   4.148
48535W        W19135   1.192  39.861   0.287
48536W        W19136  38.893  11.271  10.689
48537W        W19137  31.904   2.495   3.872
48538W        W19138  25.612  38.831   1.717
48539W        W19139  34.962  25.647   1.679
48540W        W19140  41.018   4.390  12.762
48541W        W19141  44.612  20.082   0.069
48542W        W19142  22.528   4.450   0.805
48543W        W19143  16.150  35.863   1.948
48544W        W19144  30.317   6.266   3.140
48545W        W19145  24.731  13.107   3.143
48546W        W19146  39.236  34.045   4.505
48547W        W19147  26.841  24.537   1.778
48548W        W19148  23.532  21.680   4.719
48549W        W19149   5.916   9.076  11.561
48550W        W19150  14.950  43.976  11.856
48551W        W19151  41.990  43.050  11.505
48552W        W19152  41.079  13.645   3.327
48553W        W19153   2.947  20.254   4.158
48554W        W19154  36.446  19.520   1.942
48555W        W19155  17.031   5.345   1.428
48556W        W19156  31.346  13.934  11.482
48557W        W19157  41.323  13.975  12.426
48558W        W19158  36.820  14.062   1.466
48559W        W19159   1.843  35.422   0.954
48560W        W19160   7.593  16.293   3.539
48561W        W19161  14.253  33.237   0.198
48562W        W19162   9.852   3.889  12.375
48563W        W19163  20.039  40.135  14.060
48564W        W19164   7.269  12.348   3.328
48565W        W19165  31.603  28.958  11.217
48566W        W19166  17.201  32.877  12.885
48567W        W19167  36.086  28.283  14.309
48568W        W19168  32.876  30.547  12.950
48569W        W19169  37.796  26.629   0.351
48570W        W19170  11.052  19.536  12.589
48571W        W19171   6.116   3.179   1.759
48572W        W19172  43.530  30.985   4.175
48573W        W19173   9.650  31.479   3.271
48574W        W19174  19.637   2.880  12.867
48575W        W19175  20.401  35.406  13.316
48576W        W19176  40.762  13.510  11.402
48577W        W19177  42.130  20.115  14.472
48578W        W19178  11.081  40.031   3.698
48579W        W19179  35.390  38.278  11.080
48580W        W19180  24.551   3.699  10.805
48581W        W19181  40.261   3.003  10.517
48582W        W19182   1.988   2.447  13.873
48583W        W19183  36.277  44.776   0.359
48584W        W19184  11.462  42.465  12.266
48585W        W19185  41.553  15.588  10.708
48586W        W19186  22.790  38.428  14.805
48587W        W19187  36.835  10.174  11.480
48588W        W19188   7.041  23.466  11.239
48589W        W19189  21.096  31.915  13.027
48590W        W19190  32.474  27.237   1.814
48591W        W19191  32.274  18.157  14.029
48592W        W19192  36.879  35.366   2.829
48593W        W19193  20.668  42.561  12.060
48594W        W19194  31.069  12.930   2.058
48595W        W19195   9.936  43.296  14.901
48596W        W19196  11.755   4.492  10.741
48597W        W19197  44.449  44.908  14.096
48598W        W19198   4.279  34.167  14.556
48599W        W19199   0.637   6.946   2.631
48600W        W19200   6.225  39.061   1.780
48601W        W19201  22.546  21.726   1.032
48602W        W19202  30.620  11.594   0.545
48603W        W19203  31.368  33.922  13.477
48604W        W19204  39.281  22.465   2.761
48605W        W19205  44.702   4.776   2.356
48606W        W19206  42.922   4.960  13.538
48607W        W19207   8.297  37.615   1.384
48608W        W19208  24.182  39.359   4.610
48609W        W19209  44.894  23.654   4.108
48610W        W19210   2.397  34.852  11.496
48611W        W19211  42.806  11.712  11.704
48612W        W19212   0.970   2.069   5.001
48613W        W19213  36.159  44.821   1.267
48614W        W19214  34.436   9.418  13.459
48615W        W19215  24.799   3.092  11.165
48616W        W19216  32.436   0.804   0.807
48617W        W19217  11.088   1.964   4.158
48618W        W19218  20.625  22.993   2.231
48619W        W19219  43.396  18.549  12.612
48620W        W19220   2.910  22.948   0.641
48621W        W19221   0.052  17.240   1.844
48622W        W19222  35.095  16.923  10.685
48623W        W19223  44.605  21.020   1.848
48624W        W19224  39.419  22.548   4.690
48625W        W19225  40.702  14.153  12.003
48626W        W19226   8.695   1.419   3.983
48627W        W19227  31.804  37.924  11.078
48628W        W19228  38.801  18.017  12.654
48629W        W19229   7.441  39.400   2.066
48630W        W19230  16.125  24.997   2.303
48631W        W19231  44.288  13.503   3.737
48632W        W19232   1.254  23.746   1.849
48633W        W19233  15.673  33.814  12.010
48634W        W19234  42.550  33.044   1.413
48635W        W19235  34.565  18.447  12.420
48636W        W19236  39.105  27.950   3.821
48637W        W19237   2.957  34.147   0.582
48638W        W19238  34.132  43.915   3.237
48639W        W19239  14.538   7.633   2.271
48640W        W19240  24.241  31.777  12.926
48641W        W19241   9.021  29.658  11.540
48642W        W19242  24.010  27.250   1.825
48643W        W19243   4.470  36.348   2.284
48644W        W19244  32.054  32.642   0.797
48645W        W19245  44.455  20.807   3.155
48646W        W19246  25.735  33.087  13.378
48647W        W19247  31.353   9.918   1.361
48648W        W19248   4.516  29.960   4.601
48649W        W19249   3.377  10.556   3.361
48650W        W19250  36.395   0.745  13.016
48651W        W19251  15.631   2.167  11.980
48652W        W19252  14.504  44.844   1.616
48653W        W19253  10.328  24.716   2.663
48654W        W19254  31.013   8.137   1.433
48655W        W19255  39.099  21.040   1.746
48656W        W19256   3.446  28.586   1.261
48657W        W19257  32.672  24.793  13.281
48658W        W19258  10.764  34.565  11.116
48659W        W19259  23.909  11.017  13.808
48660W        W19260  44.460  44.404  12.089
48661W        W19261   7.931  33.809   1.209
48662W        W19262  11.348  14.287   0.046
48663W        W19263   8.555  42.999   4.468
48664W        W19264  27.510  35.700   2.020
48665W        W19265  26.927  10.093   2.732
48666W        W19266  20.692  19.189   3.269
48667W        W19267  44.804   0.390   0.315
48668W        W19268   1.505   4.129  12.410
48669W        W19269  30.624  25.248   4.582
48670W        W19270  31.638  39.430  13.370
48671W        W19271   6.209  14.561   3.650
48672W        W19272  24.642  31.442   3.709
48673W        W19273  20.189  26.491  12.877
48674W        W19274  29.546  35.102   4.369
48675W        W19275  26.540  21.736   3.239
48676W        W19276  31.013  19.404   0.440
48677W        W19277  24.204  28.409   2.748
48678W        W19278   0.393   4.892   4.824
48679W        W19279  24.024  31.560  12.483
48680W        W19280  21.512   1.740   2.645
48681W        W19281  44.853   5.813   0.534
48682W        W19282  21.516  13.749  12.522
48683W        W19283   4.180  30.039  10.681
48684W        W19284  21.537  25.838   2.646
48685W        W19285  21.412  16.614   1.795
48686W        W19286  40.738   7.225  13.744
48687W        W19287  26.655  28.060   0.752
48688W        W19288  23.139   8.885  12.950
48689W        W19289  11.821  26.208  12.369
48690W        W19290  23.006  35.840   2.755
48691W        W19291  43.447  18.569  11.299
48692W        W19292  26.072  17.261  10.456
48693W        W19293  17.682  14.194  14.666
48694W        W19294   2.927  14.747  10.701
48695W        W19295  26.510  36.853  14.748
48696W        W19296  34.355  38.996   2.836
48697W        W19297  16.044  22.117   1.414
48698W        W19298  39.380  32.430   3.977
48699W        W19299  38.587   9.902  13.329
48700W        W19300  40.419  21.740   0.648
48701W        W19301  29.541   3.152   4.158
48702W        W19302  29.051  43.479  14.008
48703W        W19303  20.413  20.182  11.460
48704W        W19304  35.055  37.115  14.921
48705W        W19305  33.414  41.433  13.490
48706W        W19306  29.158  20.311  13.620
48707W        W19307   7.514  40.557  12.475
48708W        W19308   6.354  15.251  14.228
48709W        W19309  11.709  20.413  10.652
48710W        W19310  41.888   0.276  13.500
48711W        W19311  16.581  30.262   2.601
48712W        W19312  14.818  41.294  11.860
48713W        W19313  37.122   7.776   3.340
48714W        W19314  24.402  36.730   0.399
48715W        W19315  28.671  42.949   3.139
48716W        W19316  25.026  34.346   3.670
48717W        W19317  23.813  40.429  13.981
48718W        W19318   3.916  17.064  11.973
48719W        W19319  12.233  23.149   2.843
48720W        W19320   6.324   8.820   0.427
48721W        W19321  28.987  43.755  13.560
48722W        W19322  36.010   8.777  12.458
48723W        W19323  41.764  40.252   3.216
48724W        W19324   5.752  42.393  11.400
48725W        W19325   8.233  15.335   2.248
48726W        W19326  36.449  34.090  11.949
48727W        W19327  40.315   6.675   0.478
48728W        W19328  13.119  34.416  10.623
48729W        W19329  44.893   6.634  13.335
48730W        W19330  27.536  40.153   5.097
48731W        W19331  35.216  26.080   2.747
48732W        W19332  33.904  10.668  10.685
48733W        W19333  29.065  35.068   1.174
48734W        W19334  34.607  13.251  11.554
48735W        W19335  15.450  17.775  10.265
48736W        W19336   9.808  38.039   1.559
48737W        W19337  12.038  38.563  12.887
48738W        W19338  15.752  33.470   2.358
48739W        W19339  35.022  28.645  11.169
48740W        W19340   4.693  35.427  12.198
48741W        W19341  32.171  28.928  12.983
48742W        W19342  14.576   0.881   4.284
48743W        W19343  38.798   8.814  10.701
48744W        W19344  32.363  11.678   0.339
48745W        W19345  20.888  16.791  14.706
48746W        W19346   1.693  18.582  14.451
48747W        W19347  25.176   8.759   4.084
48748W        W19348  35.535  41.542  14.885
48749W        W19349  30.181  26.201   0.319
48750W        W19350   6.720  29.981  11.445
48751W        W19351  10.813  21.821  12.988
48752W        W19352  23.022  39.019  12.322
48753W        W19353  27.538  25.996  13.421
48754W        W19354  16.754  35.999  14.650
48755W        W19355  17.133   8.369   1.391
48756W        W19356  18.661   1.809  13.432
48757W        W19357  42.118  37.269  12.680
48758W        W19358  13.141  11.583   4.352
48759W        W19359   9.091  21.039   5.100
48760W        W19360  27.560  38.018   4.055
48761W        W19361   9.801  16.343   2.238
48762W        W19362   6.622  15.360   0.909
48763W        W19363  34.001  41.024  12.618
48764W        W19364  13.667   4.997   2.815
48765W        W19365  39.551  41.238   0.349
48766W        W19366   1.200  34.099   1.386
48767W        W19367   3.467   7.185  12.522
48768W        W19368  19.340   4.780  13.803
48769W        W19369  19.230  19.769  11.594
48770W        W19370   9.294   3.731   1.228
48771W        W19371  26.764  40.733   3.685
48772W        W19372  24.677  42.420   0.103
48773W        W19373  11.216  20.009   2.753
48774W        W19374  41.014   6.507   1.749
48775W        W19375  42.733  42.397  11.232
48776W        W19376  17.070   8.568   1.920
48777W        W19377  40.908   2.385  12.555
48778W        W19378  28.719  20.946   2.131
48779W        W19379  36.059  12.649  12.107
48780W        W19380  33.418  14.383   5.155
48781W        W19381  20.858   4.881   2.848
48782W        W19382  36.296  30.356   1.192
48783W        W19383  35.166  41.257  11.963
48784W        W19384  28.713  27.242  13.336
48785W        W19385  34.913  10.559   0.751
48786W        W19386   7.862  24.259  10.721
48787W        W19387  26.873  37.537  13.838
48788W        W19388  25.650   8.838   3.917
48789W        W19389   3.385  19.214  12.154
48790W        W19390  38.343  30.148  12.813
48791W        W19391  16.091   4.012   1.195
48792W        W19392   4.455  15.040  14.167
48793W        W19393  41.977   2.194  14.008
48794W        W19394  22.064  12.815  12.316
48795W        W19395  34.960  16.540   3.772
48796W        W19396   6.762  39.072  14.421
48797W        W19397   0.886  37.967   4.507
48798W        W19398   8.557  31.570   2.721
48799W        W19399  21.652   1.289   1.536
48800W        W19400  27.299   3.245  14.552
48801W        W19401  11.099   6.665   2.277
48802W        W19402  33.608  14.311  10.735
48803W        W19403   2.304  40.862  14.300
48804W        W19404  38.108  12.625   0.856
48805W        W19405  40.594  31.661  10.531
48806W        W19406  25.163  13.826  10.999
48807W        W19407  11.280   2.970   4.725
48808W        W19408  33.304   2.619  11.022
48809W        W19409  30.086  14.002   0.790
48810W        W19410  29.629  13.332  12.400
48811W        W19411  20.526   8.912   4.919
48812W        W19412   6.984   0.621  13.429
48813W        W19413   2.977  18.189  11.653
48814W        W19414  33.956  11.391  12.008
48815W        W19415  17.740  10.679  10.569
48816W        W19416  29.457  15.124   1.319
48817W        W19417  31.358  39.506  13.812
48818W        W19418   5.857  22.968   4.149
48819W        W19419   2.351   5.324  11.502
48820W        W19420  29.840  43.076   5.000
48821W        W19421  40.349   4.731   1.951
48822W        W19422  33.534  35.597   3.384
48823W        W19423  33.140  14.837   1.770
48824W        W19424  34.265  32.534  14.287
48825W        W19425  37.195  15.292   4.196
48826W        W19426  16.768  38.377  12.106
48827W        W19427  37.200   9.677   4.646
48828W        W19428  36.847  10.746   0.646
48829W        W19429  23.524   6.208   3.615
48830W        W19430  37.874  13.098  10.638
48831W        W19431  41.322  11.719  13.026
48832W        W19432  37.612  22.306  13.884
48833W        W19433  34.387  13.614  10.672
48834W        W19434   2.359  15.271  12.027
48835W        W19435  38.346  38.900  10.698
48836W        W19436  24.933  14.586   5.035
48837W        W19437  37.045  18.167  11.677
48838W        W19438  18.255  20.449  14.834
48839W        W19439  35.085  42.458   2.290
48840W        W19440  42.414  41.458   0.328
48841W        W19441   5.313   6.165  13.384
48842W        W19442  36.513  18.079   3.653
48843W        W19443  25.066  34.778  10.614
48844W        W19444   3.418  16.073   4.525
48845W        W19445  21.509  16.229   1.298
48846W        W19446  37.631  19.244  12.332
48847W        W19447  22.815  11.321  12.999
48848W        W19448  15.786  14.736  12.102
48849W        W19449   4.973  31.830  14.029
48850W        W19450  41.349   1.361  12.933
48851W        W19451  28.606   9.669   1.250
48852W        W19452  24.685  33.497   2.223
48853W        W19453  22.785  11.841  13.849
48854W        W19454  34.406  37.735  13.062
48855W        W19455   5.389  21.776  14.921
48856W        W19456  42.254  23.195  14.522
48857W        W19457  29.556  20.767   2.891
48858W        W19458  15.241  44.815  10.601
48859W        W19459   6.138   8.678   4.497
48860W        W19460  25.759   4.209   1.194
48861W        W19461  18.230  19.245  14.334
48862W        W19462  10.951  28.861  13.367
48863W        W19463  28.540  26.640  12.522
48864W        W19464   4.765   5.205   2.952
48865W        W19465  16.069  27.529  12.033
48866W        W19466   8.360  18.282   2.810
48867W        W19467  14.425  37.419   0.913
48868W        W19468  44.286   5.886  12.881
48869W        W19469  43.979  17.877   0.840
48870W        W19470  10.887  41.737  11.425
48871W        W19471  27.843   4.431  11.947
48872W        W19472  11.835  10.319   2.216
48873W        W19473  39.611  21.091  14.499
48874W        W19474  38.749   4.732  12.567
48875W        W19475   4.459  29.222   0.175
48876W        W19476   0.800  18.458  12.467
48877W        W19477   2.033   5.811  12.675
48878W        W19478  24.934  28.528   2.201
48879W        W19479  11.426   9.257   2.254
48880W        W19480  43.365  23.604  13.518
48881W        W19481  30.956  43.515  13.213
48882W        W19482  17.136  25.093   4.625
48883W        W19483   7.581  24.279  14.868
48884W        W19484  32.104  27.014  12.944
48885W        W19485   2.212  23.647   3.065
48886W        W19486  33.842   3.643  13.893
48887W        W19487  34.334  42.369  11.166
48888W        W19488  32.623  42.286  11.117
48889W        W19489  39.397  21.728   1.355
48890W        W19490  19.022   8.723   3.759
48891W        W19491  13.096  37.456  12.088
48892W        W19492  23.647  29.912   4.746
48893W        W19493  32.343  43.640   5.023
48894W        W19494   2.772  15.734   3.281
48895W        W19495   2.388  44.578  12.573
48896W        W19496  32.551  15.917  11.304
48897W        W19497  27.888  15.712  13.362
48898W        W19498  15.349  44.546   4.134
48899W        W19499   8.156   9.438   1.737
48900W        W19500  30.409  36.301  14.085
48901W        W19501  42.675  14.821  10.909
48902W        W19502  11.791  23.454  11.670
48903W        W19503  25.955  30.930   1.641
48904W        W19504  29.350  18.787   2.275
48905W        W19505  25.204   9.568   3.746
48906W        W19506   9.240  33.433  10.761
48907W        W19507  33.021   3.773   3.215
48908W        W19508  19.084  42.052  11.246
48909W        W19509   4.357  22.175   2.812
48910W        W19510  34.035  32.992   3.559
48911W        W19511  16.562  42.432   9.417
48912W        W19512  16.918  10.265  11.555
48913W        W19513  44.803  27.984   1.242
48914W        W19514  16.046  34.546  12.013
48915W        W19515  38.503   4.622   3.668
48916W        W19516  13.931  37.911   3.639
48917W        W19517  11.400  34.545   4.029
48918W        W19518   1.658  39.893  13.505
48919W        W19519  11.108   4.447   4.392
48920W        W19520   6.122  24.776  14.845
48921W        W19521  30.133  36.071   2.655
48922W        W19522  23.040  33.501   2.578
48923W        W19523  12.411  36.377   2.430
48924W        W19524  44.503  27.763  10.685
48925W        W19525   5.790  40.323  10.417
48926W        W19526  40.481  18.569  12.562
48927W        W19527  38.987   6.060   2.979
48928W        W19528  25.040  26.592   3.838
48929W        W19529   4.250  43.048  11.925
48930W        W19530  29.174   4.897   0.279
48931W        W19531  37.433   8.208  11.395
48932W        W19532  40.079  40.928   0.735
48933W        W19533  22.387   2.466  13.015
48934W        W19534  10.993  25.955   2.902
48935W        W19535  31.848   2.302   4.358
48936W        W19536  20.685  12.273   0.963
48937W        W19537  37.004  35.311  11.653
48938W        W19538  38.988  22.398   3.167
48939W        W19539  21.277  28.974  13.833
48940W        W19540  39.998  29.531   2.482
48941W        W19541  27.988   9.190  11.384
48942W        W19542  43.539  19.287   4.005
48943W        W19543  19.319  11.087   4.242
48944W        W19544  19.845   4.410   4.803
48945W        W19545  27.385  16.813   1.802
48946W        W19546  36.866   2.394  11.601
48947W        W19547  43.421  42.829  13.435
48948W        W19548  21.138  10.360   3.415
48949W        W19549  28.069   4.744  11.442
48950W        W19550   0.535  24.235   0.374
48951W        W19551  25.114  31.396   2.257
48952W        W19552  37.402   7.320   1.675
48953W        W19553  12.306  21.647   1.199
48954W        W19554  13.210   9.286   3.614
48955W        W19555   2.884  20.339   2.652
48956W        W19556  27.888  12.242   4.570
48957W        W19557  19.742  40.801  11.509
48958W        W19558  17.800  28.918  11.645
48959W        W19559  22.110   7.686  14.428
48960W        W19560  30.574  18.632  12.076
48961W        W19561  24.538  21.613   3.242
48962W        W19562  26.086  30.221  11.133
48963W        W19563  32.784  31.088  12.950
48964W        W19564  14.670   0.968  10.242
48965W        W19565  10.611  13.825   3.375
48966W        W19566  27.445  14.834   0.888
48967W        W19567  19.596  30.655  11.883
48968W        W19568  11.979  22.405   0.434
48969W        W19569  22.593   6.540  10.525
48970W        W19570  27.159  43.894  13.786
48971W        W19571  11.900  24.943   0.859
48972W        W19572  16.024  38.484   1.279
48973W        W19573  23.308  18.957  13.423
48974W        W19574  17.236  19.555   1.435
48975W        W19575   5.760  27.185   0.841
48976W        W19576  29.047  23.637  10.738
48977W        W19577  39.064  35.982   1.870
48978W        W19578  19.106  27.663  12.028
48979W        W19579  17.742  31.290   4.811
48980W        W19580  35.371  42.542  10.899
48981W        W19581  26.858   4.067  14.955
48982W        W19582  26.691  24.312   2.771
48983W        W19583  27.605   1.413  12.522
48984W        W19584  44.552  12.913  11.039
48985W        W19585  12.085   9.823   4.696
48986W        W19586  17.580   6.381   3.254
48987W        W19587  37.012  38.965   4.385
48988W        W19588  33.165  21.799  14.927
48989W        W19589  40.825  17.580  11.632
48990W        W19590  13.290  26.097  14.849
48991W        W19591  22.387  22.742  11.118
48992W        W19592   6.436   4.308  10.247
48993W        W19593   8.318  16.802  12.147
48994W        W19594  22.283  42.449  14.447
48995W        W19595  11.267  31.096  14.568
48996W        W19596  24.141  30.792  14.462
48997W        W19597   6.481  20.583  12.985
48998W        W19598  20.035  14.738  13.282
48999W        W19599  18.269  21.567  13.966
49000W        W19600   2.093  40.501  11.495
49001W        W19601  31.511  17.172   0.393
49002W        W19602  29.925   5.932  12.908
49003W        W19603  34.996  37.810   4.881
49004W        W19604  17.847  43.452   3.231
49005W        W19605  13.381   3.401   3.551
49006W        W19606   4.988  29.216  11.913
49007W        W19607  30.652  40.326   1.399
49008W        W19608   1.844  35.121  12.529
49009W        W19609   0.735  33.872   3.206
49010W        W19610  18.844  37.881   1.471
49011W        W19611  42.020  17.269   2.121
49012W        W19612   4.250  20.133   1.029
49013W        W19613  17.479  14.829  12.905
49014W        W19614   0.043   8.630   3.750
49015W        W19615  38.908  24.091  13.783
49016W        W19616  28.654  25.039   4.910
49017W        W19617   5.816  29.026  13.038
49018W        W19618  31.157  26.491   4.117
49019W        W19619  11.583  16.138   4.098
49020W        W19620   7.024  34.884  13.478
49021W        W19621  41.494  30.017   3.146
49022W        W19622  41.845   2.782   1.362
49023W        W19623  42.327  33.036  13.361
49024W        W19624   9.905   1.230   4.603
49025W        W19625  40.058   1.815   2.374
49026W        W19626  43.849  36.335   1.882
49027W        W19627   9.946  20.502   2.867
49028W        W19628  24.251  24.564   4.201
49029W        W19629  16.863  29.006   0.933
49030W        W19630  26.658  32.197   0.224
49031W        W19631  10.920  44.156   1.287
49032W        W19632  37.045  35.027   1.690
49033W        W19633  20.635  27.744  10.644
49034W        W19634  14.579   7.442  11.805
49035W        W19635  29.903  38.854   0.399
49036W        W19636  32.555  20.594  13.608
49037W        W19637  20.685  26.419   2.173
49038W        W19638  17.189  18.312   2.790
49039W        W19639  20.728   6.784   2.898
49040W        W19640   0.054  13.082  13.806
49041W        W19641   9.592   7.344  11.705
49042W        W19642  43.716  23.533   3.207
49043W        W19643  28.167  22.298   3.266
49044W        W19644  15.700  38.321   2.269
49045W        W19645   3.189  16.688   4.299
49046W        W19646  13.898  25.462   0.489
49047W        W19647  38.811  14.412   3.251
49048W        W19648  11.161   9.345  10.922
49049W        W19649  25.149  16.173   4.880
49050W        W19650  44.006  40.563   2.096
49051W        W19651  26.783  22.536  14.318
49052W        W19652  28.155  10.349  14.921
49053W        W19653  26.791  29.151   1.156
49054W        W19654  36.605  26.730  11.995
49055W        W19655   1.437  35.913  14.415
49056W        W19656  31.053  28.170   4.304
49057W        W19657  31.356  36.651  10.891
49058W        W19658  32.678  12.983  13.950
49059W        W19659  44.794  23.977  14.692
49060W        W19660  37.013   9.268  12.996
49061W        W19661  16.635  17.938   0.350
49062W        W19662  41.497  41.236  10.666
49063W        W19663  14.826  13.364   2.730
49064W        W19664  40.390   9.671  11.041
49065W        W19665   9.242  40.498  11.983
49066W        W19666  34.647   9.208   0.941
49067W        W19667  40.855  34.587   2.682
49068W        W19668  17.963  10.385   0.728
49069W        W19669   6.373  15.673   2.593
49070W        W19670   3.377   6.405   3.150
49071W        W19671  44.032  40.587   0.195
49072W        W19672   0.443  34.453  13.837
49073W        W19673  36.654  40.114   0.407
49074W        W19674  42.218   9.321   3.454
49075W        W19675  31.447   6.323   1.290
49076W        W19676  13.174  42.010   0.369
49077W        W19677  42.220  33.657  11.066
49078W        W19678  44.252   5.387  12.607
49079W        W19679  20.158  29.574  14.273
49080W        W19680  22.542  42.836  14.850
49081W        W19681  34.606  42.381  12.474
49082W        W19682   0.324   3.862   1.164
49083W        W19683  36.619   2.041   3.601
49084W        W19684  15.733  44.844   3.271
49085W        W19685  40.787  44.866  13.091
49086W        W19686  21.682   2.268  11.959
49087W        W19687  20.942   6.771   4.243
49088W        W19688   8.724  17.379   4.663
49089W        W19689  28.156  43.469   3.842
49090W        W19690  11.743  33.170   2.929
49091W        W19691   6.594  42.478  10.824
49092W        W19692  41.440  37.170  14.073
49093W        W19693   3.882  30.567   4.557
49094W        W19694   6.333   2.441  14.330
49095W        W19695   8.664  33.904   3.394
49096W        W19696  13.806  15.114   2.707
49097W        W19697   6.387  29.165   1.515
49098W        W19698  40.946  31.473   4.176
49099W        W19699  20.422  10.104  11.922
49100W        W19700  28.047  30.152   0.350
49101W        W19701  23.525  29.670   0.889
49102W        W19702   5.843  11.554  13.791
49103W        W19703  28.140  12.781   1.878
49104W        W19704  18.561  42.385   4.631
49105W        W19705  28.362   2.899  12.115
49106W        W19706   0.495  39.867   2.452
49107W        W19707  31.965   8.755   3.162
49108W        W19708  28.178  43.514  11.942
49109W        W19709  44.379  29.656   4.135
49110W        W19710  33.519  17.218   1.459
49111W        W19711  32.553  42.830  13.819
49112W        W19712  10.248  18.209   2.761
49113W        W19713  11.171  12.138   0.794
49114W        W19714  39.570  44.929   2.367
49115W        W19715  44.008  30.379   4.451
49116W        W19716   4.866  12.677  10.630
49117W        W19717  42.323  24.001   4.580
49118W        W19718  36.118  39.821   1.355
49119W        W19719   0.937   8.196   2.067
49120W        W19720  35.270  24.052   4.063
49121W        W19721  30.537  40.851   1.297
49122W        W19722  22.007  12.553   4.401
49123W        W19723  17.729  16.206  11.628
49124W        W19724  16.100  34.434   1.568
49125W        W19725  40.487   7.660  12.089
49126W        W19726  23.515  39.208   0.398
49127W        W19727  43.798  41.869   1.828
49128W        W19728  24.971  36.901   0.660
49129W        W19729   0.692   6.968  13.450
49130W        W19730   5.897  25.214  10.756
49131W        W19731   4.193  34.479   2.145
49132W        W19732  43.937  16.235  13.917
49133W        W19733  35.871  29.277  13.997
49134W        W19734  23.673  20.775  10.739
49135W        W19735   9.617  36.578  14.882
49136W        W19736  44.504   7.424   2.005
49137W        W19737  21.318  30.971  12.556
49138W        W19738  18.656  24.301  12.671
49139W        W19739  17.223  25.986  12.428
49140W        W19740  28.071  39.924   5.030
49141W        W19741  39.941  44.913  10.661
49142W        W19742  11.659   5.852  13.966
49143W        W19743  28.856  10.694  14.555
49144W        W19744   9.222  28.246  13.219
49145W        W19745  14.170  12.087   3.647
49146W        W19746  33.487  32.524   1.284
49147W        W19747  26.792  14.842  14.458
49148W        W19748  36.636  40.868  14.759
49149W        W19749  28.846  19.728   2.231
49150W        W19750  23.978  26.540  10.676
49151W        W19751  37.569  15.751  13.370
49152W        W19752  28.228  28.091  14.731
49153W        W19753  44.074  30.002  14.357
49154W        W19754  29.904  35.027  11.289
49155W        W19755  11.577  37.970  13.115
49156W        W19756  14.861  14.367   0.156
49157W        W19757  13.561  23.780  12.563
49158W        W19758   2.210  15.797  14.358
49159W        W19759   7.336  18.734   3.647
49160W        W19760  39.289  29.965  13.927
49161W        W19761  25.010  34.464  11.190
49162W        W19762  21.525  24.505  13.989
49163W        W19763  23.049  19.145   4.083
49164W        W19764  19.529  15.647   0.165
49165W        W19765  17.714  41.473  11.589
49166W        W19766   8.718   4.978  12.991
49167W        W19767  40.022   8.733  11.945
49168W        W19768  31.506  35.533   1.490
49169W        W19769  40.350  18.051  13.424
49170W        W19770  29.093   2.296  14.927
49171W        W19771  16.165  10.193  14.067
49172W        W19772  17.567  39.056   0.848
49173W        W19773  28.125  24.020   4.315
49174W        W19774   2.533  35.366  13.880
49175W        W19775  32.283  10.659   0.383
49176W        W19776   8.256   6.026  11.401
49177W        W19777  33.902  38.533   3.668
49178W        W19778  22.113  32.580   2.110
49179W        W19779  18.768  27.618  14.986
49180W        W19780  22.957  19.771  13.482
49181W        W19781  20.204  28.016  10.636
49182W        W19782  34.050  10.481   4.641
49183W        W19783  44.120  41.791   4.891
49184W        W19784  31.833  33.083  14.753
49185W        W19785  18.544  33.391  12.548
49186W        W19786  42.744  38.983  13.043
49187W        W19787  14.569  24.928   0.300
49188W        W19788  11.710  11.426  13.891
49189W        W19789  32.495  32.348   0.814
49190W        W19790  22.562  18.981   0.519
49191W        W19791  33.074  18.804  12.512
49192W        W19792  38.908  13.219  12.429
49193W        W19793  22.101  30.768  11.528
49194W        W19794   1.493  23.720  11.933
49195W        W19795  30.933  16.127  13.204
49196W        W19796  18.670  39.973  13.388
49197W        W19797  39.094  12.624   0.756
49198W        W19798  23.366   3.189  13.061
49199W        W19799  14.081  11.154   2.838
49200W        W19800  15.302   8.937  11.971
49201W        W19801  14.793  26.132  12.670
49202W        W19802  31.923   1.704   2.894
49203W        W19803  42.238  22.706  10.728
49204W        W19804  27.453   4.711  14.036
49205W        W19805  17.732  30.522  12.479
49206W        W19806  44.246  15.446  11.214
49207W        W19807  23.082  42.968  14.551
49208W        W19808  25.569   8.954  14.712
49209W        W19809  35.758  10.333   3.230
49210W        W19810   7.385   3.495  14.292
49211W        W19811   6.678  30.117  10.942
49212W        W19812  25.466  24.159  12.542
49213W        W19813  24.015  43.209  11.124
49214W        W19814  17.474  22.327  14.500
49215W        W19815  38.495  29.157  13.097
49216W        W19816  30.384  24.706  11.888
49217W        W19817  24.470  29.090  11.488
49218W        W19818  29.004  34.567   4.574
49219W        W19819   4.715   4.313   3.291
49220W        W19820  15.990  36.823  14.305
49221W        W19821   3.193  32.436  12.140
49222W        W19822  22.184  12.084   3.157
49223W        W19823  14.805   1.853  11.198
49224W        W19824  27.196  26.803   1.917
49225W        W19825  19.315  41.043   4.227
49226W        W19826  44.677  42.358   3.672
49227W        W19827  19.190   7.761   1.778
49228W        W19828  12.785   6.849   4.844
49229W        W19829  14.133  15.386   4.937
49230W        W19830   4.536  22.412   0.888
49231W        W19831  13.253  44.745  10.719
49232W        W19832  42.841  32.364  14.813
49233W        W19833   6.831  40.510  10.655
49234W        W19834  12.855   0.820   2.904
49235W        W19835  41.809  26.231   1.980
49236W        W19836  35.963  19.922   1.211
49237W        W19837  24.130  42.030   3.302
49238W        W19838  13.934  28.030  14.058
49239W        W19839  39.565  10.998  11.250
49240W        W19840   3.354  22.713  10.648
49241W        W19841   1.392  32.543  14.313
49242W        W19842  28.426  11.765  11.585
49243W        W19843  41.811  11.732   4.080
49244W        W19844  35.219  19.538  14.449
49245W        W19845  41.340  40.843  12.493
49246W        W19846  33.688   9.764  14.752
49247W        W19847   6.364  44.539   2.794
49248W        W19848  13.305   1.266   2.003
49249W        W19849  13.868  40.883  14.738
49250W        W19850  15.572  22.498  11.978
49251W        W19851  24.260   4.837   3.606
49252W        W19852  14.536  41.377  11.424
49253W        W19853   9.779  40.588   0.847
49254W        W19854  25.961  41.071   4.514
49255W        W19855  44.747  10.146  12.067
49256W        W19856  10.677  21.145  13.712
49257W        W19857  18.181  37.476   2.690
49258W        W19858  43.994  35.007   4.352
49259W        W19859  10.448  36.342  13.279
49260W        W19860  38.098  36.446   3.494
49261W        W19861  41.989  38.659  12.468
49262W        W19862   4.907  42.363  12.501
49263W        W19863  20.025  36.827  14.180
49264W        W19864  18.747  23.692  14.808
49265W        W19865  42.912   1.714   3.213
49266W        W19866  12.366  31.809  14.399
49267W        W19867  34.518  23.340   2.238
49268W        W19868  10.662   1.417   3.646
49269W        W19869  25.506  25.521   0.009
49270W        W19870  10.453  11.126  12.454
49271W        W19871  35.587  12.218  11.029
49272W        W19872  23.691  40.133   3.269
49273W        W19873  19.804  39.040   1.280
49274W        W19874  36.495  32.871  14.865
49275W        W19875  23.189   0.908  14.268
49276W        W19876   8.977  30.894   5.124
49277W        W19877   7.099  26.664  10.768
49278W        W19878  26.916  15.068  11.612
49279W        W19879  30.487  24.215  11.709
49280W        W19880   2.185  39.437  12.726
49281W        W19881   8.966  24.072   0.933
49282W        W19882  43.831  24.393  11.596
49283W        W19883  25.207  36.021   0.590
49284W        W19884   7.906  10.684   1.327
49285W        W19885  20.816   8.059  13.420
49286W        W19886   3.548  17.005   1.804
49287W        W19887   4.363  31.732  11.081
49288W        W19888  42.395   6.902  11.562
49289W        W19889   5.878  24.605  13.899
49290W        W19890  29.006  33.927  12.707
49291W        W19891  21.286  40.137   0.857
49292W        W19892  28.413   5.663  12.025
49293W        W19893  36.590  23.021   2.329
49294W        W19894  27.657   0.516  12.480
49295W        W19895   5.972  41.813  13.192
49296W        W19896  31.636  23.544  14.324
49297W        W19897   5.340  44.972   1.554
49298W        W19898  44.489   5.937   0.892
49299W        W19899  33.935  30.476   4.527
49300W        W19900  15.335  13.850   1.293
49301W        W19901  21.733  39.917   1.904
49302W        W19902  18.992  11.157   1.808
49303W        W19903  30.076  29.872   2.975
49304W        W19904  13.935  19.352   0.001
49305W        W19905  19.378  44.893  14.924
49306W        W19906  21.525   9.453   1.772
49307W        W19907   1.505   8.640   2.477
49308W        W19908  20.466  40.449   2.366
49309W        W19909  13.312  19.629  13.084
49310W        W19910  24.072  28.069  11.008
49311W        W19911  17.582  26.519  14.577
49312W        W19912   9.796  34.476  12.596
49313W        W19913  34.772  36.390   4.634
49314W        W19914   8.810  18.254   3.744
49315W        W19915  32.381  32.188  13.645
49316W        W19916  20.663  22.333  14.000
49317W        W19917  27.241  38.664  14.983
49318W        W19918  33.473  33.409   0.088
49319W        W19919   5.397  15.615   2.327
49320W        W19920  26.199  14.826  11.435
49321W        W19921  34.956   3.029  10.300
49322W        W19922  23.980  15.353  10.698
49323W        W19923  15.219  30.823  14.379
49324W        W19924  44.497   9.364   1.901
49325W        W19925  37.085  14.009   0.137
49326W        W19926  39.374  36.780  12.576
49327W        W19927  23.165  11.391   1.659
49328W        W19928   6.702  36.155  10.824
49329W        W19929  15.174  37.883   0.245
49330W        W19930  34.135  34.024   2.761
49331W        W19931  43.017  33.896   4.039
49332W        W19932   2.319  39.391   2.099
49333W        W19933   1.742   1.802  14.775
49334W        W19934  25.733  11.183  10.594
49335W        W19935  14.122  12.848   1.174
49336W        W19936  40.939  28.767  12.400
49337W        W19937  42.322  31.652  12.038
49338W        W19938   9.140   0.329  14.492
49339W        W19939   0.903  40.357   4.942
49340W        W19940  15.540   4.148   4.918
49341W        W19941   6.756   8.420  12.587
49342W        W19942  32.152  33.687  11.416
49343W        W19943   3.844  24.741   3.276
49344W        W19944  34.991  13.103  13.964
49345W        W19945  19.115  37.467  12.455
49346W        W19946  13.127   1.067  11.113
49347W        W19947  20.321  23.740   1.231
49348W        W19948  37.311  26.726   1.300
49349W        W19949  16.709   7.192  10.685
49350W        W19950  15.351  17.347   1.261
49351W        W19951   4.800  25.988   3.678
49352W        W19952  33.850  29.918  11.543
49353W        W19953   8.693  32.612  11.976
49354W        W19954   7.009   6.949  14.284
49355W        W19955   6.252   2.754   2.045
49356W        W19956   9.251  16.160   0.651
49357W        W19957  35.600  16.172  11.253
49358W        W19958   4.171   8.680   3.357
49359W        W19959  12.727  34.145  11.124
49360W        W19960  30.688  11.674   1.938
49361W        W19961   9.307  33.040  11.458
49362W        W19962  29.401  37.290  14.347
49363W        W19963  24.712  30.990  14.071
49364W        W19964  19.460  14.628  14.817
49365W        W19965  33.763  23.230   4.571
49366W        W19966   3.308   3.498   4.170
49367W        W19967  35.842  24.388  12.414
49368W        W19968  44.542  22.074  10.945
49369W        W19969  21.616  18.636   0.690
49370W        W19970  33.863  10.155  10.729
49371W        W19971  24.278  16.268  12.596
49372W        W19972  34.597  20.426   3.695
49373W        W19973  36.111  11.032  11.901
49374W        W19974  10.289  25.085   4.961
49375W        W19975  15.833  21.598   0.439
49376W        W19976  34.517  37.524  12.558
49377W        W19977  41.859  42.637   4.248
49378W        W19978  31.921  26.501   3.624
49379W        W19979  28.793   2.785  12.415
49380W        W19980  25.963  10.789   3.292
49381W        W19981  22.697   8.268   3.910
49382W        W19982   1.133  17.755   4.161
49383W        W19983   6.753   1.972   1.918
49384W        W19984  44.027  10.494  12.356
49385W        W19985  33.092  27.419  14.959
49386W        W19986  43.223  28.789   1.295
49387W        W19987   7.068  18.021  11.987
49388W        W19988  35.288   8.337  11.595
49389W        W19989  38.568  40.902  10.964
49390W        W19990  43.864  16.845  14.395
49391W        W19991  32.509   2.875  10.644
49392W        W19992   1.793  35.075   3.630
49393W        W19993  44.447  15.583   2.325
49394W        W19994  38.834  35.995  12.470
49395W        W19995  41.260  26.577  14.482
49396W        W19996  38.637  44.074  13.832
49397W        W19997  29.617  33.118   0.002
49398W        W19998  31.378  28.165  14.055
49399W        W19999  16.252  14.255  14.974
49400W        W20000   7.776   4.252  11.832
49401W        W20001  13.377  11.359  13.835
49402W        W20002  31.062  19.213   1.383
49403W        W20003  23.528   7.838   1.932
49404W        W20004  20.703  14.860   0.799
49405W        W20005  37.982  15.053  13.068
49406W        W20006  37.183   7.696  13.954
49407W        W20007   6.683  42.158  11.704
49408W        W20008  37.482   2.510  14.993
49409W        W20009   0.310  25.968   4.427
49410W        W20010  29.429  37.112  14.837
49411W        W20011   7.324  36.084   1.795
49412W        W20012  44.041  16.654   3.075
49413W        W20013  26.286  18.283  13.003
49414W        W20014  29.915  19.670  10.951
49415W        W20015   5.752  30.843   4.148
49416W        W20016  36.090  30.214  11.131
49417W        W20017  26.025  16.592   3.915
49418W        W20018  44.896   9.685   1.055
49419W        W20019  27.269   9.350  12.573
49420W        W20020  10.636   1.325  12.353
49421W        W20021   5.254  24.614  13.339
49422W        W20022  23.112  11.947  12.155
49423W        W20023  28.979  30.887  12.110
49424W        W20024   1.313  40.955   1.816
49425W        W20025  33.562  24.739  13.292
49426W        W20026  17.853  44.324  14.746
49427W        W20027  43.206  36.364   0.787
49428W        W20028  24.650  34.847   0.294
49429W        W20029  21.242  16.754  14.309
49430W        W20030  40.023  10.667   0.854
49431W        W20031   2.485   2.547  14.094
49432W        W20032  30.625  38.051  10.926
49433W        W20033  27.467  40.417   4.634
49434W        W20034  30.956  18.080   3.681
49435W        W20035  18.813   2.473   3.042
49436W        W20036  39.350   8.677  14.918
49437W        W20037  24.638  22.287  11.302
49438W        W20038   1.560  19.230   0.810
49439W        W20039  29.625  19.311  14.856
49440W        W20040  38.888  23.140   2.717
49441W        W20041  36.616  38.779   1.453
49442W        W20042  13.042  28.528  11.461
49443W        W20043  25.119   4.276   0.049
49444W        W20044  43.829  40.287  11.151
49445W        W20045  28.383   6.245  13.897
49446W        W20046  20.692  18.312   4.538
49447W        W20047  44.318   1.229   2.080
49448W        W20048  11.807  40.762   0.545
49449W        W20049  42.880   3.141  14.042
49450W        W20050  31.793  21.689  11.853
49451W        W20051   8.898  39.017  14.064
49452W        W20052  14.243  22.307   1.389
49453W        W20053  19.802  26.677   2.121
49454W        W20054   2.886  41.291  12.127
49455W        W20055  10.485  21.522   1.499
49456W        W20056   7.367  30.120   2.140
49457W        W20057  24.603   6.813  14.307
49458W        W20058  17.573  38.511  11.143
49459W        W20059  11.526  20.103   4.128
49460W        W20060  37.587  11.166  11.164
49461W        W20061  25.549  14.669   2.335
49462W        W20062  30.102  31.938   3.709
49463W        W20063   5.802   3.347   3.304
49464W        W20064  36.548  28.681   0.952
49465W        W20065  44.804  22.128  13.618
49466W        W20066  23.780  32.805   1.821
49467W        W20067  15.098  21.010  14.195
49468W        W20068  20.294   2.753  14.373
49469W        W20069  12.414  43.445  12.623
49470W        W20070  33.590  11.898  12.580
49471W        W20071  31.109  30.329  10.190
49472W        W20072  11.060  16.796   0.958
49473W        W20073  17.072   6.330   3.267
49474W        W20074  36.855   6.950  10.981
49475W        W20075  25.083  28.604  13.609
49476W        W20076  23.094  14.815   1.039
49477W        W20077  18.578  23.428   3.270
49478W        W20078   3.519  22.218  13.142
49479W        W20079  37.401  14.161   4.121
49480W        W20080   5.813  10.554  12.891
49481W        W20081   6.805  13.577   4.154
49482W        W20082  35.954  39.955   2.861
49483W        W20083  31.431  42.764   4.173
49484W        W20084   9.358  10.874   3.700
49485W        W20085  21.118   7.340   1.822
49486W        W20086  27.133  37.419  10.501
49487W        W20087  15.771  34.621   3.274
49488W        W20088   6.916  41.477  13.915
49489W        W20089  41.792  42.421  12.098
49490W        W20090  41.955  43.262   1.259
49491W        W20091  41.289  17.686  14.805
49492W        W20092  33.099  14.268  12.012
49493W        W20093  19.607  21.949   1.691
49494W        W20094  16.157  25.360   1.884
49495W        W20095  22.193  10.098   3.796
49496W        W20096  21.516   8.793   0.577
49497W        W20097  13.882  39.204  13.004
49498W        W20098  41.175  34.021   0.302
49499W        W20099   7.880  27.519  11.099
49500W        W20100  19.039  20.173  11.897
49501W        W20101  14.306   2.194   4.722
49502W        W20102  35.448   5.493   1.723
49503W        W20103  19.558  34.499   3.760
49504W        W20104  24.611   0.239  12.834
49505W        W20105  16.952  34.969  14.657
49506W        W20106  17.488   0.213  13.994
49507W        W20107  27.714  29.695   3.802
49508W        W20108  29.437   3.755   3.320
49509W        W20109  17.359  33.835   3.085
49510W        W20110   4.410  12.436   2.026
49511W        W20111  40.865   6.391  14.796
49512W        W20112  16.667  42.062  10.910
49513W        W20113   4.240   5.475   2.230
49514W        W20114  41.740  13.589   0.367
49515W        W20115  24.935  14.683   0.792
49516W        W20116  12.185  44.487   2.163
49517W        W20117  23.696   9.449   0.962
49518W        W20118  23.087  39.455  11.121
49519W        W20119   7.242   5.979  13.627
49520W        W20120  11.560  17.720   0.605
49521W        W20121  17.090  28.060   4.551
49522W        W20122  30.570   9.348  10.593
49523W        W20123   4.960   3.906   4.637
49524W        W20124   1.943  30.029  14.438
49525W        W20125   5.354   3.522   0.362
49526W        W20126  10.455  13.418  11.542
49527W        W20127  30.335  30.052   4.638
49528W        W20128  27.495  23.187   4.038
49529W        W20129  28.340  13.646  11.449
49530W        W20130  35.994  18.837  13.467
49531W        W20131   8.698   2.510   3.360
49532W        W20132  13.715   4.832  10.197
49533W        W20133  13.755  15.607   0.793
49534W        W20134  15.185  11.442  13.584
49535W        W20135  11.759  41.846   2.486
49536W        W20136   0.996  12.718  13.450
49537W        W20137   0.956  37.617  10.685
49538W        W20138   9.132  32.533   3.939
49539W        W20139  14.265  29.034  14.256
49540W        W20140  25.088  35.137   4.560
49541W        W20141  22.371  44.835  13.765
49542W        W20142  31.373   7.726  13.834
49543W        W20143  40.096   6.930   2.734
49544W        W20144   3.013  38.333   1.859
49545W        W20145  19.167  34.612  13.095
49546W        W20146  28.998  14.993   2.621
49547W        W20147  35.624  14.811   1.670
49548W        W20148  32.939   1.013   2.623
49549W        W20149  43.546  12.178   4.283
49550W        W20150   6.541   5.192   2.244
49551W        W20151  13.336  30.337  13.866
49552W        W20152   3.455  25.827   4.892
49553W        W20153   5.751  44.180  11.022
49554W        W20154  27.655   2.967   1.315
49555W        W20155  35.902  41.600   2.296
49556W        W20156  12.844  40.786   1.135
49557W        W20157  38.891  31.668   4.216
49558W        W20158   7.725  28.611  14.476
49559W        W20159  28.184  29.487   1.553
49560W        W20160  12.124  25.607   1.053
49561W        W20161  31.063   8.116  13.027
49562W        W20162  17.313  22.500  11.003
49563W        W20163   1.344  28.265  13.898
49564W        W20164  10.038  17.481  13.697
49565W        W20165  38.852   6.631  14.566
49566W        W20166  27.652  22.195  13.456
49567W        W20167  20.472  31.990   4.672
49568W        W20168   2.533  20.500  13.509
49569W        W20169  33.055  12.416  14.328
49570W        W20170  21.482   3.746   3.348
49571W        W20171  44.387  40.039  14.067
49572W        W20172  30.801  19.932   2.703
49573W        W20173  35.954  15.197   1.999
49574W        W20174  23.667  38.254  13.879
49575W        W20175  44.600  34.608   4.587
49576W        W20176   4.866  28.566  14.689
49577W        W20177  23.965  22.538  13.921
49578W        W20178  14.863   0.445   4.355
49579W        W20179  30.929  40.604  12.007
49580W        W20180  36.364  38.560   3.658
49581W        W20181   0.914   9.198   1.334
49582W        W20182  35.434  15.210   1.952
49583W        W20183   7.948  32.881   0.811
49584W        W20184  44.723  38.413   2.413
49585W        W20185  26.227  26.420  14.057
49586W        W20186  24.247  33.411   2.521
49587W        W20187  26.490   5.658  11.409
49588W        W20188  13.972  16.465   4.222
49589W        W20189  40.210  26.457  12.005
49590W        W20190   0.960  44.801   0.524
49591W        W20191  41.836  23.871   2.266
49592W        W20192  16.641  42.489   1.478
49593W        W20193   9.827  26.512   2.875
49594W        W20194  18.652   3.790   2.767
49595W        W20195  12.604   8.731  12.162
49596W        W20196   4.011  29.087  13.526
49597W        W20197  28.048  16.344  12.833
49598W        W20198   9.312  34.353   4.123
49599W        W20199  19.737   6.782   2.909
49600W        W20200  26.951  10.880  11.014
49601W        W20201  43.527  20.812   3.163
49602W        W20202  15.275  27.606   2.663
49603W        W20203  24.628  39.109   0.965
49604W        W20204  22.535  21.073  11.789
49605W        W20205  27.975  17.619   1.933
49606W        W20206   9.239  17.991  12.819
49607W        W20207  27.752  25.025  12.537
49608W        W20208  34.509   2.156  12.158
49609W        W20209   2.222  20.338  11.258
49610W        W20210  40.460   5.865  14.793
49611W        W20211  33.630   0.292   3.379
49612W        W20212   0.426  32.643  13.028
49613W        W20213  29.592  17.829  13.644
49614W        W20214  24.257  27.004   3.616
49615W        W20215  39.396   0.545  13.875
49616W        W20216   3.114  20.074  11.939
49617W        W20217  26.656  20.014  13.385
49618W        W20218  26.604   5.599   4.726
49619W        W20219  37.979  35.354   1.448
49620W        W20220  18.322  11.869   1.733
49621W        W20221  16.659  19.297   2.125
49622W        W20222  13.431  22.684   3.680
49623W        W20223  25.733  33.920  11.300
49624W        W20224  32.150   5.835  11.996
49625W        W20225   9.866  40.125  11.287
49626W        W20226  42.922   5.945   3.299
49627W        W20227   9.582  24.149   2.649
49628W        W20228  28.896  42.828   4.693
49629W        W20229  16.912  17.819  13.389
49630W        W20230  32.360  14.594   0.401
49631W        W20231  30.530  43.282   4.294
49632W        W20232   4.967  33.901  12.750
49633W        W20233  42.281  32.859  12.878
49634W        W20234  34.109  33.350   4.422
49635W        W20235  20.623   1.801  11.199
49636W        W20236  37.379  44.246   4.636
49637W        W20237  19.144   5.104  12.012
49638W        W20238  41.340  30.974  14.779
49639W        W20239   1.632  36.440   3.273
49640W        W20240  32.867  24.707   0.754
49641W        W20241   7.212  42.671   0.341
49642W        W20242  28.508  12.376  13.986
49643W        W20243   1.508  12.425   3.689
49644W        W20244  41.765   1.691   2.727
49645W        W20245  23.233  19.085   0.702
49646W        W20246  18.076  44.684   4.442
49647W        W20247  43.319  33.951  11.892
49648W        W20248  17.561  31.932  10.717
49649W        W20249   7.276  22.419   0.327
49650W        W20250  43.897  21.134   2.257
49651W        W20251   8.279  23.617   4.560
49652W        W20252   6.782  33.838  11.019
49653W        W20253  36.355   7.802   2.383
49654W        W20254  27.476   4.110  12.175
49655W        W20255  28.493  13.701  12.330
49656W        W20256  13.040  34.847   3.088
49657W        W20257   4.504  38.967   3.158
49658W        W20258  35.872  36.990  13.748
49659W        W20259   3.740  24.724   0.242
49660W        W20260  41.405   1.259   2.887
49661W        W20261   4.441  41.804   0.788
49662W        W20262  18.706  21.308  13.854
49663W        W20263  21.003  18.041  12.380
49664W        W20264  24.764   1.010  12.615
49665W        W20265  18.100  10.915   1.371
49666W        W20266  39.827   8.262  14.493
49667W        W20267   3.328   6.815   1.321
49668W        W20268  36.103  30.835   2.306
49669W        W20269   0.645   0.147  13.295
49670W        W20270  41.731  35.140   3.022
49671W        W20271  34.353  15.857   3.795
49672W        W20272  18.285  14.226  10.890
49673W        W20273  23.449   1.925  10.762
49674W        W20274  33.541  25.548  13.819
49675W        W20275  25.561   4.662  12.989
49676W        W20276  25.583  42.431   2.350
49677W        W20277   1.216  17.340   2.849
49678W        W20278  11.094  31.891   1.720
49679W        W20279  43.806  21.607  11.200
49680W        W20280  26.011  39.447   1.684
49681W        W20281   0.863  14.281   1.242
49682W        W20282  20.656  24.678   0.464
49683W        W20283  36.629   4.474  11.625
49684W        W20284  44.999  17.251  11.073
49685W        W20285  20.310  43.454   0.397
49686W        W20286  26.464  12.359  14.940
49687W        W20287  38.488  40.326   1.126
49688W        W20288  15.601  12.643   1.698
49689W        W20289   4.286  10.232   4.334
49690W        W20290  12.858  30.590  12.607
49691W        W20291   2.489  42.591   1.246
49692W        W20292  35.209  10.925  10.569
49693W        W20293   2.761  21.594   3.251
49694W        W20294  28.454  33.196  14.342
49695W        W20295  44.249  28.551  14.909
49696W        W20296  29.619  21.261  11.880
49697W        W20297   4.689  30.006  10.529
49698W        W20298   4.742  26.614  12.525
49699W        W20299  39.600  44.505  12.998
49700W        W20300  15.571   0.346  11.848
49701W        W20301  40.951  14.542   1.890
49702W        W20302  22.097  23.237   1.626
49703W        W20303  43.047  12.854   2.899
49704W        W20304  19.755   9.342   1.246
49705W        W20305   1.507   9.869   3.042
49706W        W20306   1.320  22.013   1.775
49707W        W20307  11.140  40.395  13.879
49708W        W20308  35.151  15.705  11.119
49709W        W20309  40.120  10.046  11.840
49710W        W20310  34.671  24.028   0.755
49711W        W20311  26.225  40.875  10.535
49712W        W20312  32.677  40.582   1.914
49713W        W20313  15.334  18.781   3.792
49714W        W20314  40.785  30.543   1.665
49715W        W20315  29.584  29.054   4.320
49716W        W20316  35.468  28.618  14.898
49717W        W20317   5.392  16.334   1.779
49718W        W20318  27.472  34.160  11.613
49719W        W20319  14.236  37.879   2.138
49720W        W20320  20.516  32.498   3.274
49721W        W20321   1.307   7.479  14.896
49722W        W20322   5.169  37.463  14.204
49723W        W20323  37.146   2.283  13.571
49724W        W20324  22.236  16.602   3.132
49725W        W20325  26.028  15.866   4.660
49726W        W20326  23.802   3.555  14.898
49727W        W20327  21.662   0.513   2.156
49728W        W20328  35.722  39.316   3.829
49729W        W20329   2.941  14.225   4.295
49730W        W20330  18.659  34.286  10.862
49731W        W20331  30.940  16.746  10.743
49732W        W20332  13.659  31.379  12.060
49733W        W20333  42.933  43.355  10.890
49734W        W20334  43.791  19.424  10.368
49735W        W20335   7.381   0.750  11.609
49736W        W20336  17.101  15.372   5.034
49737W        W20337  40.913  31.402  10.905
49738W        W20338   4.781   7.927   0.248
49739W        W20339   4.794   7.100   0.697
49740W        W20340   4.481  32.498   1.930
49741W        W20341  21.948  31.557  14.502
49742W        W20342   1.579  39.787  14.475
49743W        W20343  37.077  24.710  11.630
49744W        W20344  25.397  10.298  11.696
49745W        W20345   7.736  12.147  14.334
49746W        W20346  24.665   1.524  14.350
49747W        W20347  33.342  28.757   9.859
49748W        W20348  32.874   1.386   1.193
49749W        W20349  25.677   3.753  14.072
49750W        W20350  37.886  13.678  13.730
49751W        W20351  10.465  22.631  13.649
49752W        W20352   9.229   9.145  14.115
49753W        W20353  15.486  38.854  10.258
49754W        W20354  21.810  10.791   0.551
49755W        W20355  38.938  15.906   4.848
49756W        W20356  31.704  38.174   3.156
49757W        W20357  31.681   2.753  14.614
49758W        W20358  24.687  44.813   2.198
49759W        W20359  10.141   7.421   4.469
49760W        W20360   6.209  28.394   4.644
49761W        W20361   4.799  42.992   1.180
49762W        W20362  15.169  29.341  11.041
49763W        W20363  35.337  19.005  13.301
49764W        W20364  37.448  10.401   3.679
49765W        W20365  44.534  13.315   0.739
49766W        W20366  38.020  18.897   3.064
49767W        W20367   9.000   9.816   4.529
49768W        W20368  32.582  40.838  11.377
49769W        W20369  41.680  30.896   0.710
49770W        W20370   2.633  36.899   3.806
49771W        W20371   9.987  11.930   2.742
49772W        W20372  18.668  10.722   4.734
49773W        W20373  37.900   1.293  11.105
49774W        W20374  44.957  11.585  12.973
49775W        W20375  28.274   8.665  14.333
49776W        W20376   0.666   7.172  12.162
49777W        W20377  20.900  27.653  11.067
49778W        W20378  21.237   4.409   3.218
49779W        W20379  22.584  37.774   3.967
49780W        W20380  38.729   6.260   3.905
49781W        W20381  24.564  37.841   3.920
49782W        W20382  41.061  33.502   0.830
49783W        W20383   7.339  43.402  13.439
49784W        W20384  22.689  12.305   3.811
49785W        W20385  32.427  33.427   2.825
49786W        W20386  42.247  40.970   1.885
49787W        W20387  32.193  12.267  11.920
49788W        W20388  21.503  38.102  14.884
49789W        W20389  16.762  44.521  13.214
49790W        W20390   1.767  30.051   3.904
49791W        W20391   8.867   7.900   4.626
49792W        W20392  33.286   3.035  13.391
49793W        W20393  31.920  23.035   1.313
49794W        W20394  29.032  33.265   4.186
49795W        W20395  40.232  44.718  14.995
49796W        W20396  30.368  10.793   0.516
49797W        W20397  16.883   7.968   5.034
49798W        W20398  31.173   4.631   4.172
49799W        W20399  19.609   2.839   0.236
49800W        W20400  36.093  19.666  11.031
49801W        W20401   2.447   2.848  12.307
49802W        W20402   0.456  10.266  12.862
49803W        W20403  35.180   9.948  14.985
49804W        W20404  13.630  10.619  13.368
49805W        W20405  28.179  19.821   4.325
49806W        W20406  40.015  27.550   2.393
49807W        W20407  14.097  10.448  12.613
49808W        W20408  25.630  37.485  10.187
49809W        W20409   4.144  40.015   3.867
49810W        W20410  17.793  37.952   0.043
49811W        W20411  18.058  29.993   2.821
49812W        W20412  23.759  14.058   0.396
49813W        W20413   3.069  28.091   4.028
49814W        W20414  32.653   3.244   3.241
49815W        W20415   3.641  40.890   2.333
49816W        W20416  25.534  15.336  14.799
49817W        W20417   6.884  36.343   1.898
49818W        W20418   9.237   2.208  14.214
49819W        W20419  23.766   5.727   3.499
49820W        W20420  14.340   8.178  11.242
49821W        W20421   1.911  14.747  10.731
49822W        W20422  22.451  41.504  12.351
49823W        W20423  20.598  30.101   3.609
49824W        W20424  35.944  11.068   1.370
49825W        W20425   1.743  16.146   0.326
49826W        W20426  27.772  44.844  10.874
49827W        W20427  15.866  32.018  14.302
49828W        W20428  31.862   9.264  12.588
49829W        W20429   6.715  24.983  11.165
49830W        W20430  26.081  34.510  14.885
49831W        W20431   4.944  21.293  11.145
49832W        W20432  37.476   8.768   1.482
49833W        W20433  39.018  31.360  12.129
49834W        W20434  34.837  22.496   3.796
49835W        W20435   2.308  20.720  12.198
49836W        W20436  23.294  39.759  10.574
49837W        W20437  30.548  40.253  12.605
49838W        W20438  10.273  18.669  14.352
49839W        W20439  20.352   4.736   2.780
49840W        W20440  11.610  24.342   3.403
49841W        W20441  15.758  11.227   4.635
49842W        W20442  41.940  25.201   3.393
49843W        W20443   4.708   2.316  10.598
49844W        W20444   9.196  32.930  10.962
49845W        W20445  35.817  31.429   2.310
49846W        W20446  37.488  40.094   2.465
49847W        W20447  16.966  40.582  14.381
49848W        W20448  31.848  12.088  13.287
49849W        W20449  43.509  40.767   2.329
49850W        W20450  26.272  36.333  13.525
49851W        W20451   7.914  29.724  10.184
49852W        W20452   3.737  29.348   1.306
49853W        W20453  34.614  30.666  12.889
49854W        W20454  10.570   2.002  13.573
49855W        W20455   5.802  23.109  10.865
49856W        W20456  39.852  13.588   4.614
49857W        W20457  15.663  21.298  11.420
49858W        W20458  31.419  38.894  11.967
49859W        W20459  34.320  37.005  12.431
49860W        W20460   9.267   6.128   2.377
49861W        W20461  44.753  17.114  11.531
49862W        W20462   1.967   1.009  12.149
49863W        W20463   3.111  35.100  10.827
49864W        W20464  12.383  15.168   3.243
49865W        W20465  15.082   3.190  11.167
49866W        W20466  14.621  25.574   2.765
49867W        W20467  19.993   7.953   4.189
49868W        W20468  35.960   6.824   0.839
49869W        W20469  10.223  10.097  14.324
49870W        W20470  15.807  39.776  14.543
49871W        W20471   3.870  21.126  13.254
49872W        W20472   4.274  17.767   0.818
49873W        W20473   7.634  23.143   0.730
49874W        W20474  21.105  21.802  14.333
49875W        W20475   7.468  22.086   1.675
49876W        W20476  34.396  37.602   1.421
49877W        W20477  38.438  18.596   4.232
49878W        W20478  28.080   3.271  10.248
49879W        W20479  30.876  42.493   4.550
49880W        W20480  27.922  11.332  12.163
49881W        W20481  16.013  27.123  13.005
49882W        W20482  11.703  10.965  14.127
49883W        W20483   0.736   7.273   5.411
49884W        W20484  39.718   2.218  11.223
49885W        W20485   2.782   7.293  10.658
49886W        W20486  40.929  28.666  11.641
49887W        W20487  33.070  26.260   4.320
49888W        W20488  19.362  35.129  10.847
49889W        W20489   7.213  23.495  11.724
49890W        W20490  34.038   5.442  11.490
49891W        W20491   8.451  12.374  11.990
49892W        W20492  44.519  17.380   4.635
49893W        W20493  27.090  29.915   2.850
49894W        W20494  38.108  31.855   2.789
49895W        W20495  11.016  19.603  14.404
49896W        W20496  42.408   3.909  12.947
49897W        W20497  43.453  42.542   0.255
49898W        W20498  36.993  44.317  10.688
49899W        W20499   5.337  24.513   1.741
49900W        W20500   6.311  41.957  14.420
49901W        W20501  18.496  12.821  12.071
49902W        W20502  39.305   1.044   3.264
49903W        W20503   2.201  26.726  14.632
49904W        W20504  27.321  14.598  10.584
49905W        W20505  21.625  35.280   4.651
49906W        W20506  16.380  34.397   4.042
49907W        W20507  10.298   1.424   1.227
49908W        W20508  39.974  39.259   1.993
49909W        W20509   9.813  29.242   2.455
49910W        W20510  25.546  17.813   0.009
49911W        W20511  25.446  31.589  11.958
49912W        W20512  34.027  43.005  11.977
49913W        W20513   2.484  10.434  14.862
49914W        W20514  25.186  10.065   3.792
49915W        W20515  35.088  20.960  13.091
49916W        W20516  44.368  27.354  14.480
49917W        W20517  35.135  16.161   4.707
49918W        W20518  39.579  26.023  12.607
49919W        W20519  34.625  38.251  11.461
49920W        W20520  33.516  30.210  14.110
49921W        W20521  31.042   1.987   2.410
49922W        W20522  34.077  36.630  11.614
49923W        W20523  16.776  23.967   1.979
49924W        W20524  34.125  21.614  13.377
49925W        W20525  21.010  29.709  13.356
49926W        W20526  12.645  26.483  13.980
49927W        W20527  41.859  33.832   3.411
49928W        W20528  13.075  17.634  14.387
49929W        W20529   1.780  39.900  11.002
49930W        W20530  23.672  40.554   3.592
49931W        W20531   3.426   0.442  12.517
49932W        W20532  35.009   3.320  11.203
49933W        W20533  28.128  10.765   4.142
49934W        W20534  33.959   5.047  14.418
49935W        W20535  41.393  30.901   1.700
49936W        W20536  16.089  14.407   3.278
49937W        W20537  44.930   9.717  13.446
49938W        W20538  15.343  12.863  14.519
49939W        W20539   2.216  29.456  13.323
49940W        W20540   5.706  34.034   2.853
49941W        W20541  12.997  42.065   3.255
49942W        W20542  34.565   8.287   0.498
49943W        W20543  35.568  32.836  13.936
49944W        W20544  42.319  15.832  13.959
49945W        W20545  14.873  35.495   3.212
49946W        W20546   7.864  18.356   1.062
49947W        W20547   9.895  44.956   2.809
49948W        W20548  13.166  15.774   4.724
49949W        W20549  24.989   9.373  13.030
49950W        W20550   6.908  29.683  14.810
49951W        W20551  26.112  29.927  14.059
49952W        W20552  23.446  30.441   0.823
49953W        W20553  32.818   6.676  12.637
49954W        W20554  20.152  37.697  12.412
49955W        W20555  16.202  12.702  12.008
49956W        W20556  21.497  40.453   2.664
49957W        W20557  35.757  30.474   2.658
49958W        W20558  20.426   1.452   0.918
49959W        W20559  41.821   6.499   5.085
49960W        W20560  43.952  20.712  13.046
49961W        W20561   6.597  21.068  12.914
49962W        W20562  32.640   3.930  13.411
49963W        W20563   6.270  36.605  14.904
49964W        W20564  44.777  24.218  13.237
49965W        W20565   5.395  39.751  14.832
49966W        W20566  23.287  40.429   3.285
49967W        W20567  40.879  39.048   3.214
49968W        W20568  29.052  23.720   0.554
49969W        W20569  18.172  40.524   1.735
49970W        W20570  16.865   5.307   4.983
49971W        W20571  15.142  14.866   1.327
49972W        W20572  34.965  41.773   3.310
49973W        W20573  38.017  26.123   2.379
49974W        W20574  37.671  31.020   1.433
49975W        W20575  36.519  20.000   3.358
49976W        W20576  21.633  22.013   2.237
49977W        W20577  18.669  28.435  12.547
49978W        W20578   1.266  30.065   4.060
49979W        W20579  38.610  19.958   2.156
49980W        W20580  42.515   4.938  13.879
49981W        W20581  36.509  23.432   4.672
49982W        W20582  23.952  25.597  10.587
49983W        W20583  16.503  15.200   1.165
49984W        W20584  33.912  42.926   3.712
49985W        W20585  14.105  13.263   1.520
49986W        W20586  33.665  20.934   2.804
49987W        W20587  40.003  22.852   2.466
49988W        W20588   0.857  17.204   2.313
49989W        W20589   0.435   9.733  13.763
49990W        W20590  25.138  13.315  11.178
49991W        W20591   7.657   1.984   0.942
49992W        W20592  27.533  36.331  13.330
49993W        W20593  35.411   1.739  10.628
49994W        W20594   4.446  20.000   1.868
49995W        W20595  26.157  40.720   2.393
49996W        W20596   3.756  16.695   0.062
49997W        W20597  17.511  43.772   2.769
49998W        W20598   3.607  37.046   0.688
49999W        W20599  40.869  35.522   4.600
50000W        W20600  23.320  13.903   1.724
50001W        W20601  41.951  27.985   3.044
50002W        W20602  44.961   4.834   2.788
50003W        W20603  43.699  17.288   4.314
50004W        W20604   4.348  25.188  11.030
50005W        W20605  30.249  11.849   1.709
50006W        W20606  36.938   3.174  13.787
50007W        W20607  35.500  44.609   4.705
50008W        W20608  28.719  15.828  14.396
50009W        W20609  43.614   8.387   1.406
50010W        W20610   0.600   2.865   0.085
50011W        W20611  27.088   5.309  12.569
50012W        W20612  42.683   1.794  14.855
50013W        W20613  23.122  24.963  11.585
50014W        W20614  26.084  24.520  14.031
50015W        W20615  35.644  30.424   0.249
50016W        W20616  35.696  44.182  12.528
50017W        W20617  39.448   8.385   2.854
50018W        W20618   5.260   3.281   5.371
50019W        W20619  41.538  22.165   4.263
50020W        W20620  23.166  10.216  11.609
50021W        W20621  32.990  34.057   0.550
50022W        W20622  25.635  43.754   9.859
50023W        W20623   2.772  19.575  14.523
50024W        W20624  36.969   5.218   4.106
50025W        W20625  15.364  24.008   1.882
50026W        W20626   4.908  10.264  13.265
50027W        W20627  19.631   9.778   4.579
50028W        W20628   4.468  34.633   0.448
50029W        W20629  43.573  23.894   0.677
50030W        W20630  36.826  34.959  14.374
50031W        W20631   0.343   6.611  13.606
50032W        W20632  16.308  21.705   2.487
50033W        W20633  41.614  28.208   0.723
50034W        W20634  35.837  40.484   4.121
50035W        W20635   6.072   7.769  11.044
50036W        W20636  25.693   5.306   2.966
50037W        W20637  40.831  26.086   1.280
50038W        W20638  15.092  38.737  13.538
50039W        W20639   9.918  25.277   4.622
50040W        W20640   8.323  28.740   0.316
50041W        W20641  25.498  18.454  11.348
50042W        W20642   8.475  20.752  10.656
50043W        W20643   0.726  14.725  12.181
50044W        W20644   8.824   2.962  14.117
50045W        W20645  38.084  27.631   1.337
50046W        W20646  41.054  21.673   4.641
50047W        W20647  44.305  13.840  14.912
50048W        W20648   6.280  11.614  10.137
50049W        W20649  36.666   9.365   3.575
50050W        W20650  14.863  21.060   4.160
50051W        W20651  17.897  28.736  13.962
50052W        W20652  12.827  43.971   1.446
50053W        W20653   9.183  39.531   3.901
50054W        W20654  33.841  21.198  14.272
50055W        W20655  13.095  33.963   2.317
50056W        W20656  19.677  34.550   0.365
50057W        W20657  17.337  17.219   0.346
50058W        W20658  29.483   3.643   1.393
50059W        W20659  42.900  21.680  14.844
50060W        W20660  35.163  26.405  10.373
50061W        W20661   3.066  11.324   3.691
50062W        W20662  39.138  28.650   4.164
50063W        W20663  24.736  18.734   2.976
50064W        W20664  40.381  16.204   1.803
50065W        W20665  17.485   9.352  14.017
50066W        W20666  14.314   3.966   0.996
50067W        W20667  10.928  39.589  11.140
50068W        W20668  42.532  29.782   3.497
50069W        W20669  42.769  24.681   3.315
50070W        W20670  41.465  35.794  11.877
50071W        W20671   5.844  40.033  14.720
50072W        W20672   6.472  11.199  12.399
50073W        W20673  30.881   3.114   5.016
50074W        W20674  10.872  36.324   1.824
50075W        W20675   8.166  35.108  14.884
50076W        W20676  21.220   5.873  11.881
50077W        W20677  28.151   3.778  14.887
50078W        W20678  28.194  27.515  11.075
50079W        W20679  30.410  29.708  12.455
50080W        W20680   4.520   5.495   4.658
50081W        W20681  43.699  33.602  11.835
50082W        W20682  10.392   3.151  11.958
50083W        W20683  22.614  34.875  10.385
50084W        W20684   1.761  21.956  12.944
50085W        W20685   6.724  24.014   0.715
50086W        W20686   9.255  22.597  13.885
50087W        W20687   2.703  39.294   1.737
50088W        W20688  14.915  18.369  11.390
50089W        W20689  21.408  15.306  11.523
50090W        W20690   5.298  35.521  12.620
50091W        W20691  19.750   9.661  14.890
50092W        W20692  32.638  13.100   3.360
50093W        W20693  10.594   1.865   3.396
50094W        W20694  14.879  34.945   2.689
50095W        W20695  36.752  34.301  11.569
50096W        W20696  22.728   5.805  13.778
50097W        W20697  32.416  43.434   0.795
50098W        W20698  36.134   1.689  12.888
50099W        W20699  21.517  34.053  14.343
50100W        W20700  31.615  20.152   0.491
50101W        W20701   7.324  19.232  12.647
50102W        W20702  39.465  42.558  13.319
50103W        W20703   5.743  13.620  11.487
50104W        W20704  24.190  16.196  13.634
50105W        W20705   9.767  35.992   4.485
50106W        W20706  35.475  33.863   3.276
50107W        W20707  31.338  11.900   4.534
50108W        W20708  20.218  37.023  11.915
50109W        W20709  36.869  17.705   3.692
50110W        W20710  29.475  32.467   4.613
50111W        W20711   2.336   3.521  14.469
50112W        W20712   8.116   7.817   0.686
50113W        W20713  10.861   5.105   0.529
50114W        W20714   5.284  20.121  13.867
50115W        W20715  20.313  28.595  11.051
50116W        W20716  32.945  28.930  14.951
50117W        W20717  11.530  22.771  14.627
50118W        W20718  18.991  27.066  13.970
50119W        W20719  43.957  16.853   1.196
50120W        W20720   8.838  19.739   4.778
50121W        W20721  40.882  15.577  12.960
50122W        W20722  26.134  25.675   2.301
50123W        W20723  34.908  10.236   5.095
50124W        W20724  36.631  18.704  10.622
50125W        W20725  37.382  20.281  13.804
50126W        W20726   6.964  24.276  12.456
50127W        W20727  41.678  43.098   2.328
50128W        W20728  35.114  24.499  14.878
50129W        W20729  33.632  35.922  13.389
50130W        W20730   7.845  44.183   2.670
50131W        W20731   1.442  34.505   4.784
50132W        W20732   3.168   3.014  13.460
50133W        W20733  44.384  27.008   4.228
50134W        W20734  36.009  19.796   3.225
50135W        W20735  14.069  24.068   3.131
50136W        W20736  26.960  10.267   0.911
50137W        W20737  16.029  26.962   4.916
50138W        W20738  21.512  18.129   2.892
50139W        W20739  24.974  15.676  12.499
50140W        W20740  38.767  41.899   1.862
50141W        W20741  40.437  15.971  14.712
50142W        W20742  20.153   0.322   1.014
50143W        W20743  33.047   8.867  14.085
50144W        W20744  42.325  14.507  13.533
50145W        W20745  35.947  11.293   2.369
50146W        W20746  23.294  35.147   4.420
50147W        W20747  14.556  15.274  13.484
50148W        W20748  36.187  44.560  10.138
50149W        W20749  24.948   9.187  14.369
50150W        W20750  21.997  28.009  11.612
50151W        W20751   9.776   2.402  12.560
50152W        W20752  39.921  20.703   3.576
50153W        W20753   5.428  25.989  14.523
50154W        W20754  14.265  31.158  13.804
50155W        W20755   6.209  33.385  12.851
50156W        W20756  14.594  31.743  14.519
50157W        W20757   4.037  25.249   3.308
50158W        W20758  20.095  14.831   3.604
50159W        W20759  16.031  15.760   0.411
50160W        W20760   5.141   7.889   2.708
50161W        W20761  40.197  34.676   1.721
50162W        W20762  42.787   2.519  14.312
50163W        W20763   2.266  25.151  12.950
50164W        W20764  41.502  13.651  12.846
50165W        W20765  39.702   2.513   1.609
50166W        W20766  18.807   9.761   1.900
50167W        W20767   2.503  37.475   1.240
50168W        W20768   3.733  39.344   1.636
50169W        W20769  25.797  29.503   4.225
50170W        W20770  25.965  37.945  11.080
50171W        W20771  16.177  13.554   1.815
50172W        W20772  20.042  32.019  12.923
50173W        W20773   0.720  11.147   3.090
50174W        W20774  31.971  11.342   0.577
50175W        W20775  14.136  34.009   4.647
50176W        W20776  23.763   2.245   1.954
50177W        W20777  40.425  12.595   3.037
50178W        W20778  30.377  20.317  11.114
50179W        W20779  13.847  40.582   2.747
50180W        W20780   9.779   7.447   2.230
50181W        W20781   4.695  41.273   3.187
50182W        W20782  40.256  22.602   4.042
50183W        W20783   2.447  32.035   1.928
50184W        W20784  25.537  20.546  13.984
50185W        W20785  22.864  40.486  13.039
50186W        W20786  37.000  35.407   0.881
50187W        W20787   6.686   4.687   0.410
50188W        W20788  29.673  25.158  14.377
50189W        W20789  43.018  41.054   4.635
50190W        W20790   0.027  39.931   2.159
50191W        W20791  27.062  17.764   3.499
50192W        W20792  25.653  27.228  14.679
50193W        W20793  32.984  20.846   2.401
50194W        W20794   1.501  26.242  11.582
50195W        W20795   1.424   4.278  11.406
50196W        W20796  23.752  27.038  12.020
50197W        W20797  12.158  10.367   0.823
50198W        W20798   8.676  43.428  10.623
50199W        W20799  32.183   7.115  12.076
50200W        W20800  16.985  15.882   2.165
50201W        W20801  28.215  19.465  14.702
50202W        W20802  37.496  31.156  13.373
50203W        W20803  27.883   5.859  13.018
50204W        W20804  11.725   8.050   0.100
50205W        W20805   4.929  41.993   4.103
50206W        W20806  23.687  20.232   1.775
50207W        W20807   4.271  26.785  12.795
50208W        W20808   8.416   3.222  13.922
50209W        W20809  21.943  27.045   4.291
50210W        W20810  12.719  42.303   3.657
50211W        W20811   2.446  42.438   2.404
50212W        W20812   5.137  11.543  10.357
50213W        W20813  17.633  39.882   1.948
50214W        W20814  37.113   0.960  12.103
50215W        W20815  42.643  14.823  10.404
50216W        W20816  27.364  33.671  11.619
50217W        W20817  17.667   2.746   3.320
50218W        W20818  31.164  37.817   4.770
50219W        W20819   4.419  10.152  14.966
50220W        W20820  22.239  35.966  14.728
50221W        W20821   2.835  18.165  12.759
50222W        W20822   2.031  13.106   4.706
50223W        W20823  21.326  27.575  12.978
50224W        W20824  17.045   4.008  13.362
50225W        W20825  36.446   1.829   1.317
50226W        W20826  27.434  42.944   3.815
50227W        W20827   1.888  26.697   2.786
50228W        W20828  42.912   3.331   1.816
50229W        W20829  44.879  23.153  12.367
50230W        W20830  23.549  43.883  14.445
50231W        W20831   7.288  17.166  13.843
50232W        W20832  40.526  20.274  12.625
50233W        W20833   8.060  23.176   0.460
50234W        W20834  21.025  32.112   0.145
50235W        W20835   6.443   1.240  13.605
50236W        W20836  36.835  35.973   1.264
50237W        W20837  38.919  27.013  12.218
50238W        W20838  41.934  40.109  11.152
50239W        W20839  18.649  22.197   4.781
50240W        W20840  12.602   8.328  12.561
50241W        W20841  20.182  13.306   1.425
50242W        W20842   5.729  12.290   0.887
50243W        W20843   9.951  24.547  14.480
50244W        W20844  39.250   6.958  12.072
50245W        W20845  40.843   3.121  12.063
50246W        W20846  35.583  22.259  14.571
50247W        W20847  41.742  34.019   4.310
50248W        W20848   9.264   8.871  12.387
50249W        W20849   1.888  43.049   2.292
50250W        W20850  34.470   5.734   2.370
50251W        W20851   6.489   2.585  11.128
50252W        W20852  24.494  14.589   2.298
50253W        W20853   1.427   4.944   0.385
50254W        W20854  37.439  39.435  13.813
50255W        W20855   6.344   4.379  14.743
50256W        W20856   6.021  16.220  11.066
50257W        W20857  37.914  17.771  14.989
50258W        W20858  20.307  40.388   4.533
50259W        W20859   2.914   8.939   2.251
50260W        W20860  26.576  41.041   2.330
50261W        W20861  25.844  24.588  11.831
50262W        W20862  11.777  29.478   2.664
50263W        W20863   1.414  42.747   4.857
50264W        W20864  12.526   8.058   3.177
50265W        W20865  11.451  43.625   1.269
50266W        W20866  10.704   0.339   2.672
50267W        W20867  40.003  12.815  11.022
50268W        W20868  21.076  42.908  12.479
50269W        W20869   1.143  19.395   4.612
50270W        W20870  10.305  25.446  14.991
50271W        W20871  16.211  14.344   1.350
50272W        W20872  13.508   5.467   3.307
50273W        W20873   3.526  37.070  11.052
50274W        W20874   3.921  33.179  12.917
50275W        W20875  44.457   7.217   4.137
50276W        W20876   1.392  21.347  14.345
50277W        W20877  24.252  19.801  12.399
50278W        W20878   4.832  39.811  10.743
50279W        W20879  19.135  10.857   4.914
50280W        W20880   7.379  43.504   0.492
50281W        W20881  34.436  17.518  14.679
50282W        W20882   0.430  35.646   2.181
50283W        W20883   8.593  16.845  13.927
50284W        W20884   6.327   2.257   1.811
50285W        W20885  24.139   1.420   4.605
50286W        W20886  15.140  35.834   4.561
50287W        W20887  21.721   7.536   0.136
50288W        W20888  34.671  44.572  11.892
50289W        W20889  12.813  33.619  12.436
50290W        W20890  15.799  40.269   1.886
50291W        W20891  43.509  39.591  12.967
50292W        W20892  10.961  20.180   1.669
50293W        W20893  44.078   9.869  13.339
50294W        W20894  39.326  11.255   4.225
50295W        W20895  19.440  33.980  13.483
50296W        W20896  20.367  19.285   2.330
50297W        W20897  18.108   3.708   2.715
50298W        W20898  15.545  15.719  14.343
50299W        W20899  32.678   8.366   1.234
50300W        W20900  26.086  31.479  13.226
50301W        W20901  23.883   7.512   2.755
50302W        W20902   6.205  18.980  13.240
50303W        W20903   4.725  25.962   4.539
50304W        W20904  39.735  39.243  10.457
50305W        W20905  18.657  41.841   4.116
50306W        W20906  33.836  44.803  10.695
50307W        W20907  19.589  14.646   4.627
50308W        W20908  26.916  13.705   1.252
50309W        W20909  40.998  31.637   3.670
50310W        W20910   5.307  21.586   2.166
50311W        W20911  16.786  25.032   1.001
50312W        W20912  41.449  18.211  14.828
50313W        W20913  42.019   7.737   3.417
50314W        W20914  21.268  30.159  12.115
50315W        W20915   7.689  13.245   2.819
50316W        W20916  24.168  35.829   1.370
50317W        W20917  43.927  36.419   2.761
50318W        W20918  11.816  35.879   4.162
50319W        W20919   5.462  18.348   1.640
50320W        W20920  43.469  21.090   3.603
50321W        W20921   6.281  38.708  13.104
50322W        W20922  13.182  40.015   1.430
50323W        W20923   2.135  34.957  13.012
50324W        W20924  37.581  10.179   1.840
50325W        W20925  16.787  42.438   4.332
50326W        W20926  36.156   6.761  14.390
50327W        W20927   7.386  38.950   1.425
50328W        W20928  33.780  28.635  11.003
50329W        W20929  22.107  19.282  12.890
50330W        W20930  38.528  26.931   0.822
50331W        W20931  21.616  15.068   1.863
50332W        W20932  15.758  24.315  14.375
50333W        W20933  26.450   2.817   4.304
50334W        W20934  38.901  34.457   3.699
50335W        W20935  40.004  27.159  13.046
50336W        W20936  28.742  24.013   0.252
50337W        W20937  38.103  37.434   0.345
50338W        W20938   7.368   8.649  14.959
50339W        W20939  12.568  24.110  14.817
50340W        W20940   5.428   2.704  12.852
50341W        W20941  35.329  43.170   1.778
50342W        W20942  35.876  27.397   4.258
50343W        W20943  35.605  12.110  13.136
50344W        W20944  13.056   9.734   2.071
50345W        W20945  37.301  27.524   0.412
50346W        W20946  19.771  15.069   4.401
50347W        W20947   3.322  37.811   1.186
50348W        W20948  30.399   1.158   4.126
50349W        W20949  40.405  22.687   4.527
50350W        W20950  11.746   2.564   3.582
50351W        W20951   9.346   7.433   0.418
50352W        W20952   1.883  27.170   1.882
50353W        W20953   0.769   1.228  12.526
50354W        W20954  26.742  22.161  12.081
50355W        W20955   4.333  33.401   2.885
50356W        W20956  16.709  10.578   2.553
50357W        W20957  23.263  31.857   0.831
50358W        W20958  30.679  31.848  10.719
50359W        W20959   1.013   0.288   3.395
50360W        W20960  13.300  32.176   1.303
50361W        W20961  36.706  10.375  14.413
50362W        W20962  39.031   7.577   4.125
50363W        W20963  16.976   4.396   0.928
50364W        W20964  31.733  29.777  14.953
50365W        W20965  36.074  37.870  13.372
50366W        W20966   3.365  12.667   0.808
50367W        W20967   2.867  28.255  14.848
50368W        W20968  36.784  29.857   2.306
50369W        W20969  24.360  22.823   2.918
50370W        W20970  29.068  18.612   0.118
50371W        W20971   1.350   6.347   2.852
50372W        W20972  31.100   2.187  11.538
50373W        W20973   6.880  42.464   2.737
50374W        W20974  16.453  34.528  12.380
50375W        W20975   1.757  44.807   0.664
50376W        W20976  36.588  21.523   3.272
50377W        W20977  18.783  26.038  13.137
50378W        W20978  16.124  38.025   2.165
50379W        W20979  44.282  13.154  14.527
50380W        W20980   1.975  36.415  14.015
50381W        W20981  16.123  40.657  10.682
50382W        W20982  39.109   9.833  11.572
50383W        W20983  36.968  40.775  13.844
50384W        W20984  37.281  33.865   3.223
50385W        W20985  12.534  19.726  14.246
50386W        W20986   7.739  26.517   3.355
50387W        W20987  11.674  16.027   0.397
50388W        W20988  12.063  27.108   4.173
50389W        W20989   0.269  29.018  11.920
50390W        W20990  35.144   1.399   4.618
50391W        W20991   6.785  19.894  12.459
50392W        W20992  15.963  24.471  11.881
50393W        W20993  44.963  24.952  13.052
50394W        W20994  27.728  30.619   1.676
50395W        W20995  27.958  15.503  12.512
50396W        W20996  15.644  16.785   0.697
50397W        W20997  42.515  20.122   4.274
50398W        W20998   5.871  35.945   1.838
50399W        W20999  22.702  11.828  14.769
50400W        W21000  44.755  10.625   3.732
50401W        W21001   7.654  15.545   5.170
50402W        W21002   4.836  11.267   0.965
50403W        W21003  19.166   8.178   3.173
50404W        W21004  38.128  19.261  13.773
50405W        W21005   2.700  32.791   3.649
50406W        W21006  14.104  12.778  13.127
50407W        W21007   4.227  39.959   0.454
50408W        W21008  27.620  22.151   4.681
50409W        W21009  36.118   7.227   2.172
50410W        W21010  11.721  43.457   2.907
50411W        W21011  30.051  37.045   4.723
50412W        W21012  31.854  19.292   4.084
50413W        W21013  33.902  13.028   1.590
50414W        W21014   9.666   5.619   0.357
50415W        W21015  35.134   0.158  13.507
50416W        W21016  33.955  16.143  13.896
50417W        W21017  21.629  15.863  10.616
50418W        W21018   8.126  24.380  11.454
50419W        W21019  25.682  41.579  11.063
50420W        W21020  40.024  42.994   4.181
50421W        W21021  26.015  10.219  10.482
50422W        W21022  18.759  13.102   4.415
50423W        W21023   8.548  22.701  12.498
50424W        W21024  23.427  22.721  12.965
50425W        W21025  14.069   0.015   4.119
50426W        W21026  27.040  14.378  13.728
50427W        W21027  37.909  42.930   0.334
50428W        W21028  40.734  36.576  11.640
50429W        W21029  35.997   3.917   2.662
50430W        W21030   1.660  13.228  14.776
50431W        W21031  40.601   4.469  12.458
50432W        W21032  39.813  27.966  12.329
50433W        W21033   3.811  30.907   1.319
50434W        W21034  21.025   2.228  14.289
50435W        W21035  37.607   5.189   0.433
50436W        W21036   2.428  18.564  12.443
50437W        W21037   0.036  24.499   3.771
50438W        W21038  37.980   7.328  12.294
50439W        W21039  15.222  30.774  11.954
50440W        W21040  19.881  19.082   1.424
50441W        W21041   1.437  43.845  13.371
50442W        W21042   5.494  21.713  12.916
50443W        W21043  23.510  27.693  11.188
50444W        W21044  23.598  39.006  11.496
50445W        W21045  41.895  20.237  12.576
50446W        W21046  40.657  33.125   2.213
50447W        W21047  25.229  10.858  14.869
50448W        W21048  16.529  32.335  11.211
50449W        W21049   0.284  18.803  11.531
50450W        W21050  32.300  36.843  12.466
50451W        W21051  11.739  13.611  14.490
50452W        W21052   9.266  16.667   4.146
50453W        W21053   6.837  24.683   4.565
50454W        W21054  17.256   3.168   4.456
50455W        W21055   9.273  40.091   1.307
50456W        W21056  10.846  17.778   1.682
50457W        W21057   2.225   8.376   3.209
50458W        W21058  16.980  16.589   4.423
50459W        W21059  16.654  21.550  11.563
50460W        W21060  42.871   1.585   4.665
50461W        W21061  16.769  35.861  13.688
50462W        W21062  16.621  39.774   1.481
50463W        W21063  12.352   7.115  11.440
50464W        W21064   5.803   6.919   4.083
50465W        W21065  11.489  36.487   1.792
50466W        W21066  10.184  20.005  13.962
50467W        W21067   9.069  18.169   4.195
50468W        W21068   6.259   2.354  10.703
50469W        W21069   6.782   1.779  11.293
50470W        W21070  34.396  33.354   3.991
50471W        W21071  23.243  31.387  12.907
50472W        W21072   6.763   6.219  13.656
50473W        W21073   8.785  22.050   1.465
50474W        W21074   1.442  29.549  10.383
50475W        W21075  39.473  27.268   2.714
50476W        W21076  35.057  26.112  10.797
50477W        W21077  42.026   0.842  13.340
50478W        W21078  31.328  25.988   0.908
50479W        W21079  22.657  14.381  11.368
50480W        W21080  26.619  26.873  12.145
50481W        W21081  23.089   7.912   1.658
50482W        W21082   0.720  38.342   4.169
50483W        W21083  34.511   6.724  13.394
50484W        W21084  44.848  24.811   3.401
50485W        W21085   8.607  44.993  13.443
50486W        W21086  34.859  33.617   4.061
50487W        W21087  27.193  41.848  10.638
50488W        W21088  18.568  39.535   4.754
50489W        W21089  31.479  36.680  12.970
50490W        W21090  33.920  37.092   0.265
50491W        W21091  41.704  39.914   0.389
50492W        W21092  44.039   0.968   3.800
50493W        W21093  15.259  25.987  11.695
50494W        W21094   7.208  28.712   1.402
50495W        W21095  12.013   1.599   3.434
50496W        W21096   0.557  32.039   2.752
50497W        W21097  38.808  18.548  12.519
50498W        W21098   5.823  31.387   2.916
50499W        W21099  27.244  36.032  12.142
50500W        W21100  43.832  43.761  11.068
50501W        W21101  39.882  39.353   2.954
50502W        W21102  42.381  33.681   0.812
50503W        W21103  21.461  17.184  11.799
50504W        W21104  10.609  18.210   1.477
50505W        W21105  26.456  40.759   0.529
50506W        W21106  37.010  28.431  11.966
50507W        W21107  37.287  20.738   0.537
50508W        W21108  19.530  44.871   3.588
50509W        W21109   0.384  35.480   4.547
50510W        W21110  15.815   1.689  13.718
50511W        W21111  17.109  35.049   0.157
50512W        W21112   0.033  15.138  10.758
50513W        W21113   4.058  35.169   5.380
50514W        W21114  31.763  13.598   1.696
50515W        W21115  17.234   7.733   4.619
50516W        W21116  27.628  18.129  12.905
50517W        W21117  13.103  22.209   2.350
50518W        W21118  31.914  15.346   3.807
50519W        W21119  11.179  23.052   1.176
50520W        W21120  39.859  24.132   1.610
50521W        W21121  11.608   5.038   4.071
50522W        W21122   6.541  10.704   1.014
50523W        W21123  35.370  21.487   3.654
50524W        W21124  16.683  44.210   1.436
50525W        W21125   0.024  29.228  13.552
50526W        W21126  31.020   2.890  12.740
50527W        W21127  34.321   4.314  10.630
50528W        W21128  37.121  33.562   3.618
50529W        W21129  35.121  25.763  13.281
50530W        W21130  39.180  15.575   0.926
50531W        W21131  16.359  38.286   3.155
50532W        W21132  35.441  30.453   3.943
50533W        W21133  25.893  27.426   1.773
50534W        W21134  10.716  29.718   0.909
50535W        W21135  22.497  25.932   2.562
50536W        W21136  15.551  15.818   2.789
50537W        W21137  44.438  14.624  13.861
50538W        W21138  20.674  29.105   4.554
50539W        W21139  12.535  24.000  11.204
50540W        W21140  44.307   8.202  14.400
50541W        W21141  27.085  26.044   0.554
50542W        W21142  43.512   3.672  11.527
50543W        W21143   5.826  41.125   1.240
50544W        W21144  30.554  30.381  10.883
50545W        W21145  32.141  12.232   1.656
50546W        W21146  39.574  28.545  14.039
50547W        W21147  35.611  31.033   1.692
50548W        W21148  13.171  10.482  14.374
50549W        W21149   3.457   4.872  13.808
50550W        W21150  15.514  31.024  10.688
50551W        W21151  31.019  13.511  11.548
50552W        W21152  33.064  37.737   4.201
50553W        W21153  13.164   1.509   4.748
50554W        W21154  43.825  20.764  11.585
50555W        W21155   0.740  34.512  11.126
50556W        W21156  28.310  31.663  10.672
50557W        W21157  40.620  31.109   2.272
50558W        W21158  13.411  16.846   0.468
50559W        W21159  34.370  33.461  11.906
50560W        W21160  24.632   2.627   1.814
50561W        W21161  36.425  39.319  11.628
50562W        W21162  32.528   0.495  14.821
50563W        W21163  19.122  23.682  13.021
50564W        W21164  14.287   2.858   2.655
50565W        W21165  21.027  28.241  11.715
50566W        W21166  44.536  33.584  11.609
50567W        W21167  27.066  33.143  12.889
50568W        W21168   3.856  17.031  14.653
50569W        W21169  17.299  25.059  13.987
50570W        W21170  34.518  41.307   1.881
50571W        W21171   6.474  14.870  13.287
50572W        W21172  19.157   1.884   2.327
50573W        W21173  15.288  38.739   4.269
50574W        W21174  44.239  27.097  14.035
50575W        W21175   8.954  41.927   2.076
50576W        W21176  19.275   2.546   0.890
50577W        W21177  37.618  17.317   0.407
50578W        W21178  43.506  34.373  12.216
50579W        W21179  44.020  13.305   0.861
50580W        W21180   4.709  40.709   4.060
50581W        W21181   2.408  33.987   1.389
50582W        W21182  10.715  14.815   1.816
50583W        W21183  17.815  27.766  14.039
50584W        W21184  15.061  15.997   2.834
50585W        W21185  36.914   4.189  14.004
50586W        W21186   1.765  12.458   0.928
50587W        W21187   6.264  23.514   2.846
50588W        W21188  42.863  25.673   5.209
50589W        W21189   1.603  23.334  11.135
50590W        W21190   1.190  10.155  12.030
50591W        W21191  10.658  19.622  14.934
50592W        W21192  38.320  10.761   4.744
50593W        W21193  25.227  41.850  13.063
50594W        W21194  24.396   9.184   0.592
50595W        W21195  29.673  33.766  13.475
50596W        W21196  19.599  19.852  10.899
50597W        W21197  32.140   0.003  13.513
50598W        W21198  24.144  25.626   2.247
50599W        W21199   3.294   7.668  11.713
50600W        W21200  12.123   6.874   4.214
50601W        W21201  11.235  36.084  12.954
50602W        W21202  14.694  19.583  14.446
50603W        W21203   8.394   0.839  10.592
50604W        W21204  37.600  43.851   0.283
50605W        W21205  35.091  21.974  12.198
50606W        W21206  34.021  22.487   0.489
50607W        W21207  38.058  17.601  13.644
50608W        W21208  30.402  37.061   2.793
50609W        W21209  21.472  43.312  13.538
50610W        W21210   8.509  15.313  11.553
50611W        W21211   3.180   8.741  12.966
50612W        W21212   5.778  36.815  11.032
50613W        W21213  22.576  23.797   2.570
50614W        W21214  42.990  28.458  13.931
50615W        W21215  16.586  30.686   3.397
50616W        W21216  10.741  41.518   3.720
50617W        W21217  33.601  32.482  11.088
50618W        W21218   8.727   1.532   0.299
50619W        W21219  37.515  42.555   1.344
50620W        W21220   8.892  43.896  12.909
50621W        W21221  17.963  18.759  10.615
50622W        W21222   1.131  21.506  14.794
50623W        W21223  44.456   1.483   0.683
50624W        W21224  27.403   7.219   3.781
50625W        W21225  14.515  42.915  14.000
50626W        W21226  40.539   6.207   1.698
50627W        W21227   4.834  42.917   3.681
50628W        W21228   0.907  19.169  12.074
50629W        W21229  34.934  35.825  14.554
50630W        W21230  21.771  26.097  10.938
50631W        W21231   6.095  23.147  12.423
50632W        W21232  22.601   8.392  11.571
50633W        W21233  42.945  11.665  10.794
50634W        W21234  41.286  17.069   1.188
50635W        W21235  34.525  21.737   3.218
50636W        W21236  21.587  33.445   2.220
50637W        W21237  43.516  12.397  12.068
50638W        W21238  32.580  42.008   2.123
50639W        W21239  16.544  20.192  14.435
50640W        W21240  37.138  17.827  12.053
50641W        W21241  41.426  14.507  11.582
50642W        W21242   5.311  40.323  13.867
50643W        W21243  16.261  36.092  10.624
50644W        W21244  33.123  28.423   3.742
50645W        W21245  27.918  36.707  14.474
50646W        W21246  31.114   7.216   1.298
50647W        W21247  31.348   2.414  11.910
50648W        W21248  26.354  30.676   4.306
50649W        W21249  13.551  37.389  13.878
50650W        W21250  13.536  33.859   3.338
50651W        W21251   7.976  24.696   3.196
50652W        W21252  39.481  12.575  12.921
50653W        W21253  31.941   7.644   4.991
50654W        W21254  25.643  19.543  14.123
50655W        W21255  20.068   5.425  11.259
50656W        W21256   9.363  17.996   4.599
50657W        W21257  44.721  12.412  14.843
50658W        W21258  42.990  28.498   3.157
50659W        W21259  29.131   0.476  10.830
50660W        W21260  26.863  32.596  13.567
50661W        W21261  36.892  29.509   1.227
50662W        W21262   5.607  32.339  12.028
50663W        W21263  12.049   2.238   5.074
50664W        W21264  32.418  25.186  13.850
50665W        W21265  16.148  14.868   2.364
50666W        W21266  28.890  33.048   0.242
50667W        W21267   5.743  33.297  12.103
50668W        W21268  27.223  15.570  10.360
50669W        W21269  38.421  36.106  11.136
50670W        W21270  26.194   6.979   2.870
50671W        W21271  35.562  39.545   1.828
50672W        W21272  29.259  28.447  14.499
50673W        W21273   1.527  42.381   3.360
50674W        W21274   2.402  19.437   2.003
50675W        W21275   5.923  23.908  11.218
50676W        W21276  12.952   7.989  12.347
50677W        W21277   3.810  27.712  12.859
50678W        W21278  21.486  40.470  12.036
50679W        W21279  26.628  21.527  13.552
50680W        W21280  11.585  32.958  14.844
50681W        W21281  15.247  33.514  12.002
50682W        W21282  19.609   4.872   4.553
50683W        W21283  15.873  29.693  12.173
50684W        W21284   8.250   5.258  14.074
50685W        W21285  36.332  25.908   3.310
50686W        W21286  21.927   6.940  11.155
50687W        W21287  14.797  14.802   3.697
50688W        W21288   3.123  19.078   4.321
50689W        W21289  40.958   8.281   4.675
50690W        W21290  36.466  13.589  13.269
50691W        W21291  39.090  39.587   1.393
50692W        W21292   6.199  37.561   3.766
50693W        W21293   2.190   0.145   1.339
50694W        W21294  32.832  11.822  13.496
50695W        W21295  22.649  39.227  13.231
50696W        W21296  38.838  10.139   3.227
50697W        W21297  16.990  38.263   3.915
50698W        W21298  29.891  36.982   2.765
50699W        W21299  41.947  33.152  12.608
50700W        W21300  42.465  28.449   4.604
50701W        W21301  37.393   0.334  13.330
50702W        W21302  25.670  27.182  14.171
50703W        W21303  26.434  41.275  14.764
50704W        W21304  14.721   3.613   4.764
50705W        W21305  33.873  13.762  12.423
50706W        W21306  32.018   1.812   1.378
50707W        W21307  31.243  23.175  10.860
50708W        W21308  31.986  42.049  14.463
50709W        W21309  21.164  15.109   4.597
50710W        W21310  13.279   2.659  12.979
50711W        W21311   3.202  43.823  10.758
50712W        W21312  15.314  40.618   0.755
50713W        W21313  37.816  38.874   3.273
50714W        W21314  17.012  33.673  13.214
50715W        W21315  24.218  33.141   4.518
50716W        W21316  14.975   4.369  10.584
50717W        W21317  33.929  41.440   2.642
50718W        W21318  24.589  40.477   2.372
50719W        W21319  41.982  20.801  13.808
50720W        W21320  14.477   8.119   0.661
50721W        W21321   6.854  15.122   2.188
50722W        W21322  44.823  38.031  10.456
50723W        W21323  30.023   2.266   4.769
50724W        W21324  30.449  21.604  11.798
50725W        W21325  10.118  29.070   3.349
50726W        W21326  34.343   9.564   2.317
50727W        W21327  32.083  30.093   2.146
50728W        W21328  30.485  33.680  14.920
50729W        W21329  11.074  39.008  14.882
50730W        W21330  10.654  19.444  12.290
50731W        W21331  17.801  16.522  13.532
50732W        W21332  41.755   9.540  11.098
50733W        W21333  28.389  37.898  11.512
50734W        W21334  26.161   0.275  14.530
50735W        W21335  39.141  26.919  11.203
50736W        W21336  42.991  34.786  11.133
50737W        W21337  18.514  27.547  11.198
50738W        W21338  40.335   6.366  14.865
50739W        W21339  12.366  20.432  13.991
50740W        W21340   3.352   2.857   2.943
50741W        W21341  24.185  20.976  14.836
50742W        W21342  39.941  43.413   2.984
50743W        W21343   3.738   2.758   2.645
50744W        W21344  25.623  19.477   0.477
50745W        W21345   4.314  29.607   2.929
50746W        W21346  40.010   8.307   4.608
50747W        W21347  41.952   9.282   1.243
50748W        W21348  31.056  11.371   3.175
50749W        W21349  17.775  41.966   4.063
50750W        W21350  24.700   7.908  14.136
50751W        W21351  23.548  40.158  14.383
50752W        W21352   7.241  24.457   2.567
50753W        W21353  25.740   5.643   1.673
50754W        W21354  23.950  35.886  13.359
50755W        W21355   9.601   6.269  13.293
50756W        W21356  42.782  44.294  10.804
50757W        W21357   2.685  37.007   1.158
50758W        W21358  10.195  43.802  10.900
50759W        W21359  40.798   8.669  12.595
50760W        W21360  19.868  32.492  12.848
50761W        W21361  42.212  38.399   3.766
50762W        W21362   2.919   6.417  11.729
50763W        W21363   4.797   1.299  13.837
50764W        W21364  22.063   8.576  13.017
50765W        W21365  26.088   5.894   0.295
50766W        W21366  16.367  43.956   0.034
50767W        W21367   0.195  17.359   2.831
50768W        W21368  39.698  31.120  12.570
50769W        W21369   5.146  19.060  11.961
50770W        W21370  14.468  16.077  13.952
50771W        W21371   1.506  21.647  10.565
50772W        W21372  21.474  37.650   0.474
50773W        W21373  23.030  18.519   4.043
50774W        W21374  37.480  24.751  14.781
50775W        W21375  33.418  41.445  14.395
50776W        W21376  36.560  27.963   3.824
50777W        W21377  38.380  26.024   1.124
50778W        W21378  23.425  14.367   3.545
50779W        W21379  18.727  33.001   0.205
50780W        W21380   6.732  10.665  12.891
50781W        W21381  36.900  16.545   0.300
50782W        W21382  21.207  40.470  11.599
50783W        W21383  44.385  19.326  12.392
50784W        W21384  11.026   9.366   3.136
50785W        W21385  35.508  36.647   1.747
50786W        W21386   2.770  29.795  12.515
50787W        W21387   4.779  42.877   4.206
50788W        W21388  19.605  40.103   3.801
50789W        W21389  21.064  44.865   2.592
50790W        W21390  15.330  12.044   9.704
50791W        W21391  25.635  40.527  11.098
50792W        W21392  34.334  12.542  11.994
50793W        W21393  32.849  23.530   1.183
50794W        W21394  35.473  36.917   3.353
50795W        W21395  18.767   7.382   3.675
50796W        W21396  35.150  12.138   1.779
50797W        W21397  44.401  11.645   4.393
50798W        W21398  31.413  24.438  14.752
50799W        W21399  14.764   2.043  11.938
50800W        W21400   4.036   7.445   1.196
50801W        W21401  21.663  35.918   2.815
50802W        W21402  42.852  20.504  12.364
50803W        W21403  13.489  16.331  14.287
50804W        W21404  27.481  21.173   0.526
50805W        W21405  17.225   2.251  12.536
50806W        W21406  41.474  16.900  11.181
50807W        W21407  18.975   8.712   1.421
50808W        W21408   5.939  23.193   3.224
50809W        W21409  39.929  12.936  12.422
50810W        W21410  43.617   8.696   5.035
50811W        W21411  20.754  44.381  11.991
50812W        W21412  36.859  42.668  14.446
50813W        W21413  22.337  28.062  13.482
50814W        W21414  10.322  39.008   3.287
50815W        W21415   0.268  18.704   1.920
50816W        W21416  37.351  20.261  12.800
50817W        W21417  16.300  39.903  14.407
50818W        W21418  14.900  22.809   1.365
50819W        W21419   3.378  10.025   3.387
50820W        W21420  25.129  43.315   4.625
50821W        W21421  39.718  18.561  13.808
50822W        W21422  31.534  18.128   3.783
50823W        W21423  30.987  17.089  13.552
50824W        W21424  35.955  30.018   1.389
50825W        W21425  36.194  14.219  12.557
50826W        W21426   5.969  42.953   3.639
50827W        W21427  14.686  12.161   3.636
50828W        W21428  11.551  10.632   1.643
50829W        W21429  11.652  43.282  13.843
50830W        W21430  29.825  19.093   0.451
50831W        W21431  31.300   1.472  11.132
50832W        W21432   1.886  38.017   3.224
50833W        W21433  24.246  14.909  10.743
50834W        W21434   6.629  13.039  14.743
50835W        W21435  27.263   0.821   2.846
50836W        W21436  40.436  32.073  12.158
50837W        W21437  29.104  16.421   1.259
50838W        W21438  40.880   2.799  10.261
50839W        W21439   2.854   3.264   1.134
50840W        W21440  32.797  11.297  12.238
50841W        W21441   5.484   0.906   4.556
50842W        W21442   8.007  44.017   3.680
50843W        W21443  18.046  15.079  12.486
50844W        W21444  21.748  37.586   0.000
50845W        W21445  44.052  36.360   1.388
50846W        W21446  27.922   6.795   4.348
50847W        W21447  13.372  26.568  13.980
50848W        W21448  30.593  22.301   2.877
50849W        W21449  35.567  38.380  14.496
50850W        W21450  35.843  10.464   0.636
50851W        W21451   7.684  38.614  13.561
50852W        W21452   7.605   4.876  11.569
50853W        W21453  15.673  19.308   2.372
50854W        W21454   0.851  34.347   2.324
50855W        W21455  42.834  30.853  14.922
50856W        W21456  23.232  19.253   4.547
50857W        W21457   7.227  39.467  14.843
50858W        W21458  42.770  17.791   0.383
50859W        W21459  34.842  26.539  14.785
50860W        W21460  28.541  11.932  14.756
50861W        W21461  44.992  17.582   3.265
50862W        W21462   9.693  39.340   1.553
50863W        W21463  14.685   7.225  12.267
50864W        W21464   5.786  12.975  13.304
50865W        W21465  38.123  22.525   4.966
50866W        W21466  33.394  21.678  10.420
50867W        W21467   4.177  36.626  10.440
50868W        W21468  16.153  41.408  11.079
50869W        W21469   8.746   9.186   0.468
50870W        W21470   0.245  16.468  14.912
50871W        W21471  28.608  13.127   1.301
50872W        W21472  15.635  44.335   4.526
50873W        W21473  24.237  32.669  11.956
50874W        W21474  11.525   9.658  10.707
50875W        W21475   4.522  12.683  11.402
50876W        W21476  16.134   3.127  10.301
50877W        W21477   2.861  42.810   3.003
50878W        W21478  34.445   4.923   0.944
50879W        W21479  29.677  37.438  13.917
50880W        W21480   0.394  31.008   4.126
50881W        W21481  29.018  34.561   2.771
50882W        W21482  26.382  17.109   2.426
50883W        W21483   9.368  12.313  10.341
50884W        W21484  33.378  20.504   4.188
50885W        W21485  37.132  31.656  14.864
50886W        W21486  21.522  31.525   0.329
50887W        W21487  40.113  18.252   0.048
50888W        W21488   1.744  13.633   2.770
50889W        W21489  33.441  16.973  12.395
50890W        W21490  20.070  29.473   2.277
50891W        W21491  27.946  33.127   1.358
50892W        W21492  24.583  35.965  14.438
50893W        W21493   1.433  12.690  12.020
50894W        W21494  44.008  39.343  10.685
50895W        W21495  32.462  19.124   3.548
50896W        W21496  42.501   2.614   0.178
50897W        W21497  19.789   7.818   5.080
50898W        W21498   3.720  42.708  12.649
50899W        W21499  34.736  38.414   1.743
50900W        W21500  39.822  33.282  12.386
50901W        W21501   4.062   6.883   2.421
50902W        W21502  36.924  41.890   2.232
50903W        W21503   7.399  10.748   4.234
50904W        W21504  30.884   3.766   3.227
50905W        W21505   1.412  33.353  13.376
50906W        W21506  11.495   5.382   1.896
50907W        W21507  38.262   6.804  13.366
50908W        W21508  42.308   0.182  10.988
50909W        W21509  41.604  15.621   4.094
50910W        W21510  22.208  15.171  11.999
50911W        W21511  20.109  30.133  13.564
50912W        W21512  29.617   2.746  10.955
50913W        W21513  22.640  11.067  14.297
50914W        W21514   0.351  41.965   4.022
50915W        W21515   4.755   6.387   3.611
50916W        W21516  37.869  29.239   4.519
50917W        W21517   5.663  12.900  11.970
50918W        W21518  42.354   1.545  11.636
50919W        W21519  17.357  10.067   9.992
50920W        W21520   1.616  19.743   3.713
50921W        W21521  10.661   8.330   1.457
50922W        W21522  18.585   6.140   4.688
50923W        W21523  43.023  22.918  11.118
50924W        W21524   4.269  32.444  14.927
50925W        W21525  34.446  42.471  14.621
50926W        W21526  24.118  36.827  14.088
50927W        W21527  40.081  36.205  13.773
50928W        W21528  28.497  11.822  13.521
50929W        W21529  27.992   2.514  12.077
50930W        W21530  15.882  41.168   3.380
50931W        W21531  23.417  30.551  14.885
50932W        W21532   8.736  28.864  10.927
50933W        W21533  24.906  26.577  12.577
50934W        W21534  21.675  20.598   1.660
50935W        W21535  44.382  29.703   0.320
50936W        W21536  19.426  13.122  12.936
50937W        W21537  34.329  38.349  11.887
50938W        W21538  41.325  34.843   2.799
50939W        W21539  20.744   4.343   4.365
50940W        W21540  17.517  16.185   3.650
50941W        W21541  21.662  42.450  11.445
50942W        W21542  28.166  30.597   3.908
50943W        W21543  43.949  23.552   4.180
50944W        W21544  42.831  43.558  14.678
50945W        W21545  11.731   5.290   2.823
50946W        W21546  12.435   2.158   1.855
50947W        W21547   2.439  38.620  11.076
50948W        W21548  26.036  24.741  12.297
50949W        W21549   0.010   4.984  11.248
50950W        W21550  33.688  16.050   4.195
50951W        W21551  12.640  28.756   1.924
50952W        W21552   8.826  36.301   1.363
50953W        W21553  39.126  36.468   0.998
50954W        W21554  10.649  23.508   2.392
50955W        W21555   2.342  34.591  11.968
50956W        W21556   7.350  29.364  10.866
50957W        W21557  38.254  43.881  14.181
50958W        W21558   3.693  25.503  14.420
50959W        W21559  12.940   3.274   3.809
50960W        W21560   5.342  15.595  12.494
50961W        W21561  34.555  29.480  13.560
50962W        W21562  24.327  13.248  11.769
50963W        W21563  36.429  31.005  12.582
50964W        W21564  23.711  36.337  13.348
50965W        W21565  21.492  21.011  11.160
50966W        W21566  36.871  35.549  11.146
50967W        W21567  21.600  26.609  13.422
50968W        W21568  12.063  33.958  11.279
50969W        W21569  38.166  35.678   9.916
50970W        W21570   0.368   3.818  11.910
50971W        W21571   1.781  35.924   2.367
50972W        W21572  44.048  17.152   4.729
50973W        W21573  31.456  17.886   1.697
50974W        W21574  11.810  41.358  14.968
50975W        W21575  24.245   8.944   0.142
50976W        W21576  14.713  37.310   2.743
50977W        W21577  17.655  43.671   3.644
50978W        W21578  32.033  42.059  13.036
50979W        W21579  44.996  23.564   1.660
50980W        W21580  37.840  18.555  13.922
50981W        W21581  19.908  41.063  14.296
50982W        W21582  34.673  25.761   3.911
50983W        W21583  29.588   2.649  13.029
50984W        W21584  19.292  19.978  14.891
50985W        W21585  24.364   8.675  10.725
50986W        W21586  33.550  15.045   4.528
50987W        W21587   9.093  22.434   2.842
50988W        W21588  28.518  12.444  14.719
50989W        W21589  23.700  32.329   4.212
50990W        W21590  42.409   4.455  11.668
50991W        W21591   4.828   4.462   2.253
50992W        W21592  44.313   1.028  13.883
50993W        W21593  13.807  30.236  12.773
50994W        W21594  30.916  31.954   2.787
50995W        W21595  16.346   6.763  10.563
50996W        W21596   6.805  16.138  14.009
50997W        W21597  27.184  12.677   1.843
50998W        W21598   3.808  17.840   1.966
50999W        W21599  27.185  41.184   2.813
51000W        W21600  28.556  32.842   0.745
51001W        W21601  40.030  17.925   2.359
51002W        W21602  43.274  18.114  11.506
51003W        W21603  38.127  22.912  14.892
51004W        W21604  24.573  27.057   4.016
51005W        W21605  29.205  10.812  13.047
51006W        W21606  18.463   2.390  12.708
51007W        W21607  11.347   4.906   2.174
51008W        W21608   6.525  26.561  13.371
51009W        W21609  32.350  34.423   2.712
51010W        W21610  33.027  43.548   1.563
51011W        W21611  14.091  21.299  11.916
51012W        W21612  42.033  24.648   2.766
51013W        W21613   9.742  10.614   2.827
51014W        W21614  28.640  44.196   0.275
51015W        W21615  30.565  12.193  14.241
51016W        W21616  22.543   6.669   5.216
51017W        W21617  21.995  44.759  14.475
51018W        W21618   0.968  29.431  14.771
51019W        W21619   7.114  19.936   0.671
51020W        W21620  16.536   3.360   2.295
51021W        W21621  36.874  32.544  12.928
51022W        W21622  37.912  38.943   3.838
51023W        W21623  29.808  14.911  13.952
51024W        W21624  30.757  10.142   0.761
51025W        W21625  38.272  28.968   4.284
51026W        W21626  10.801  18.294   4.556
51027W        W21627  42.783  27.145  11.524
51028W        W21628  37.182  44.471  11.148
51029W        W21629   2.637  40.638  10.797
51030W        W21630  35.123   7.168   1.347
51031W        W21631  12.449  27.071   1.943
51032W        W21632   7.848  13.724   1.711
51033W        W21633  39.060  29.150   4.762
51034W        W21634  18.158  16.209  12.920
51035W        W21635  43.333  17.586   4.649
51036W        W21636   9.774   2.868  13.680
51037W        W21637  44.005  36.365  12.855
51038W        W21638  19.237  28.274  12.473
51039W        W21639   5.303   7.875  11.528
51040W        W21640  31.688  32.909  13.483
51041W        W21641  22.060  28.443   0.322
51042W        W21642   3.326  26.863  14.250
51043W        W21643  12.726  31.569   5.159
51044W        W21644  40.019  35.417  14.952
51045W        W21645  11.669   6.675  13.552
51046W        W21646  10.385  26.716   0.794
51047W        W21647  15.651  20.775  14.465
51048W        W21648   9.694   7.703  14.486
51049W        W21649  36.470   9.730   3.224
51050W        W21650  35.628  24.486  12.919
51051W        W21651  18.665  17.228  10.744
51052W        W21652   0.971  26.936   2.422
51053W        W21653  33.380  32.225   3.620
51054W        W21654  36.263  34.183  11.438
51055W        W21655   9.530  42.989   4.648
51056W        W21656  29.640   4.238  10.627
51057W        W21657  21.347  24.550   1.712
51058W        W21658  20.328  14.721   1.164
51059W        W21659  29.215   2.298  13.054
51060W        W21660  32.926  14.327  10.984
51061W        W21661  41.082   6.858   3.746
51062W        W21662   9.693  11.232   4.023
51063W        W21663  17.310  35.714  12.112
51064W        W21664  27.982  44.416   4.212
51065W        W21665  40.713   2.249  11.146
51066W        W21666  38.492  30.552  14.882
51067W        W21667  18.328  21.336  13.485
51068W        W21668  26.511  19.370   4.698
51069W        W21669  27.384  14.668  13.441
51070W        W21670  23.660  44.948  10.094
51071W        W21671  11.216  24.943   2.397
51072W        W21672   6.222  32.071   4.587
51073W        W21673  21.044  27.133   2.326
51074W        W21674  19.374   2.747  12.425
51075W        W21675  40.897  44.808   0.483
51076W        W21676   3.672  34.802   5.454
51077W        W21677  32.699  19.319   4.427
51078W        W21678  27.598   9.684  11.826
51079W        W21679  22.567  24.122   3.412
51080W        W21680  28.110  19.196   0.981
51081W        W21681  37.542  14.643  11.445
51082W        W21682  44.112  40.794  12.041
51083W        W21683  18.509  19.086   1.792
51084W        W21684  29.524  38.604  11.416
51085W        W21685  22.716   4.630  13.449
51086W        W21686   7.060  28.911   1.883
51087W        W21687  28.907  39.550   1.496
51088W        W21688  26.246   0.426   4.931
51089W        W21689  43.034  11.420   1.783
51090W        W21690   1.473  29.679   4.791
51091W        W21691  28.453  11.421   0.865
51092W        W21692  21.117  30.969  11.159
51093W        W21693  20.215  29.558   1.403
51094W        W21694  24.034  43.384  10.627
51095W        W21695  42.021  42.767  11.063
51096W        W21696   5.870  30.204  11.046
51097W        W21697  14.879  40.299   2.827
51098W        W21698  12.062  18.167  11.213
51099W        W21699  34.793  17.549  14.298
51100W        W21700  17.047   0.002  14.821
51101W        W21701   0.988  36.360  11.304
51102W        W21702  18.449   7.229   1.845
51103W        W21703  12.431  38.033  14.444
51104W        W21704  25.730   2.410  12.892
51105W        W21705  20.546  30.074  14.746
51106W        W21706  41.425   4.326   2.259
51107W        W21707  33.098  35.452  12.611
51108W        W21708  24.543  29.109   4.196
51109W        W21709  37.591  43.547  12.803
51110W        W21710  43.829  12.395  11.508
51111W        W21711  13.099  39.434  11.722
51112W        W21712  27.388  18.876   4.420
51113W        W21713  40.864   5.933   0.582
51114W        W21714   5.612  43.558  12.000
51115W        W21715   2.505  21.987  13.417
51116W        W21716  18.876   3.814   2.156
51117W        W21717  14.052  42.856  14.225
51118W        W21718  39.209  21.258   4.060
51119W        W21719  36.375  23.224  12.846
51120W        W21720   1.943  11.082  11.550
51121W        W21721   8.764   2.907  11.372
51122W        W21722  22.698  36.811  11.571
51123W        W21723  37.765  20.196  11.579
51124W        W21724  14.560  24.233   4.698
51125W        W21725  36.425  43.312  13.862
51126W        W21726   6.388  13.731   3.126
51127W        W21727  29.995  44.230   1.258
51128W        W21728  33.070  34.623   0.487
51129W        W21729  41.504  26.112   3.087
51130W        W21730  35.449  21.297  14.471
51131W        W21731  24.808  16.565   1.361
51132W        W21732  11.829  19.845  13.433
51133W        W21733  19.730  30.948  13.195
51134W        W21734   9.655  34.019   0.219
51135W        W21735  28.612  33.671   2.885
51136W        W21736  23.189  32.314   4.130
51137W        W21737  21.454   4.362  11.809
51138W        W21738  16.113  26.053  14.009
51139W        W21739   4.454  40.967  10.939
51140W        W21740  10.795   2.872   4.589
51141W        W21741  22.758   8.476   3.447
51142W        W21742  44.679  22.582   3.428
51143W        W21743  32.036  20.035  11.198
51144W        W21744  31.049   3.260   4.556
51145W        W21745  25.594   8.767  14.220
51146W        W21746   7.451  21.068  12.008
51147W        W21747  34.410  34.955  12.206
51148W        W21748  11.132  15.072   3.730
51149W        W21749  26.574  35.026   3.692
51150W        W21750  42.479  30.417  12.285
51151W        W21751   9.294  22.555   4.605
51152W        W21752   3.504  19.117   3.373
51153W        W21753  26.715  26.364   4.615
51154W        W21754  44.745  22.572   1.999
51155W        W21755  24.805  20.566   1.207
51156W        W21756   0.577   2.001   2.243
51157W        W21757  44.557  10.458  12.881
51158W        W21758  19.222  32.124   3.398
51159W        W21759  38.582  22.148   2.907
51160W        W21760  22.057  23.482  12.825
51161W        W21761  36.048  14.708   4.302
51162W        W21762  32.131  28.594  10.760
51163W        W21763   9.767  33.419   2.044
51164W        W21764   2.378  41.191   1.183
51165W        W21765   2.301  26.526  12.410
51166W        W21766   0.530  14.706   1.832
51167W        W21767  26.254  11.094  12.362
51168W        W21768  18.719  19.038   3.123
51169W        W21769  37.328   3.668   2.725
51170W        W21770  37.226  37.063  12.219
51171W        W21771   2.726  33.834   3.591
51172W        W21772  29.520   0.394   1.954
51173W        W21773  18.296  18.785  14.122
51174W        W21774  21.158  34.085   1.627
51175W        W21775   6.295  17.492   1.379
51176W        W21776   8.885  31.965   2.906
51177W        W21777  21.770   5.342  10.914
51178W        W21778  16.648   4.716  12.997
51179W        W21779   7.167  27.252   1.228
51180W        W21780  27.113  39.738  14.092
51181W        W21781  19.851  38.072   1.290
51182W        W21782  32.059  31.355  13.902
51183W        W21783   3.532  34.421  10.593
51184W        W21784  13.167  16.182   2.171
51185W        W21785  30.266  13.883   1.322
51186W        W21786  39.754   4.914  11.439
51187W        W21787  44.838  39.690  11.779
51188W        W21788  11.899   3.614   0.756
51189W        W21789  37.593  31.672   4.836
51190W        W21790  44.541   4.979  14.938
51191W        W21791   0.751  44.789  11.138
51192W        W21792  41.477   6.897   4.232
51193W        W21793  32.721  27.465  13.969
51194W        W21794  38.810  42.925   2.411
51195W        W21795  38.118  38.154  11.015
51196W        W21796  43.491  43.957   4.060
51197W        W21797   5.276   4.209   2.359
51198W        W21798  32.667   9.777   3.684
51199W        W21799  42.575   9.653  14.311
51200W        W21800  39.292  41.597   4.305
51201W        W21801  22.202   7.197   3.267
51202W        W21802  24.153  29.211   2.351
51203W        W21803  32.409   2.342   2.117
51204W        W21804  21.436  21.635  12.359
51205W        W21805   2.871  36.491   4.727
51206W        W21806   4.229  35.553   4.086
51207W        W21807   1.351  34.628  14.310
51208W        W21808  21.052  15.954   4.147
51209W        W21809  25.122  24.518  12.408
51210W        W21810  28.033   7.808   1.686
51211W        W21811  24.022  12.015  12.697
51212W        W21812   6.711  12.840   2.783
51213W        W21813  28.778  40.262   1.790
51214W        W21814  10.707  37.198   5.010
51215W        W21815  35.416  31.146   0.216
51216W        W21816  39.130   1.697  11.380
51217W        W21817  30.649   0.777   0.763
51218W        W21818  10.877  21.702   3.690
51219W        W21819   2.209  39.960  13.466
51220W        W21820  14.901  26.571  14.069
51221W        W21821  13.436  10.729   1.821
51222W        W21822  15.634  15.089   0.887
51223W        W21823   8.839   9.060  12.638
51224W        W21824  40.409  37.593  12.827
51225W        W21825  42.965  35.290   4.171
51226W        W21826   1.343  11.623   2.675
51227W        W21827  36.350  39.597   2.849
51228W        W21828  18.342   2.424   3.253
51229W        W21829  27.565  19.892  10.737
51230W        W21830  32.332  14.424  10.296
51231W        W21831  25.462  43.443   0.904
51232W        W21832  41.112  20.316   3.772
51233W        W21833  14.536  27.458   4.148
51234W        W21834  33.536   6.087   4.480
51235W        W21835  40.481  23.101   4.202
51236W        W21836  36.346  42.920   4.078
51237W        W21837  23.582  40.576   0.342
51238W        W21838  12.291  17.063  14.766
51239W        W21839  24.651  17.223   0.655
51240W        W21840  22.623  32.466   2.120
51241W        W21841  13.085  25.637  11.221
51242W        W21842  19.563  34.603  13.787
51243W        W21843  12.423  17.154  13.932
51244W        W21844  30.882  18.577   3.938
51245W        W21845   9.699   4.291   0.809
51246W        W21846   0.447  29.862  10.620
51247W        W21847   1.181  11.640   2.157
51248W        W21848  28.037  10.259   3.692
51249W        W21849   2.991  35.293   1.605
51250W        W21850  43.363  16.685  10.268
51251W        W21851  22.448  24.590   3.253
51252W        W21852   2.950   7.282  11.157
51253W        W21853  17.968  43.217  14.946
51254W        W21854  10.970  13.639  11.032
51255W        W21855  43.396  40.101  14.613
51256W        W21856  44.795   6.181   2.680
51257W        W21857  39.830  11.890   2.930
51258W        W21858  18.000  38.486   3.284
51259W        W21859  36.375  44.892  11.808
51260W        W21860  20.594  41.010  11.199
51261W        W21861  28.641  20.600   2.938
51262W        W21862  29.079  13.272   3.724
51263W        W21863  39.903  20.822   2.202
51264W        W21864  21.736  23.184  11.391
51265W        W21865  42.373  40.412   1.171
51266W        W21866  19.954   4.871  12.595
51267W        W21867  33.114   7.989  11.711
51268W        W21868  30.011   7.915   4.825
51269W        W21869  29.496  32.939   2.463
51270W        W21870  36.890  10.801   2.174
51271W        W21871  24.889  21.855   4.877
51272W        W21872  14.130  37.377  11.969
51273W        W21873  16.049  19.460   3.610
51274W        W21874  33.460  27.491   3.842
51275W        W21875  12.097  43.745   2.660
51276W        W21876  26.509  28.888   0.803
51277W        W21877  10.321  24.752   1.774
51278W        W21878   6.301  24.791  12.067
51279W        W21879  14.883   0.290  13.411
51280W        W21880  18.234  43.329   1.503
51281W        W21881  30.524  27.543  13.928
51282W        W21882   9.845  21.105   4.162
51283W        W21883   4.075  44.380   4.579
51284W        W21884  28.427  40.609   1.899
51285W        W21885  13.335  14.160   2.934
51286W        W21886  40.382  24.361   4.942
51287W        W21887  20.709   3.245   3.674
51288W        W21888   7.793  34.884   1.741
51289W        W21889  18.086  24.486   4.134
51290W        W21890   0.222   2.718   2.687
51291W        W21891  17.996  31.069   1.890
51292W        W21892  40.026  41.884  10.794
51293W        W21893  38.137  13.165   2.334
51294W        W21894   4.307  37.633   4.611
51295W        W21895   9.366  27.877   0.831
51296W        W21896   0.580  15.112  12.482
51297W        W21897  18.188  14.665  11.152
51298W        W21898  30.089  24.919   2.753
51299W        W21899  41.035   2.852  13.372
51300W        W21900  40.183  23.702  10.726
51301W        W21901  41.037   2.329   2.311
51302W        W21902  20.736  32.417  12.543
51303W        W21903   2.226  37.850  10.801
51304W        W21904   8.777  19.696  12.602
51305W        W21905  37.902  36.526  13.128
51306W        W21906  25.131  39.592   1.638
51307W        W21907  15.113   9.600  11.588
51308W        W21908  20.660  42.091  12.329
51309W        W21909  30.924  19.173  12.360
51310W        W21910  10.939  28.176  10.325
51311W        W21911  43.834   6.912  13.133
51312W        W21912  36.923   0.480   1.419
51313W        W21913  18.154  32.617   0.362
51314W        W21914  38.891   6.387  10.586
51315W        W21915  17.265   1.621  11.120
51316W        W21916  30.660  15.252  13.956
51317W        W21917  26.479  23.563  14.351
51318W        W21918  44.236  43.915  12.471
51319W        W21919  44.929  22.231  11.607
51320W        W21920  19.530  38.353   3.340
51321W        W21921  30.650   6.623   1.751
51322W        W21922  27.973  29.264   3.896
51323W        W21923  11.311   7.905  11.395
51324W        W21924  28.553  10.923   4.468
51325W        W21925  36.873   7.826   2.362
51326W        W21926   3.167  10.243   4.342
51327W        W21927  18.562  30.702   3.356
51328W        W21928  38.875  21.436  13.867
51329W        W21929  22.020  38.347  11.716
51330W        W21930  44.413  16.835   4.501
51331W        W21931  28.432  27.173   4.693
51332W        W21932  23.540  37.570  12.969
51333W        W21933  10.644  26.035   1.746
51334W        W21934  34.193  43.603   0.439
51335W        W21935  20.567  15.603   1.699
51336W        W21936  19.523  14.239   3.811
51337W        W21937  35.370  23.795   3.618
51338W        W21938  24.278  24.057   3.103
51339W        W21939   4.751  37.513  12.927
51340W        W21940  11.487  14.118   3.542
51341W        W21941  43.914  36.591   0.260
51342W        W21942  15.028  20.609   2.591
51343W        W21943  43.109  13.764  14.412
51344W        W21944   9.672  28.200  13.504
51345W        W21945  30.868  28.284  11.822
51346W        W21946  13.241  11.812   3.904
51347W        W21947  36.531   9.838  11.191
51348W        W21948   3.244  42.822   2.312
51349W        W21949  42.402  26.952  13.933
51350W        W21950  41.981  33.317  13.082
51351W        W21951  21.095  25.289  13.935
51352W        W21952   3.352   7.168  11.508
51353W        W21953  38.601  11.824  14.894
51354W        W21954   6.873   7.589   0.345
51355W        W21955  25.040   0.645  14.573
51356W        W21956  31.171   8.413   3.357
51357W        W21957  30.646  32.717   3.745
51358W        W21958  17.402  12.444   2.267
51359W        W21959  25.731  41.477   9.772
51360W        W21960  31.682  20.539  11.642
51361W        W21961  26.125   1.442   2.867
51362W        W21962  13.680  26.019   1.140
51363W        W21963  12.146  16.249   0.343
51364W        W21964  12.293  27.055   0.272
51365W        W21965  27.934   6.793  12.883
51366W        W21966  24.095  42.700  14.603
51367W        W21967  33.882  43.726   2.774
51368W        W21968  15.423  28.635  13.965
51369W        W21969  14.184   8.861  14.476
51370W        W21970  11.915  38.831  12.108
51371W        W21971   5.028  43.486  10.623
51372W        W21972  14.689  22.800   0.902
51373W        W21973  35.059   1.300  13.951
51374W        W21974  41.483  10.675   3.404
51375W        W21975  23.557   3.377  13.526
51376W        W21976  19.807  32.344   0.870
51377W        W21977   0.574  19.535  11.050
51378W        W21978  31.714  31.471  11.543
51379W        W21979  44.675  13.693   0.278
51380W        W21980  15.032   6.971   3.738
51381W        W21981  40.077  33.622  11.568
51382W        W21982  40.736   4.918   0.376
51383W        W21983   5.122  33.728  14.459
51384W        W21984  14.683  17.108  11.772
51385W        W21985  18.642  29.669   1.016
51386W        W21986  10.129  33.313   0.405
51387W        W21987  19.863  26.456   3.548
51388W        W21988  44.515   4.780   1.878
51389W        W21989   1.468   0.350   0.877
51390W        W21990  38.432  23.232   0.909
51391W        W21991  38.500  21.705   1.217
51392W        W21992  34.395   8.154  12.723
51393W        W21993   4.896  11.204  13.578
51394W        W21994  26.654  36.161  13.877
51395W        W21995  11.880  15.945  13.008
51396W        W21996  40.306  39.985   0.340
51397W        W21997   4.183  19.626   1.164
51398W        W21998  17.092  30.496   0.842
51399W        W21999  38.923  13.189   4.279
51400W        W22000  29.182  18.247   0.471
51401W        W22001   9.937  11.809  14.879
51402W        W22002  38.906  12.233  13.333
51403W        W22003   3.218  42.772  12.826
51404W        W22004  15.806  23.724   2.879
51405W        W22005  11.688  10.231  13.397
51406W        W22006   7.230   5.878   1.804
51407W        W22007  17.060  22.256  10.626
51408W        W22008  16.862   8.190   4.546
51409W        W22009   5.282  29.901  11.506
51410W        W22010   7.949  36.344  12.082
51411W        W22011  39.296  16.056  10.993
51412W        W22012  32.009  41.575  12.150
51413W        W22013  33.524   9.463   3.395
51414W        W22014  19.704   2.733   4.101
51415W        W22015  23.015  14.542   4.810
51416W        W22016   3.058   1.885  14.014
51417W        W22017  13.306  28.841  13.899
51418W        W22018   7.839  25.747   2.215
51419W        W22019  16.415  28.506  13.783
51420W        W22020   8.894   7.732   0.102
51421W        W22021  34.364  15.630  12.430
51422W        W22022  13.372   8.142  11.452
51423W        W22023  44.274  22.479  14.832
51424W        W22024  19.944  28.045   1.008
51425W        W22025  25.414  17.464  13.428
51426W        W22026  42.729  13.188   3.219
51427W        W22027  35.785  24.249   1.323
51428W        W22028   6.128  25.641   3.947
51429W        W22029   7.391  22.994   2.898
51430W        W22030   8.424   6.821  12.898
51431W        W22031  13.073  37.591   0.891
51432W        W22032  28.010  30.198  13.738
51433W        W22033  29.077   9.909   1.430
51434W        W22034  10.289  17.716  13.327
51435W        W22035  22.527  25.935   3.741
51436W        W22036  25.110  29.301   4.810
51437W        W22037  29.102  18.653   3.859
51438W        W22038  21.283   1.444  11.990
51439W        W22039  41.481  29.837   0.413
51440W        W22040  40.288  27.153   0.412
51441W        W22041  13.220  31.439  12.321
51442W        W22042  44.539  12.633   2.962
51443W        W22043  35.069  13.340  11.760
51444W        W22044  33.101  18.141   1.469
51445W        W22045  17.539  40.349  13.944
51446W        W22046  39.967  43.852   2.668
51447W        W22047   9.653   0.524  11.713
51448W        W22048   8.860  33.108   0.827
51449W        W22049  31.362  22.870  12.536
51450W        W22050   6.881  23.462  12.117
51451W        W22051  31.006  36.383  11.206
51452W        W22052  23.021  27.540   3.122
51453W        W22053  24.916  11.351   3.665
51454W        W22054   5.301   8.627   4.204
51455W        W22055  28.113  21.241   1.926
51456W        W22056  28.398  12.280   2.360
51457W        W22057   2.237  29.044   0.324
51458W        W22058  34.845  24.985  13.032
51459W        W22059  17.041  42.326  14.415
51460W        W22060  40.041   3.800  12.088
51461W        W22061  24.590  30.039  12.428
51462W        W22062  31.324  26.154  10.483
51463W        W22063  23.670  19.565  13.912
51464W        W22064  20.334  30.850  11.537
51465W        W22065  18.649  34.073  10.012
51466W        W22066  38.525  38.272  13.012
51467W        W22067  36.439  38.619  12.302
51468W        W22068  37.403   4.236   1.877
51469W        W22069  14.249   3.381   3.542
51470W        W22070  21.198  14.092   0.868
51471W        W22071  32.079  15.571   1.638
51472W        W22072  20.974   4.635   1.320
51473W        W22073  31.005  30.972   2.663
51474W        W22074   8.707  24.546   1.731
51475W        W22075  39.629  44.634  11.220
51476W        W22076   0.533  21.123  11.915
51477W        W22077  36.291  13.229   4.073
51478W        W22078  15.593  19.158   4.547
51479W        W22079  38.587   6.257  12.197
51480W        W22080  25.560   6.172   0.448
51481W        W22081  20.604  20.163   3.385
51482W        W22082  34.064  18.821  13.988
51483W        W22083  43.800  20.279   0.416
51484W        W22084  44.175  39.495  11.140
51485W        W22085  42.297   8.987  13.915
51486W        W22086  29.863  27.747  14.547
51487W        W22087   9.620  29.296   4.221
51488W        W22088   7.583  28.116   4.972
51489W        W22089   3.227  43.690   2.562
51490W        W22090  10.017  15.522   3.249
51491W        W22091  43.954  23.985  13.348
51492W        W22092  34.610   3.789   1.579
51493W        W22093  44.104   6.200   0.678
51494W        W22094  35.247  42.211  14.489
51495W        W22095  11.658  30.554   4.622
51496W        W22096  35.561  20.560  12.493
51497W        W22097  33.321  23.309   1.327
51498W        W22098  31.613   7.650   1.824
51499W        W22099   5.171  15.361  11.433
51500W        W22100  11.682  20.940   4.140
51501W        W22101   4.177  11.432  13.314
51502W        W22102  41.362   3.228  13.287
51503W        W22103   2.944  20.244   0.772
51504W        W22104  13.639  24.411   1.871
51505W        W22105  26.486  30.939   1.510
51506W        W22106  38.114  29.958  13.532
51507W        W22107  37.231  42.075  11.138
51508W        W22108  23.741  30.996  14.711
51509W        W22109  21.965  16.252  14.315
51510W        W22110  23.074  28.356   0.035
51511W        W22111   6.042   6.671  13.154
51512W        W22112  40.464  37.376   2.120
51513W        W22113  17.100  20.356   4.223
51514W        W22114  37.093  35.915   0.820
51515W        W22115  36.633  10.720  13.907
51516W        W22116  43.994  39.015   0.555
51517W        W22117  21.022   9.687   0.919
51518W        W22118  29.711  15.762  11.992
51519W        W22119  43.952  30.097   4.896
51520W        W22120  37.545  31.846  11.512
51521W        W22121  41.936  22.159  14.072
51522W        W22122   5.292   7.751  14.315
51523W        W22123   9.828  21.312  11.998
51524W        W22124  32.466   5.351  10.755
51525W        W22125  16.252  18.861  14.877
51526W        W22126  38.103   4.883   2.735
51527W        W22127  13.660  17.145  10.979
51528W        W22128  26.445  38.538  12.103
51529W        W22129  21.329   8.116   3.691
51530W        W22130  29.090   0.461  14.282
51531W        W22131  41.668  33.840   0.339
51532W        W22132   8.149  13.846  10.658
51533W        W22133  30.510  28.462  12.134
51534W        W22134  25.157  35.920   1.327
51535W        W22135  34.594  35.440   0.977
51536W        W22136  19.510  18.206   1.214
51537W        W22137  32.725  13.921  14.931
51538W        W22138  40.800  42.345   2.984
51539W        W22139  38.261  28.710  13.236
51540W        W22140  43.232  37.490  13.323
51541W        W22141   4.101   4.165   1.939
51542W        W22142  37.492  32.132  11.963
51543W        W22143  22.204  33.153  13.955
51544W        W22144   6.141   9.693  10.663
51545W        W22145  40.492   8.175  10.746
51546W        W22146  39.289  32.009   1.332
51547W        W22147  17.251  24.203   0.286
51548W        W22148  36.859  19.232  11.902
51549W        W22149  44.830  23.791  12.289
51550W        W22150  43.493  39.687   3.535
51551W        W22151  42.924  26.542  13.309
51552W        W22152   0.356  18.404   3.916
51553W        W22153  29.913  24.822  11.124
51554W        W22154  28.065  28.949   2.741
51555W        W22155   5.776  37.962   0.453
51556W        W22156   7.178  35.481   4.205
51557W        W22157  42.014  16.301   2.322
51558W        W22158  15.230  34.436  13.356
51559W        W22159  31.583   3.843   3.774
51560W        W22160  39.319  13.365   0.752
51561W        W22161  23.977  17.580   3.420
51562W        W22162  26.193  12.756   0.637
51563W        W22163   2.889   2.201  11.856
51564W        W22164  17.631  19.559  10.706
51565W        W22165  41.212  35.556   0.819
51566W        W22166  39.652  16.099  10.622
51567W        W22167  39.520  20.077   2.113
51568W        W22168  38.528  41.364   4.569
51569W        W22169  37.487   6.367  10.421
51570W        W22170  39.401   6.193   1.672
51571W        W22171  31.372  23.928  14.890
51572W        W22172   9.303  29.267  12.182
51573W        W22173  28.494  16.723  10.640
51574W        W22174  23.455  25.998   1.920
51575W        W22175  14.099  23.110   3.090
51576W        W22176  27.071  29.644   4.615
51577W        W22177  11.160  11.803   4.607
51578W        W22178  15.257  40.282  13.434
51579W        W22179  19.119   2.971   3.135
51580W        W22180   4.780  37.641   0.435
51581W        W22181  42.927  37.411  14.965
51582W        W22182   3.171  30.128   2.957
51583W        W22183  20.981  16.222   1.457
51584W        W22184  23.632  15.280  12.935
51585W        W22185  31.891   5.836   2.193
51586W        W22186  12.765  41.016   0.692
51587W        W22187  12.003  40.305   3.824
51588W        W22188  10.894   9.344  14.436
51589W        W22189  20.542   2.463   2.643
51590W        W22190  21.132   9.072   2.606
51591W        W22191  23.215  27.173   3.774
51592W        W22192  17.992   4.497  11.456
51593W        W22193   2.761  36.939   2.140
51594W        W22194  38.907  26.143  12.010
51595W        W22195   5.000  44.005  13.416
51596W        W22196  35.655  42.696  12.631
51597W        W22197  16.403   4.858   2.546
51598W        W22198   1.682  32.971  11.458
51599W        W22199   9.351   0.843  11.477
51600W        W22200  34.561  30.796  14.839
51601W        W22201  25.756  21.731  12.712
51602W        W22202  10.280  36.178   3.695
51603W        W22203  11.186   8.675  12.949
51604W        W22204   0.730  25.099   4.819
51605W        W22205  16.566  42.305   3.886
51606W        W22206   0.278  38.986   3.130
51607W        W22207   5.117  18.718   3.597
51608W        W22208   3.862  28.077   3.737
51609W        W22209  38.552  12.227  14.050
51610W        W22210  33.728  41.517   1.759
51611W        W22211  23.144  10.229   0.450
51612W        W22212   4.668   7.428   1.868
51613W        W22213  22.023  28.012   2.336
51614W        W22214  18.231  20.977  14.826
51615W        W22215  43.381  18.064   1.569
51616W        W22216  17.188  20.723   0.659
51617W        W22217  37.129  35.508  12.114
51618W        W22218  39.934  22.245   3.577
51619W        W22219   1.863  33.793   0.879
51620W        W22220  24.660  20.933  14.421
51621W        W22221  34.902  15.175   4.491
51622W        W22222   0.776  26.833  10.234
51623W        W22223  35.968   0.786  12.667
51624W        W22224   1.189  19.991  12.093
51625W        W22225  32.826  40.049  14.906
51626W        W22226  22.440   2.052  12.111
51627W        W22227  23.459  44.995   2.841
51628W        W22228  35.842  41.237   0.880
51629W        W22229  18.634   7.791   1.852
51630W        W22230  29.171  15.347   4.626
51631W        W22231  28.520  27.922  12.869
51632W        W22232  18.707  32.935   3.683
51633W        W22233   6.822  38.758  13.565
51634W        W22234  17.761   1.906  10.520
51635W        W22235  16.326  14.607   3.700
51636W        W22236  16.799   2.757   3.838
51637W        W22237  18.948  23.649   1.468
51638W        W22238  19.075   8.617  11.085
51639W        W22239  24.156  11.359  11.109
51640W        W22240   8.736  12.741  14.830
51641W        W22241  18.810  17.294   0.053
51642W        W22242  43.005  17.164  12.003
51643W        W22243  12.959   8.141   0.294
51644W        W22244  36.738  38.029  12.973
51645W        W22245  37.153  14.439   1.293
51646W        W22246  44.562  16.035  12.426
51647W        W22247   4.459   9.196   4.747
51648W        W22248  25.953   4.874   2.245
51649W        W22249  42.151   4.554   3.582
51650W        W22250  15.870   0.711  11.192
51651W        W22251   8.812  12.325   1.426
51652W        W22252  15.618  24.071   3.215
51653W        W22253  43.784  15.087  12.076
51654W        W22254  42.711  34.085  11.686
51655W        W22255  30.119  43.506  10.579
51656W        W22256  29.041  33.401  11.528
51657W        W22257   0.843  29.492   3.272
51658W        W22258  23.005  22.590   3.829
51659W        W22259  25.482  28.652   1.386
51660W        W22260  31.656  11.808   4.121
51661W        W22261  34.391  24.662   1.706
51662W        W22262  14.594  36.343   1.793
51663W        W22263  32.132  18.803  14.007
51664W        W22264   8.227   1.720  11.840
51665W        W22265  11.332  43.368   0.821
51666W        W22266  30.178  33.588  13.125
51667W        W22267  44.995  43.354   4.474
51668W        W22268   5.372   9.691   4.044
51669W        W22269  31.224   3.512   2.290
51670W        W22270  19.160  39.501   2.446
51671W        W22271  28.592   4.834  12.156
51672W        W22272  11.074  27.543  14.537
51673W        W22273   3.769  40.550  10.450
51674W        W22274   0.734  28.229  11.245
51675W        W22275  25.293   2.806   2.306
51676W        W22276  14.568   0.489  12.091
51677W        W22277   2.842  37.812   5.044
51678W        W22278  36.501  26.955  12.443
51679W        W22279  42.310  34.825  13.121
51680W        W22280  15.071  25.967   1.192
51681W        W22281  21.631  37.777  14.501
51682W        W22282  24.684   7.842   3.962
51683W        W22283  26.917  43.416  14.422
51684W        W22284  35.026  32.553   2.469
51685W        W22285  10.242  30.679  12.553
51686W        W22286  41.294   6.828  10.661
51687W        W22287   5.765  36.184   0.937
51688W        W22288  25.203  40.887  10.873
51689W        W22289  18.615   5.802  11.929
51690W        W22290  16.689   4.766   1.171
51691W        W22291   5.357  26.037   1.765
51692W        W22292  10.243  18.999  13.946
51693W        W22293  18.172  23.758  11.570
51694W        W22294   5.836  39.741   2.268
51695W        W22295  29.570   8.197   4.750
51696W        W22296  18.682  32.579  11.614
51697W        W22297  37.257   4.588   4.689
51698W        W22298  19.754  37.540  14.701
51699W        W22299   8.795  10.980  14.888
51700W        W22300   0.407  34.045   2.302
51701W        W22301   1.252  12.052   1.817
51702W        W22302   3.101  11.982   4.806
51703W        W22303  43.836  13.681   2.555
51704W        W22304   5.632   3.458   2.398
51705W        W22305  25.735  22.470   2.311
51706W        W22306  26.520  24.255   4.553
51707W        W22307   1.814  31.606  13.058
51708W        W22308  26.210  17.774  10.787
51709W        W22309   6.343  16.753   3.838
51710W        W22310  26.089  22.732  11.091
51711W        W22311  14.576  32.396   5.031
51712W        W22312  15.669   9.813   1.341
51713W        W22313  30.994  38.718   3.468
51714W        W22314  10.115  22.506   0.039
51715W        W22315  22.181   8.679  11.505
51716W        W22316  14.163  35.167  12.306
51717W        W22317  15.027  36.359   0.980
51718W        W22318  11.295  17.281   2.127
51719W        W22319  33.693  39.785  10.940
51720W        W22320  39.895  42.506  11.597
51721W        W22321  22.617  10.382   0.485
51722W        W22322  33.398   0.770   4.075
51723W        W22323  40.393   9.690   4.546
51724W        W22324   1.280  19.835   3.250
51725W        W22325  37.345  14.626   4.369
51726W        W22326  42.304  17.676  11.552
51727W        W22327  16.781  12.089   0.350
51728W        W22328  38.923  18.299   3.223
51729W        W22329  25.086   8.182  14.479
51730W        W22330  13.219  20.929  13.865
51731W        W22331  34.861  25.710   1.183
51732W        W22332  33.587  28.748  10.490
51733W        W22333  29.076  35.557  13.551
51734W        W22334  35.312  42.124  12.139
51735W        W22335  10.714  42.760   3.745
51736W        W22336  41.304   7.374   4.997
51737W        W22337  34.630  15.162  12.524
51738W        W22338   1.441  13.068   1.734
51739W        W22339  33.387  16.885  14.798
51740W        W22340  38.889   2.776   4.551
51741W        W22341   8.036   3.418  11.350
51742W        W22342  18.822  20.314  14.044
51743W        W22343  10.809   5.988  11.637
51744W        W22344  36.401  19.694   0.047
51745W        W22345  22.435  27.155  14.501
51746W        W22346  32.671   1.653   4.776
51747W        W22347   5.475  35.490   4.527
51748W        W22348  35.903  11.022   0.839
51749W        W22349  15.196  10.920  13.390
51750W        W22350  33.058  33.360   2.296
51751W        W22351  39.015  11.732  13.385
51752W        W22352   2.302   7.850   4.137
51753W        W22353  33.215  39.699   2.793
51754W        W22354   6.364   1.859   1.174
51755W        W22355  11.055  26.684   1.725
51756W        W22356  39.594  10.670   3.279
51757W        W22357   8.272   3.296   4.284
51758W        W22358   7.298  29.534  11.886
51759W        W22359   3.212  44.058  12.410
51760W        W22360   1.895  26.693  11.521
51761W        W22361  10.195  17.709  11.550
51762W        W22362   3.871  24.629   4.245
51763W        W22363  34.976  23.359   9.913
51764W        W22364  20.659  20.479   3.793
51765W        W22365  12.142  14.393  14.352
51766W        W22366   4.274  44.751   0.398
51767W        W22367  28.441  41.350  11.136
51768W        W22368  35.737  26.608  11.753
51769W        W22369  16.634  35.923   0.138
51770W        W22370   5.323  40.433   2.174
51771W        W22371  12.156   3.277  10.883
51772W        W22372  44.216  39.032   2.847
51773W        W22373  43.540  21.203  11.023
51774W        W22374  10.198  43.221  12.918
51775W        W22375  17.266   3.981   0.834
51776W        W22376  40.491  10.277   3.284
51777W        W22377  34.579  21.002   1.941
51778W        W22378  39.523  40.774  11.167
51779W        W22379  39.802   6.458  11.385
51780W        W22380  12.151  26.694  13.911
51781W        W22381  33.573  29.567   1.523
51782W        W22382  17.692   3.192   1.330
51783W        W22383  31.917  28.175   1.282
51784W        W22384  31.716  35.249   0.328
51785W        W22385   5.616  26.664  10.416
51786W        W22386  34.617  14.761  13.466
51787W        W22387  27.064   0.418  11.152
51788W        W22388  16.026  42.089  13.831
51789W        W22389  11.756   8.969   2.627
51790W        W22390   5.700  37.586  10.636
51791W        W22391  19.752   0.945  12.941
51792W        W22392  19.086  40.837   1.598
51793W        W22393  16.628  40.554   0.682
51794W        W22394  30.837  19.041   2.808
51795W        W22395   0.527  20.046   2.628
51796W        W22396   4.916  35.110   4.583
51797W        W22397  22.446  34.487   4.946
51798W        W22398  40.552  16.375   3.656
51799W        W22399  34.500  24.557   4.596
51800W        W22400  13.220  33.386   3.351
51801W        W22401  17.240  34.556  11.476
51802W        W22402  10.945  16.892   1.889
51803W        W22403  12.654  29.627   2.000
51804W        W22404  22.409  11.355   0.881
51805W        W22405  17.906   9.710   4.138
51806W        W22406  40.802  15.239   4.659
51807W        W22407  10.591  19.179  14.315
51808W        W22408  28.478  44.411  11.693
51809W        W22409  27.218  25.025  14.332
51810W        W22410  29.971  39.671  14.509
51811W        W22411  10.465  33.405   1.344
51812W        W22412  24.535  33.635  12.742
51813W        W22413  11.072   3.502  14.274
51814W        W22414  35.441  12.739   0.981
51815W        W22415  37.489   5.867  13.542
51816W        W22416  37.628  34.443  14.578
51817W        W22417  34.780  20.719  14.623
51818W        W22418   1.897  37.494   2.397
51819W        W22419  30.592   1.415  11.537
51820W        W22420  40.983  11.640   0.853
51821W        W22421   8.802  22.165  14.162
51822W        W22422   8.707  10.706   3.227
51823W        W22423  17.525  10.856   3.961
51824W        W22424  23.531  15.556   2.842
51825W        W22425  10.202  36.965   3.169
51826W        W22426  30.087  42.650   0.699
51827W        W22427  29.943  39.057   9.893
51828W        W22428  42.991  20.954  13.278
51829W        W22429  36.999   1.593   2.697
51830W        W22430  41.085  36.163   0.106
51831W        W22431  14.323   5.046  14.821
51832W        W22432  27.951   3.507   2.196
51833W        W22433  32.479  22.286   2.380
51834W        W22434   5.312  42.744  11.851
51835W        W22435  15.277   0.496   4.645
51836W        W22436   2.736  29.624   0.200
51837W        W22437  11.193  14.522   3.724
51838W        W22438  40.281  37.954  14.952
51839W        W22439  39.040  26.743   1.688
51840W        W22440  40.743  37.356  14.553
51841W        W22441  40.032   2.913  14.888
51842W        W22442  41.421  37.849  11.805
51843W        W22443  28.379  36.880   2.809
51844W        W22444  33.794  29.394  10.423
51845W        W22445  17.047  26.912  13.072
51846W        W22446  20.680  36.841   2.877
51847W        W22447  12.228  29.385  14.909
51848W        W22448  26.555  17.167   1.517
51849W        W22449  34.908  11.832  11.973
51850W        W22450  23.579  10.723  13.140
51851W        W22451  31.331  17.154  13.944
51852W        W22452  36.184  20.477   1.640
51853W        W22453  25.557  29.498  13.479
51854W        W22454  38.557  12.232  14.576
51855W        W22455  42.538  14.656   3.767
51856W        W22456  17.359  32.907   4.126
51857W        W22457  36.218  37.060  10.489
51858W        W22458  19.691  35.415   4.660
51859W        W22459  35.338  29.390   3.628
51860W        W22460  43.803  21.307   0.836
51861W        W22461   8.765   1.438  13.814
51862W        W22462  32.979  13.300  12.220
51863W        W22463  11.678  23.422  12.624
51864W        W22464  30.594  43.362   1.724
51865W        W22465  32.948  29.963  12.829
51866W        W22466  30.809  41.400  11.813
51867W        W22467  29.144  18.225   2.366
51868W        W22468   1.748  13.860   0.846
51869W        W22469   7.396   8.367   1.651
51870W        W22470  27.773  44.315  14.891
51871W        W22471  44.368  33.607  12.919
51872W        W22472   8.330   9.932   0.804
51873W        W22473  21.830   7.118   2.206
51874W        W22474   3.712  32.370  13.188
51875W        W22475  16.814  13.747  11.324
51876W        W22476  10.352  36.472  11.873
51877W        W22477  24.593  27.098   0.260
51878W        W22478   7.958   8.411   3.691
51879W        W22479  12.825   6.143   3.891
51880W        W22480  14.838  10.932   1.345
51881W        W22481  40.327  39.595   3.793
51882W        W22482  24.077  14.596   3.702
51883W        W22483  23.768  20.229   2.675
51884W        W22484  26.750   4.911   1.775
51885W        W22485  27.663  11.883  13.383
51886W        W22486  28.434  42.503   3.190
51887W        W22487  14.510  26.232  13.072
51888W        W22488  21.331   4.809   2.641
51889W        W22489   8.841  29.212  14.039
51890W        W22490  24.258  42.748   2.587
51891W        W22491  20.812  22.073  10.192
51892W        W22492   1.376  38.037   2.915
51893W        W22493  20.730  14.461   4.079
51894W        W22494  26.088   7.818   0.729
51895W        W22495   7.781  27.950   4.522
51896W        W22496   1.661  11.716  12.431
51897W        W22497   0.108  30.716  14.877
51898W        W22498  33.347  11.310   3.147
51899W        W22499  31.212  16.267  11.831
51900W        W22500  39.952   2.944   1.417
51901W        W22501  33.468  23.547   2.515
51902W        W22502  36.002  40.755  13.666
51903W        W22503  34.562  14.199  11.455
51904W        W22504   2.974  39.555   4.629
51905W        W22505  34.460  16.592  14.497
51906W        W22506  27.903  22.991  12.058
51907W        W22507  33.748   5.829   1.336
51908W        W22508  12.713   4.962  12.974
51909W        W22509  24.503  42.695  12.243
51910W        W22510   0.404  32.264  14.473
51911W        W22511  12.239  30.981  14.117
51912W        W22512  10.655  26.438  14.363
51913W        W22513  28.538  26.596   1.731
51914W        W22514  16.796  36.555  10.127
51915W        W22515  39.816  15.278   0.523
51916W        W22516  38.016  37.038   4.213
51917W        W22517  30.939   0.170   1.673
51918W        W22518  24.635  44.272  14.781
51919W        W22519  13.315  22.647  10.681
51920W        W22520  40.600  44.423  14.828
51921W        W22521   2.487  30.439  12.910
51922W        W22522  26.227   8.146  13.976
51923W        W22523  21.629   1.751  11.579
51924W        W22524  43.934  15.641   2.323
51925W        W22525   7.773  24.692  12.529
51926W        W22526  23.624  30.987  11.706
51927W        W22527  42.467  25.148   2.098
51928W        W22528  38.930   0.894   0.992
51929W        W22529  16.225  15.742  14.066
51930W        W22530   7.677  18.050   4.447
51931W        W22531  26.399  11.189  14.285
51932W        W22532  34.879  39.761   3.780
51933W        W22533   9.789  37.855  14.406
51934W        W22534  25.179  26.383  13.004
51935W        W22535  44.516   0.264   4.830
51936W        W22536  30.517  34.490  14.470
51937W        W22537  29.465   5.445   4.638
51938W        W22538  14.230  41.741  11.227
51939W        W22539  31.335  11.908   0.261
51940W        W22540   6.837  39.850  14.864
51941W        W22541  21.181  15.987  12.617
51942W        W22542   3.921  15.116   2.700
51943W        W22543  15.071   4.678   3.805
51944W        W22544  33.946  20.206   1.935
51945W        W22545  15.056  27.547  12.055
51946W        W22546   1.816   2.985   0.835
51947W        W22547  41.768  35.140  14.299
51948W        W22548  17.669  38.431   2.918
51949W        W22549  16.357  14.284  13.623
51950W        W22550  44.887  21.728   3.919
51951W        W22551  38.385  16.380   4.654
51952W        W22552  22.058  43.590   9.679
51953W        W22553  38.058  19.785  12.941
51954W        W22554   8.406  43.960  14.883
51955W        W22555   8.669   5.312   4.542
51956W        W22556  18.501   4.991  10.817
51957W        W22557  14.401  12.413  13.375
51958W        W22558  21.010  25.786   0.832
51959W        W22559  31.486  30.699   4.309
51960W        W22560  23.631  19.203   2.867
51961W        W22561  21.313  18.346   3.378
51962W        W22562   2.330  27.671  12.208
51963W        W22563   5.087  25.744   2.745
51964W        W22564  20.517   5.684  14.341
51965W        W22565  18.712  29.684   4.367
51966W        W22566  35.086  44.321   1.804
51967W        W22567   0.473  27.946  10.898
51968W        W22568  40.952  42.382  12.564
51969W        W22569   2.572   1.029  13.986
51970W        W22570  10.712  19.087   2.915
51971W        W22571   5.938  42.398   0.680
51972W        W22572  18.284   5.372  11.498
51973W        W22573  37.527  29.175  13.867
51974W        W22574   3.198  10.253   1.736
51975W        W22575   1.516  24.181  11.124
51976W        W22576  28.674   8.193   4.207
51977W        W22577  15.768  29.747  12.662
51978W        W22578   4.752  38.706  14.400
51979W        W22579  34.618   1.848  13.857
51980W        W22580  36.126   1.340   4.448
51981W        W22581  39.222  32.367  13.075
51982W        W22582  30.995  29.405   2.785
51983W        W22583   3.401  44.912   4.372
51984W        W22584   8.660  32.087  12.090
51985W        W22585  30.526  25.203   2.804
51986W        W22586  31.086  16.761   3.180
51987W        W22587  36.485  17.178  10.868
51988W        W22588  35.881  33.310  11.901
51989W        W22589  28.627  38.112   4.402
51990W        W22590  24.102  44.603   2.808
51991W        W22591  17.689   2.175   4.105
51992W        W22592  23.147   3.427  12.022
51993W        W22593  39.829   1.389  12.149
51994W        W22594  11.261  23.745   1.224
51995W        W22595  31.207  32.386   4.864
51996W        W22596  27.994   0.757   2.335
51997W        W22597   5.120  41.005   4.268
51998W        W22598   5.456  43.409   4.472
51999W        W22599  11.160  23.602   2.447
52000W        W22600  13.524  22.791  14.499
52001W        W22601  20.589  12.405   0.018
52002W        W22602  16.751  27.609  14.730
52003W        W22603  39.793  18.943   2.819
52004W        W22604  38.557  15.246   1.667
52005W        W22605  23.305   4.263   2.872
52006W        W22606  29.397  11.755  13.480
52007W        W22607  19.805  17.782  14.117
52008W        W22608  25.921  26.971   0.850
52009W        W22609  41.539  34.486   4.151
52010W        W22610  23.097  22.934  10.722
52011W        W22611  27.576  41.797  12.607
52012W        W22612  23.547  19.982  14.841
52013W        W22613   8.128  42.276   1.324
52014W        W22614  28.616  42.550  13.086
52015W        W22615   8.885  32.766  11.548
52016W        W22616  32.413  38.454  10.571
52017W        W22617  44.064  14.580   0.731
52018W        W22618  23.068  33.085  11.570
52019W        W22619  44.460  36.646  13.554
52020W        W22620  12.675   7.736  13.263
52021W        W22621   6.766   5.223  11.217
52022W        W22622   9.284  15.999  12.695
52023W        W22623   1.378  41.134  12.186
52024W        W22624  12.882  39.226   2.771
52025W        W22625  33.082  32.887   1.885
52026W        W22626  34.904  32.487  12.902
52027W        W22627  44.843  39.194  11.634
52028W        W22628  14.334   5.442  12.975
52029W        W22629  41.081  40.392  12.650
52030W        W22630   5.810   6.272  14.950
52031W        W22631   8.420   6.081   0.789
52032W        W22632  11.014  15.805  14.560
52033W        W22633  33.679   3.217   1.154
52034W        W22634   1.149  11.471   1.616
52035W        W22635   6.844  29.155   4.819
52036W        W22636  26.994  40.440   1.173
52037W        W22637  43.768  32.948   0.360
52038W        W22638  23.006  23.547  12.991
52039W        W22639  43.970  13.552  14.662
52040W        W22640  39.306   1.818  13.570
52041W        W22641   2.022  44.466  13.476
52042W        W22642  15.903  34.623   2.418
52043W        W22643  37.010  23.188  14.424
52044W        W22644  10.880  14.145   2.311
52045W        W22645  39.214  31.691   3.341
52046W        W22646  10.908   0.934   3.702
52047W        W22647  19.599  31.702   2.457
52048W        W22648   0.330  20.803  13.508
52049W        W22649  35.648  41.758   4.099
52050W        W22650   5.233   9.704  10.722
52051W        W22651  21.480  15.624  12.420
52052W        W22652  13.834  40.268  12.068
52053W        W22653  29.201   6.421  12.570
52054W        W22654   7.245  38.941   3.271
52055W        W22655  20.586  30.488   3.978
52056W        W22656  43.386  23.839   2.695
52057W        W22657   3.831  35.091  14.883
52058W        W22658   1.480  25.057  14.831
52059W        W22659  19.278  36.571   4.719
52060W        W22660  29.368  25.651   0.960
52061W        W22661  32.960  28.544   0.838
52062W        W22662  10.253   1.416   3.326
52063W        W22663  39.370  30.036  10.707
52064W        W22664  12.767  22.634   1.194
52065W        W22665  31.050  13.903   5.082
52066W        W22666   5.788   1.077  10.750
52067W        W22667   2.064  27.451  13.011
52068W        W22668  23.447  13.099   0.236
52069W        W22669  12.732  15.755  10.655
52070W        W22670  33.655  31.428  11.132
52071W        W22671  27.425  30.128   3.773
52072W        W22672  19.512  18.346   3.259
52073W        W22673  44.425  35.453   2.304
52074W        W22674  22.441  15.178  11.549
52075W        W22675  35.326  19.622  12.441
52076W        W22676  20.573  11.596   1.150
52077W        W22677   2.381  20.463   4.844
52078W        W22678  14.847  38.614   4.562
52079W        W22679  30.547  35.897   4.238
52080W        W22680  41.495  36.303   3.818
52081W        W22681  14.321  28.357   4.071
52082W        W22682   7.425  27.566   4.652
52083W        W22683  20.123  28.023   4.109
52084W        W22684  39.928  28.088  11.858
52085W        W22685  19.818   4.890   2.643
52086W        W22686   7.147  15.409   3.103
52087W        W22687  37.057  35.276  10.752
52088W        W22688   4.364  13.199   0.207
52089W        W22689  36.658  31.077   1.481
52090W        W22690  27.108   7.453   2.593
52091W        W22691   7.860  29.603   1.034
52092W        W22692  34.285  41.558  13.037
52093W        W22693   2.420  44.220   2.116
52094W        W22694  27.586  39.045  11.570
52095W        W22695   5.980  23.960   3.909
52096W        W22696  36.940  29.254  11.659
52097W        W22697  19.210  38.686  13.362
52098W        W22698  33.562   6.597   4.645
52099W        W22699  25.532  30.956   1.213
52100W        W22700  13.676  31.875  13.562
52101W        W22701  14.590   8.774  13.129
52102W        W22702  20.666  44.255  13.521
52103W        W22703   0.962  23.568   4.950
52104W        W22704   2.461  41.484  12.394
52105W        W22705  16.798  19.005   1.631
52106W        W22706  27.693   1.920   3.837
52107W        W22707  25.517  21.689   0.813
52108W        W22708   6.781  33.079   4.929
52109W        W22709  35.348  24.428   2.695
52110W        W22710  23.290   0.944  11.589
52111W        W22711   3.651   5.294  14.017
52112W        W22712  25.196  19.497   4.148
52113W        W22713  37.950  38.963   1.908
52114W        W22714  43.802  32.872   2.236
52115W        W22715  22.429  15.836  12.650
52116W        W22716  38.242   3.477  12.052
52117W        W22717  39.101  37.451   4.595
52118W        W22718  44.843  44.938   3.480
52119W        W22719  13.720   7.412  14.908
52120W        W22720  25.990  36.170  10.655
52121W        W22721  21.353  24.584  10.746
52122W        W22722   7.871  13.318   1.375
52123W        W22723  34.907  10.035   0.771
52124W        W22724  21.704  28.012   3.135
52125W        W22725  32.396  40.357  14.160
52126W        W22726  40.134  41.465   1.939
52127W        W22727  16.202  40.086  10.604
52128W        W22728  20.044  21.213  12.617
52129W        W22729  37.826  38.560   0.655
52130W        W22730  11.833  34.579   3.381
52131W        W22731  30.577  19.793   1.902
52132W        W22732   6.205  29.664   2.716
52133W        W22733   6.422  40.491  12.731
52134W        W22734  42.986  22.612   0.831
52135W        W22735  35.823  36.125   0.924
52136W        W22736  24.250  21.716  11.425
52137W        W22737  30.640   1.942   4.555
52138W        W22738   0.486  12.864   2.291
52139W        W22739  13.609  35.506   3.817
52140W        W22740  26.213  42.535   0.536
52141W        W22741  30.400   6.819  13.013
52142W        W22742  19.545  28.600  11.123
52143W        W22743  35.382  21.010  13.533
52144W        W22744  25.017   9.685  13.493
52145W        W22745   2.306   0.747  14.776
52146W        W22746  44.890  43.198  11.988
52147W        W22747   0.067  31.891   3.648
52148W        W22748  18.146  16.984  13.485
52149W        W22749  38.140  23.554  12.911
52150W        W22750  20.246  42.896  13.175
52151W        W22751  30.897  39.013   0.395
52152W        W22752   7.858   5.635  12.093
52153W        W22753  20.759   5.636  12.035
52154W        W22754  33.362   8.251   3.940
52155W        W22755  21.560  27.234   2.650
52156W        W22756   2.470  19.076  14.738
52157W        W22757  41.459  44.771   1.126
52158W        W22758  41.686   0.811   4.033
52159W        W22759  11.332  24.079   3.729
52160W        W22760  26.726  30.231   2.654
52161W        W22761  24.826  23.614   2.333
52162W        W22762  39.025  11.627   0.924
52163W        W22763  37.543   3.639   1.018
52164W        W22764   2.778  12.172  14.760
52165W        W22765  44.916  18.843  14.512
52166W        W22766  35.484  29.852  12.823
52167W        W22767  24.476  14.875  14.550
52168W        W22768   4.052  23.187   4.740
52169W        W22769  44.723   8.575   0.206
52170W        W22770  37.897  44.283   2.689
52171W        W22771  39.578  23.170  12.007
52172W        W22772   9.934  40.532  11.607
52173W        W22773  14.776   8.180   4.539
52174W        W22774  23.026   0.675  13.835
52175W        W22775  33.037  37.893  13.572
52176W        W22776   9.309  42.463  12.029
52177W        W22777  22.034  40.848   4.881
52178W        W22778  17.191  21.186   2.678
52179W        W22779  44.782   2.721   3.662
52180W        W22780  24.881  18.066   2.698
52181W        W22781  29.033  39.672   1.026
52182W        W22782  18.188  13.231  12.949
52183W        W22783  20.559   5.264   2.652
52184W        W22784  43.059   8.311   0.201
52185W        W22785  25.629  16.625  14.290
52186W        W22786  24.273  20.569   0.131
52187W        W22787   3.336  37.536  11.067
52188W        W22788  27.927   7.823  13.789
52189W        W22789  22.655  41.985   3.357
52190W        W22790  15.018  32.576  11.760
52191W        W22791   3.823  34.207   2.807
52192W        W22792   4.259  40.475  14.326
52193W        W22793  30.921  33.133   2.365
52194W        W22794  20.065  29.417   0.893
52195W        W22795  30.493  39.736   3.096
52196W        W22796  30.954   0.832  12.548
52197W        W22797   3.132  13.254  12.436
52198W        W22798   3.401   3.732  13.847
52199W        W22799  40.532  41.955  10.728
52200W        W22800   6.393  33.398  12.367
52201W        W22801  13.946   1.187   9.725
52202W        W22802  21.516  11.567  13.410
52203W        W22803  29.916  43.071  11.498
52204W        W22804  32.525  42.843  11.115
52205W        W22805  36.298  18.695  11.511
52206W        W22806  40.644  19.584  13.804
52207W        W22807  34.354  20.643  14.305
52208W        W22808  17.291  41.414  11.902
52209W        W22809  26.594  18.822  11.271
52210W        W22810  17.061  31.570   3.635
52211W        W22811  13.194  17.769  10.937
52212W        W22812  17.744   1.679   2.165
52213W        W22813  26.480  17.824  11.579
52214W        W22814  24.470  16.659   3.786
52215W        W22815  41.945  29.013   4.121
52216W        W22816  14.412  19.449  10.512
52217W        W22817  27.058   5.519  14.478
52218W        W22818  20.744  28.465  13.664
52219W        W22819  24.693  26.160   2.730
52220W        W22820  11.381  38.860  12.173
52221W        W22821  22.738   1.484  11.107
52222W        W22822  11.073  21.922   4.095
52223W        W22823  16.084  14.622  12.936
52224W        W22824   5.351  40.278  14.784
52225W        W22825  35.307  43.861  12.663
52226W        W22826  11.769  30.852   3.416
52227W        W22827  36.412  24.955   4.566
52228W        W22828  21.481  39.808  11.198
52229W        W22829   9.799   3.762  13.344
52230W        W22830  44.943  33.130   1.768
52231W        W22831  23.192  41.830   3.164
52232W        W22832  25.533  13.431  11.478
52233W        W22833  30.667  28.541   4.649
52234W        W22834  12.625  30.229  14.801
52235W        W22835  18.306  16.076  14.524
52236W        W22836  41.937   2.183   3.838
52237W        W22837   3.655  42.954  13.107
52238W        W22838  26.117  29.452   0.424
52239W        W22839  19.892   0.448   3.412
52240W        W22840   9.084   3.217   3.685
52241W        W22841   7.617  27.708  14.487
52242W        W22842  38.385   2.563   1.947
52243W        W22843  35.880  11.513   0.686
52244W        W22844  44.921  44.850  14.472
52245W        W22845  39.010  32.397   0.420
52246W        W22846  29.612  44.722  10.410
52247W        W22847  29.634  41.794  12.095
52248W        W22848   3.188   2.757  13.991
52249W        W22849  15.988  11.138  10.630
52250W        W22850  18.580   8.272  12.255
52251W        W22851   8.698  36.799   1.405
52252W        W22852   3.266   5.918   4.190
52253W        W22853  33.967  18.842  12.230
52254W        W22854  21.047  21.748  10.589
52255W        W22855  33.499   3.775   4.798
52256W        W22856   8.628   7.742  11.940
52257W        W22857  33.390  24.618   1.804
52258W        W22858  14.926  32.663  12.996
52259W        W22859  26.926  14.238  10.648
52260W        W22860  41.266  29.901   4.099
52261W        W22861   9.935  22.678   3.951
52262W        W22862  33.508  13.308   9.496
52263W        W22863  30.105  22.809   2.648
52264W        W22864  19.287  39.963  13.683
52265W        W22865  28.590  18.167   3.275
52266W        W22866  36.685  29.692   4.304
52267W        W22867  34.566  19.749  11.583
52268W        W22868  23.730  28.633   1.883
52269W        W22869  19.936  17.533   4.915
52270W        W22870  21.725  31.712   4.059
52271W        W22871  16.225  11.843   1.045
52272W        W22872  19.285  41.062   0.720
52273W        W22873  30.698  42.042   5.515
52274W        W22874  21.660  16.322  14.767
52275W        W22875  24.403  26.503  10.985
52276W        W22876  30.390  30.858  11.576
52277W        W22877  13.365   1.826  13.580
52278W        W22878  23.122  21.717   2.303
52279W        W22879  16.219   7.734   4.873
52280W        W22880  36.126  21.695   4.125
52281W        W22881  21.113   8.439  13.576
52282W        W22882  16.426  24.917   4.463
52283W        W22883   9.391  11.827  10.594
52284W        W22884   8.133  22.491  14.897
52285W        W22885  44.829  36.714  11.164
52286W        W22886  27.578   7.637   4.886
52287W        W22887  37.064  14.729  12.142
52288W        W22888  41.741  15.089  10.587
52289W        W22889  27.018   7.593   3.111
52290W        W22890  23.990  41.217  13.445
52291W        W22891  34.035   6.865   0.179
52292W        W22892  14.948  13.103  10.447
52293W        W22893  19.958  37.361   2.293
52294W        W22894   2.500  11.218  14.769
52295W        W22895   7.425  40.250   2.751
52296W        W22896  12.674  43.574  11.956
52297W        W22897  26.102  34.228  12.015
52298W        W22898  11.472  33.412   5.283
52299W        W22899  31.610  28.202   2.796
52300W        W22900  43.868   4.463   2.457
52301W        W22901  14.742   3.903   0.251
52302W        W22902  31.006   8.228  14.914
52303W        W22903  42.797   7.894   0.432
52304W        W22904  35.631  39.538  14.868
52305W        W22905  40.221   0.733   1.153
52306W        W22906  16.603  33.511   2.125
52307W        W22907  29.031   9.841  14.012
52308W        W22908  32.165  10.838   4.358
52309W        W22909  11.655   5.757  11.912
52310W        W22910  14.526   1.776  10.780
52311W        W22911   9.894   6.709   3.939
52312W        W22912  18.522  24.506   1.862
52313W        W22913   0.027  37.574  11.207
52314W        W22914  23.854   1.455  13.961
52315W        W22915  17.124  13.079   4.621
52316W        W22916  13.246  37.571  10.285
52317W        W22917  23.635  37.428   4.148
52318W        W22918  26.467  38.016  12.340
52319W        W22919  12.561   2.244  13.508
52320W        W22920  26.945  21.102   1.429
52321W        W22921  18.742  13.623   4.594
52322W        W22922   4.850  29.964   0.983
52323W        W22923  42.752  17.007  10.740
52324W        W22924  30.933  17.689  10.766
52325W        W22925   1.976   8.975   0.351
52326W        W22926   2.810   0.891  14.912
52327W        W22927  37.975  10.276   0.273
52328W        W22928  32.134   9.675   2.796
52329W        W22929  16.770   7.227  12.120
52330W        W22930  19.059  29.570   0.697
52331W        W22931   7.972  16.764  13.481
52332W        W22932   0.960  15.670  12.085
52333W        W22933  21.124  43.785   3.231
52334W        W22934  41.096  21.196   1.655
52335W        W22935  41.936  28.631  14.234
52336W        W22936  14.521  32.930  13.845
52337W        W22937  26.706  34.808   4.154
52338W        W22938  41.470  15.135   4.194
52339W        W22939  10.413  18.960   5.025
52340W        W22940  16.998  31.153  12.070
52341W        W22941  36.597   7.644   0.775
52342W        W22942   9.019   7.801   4.124
52343W        W22943  28.085  36.449   2.459
52344W        W22944  15.192  39.095  14.428
52345W        W22945   5.363  41.443  12.514
52346W        W22946  42.659  30.837  13.277
52347W        W22947  17.233  21.688   0.203
52348W        W22948  25.778  38.960   2.215
52349W        W22949  38.805  41.549  14.000
52350W        W22950  29.126   6.647  14.882
52351W        W22951   5.219  16.702  10.942
52352W        W22952  38.101  32.300  12.584
52353W        W22953  43.888   6.913  14.123
52354W        W22954  43.272  38.114  12.864
52355W        W22955  22.572  29.164   3.630
52356W        W22956  42.830  35.266   1.317
52357W        W22957   8.841  18.022  13.465
52358W        W22958  35.509  43.234   2.272
52359W        W22959  22.334   8.594  12.568
52360W        W22960  30.058  23.999  11.529
52361W        W22961  39.060  19.104  12.661
52362W        W22962  44.976  28.015  14.815
52363W        W22963  24.043  41.281   3.885
52364W        W22964  37.442  29.094  11.257
52365W        W22965  33.365  14.207  13.427
52366W        W22966  36.956  14.081  10.874
52367W        W22967  16.123   8.334   1.920
52368W        W22968  27.114  22.709   2.178
52369W        W22969  19.193   5.784   4.636
52370W        W22970   9.793  40.808   2.378
52371W        W22971  43.930  24.183  12.028
52372W        W22972  19.831  29.956   2.310
52373W        W22973   8.254  32.990  13.282
52374W        W22974   4.847  37.046   4.151
52375W        W22975  15.720   7.215  12.166
52376W        W22976   9.104  16.107  11.559
52377W        W22977  37.974  17.281   3.399
52378W        W22978  40.066   2.334  13.928
52379W        W22979   1.505  30.758   0.364
52380W        W22980  13.152  24.793   1.166
52381W        W22981  36.348   6.828  13.558
52382W        W22982  25.356  22.119  11.978
52383W        W22983  24.212  15.605  10.306
52384W        W22984  38.277  35.964   3.372
52385W        W22985   4.237  22.905  11.074
52386W        W22986   9.210  19.807  12.973
52387W        W22987   3.481  40.587   1.931
52388W        W22988  41.242  36.836   0.791
52389W        W22989   8.186  31.380   2.390
52390W        W22990  35.125  26.583   0.214
52391W        W22991  28.188  29.035  10.971
52392W        W22992  30.420  24.559   0.887
52393W        W22993  33.535  15.182   1.684
52394W        W22994  10.233  33.903  14.419
52395W        W22995   4.220  44.245   0.487
52396W        W22996  19.530  20.087  11.341
52397W        W22997  36.524  25.442   1.607
52398W        W22998  35.054  28.940   0.352
52399W        W22999   9.389  10.107  13.915
52400W        W23000  36.476  32.710   4.191
52401W        W23001  14.317   7.725   1.793
52402W        W23002  22.547  12.947   3.174
52403W        W23003  42.503  27.555  12.607
52404W        W23004  14.194  15.380  14.013
52405W        W23005  18.148  14.661  14.705
52406W        W23006   6.488  40.253  14.809
52407W        W23007  15.381   4.634   2.172
52408W        W23008  25.111  35.007   1.517
52409W        W23009  36.545  19.923  12.833
52410W        W23010  44.930  30.916   1.157
52411W        W23011   9.117  35.560  12.343
52412W        W23012  35.524  37.584   0.195
52413W        W23013  29.914   5.487   4.921
52414W        W23014  27.159   4.508   4.204
52415W        W23015  18.163   4.780   2.574
52416W        W23016  22.405  14.815  11.189
52417W        W23017  16.796  13.242   1.255
52418W        W23018  42.102  19.024   2.484
52419W        W23019  19.030  12.253   3.340
52420W        W23020  30.513  17.318  13.439
52421W        W23021  13.373  18.807   4.056
52422W        W23022  40.192   2.445  12.138
52423W        W23023  40.792  14.685  14.838
52424W        W23024   5.909  14.116   1.462
52425W        W23025  11.819  10.388   3.147
52426W        W23026  28.462  29.202   2.520
52427W        W23027   2.719  11.461  11.714
52428W        W23028  42.835   5.901  14.352
52429W        W23029  44.491  33.412   0.247
52430W        W23030  31.079  10.145  12.816
52431W        W23031  22.473  12.692   4.073
52432W        W23032  11.662   3.940  12.856
52433W        W23033  26.483  40.459   0.996
52434W        W23034  44.999  31.649  13.343
52435W        W23035  25.979   3.463  13.271
52436W        W23036  11.608  15.668  12.541
52437W        W23037  38.997  10.831  11.866
52438W        W23038  20.865   3.927   2.527
52439W        W23039  18.648  21.272   4.335
52440W        W23040   1.660  17.580  10.681
52441W        W23041  23.050  36.032   1.353
52442W        W23042  31.508  37.093  11.166
52443W        W23043  42.862  42.502  13.092
52444W        W23044  20.283  22.037   3.991
52445W        W23045  16.327  25.255   2.742
52446W        W23046  12.769  18.041   3.354
52447W        W23047  23.156  32.317  12.880
52448W        W23048  16.512  15.341  13.817
52449W        W23049  10.331  28.633   3.575
52450W        W23050   4.254  16.812  14.907
52451W        W23051  12.233  18.613   0.678
52452W        W23052  32.422  41.023   3.144
52453W        W23053  13.123  41.819   2.678
52454W        W23054  36.316  12.982   1.804
52455W        W23055  12.175   7.663  13.884
52456W        W23056  31.131  27.461  10.683
52457W        W23057  41.809   8.390   1.730
52458W        W23058  37.996  31.914   0.657
52459W        W23059  26.389   0.497  14.963
52460W        W23060   9.903  11.712  10.751
52461W        W23061   0.782  18.589   4.330
52462W        W23062  42.560  44.896   3.045
52463W        W23063  29.449   1.891   4.207
52464W        W23064  30.558  24.851   0.498
52465W        W23065  18.712   7.875   0.325
52466W        W23066   6.153  30.022  10.182
52467W        W23067  27.470  17.378   4.895
52468W        W23068  27.550  10.949  14.864
52469W        W23069  23.707  27.967  12.574
52470W        W23070  31.717  13.960   1.325
52471W        W23071  39.961  18.103   2.830
52472W        W23072  26.045  35.915  13.290
52473W        W23073  10.285  25.435   3.604
52474W        W23074  11.748  40.307  10.994
52475W        W23075  17.169  19.479  12.550
52476W        W23076   1.767   2.507   0.201
52477W        W23077   9.144  31.553   3.096
52478W        W23078  32.113  32.877  13.809
52479W        W23079  26.157  30.472   0.236
52480W        W23080  30.538  16.880   4.181
52481W        W23081   4.133  24.655   3.746
52482W        W23082  32.020  44.540   0.459
52483W        W23083  40.175  43.512  12.363
52484W        W23084   7.001  11.875   3.674
52485W        W23085   0.663  44.464   4.284
52486W        W23086   1.469  18.570  13.388
52487W        W23087  17.780  24.221  14.485
52488W        W23088  16.819  17.025   0.517
52489W        W23089  10.255  15.745   4.659
52490W        W23090  33.825  28.201  12.474
52491W        W23091  20.821  25.225   3.707
52492W        W23092  10.265  41.503  12.606
52493W        W23093  41.768   0.554  13.005
52494W        W23094  34.289   9.198  12.454
52495W        W23095  12.313   3.512   3.142
52496W        W23096   1.564   9.797  11.981
52497W        W23097  16.678   1.409   2.589
52498W        W23098  36.405  30.458  13.497
52499W        W23099  29.997  32.817  10.605
52500W        W23100  35.052  28.430  13.848
52501W        W23101  43.106  36.552  11.286
52502W        W23102  10.138  34.549  10.007
52503W        W23103  32.997   6.788  12.126
52504W        W23104   3.664   3.332  12.612
52505W        W23105  26.155   8.769   3.648
52506W        W23106  30.914  29.224   1.310
52507W        W23107  20.322  18.189   4.193
52508W        W23108  44.755  18.750   1.744
52509W        W23109   7.160   9.863  10.718
52510W        W23110  12.728   1.785   4.688
52511W        W23111  22.036  19.057  14.499
52512W        W23112  30.604  40.427  14.936
52513W        W23113  18.226   9.734  12.676
52514W        W23114  12.589   1.886   4.186
52515W        W23115  25.527   4.147   3.356
52516W        W23116  29.156  24.297  12.064
52517W        W23117  19.598  27.229   0.206
52518W        W23118  16.020  11.700   4.667
52519W        W23119  41.743  33.166  14.502
52520W        W23120  17.782  13.149   5.241
52521W        W23121   6.219  30.594   2.667
52522W        W23122  32.658  17.255   0.924
52523W        W23123  42.551  17.326   0.243
52524W        W23124  31.511  12.910  13.453
52525W        W23125   9.749  31.594   3.774
52526W        W23126  28.697   2.413   2.255
52527W        W23127  40.032  18.612   1.666
52528W        W23128  15.751  22.083   2.171
52529W        W23129  32.298  44.509   2.393
52530W        W23130  30.690  25.606   4.175
52531W        W23131   9.392  39.053  13.895
52532W        W23132  17.269   6.816   4.743
52533W        W23133   2.220   4.314  12.933
52534W        W23134   4.232  16.226  14.085
52535W        W23135  26.255  40.826   0.008
52536W        W23136  35.584   2.825   2.455
52537W        W23137  40.649  38.891  14.864
52538W        W23138  30.670  28.410   3.465
52539W        W23139  41.330  16.776  12.511
52540W        W23140   7.139  18.671   0.069
52541W        W23141  25.212  19.745   2.207
52542W        W23142  10.961  22.150   1.934
52543W        W23143  41.353  12.395  14.797
52544W        W23144  43.679  37.887  11.635
52545W        W23145  12.247  25.509   0.135
52546W        W23146  24.740  34.058  11.972
52547W        W23147  39.535  15.992   3.079
52548W        W23148   5.821  31.665   2.470
52549W        W23149  24.952  38.929  10.610
52550W        W23150  31.610  40.511  12.611
52551W        W23151   1.503   4.580  14.082
52552W        W23152  36.914  41.612  13.569
52553W        W23153  15.587  22.507  12.516
52554W        W23154  31.455  44.847   2.573
52555W        W23155   4.348   3.944  11.942
52556W        W23156  12.912  17.215  14.121
52557W        W23157  43.329   2.736   1.289
52558W        W23158  39.891  21.550  12.677
52559W        W23159   5.745   0.616   4.204
52560W        W23160  20.830  15.892  14.772
52561W        W23161   3.167  13.915  13.921
52562W        W23162  12.192   2.367   2.303
52563W        W23163   8.394   1.268   1.778
52564W        W23164   8.589  25.937  11.076
52565W        W23165  11.273  27.442   0.429
52566W        W23166  20.154  16.367   0.881
52567W        W23167  12.340  14.318   2.944
52568W        W23168  11.606  24.502   1.761
52569W        W23169   5.295  42.265  11.581
52570W        W23170  21.293  19.827  14.352
52571W        W23171   0.266  19.323  13.456
52572W        W23172   8.255  23.806  12.841
52573W        W23173  42.465  37.310  13.712
52574W        W23174  30.588   9.512  13.765
52575W        W23175   4.280  26.722   0.374
52576W        W23176  38.106  22.649  12.896
52577W        W23177  10.827  40.360  12.037
52578W        W23178  13.747  12.528   1.966
52579W        W23179  17.103  22.620   1.901
52580W        W23180  30.695  31.672   4.671
52581W        W23181  10.231  13.864  11.669
52582W        W23182  20.333  42.783  11.260
52583W        W23183  35.127   6.109  12.313
52584W        W23184  24.538   4.344  11.589
52585W        W23185   0.300  33.162  10.781
52586W        W23186  25.577  39.990   2.734
52587W        W23187  10.219  29.532  12.402
52588W        W23188  11.620  20.423  13.694
52589W        W23189  11.755   9.894   1.270
52590W        W23190   5.339  44.732   4.141
52591W        W23191  10.294  16.092  13.468
52592W        W23192   1.921  13.243   4.201
52593W        W23193  42.460  18.556   1.151
52594W        W23194  12.614  19.981  10.574
52595W        W23195  19.235   0.337  13.379
52596W        W23196  40.830  18.891  11.232
52597W        W23197  15.068  37.105  12.496
52598W        W23198  28.535  23.759  13.927
52599W        W23199   4.251   8.832  10.820
52600W        W23200  16.785   4.270   1.915
52601W        W23201  16.626   4.689  13.881
52602W        W23202  12.625  39.961  11.160
52603W        W23203  37.426   6.989   0.723
52604W        W23204   8.315  16.653   3.194
52605W        W23205  26.090  44.314   0.718
52606W        W23206  12.175  32.113  14.980
52607W        W23207  31.610  25.151  14.296
52608W        W23208   1.860  35.675  14.589
52609W        W23209  30.779   6.165   3.394
52610W        W23210   0.341  20.962   0.807
52611W        W23211  32.363  15.764   5.072
52612W        W23212  13.803  16.914  11.975
52613W        W23213   2.934  15.268   3.368
52614W        W23214  17.708  31.880   1.942
52615W        W23215  27.036  41.339   2.357
52616W        W23216  32.575  34.135   2.286
52617W        W23217  36.020   7.679   3.356
52618W        W23218  13.834  44.701  13.878
52619W        W23219  29.480  32.031   1.732
52620W        W23220  30.595  42.961   2.056
52621W        W23221   4.314   1.815  10.558
52622W        W23222  25.495  18.941  11.202
52623W        W23223   4.693  15.679   3.294
52624W        W23224  33.924   3.018   0.752
52625W        W23225  24.875   8.278   0.437
52626W        W23226  44.978  14.297  12.558
52627W        W23227   1.976   0.117   4.210
52628W        W23228  10.894   4.781   0.025
52629W        W23229  22.360  30.081  14.329
52630W        W23230   9.310  35.705  11.454
52631W        W23231   5.130  18.015  12.357
52632W        W23232  44.553   6.933  14.800
52633W        W23233   7.353  38.028   0.514
52634W        W23234  34.636   4.167   0.841
52635W        W23235  37.153  37.100   4.457
52636W        W23236  44.785   0.944  12.558
52637W        W23237  35.523  24.282  14.439
52638W        W23238  38.224  22.957  12.356
52639W        W23239  40.396  16.737  12.731
52640W        W23240  21.554   6.767  13.391
52641W        W23241   0.500  21.466   1.875
52642W        W23242  10.967   8.736  11.520
52643W        W23243  18.639  37.107  13.338
52644W        W23244  41.043   8.827  11.041
52645W        W23245  43.560  13.386  11.653
52646W        W23246   6.119  34.027  13.628
52647W        W23247  12.235   0.983  12.586
52648W        W23248  35.632  40.058   1.659
52649W        W23249  16.446  44.713  11.218
52650W        W23250  18.775   9.205   4.112
52651W        W23251  15.186  31.024   1.278
52652W        W23252  33.438  17.950   3.737
52653W        W23253  44.947  44.394   3.650
52654W        W23254  35.308  28.619   2.860
52655W        W23255  27.059  12.191   5.135
52656W        W23256  25.615  38.371  10.569
52657W        W23257  43.351  40.038   1.688
52658W        W23258   0.675  40.553  14.954
52659W        W23259  42.574  18.649  12.329
52660W        W23260  14.233  44.079   1.255
52661W        W23261  37.059  21.319   3.177
52662W        W23262   9.069  26.390   4.140
52663W        W23263   8.644   0.477   0.296
52664W        W23264  36.875  32.596   0.218
52665W        W23265  11.844  43.076  14.280
52666W        W23266  35.977   5.690   2.895
52667W        W23267  15.543  13.998   4.469
52668W        W23268  36.983   9.563   1.904
52669W        W23269  18.269   1.150  12.535
52670W        W23270  40.984  43.908   0.420
52671W        W23271  12.747  33.370  11.576
52672W        W23272  36.019  13.426  10.828
52673W        W23273  36.437  25.736  13.021
52674W        W23274   3.683  20.208   2.300
52675W        W23275  27.561   7.956  14.138
52676W        W23276  20.224  32.339  10.775
52677W        W23277   0.175   6.934   2.400
52678W        W23278  43.451  35.082  11.141
52679W        W23279  35.360   0.921   4.326
52680W        W23280  13.182  33.899  10.975
52681W        W23281  22.867   6.907  14.137
52682W        W23282  15.734   3.460   1.939
52683W        W23283  29.572   9.781  13.938
52684W        W23284  40.100   5.551  11.488
52685W        W23285  42.893  21.267  12.805
52686W        W23286  28.414  31.570  13.100
52687W        W23287  33.312  34.243  11.475
52688W        W23288  21.137  30.159   4.738
52689W        W23289  19.562  22.637  12.104
52690W        W23290  18.255  16.665   3.779
52691W        W23291  17.570   9.933   3.188
52692W        W23292  19.998  44.549   3.365
52693W        W23293  23.560  18.080   1.410
52694W        W23294  39.567  14.081   1.878
52695W        W23295   1.311   6.166  12.990
52696W        W23296   0.776   3.232  12.947
52697W        W23297  20.454  24.043  13.427
52698W        W23298  22.134  28.209   2.913
52699W        W23299  13.339  42.274   0.786
52700W        W23300   9.055   4.941  13.726
52701W        W23301  39.800  40.737   0.330
52702W        W23302  31.528  22.802   3.197
52703W        W23303  14.190  41.237   0.526
52704W        W23304   2.815  34.427  12.927
52705W        W23305  42.731  36.737   4.612
52706W        W23306  12.646   6.840  12.157
52707W        W23307   3.527   0.843  13.994
52708W        W23308  42.511   7.756  12.039
52709W        W23309   4.289  25.486  12.847
52710W        W23310  28.437  40.422  11.178
52711W        W23311  16.168   5.530   1.795
52712W        W23312  37.474  10.881  14.831
52713W        W23313   7.779  25.534  13.045
52714W        W23314  35.980   0.518  11.662
52715W        W23315  33.522  19.970  10.558
52716W        W23316   9.338  33.476  14.039
52717W        W23317  18.067  13.062  11.449
52718W        W23318  19.050  23.697   1.970
52719W        W23319  21.094  18.660  10.878
52720W        W23320  28.947  21.414   2.303
52721W        W23321   0.451   5.913   1.719
52722W        W23322  27.301  14.171  11.566
52723W        W23323  32.859  33.168  11.566
52724W        W23324   4.831  40.302  11.713
52725W        W23325  36.040  15.594  14.222
52726W        W23326  16.906  37.640   1.836
52727W        W23327  33.936  36.115  12.092
52728W        W23328  23.512  12.843   4.552
52729W        W23329  40.820  41.440  12.425
52730W        W23330  40.475  39.489   4.681
52731W        W23331  21.636   6.734  10.740
52732W        W23332  33.813  16.278   3.271
52733W        W23333  16.621  12.756   3.796
52734W        W23334   7.435  21.828   3.718
52735W        W23335  42.220  33.455  12.299
52736W        W23336   1.501   0.860  12.324
52737W        W23337   3.753  38.610  10.528
52738W        W23338   2.427  11.780  13.575
52739W        W23339   5.257  30.814   3.772
52740W        W23340  25.541  42.937   0.774
52741W        W23341  36.401   3.774  10.445
52742W        W23342  21.724  27.016  11.963
52743W        W23343   8.543  22.945  10.699
52744W        W23344  24.561   5.792  13.343
52745W        W23345  41.538  44.901  13.774
52746W        W23346  42.944  42.828   4.627
52747W        W23347  14.795  32.402  12.574
52748W        W23348  30.130   2.422  14.014
52749W        W23349   2.753  12.645   2.720
52750W        W23350  30.605   5.012   0.668
52751W        W23351   1.066  22.670   3.229
52752W        W23352  13.669  33.606  12.015
52753W        W23353  26.084  28.460  10.674
52754W        W23354  32.520  17.790  11.228
52755W        W23355  41.458   7.817  10.707
52756W        W23356  39.531  42.022   1.328
52757W        W23357   8.764  28.351   1.892
52758W        W23358  27.895  40.068   2.851
52759W        W23359  11.396  10.583   3.775
52760W        W23360   8.422  21.268   1.773
52761W        W23361  41.424  38.995   1.390
52762W        W23362  16.847  29.254   2.790
52763W        W23363  34.152  27.944  10.316
52764W        W23364  32.474  41.373  12.091
52765W        W23365  42.108  19.917   0.914
52766W        W23366  22.729   0.231  13.825
52767W        W23367  16.021   1.512   1.457
52768W        W23368  43.292  11.262  14.820
52769W        W23369  40.476  28.997  12.305
52770W        W23370  22.328  31.903  14.379
52771W        W23371  34.393  23.955  14.499
52772W        W23372  39.635  19.679  13.890
52773W        W23373   3.640  24.777  11.532
52774W        W23374  16.980  42.386  10.665
52775W        W23375  41.480  34.806  12.048
52776W        W23376  12.727   5.793   1.665
52777W        W23377  12.622   0.718   2.418
52778W        W23378   0.389  30.700   3.069
52779W        W23379  13.751   3.942   2.657
52780W        W23380   1.156  25.959   4.014
52781W        W23381  24.227   8.865  10.257
52782W        W23382  29.864  31.404  11.163
52783W        W23383  18.080  21.105   0.882
52784W        W23384  21.971  38.305   3.754
52785W        W23385  21.687  25.632  10.653
52786W        W23386  26.676  32.503   3.077
52787W        W23387  39.474  31.573  12.010
52788W        W23388  36.544  34.560   2.868
52789W        W23389  14.182  33.056   0.905
52790W        W23390  24.233  36.553  11.561
52791W        W23391  13.948  21.614  12.884
52792W        W23392   4.710  16.728   0.230
52793W        W23393  40.485  30.210  10.769
52794W        W23394   4.468  35.404   5.109
52795W        W23395  13.802  37.806  12.991
52796W        W23396  19.736   9.147   2.217
52797W        W23397  35.918   3.852  14.882
52798W        W23398  14.618  42.057   0.371
52799W        W23399  11.165  18.670   1.740
52800W        W23400  36.485  42.962  14.779
52801W        W23401  36.683  25.070  13.469
52802W        W23402  16.126  18.221  10.574
52803W        W23403  12.441  24.999  10.957
52804W        W23404  31.021  29.149  11.569
52805W        W23405   6.758  18.768  10.609
52806W        W23406  44.742  23.253   0.384
52807W        W23407  36.505  37.453  12.799
52808W        W23408  12.676  14.990  11.146
52809W        W23409   4.518  37.854   0.896
52810W        W23410  18.535  39.012  11.268
52811W        W23411  12.936  33.571   2.022
52812W        W23412  17.111  11.738   1.878
52813W        W23413  28.458  34.255   3.721
52814W        W23414   5.405  17.943  14.476
52815W        W23415   7.754  15.823   0.448
52816W        W23416  38.926  44.556   1.347
52817W        W23417  42.940  23.783   4.854
52818W        W23418  17.008  15.096   1.052
52819W        W23419   7.765   7.306   3.048
52820W        W23420  32.833  40.881   0.413
52821W        W23421  44.466  21.150   4.562
52822W        W23422  40.249  29.987  12.383
52823W        W23423  41.027  40.023   1.206
52824W        W23424  44.034   5.376  11.174
52825W        W23425  20.160   7.165  12.148
52826W        W23426   7.322  32.649  11.964
52827W        W23427  25.530   1.460   0.354
52828W        W23428  17.143  35.470  13.489
52829W        W23429  40.777   2.773   3.722
52830W        W23430  37.957  42.402   4.067
52831W        W23431   9.883  18.817  13.536
52832W        W23432   8.183   7.774  11.686
52833W        W23433  35.153  27.222  11.598
52834W        W23434  14.816  15.754  13.514
52835W        W23435  41.096  21.571  13.878
52836W        W23436  20.004  15.663  14.351
52837W        W23437  15.643  30.107  14.115
52838W        W23438  30.682  38.933   5.401
52839W        W23439   7.802  26.975  14.245
52840W        W23440  27.033  29.062  11.020
52841W        W23441  18.283   6.606  13.886
52842W        W23442  12.616  19.288   3.204
52843W        W23443  24.735  39.554   0.703
52844W        W23444  33.412   2.426   1.753
52845W        W23445   7.008   0.251   2.403
52846W        W23446  37.857  39.937   0.971
52847W        W23447  28.115  39.302   3.235
52848W        W23448  43.047   2.366   2.018
52849W        W23449   0.896  16.343  14.441
52850W        W23450  44.071  30.642   1.889
52851W        W23451  42.452  14.592   1.419
52852W        W23452  33.657   1.705   1.283
52853W        W23453   6.894  30.453   0.490
52854W        W23454  15.192   1.767  12.998
52855W        W23455  12.767   1.818   3.271
52856W        W23456  22.466  31.095   2.653
52857W        W23457  26.276   9.260   0.404
52858W        W23458  34.675   4.344   2.285
52859W        W23459   2.514   8.605  14.518
52860W        W23460  20.076  21.973  13.862
52861W        W23461  15.838  17.353   4.558
52862W        W23462  15.228  13.608   2.533
52863W        W23463  38.770  37.633  14.402
52864W        W23464  44.137  27.320  11.243
52865W        W23465  32.515  11.415   1.911
52866W        W23466  39.534  34.114   0.035
52867W        W23467  27.076   7.156  11.094
52868W        W23468  33.793   6.898  12.503
52869W        W23469   2.428   1.396  13.495
52870W        W23470  17.690   1.691  14.846
52871W        W23471  10.035  33.825   4.881
52872W        W23472  35.160  13.152  13.053
52873W        W23473  37.458   0.975  14.639
52874W        W23474  26.442   8.356   1.357
52875W        W23475  38.467  34.639   2.937
52876W        W23476  33.549  41.919  12.596
52877W        W23477  34.278   4.005   1.197
52878W        W23478  16.148  14.178  11.116
52879W        W23479  23.782  20.721   0.122
52880W        W23480  18.292  31.175   3.666
52881W        W23481  33.452  33.789  11.661
52882W        W23482   0.726   9.700   1.453
52883W        W23483  25.222  31.070   0.733
52884W        W23484   3.468  21.554  10.408
52885W        W23485  15.547  25.435  14.540
52886W        W23486   4.182  38.726   2.806
52887W        W23487   0.761   5.663  14.941
52888W        W23488   9.189  22.256   0.679
52889W        W23489  33.827  43.517  12.075
52890W        W23490  42.531  38.836   3.785
52891W        W23491  36.519  29.936   1.428
52892W        W23492  18.424  16.739  12.280
52893W        W23493  39.677   1.430   2.357
52894W        W23494  13.394  30.498  11.867
52895W        W23495   9.632  26.995  12.453
52896W        W23496  43.128  35.368  14.423
52897W        W23497  31.352  14.390  12.386
52898W        W23498  37.816  13.721   1.347
52899W        W23499  28.690  30.358   4.972
52900W        W23500  39.958  29.093  13.490
52901W        W23501   5.498   8.231  14.362
52902W        W23502  27.887  13.202   2.020
52903W        W23503  13.081   3.891  13.967
52904W        W23504  43.124   0.496   2.772
52905W        W23505  26.578  22.989   2.791
52906W        W23506  15.818  42.407   2.865
52907W        W23507  14.947   4.319  14.991
52908W        W23508  35.855  41.494  13.016
52909W        W23509   2.968   5.964  13.500
52910W        W23510  17.469  33.529  13.403
52911W        W23511  36.084  36.501  14.436
52912W        W23512  11.311  41.877  10.520
52913W        W23513  43.666  25.999   2.170
52914W        W23514  37.520  32.036  14.849
52915W        W23515  15.641   7.595   4.131
52916W        W23516  21.024  22.407   3.830
52917W        W23517  28.604  34.843   1.407
52918W        W23518  16.587  21.753   2.930
52919W        W23519  41.814   5.872  13.369
52920W        W23520  30.603  44.289  12.323
52921W        W23521  24.634  35.953   3.335
52922W        W23522  15.823  32.937   2.952
52923W        W23523   4.681  34.603  11.857
52924W        W23524  34.470  20.273   0.310
52925W        W23525  34.222  37.777   2.763
52926W        W23526   8.370   8.232   4.420
52927W        W23527  12.263  13.146   2.846
52928W        W23528  36.879  22.193  13.913
52929W        W23529  27.558  26.344  14.464
52930W        W23530  40.758  23.696   1.672
52931W        W23531  27.507   2.795  11.377
52932W        W23532  36.989  39.220   3.459
52933W        W23533   7.754   9.011   5.302
52934W        W23534  20.062  38.842   3.731
52935W        W23535  36.852  24.696   0.307
52936W        W23536  14.764  44.605  13.065
52937W        W23537   8.455  39.941   1.218
52938W        W23538  35.537   4.568  12.574
52939W        W23539  20.317  31.042   2.565
52940W        W23540  29.508   9.446   1.247
52941W        W23541  32.213  25.939   0.015
52942W        W23542   7.687  44.750  14.162
52943W        W23543  18.765  20.690   1.990
52944W        W23544   9.590  14.656  11.645
52945W        W23545  35.137  28.925   4.531
52946W        W23546  38.325   7.348   3.694
52947W        W23547  38.562  24.924  14.727
52948W        W23548  23.649  32.588  12.075
52949W        W23549  26.134  33.364   3.522
52950W        W23550  42.529  11.863   2.143
52951W        W23551  38.321  24.923  12.063
52952W        W23552  36.952  26.506  11.116
52953W        W23553  43.285  10.330  11.428
52954W        W23554   7.318  27.242   3.141
52955W        W23555  29.628  19.550   0.316
52956W        W23556   3.623  36.584  11.892
52957W        W23557  32.528  43.343  12.123
52958W        W23558  24.700  44.326  12.904
52959W        W23559   1.662  19.035  11.615
52960W        W23560  41.987  43.916  10.599
52961W        W23561   5.660  40.742  10.691
52962W        W23562  15.117  32.129   2.887
52963W        W23563  17.397  43.141  12.412
52964W        W23564  31.835  20.072   3.699
52965W        W23565   8.648  23.908   2.924
52966W        W23566  34.081  11.455   4.639
52967W        W23567   9.790  17.692   0.057
52968W        W23568  13.357   8.156   4.765
52969W        W23569  20.140  37.595  13.627
52970W        W23570  16.012  12.150   2.645
52971W        W23571   2.573  36.793  11.179
52972W        W23572  42.542  27.383   3.581
52973W        W23573  19.051  40.599   0.661
52974W        W23574  17.297  16.285   0.475
52975W        W23575  10.137  36.836  10.629
52976W        W23576  37.921   7.199   1.616
52977W        W23577  30.707  44.264   1.963
52978W        W23578   3.898  35.131  14.337
52979W        W23579  14.740  36.372  14.321
52980W        W23580  10.775  24.468   4.529
52981W        W23581  33.107  39.400   1.881
52982W        W23582  39.003  28.882  13.888
52983W        W23583   9.012   0.617  13.379
52984W        W23584   0.553  37.906  13.003
52985W        W23585  25.517  26.108  14.378
52986W        W23586  14.855  11.337  10.131
52987W        W23587  28.198   5.901  10.722
52988W        W23588  17.240  31.089   3.660
52989W        W23589  41.853  17.591  13.923
52990W        W23590  41.445   0.924  11.053
52991W        W23591  24.933  34.366  13.374
52992W        W23592  25.010  41.591  14.563
52993W        W23593  12.844   8.640   4.027
52994W        W23594  41.268  27.236  12.521
52995W        W23595  17.968  28.927  14.922
52996W        W23596  25.059  10.523  10.589
52997W        W23597  24.552  29.183  10.737
52998W        W23598  14.612  15.603   1.886
52999W        W23599   9.888   1.302  10.929
53000W        W23600   3.275  34.042  11.344
53001W        W23601  39.068  28.108   2.928
53002W        W23602  15.165  42.499   1.108
53003W        W23603  43.804  40.129   1.380
53004W        W23604   6.929  16.951   3.092
53005W        W23605  38.004  22.717   3.122
53006W        W23606  37.905  23.891   1.193
53007W        W23607  44.465  40.908  12.395
53008W        W23608  14.869  30.219   2.335
53009W        W23609  36.001  31.123  12.320
53010W        W23610  39.288  28.408   3.728
53011W        W23611  38.482  44.881   3.021
53012W        W23612  20.155  33.574  10.052
53013W        W23613  16.898  44.010  14.843
53014W        W23614  25.603   1.947  14.553
53015W        W23615  40.627   3.704  14.976
53016W        W23616   9.131  14.512  11.438
53017W        W23617  25.135  15.230  12.791
53018W        W23618   9.093  25.060  13.555
53019W        W23619  43.780   8.643   4.111
53020W        W23620  30.498  25.966   3.285
53021W        W23621  35.635  43.730   3.239
53022W        W23622  27.983  23.000   0.758
53023W        W23623  29.438  21.721   0.273
53024W        W23624  37.238  28.202  11.573
53025W        W23625  10.733  18.434   4.058
53026W        W23626  39.386  19.466   3.593
53027W        W23627  32.103  25.003   3.386
53028W        W23628  25.008  43.326   0.723
53029W        W23629   1.954  43.521  11.070
53030W        W23630   9.423   3.473  10.694
53031W        W23631  20.159  26.205  14.921
53032W        W23632  19.546  12.078   1.958
53033W        W23633   2.364  34.457   1.723
53034W        W23634  17.594   3.634   1.013
53035W        W23635  41.290  36.378   1.013
53036W        W23636  18.544  17.646  12.947
53037W        W23637  22.756  36.308  11.634
53038W        W23638  21.796  42.573   3.798
53039W        W23639  16.050  43.019   1.652
53040W        W23640   1.785  33.128  13.770
53041W        W23641  20.033  13.249   3.196
53042W        W23642   6.880  34.061   2.371
53043W        W23643  34.295  20.302  13.106
53044W        W23644   7.668  39.324   4.540
53045W        W23645  24.592  13.575  13.823
53046W        W23646   6.388  24.922   2.859
53047W        W23647   3.268   4.706   0.041
53048W        W23648  40.767  16.424  11.001
53049W        W23649  41.239   1.448  11.590
53050W        W23650  14.156  32.764   0.441
53051W        W23651  15.428  35.952  11.197
53052W        W23652  25.412  40.427  10.637
53053W        W23653  25.244  38.759   4.118
53054W        W23654  20.729  11.184  14.457
53055W        W23655   6.409  35.348   3.564
53056W        W23656   6.467  16.174  10.298
53057W        W23657  42.993   3.264   4.321
53058W        W23658  22.126   1.001   4.846
53059W        W23659  15.818   1.692  11.146
53060W        W23660  32.539  15.415  12.501
53061W        W23661  29.708  25.598  11.578
53062W        W23662  31.871  15.398  14.425
53063W        W23663  12.532  41.979   4.048
53064W        W23664  29.602  41.801   4.923
53065W        W23665   4.599  21.152   4.695
53066W        W23666   3.582  20.773  10.331
53067W        W23667  29.107   4.915  13.330
53068W        W23668  32.208  32.310   4.555
53069W        W23669   7.722  17.197   4.643
53070W        W23670  31.203  22.272  10.945
53071W        W23671  30.561  23.445  14.422
53072W        W23672  12.080   0.208   2.749
53073W        W23673  12.629  30.126  13.386
53074W        W23674  30.622  18.047   0.099
53075W        W23675  21.230  35.934  10.738
53076W        W23676  13.365  20.612  13.368
53077W        W23677  32.546  16.983   4.145
53078W        W23678  26.488  28.418  13.007
53079W        W23679  10.824   0.858   4.749
53080W        W23680  22.629   8.760  14.752
53081W        W23681   5.353   1.659   1.233
53082W        W23682  28.463  11.181   0.395
53083W        W23683  31.198   3.430   0.720
53084W        W23684   9.097   2.841   3.284
53085W        W23685   3.241  18.383   0.422
53086W        W23686  36.805  15.981   1.285
53087W        W23687   7.710  37.757  13.846
53088W        W23688  12.208  17.063  12.410
53089W        W23689  14.307   7.318  14.442
53090W        W23690  41.073   6.742  11.145
53091W        W23691  11.068  14.693   2.221
53092W        W23692   1.765  25.676   4.597
53093W        W23693   0.406  41.398   3.138
53094W        W23694   3.745   1.374   3.753
53095W        W23695  19.301  44.076  13.406
53096W        W23696  20.713  37.562   1.280
53097W        W23697  39.113  19.274   2.316
53098W        W23698  37.884  31.530   3.123
53099W        W23699  30.946  13.239  12.879
53100W        W23700   7.293   5.285   4.589
53101W        W23701  34.873  23.051  11.384
53102W        W23702  32.875  26.965   0.963
53103W        W23703  40.273  31.373   2.542
53104W        W23704  18.140  12.037  14.384
53105W        W23705  43.923  22.990  13.505
53106W        W23706  43.357  18.924  12.976
53107W        W23707  33.905   4.811  12.214
53108W        W23708   1.964  32.633   4.993
53109W        W23709  34.271  27.761   3.365
53110W        W23710  22.161  42.199   3.156
53111W        W23711  25.989  25.617   4.801
53112W        W23712  23.300  38.508  14.786
53113W        W23713   6.809  12.600   3.236
53114W        W23714   7.961  20.303  12.811
53115W        W23715  43.444   9.153   3.301
53116W        W23716   5.989  34.427  11.189
53117W        W23717  25.519  34.450  11.255
53118W        W23718  12.839  20.201  11.042
53119W        W23719  10.111  35.427   2.699
53120W        W23720  37.094  39.051  12.256
53121W        W23721  21.128  42.431  11.687
53122W        W23722  16.726  41.716   1.383
53123W        W23723  41.082  37.771  14.292
53124W        W23724  14.314  24.597   2.411
53125W        W23725   0.333  18.284  14.348
53126W        W23726  21.038  23.583   1.768
53127W        W23727  35.459  35.361   2.251
53128W        W23728  31.029  16.292   1.224
53129W        W23729  10.319   4.888   2.388
53130W        W23730  33.471  35.028   4.025
53131W        W23731  40.050  43.933  11.666
53132W        W23732   5.664  25.703  11.607
53133W        W23733   9.246  10.083  14.892
53134W        W23734   0.819  25.958  13.994
53135W        W23735  38.407  22.969   2.880
53136W        W23736  30.884  18.910   0.349
53137W        W23737  23.759  19.662  12.346
53138W        W23738   6.698  40.045  12.571
53139W        W23739  12.224   7.208  14.870
53140W        W23740  43.126   2.304   1.505
53141W        W23741  27.646  24.896   0.759
53142W        W23742  24.387  27.585   0.360
53143W        W23743  15.653  22.632  13.956
53144W        W23744  31.139  24.966  10.871
53145W        W23745   3.012  30.573  14.932
53146W        W23746   2.859  31.861  13.373
53147W        W23747  33.454  21.601   0.881
53148W        W23748  43.122   4.461   0.892
53149W        W23749  20.693  30.389   4.470
53150W        W23750  13.700  23.509  13.836
53151W        W23751  18.801   2.206  10.673
53152W        W23752   5.352  10.788  12.874
53153W        W23753   6.118  41.450  14.349
53154W        W23754  40.635  28.406   3.648
53155W        W23755  38.100  34.667  12.874
53156W        W23756  10.696  27.684   4.107
53157W        W23757  14.074  18.658  12.101
53158W        W23758   6.255  18.017   2.246
53159W        W23759  41.713  12.270   1.929
53160W        W23760   8.274  33.198   1.904
53161W        W23761  11.042  10.358  12.653
53162W        W23762   8.221  34.715  12.023
53163W        W23763  28.490  13.723   1.703
53164W        W23764  37.453  11.944  10.768
53165W        W23765   0.454  43.788  10.676
53166W        W23766   4.902  20.059  11.837
53167W        W23767  19.770  17.104   0.355
53168W        W23768  38.262  20.641   0.819
53169W        W23769  40.876   3.313   5.032
53170W        W23770  39.389  35.618   0.432
53171W        W23771  16.816  10.703   0.539
53172W        W23772  40.571   2.649  13.332
53173W        W23773  16.656  34.587   3.605
53174W        W23774  10.683  25.938  13.091
53175W        W23775  13.210   4.638  14.487
53176W        W23776  11.121  41.564   4.540
53177W        W23777  39.092  41.492  11.316
53178W        W23778  30.363  38.587   1.818
53179W        W23779  12.386  27.591  14.222
53180W        W23780  44.269  29.172  13.044
53181W        W23781  13.712   2.030   3.186
53182W        W23782  30.455  30.316  13.452
53183W        W23783   9.025  34.148   3.732
53184W        W23784  25.069  40.472   0.335
53185W        W23785  28.517  39.357  13.038
53186W        W23786  18.523  43.485  12.041
53187W        W23787  14.385   0.353  12.552
53188W        W23788  13.148  18.478  14.040
53189W        W23789  22.720  10.621  12.088
53190W        W23790  19.529  41.315   2.320
53191W        W23791  24.164  24.957  14.012
53192W        W23792  15.437  24.558   3.250
53193W        W23793  27.693  15.930  14.242
53194W        W23794  28.520  33.613  14.029
53195W        W23795  19.518  16.068   2.914
53196W        W23796  25.716   4.139   4.979
53197W        W23797   3.689   8.764  13.027
53198W        W23798  12.960  23.955   1.256
53199W        W23799  26.578  27.711   2.825
53200W        W23800  44.051  37.382   2.570
53201W        W23801  19.040  28.098  14.966
53202W        W23802  11.404  19.103   2.299
53203W        W23803  27.416  38.033  12.477
53204W        W23804  22.714  43.740   3.691
53205W        W23805   3.481  38.894  12.975
53206W        W23806  37.429  14.077   2.224
53207W        W23807  40.835  11.369  13.333
53208W        W23808  25.218  10.999  13.762
53209W        W23809  13.988  41.845   4.251
53210W        W23810  19.734  36.054   0.375
53211W        W23811  35.416  20.990   3.542
53212W        W23812  31.290  39.437  12.056
53213W        W23813  31.804  33.405   3.327
53214W        W23814   4.369  13.815  14.496
53215W        W23815  39.896  44.530   4.684
53216W        W23816   1.877  35.356  14.989
53217W        W23817  43.939   4.868   0.510
53218W        W23818  34.524  26.203  10.937
53219W        W23819  31.946  15.979   9.984
53220W        W23820  33.860  33.047   4.744
53221W        W23821  39.091  30.278  13.367
53222W        W23822  11.829   2.205   3.210
53223W        W23823  43.997   9.110   2.445
53224W        W23824  36.621  41.461  12.066
53225W        W23825   9.259  25.739   1.077
53226W        W23826  19.158  18.841  11.694
53227W        W23827  39.642   6.277   3.077
53228W        W23828   9.389   1.368  14.515
53229W        W23829  44.002  10.666   1.220
53230W        W23830  30.481  42.746  10.747
53231W        W23831  35.438  13.353  13.837
53232W        W23832  16.979  43.802   2.756
53233W        W23833  35.033  26.966   4.226
53234W        W23834  12.764   1.541  10.614
53235W        W23835  31.235   2.680   3.302
53236W        W23836  43.041  28.179  11.485
53237W        W23837  30.034  36.361   2.248
53238W        W23838  11.552  18.224  11.165
53239W        W23839  43.360  12.574  11.586
53240W        W23840  14.232  17.207  13.667
53241W        W23841  12.577  28.874  13.623
53242W        W23842  25.521   5.175   1.468
53243W        W23843  17.553   6.648  10.645
53244W        W23844  36.983   0.930  11.167
53245W        W23845   1.412  14.517   1.979
53246W        W23846  24.725  31.374   1.379
53247W        W23847  25.601  38.282   1.748
53248W        W23848  31.731  12.118  12.485
53249W        W23849   3.611  32.406  11.814
53250W        W23850  41.957  44.546  14.857
53251W        W23851  20.172   6.858  13.016
53252W        W23852   1.745  29.204   3.614
53253W        W23853  19.045  33.002  11.039
53254W        W23854  41.911  19.711  10.287
53255W        W23855   7.667  23.518   3.495
53256W        W23856  38.071  24.709   0.864
53257W        W23857  28.667   7.830   2.567
53258W        W23858  25.005  36.047   4.226
53259W        W23859  15.034  24.135   0.508
53260W        W23860  14.115  34.864  13.908
53261W        W23861  36.893  32.883  13.526
53262W        W23862   7.919  37.508  10.563
53263W        W23863  44.742   7.698   0.679
53264W        W23864   9.849  29.757   2.438
53265W        W23865   2.213  31.892   2.391
53266W        W23866  37.069  16.737   4.719
53267W        W23867  34.604   0.873  10.984
53268W        W23868  28.654  38.890   1.378
53269W        W23869   8.336  43.017  12.914
53270W        W23870  35.767  32.011   1.182
53271W        W23871   8.703  20.195  12.444
53272W        W23872  15.130   1.554  12.485
53273W        W23873   4.820   3.385  14.294
53274W        W23874  40.390  13.575   4.587
53275W        W23875  18.758  16.706   3.919
53276W        W23876  34.471  41.856  11.075
53277W        W23877  13.852  14.636  12.379
53278W        W23878  23.913  39.028  11.031
53279W        W23879  42.210   8.794  12.543
53280W        W23880   3.310  11.700  12.457
53281W        W23881  36.418   3.702  10.949
53282W        W23882  33.126  31.016   3.841
53283W        W23883  21.103  42.973   1.268
53284W        W23884  43.990  36.057   3.169
53285W        W23885  32.617  35.131   4.285
53286W        W23886  19.622  29.435   2.521
53287W        W23887  22.722  32.528  12.182
53288W        W23888  28.409  42.815  10.688
53289W        W23889  37.451  30.112  11.820
53290W        W23890  18.716  18.129  14.668
53291W        W23891  31.116  16.354   2.145
53292W        W23892  43.999  44.204  11.979
53293W        W23893  16.283   0.262   1.683
53294W        W23894  31.370  25.256  13.857
53295W        W23895  39.037  18.541   1.008
53296W        W23896  12.541  38.365   4.229
53297W        W23897  33.195  44.172   4.076
53298W        W23898  12.812  39.821   1.752
53299W        W23899  30.016  40.629  14.127
53300W        W23900  36.049   2.590  10.684
53301W        W23901  16.046  16.624  14.414
53302W        W23902   5.365  26.577   3.793
53303W        W23903  25.204  27.549  10.335
53304W        W23904  10.259  10.417   2.818
53305W        W23905   5.387  38.569   1.948
53306W        W23906  31.743   8.704   3.672
53307W        W23907  39.839  42.362  10.710
53308W        W23908  40.447  34.815  11.965
53309W        W23909   4.199  44.445  12.186
53310W        W23910  14.918  24.634  12.061
53311W        W23911  29.861   9.269   2.224
53312W        W23912  35.841  18.107   1.482
53313W        W23913  23.795  24.942   1.928
53314W        W23914  44.412   4.858   3.857
53315W        W23915  23.783  11.312  11.456
53316W        W23916  43.335   4.405  13.852
53317W        W23917   9.722   9.472  12.757
53318W        W23918  43.781  20.503  14.921
53319W        W23919  44.908  42.820   3.708
53320W        W23920  33.937  42.002   1.875
53321W        W23921  11.284   6.258  10.993
53322W        W23922  12.644  18.300   2.937
53323W        W23923  15.200  16.143   0.452
53324W        W23924  29.936  28.943   1.743
53325W        W23925  28.957  33.703   0.715
53326W        W23926  26.744  40.552   0.152
53327W        W23927  19.298  34.549  12.571
53328W        W23928  33.934  14.287  12.632
53329W        W23929  44.308  42.195   5.399
53330W        W23930  12.662   6.148  13.875
53331W        W23931  14.131   2.307   3.700
53332W        W23932  36.930  33.681  14.364
53333W        W23933  20.539  33.916   2.732
53334W        W23934  38.466  40.771   2.410
53335W        W23935  36.586  29.620  11.671
53336W        W23936  16.928  19.887  10.136
53337W        W23937  24.808   9.129  12.400
53338W        W23938  20.233  29.829   0.610
53339W        W23939  18.220  44.949   1.874
53340W        W23940  24.473  29.686   1.903
53341W        W23941  21.560  37.002  13.325
53342W        W23942   1.344  26.043   2.696
53343W        W23943  43.258  26.265  14.711
53344W        W23944  41.788  29.172   2.662
53345W        W23945   7.814  13.249  11.596
53346W        W23946  40.261   4.807   2.520
53347W        W23947  43.031  43.010   1.913
53348W        W23948  26.691  26.280   2.807
53349W        W23949  17.275  30.290  11.293
53350W        W23950  31.425  34.130  14.839
53351W        W23951  13.626   7.843   3.125
53352W        W23952  31.111  44.258  13.890
53353W        W23953  27.799  24.657   1.437
53354W        W23954  36.713  15.300  14.928
53355W        W23955  32.503   8.445   4.802
53356W        W23956  31.612  13.060   0.922
53357W        W23957  28.905   9.197  14.807
53358W        W23958  38.524   6.412  13.156
53359W        W23959  27.512  14.182  13.726
53360W        W23960  26.222   2.752  14.667
53361W        W23961  35.641   2.906   4.851
53362W        W23962   2.005  31.842   3.748
53363W        W23963  14.303  13.807  14.723
53364W        W23964   1.216  24.475  14.358
53365W        W23965  33.550  20.529  14.922
53366W        W23966  41.466  10.088   4.185
53367W        W23967   3.539  12.413   0.368
53368W        W23968  30.445  35.119   0.165
53369W        W23969  44.880  35.552   3.685
53370W        W23970  36.036   9.084  12.878
53371W        W23971  43.991  23.147  13.023
53372W        W23972   5.961   4.693   0.009
53373W        W23973  11.921  44.478  11.842
53374W        W23974  35.988   5.272   2.601
53375W        W23975   9.887  19.441  12.470
53376W        W23976   0.038   0.402   2.264
53377W        W23977   6.911  29.574   3.350
53378W        W23978  17.386  43.278   3.420
53379W        W23979  16.824  32.611   3.199
53380W        W23980   3.476  35.349   1.367
53381W        W23981   1.478  17.740   2.096
53382W        W23982  14.726  17.404   0.524
53383W        W23983   2.019   6.459   4.890
53384W        W23984  33.028   3.874  13.768
53385W        W23985  19.522   3.197   3.360
53386W        W23986  31.591  34.414   2.412
53387W        W23987  32.562   7.326  10.710
53388W        W23988  23.259  25.994   3.242
53389W        W23989  43.833  14.224   0.420
53390W        W23990  16.864  25.529  13.901
53391W        W23991  17.144  12.868  11.872
53392W        W23992  19.799  22.649  13.497
53393W        W23993  24.707  16.445   4.238
53394W        W23994  40.599  11.402  12.454
53395W        W23995  37.413  27.953  14.462
53396W        W23996  19.166  44.362   4.117
53397W        W23997  26.253  29.494  11.527
53398W        W23998  41.239   0.382  13.935
53399W        W23999  35.577  38.420  11.802
53400W        W24000  34.940  19.651   1.389
53401W        W24001  29.101  33.460   1.152
53402W        W24002  16.863  31.220   1.416
53403W        W24003  43.767  17.782  12.628
53404W        W24004  44.896   7.213   3.883
53405W        W24005  37.839  22.807  12.076
53406W        W24006  37.099  23.943   0.784
53407W        W24007  29.339  15.463   3.923
53408W        W24008  24.343  12.365  11.406
53409W        W24009   5.066  34.740   5.376
53410W        W24010  21.736  27.798   0.516
53411W        W24011  16.972  44.984   2.326
53412W        W24012  30.560  11.029  14.280
53413W        W24013  20.940  31.635   2.211
53414W        W24014  13.442  29.219  11.521
53415W        W24015  15.333  37.415   0.444
53416W        W24016   7.924   2.311   3.729
53417W        W24017  17.144   9.139  13.275
53418W        W24018   4.876  11.656   4.644
53419W        W24019   2.918  25.106   0.861
53420W        W24020  14.125  43.791  14.462
53421W        W24021  42.922  35.602  10.696
53422W        W24022  28.575  34.821  12.509
53423W        W24023  28.421   4.258   3.819
53424W        W24024  24.496  34.651   1.471
53425W        W24025  13.259  29.106   3.687
53426W        W24026  20.759  33.007  14.674
53427W        W24027  39.893  22.568   0.379
53428W        W24028   7.889   5.297   0.820
53429W        W24029   3.329  18.709  12.048
53430W        W24030  41.080  10.742   0.939
53431W        W24031   8.165   6.367  12.239
53432W        W24032  10.869   3.017  11.208
53433W        W24033  22.227  12.151  14.945
53434W        W24034  13.600   0.127  13.017
53435W        W24035  40.346  29.870   3.131
53436W        W24036  44.680  41.018   4.011
53437W        W24037  24.613  25.683  12.679
53438W        W24038   1.348  40.208  11.192
53439W        W24039  20.816  15.694  11.136
53440W        W24040  26.922  23.912   1.119
53441W        W24041  27.708  14.008   1.133
53442W        W24042  14.230  35.948   3.413
53443W        W24043  37.382   5.504   4.233
53444W        W24044  36.287  32.434  11.487
53445W        W24045  19.275  38.912  14.796
53446W        W24046   9.776  27.436  14.259
53447W        W24047  39.855  19.245  14.760
53448W        W24048  13.927  20.625   4.297
53449W        W24049  18.933  13.218   0.606
53450W        W24050   5.990  18.081   4.194
53451W        W24051  36.897  39.244  12.909
53452W        W24052   8.387  27.873   1.172
53453W        W24053  39.882  26.076   1.173
53454W        W24054  13.603  28.152  13.384
53455W        W24055  12.102  31.633  14.859
53456W        W24056   6.089  38.891   2.908
53457W        W24057   3.945  14.731  10.589
53458W        W24058  35.312  33.644  12.948
53459W        W24059  23.743  23.001   4.292
53460W        W24060  38.827  11.383  13.048
53461W        W24061  25.146  10.799  14.331
53462W        W24062   4.765   6.408  11.108
53463W        W24063  33.536  32.133   4.110
53464W        W24064  24.879  18.313   1.188
53465W        W24065   1.751  31.332   4.500
53466W        W24066  39.520  11.297   3.745
53467W        W24067   0.439  10.405   4.673
53468W        W24068  34.852  40.285   0.482
53469W        W24069   6.832  23.706   4.643
53470W        W24070  16.762  33.158  14.944
53471W        W24071   8.786  18.287  11.319
53472W        W24072  42.099   2.748   5.109
53473W        W24073  29.887  37.464  14.411
53474W        W24074   2.576  40.489  11.286
53475W        W24075  33.418   8.906  11.572
53476W        W24076  11.112  15.516   3.452
53477W        W24077  31.544   7.114  12.479
53478W        W24078  38.873  24.036   1.206
53479W        W24079  34.293  21.695   1.800
53480W        W24080  10.213   3.161  12.444
53481W        W24081  38.887  14.593   4.580
53482W        W24082  42.028  21.751  12.828
53483W        W24083  38.507  22.312  14.306
53484W        W24084   8.067  17.328   0.884
53485W        W24085  24.320  30.597   5.126
53486W        W24086  16.949  12.983   1.680
53487W        W24087  41.161  23.558   0.795
53488W        W24088  19.627  12.920  13.373
53489W        W24089  30.381  42.159   5.131
53490W        W24090  43.068  37.977  13.331
53491W        W24091  22.706  35.514  10.995
53492W        W24092  18.288  39.802  11.645
53493W        W24093  35.536   4.641   2.728
53494W        W24094  19.524   2.816  14.734
53495W        W24095  33.612  44.875  13.774
53496W        W24096  23.733  11.949  14.728
53497W        W24097   0.672  36.625   1.938
53498W        W24098  17.501  43.518   2.327
53499W        W24099  28.169  27.225  10.634
53500W        W24100  39.822   1.749  12.588
53501W        W24101   7.443   2.887   4.554
53502W        W24102  24.456  12.143  14.654
53503W        W24103  43.287   5.897   0.757
53504W        W24104  24.026  26.375  11.566
53505W        W24105   0.737  43.922   0.417
53506W        W24106  26.149  25.072  11.893
53507W        W24107  17.970   7.098  13.144
53508W        W24108  34.525  23.347   4.044
53509W        W24109   2.998   0.825   2.695
53510W        W24110   0.902  20.692   0.011
53511W        W24111  21.119  15.149   0.929
53512W        W24112  38.370  40.871  10.464
53513W        W24113  23.107   4.500  12.062
53514W        W24114  24.086  21.370   3.264
53515W        W24115  15.288  36.859  13.805
53516W        W24116  25.700  40.951   4.069
53517W        W24117  36.945  43.194  11.476
53518W        W24118  18.088  13.655   2.849
53519W        W24119  20.476   4.258   2.656
53520W        W24120  29.985   8.581   1.990
53521W        W24121   9.068  18.096  14.343
53522W        W24122  21.650  28.954  13.477
53523W        W24123  42.344  33.520   1.358
53524W        W24124   4.932  21.078  10.255
53525W        W24125   2.731   6.937   4.057
53526W        W24126  40.313   7.635   1.467
53527W        W24127   3.046  35.327   4.006
53528W        W24128  28.689  27.760  13.329
53529W        W24129  40.872  20.681  14.260
53530W        W24130  38.977  11.243   1.284
53531W        W24131   5.351  34.871   2.708
53532W        W24132   7.196  20.447  10.746
53533W        W24133  17.688   8.428   4.035
53534W        W24134   7.116  38.098   1.841
53535W        W24135   3.934  36.344   3.843
53536W        W24136  44.913   7.880   2.047
53537W        W24137  29.148  39.329  10.304
53538W        W24138   3.696  28.908   0.417
53539W        W24139  33.798   1.731  12.917
53540W        W24140   0.502   3.988  13.379
53541W        W24141  17.043  36.288   0.896
53542W        W24142  21.681   5.169   1.280
53543W        W24143  21.058  34.327  11.062
53544W        W24144   5.830  26.088  14.206
53545W        W24145  26.488  36.919  12.426
53546W        W24146  24.946   8.273  12.916
53547W        W24147  44.211  17.255   4.242
53548W        W24148   3.385  38.738   1.847
53549W        W24149  18.581  35.133  14.410
53550W        W24150  41.920  16.987  14.740
53551W        W24151   0.957  42.927  14.777
53552W        W24152  23.368   1.598  13.799
53553W        W24153  21.439   0.020   1.182
53554W        W24154  16.915  22.688   9.741
53555W        W24155   7.212   9.843   3.314
53556W        W24156   8.668   4.046   2.904
53557W        W24157   3.325  10.603  12.142
53558W        W24158  11.599   4.912   1.726
53559W        W24159  21.804   0.042  12.942
53560W        W24160  24.570  23.167  14.353
53561W        W24161  16.114  20.717   3.254
53562W        W24162  12.841  37.033  10.646
53563W        W24163  18.136  27.450  13.788
53564W        W24164  39.820   6.052  10.645
53565W        W24165  18.778  13.071   2.251
53566W        W24166   0.306   9.352   1.141
53567W        W24167  25.747  21.204  12.698
53568W        W24168   7.126  40.267  13.477
53569W        W24169  18.074   0.401  11.254
53570W        W24170  20.688  33.588  13.371
53571W        W24171  25.001  21.351   3.017
53572W        W24172   5.508  11.823   0.793
53573W        W24173   8.374   8.832  12.467
53574W        W24174  36.056  18.784   0.957
53575W        W24175  29.235  29.796   3.616
53576W        W24176  39.304   2.938  14.171
53577W        W24177   0.985  17.471  12.413
53578W        W24178  33.561   5.279  14.163
53579W        W24179  39.576  33.645  11.504
53580W        W24180  30.078  32.476  12.340
53581W        W24181   2.407  22.584  12.119
53582W        W24182  13.406  10.804  14.828
53583W        W24183  18.326  11.116   4.638
53584W        W24184  30.013   2.885   1.857
53585W        W24185  10.718  12.287  14.973
53586W        W24186  21.321  39.326  11.212
53587W        W24187  22.425  19.478  13.284
53588W        W24188  44.296   8.751   3.373
53589W        W24189  40.884  30.571   2.647
53590W        W24190  21.637  39.953   4.095
53591W        W24191  39.512  22.048   0.952
53592W        W24192  42.950   6.179  14.984
53593W        W24193  27.436  40.152   9.703
53594W        W24194  34.496  38.973   4.173
53595W        W24195  44.098  39.487  12.050
53596W        W24196  11.764  36.560   0.896
53597W        W24197   6.090  11.860  14.199
53598W        W24198   8.936   9.193   3.987
53599W        W24199  29.164  24.038  11.571
53600W        W24200  20.957   7.992   2.474
53601W        W24201  34.077  30.805  11.541
53602W        W24202  23.921  24.929   2.579
53603W        W24203  30.255  24.074  14.527
53604W        W24204  40.679   3.288  10.281
53605W        W24205  12.882  24.686  11.052
53606W        W24206  43.039   5.850  13.866
53607W        W24207  21.188  23.066   4.619
53608W        W24208  40.521  23.307  12.990
53609W        W24209   8.795  42.301  11.987
53610W        W24210  36.500  36.887   4.204
53611W        W24211  17.832  14.043  13.263
53612W        W24212  32.803  44.636   2.342
53613W        W24213  26.147  19.280   1.844
53614W        W24214   0.252  11.598  11.544
53615W        W24215  28.431   9.954   0.836
53616W        W24216  14.318   6.335   0.451
53617W        W24217   6.284  13.208   0.136
53618W        W24218  36.398  41.511  12.907
53619W        W24219   0.364  19.112   2.438
53620W        W24220  21.094  15.030  11.204
53621W        W24221  33.556  21.794  13.711
53622W        W24222   5.316  30.951   2.313
53623W        W24223  41.039  23.024  11.997
53624W        W24224   6.188  12.717   4.121
53625W        W24225  13.732  37.634  14.654
53626W        W24226  13.202   0.086   0.396
53627W        W24227  24.765  35.085   2.771
53628W        W24228  31.060  35.747  13.459
53629W        W24229  11.934  44.255  12.316
53630W        W24230  32.727  24.318   3.439
53631W        W24231   4.845  26.516   3.691
53632W        W24232  34.308  21.456  14.246
53633W        W24233  42.249  14.672   3.343
53634W        W24234  16.813  12.948  10.684
53635W        W24235  22.403  18.126   0.279
53636W        W24236  39.898  24.206  14.731
53637W        W24237   7.912  15.226   4.667
53638W        W24238  34.340  31.162   0.430
53639W        W24239  28.096  23.479  10.581
53640W        W24240  18.058  31.840  14.935
53641W        W24241  31.071  42.235  12.473
53642W        W24242  42.328   0.698  10.832
53643W        W24243  16.244  42.085  12.517
53644W        W24244  41.493  42.320  12.534
53645W        W24245  24.199  27.506   3.679
53646W        W24246  33.902  41.518  13.391
53647W        W24247   0.847  35.381   2.332
53648W        W24248  41.672  39.859  14.554
53649W        W24249  34.480  40.641  11.707
53650W        W24250  22.296   0.968  12.934
53651W        W24251  35.010   1.730  11.004
53652W        W24252  19.717  31.949   1.692
53653W        W24253   2.886  32.620   1.265
53654W        W24254  23.757  13.560  12.594
53655W        W24255  12.572  26.049   2.813
53656W        W24256  26.047  17.317   0.777
53657W        W24257  30.689   9.416   2.601
53658W        W24258  19.858  14.079   1.101
53659W        W24259  40.291  30.494  12.499
53660W        W24260  36.834  30.206   0.053
53661W        W24261  40.085  20.234  14.821
53662W        W24262  20.447  42.357  13.982
53663W        W24263  43.682  36.902  11.586
53664W        W24264   2.580  31.621  10.741
53665W        W24265  16.735  41.573   2.348
53666W        W24266   4.553  42.174  13.614
53667W        W24267  44.548  30.209   0.350
53668W        W24268   1.372  14.320   0.444
53669W        W24269  10.454   8.676  11.400
53670W        W24270  36.601  42.043   4.215
53671W        W24271  25.068   9.825   3.330
53672W        W24272   1.980  44.939  11.434
53673W        W24273  14.334  21.070   3.393
53674W        W24274  41.594  37.751  14.424
53675W        W24275  20.808  22.233  14.494
53676W        W24276   2.121  39.003  14.961
53677W        W24277  39.421   5.690   1.796
53678W        W24278  10.276   7.774  11.910
53679W        W24279  19.363  43.164  12.336
53680W        W24280  37.126  34.571  14.550
53681W        W24281  29.084   4.810   4.131
53682W        W24282  10.563  36.132   2.215
53683W        W24283   1.002  37.441  10.183
53684W        W24284   6.903  44.046  11.983
53685W        W24285  19.753  12.222  12.466
53686W        W24286  11.761   0.756  12.540
53687W        W24287  35.490  41.805   0.329
53688W        W24288  17.980  12.444   4.191
53689W        W24289   8.257  35.370   2.663
53690W        W24290   3.145  13.121  14.964
53691W        W24291   3.744  43.226  13.572
53692W        W24292  35.793  10.143   2.286
53693W        W24293  27.516  21.260   2.750
53694W        W24294  33.107   3.810   1.702
53695W        W24295  27.753  29.572  10.410
53696W        W24296  34.639   4.362   0.345
53697W        W24297   1.334  24.914  11.884
53698W        W24298  23.683  38.445  12.614
53699W        W24299  44.485  21.909   4.183
53700W        W24300   1.772   7.332  13.009
53701W        W24301   9.863  36.135  14.990
53702W        W24302   1.857  17.783   1.325
53703W        W24303  13.735   8.626  14.360
53704W        W24304   6.531  23.223  13.407
53705W        W24305  17.537  20.637   0.267
53706W        W24306   6.675   5.379   0.912
53707W        W24307  41.232  41.492  14.677
53708W        W24308  23.701  11.232   4.925
53709W        W24309  28.685   2.398  12.939
53710W        W24310  35.301  19.816  12.997
53711W        W24311  18.194   6.426  11.575
53712W        W24312  42.167  39.292   2.886
53713W        W24313   7.203  23.474  14.985
53714W        W24314  41.998  42.396  13.071
53715W        W24315   6.493  44.462  11.416
53716W        W24316  28.252  11.755   0.151
53717W        W24317  19.921  32.828   0.889
53718W        W24318  32.917  25.648  11.442
53719W        W24319  41.512  38.788  14.380
53720W        W24320  36.534  15.967  12.505
53721W        W24321  41.793  14.088   2.261
53722W        W24322  13.095  20.870  14.466
53723W        W24323  40.313  25.194  12.936
53724W        W24324  23.031  41.326   4.925
53725W        W24325  20.003  11.631  14.416
53726W        W24326  26.776  38.605  14.786
53727W        W24327  26.542  44.730  12.757
53728W        W24328  10.695  12.035   0.432
53729W        W24329   7.214   5.937   0.953
53730W        W24330  36.510  34.922  11.078
53731W        W24331  12.430   2.327   2.771
53732W        W24332  33.486  19.992   0.848
53733W        W24333  13.277  40.938   2.303
53734W        W24334  36.768  37.464   0.379
53735W        W24335  38.853  21.830   1.610
53736W        W24336   1.276  21.314   4.322
53737W        W24337  13.548  42.785  13.543
53738W        W24338  17.406  39.685  13.616
53739W        W24339  29.180  27.183  12.961
53740W        W24340  29.645  40.498  14.481
53741W        W24341  19.090  18.741  12.191
53742W        W24342  36.228  33.645  12.080
53743W        W24343  30.263  43.696   3.181
53744W        W24344  26.750  41.048  12.952
53745W        W24345  16.767  33.911   0.754
53746W        W24346  36.480  13.176  14.085
53747W        W24347  35.641  19.569   0.960
53748W        W24348  36.022  38.378  10.826
53749W        W24349  44.969  17.079   3.203
53750W        W24350  32.041  36.528   5.038
53751W        W24351  20.246   9.191   2.822
53752W        W24352  39.833   1.810   4.474
53753W        W24353  25.066  41.288  13.864
53754W        W24354  35.564  32.880  14.810
53755W        W24355  18.644  21.515   0.293
53756W        W24356  16.215  31.680   3.606
53757W        W24357  14.737  40.789   2.815
53758W        W24358  29.745  12.736   2.839
53759W        W24359   5.162  22.086  12.928
53760W        W24360  42.477  30.110  11.143
53761W        W24361  42.095  30.567  10.947
53762W        W24362  30.848  23.889   1.759
53763W        W24363  11.886  16.912  10.831
53764W        W24364  11.821   0.248   0.968
53765W        W24365  39.333  14.338   4.480
53766W        W24366  32.541  20.848   4.572
53767W        W24367  44.705   4.368   2.679
53768W        W24368  37.416  20.663   1.943
53769W        W24369  27.958  27.204  14.061
53770W        W24370  30.557  36.149  11.168
53771W        W24371   4.313  14.665   0.058
53772W        W24372  20.675   2.392  14.629
53773W        W24373  39.234  21.544  10.846
53774W        W24374   6.725   6.796  12.422
53775W        W24375  42.305  21.806   4.059
53776W        W24376  25.067  11.265   3.131
53777W        W24377  21.235  11.661  13.935
53778W        W24378  43.145  33.955  11.407
53779W        W24379   5.459   0.044  13.377
53780W        W24380  11.976  14.743  13.402
53781W        W24381  27.394  16.244  14.537
53782W        W24382   0.006  36.893  14.089
53783W        W24383  15.583  26.534  13.388
53784W        W24384  44.265  40.992   9.864
53785W        W24385  21.640  35.818   4.675
53786W        W24386  40.993  23.035  12.864
53787W        W24387  17.983   0.972  13.315
53788W        W24388  15.916   9.248  12.825
53789W        W24389  15.150  14.126  14.817
53790W        W24390  35.140   2.573  12.198
53791W        W24391  32.293  39.344   3.189
53792W        W24392  23.245  33.063   2.817
53793W        W24393   5.275  31.169   1.339
53794W        W24394  34.599  11.321  14.397
53795W        W24395  43.047   3.440  12.459
53796W        W24396  20.472  17.060  11.202
53797W        W24397   2.917   3.776   4.517
53798W        W24398   0.995  14.930  14.556
53799W        W24399  38.913   3.237   1.341
53800W        W24400  38.011  10.905   1.528
53801W        W24401  35.800  27.029   0.915
53802W        W24402  11.393  21.710   3.734
53803W        W24403  37.702  41.310  10.260
53804W        W24404  40.703  14.408   4.605
53805W        W24405  21.889  29.516   4.074
53806W        W24406   5.032  36.991   2.987
53807W        W24407  24.532  39.177   2.804
53808W        W24408   5.865   4.501  12.566
53809W        W24409  40.579  34.356   0.860
53810W        W24410  14.015   4.648  14.934
53811W        W24411  18.952  29.636   2.697
53812W        W24412  24.562  17.112  12.022
53813W        W24413   2.312  11.139  11.946
53814W        W24414  18.217   3.676  12.784
53815W        W24415  16.803  10.172   4.515
53816W        W24416  12.578   1.806  13.844
53817W        W24417   2.269  25.243   2.427
53818W        W24418  22.034  29.888   3.151
53819W        W24419  26.207  24.171   1.232
53820W        W24420  14.335  29.708   3.407
53821W        W24421  16.269   6.533  14.015
53822W        W24422  23.071  43.869   2.313
53823W        W24423   3.808  31.943   1.395
53824W        W24424  33.339   4.073   3.815
53825W        W24425   4.290  28.364   3.708
53826W        W24426   2.531  21.622   1.798
53827W        W24427  18.732   4.791  13.950
53828W        W24428   6.879  24.755  11.601
53829W        W24429   5.816   2.759  11.537
53830W        W24430  10.140  18.005  11.095
53831W        W24431  31.035  35.448   4.575
53832W        W24432  42.869  22.250  13.971
53833W        W24433  23.129   7.440   1.910
53834W        W24434  33.597  11.168  14.325
53835W        W24435   3.970  31.981   4.161
53836W        W24436  35.859   0.237   0.440
53837W        W24437  18.102  37.379   1.113
53838W        W24438  36.573  25.577  10.716
53839W        W24439   5.966   5.137   0.362
53840W        W24440  17.561  42.487   4.833
53841W        W24441  36.449  29.517  14.815
53842W        W24442   9.342  13.387  12.118
53843W        W24443  39.563  17.162  10.940
53844W        W24444  12.812  32.087   0.405
53845W        W24445  21.654   1.769   0.623
53846W        W24446   6.058   7.235  14.858
53847W        W24447  42.498  44.658  11.104
53848W        W24448  44.755  41.106  13.544
53849W        W24449  25.666  22.562   4.550
53850W        W24450   7.235  29.460  12.438
53851W        W24451   4.135  33.294   0.768
53852W        W24452   0.796   0.222   0.280
53853W        W24453  10.379  15.035   4.179
53854W        W24454  13.592  20.558  13.852
53855W        W24455   1.886  34.617   2.740
53856W        W24456  11.440   7.887   4.695
53857W        W24457  43.490  36.287  12.962
53858W        W24458  17.441  35.610   2.553
53859W        W24459  28.912  12.151   2.240
53860W        W24460  32.907  42.778  13.413
53861W        W24461  41.835  16.077  13.819
53862W        W24462  24.750  32.937   3.797
53863W        W24463  38.005  19.379   3.280
53864W        W24464  35.460  39.253  14.415
53865W        W24465   9.499  25.559   0.661
53866W        W24466  34.511  41.889   2.564
53867W        W24467  39.280   8.887  10.618
53868W        W24468  26.965  37.867   4.394
53869W        W24469   2.960  17.083   3.257
53870W        W24470  20.159  44.817  14.234
53871W        W24471  31.069   6.413  12.228
53872W        W24472  42.903   1.207   1.294
53873W        W24473  25.766  30.191   0.479
53874W        W24474   0.143  34.424   0.336
53875W        W24475  28.859  44.441   3.798
53876W        W24476  35.642  41.401   1.877
53877W        W24477  31.496  29.526   4.825
53878W        W24478   4.924  13.558   4.669
53879W        W24479  23.029  23.017   0.414
53880W        W24480  43.018  23.677   0.902
53881W        W24481  35.109  12.789  10.761
53882W        W24482  17.574  16.149   2.245
53883W        W24483  40.439  10.851  11.732
53884W        W24484  42.888  27.608   3.239
53885W        W24485  30.372   8.588  12.490
53886W        W24486   1.779  18.577   3.136
53887W        W24487  44.962  29.949  11.628
53888W        W24488  43.389  25.805  12.571
53889W        W24489  20.566  28.243  14.482
53890W        W24490   6.463  43.565   1.182
53891W        W24491  19.639   5.918   1.742
53892W        W24492  18.084  27.566   3.009
53893W        W24493  38.873  25.079   4.157
53894W        W24494  18.614  32.903   1.705
53895W        W24495  43.264  12.725   0.698
53896W        W24496   7.762  38.499   2.537
53897W        W24497  11.341   1.855  10.410
53898W        W24498   2.434  30.704  10.743
53899W        W24499   2.196  40.325  10.830
53900W        W24500  27.044  11.226   1.319
53901W        W24501  21.881   3.535  11.569
53902W        W24502  18.965  35.760  14.841
53903W        W24503   4.649  31.080  11.156
53904W        W24504  38.013   3.890  14.470
53905W        W24505  44.314  32.407  11.574
53906W        W24506  41.993  36.849  13.076
53907W        W24507  21.713   1.232   4.571
53908W        W24508   2.217  11.823  10.826
53909W        W24509  43.793  15.390   2.881
53910W        W24510  16.620   2.352  13.494
53911W        W24511  41.832   4.021  12.174
53912W        W24512  34.446  14.936  14.820
53913W        W24513  18.917  42.668  12.451
53914W        W24514  38.108   1.661   0.986
53915W        W24515  22.547  11.110   3.333
53916W        W24516   2.792   5.635   1.625
53917W        W24517  34.601  21.168  12.971
53918W        W24518  36.315  12.912   2.720
53919W        W24519   7.644  28.786   0.045
53920W        W24520  24.814   8.730  10.943
53921W        W24521  22.146  27.663   0.808
53922W        W24522  26.744  18.156   0.691
53923W        W24523   8.965  16.800  11.662
53924W        W24524  16.604  20.998  13.313
53925W        W24525  18.320  38.814  13.808
53926W        W24526  34.318   9.820  13.152
53927W        W24527  44.875  31.517   4.550
53928W        W24528   2.807  31.153  10.708
53929W        W24529  33.603  44.803   3.548
53930W        W24530  15.203  40.918   2.023
53931W        W24531  28.111  43.199   2.192
53932W        W24532  24.451  19.106  11.274
53933W        W24533  30.701  39.461   0.499
53934W        W24534  40.356   9.791  13.927
53935W        W24535  26.910   5.417   1.952
53936W        W24536  13.178  10.686   4.277
53937W        W24537  37.852  26.538   4.626
53938W        W24538  29.181  33.985   3.400
53939W        W24539  22.364  39.860  14.598
53940W        W24540  31.408  40.476  11.811
53941W        W24541  30.977  36.566  11.712
53942W        W24542  37.023  24.260   3.750
53943W        W24543   5.741  44.430  13.816
53944W        W24544  40.333  33.192  14.373
53945W        W24545  34.646   3.958  13.381
53946W        W24546  23.500  18.262  14.364
53947W        W24547  36.552  22.030  11.405
53948W        W24548  38.356  32.573  11.955
53949W        W24549  23.682  13.749   4.966
53950W        W24550  43.043   9.300   2.333
53951W        W24551  42.878  26.462  12.287
53952W        W24552  21.530  39.335  12.479
53953W        W24553  27.937  42.780   0.872
53954W        W24554  27.513  29.154  11.175
53955W        W24555  22.260   2.652  10.732
53956W        W24556  26.579  25.424   2.167
53957W        W24557  13.180  42.911  14.974
53958W        W24558   9.581  10.649  11.045
53959W        W24559   8.773   3.741  13.152
53960W        W24560  24.122  10.284  14.355
53961W        W24561  42.366   5.674   9.342
53962W        W24562  10.807  40.795  13.875
53963W        W24563   2.255   2.393  12.598
53964W        W24564  19.485  11.899   0.322
53965W        W24565  32.729  35.423  12.978
53966W        W24566  18.601  31.859  10.806
53967W        W24567  33.228  39.451   5.069
53968W        W24568   4.694  26.598   0.663
53969W        W24569   9.677  29.446   2.005
53970W        W24570  11.810  25.027  10.389
53971W        W24571  31.238  42.938  13.355
53972W        W24572  15.313   4.963   1.751
53973W        W24573   1.725  43.919  13.811
53974W        W24574  32.586  17.328  14.495
53975W        W24575  26.530  36.900  11.597
53976W        W24576  10.446   4.663  14.810
53977W        W24577  33.662  37.575   2.226
53978W        W24578  39.372   0.480  11.883
53979W        W24579   7.891   8.995  13.317
53980W        W24580  20.534  39.379   1.299
53981W        W24581  36.874  21.268   4.640
53982W        W24582  35.258   5.260   2.152
53983W        W24583   8.449   1.303   3.065
53984W        W24584   4.667   6.130  13.909
53985W        W24585   4.363  23.090  12.014
53986W        W24586  34.959  21.984  13.833
53987W        W24587  43.037  10.842  11.215
53988W        W24588   9.886   7.279  12.145
53989W        W24589  31.608   5.548   0.398
53990W        W24590  16.892  29.084   4.083
53991W        W24591   6.656  41.334   4.119
53992W        W24592  36.423   2.763   0.443
53993W        W24593   1.068  19.443   2.276
53994W        W24594   9.187  16.552   4.903
53995W        W24595   9.451  13.161  10.474
53996W        W24596  20.576   3.883   0.838
53997W        W24597  16.080   7.360   1.152
53998W        W24598  28.316  38.446   0.744
53999W        W24599  39.356   5.081  14.816
54000W        W24600  43.561  14.650   3.548
54001W        W24601  18.334  29.911  12.083
54002W        W24602  34.007  35.565  13.538
54003W        W24603   8.768  17.504   3.623
54004W        W24604   1.231  14.108  10.451
54005W        W24605  39.827  31.057  14.587
54006W        W24606  29.308   7.268  13.531
54007W        W24607  28.866  14.671  11.083
54008W        W24608   0.955  16.972   5.097
54009W        W24609  25.526  19.028  12.615
54010W        W24610  22.958  16.421  13.087
54011W        W24611  34.271   2.494  10.905
54012W        W24612  26.652  38.907   1.768
54013W        W24613  20.645   5.175   3.679
54014W        W24614  22.957  40.360  14.960
54015W        W24615   7.637   9.792  14.881
54016W        W24616  34.047  38.836  11.056
54017W        W24617  34.892  22.325   2.963
54018W        W24618  27.170  23.339   1.029
54019W        W24619  31.896  16.583  11.022
54020W        W24620  23.951  20.476  12.898
54021W        W24621   0.150   7.152   1.355
54022W        W24622  34.186  15.203  12.995
54023W        W24623  15.154   8.848   2.861
54024W        W24624   0.634  41.270   5.009
54025W        W24625   9.128  15.985  14.719
54026W        W24626  24.460   6.260  10.621
54027W        W24627  39.547  17.075   4.310
54028W        W24628   4.516   2.512  11.092
54029W        W24629  27.658  22.152  10.915
54030W        W24630  18.750   5.334  12.777
54031W        W24631  35.976  35.383   2.793
54032W        W24632  28.215  35.095  13.219
54033W        W24633   5.468  42.341   3.119
54034W        W24634  15.855   1.184  12.028
54035W        W24635  27.127  21.283   2.372
54036W        W24636  18.041  43.392  11.885
54037W        W24637  42.721  16.184  12.926
54038W        W24638  20.928  40.713  13.401
54039W        W24639  11.104  23.393   4.161
54040W        W24640  36.438  20.600  11.055
54041W        W24641  11.223  24.638  14.292
54042W        W24642  18.462  43.987  13.894
54043W        W24643   8.783  18.860  13.042
54044W        W24644  26.358   9.970  13.549
54045W        W24645  42.075  44.561  12.515
54046W        W24646  14.138  42.110  11.977
54047W        W24647   4.172  41.334   1.746
54048W        W24648  15.827   5.953   1.740
54049W        W24649  39.335  12.367  12.478
54050W        W24650   6.236   4.052   2.788
54051W        W24651   6.127  27.101   4.507
54052W        W24652  33.542  41.007   0.667
54053W        W24653  12.125  28.144  12.522
54054W        W24654   2.349  36.691  14.243
54055W        W24655  41.417  11.193   3.335
54056W        W24656   3.136  37.001   0.888
54057W        W24657  23.930   6.836   0.997
54058W        W24658  12.160   7.174   1.756
54059W        W24659   7.909  39.709  11.526
54060W        W24660  30.416   6.980  12.024
54061W        W24661  23.508   2.129  14.407
54062W        W24662  44.247  16.542  13.285
54063W        W24663  41.783  19.653   0.583
54064W        W24664  31.694   5.928  14.438
54065W        W24665  19.552  21.306  14.813
54066W        W24666  42.853  13.728  12.932
54067W        W24667  32.681  30.733   1.471
54068W        W24668  23.207  33.648   0.653
54069W        W24669  36.039  38.205   3.476
54070W        W24670  13.264  23.959   4.904
54071W        W24671  25.552  33.459  11.521
54072W        W24672  10.361  25.952  14.942
54073W        W24673  16.569  40.294  14.168
54074W        W24674  30.345  34.943   3.622
54075W        W24675  13.304  12.779  11.862
54076W        W24676   9.705   2.384   4.211
54077W        W24677  23.309  11.618  12.601
54078W        W24678  28.655  32.096   1.674
54079W        W24679  15.347  20.011   0.406
54080W        W24680   7.970  31.702   1.540
54081W        W24681  36.999  34.176  14.248
54082W        W24682  14.084  13.678  11.534
54083W        W24683  15.696   8.994   2.350
54084W        W24684  19.264  15.534   3.827
54085W        W24685  44.052   0.471   2.101
54086W        W24686  19.153  33.510  14.980
54087W        W24687  18.654  39.280   0.956
54088W        W24688   7.207  32.615  14.321
54089W        W24689  22.310  36.050   3.681
54090W        W24690  37.499  33.217   3.607
54091W        W24691  15.580  39.844  11.997
54092W        W24692   4.166  35.974   3.578
54093W        W24693   1.302  27.917   4.047
54094W        W24694  13.339   2.790  13.474
54095W        W24695  30.782  35.245   3.566
54096W        W24696  21.106  11.217  11.093
54097W        W24697  23.574  10.804   0.462
54098W        W24698   8.735  16.254  14.484
54099W        W24699  36.833  43.224   1.877
54100W        W24700  25.435  40.462   2.907
54101W        W24701  38.592  10.798  11.505
54102W        W24702  36.002  13.777   3.871
54103W        W24703  17.955  43.732   2.210
54104W        W24704  18.735  31.374   0.985
54105W        W24705  16.630  15.238  14.702
54106W        W24706   2.022  29.560   3.389
54107W        W24707  32.344  43.381  14.998
54108W        W24708   2.578  18.737   4.805
54109W        W24709  34.948  17.661   1.611
54110W        W24710  22.914  33.792   1.786
54111W        W24711  15.099  42.756   3.619
54112W        W24712   9.120   6.763  12.423
54113W        W24713  12.788  31.991  13.603
54114W        W24714  33.425  26.858   2.620
54115W        W24715  10.796  35.087  13.916
54116W        W24716  41.725   9.218  12.078
54117W        W24717   7.152  44.055  11.151
54118W        W24718   2.420  44.437   0.660
54119W        W24719  16.272  26.420  12.485
54120W        W24720  27.020  20.938   0.507
54121W        W24721  12.239   9.080   3.195
54122W        W24722  11.141  41.880  11.869
54123W        W24723  39.805   9.467   2.667
54124W        W24724  38.792  33.126   4.846
54125W        W24725   2.171  40.733  12.852
54126W        W24726  15.211  39.927   2.728
54127W        W24727  28.512  34.732   2.822
54128W        W24728  37.643  19.085   1.383
54129W        W24729  29.600  37.119   1.928
54130W        W24730   0.814  12.365   1.805
54131W        W24731  32.124  10.179   3.003
54132W        W24732  35.749  42.284  14.329
54133W        W24733  31.120  39.360   0.074
54134W        W24734   1.901  40.497  14.226
54135W        W24735   3.978  43.499   1.438
54136W        W24736   4.308  28.423  13.161
54137W        W24737  17.043  36.142  12.123
54138W        W24738   5.817  27.516   3.753
54139W        W24739  39.779   3.022  10.844
54140W        W24740  23.252  29.940   3.026
54141W        W24741  36.652  32.727   1.471
54142W        W24742  40.981   3.268   9.823
54143W        W24743  21.037  13.859  10.597
54144W        W24744  23.580   8.097  12.891
54145W        W24745  20.427  43.792   4.080
54146W        W24746  25.445   1.446   3.656
54147W        W24747  22.381  12.452  12.490
54148W        W24748  19.075  15.500  14.957
54149W        W24749  12.154  18.044   3.586
54150W        W24750  41.859   1.583  10.784
54151W        W24751  29.104  12.637   1.791
54152W        W24752  29.205   6.564  13.904
54153W        W24753  15.770  27.714  11.648
54154W        W24754  27.618  33.107  13.747
54155W        W24755  29.074   8.133  14.936
54156W        W24756  41.362  12.710  12.034
54157W        W24757  18.754  12.662  14.932
54158W        W24758  10.153   3.004  14.837
54159W        W24759  43.205  35.483   3.739
54160W        W24760   3.154   9.204  14.496
54161W        W24761  33.024  11.097   1.879
54162W        W24762  28.457  21.707   4.291
54163W        W24763  18.562  36.596   3.276
54164W        W24764  11.566  35.569   1.763
54165W        W24765   6.253  18.616   0.483
54166W        W24766   2.783  19.599   5.034
54167W        W24767   5.640  24.229   4.707
54168W        W24768  28.588  43.289   0.445
54169W        W24769  13.159  16.810   2.805
54170W        W24770  16.646  13.293  11.518
54171W        W24771  22.214   0.499  12.007
54172W        W24772  22.471  15.247   2.690
54173W        W24773  15.573  19.022   2.792
54174W        W24774  10.268   7.171   3.186
54175W        W24775  11.403  36.921  14.533
54176W        W24776   0.231   9.924   1.372
54177W        W24777  10.081  18.839   0.795
54178W        W24778  12.128   7.555  12.969
54179W        W24779  20.509  33.172   2.232
54180W        W24780   6.413  31.106   3.391
54181W        W24781  28.019  21.687  11.419
54182W        W24782  36.976  38.601  10.577
54183W        W24783  11.866  11.139  13.504
54184W        W24784  21.265  26.447   4.945
54185W        W24785  21.637  19.300   2.907
54186W        W24786  41.842   1.516  11.568
54187W        W24787  10.187  15.864   1.474
54188W        W24788  38.750  19.629   5.466
54189W        W24789  28.122  19.841  11.022
54190W        W24790  18.781   8.777  13.974
54191W        W24791  12.677  19.656  14.751
54192W        W24792  18.752  14.033   5.034
54193W        W24793  16.644  35.414   1.909
54194W        W24794  29.994   1.407  13.494
54195W        W24795  31.476   3.899  14.500
54196W        W24796  39.780  23.698   1.959
54197W        W24797  41.562   1.225   4.481
54198W        W24798  11.678  35.273  14.101
54199W        W24799  42.254  20.956  11.506
54200W        W24800  16.499  12.820  14.039
54201W        W24801   3.719  25.466   2.893
54202W        W24802  26.546   1.743   0.387
54203W        W24803  39.824  15.310  11.070
54204W        W24804   6.212  32.167   2.754
54205W        W24805  19.342  33.915   1.264
54206W        W24806   9.836  38.606   2.135
54207W        W24807  40.062  28.271  12.638
54208W        W24808  14.262   2.393  10.680
54209W        W24809  32.995  10.886   4.810
54210W        W24810  37.787  39.068   0.716
54211W        W24811  13.908   3.679  12.504
54212W        W24812   3.291  38.313   0.001
54213W        W24813  22.957  21.588  14.372
54214W        W24814  34.456  38.814   1.914
54215W        W24815   0.230  32.086   1.191
54216W        W24816   0.964   8.070   3.996
54217W        W24817  13.641  29.628  13.376
54218W        W24818  25.398   6.795  12.380
54219W        W24819  43.203  41.923  14.476
54220W        W24820  21.709  42.423   3.258
54221W        W24821   0.742  39.904   4.161
54222W        W24822  15.722  44.508  13.121
54223W        W24823  29.993  16.087  14.745
54224W        W24824  13.600  14.948   3.178
54225W        W24825  12.870   3.748  14.433
54226W        W24826  11.894   3.834   4.201
54227W        W24827   8.687  37.049  13.053
54228W        W24828  11.141  11.803  14.461
54229W        W24829  36.549  28.679   4.269
54230W        W24830  12.205  18.867   2.173
54231W        W24831  32.380  18.000   4.107
54232W        W24832  22.411  14.277   2.628
54233W        W24833  41.326   7.036  12.455
54234W        W24834   4.793  29.196  13.130
54235W        W24835  38.853  35.736  10.284
54236W        W24836  18.971  10.605  11.504
54237W        W24837  33.610  10.772  13.949
54238W        W24838  11.509  21.111   0.977
54239W        W24839  21.201   8.683  14.021
54240W        W24840  25.467  37.883  11.410
54241W        W24841  25.573  30.095   4.787
54242W        W24842  28.698  38.223  12.234
54243W        W24843  20.079  36.511  12.118
54244W        W24844  25.026  13.230  14.492
54245W        W24845   4.992  37.310  12.526
54246W        W24846   4.100  10.692   4.102
54247W        W24847  41.318  30.947   4.181
54248W        W24848   1.855   1.547  13.781
54249W        W24849  32.390   5.139   1.925
54250W        W24850  14.818  44.390  12.604
54251W        W24851  37.075  19.140   4.108
54252W        W24852   1.913   9.926   2.318
54253W        W24853  26.509  41.307   1.712
54254W        W24854  27.290  40.626   3.617
54255W        W24855  34.411  27.008  12.639
54256W        W24856  32.312   1.855   3.368
54257W        W24857  35.817  16.573   4.067
54258W        W24858  19.646  15.656   0.661
54259W        W24859  31.975   4.422   2.799
54260W        W24860  11.854  22.388   4.152
54261W        W24861   6.355   1.745   1.664
54262W        W24862  31.927  41.208   2.302
54263W        W24863  34.812   3.513   0.846
54264W        W24864  42.975  41.776  10.728
54265W        W24865  42.198   4.466   1.789
54266W        W24866  15.185  29.068   2.318
54267W        W24867  32.638  14.120  10.596
54268W        W24868  14.434  19.272  14.894
54269W        W24869  31.948   3.404   1.765
54270W        W24870  35.291   9.717  10.791
54271W        W24871  17.731  28.643   2.415
54272W        W24872   7.718  38.899   0.464
54273W        W24873  28.216   2.996   1.687
54274W        W24874  19.018   9.937   3.303
54275W        W24875  19.033  23.681   3.216
54276W        W24876  25.656   2.845   1.286
54277W        W24877  19.815   9.292  12.565
54278W        W24878  18.841  40.867   2.937
54279W        W24879   9.632  40.332   2.595
54280W        W24880   4.630   0.471  11.547
54281W        W24881  44.801  24.036   3.776
54282W        W24882  39.974  19.152  12.750
54283W        W24883  27.666  39.576   3.160
54284W        W24884  43.534  42.296  14.351
54285W        W24885   0.482  42.059   0.658
54286W        W24886  14.339  41.459   4.159
54287W        W24887   4.576  20.596  11.957
54288W        W24888  15.051  12.237   2.343
54289W        W24889  29.958  40.940   0.966
54290W        W24890  19.703   0.316   3.886
54291W        W24891   5.508  35.013  11.246
54292W        W24892  29.789  28.590  14.478
54293W        W24893  11.138   9.400  10.406
54294W        W24894  33.330  25.507  13.357
54295W        W24895  16.593   8.660   2.082
54296W        W24896  18.129  33.503   4.005
54297W        W24897  15.130  41.502   0.754
54298W        W24898  38.057  28.195   2.263
54299W        W24899   5.925  14.829  13.331
54300W        W24900   9.763  35.869  10.353
54301W        W24901  11.777  38.190   4.734
54302W        W24902  44.340  38.826  10.880
54303W        W24903  22.189   6.636  12.485
54304W        W24904  28.954  44.042  12.260
54305W        W24905  39.250   4.840   3.611
54306W        W24906  38.331  37.599   3.789
54307W        W24907   6.661  38.984   0.284
54308W        W24908   1.354   9.754  11.459
54309W        W24909   1.878  39.138  10.582
54310W        W24910  44.792  18.637  11.543
54311W        W24911   9.183  29.614   0.320
54312W        W24912  16.886  20.344   0.422
54313W        W24913   4.492   0.016  10.868
54314W        W24914  33.870  41.995  14.873
54315W        W24915  44.328   0.353  11.996
54316W        W24916  44.699   0.627  13.866
54317W        W24917  30.891  40.359  10.810
54318W        W24918   5.326  43.810  11.013
54319W        W24919  40.489  33.873  11.409
54320W        W24920  20.034   0.821   3.781
54321W        W24921  35.939  20.863  11.752
54322W        W24922  16.297   1.960   0.130
54323W        W24923  16.940   9.196   1.326
54324W        W24924  36.647  14.436  12.374
54325W        W24925  44.288  42.910  11.863
54326W        W24926  41.647  42.855   0.284
54327W        W24927   9.027  43.787   2.472
54328W        W24928   8.166   0.782   4.193
54329W        W24929  30.662  21.329   4.614
54330W        W24930  35.428  36.532   4.576
54331W        W24931  38.846  33.593  12.622
54332W        W24932  41.801  31.200   4.247
54333W        W24933  19.222   7.069   2.308
54334W        W24934  19.566  32.220   2.391
54335W        W24935  11.712   1.832  13.966
54336W        W24936  17.617  23.450  11.922
54337W        W24937  39.855  13.295   2.645
54338W        W24938   3.283  13.378   4.359
54339W        W24939   3.749  18.240  12.927
54340W        W24940  35.838  37.959  13.852
54341W        W24941   6.672  26.010   1.794
54342W        W24942  25.608  44.269   4.630
54343W        W24943  25.785  10.623  11.569
54344W        W24944  33.671  17.125   3.881
54345W        W24945  14.831  17.086   0.917
54346W        W24946   0.011  29.625   0.943
54347W        W24947  44.703  33.272   2.677
54348W        W24948  22.188  43.381   4.139
54349W        W24949  34.951  17.562   2.124
54350W        W24950  19.278  12.699  14.963
54351W        W24951  32.205  23.537  11.501
54352W        W24952  33.436   2.267  14.375
54353W        W24953  35.306  30.453  13.901
54354W        W24954  33.943  20.089   2.442
54355W        W24955  21.616  18.144  13.303
54356W        W24956  30.585  31.163   4.591
54357W        W24957  32.471  27.171  10.642
54358W        W24958  21.957  31.116   2.713
54359W        W24959  29.802  22.333  13.175
54360W        W24960  27.209  32.280  12.509
54361W        W24961   7.115  10.785  10.812
54362W        W24962  41.971  13.792   1.856
54363W        W24963   6.100   7.628  11.874
54364W        W24964  37.198   7.097  14.765
54365W        W24965  37.256  41.978   3.598
54366W        W24966  43.993  40.852   0.665
54367W        W24967  25.405  11.889   2.359
54368W        W24968  38.544  21.116   2.256
54369W        W24969  22.192   0.683   3.883
54370W        W24970   9.731  15.485   3.703
54371W        W24971  10.222  14.192   1.973
54372W        W24972  24.885  27.070  12.012
54373W        W24973   1.552  44.339  13.579
54374W        W24974  27.481  21.724  10.682
54375W        W24975  32.684  35.640   1.924
54376W        W24976  15.267  36.003   0.705
54377W        W24977  38.425  15.324  12.007
54378W        W24978  31.128   0.983  13.582
54379W        W24979  44.864  40.140  11.138
54380W        W24980  42.824   9.564   0.675
54381W        W24981  38.880   1.455  14.191
54382W        W24982   8.864   9.815   1.213
54383W        W24983  12.760   6.846  11.196
54384W        W24984  28.440  28.423  13.749
54385W        W24985  33.365  13.879   1.290
54386W        W24986  10.349   0.300   3.486
54387W        W24987   1.234  13.098  12.376
54388W        W24988  35.313  43.570   3.648
54389W        W24989  21.303  41.284  10.669
54390W        W24990  14.718  29.424   3.646
54391W        W24991  35.059  22.679   3.345
54392W        W24992  40.833  29.930  13.957
54393W        W24993   4.690  24.241  10.657
54394W        W24994  35.076   1.040   2.306
54395W        W24995  38.335  24.514   0.456
54396W        W24996  14.380   6.763  12.823
54397W        W24997  29.101  39.280  12.988
54398W        W24998  37.888  32.935   1.199
54399W        W24999  23.222  40.845   3.583
54400W        W25000  22.592  25.902   0.773
54401W        W25001  27.128  21.610   3.921
54402W        W25002  12.100  35.661   1.882
54403W        W25003  35.439  44.904   4.033
54404W        W25004  15.665  36.832  13.394
54405W        W25005   8.941   5.346  14.846
54406W        W25006   1.320   9.597  10.473
54407W        W25007  22.248  33.356   0.511
54408W        W25008  35.496  14.757   0.341
54409W        W25009   7.895  17.263   3.700
54410W        W25010  41.345  21.998  10.769
54411W        W25011  19.219  18.696   0.501
54412W        W25012  13.136  18.074   0.532
54413W        W25013  29.166  27.994  13.391
54414W        W25014  27.976  34.764  14.163
54415W        W25015  38.640  26.200   0.251
54416W        W25016  39.839  16.083  11.510
54417W        W25017  16.974  34.566  10.528
54418W        W25018  33.687   3.310  14.327
54419W        W25019  15.321  23.126   1.430
54420W        W25020  37.466   5.065  11.001
54421W        W25021  30.873  12.807   1.192
54422W        W25022  28.931  34.395  12.080
54423W        W25023  20.078  15.843   1.689
54424W        W25024  33.502  30.938  13.323
54425W        W25025   0.448  29.730   0.030
54426W        W25026  43.756  30.012   1.738
54427W        W25027  22.774  43.189  12.911
54428W        W25028  11.130   9.232  11.427
54429W        W25029   9.897  44.305  13.420
54430W        W25030  29.472  19.306  13.959
54431W        W25031  15.840   9.678  12.058
54432W        W25032  32.903  15.872   3.850
54433W        W25033   4.941  41.946   4.626
54434W        W25034  22.240  26.695  11.119
54435W        W25035  40.510  14.269  11.526
54436W        W25036  29.665  26.478  11.583
54437W        W25037   8.577  11.756  14.437
54438W        W25038   4.193  41.001  14.224
54439W        W25039   6.430  35.990   1.208
54440W        W25040  27.516  15.754   0.480
54441W        W25041  17.796  15.995  14.447
54442W        W25042  37.398  44.335  13.973
54443W        W25043   9.270   7.747   1.505
54444W        W25044  28.589  22.041  10.399
54445W        W25045  36.012  27.582  12.921
54446W        W25046   0.997  21.780  13.376
54447W        W25047  29.231  29.169   2.216
54448W        W25048  35.640  14.092  13.183
54449W        W25049  44.158  38.533   1.777
54450W        W25050  28.030  36.788   1.663
54451W        W25051  33.935  16.378   0.545
54452W        W25052   8.935  27.187  14.946
54453W        W25053  37.544  33.509  13.913
54454W        W25054  22.197  22.663   0.763
54455W        W25055  20.792  27.210   1.479
54456W        W25056  15.197  27.201  12.428
54457W        W25057  39.701  38.961   4.058
54458W        W25058  27.628   9.383   1.729
54459W        W25059  19.769   1.833   4.545
54460W        W25060  35.606   5.985  12.578
54461W        W25061   0.363  16.701   4.454
54462W        W25062  33.619  43.454  10.719
54463W        W25063  16.697  39.953   0.476
54464W        W25064  39.329  23.379   2.908
54465W        W25065  43.468  43.657  14.385
54466W        W25066  40.889  31.791   5.198
54467W        W25067  31.927  16.798   4.155
54468W        W25068   3.899  19.530   4.625
54469W        W25069  12.160  39.822   3.847
54470W        W25070  11.331  26.903   3.104
54471W        W25071   9.856   3.939   1.168
54472W        W25072  10.243  40.368   0.794
54473W        W25073  23.992  12.612   3.127
54474W        W25074   7.391  43.290  12.480
54475W        W25075  26.475  22.622  12.077
54476W        W25076  44.810  27.461  12.587
54477W        W25077  39.385  24.950   1.902
54478W        W25078  21.230  14.938  13.643
54479W        W25079  13.531  40.524  11.725
54480W        W25080  29.679  17.344  13.408
54481W        W25081   5.146  32.093  12.422
54482W        W25082  24.237  10.627  13.860
54483W        W25083  24.522  35.434  11.008
54484W        W25084   3.429  36.361   3.856
54485W        W25085   7.341   0.051  11.115
54486W        W25086  12.631   9.952   2.287
54487W        W25087  18.393  38.755  14.997
54488W        W25088  16.967  26.526   2.158
54489W        W25089  29.258  13.713   0.337
54490W        W25090  37.890   6.273  13.961
54491W        W25091  31.900  28.687  13.501
54492W        W25092   5.778  20.654   3.416
54493W        W25093  26.984   2.008  12.002
54494W        W25094  22.377   8.715  10.251
54495W        W25095  13.035  40.390  11.686
54496W        W25096  44.976  21.783  12.551
54497W        W25097   5.729  21.215   5.161
54498W        W25098  40.164   4.220  12.639
54499W        W25099  17.248  23.730   3.743
54500W        W25100  41.800  36.449  10.738
54501W        W25101  10.287   2.351   1.232
54502W        W25102  24.071  44.950  12.803
54503W        W25103  31.011  25.245  11.691
54504W        W25104  42.922   8.702  11.544
54505W        W25105  13.702   8.867   4.557
54506W        W25106  30.420  32.576  10.959
54507W        W25107  26.946  12.273   2.913
54508W        W25108  23.284   4.195   1.029
54509W        W25109  37.272  39.022  10.580
54510W        W25110  11.325   9.676   1.486
54511W        W25111  17.143   9.349   2.420
54512W        W25112  26.148  43.296   1.449
54513W        W25113  31.756  29.919  13.482
54514W        W25114  44.934   1.459  13.812
54515W        W25115  38.611  13.011   2.273
54516W        W25116  16.210  44.346  14.012
54517W        W25117  10.632  12.933  11.541
54518W        W25118   0.447   4.700  11.468
54519W        W25119  22.712  20.990   3.251
54520W        W25120  25.135   2.243  14.402
54521W        W25121  16.395  34.635  14.124
54522W        W25122   1.423  21.023  13.021
54523W        W25123  26.050  42.275   1.306
54524W        W25124   9.341  18.658   4.170
54525W        W25125  22.610  18.591   0.156
54526W        W25126  40.527  29.902  12.779
54527W        W25127  26.658  26.983  14.578
54528W        W25128  12.738  36.890   4.225
54529W        W25129   6.846  24.246  11.623
54530W        W25130  42.880  24.161  12.087
54531W        W25131  23.705  43.754  13.960
54532W        W25132  38.579  32.103  12.543
54533W        W25133  12.543  29.588   0.465
54534W        W25134  31.008  16.627  11.250
54535W        W25135   3.028   4.149   1.787
54536W        W25136  43.212   1.904   1.827
54537W        W25137  11.767  15.043   4.147
54538W        W25138  29.445   4.386   3.593
54539W        W25139  35.933   9.639   4.105
54540W        W25140  22.210  44.340  12.436
54541W        W25141  10.805  31.707   4.592
54542W        W25142  28.432  20.376   0.851
54543W        W25143  15.704  32.308  11.599
54544W        W25144  43.793  17.581  13.964
54545W        W25145   1.759  28.887  13.936
54546W        W25146  11.739  19.497  10.370
54547W        W25147   6.343  23.305   0.948
54548W        W25148   8.907  28.350   2.711
54549W        W25149   0.397  37.091  10.633
54550W        W25150   6.531   7.855   1.640
54551W        W25151  27.922  30.888  11.983
54552W        W25152  19.559  30.309  11.533
54553W        W25153  30.121   4.969  11.677
54554W        W25154  40.367  28.432   4.567
54555W        W25155  23.147  28.435   4.283
54556W        W25156   8.867  37.311   0.327
54557W        W25157  21.803  11.743   2.574
54558W        W25158   1.527  29.779  14.000
54559W        W25159  24.954  23.138  13.007
54560W        W25160  42.066  26.048  11.471
54561W        W25161  43.015  31.641   2.800
54562W        W25162  10.515  21.721  12.061
54563W        W25163  11.701  31.087   0.453
54564W        W25164  42.403  16.528   1.437
54565W        W25165  35.919  16.104  12.915
54566W        W25166  38.983  35.836   4.294
54567W        W25167  16.316  15.704   5.436
54568W        W25168   6.274  28.404   3.157
54569W        W25169  31.073  30.120   0.700
54570W        W25170  22.417  29.235   1.454
54571W        W25171  33.729  37.949   0.642
54572W        W25172  18.776   0.722  14.323
54573W        W25173  13.612  25.620  11.095
54574W        W25174  11.527  21.215   2.237
54575W        W25175  36.343  26.604   2.252
54576W        W25176  23.100  16.510  11.674
54577W        W25177   2.872  39.722   0.077
54578W        W25178  43.525   4.733   3.205
54579W        W25179  11.821   7.109   3.809
54580W        W25180  37.765  12.241   0.717
54581W        W25181  14.124  24.356   4.422
54582W        W25182  30.877  38.069   0.176
54583W        W25183   5.971  10.590   4.844
54584W        W25184   9.050  31.477  14.306
54585W        W25185   7.681  22.486  12.376
54586W        W25186   8.929  11.887  11.500
54587W        W25187  38.931  23.183   3.761
54588W        W25188  31.443  27.155  11.689
54589W        W25189   5.217  18.548  12.374
54590W        W25190  36.455  33.687   0.361
54591W        W25191   1.905  12.568   1.431
54592W        W25192   5.057   4.592  10.539
54593W        W25193   5.643   2.333  12.518
54594W        W25194  24.266  15.185  11.180
54595W        W25195   5.240  24.017   0.350
54596W        W25196  33.036  38.800   1.143
54597W        W25197  13.653  44.787   2.627
54598W        W25198  20.681   8.758  11.933
54599W        W25199  33.149   6.719  13.031
54600W        W25200  18.926  31.202  12.134
54601W        W25201  11.587  21.653  14.386
54602W        W25202  36.723  44.915  14.007
54603W        W25203  15.657   6.358   3.543
54604W        W25204  34.028  44.746   4.169
54605W        W25205   5.402  44.040   0.236
54606W        W25206   7.780  28.929   4.706
54607W        W25207  24.491   7.740   3.501
54608W        W25208  44.234  44.263   1.727
54609W        W25209   0.788  41.589   2.352
54610W        W25210  19.101  22.317  13.297
54611W        W25211  24.039  18.264  10.643
54612W        W25212  25.369   3.951   2.780
54613W        W25213   5.534   4.955   1.326
54614W        W25214  38.815  17.271  13.892
54615W        W25215  20.172  39.897  13.286
54616W        W25216  34.903  43.947  10.534
54617W        W25217  37.998  28.669   2.744
54618W        W25218  11.305  11.207   2.224
54619W        W25219   0.301  17.283   2.333
54620W        W25220  35.727  24.814  11.610
54621W        W25221   9.361   8.711  14.363
54622W        W25222  13.691  36.329   2.355
54623W        W25223  21.620  22.920   4.902
54624W        W25224  11.380  18.656  14.458
54625W        W25225  38.786  27.918   0.358
54626W        W25226  42.399  44.983  12.449
54627W        W25227  21.042  24.682  12.998
54628W        W25228  12.321  28.155  10.670
54629W        W25229  21.821  41.581   2.779
54630W        W25230  10.826   2.226  13.960
54631W        W25231   3.959  36.331   4.725
54632W        W25232  19.565  25.294  14.947
54633W        W25233  16.071  14.697   2.849
54634W        W25234  19.274  31.581   4.204
54635W        W25235  17.756   7.200   1.036
54636W        W25236  10.918   0.387   1.637
54637W        W25237  31.038   8.659   4.169
54638W        W25238  10.266  14.665   4.580
54639W        W25239   3.701   0.884   2.201
54640W        W25240  24.979   3.949   1.377
54641W        W25241  13.636  31.919  11.117
54642W        W25242  19.085  12.208  14.866
54643W        W25243   3.886   4.322  11.465
54644W        W25244  43.559  40.089   0.888
54645W        W25245   1.205  16.847  14.869
54646W        W25246  15.777  37.326  14.647
54647W        W25247  15.983  11.915   3.832
54648W        W25248  20.952  27.748   3.129
54649W        W25249  37.930  40.101   4.529
54650W        W25250  13.096  42.677   1.774
54651W        W25251  40.405  42.988  10.484
54652W        W25252   5.144  18.314  10.070
54653W        W25253  24.034   9.714   3.943
54654W        W25254   6.316  29.653  11.698
54655W        W25255  12.894  30.490  10.699
54656W        W25256  24.059  19.743  10.163
54657W        W25257  42.302  41.795   4.563
54658W        W25258  23.238   4.757   2.661
54659W        W25259  39.852  31.218  11.954
54660W        W25260   4.291  10.518  12.036
54661W        W25261   1.354  17.823   0.727
54662W        W25262  41.497  36.395   2.784
54663W        W25263   0.953  40.483  14.449
54664W        W25264  41.053  15.153  14.769
54665W        W25265  12.769   5.824  14.786
54666W        W25266  15.206  26.254  14.392
54667W        W25267  35.885  41.336  14.464
54668W        W25268  27.202  35.599   0.973
54669W        W25269  27.092   5.785   4.566
54670W        W25270  33.350  23.304  13.658
54671W        W25271  26.569   3.926  14.338
54672W        W25272  26.077  34.794  11.877
54673W        W25273   1.759   6.096  11.877
54674W        W25274  32.568  36.616   1.299
54675W        W25275  29.573  27.441   4.117
54676W        W25276  33.424  37.028  11.236
54677W        W25277   8.392  18.512  12.986
54678W        W25278  19.319  44.260   0.529
54679W        W25279  12.788  42.383  13.419
54680W        W25280  31.730   2.967   4.100
54681W        W25281   3.215  22.470   1.471
54682W        W25282  31.501  33.557  14.852
54683W        W25283  21.987  42.789  13.434
54684W        W25284  14.026  14.596  14.552
54685W        W25285  23.536  36.974   2.022
54686W        W25286  11.221  34.147   3.315
54687W        W25287  37.478   5.245  11.891
54688W        W25288   9.874  44.034  12.930
54689W        W25289  42.867  15.378   0.344
54690W        W25290  40.026  33.481  13.824
54691W        W25291  39.872  16.238   4.484
54692W        W25292  26.865  25.410  10.694
54693W        W25293  31.092  43.137  13.962
54694W        W25294   2.409  19.576   2.495
54695W        W25295  29.835   7.383   0.673
54696W        W25296  36.780  29.371  12.963
54697W        W25297  10.840   9.618  13.864
54698W        W25298   3.440  14.735  10.691
54699W        W25299  12.082  36.435  13.413
54700W        W25300   2.509  23.329   2.269
54701W        W25301  36.007   2.107   0.387
54702W        W25302   5.722  21.421  14.778
54703W        W25303  23.974   5.246   3.523
54704W        W25304  10.527   9.887  10.692
54705W        W25305   2.692  26.460   5.104
54706W        W25306  11.184  17.277   0.197
54707W        W25307   9.339  16.959  13.106
54708W        W25308   6.859  40.558   3.748
54709W        W25309   5.447   9.825   0.712
54710W        W25310  40.986  15.011  13.804
54711W        W25311  13.407   0.297  12.553
54712W        W25312  25.565  22.209   1.805
54713W        W25313  22.966   3.902  12.729
54714W        W25314   3.037  22.052   2.123
54715W        W25315  25.992  30.982   0.277
54716W        W25316  10.821   2.336   3.242
54717W        W25317  27.835  15.134   1.029
54718W        W25318   2.747  31.376  14.482
54719W        W25319   3.818  39.319  14.462
54720W        W25320  32.286  32.843   4.494
54721W        W25321   5.623  11.642  14.228
54722W        W25322  23.662  13.787  14.412
54723W        W25323  22.488  11.704  12.922
54724W        W25324   9.585  32.526   4.191
54725W        W25325  27.239  42.384  13.438
54726W        W25326  42.345   7.265   4.489
54727W        W25327   8.777  28.494   0.906
54728W        W25328  36.411  16.854  12.508
54729W        W25329  14.783  30.623  14.561
54730W        W25330  38.833  34.463  10.723
54731W        W25331  36.141   8.277   2.291
54732W        W25332  11.227  43.098   0.385
54733W        W25333   0.361  31.860   1.866
54734W        W25334  41.816   1.315   4.059
54735W        W25335  14.777  35.418  14.846
54736W        W25336  17.345  27.085   3.256
54737W        W25337  41.343  23.427  11.922
54738W        W25338  44.306  33.037   3.425
54739W        W25339   6.262  11.687  11.187
54740W        W25340  18.243  14.629  11.641
54741W        W25341  31.382  35.547  11.996
54742W        W25342  35.670  24.590   2.217
54743W        W25343   7.215  26.560   3.304
54744W        W25344  17.284  13.355  12.478
54745W        W25345  30.479   3.391   1.329
54746W        W25346  25.848   6.087   4.164
54747W        W25347   6.221  29.260   1.006
54748W        W25348   5.919   3.308  12.404
54749W        W25349  15.665   4.315  10.551
54750W        W25350   8.649  39.966   0.235
54751W        W25351  30.223  12.103   2.749
54752W        W25352  40.993  43.521  12.153
54753W        W25353  32.854   2.087  13.043
54754W        W25354  15.284  34.333   1.355
54755W        W25355  21.691   6.206   4.482
54756W        W25356  11.683   0.305   3.106
54757W        W25357  43.839  11.464   3.655
54758W        W25358  19.290   8.616  13.998
54759W        W25359  42.390  22.681   1.641
54760W        W25360  26.433   4.184  11.119
54761W        W25361   9.065   9.420   2.787
54762W        W25362  39.428  40.835   2.138
54763W        W25363  19.640  20.221  13.408
54764W        W25364  38.063  17.060   0.395
54765W        W25365  24.923  17.048   3.591
54766W        W25366  28.416   5.767  13.509
54767W        W25367  27.218  26.501   2.809
54768W        W25368  11.156  10.081   3.832
54769W        W25369  40.024  11.744  10.268
54770W        W25370  22.272  24.053   4.044
54771W        W25371  16.315  33.640   0.739
54772W        W25372  19.286  40.956  11.652
54773W        W25373   8.384  30.413  14.636
54774W        W25374   4.265  44.610   3.281
54775W        W25375   1.200  38.935  11.685
54776W        W25376   1.682  24.725  14.258
54777W        W25377  39.483   8.893  11.160
54778W        W25378   2.423  28.197   3.613
54779W        W25379   2.423  25.648  11.052
54780W        W25380  39.134  24.012   2.345
54781W        W25381  24.660   2.804   4.438
54782W        W25382   2.661  13.051  12.541
54783W        W25383  40.956  15.383   0.745
54784W        W25384  31.428  22.350   2.967
54785W        W25385  13.078  25.461  12.570
54786W        W25386  33.711  33.265   2.279
54787W        W25387  29.895  12.737  13.774
54788W        W25388  12.753  39.029  11.645
54789W        W25389   8.419  27.683  13.333
54790W        W25390  32.056  35.779  14.496
54791W        W25391  24.363  18.519  14.795
54792W        W25392   8.728  20.298   0.321
54793W        W25393  39.911   1.212  12.659
54794W        W25394   3.983  26.187  12.011
54795W        W25395  24.236  29.737   0.409
54796W        W25396  43.722  40.168   0.198
54797W        W25397  23.330   0.241  13.109
54798W        W25398  41.122  19.690  13.944
54799W        W25399  41.799  25.167   1.214
54800W        W25400  23.542  36.827  13.336
54801W        W25401   9.637   2.763   0.876
54802W        W25402  17.234  11.669  12.673
54803W        W25403  30.290   4.575  14.584
54804W        W25404  34.838  35.610   0.029
54805W        W25405  19.543  42.265  11.438
54806W        W25406  29.950  27.516   2.781
54807W        W25407  12.516  30.804   3.594
54808W        W25408   9.759  18.233   0.404
54809W        W25409   9.710  26.771   4.115
54810W        W25410  30.701  37.470  13.102
54811W        W25411  21.830   1.089   3.785
54812W        W25412  41.805  26.452  10.258
54813W        W25413  44.459  25.739   4.135
54814W        W25414   3.496  36.596  14.786
54815W        W25415  32.336  32.406  14.479
54816W        W25416   3.806  26.545  12.656
54817W        W25417   3.617   3.088  12.159
54818W        W25418   4.661   8.020  14.263
54819W        W25419  18.243  24.480   2.308
54820W        W25420  10.842  28.489   4.675
54821W        W25421  12.379  25.225   4.958
54822W        W25422  19.265  35.949   4.200
54823W        W25423  41.394  44.226  12.040
54824W        W25424  42.086   6.252  11.609
54825W        W25425   1.459  39.726   2.204
54826W        W25426   3.413  33.755  11.760
54827W        W25427  16.533  41.527   1.835
54828W        W25428  27.497   6.649   2.286
54829W        W25429  33.481   4.814  10.981
54830W        W25430  10.601  22.084  12.525
54831W        W25431  18.777   2.769   3.990
54832W        W25432  14.784  19.701  10.740
54833W        W25433  44.050  37.120   2.121
54834W        W25434  38.403  15.277  10.687
54835W        W25435  13.206  22.738   3.184
54836W        W25436   9.850  27.719   2.259
54837W        W25437  40.716  22.733  13.305
54838W        W25438  32.912  13.637   2.147
54839W        W25439  22.548  24.928   5.155
54840W        W25440   8.534  33.619   1.697
54841W        W25441  20.523  39.465  13.461
54842W        W25442  36.027   4.538  12.378
54843W        W25443   1.188  36.001  12.978
54844W        W25444  24.436  18.043   1.215
54845W        W25445   8.780  18.511  10.730
54846W        W25446   4.808   8.701   1.678
54847W        W25447  39.838  26.243  11.060
54848W        W25448   8.704  12.379   3.651
54849W        W25449  27.292  27.484  11.259
54850W        W25450  38.089  33.595  11.624
54851W        W25451  12.335  25.607   3.238
54852W        W25452  14.605  39.289   0.861
54853W        W25453  32.576  37.829  12.308
54854W        W25454  44.928   6.000  12.139
54855W        W25455  25.630  15.318   1.920
54856W        W25456   9.367  22.706  10.716
54857W        W25457  20.096   2.719  10.614
54858W        W25458  32.361  40.274  12.597
54859W        W25459   2.469  12.142   2.058
54860W        W25460   4.263  14.132  13.772
54861W        W25461  29.642   9.287  12.096
54862W        W25462  16.125  12.209   4.802
54863W        W25463  10.212  25.890   3.133
54864W        W25464  38.145  35.327  12.226
54865W        W25465  17.856  12.946   4.281
54866W        W25466  35.589  35.330   1.403
54867W        W25467  34.510  10.865   0.931
54868W        W25468  21.521  10.772  11.478
54869W        W25469  30.937  43.895   4.518
54870W        W25470  42.782  44.461  13.029
54871W        W25471  21.548  17.203  14.463
54872W        W25472  31.676  34.938  13.348
54873W        W25473  32.508   2.250  13.414
54874W        W25474  27.774  23.784  11.678
54875W        W25475  43.793  35.168   0.531
54876W        W25476   9.384  36.161   4.131
54877W        W25477  12.102   9.568   3.067
54878W        W25478   6.518  22.657  11.399
54879W        W25479  35.995  43.258  13.188
54880W        W25480   8.075  25.921  11.188
54881W        W25481   9.218   6.568   4.471
54882W        W25482  23.262  10.138  11.094
54883W        W25483  22.019  13.153   2.293
54884W        W25484   9.629  40.643  10.653
54885W        W25485   4.172  22.674   4.644
54886W        W25486  13.262  17.520  13.367
54887W        W25487  22.446  25.214   4.215
54888W        W25488  26.008   6.846  10.628
54889W        W25489  33.531   1.049  10.771
54890W        W25490  37.976  39.036  14.873
54891W        W25491  12.427  14.806  12.509
54892W        W25492  24.388  32.409   2.887
54893W        W25493   3.345  27.664  11.093
54894W        W25494   2.292  33.549   3.618
54895W        W25495  36.634  32.140   0.400
54896W        W25496  20.715  17.582  14.538
54897W        W25497  32.105  24.999  12.422
54898W        W25498  32.257   9.915  13.431
54899W        W25499  14.275  30.649  13.853
54900W        W25500  36.058  23.032  13.501
54901W        W25501  33.131  22.066   2.596
54902W        W25502  27.512   4.135  11.672
54903W        W25503  30.190  31.887  12.985
54904W        W25504  44.767   4.349  13.847
54905W        W25505   8.671   5.678   4.120
54906W        W25506  22.958  36.935   1.962
54907W        W25507  12.370  32.858  11.986
54908W        W25508  14.328  12.361  12.453
54909W        W25509  21.802  28.503   9.359
54910W        W25510  24.267  15.350   0.985
54911W        W25511  22.939   3.018  14.013
54912W        W25512  18.998   4.305  13.126
54913W        W25513   6.726   1.761  13.018
54914W        W25514  26.900  38.587  13.027
54915W        W25515  39.136  23.906   0.775
54916W        W25516  15.118  22.049  11.627
54917W        W25517   5.302  28.953   1.136
54918W        W25518   6.447  14.223   3.312
54919W        W25519  27.491  24.205  11.567
54920W        W25520  42.343  43.323  12.079
54921W        W25521   4.394  20.401   3.724
54922W        W25522  14.780   3.864   0.764
54923W        W25523  32.993  33.652   4.621
54924W        W25524  23.285  32.967  11.123
54925W        W25525  43.400  29.243  13.865
54926W        W25526   6.297  36.080  12.086
54927W        W25527  11.315  39.382   1.847
54928W        W25528  25.065   2.537   2.722
54929W        W25529  14.069  15.610   1.904
54930W        W25530  29.917  30.867   1.086
54931W        W25531  32.004  34.527  11.401
54932W        W25532  16.172  35.938   0.333
54933W        W25533  17.776  29.008   2.045
54934W        W25534   5.851  26.998  11.348
54935W        W25535   9.156  41.464  13.484
54936W        W25536  36.462  42.731   2.720
54937W        W25537   9.930  35.888   1.455
54938W        W25538   9.110   7.911   2.816
54939W        W25539  25.711  29.939   1.879
54940W        W25540   4.342  20.247  10.612
54941W        W25541  10.676  26.581   0.282
54942W        W25542  37.822  38.759   2.369
54943W        W25543  27.796  31.787   4.161
54944W        W25544  26.099  26.484  10.571
54945W        W25545  36.698  44.086  11.578
54946W        W25546   6.338  29.502   3.753
54947W        W25547  23.492  15.626  13.675
54948W        W25548  24.779   7.032   2.858
54949W        W25549   9.404   0.783   2.763
54950W        W25550  26.483  12.805   9.733
54951W        W25551  14.066  36.545   4.025
54952W        W25552  28.071  14.511  14.375
54953W        W25553  13.044  40.448   2.402
54954W        W25554   7.299  10.796  14.073
54955W        W25555  36.085  37.436   2.897
54956W        W25556  29.697   6.367   4.347
54957W        W25557  27.510   0.930  11.756
54958W        W25558  36.099  31.715   1.793
54959W        W25559   6.116  21.974  14.312
54960W        W25560  22.086  10.139  13.846
54961W        W25561  14.649   6.389  10.605
54962W        W25562  26.641  12.727   3.628
54963W        W25563   2.354  32.245  12.353
54964W        W25564  34.386  15.395   1.773
54965W        W25565   7.259  27.453   1.828
54966W        W25566  18.272  42.446   1.845
54967W        W25567   5.362  12.327   4.170
54968W        W25568   6.466  24.226   0.301
54969W        W25569  10.220  21.246  10.319
54970W        W25570  26.683  26.920   0.490
54971W        W25571  22.211  29.030  13.740
54972W        W25572  15.566  15.180  12.173
54973W        W25573   8.428   9.273   2.152
54974W        W25574  22.784  13.773  13.882
54975W        W25575   1.313  13.049   3.122
54976W        W25576   1.803  35.731   1.882
54977W        W25577   2.197   8.778   1.286
54978W        W25578  44.344  34.558  13.004
54979W        W25579  36.942  22.644   4.606
54980W        W25580  33.917  29.360  13.941
54981W        W25581  23.354  36.791   3.363
54982W        W25582  32.420  33.386   0.896
54983W        W25583  18.245  29.507   1.777
54984W        W25584  29.714  27.671   0.044
54985W        W25585  33.232   0.861  11.187
54986W        W25586  21.065  29.715   0.242
54987W        W25587  17.186  31.997  13.816
54988W        W25588  30.649  34.980   4.032
54989W        W25589  19.493  44.501  11.655
54990W        W25590  40.511  43.054   2.703
54991W        W25591  37.976  11.129   3.608
54992W        W25592  21.426  18.631  14.744
54993W        W25593   7.776  16.335   4.623
54994W        W25594   8.160  40.322   1.951
54995W        W25595  43.987  23.612   0.849
54996W        W25596  19.950  37.845   0.068
54997W        W25597  22.669  25.133  13.622
54998W        W25598  15.199  18.720   1.516
54999W        W25599  41.271  25.122  13.360
55000W        W25600   2.402   7.890  12.598
55001W        W25601  29.495  26.178   1.027
55002W        W25602  24.595   1.868   1.314
55003W        W25603  41.902  11.062  12.908
55004W        W25604  41.400  28.794  11.348
55005W        W25605   7.093   8.648   2.838
55006W        W25606  36.890   8.847  14.732
55007W        W25607  32.577  43.318  14.020
55008W        W25608  27.764  22.131  11.984
55009W        W25609  15.576  13.554  11.505
55010W        W25610   6.321  30.887  11.129
55011W        W25611  32.516   8.919   3.152
55012W        W25612  29.433  43.878  11.937
55013W        W25613   1.450  42.285  11.695
55014W        W25614   7.329  36.619   1.821
55015W        W25615  40.217  36.549  11.629
55016W        W25616   1.757   7.156   0.544
55017W        W25617  34.850  11.790  14.496
55018W        W25618  31.668   6.175   2.824
55019W        W25619  30.095   0.691  12.609
55020W        W25620  16.338  21.632   3.349
55021W        W25621   2.908   4.914  14.734
55022W        W25622  14.689  20.889  12.886
55023W        W25623  25.254  38.399   2.728
55024W        W25624  43.401  28.712  11.518
55025W        W25625  35.368  29.523  14.752
55026W        W25626  26.190  43.423  10.615
55027W        W25627  26.053  42.715   4.324
55028W        W25628  12.338  14.163  12.049
55029W        W25629  39.878   3.770   4.475
55030W        W25630  32.568  10.250  11.231
55031W        W25631  36.150  41.552   1.801
55032W        W25632  29.049  19.001  13.893
55033W        W25633  13.619  11.597   4.170
55034W        W25634  21.513   5.855   2.330
55035W        W25635   2.394  39.607   3.041
55036W        W25636  20.574  32.017  12.986
55037W        W25637  28.155   5.326  13.709
55038W        W25638  23.148  37.736   3.199
55039W        W25639  32.137  36.836  11.451
55040W        W25640  31.695  11.165  10.955
55041W        W25641  11.817  16.621  11.237
55042W        W25642  36.888  11.752  10.960
55043W        W25643  38.387  12.028   3.877
55044W        W25644   0.302  22.564  14.905
55045W        W25645  43.035   6.479  10.293
55046W        W25646  34.385  42.444   4.382
55047W        W25647  17.783  24.696   0.775
55048W        W25648  37.492  29.549   4.712
55049W        W25649  18.222  20.088   1.954
55050W        W25650  37.471  14.781   0.555
55051W        W25651  25.008  26.864  12.998
55052W        W25652  39.280  19.686   5.460
55053W        W25653  23.400  22.062   0.018
55054W        W25654   0.743  17.627  10.436
55055W        W25655   7.172  15.338   1.524
55056W        W25656  27.494  35.695  10.422
55057W        W25657  36.899  44.998  13.525
55058W        W25658  26.747  39.953  14.955
55059W        W25659  22.537  23.310   2.753
55060W        W25660   8.250  25.702  14.425
55061W        W25661   4.379  33.004   2.152
55062W        W25662  43.851  24.211  14.496
55063W        W25663   2.086  44.768  12.972
55064W        W25664   3.516  17.838  11.066
55065W        W25665  28.560  26.913   2.814
55066W        W25666   2.749  28.537  12.451
55067W        W25667   9.190   1.969  11.120
55068W        W25668  23.498   8.830  11.176
55069W        W25669  17.749   4.928  14.867
55070W        W25670   5.996  17.592  12.533
55071W        W25671   1.910  30.587  10.855
55072W        W25672  31.043  14.225  13.981
55073W        W25673  33.557  40.355   1.929
55074W        W25674  44.551  41.850   2.944
55075W        W25675  34.421  34.424   4.177
55076W        W25676   5.721  41.374  13.382
55077W        W25677  18.041  43.215  10.623
55078W        W25678  44.471  35.905   4.070
55079W        W25679  26.606  27.214   1.362
55080W        W25680   9.697   6.939   0.864
55081W        W25681  22.305  32.771  12.044
55082W        W25682   4.618  44.306   2.447
55083W        W25683  43.186  26.833   2.785
55084W        W25684  30.622  10.421   2.303
55085W        W25685  40.033  37.866  14.490
55086W        W25686   7.673  13.561  10.696
55087W        W25687  27.618  24.532  12.626
55088W        W25688  21.203  20.534  12.483
55089W        W25689  13.860  16.779   1.275
55090W        W25690  23.782  32.962  14.896
55091W        W25691  34.615  11.245   0.338
55092W        W25692  10.039  29.038  12.445
55093W        W25693  10.198   4.474   0.888
55094W        W25694   5.845  21.056   4.657
55095W        W25695  32.865  12.389   4.556
55096W        W25696   7.568  20.373  13.749
55097W        W25697  36.028  26.522  11.217
55098W        W25698  15.561  37.832  13.436
55099W        W25699   0.088   9.566  12.962
55100W        W25700   1.088  23.077  13.758
55101W        W25701  44.347   0.838   4.730
55102W        W25702   3.272  35.642   3.231
55103W        W25703  25.711  30.060  10.545
55104W        W25704   4.910  19.242  13.110
55105W        W25705   7.875  14.092   2.366
55106W        W25706  33.993  13.912   3.116
55107W        W25707   2.561  30.411   4.521
55108W        W25708  29.280  41.059  10.295
55109W        W25709  13.218  23.720  13.030
55110W        W25710   9.933  11.312   3.158
55111W        W25711   1.871  21.324   4.521
55112W        W25712   7.924  36.625   1.408
55113W        W25713   7.291  15.320  11.005
55114W        W25714  15.380  23.641   4.143
55115W        W25715  24.283  39.914   4.027
55116W        W25716  36.435   9.243   4.651
55117W        W25717  24.116  21.101   2.830
55118W        W25718   8.702  36.252  11.057
55119W        W25719  28.604  42.074  13.428
55120W        W25720  40.398  11.741   3.583
55121W        W25721  27.253  13.432   3.782
55122W        W25722  11.206  43.884   2.597
55123W        W25723  42.542  43.991   1.182
55124W        W25724  35.683  24.026   2.726
55125W        W25725   4.754   1.459  11.512
55126W        W25726   4.472   0.947  13.572
55127W        W25727  15.868  33.363  10.369
55128W        W25728  14.228   9.693   0.438
55129W        W25729  37.076  22.932  13.473
55130W        W25730   5.824  44.708  11.003
55131W        W25731  23.646  41.560  14.580
55132W        W25732  33.906  40.859  14.825
55133W        W25733  30.935  34.543   0.967
55134W        W25734  19.655   0.968  11.485
55135W        W25735  16.589  24.639  13.740
55136W        W25736  15.391  32.547   0.181
55137W        W25737  21.353  20.772   0.342
55138W        W25738  44.769  29.111  11.319
55139W        W25739  37.425  22.957   1.911
55140W        W25740  27.629  20.798  11.075
55141W        W25741  14.733   0.739  13.620
55142W        W25742  40.575  27.071   1.824
55143W        W25743  43.102  37.175   1.893
55144W        W25744   5.311  12.043   2.110
55145W        W25745  40.802  11.711   4.933
55146W        W25746  37.785   0.590  12.505
55147W        W25747   3.495  44.263  10.752
55148W        W25748  28.124   6.369   1.906
55149W        W25749  42.056   7.478  11.853
55150W        W25750  27.887   8.231   3.192
55151W        W25751  21.493  26.507   1.320
55152W        W25752  17.979  10.200   1.712
55153W        W25753  23.200  12.302  12.923
55154W        W25754  21.287  32.030   2.217
55155W        W25755  15.508  32.019   5.231
55156W        W25756   8.344  40.039   4.104
55157W        W25757  23.048  30.897  13.868
55158W        W25758   2.706  25.599   0.897
55159W        W25759  37.502  37.228  10.767
55160W        W25760  14.810   4.664  10.969
55161W        W25761  35.162  42.901   0.383
55162W        W25762  44.760  29.867  13.003
55163W        W25763  28.644   3.350  13.835
55164W        W25764  40.862  25.479   0.066
55165W        W25765  13.380  28.890   4.151
55166W        W25766   7.168  16.664  13.964
55167W        W25767   0.443  41.593   4.679
55168W        W25768  35.385  23.113  12.663
55169W        W25769   6.160  18.062  12.377
55170W        W25770  38.626   7.279   1.211
55171W        W25771  37.256  15.847   2.055
55172W        W25772   6.797  26.257   4.621
55173W        W25773   2.485  16.622  11.207
55174W        W25774  20.214  33.954   0.840
55175W        W25775  12.521  44.582   4.627
55176W        W25776  21.744   4.755  11.617
55177W        W25777   2.922  42.540   4.668
55178W        W25778  39.071  12.794   2.289
55179W        W25779  39.155  22.169  13.042
55180W        W25780   2.205  34.943  13.903
55181W        W25781  22.214   6.144   9.799
55182W        W25782  26.002  26.935  10.833
55183W        W25783  23.224  25.623   4.068
55184W        W25784  11.579  33.236  12.294
55185W        W25785  24.641   6.296   1.416
55186W        W25786  20.885  20.961  12.551
55187W        W25787  10.009  44.445  12.562
55188W        W25788  42.871   7.269   1.860
55189W        W25789  33.842  21.448  10.319
55190W        W25790   7.303  41.435  12.628
55191W        W25791  11.951  18.689   2.805
55192W        W25792  27.086   9.766   1.439
55193W        W25793  19.559  19.789   4.551
55194W        W25794  39.319  37.574   2.274
55195W        W25795  19.486  31.738  12.508
55196W        W25796  28.618  30.902   1.962
55197W        W25797   5.261   3.924   1.313
55198W        W25798  42.747  26.454   1.892
55199W        W25799  19.738  22.473   3.282
55200W        W25800  24.612  28.759  13.807
55201W        W25801   7.187   0.715   0.789
55202W        W25802   7.961  19.323  13.944
55203W        W25803  30.480  25.636  13.088
55204W        W25804   6.093  13.617   1.250
55205W        W25805   0.853  10.663  12.946
55206W        W25806  12.215  25.685   4.222
55207W        W25807  14.407  24.649   4.075
55208W        W25808  10.075  43.790  10.398
55209W        W25809   8.896  17.086   4.256
55210W        W25810  17.025  21.230   3.693
55211W        W25811  39.882  33.175  10.820
55212W        W25812  17.767  11.333   1.351
55213W        W25813  43.407  34.034   1.876
55214W        W25814  21.222   4.910   2.153
55215W        W25815   1.318  15.392  12.706
55216W        W25816  44.741  16.642  13.448
55217W        W25817  33.024  20.334   2.457
55218W        W25818  40.549  19.671  11.972
55219W        W25819  16.680  34.950  13.645
55220W        W25820  43.327  12.322  10.764
55221W        W25821  44.786  37.031   3.279
55222W        W25822   9.178  14.692  14.987
55223W        W25823  10.230  32.890  14.410
55224W        W25824   5.265  32.426  11.573
55225W        W25825  23.587  42.995  13.291
55226W        W25826  34.729   4.825  12.879
55227W        W25827  25.190  12.461   1.947
55228W        W25828  20.160   8.987  12.367
55229W        W25829  38.271  22.185   3.316
55230W        W25830  37.526  11.267  13.498
55231W        W25831   9.399  25.824   2.284
55232W        W25832   2.871   1.314  11.425
55233W        W25833  31.963  29.471   1.665
55234W        W25834  14.766  43.024  14.485
55235W        W25835   6.989   6.496  14.034
55236W        W25836  38.411  28.228  13.365
55237W        W25837  27.440  11.653   3.455
55238W        W25838  33.359  11.797  10.251
55239W        W25839  40.911   9.156  12.724
55240W        W25840  42.751  22.661  10.699
55241W        W25841  35.374  11.800   2.782
55242W        W25842  23.086   5.210   2.449
55243W        W25843  39.344  40.484   0.954
55244W        W25844  38.803   5.664   3.306
55245W        W25845  37.936  12.955   4.811
55246W        W25846  19.475  16.676  10.609
55247W        W25847  33.658  16.775   3.437
55248W        W25848  38.424   1.264   2.779
55249W        W25849  12.149  31.941   2.582
55250W        W25850  44.757  11.693   3.710
55251W        W25851  34.560  11.376  12.542
55252W        W25852   7.128   6.877   0.840
55253W        W25853  31.909   3.643   3.176
55254W        W25854  17.144  31.331  14.996
55255W        W25855  18.127   5.794   2.738
55256W        W25856  26.642  18.040   2.608
55257W        W25857  28.979  29.395  13.385
55258W        W25858   4.699  31.380   0.829
55259W        W25859  18.708  41.875   3.589
55260W        W25860  21.456  22.091   0.683
55261W        W25861  26.743  18.687  14.461
55262W        W25862   2.971  32.338   5.071
55263W        W25863  20.321  32.428   0.012
55264W        W25864   3.366  31.943   0.647
55265W        W25865  39.977  23.687  14.386
55266W        W25866  27.944  11.273  14.463
55267W        W25867   3.741  33.562  12.654
55268W        W25868  30.556  14.128  10.860
55269W        W25869  28.433  31.095   4.444
55270W        W25870  17.634   5.809   3.670
55271W        W25871  30.378  19.755   3.270
55272W        W25872   8.408  32.359   1.448
55273W        W25873  20.149  44.179  14.897
55274W        W25874  35.004  41.221   1.666
55275W        W25875  22.138   7.189  10.751
55276W        W25876  22.700  22.090  12.625
55277W        W25877  16.841  35.387  13.900
55278W        W25878   1.192  30.994   3.643
55279W        W25879   3.342   0.398   2.707
55280W        W25880  24.942  19.068   0.262
55281W        W25881  24.409   7.092   0.984
55282W        W25882  31.472  42.805  13.822
55283W        W25883  36.898  17.135   1.147
55284W        W25884  11.758  18.299   4.622
55285W        W25885   6.746  10.784   2.513
55286W        W25886  34.101  13.728  11.955
55287W        W25887   2.035  10.354  11.778
55288W        W25888  32.380  44.924  11.104
55289W        W25889  31.968  23.080  11.570
55290W        W25890  38.107   9.309  13.898
55291W        W25891  37.259  23.423   0.156
55292W        W25892   7.185   5.729  11.636
55293W        W25893  11.139   5.790   1.223
55294W        W25894  30.592  36.909  11.991
55295W        W25895  14.739   2.297  12.873
55296W        W25896  13.165  13.685  13.031
55297W        W25897   6.737  42.983  10.708
55298W        W25898  31.376   7.746  11.920
55299W        W25899   1.384   2.217  14.962
55300W        W25900  13.268   3.421   2.126
55301W        W25901  37.441   1.413   1.272
55302W        W25902  19.239  41.672   1.405
55303W        W25903   6.742  36.490   2.362
55304W        W25904  40.812  34.037   4.717
55305W        W25905   2.858  40.756   0.383
55306W        W25906  19.640   1.801   2.624
55307W        W25907  37.329   4.557  11.124
55308W        W25908  10.383  41.844   0.748
55309W        W25909  25.484   1.186   4.517
55310W        W25910  42.828  27.550   0.233
55311W        W25911  35.888   2.648   1.236
55312W        W25912   8.026  35.650   1.202
55313W        W25913  10.357  14.267   3.341
55314W        W25914  32.997  12.927  14.352
55315W        W25915  31.910  21.686  10.412
55316W        W25916  19.713   4.490  10.717
55317W        W25917  34.468  40.028  14.528
55318W        W25918   1.936  44.701   3.256
55319W        W25919  33.267  32.536  14.476
55320W        W25920  32.577   7.818   2.302
55321W        W25921  38.422  16.740  11.227
55322W        W25922  15.356  30.069   2.420
55323W        W25923  35.365   4.711  12.040
55324W        W25924  15.689  16.416  14.881
55325W        W25925  10.772  24.417   0.729
55326W        W25926  40.295  17.279   0.314
55327W        W25927  22.279  13.381   2.711
55328W        W25928  21.950  32.397  12.083
55329W        W25929   6.298  11.040   0.687
55330W        W25930  14.362  42.324   5.027
55331W        W25931  15.813  22.539   2.418
55332W        W25932  27.447   8.892  14.608
55333W        W25933  34.945  18.290  13.871
55334W        W25934  26.035  34.367   1.700
55335W        W25935  41.640  39.676   4.127
55336W        W25936  35.730  38.834  14.273
55337W        W25937  40.340  13.237  13.574
55338W        W25938  10.033  18.349   3.949
55339W        W25939  20.726  18.097  14.769
55340W        W25940  37.973  26.907  13.326
55341W        W25941   5.880  42.550   1.842
55342W        W25942  34.563  25.855   0.174
55343W        W25943  30.363  14.330   3.782
55344W        W25944   9.405  30.895   0.439
55345W        W25945  37.866   7.686  13.072
55346W        W25946  43.845  18.095  14.867
55347W        W25947  40.381  10.716  12.247
55348W        W25948  19.266   9.619   4.164
55349W        W25949  36.871   8.837   5.086
55350W        W25950  20.736  18.995  11.466
55351W        W25951   3.175  31.920   4.786
55352W        W25952  35.808  22.553  13.390
55353W        W25953  18.250   6.481  14.386
55354W        W25954  33.848   0.786   3.156
55355W        W25955   7.355   1.972  11.032
55356W        W25956  29.589   3.234  11.143
55357W        W25957  32.353  31.568  12.397
55358W        W25958  40.905  21.675   0.448
55359W        W25959  34.947  18.160   3.169
55360W        W25960  20.674  44.247  14.980
55361W        W25961  22.268  25.076   2.509
55362W        W25962   8.885  26.467   4.614
55363W        W25963  31.116   2.354  12.573
55364W        W25964  36.003   5.479  10.818
55365W        W25965  32.001  38.797  13.473
55366W        W25966  42.301   7.779  10.477
55367W        W25967   2.470  25.234   4.221
55368W        W25968  42.868  20.565  10.674
55369W        W25969   3.465  21.170  12.521
55370W        W25970  33.798  13.056   9.826
55371W        W25971  22.003  22.156   3.672
55372W        W25972  21.187  20.082   2.672
55373W        W25973  39.615  16.328  13.428
55374W        W25974  23.091  20.362   1.513
55375W        W25975  13.276  19.573  14.832
55376W        W25976   1.209  44.956   3.759
55377W        W25977  33.529  19.763  13.497
55378W        W25978  40.125  38.378   4.502
55379W        W25979  23.127  12.737  11.303
55380W        W25980  42.280  10.408   4.534
55381W        W25981  29.233  43.212  11.210
55382W        W25982   5.562  30.368   4.352
55383W        W25983   8.637  15.223   0.736
55384W        W25984  26.516  17.664  12.096
55385W        W25985  40.862  26.678   4.690
55386W        W25986   1.973  24.040  10.398
55387W        W25987  35.102  38.513  13.540
55388W        W25988  10.309  31.880  14.501
55389W        W25989  40.938  14.897  14.333
55390W        W25990   4.471  24.670  14.446
55391W        W25991   7.763   2.327   1.605
55392W        W25992  22.935   6.269  10.833
55393W        W25993  14.575   9.887  13.925
55394W        W25994  13.800  43.410   0.384
55395W        W25995  41.491  16.027  11.471
55396W        W25996   9.139   5.197  14.350
55397W        W25997   6.796  17.051  13.032
55398W        W25998  19.030   2.838  14.857
55399W        W25999  24.176   1.191   0.984
55400W        W26000   8.220  12.370  12.962
55401W        W26001  14.376  10.340  13.493
55402W        W26002  33.327   6.697  14.253
55403W        W26003  19.180  19.690   1.171
55404W        W26004   5.361  14.568  12.443
55405W        W26005   6.327  43.608  11.573
55406W        W26006   1.966   3.220   3.732
55407W        W26007   4.451  13.662  13.595
55408W        W26008  32.957  17.690  13.082
55409W        W26009  33.550   6.595  11.011
55410W        W26010   5.483  17.247   4.032
55411W        W26011  24.738   8.691  13.799
55412W        W26012  40.634  10.727   0.672
55413W        W26013  44.521  18.567  11.085
55414W        W26014  34.973   4.893   0.956
55415W        W26015   3.398   0.109  13.479
55416W        W26016  30.086  31.063  13.979
55417W        W26017  11.732  17.798   4.799
55418W        W26018  15.691  26.923   3.199
55419W        W26019  18.337  44.277   4.623
55420W        W26020  33.673  13.257  10.749
55421W        W26021  26.170  38.265   2.820
55422W        W26022  31.113  31.019   4.592
55423W        W26023   7.696  14.124  13.466
55424W        W26024  32.814  28.480   1.356
55425W        W26025  34.647  38.688  12.786
55426W        W26026  40.445  41.743  14.984
55427W        W26027   1.424  39.322   1.342
55428W        W26028  13.700  23.425  10.737
55429W        W26029  26.010  24.669   2.271
55430W        W26030   3.138   3.276  14.752
55431W        W26031  43.784  30.243  11.184
55432W        W26032  37.775  21.803   2.798
55433W        W26033  22.894  16.201  10.479
55434W        W26034   5.838  41.861  14.205
55435W        W26035   7.733  39.352   1.390
55436W        W26036   2.445  38.897   2.809
55437W        W26037  39.351  41.067  10.762
55438W        W26038  37.311  31.455  14.396
55439W        W26039   4.361  34.739  12.628
55440W        W26040  20.993  10.137  14.757
55441W        W26041  40.906  33.884   3.726
55442W        W26042  22.566   0.039   0.731
55443W        W26043  44.604   2.011  14.157
55444W        W26044  23.315   7.137  14.044
55445W        W26045  17.763  24.631   2.340
55446W        W26046  10.224  13.022   4.755
55447W        W26047  14.690  20.293   3.131
55448W        W26048  44.704  29.122   2.719
55449W        W26049  21.105  37.424  13.892
55450W        W26050   9.700  33.619   1.076
55451W        W26051  23.425   4.361  13.857
55452W        W26052  35.905   1.797  12.447
55453W        W26053   7.362   5.748  12.114
55454W        W26054  34.153  35.225  11.864
55455W        W26055   5.836  29.983  11.521
55456W        W26056  39.679  30.004   0.349
55457W        W26057  44.177  37.313   0.780
55458W        W26058  12.730  19.337  12.517
55459W        W26059  38.365   4.844  14.722
55460W        W26060  20.326   8.132  13.515
55461W        W26061   9.518  11.281  13.555
55462W        W26062  41.471  11.601  13.990
55463W        W26063  41.052   7.710  11.054
55464W        W26064  37.474  38.462   4.360
55465W        W26065  15.271  19.246  10.991
55466W        W26066   7.644  43.350   1.003
55467W        W26067  41.794  41.917  13.078
55468W        W26068   1.311  29.870   1.671
55469W        W26069  22.040  21.217   1.538
55470W        W26070  16.149   9.602   1.371
55471W        W26071  43.398  24.532  13.777
55472W        W26072  29.681   7.199  12.660
55473W        W26073  28.658  23.999  12.412
55474W        W26074   8.446  25.553   0.795
55475W        W26075  24.113  37.926   3.637
55476W        W26076  13.511  33.474   4.166
55477W        W26077  12.294  23.384  14.264
55478W        W26078  24.293  43.981  12.728
55479W        W26079  19.104  11.752   1.300
55480W        W26080  15.602  13.302  13.177
55481W        W26081   3.765  24.067  11.591
55482W        W26082  24.194  16.236  14.152
55483W        W26083  41.818  32.084   0.263
55484W        W26084  37.481   4.432   3.246
55485W        W26085  39.439  44.747  10.749
55486W        W26086  13.402   8.868  11.081
55487W        W26087  23.916  14.109  10.659
55488W        W26088  30.633  42.178  13.435
55489W        W26089  12.876  41.964   0.787
55490W        W26090   0.413  14.777  13.885
55491W        W26091  14.136  23.240  13.812
55492W        W26092  41.776  29.603  11.665
55493W        W26093  16.549  22.110   1.235
55494W        W26094  38.734   9.693   1.912
55495W        W26095  19.886  21.271   2.395
55496W        W26096  25.967   5.684  11.549
55497W        W26097  37.433   2.216   0.406
55498W        W26098  37.090  25.211  11.544
55499W        W26099   3.230  44.774   1.045
55500W        W26100   9.057  30.834  13.380
55501W        W26101   2.395  18.276   0.363
55502W        W26102   4.753  13.251  13.429
55503W        W26103  24.506  26.967  14.783
55504W        W26104  24.499  42.302   2.481
55505W        W26105   0.028  11.012   2.576
55506W        W26106   5.276  21.641  11.583
55507W        W26107  25.795  36.332   0.283
55508W        W26108  41.111   9.717  14.351
55509W        W26109  12.860  27.840  14.043
55510W        W26110   4.769  41.368  11.684
55511W        W26111  34.576  24.521  12.005
55512W        W26112  42.262   9.943  10.320
55513W        W26113   3.800  30.875   0.230
55514W        W26114  42.258  18.760  14.592
55515W        W26115  40.327  16.273   2.722
55516W        W26116  39.906  37.493   0.951
55517W        W26117  20.091  27.482   4.131
55518W        W26118  26.524  31.665  13.550
55519W        W26119  25.127  33.883   2.855
55520W        W26120  18.282  27.250   4.443
55521W        W26121  36.389  40.945   0.695
55522W        W26122  11.356  16.046   1.747
55523W        W26123  41.397   3.244   3.184
55524W        W26124  34.671  27.963   2.560
55525W        W26125  21.592  34.917   2.467
55526W        W26126  16.494  13.092   0.854
55527W        W26127  16.267  34.839   3.341
55528W        W26128  25.668   3.726  12.962
55529W        W26129  38.357  17.852   4.640
55530W        W26130  35.466  33.039  12.146
55531W        W26131  28.263   0.416  14.543
55532W        W26132   3.518  28.917  14.754
55533W        W26133  44.032  29.579   3.739
55534W        W26134  38.086  19.316   4.657
55535W        W26135   7.764  20.204   2.401
55536W        W26136  26.508  25.232   0.255
55537W        W26137   5.732  43.956  12.318
55538W        W26138  26.977   1.006   2.463
55539W        W26139   5.673  16.315   0.433
55540W        W26140   7.741   4.327   3.927
55541W        W26141  40.866   9.664  14.798
55542W        W26142   3.632  41.115   0.875
55543W        W26143  35.146  16.639   2.257
55544W        W26144  11.809  19.390  12.615
55545W        W26145   9.851  14.014   2.379
55546W        W26146  35.837  11.452   1.716
55547W        W26147   1.809  43.807  14.947
55548W        W26148  33.417   8.121   0.024
55549W        W26149  26.923  20.602   1.683
55550W        W26150  36.785  11.799   4.590
55551W        W26151   4.672  33.127  13.441
55552W        W26152  27.218  21.149   3.189
55553W        W26153  18.717  36.285  13.105
55554W        W26154  15.636  39.806  10.595
55555W        W26155  11.658  41.834  11.731
55556W        W26156  10.150  32.622  14.845
55557W        W26157   5.845   2.524   3.844
55558W        W26158  43.985  31.424   0.462
55559W        W26159  18.532  10.590   1.335
55560W        W26160  29.140  30.690   4.934
55561W        W26161  39.410  22.609  12.968
55562W        W26162   8.127  28.935  12.907
55563W        W26163   0.685  18.629  12.963
55564W        W26164  17.668  17.995  14.440
55565W        W26165  31.679   3.854  12.043
55566W        W26166  43.097  37.969   0.302
55567W        W26167   5.944   4.301  11.062
55568W        W26168   5.427  17.838   4.866
55569W        W26169  15.162  24.158  12.134
55570W        W26170  26.293   7.751   2.436
55571W        W26171  24.425  17.707   4.645
55572W        W26172  42.946  24.968  12.386
55573W        W26173   4.325  18.582   0.448
55574W        W26174  38.794   4.355  13.830
55575W        W26175  43.790  18.407  13.518
55576W        W26176   4.298   5.220  10.509
55577W        W26177  14.645   1.753  13.879
55578W        W26178  40.243  44.786  12.517
55579W        W26179  33.973  36.829  13.889
55580W        W26180  39.629  27.980   3.808
55581W        W26181  42.135   6.940   2.678
55582W        W26182  38.383   8.507  12.285
55583W        W26183   9.373  15.119   0.247
55584W        W26184   2.538   5.860   4.649
55585W        W26185  20.657   6.600   1.397
55586W        W26186  10.327   6.464   3.725
55587W        W26187  24.626  11.848  14.259
55588W        W26188  14.069  38.879  10.915
55589W        W26189   3.487  27.014  11.977
55590W        W26190  28.516  31.951   3.055
55591W        W26191  34.504  28.205   0.176
55592W        W26192  34.869  14.459   1.210
55593W        W26193  19.752  41.381  14.682
55594W        W26194   4.527  16.249   0.989
55595W        W26195  23.609  19.294  14.363
55596W        W26196  34.846  44.767   1.831
55597W        W26197  43.288  13.575   0.480
55598W        W26198  33.535  38.423   0.479
55599W        W26199  27.667  35.366   1.020
55600W        W26200  37.986  38.106  11.916
55601W        W26201  36.832  35.658   0.433
55602W        W26202  17.464  28.156   0.981
55603W        W26203  29.539  13.878   0.874
55604W        W26204  19.337   6.910   0.319
55605W        W26205  42.771  41.967   4.608
55606W        W26206  37.968   7.223  14.361
55607W        W26207  37.538  43.875  13.597
55608W        W26208   8.750  37.598   1.914
55609W        W26209  27.546  41.853  11.560
55610W        W26210  23.059  19.516  10.585
55611W        W26211  21.187  18.154   0.027
55612W        W26212  17.071  24.001  14.015
55613W        W26213  35.457  20.450   0.254
55614W        W26214  44.322  31.907  11.392
55615W        W26215  12.708   1.000   3.784
55616W        W26216  37.786  33.603  12.031
55617W        W26217  34.261  25.986  13.385
55618W        W26218   4.846  36.677   2.152
55619W        W26219  14.646   4.816  10.494
55620W        W26220  14.082  14.881  14.115
55621W        W26221   7.612  34.472   0.843
55622W        W26222  15.308  27.244   4.401
55623W        W26223  35.680  10.799  14.907
55624W        W26224  19.608  27.531  11.979
55625W        W26225   7.629  33.986   3.002
55626W        W26226  32.709   8.237   4.227
55627W        W26227  38.333   5.160   1.333
55628W        W26228   2.607  27.252  13.113
55629W        W26229   6.905  22.470   0.962
55630W        W26230  11.109  34.931   3.874
55631W        W26231  11.122   1.921   2.165
55632W        W26232  22.926  42.410   0.784
55633W        W26233  26.613  21.230   4.150
55634W        W26234  16.598  44.832   2.662
55635W        W26235  18.270  39.605   1.195
55636W        W26236   3.876  20.715   4.884
55637W        W26237   8.334   7.796  12.791
55638W        W26238  22.692  14.177   0.327
55639W        W26239  28.846  42.733  12.562
55640W        W26240   2.331   0.888  11.148
55641W        W26241   9.011  23.635   4.217
55642W        W26242   2.919  25.966   3.282
55643W        W26243  15.137  44.663   0.009
55644W        W26244  43.114  33.963  10.621
55645W        W26245  23.577   4.739   4.362
55646W        W26246  24.196   9.787  14.144
55647W        W26247  30.054  32.612   2.282
55648W        W26248  24.657  21.185  14.922
55649W        W26249  11.772   4.964  12.998
55650W        W26250  14.344  42.463   4.143
55651W        W26251  18.249  30.511   4.756
55652W        W26252  44.372  27.602  13.892
55653W        W26253   9.370  35.673   0.458
55654W        W26254  24.502  39.029  10.903
55655W        W26255  12.093  20.244  13.622
55656W        W26256   7.903  20.995   4.024
55657W        W26257  19.121   6.754   4.146
55658W        W26258  33.575  32.425   2.297
55659W        W26259   9.244  29.429  10.278
55660W        W26260  14.616  28.675  14.944
55661W        W26261  18.149   6.667  14.926
55662W        W26262  21.739  17.130  12.599
55663W        W26263  29.965  29.131  14.467
55664W        W26264  14.857  16.735   2.300
55665W        W26265  27.557  36.419  14.230
55666W        W26266  24.546  31.548  12.537
55667W        W26267  43.054  16.093  13.757
55668W        W26268  28.447  23.117   1.991
55669W        W26269  18.145   3.478  13.936
55670W        W26270  28.932  38.273   3.196
55671W        W26271  42.382  32.338   2.847
55672W        W26272  35.462  21.071   0.814
55673W        W26273  37.069  30.934  11.690
55674W        W26274  12.240  26.787  11.623
55675W        W26275  41.365  28.108   1.727
55676W        W26276   2.647  40.528   4.422
55677W        W26277  22.098  34.600   3.204
55678W        W26278  16.859   9.880  11.950
55679W        W26279  18.577  41.404   1.808
55680W        W26280  32.625  13.821   0.781
55681W        W26281  42.447  35.419   2.449
55682W        W26282   6.899  25.699   4.714
55683W        W26283   1.342  14.553   2.907
55684W        W26284  18.571  42.069  12.904
55685W        W26285  28.571  31.841  14.647
55686W        W26286  22.405  32.933   4.215
55687W        W26287   5.250  14.753  14.852
55688W        W26288   2.257  22.508   5.075
55689W        W26289  15.024  30.479   3.131
55690W        W26290  38.802  39.453  11.419
55691W        W26291  44.823  25.641  12.897
55692W        W26292   7.114  31.061  14.809
55693W        W26293  16.045  16.687  11.779
55694W        W26294  37.430   3.177  10.991
55695W        W26295   9.779   2.646  10.785
55696W        W26296  40.106  42.866   0.326
55697W        W26297  27.452  29.591   0.358
55698W        W26298  25.876  37.924  10.566
55699W        W26299   4.774  28.183  13.218
55700W        W26300   9.895   8.988   1.262
55701W        W26301   4.757  12.767  12.587
55702W        W26302  21.668  12.356  14.074
55703W        W26303  21.159  28.682  13.422
55704W        W26304  38.289  24.741  10.593
55705W        W26305  44.026  42.444   1.263
55706W        W26306  33.452   7.260  14.031
55707W        W26307  42.553  19.310   9.836
55708W        W26308  29.930  23.139   1.401
55709W        W26309  16.655  25.982   0.291
55710W        W26310  37.546   0.220  13.830
55711W        W26311   4.494  12.922  13.028
55712W        W26312  29.101  28.957   3.985
55713W        W26313  27.237  42.411  11.576
55714W        W26314   0.987   7.322  11.207
55715W        W26315   9.161  31.338  11.992
55716W        W26316  27.139  29.380   1.481
55717W        W26317  18.973  28.919  13.018
55718W        W26318   1.891  19.151  14.571
55719W        W26319   6.881  42.715  13.497
55720W        W26320  17.670  17.503  13.226
55721W        W26321  42.670  13.488  11.132
55722W        W26322  23.983  18.296   0.123
55723W        W26323  23.159  41.253   4.433
55724W        W26324  15.859   4.824   5.265
55725W        W26325   0.879  10.393  12.490
55726W        W26326  21.480  15.719   1.333
55727W        W26327   5.292  28.058  12.400
55728W        W26328  10.541  14.285  13.438
55729W        W26329  38.385   2.959   4.556
55730W        W26330  28.247  12.168  12.821
55731W        W26331  40.307  42.604  11.885
55732W        W26332  37.517  17.522   3.379
55733W        W26333  38.844   9.738  10.570
55734W        W26334  43.375  31.185   3.218
55735W        W26335  30.764  21.754  11.040
55736W        W26336   1.948  19.317  14.082
55737W        W26337  42.249  37.666   1.178
55738W        W26338  39.873  13.885   1.411
55739W        W26339  25.005  24.625   1.279
55740W        W26340  13.449  25.107  11.185
55741W        W26341  26.079  12.626   1.850
55742W        W26342  35.849  13.041   0.014
55743W        W26343  29.013  13.728   1.658
55744W        W26344   7.711  17.666   2.317
55745W        W26345  38.307  13.262  11.587
55746W        W26346  11.150  12.911  13.338
55747W        W26347  29.420  17.186   3.933
55748W        W26348  13.829  25.472  12.001
55749W        W26349  41.231  37.587  13.813
55750W        W26350  32.006  27.399  14.444
55751W        W26351  24.185   0.315   3.218
55752W        W26352   0.761  30.501   2.192
55753W        W26353  27.514  41.285  12.594
55754W        W26354   5.321   2.209   4.543
55755W        W26355   4.803  29.543   4.742
55756W        W26356  31.957   1.629  12.789
55757W        W26357  13.612  20.552   0.313
55758W        W26358  44.794  16.004   0.472
55759W        W26359   6.683   9.189  11.194
55760W        W26360  27.726  31.150   1.848
55761W        W26361  31.171  28.571   4.656
55762W        W26362  40.083  23.125   4.545
55763W        W26363  11.885   4.127  13.295
55764W        W26364  30.956  14.222  12.092
55765W        W26365  44.721  11.055  12.118
55766W        W26366  33.495   5.852  13.445
55767W        W26367  38.432  29.748   1.974
55768W        W26368   9.213   3.728  14.843
55769W        W26369  33.587   1.036   3.671
55770W        W26370   4.798  16.001  14.780
55771W        W26371  26.157  15.746   4.177
55772W        W26372  25.954  38.570  12.989
55773W        W26373   1.359   2.694   0.852
55774W        W26374  25.554  42.405   1.316
55775W        W26375   1.936  28.364   3.729
55776W        W26376  42.321  24.903  13.466
55777W        W26377  17.712  22.123  11.153
55778W        W26378   0.882  22.599   4.580
55779W        W26379  32.622  38.778  11.961
55780W        W26380  27.845   0.228   4.251
55781W        W26381  18.791  17.069   1.312
55782W        W26382   8.539  30.965  14.786
55783W        W26383  10.162  37.029   2.126
55784W        W26384  18.256  30.367   2.331
55785W        W26385  20.307  28.983   2.393
55786W        W26386  38.504  43.814  10.486
55787W        W26387  16.719  33.577  12.491
55788W        W26388  31.084  23.009   4.636
55789W        W26389  33.997  39.452  10.655
55790W        W26390  23.053  42.348  13.830
55791W        W26391  31.671  40.448   0.784
55792W        W26392   5.248  25.531   1.752
55793W        W26393  20.055  10.392  13.613
55794W        W26394  31.942  10.264  13.181
55795W        W26395   9.230  31.549   1.315
55796W        W26396   8.435  11.942  11.639
55797W        W26397  19.091  15.789  14.340
55798W        W26398  26.980   4.469  14.055
55799W        W26399  16.966  42.018   4.057
55800W        W26400  37.589  40.501   0.594
55801W        W26401  30.557   7.290   1.277
55802W        W26402  10.892  15.057  11.123
55803W        W26403  12.160  36.353  11.153
55804W        W26404  18.774  25.143  14.408
55805W        W26405  25.092  10.537   4.705
55806W        W26406   9.845  37.342  14.453
55807W        W26407   1.995  38.969   2.173
55808W        W26408  14.678   9.723  11.263
55809W        W26409   1.117   6.528  13.805
55810W        W26410  29.098  33.788   4.237
55811W        W26411  10.579  14.634  13.050
55812W        W26412  29.423  42.079   3.599
55813W        W26413   1.313  16.755  13.411
55814W        W26414  28.385  28.131   1.381
55815W        W26415  38.996  11.381   3.628
55816W        W26416  23.116  24.949   2.402
55817W        W26417  13.948  34.672  13.388
55818W        W26418   7.240  43.424   4.569
55819W        W26419  37.127  32.596  13.875
55820W        W26420  15.635  42.959  11.412
55821W        W26421  35.960  40.898   4.465
55822W        W26422  15.884  10.281  11.035
55823W        W26423  37.089  14.888  14.487
55824W        W26424  31.417  41.508   3.741
55825W        W26425  37.498  12.578  12.814
55826W        W26426   9.836  38.001  10.777
55827W        W26427  28.589   1.286  10.645
55828W        W26428  29.396  17.804   2.223
55829W        W26429  28.708   9.503  12.310
55830W        W26430  19.092  40.490  13.892
55831W        W26431  38.752   8.989   0.854
55832W        W26432  29.240  36.534   4.595
55833W        W26433  26.276  38.345   0.674
55834W        W26434  33.893  37.104  14.358
55835W        W26435  33.117  39.479  13.467
55836W        W26436   6.281  41.322   2.841
55837W        W26437  17.599  44.773  13.083
55838W        W26438  30.352   4.718   5.019
55839W        W26439  43.893  12.881  12.859
55840W        W26440  21.260  40.444  13.105
55841W        W26441   3.617  28.014  10.744
55842W        W26442   5.687  44.305  14.321
55843W        W26443  43.587   3.253  10.760
55844W        W26444  41.765   7.255   3.455
55845W        W26445  20.798  24.004  10.882
55846W        W26446   5.283  30.739  13.940
55847W        W26447  11.906  37.992  14.425
55848W        W26448  10.552   2.245   4.781
55849W        W26449  12.385  39.892  14.793
55850W        W26450  36.395  38.399  11.170
55851W        W26451  13.688   9.204  12.384
55852W        W26452  22.818  33.123  12.850
55853W        W26453  30.583  10.295  13.613
55854W        W26454  44.490  38.362  11.050
55855W        W26455  35.344  36.548  14.368
55856W        W26456  44.703  40.016   0.377
55857W        W26457   6.718  30.907   3.034
55858W        W26458  35.147  20.193  11.539
55859W        W26459  20.096   7.903   0.710
55860W        W26460  37.806  26.446  11.687
55861W        W26461  43.028  40.913  12.752
55862W        W26462   6.827  31.417   3.021
55863W        W26463   9.867  36.052  13.996
55864W        W26464  34.359  19.239   1.580
55865W        W26465  33.047  17.076  10.635
55866W        W26466  28.628  41.534  13.468
55867W        W26467  16.927  40.496   2.892
55868W        W26468  25.587  40.549  13.808
55869W        W26469  37.665   0.258  12.102
55870W        W26470  15.200   0.175  10.017
55871W        W26471   6.413  29.482   4.698
55872W        W26472  41.306   6.344  10.909
55873W        W26473  39.987  18.634  12.724
55874W        W26474  14.166  20.126  13.556
55875W        W26475   9.402  31.711  12.430
55876W        W26476  10.468  39.797   0.182
55877W        W26477  29.537   1.303   3.836
55878W        W26478  13.688  17.711  10.770
55879W        W26479   7.834  25.595  13.553
55880W        W26480   5.460  11.219  10.617
55881W        W26481  20.790   0.472   3.938
55882W        W26482  39.475  39.493   3.371
55883W        W26483  29.340  38.700  13.667
55884W        W26484  18.406  12.718   4.322
55885W        W26485  25.461  43.734   0.475
55886W        W26486   8.022  11.312   4.189
55887W        W26487   0.520  27.367   4.487
55888W        W26488  29.247  18.446   1.903
55889W        W26489  38.174  44.249  10.031
55890W        W26490  40.872  43.266   1.967
55891W        W26491   4.531   4.676   1.346
55892W        W26492  11.005   7.952   1.661
55893W        W26493  15.270  31.487   4.641
55894W        W26494  43.843  11.104   2.278
55895W        W26495  11.185   7.633   1.300
55896W        W26496  36.436  42.758  11.156
55897W        W26497  33.851  11.611  10.345
55898W        W26498  36.864  20.308  12.989
55899W        W26499  39.806  27.443   1.930
55900W        W26500  43.398  32.074   1.303
55901W        W26501  38.337  34.981   4.563
55902W        W26502   0.476  44.672  13.480
55903W        W26503  41.232  38.388   3.725
55904W        W26504  32.692   4.701   0.395
55905W        W26505  18.107  10.209  12.969
55906W        W26506  13.767   2.126  12.839
55907W        W26507  33.661  10.830  11.504
55908W        W26508  33.404   2.777   4.591
55909W        W26509   4.420  30.387  12.582
55910W        W26510  26.124  26.460  14.957
55911W        W26511  21.943  35.783  11.087
55912W        W26512  14.230  40.928   2.730
55913W        W26513  15.066  39.012   3.166
55914W        W26514  35.985  18.874   3.533
55915W        W26515  38.556   5.822   1.615
55916W        W26516  27.282   8.168   4.236
55917W        W26517  34.583  41.923   1.250
55918W        W26518  20.776  14.311  10.695
55919W        W26519  39.290   1.991  11.004
55920W        W26520  15.970  16.344   4.500
55921W        W26521  38.392  43.695   0.241
55922W        W26522  37.405  35.587   2.899
55923W        W26523  20.311  25.077   1.394
55924W        W26524  11.497   9.201   0.779
55925W        W26525  29.442  31.627   1.337
55926W        W26526  18.102   9.878   3.172
55927W        W26527   9.329  37.886  12.176
55928W        W26528  10.425  23.547   1.396
55929W        W26529  36.459  20.444   4.277
55930W        W26530  22.008  12.626   2.311
55931W        W26531  31.540  16.093   0.346
55932W        W26532   4.303  21.046  12.948
55933W        W26533  32.890   4.340   3.844
55934W        W26534  11.481  13.099  10.497
55935W        W26535  25.962  23.101   1.822
55936W        W26536  15.115   3.183   4.096
55937W        W26537  17.572   7.289   0.105
55938W        W26538  12.622  43.594   4.171
55939W        W26539  38.124  10.772  13.971
55940W        W26540  43.038  29.627  12.499
55941W        W26541  26.436   8.372   0.428
55942W        W26542  10.047   5.215   4.075
55943W        W26543  12.193  37.318  13.485
55944W        W26544  10.427   9.604   2.356
55945W        W26545   4.938  30.371  12.493
55946W        W26546   7.460  20.784  11.582
55947W        W26547   3.342  41.361  12.360
55948W        W26548  39.777   7.364  13.906
55949W        W26549  44.971  21.246   1.013
55950W        W26550  15.205  30.539   2.619
55951W        W26551  10.036  27.659  10.484
55952W        W26552  14.424  43.025   0.453
55953W        W26553  14.136   9.323   4.645
55954W        W26554  16.582  42.079  12.033
55955W        W26555  11.190  35.060   4.376
55956W        W26556  18.953  16.683  10.659
55957W        W26557  35.092  34.735  11.069
55958W        W26558  30.607  16.619   4.706
55959W        W26559  10.241  44.242  10.613
55960W        W26560   7.378  38.035   1.027
55961W        W26561   7.631  31.031   4.261
55962W        W26562  32.727  37.058   0.264
55963W        W26563  13.559  14.240   2.442
55964W        W26564  35.503  40.535  10.708
55965W        W26565   7.604  41.493   1.774
55966W        W26566  14.106  24.413   3.726
55967W        W26567  29.593  29.722   2.771
55968W        W26568  16.757  22.025   3.333
55969W        W26569  36.810   9.309   0.414
55970W        W26570  32.102  41.405   3.285
55971W        W26571  18.954  19.676   0.113
55972W        W26572   7.534   3.500   4.212
55973W        W26573  12.642  27.270  11.606
55974W        W26574  44.411  24.968  12.905
55975W        W26575  16.397  16.120   2.779
55976W        W26576  12.338  10.525  12.026
55977W        W26577   3.337  32.940  14.172
55978W        W26578   5.931   1.902   0.906
55979W        W26579  18.192  29.434   0.821
55980W        W26580  18.025  42.911  11.045
55981W        W26581  37.674   3.627  11.117
55982W        W26582  40.700   1.354   3.310
55983W        W26583  40.780  13.252  12.837
55984W        W26584  21.838  41.063  14.318
55985W        W26585  28.567  12.448   1.897
55986W        W26586  24.826  11.598  12.463
55987W        W26587  14.903   6.152  11.565
55988W        W26588  10.664  22.125  13.412
55989W        W26589  14.157  17.162   2.195
55990W        W26590  11.280  31.094   3.314
55991W        W26591  33.663  19.149   2.355
55992W        W26592  35.939  36.818   1.341
55993W        W26593  15.485  14.066   1.764
55994W        W26594   3.692  29.078  13.950
55995W        W26595   4.905   8.987  13.338
55996W        W26596  40.324  23.775   2.889
55997W        W26597   7.967   5.200  11.869
55998W        W26598  12.647  12.079  12.863
55999W        W26599  17.904  14.608  10.179
56000W        W26600   6.855  31.422  13.515
56001W        W26601  20.990  10.729  14.328
56002W        W26602  30.549   6.772  12.509
56003W        W26603  12.270  19.690   4.368
56004W        W26604   5.347   9.473   3.579
56005W        W26605  15.717  14.851   4.544
56006W        W26606  36.789  10.199   3.237
56007W        W26607  40.585   6.796   3.843
56008W        W26608   0.483   3.312  11.713
56009W        W26609  42.023  28.502   3.197
56010W        W26610  19.364  38.026  13.776
56011W        W26611  17.235   3.436  11.960
56012W        W26612  14.162  17.720  13.797
56013W        W26613  22.181  11.616  14.029
56014W        W26614  38.847   6.130   0.795
56015W        W26615  10.292   6.345   1.874
56016W        W26616   2.683  35.597   2.519
56017W        W26617  16.651  39.310   1.133
56018W        W26618  40.326  20.398   4.217
56019W        W26619  20.170  37.739  14.149
56020W        W26620  11.533   8.288  12.958
56021W        W26621  22.809   8.871  12.525
56022W        W26622  11.290  16.658  14.571
56023W        W26623   0.539  17.055   1.931
56024W        W26624  27.955  20.360   2.411
56025W        W26625  23.325  14.279  12.860
56026W        W26626   6.358  15.583   1.297
56027W        W26627  28.481  42.533  14.573
56028W        W26628  27.141  16.685  14.489
56029W        W26629  35.125  35.995   2.553
56030W        W26630  18.616  26.076  12.668
56031W        W26631  18.062  26.202   0.459
56032W        W26632   4.668  38.327  10.731
56033W        W26633  37.891   2.831  11.692
56034W        W26634  34.947  34.242  13.839
56035W        W26635   9.777  17.668  11.230
56036W        W26636  40.857  29.030  10.530
56037W        W26637  36.450   8.780  13.405
56038W        W26638  10.123  22.117  11.601
56039W        W26639  38.561  17.121   0.272
56040W        W26640  32.160   6.419   2.811
56041W        W26641  43.559   9.363   2.313
56042W        W26642  22.274  27.432   3.533
56043W        W26643   7.165  22.188  11.518
56044W        W26644  18.155  32.955   1.454
56045W        W26645  42.112  12.662  10.179
56046W        W26646   6.668  10.764  11.050
56047W        W26647  15.473   1.209  11.179
56048W        W26648  20.779  26.873  11.474
56049W        W26649   5.358   9.871  12.610
56050W        W26650  28.028  13.630  14.901
56051W        W26651  43.834   5.887   0.160
56052W        W26652  21.773   9.417  11.495
56053W        W26653  10.878  23.852  12.132
56054W        W26654  28.976   4.620  14.870
56055W        W26655  18.232   7.104   3.997
56056W        W26656  15.038   2.978  14.883
56057W        W26657   3.129  16.070   3.129
56058W        W26658  27.418   7.588   0.979
56059W        W26659  26.189  21.214   2.211
56060W        W26660  27.165  26.149  12.942
56061W        W26661  34.306  23.660   1.303
56062W        W26662  26.001  38.462   3.303
56063W        W26663  19.620  11.898   3.310
56064W        W26664   9.177  31.662   4.591
56065W        W26665  43.214  31.390   3.674
56066W        W26666   5.419  34.460  13.854
56067W        W26667  37.308   0.679   5.052
56068W        W26668  35.386  22.602  11.935
56069W        W26669   8.601  12.750   1.202
56070W        W26670  26.633  22.532  13.440
56071W        W26671   6.311  30.963   4.770
56072W        W26672   5.128  28.142  14.848
56073W        W26673   4.676   7.213  12.843
56074W        W26674   7.872   6.414  14.201
56075W        W26675  36.555   4.438   3.357
56076W        W26676  11.784  29.655  13.419
56077W        W26677  34.834  19.826  14.233
56078W        W26678  11.336  43.997  13.079
56079W        W26679  22.256  26.203  11.857
56080W        W26680   4.371  24.786   1.265
56081W        W26681   0.721  11.755  13.426
56082W        W26682  19.164  38.370   1.440
56083W        W26683  42.298  33.210   2.236
56084W        W26684  40.340  14.953   4.642
56085W        W26685  30.210  34.139   0.397
56086W        W26686  14.882   8.762  12.715
56087W        W26687  13.325  32.723  12.506
56088W        W26688  25.167  34.639   4.123
56089W        W26689  19.305   9.767   0.531
56090W        W26690  17.253  38.111  12.836
56091W        W26691  43.764  28.028   1.231
56092W        W26692  16.578  27.624  12.036
56093W        W26693  21.579   6.510   4.898
56094W        W26694  14.372  41.437   2.366
56095W        W26695  31.119   4.648  11.707
56096W        W26696  34.482  39.684  11.554
56097W        W26697  10.913  18.145  14.615
56098W        W26698  23.007  10.727  12.489
56099W        W26699   0.404  11.258  14.880
56100W        W26700  25.131  13.713  14.397
56101W        W26701   8.252  40.931   0.755
56102W        W26702  13.380  22.512   1.295
56103W        W26703   4.697   4.381   0.374
56104W        W26704  44.863  22.656   1.521
56105W        W26705  30.319  40.444   1.815
56106W        W26706  35.705  42.468  12.189
56107W        W26707  32.992  13.286  11.179
56108W        W26708  43.206  17.301   0.001
56109W        W26709   5.191  43.953   2.735
56110W        W26710  40.421  16.807  10.650
56111W        W26711  34.697  34.070  14.831
56112W        W26712  31.601   0.879   1.495
56113W        W26713  26.662  29.460   4.887
56114W        W26714  20.700  10.388   0.408
56115W        W26715  25.767   9.220   0.350
56116W        W26716  37.546   2.872  14.446
56117W        W26717  11.696  33.626   2.718
56118W        W26718  19.639  20.426   1.777
56119W        W26719   6.162  44.367   2.296
56120W        W26720  27.645   9.140  13.039
56121W        W26721  21.068   2.431   3.662
56122W        W26722  23.385  36.348  13.763
56123W        W26723   3.370  10.132  11.867
56124W        W26724  25.869  36.180   1.737
56125W        W26725  31.870  14.113  13.493
56126W        W26726  23.593  11.372   4.450
56127W        W26727  17.296  34.759  14.288
56128W        W26728  33.946  24.791  14.042
56129W        W26729  34.861   9.186  14.059
56130W        W26730  36.108  44.403   0.027
56131W        W26731   9.350  35.536   2.165
56132W        W26732  12.630  38.816   1.975
56133W        W26733  17.266  36.593   2.177
56134W        W26734  17.680   9.904  14.909
56135W        W26735  38.948  27.616  14.397
56136W        W26736  44.299   6.583  11.652
56137W        W26737   5.713  31.412  12.076
56138W        W26738  24.178   0.233   0.282
56139W        W26739  16.000  11.226  12.064
56140W        W26740   4.188   6.976   0.974
56141W        W26741   6.776  12.568  13.936
56142W        W26742  32.667  43.579  13.582
56143W        W26743  16.770  43.563  10.131
56144W        W26744  42.800  24.225   3.577
56145W        W26745  19.987   8.225   1.906
56146W        W26746  33.146   6.011   1.742
56147W        W26747  15.278  12.221   1.449
56148W        W26748  16.254  12.641  13.114
56149W        W26749  33.965   3.704   4.268
56150W        W26750  16.270  43.554  11.430
56151W        W26751  44.604  23.158   4.782
56152W        W26752   0.459  40.831   0.410
56153W        W26753  10.816   9.663   2.697
56154W        W26754   1.461  37.372   1.237
56155W        W26755  26.235   9.896   2.046
56156W        W26756   0.738  29.998  12.451
56157W        W26757  14.101   1.370   2.653
56158W        W26758  43.934  39.024  11.125
56159W        W26759  19.838  23.096   2.703
56160W        W26760  31.714  36.078   0.658
56161W        W26761  26.925   9.400  14.258
56162W        W26762  24.094   3.840   0.226
56163W        W26763  27.569   1.317   3.178
56164W        W26764  35.002  15.639   3.061
56165W        W26765   8.646  43.306  12.067
56166W        W26766  37.831  20.191  10.677
56167W        W26767  22.789   1.677   1.219
56168W        W26768  26.788  10.612  11.527
56169W        W26769  36.566   4.855   0.317
56170W        W26770  14.808  39.029   0.397
56171W        W26771   9.129  37.339  14.827
56172W        W26772   5.994   1.019  13.439
56173W        W26773  22.161  36.814   0.618
56174W        W26774  11.775  11.133   2.503
56175W        W26775  10.136  37.421   2.885
56176W        W26776   0.646  28.037   3.072
56177W        W26777  32.816  30.585   3.688
56178W        W26778   4.947  17.778  11.682
56179W        W26779  41.551   8.243   3.874
56180W        W26780  31.899  15.750  12.376
56181W        W26781  41.802  31.569  14.940
56182W        W26782  14.322  17.672   3.597
56183W        W26783  41.936  38.318   1.686
56184W        W26784  44.984  37.307   2.789
56185W        W26785  43.760  10.266   0.956
56186W        W26786  11.093  17.780   0.381
56187W        W26787  16.150  30.966   4.529
56188W        W26788  33.139  23.758  11.714
56189W        W26789  44.999  34.898   0.494
56190W        W26790  11.309  16.348   0.814
56191W        W26791  42.358   7.270  13.256
56192W        W26792  34.178  34.918   3.691
56193W        W26793  25.013  22.484  11.920
56194W        W26794   4.880  36.613  14.538
56195W        W26795   4.954  42.546   1.802
56196W        W26796  21.396  34.056  12.444
56197W        W26797  39.987   8.308   1.137
56198W        W26798  41.247  17.574   1.305
56199W        W26799  16.669  40.162  13.684
56200W        W26800  40.829  37.572   0.592
56201W        W26801  18.643  35.861   1.495
56202W        W26802  22.219   3.696  11.176
56203W        W26803  38.086  30.072   4.144
56204W        W26804  19.005  17.696  14.723
56205W        W26805  44.993  16.225   1.842
56206W        W26806   7.877   0.789   4.617
56207W        W26807  29.528   9.247  10.734
56208W        W26808  33.440   3.060   3.858
56209W        W26809  22.016  11.753  10.221
56210W        W26810   4.917  17.107  13.362
56211W        W26811  27.631  38.520  11.556
56212W        W26812  35.901   7.058   2.657
56213W        W26813  19.128  27.026   0.307
56214W        W26814  30.328   1.749   1.959
56215W        W26815   8.388   2.220  14.013
56216W        W26816  19.118   8.184  10.464
56217W        W26817   0.916   8.444   2.526
56218W        W26818  33.119  15.244  10.740
56219W        W26819  30.006  20.609   3.672
56220W        W26820  40.036  42.245   3.699
56221W        W26821  34.623   4.750  10.670
56222W        W26822   7.617   6.938  12.523
56223W        W26823  14.246   9.370  14.363
56224W        W26824  32.037  26.137   0.462
56225W        W26825  26.011  36.087   3.284
56226W        W26826  35.576  44.475   1.884
56227W        W26827   2.523  14.760   0.431
56228W        W26828  12.301  12.453  13.302
56229W        W26829  33.135  31.952   1.686
56230W        W26830   0.714  31.437  11.069
56231W        W26831  15.851   6.893  10.513
56232W        W26832  26.571  20.763   1.345
56233W        W26833  35.492  29.036  14.525
56234W        W26834  31.249  23.170   2.235
56235W        W26835  15.887  19.301  12.066
56236W        W26836   8.957  35.492  10.686
56237W        W26837  41.974   4.859  13.438
56238W        W26838   5.888  42.273  13.451
56239W        W26839  40.338  39.834   2.409
56240W        W26840  27.068  42.998   0.452
56241W        W26841  34.956  16.005   1.169
56242W        W26842  21.979   5.814   4.067
56243W        W26843  23.702  14.330   1.277
56244W        W26844  15.249  11.701   5.065
56245W        W26845  34.794   6.212   2.241
56246W        W26846  11.090  35.075   3.372
56247W        W26847  18.160  28.674  13.492
56248W        W26848   9.262  17.319  14.613
56249W        W26849  16.469  24.049  14.914
56250W        W26850  29.544  13.230  13.345
56251W        W26851  14.436  16.289   3.947
56252W        W26852  17.498  15.845   4.030
56253W        W26853  12.262  20.076   2.837
56254W        W26854   7.478   7.736  14.467
56255W        W26855   3.416  24.649  10.514
56256W        W26856   6.181   3.687   4.076
56257W        W26857  35.419  15.686  13.003
56258W        W26858   9.124  40.647   4.893
56259W        W26859  26.506  30.460  10.803
56260W        W26860  14.765  37.473   4.597
56261W        W26861  35.684  26.079  11.972
56262W        W26862  22.903  36.180   3.131
56263W        W26863  37.538  35.598   1.629
56264W        W26864  10.097  22.969  13.744
56265W        W26865   3.779   3.890   1.275
56266W        W26866  41.594   7.246  12.043
56267W        W26867  44.440  38.950  12.696
56268W        W26868  21.655  44.248   0.825
56269W        W26869  14.590  16.136  11.210
56270W        W26870   9.822  14.578  14.158
56271W        W26871  17.095   6.963  14.832
56272W        W26872   7.342  14.287   2.223
56273W        W26873  17.601  39.458   3.383
56274W        W26874   1.972   9.253   1.229
56275W        W26875  32.438  25.235  12.052
56276W        W26876   4.220  19.229   2.802
56277W        W26877  41.828  12.606  13.941
56278W        W26878  33.553  29.066  13.278
56279W        W26879  19.697   0.942   1.274
56280W        W26880  37.378  24.268   3.335
56281W        W26881  33.340  34.928   0.873
56282W        W26882   6.765  41.519  10.590
56283W        W26883   1.756  26.064   4.233
56284W        W26884  37.613   4.377  11.539
56285W        W26885  29.081  36.204  11.080
56286W        W26886  20.761  23.757   2.767
56287W        W26887  16.669  43.294  14.329
56288W        W26888  20.285  28.289   4.526
56289W        W26889   6.960  34.535   2.233
56290W        W26890  12.611  28.953  13.048
56291W        W26891   6.723  26.851  11.502
56292W        W26892  26.073  12.739   4.940
56293W        W26893   3.751  26.164  13.034
56294W        W26894   4.891  25.906   5.012
56295W        W26895  14.547  13.168   1.265
56296W        W26896   7.685  40.313  13.536
56297W        W26897  25.252  14.840   2.760
56298W        W26898  14.806  26.488   1.215
56299W        W26899  18.099  15.312   0.764
56300W        W26900   7.798   6.935  10.374
56301W        W26901  20.592   0.393  10.146
56302W        W26902  24.153   3.598   3.748
56303W        W26903   1.248   0.492   1.728
56304W        W26904  40.500  12.328  14.076
56305W        W26905   7.330   7.931  10.619
56306W        W26906  14.710   9.668  13.089
56307W        W26907  29.530  10.471  11.234
56308W        W26908  32.977   6.868   1.755
56309W        W26909  15.729  32.613   1.416
56310W        W26910  12.222  30.461   1.776
56311W        W26911  23.607  28.914  14.138
56312W        W26912  22.262  26.149  11.073
56313W        W26913   1.899  19.153  12.061
56314W        W26914  38.020   9.810  13.981
56315W        W26915  12.556  13.034  12.780
56316W        W26916  40.722   7.910   2.394
56317W        W26917  10.346  41.133   3.772
56318W        W26918  38.660   4.523   5.025
56319W        W26919  29.106  24.029   3.916
56320W        W26920  36.196  43.712  12.996
56321W        W26921   9.905   9.700   4.699
56322W        W26922  43.533  43.219   3.133
56323W        W26923  10.347  36.788  11.107
56324W        W26924   1.827   8.201  14.694
56325W        W26925  34.689  15.884  14.966
56326W        W26926  26.396  42.535   1.016
56327W        W26927  41.281  36.468  10.710
56328W        W26928  43.013  18.726  12.068
56329W        W26929  16.801  14.080   0.531
56330W        W26930  29.794  41.995   3.953
56331W        W26931   4.669  10.862   2.746
56332W        W26932  26.551  38.072   2.418
56333W        W26933  29.214  21.538  13.035
56334W        W26934  22.317  24.896   3.806
56335W        W26935  27.956  29.901  11.620
56336W        W26936  34.686  20.622  13.032
56337W        W26937   4.752  25.220   0.849
56338W        W26938  18.945   8.276  14.589
56339W        W26939  22.018   9.163  14.036
56340W        W26940  38.088   9.776   4.432
56341W        W26941  23.745  29.395  14.364
56342W        W26942  32.495  34.027  14.344
56343W        W26943   0.292  19.552  12.912
56344W        W26944  12.879  40.600   0.381
56345W        W26945  15.361  18.868  12.428
56346W        W26946  43.322   0.913   1.279
56347W        W26947  34.159  16.653   3.345
56348W        W26948  10.228  34.572   0.832
56349W        W26949  40.463  17.672   2.629
56350W        W26950  18.787  15.880  12.491
56351W        W26951  23.424  25.107   4.068
56352W        W26952  29.464  25.747   1.849
56353W        W26953   1.804  39.333   4.200
56354W        W26954  29.429  44.226   3.092
56355W        W26955   0.414  31.547   2.698
56356W        W26956  25.421  34.731  11.918
56357W        W26957  11.111  29.659   4.985
56358W        W26958  20.037  41.822   2.846
56359W        W26959  41.596  19.131   2.380
56360W        W26960  35.988   6.381  10.684
56361W        W26961  14.859  29.702   3.193
56362W        W26962  22.724   5.857  12.899
56363W        W26963  17.664  17.602  12.698
56364W        W26964   9.796  35.154  14.321
56365W        W26965  11.777  43.272  11.536
56366W        W26966  22.436  32.894   2.370
56367W        W26967  29.915  24.660   3.621
56368W        W26968  16.335  43.781   4.702
56369W        W26969  24.180  25.613  13.535
56370W        W26970  28.457  18.613  12.015
56371W        W26971  17.980  37.392   5.044
56372W        W26972  32.802  29.054   1.809
56373W        W26973   8.114  33.405  12.473
56374W        W26974  22.674  27.798   1.431
56375W        W26975  42.736  41.952  12.845
56376W        W26976  44.631   7.719  11.606
56377W        W26977  29.045   7.842   1.645
56378W        W26978  27.699   8.156   2.255
56379W        W26979  37.774  44.772  11.980
56380W        W26980  18.778  10.102  13.566
56381W        W26981  44.015  12.983  12.342
56382W        W26982  37.183  26.033   4.842
56383W        W26983   7.277   8.836   0.448
56384W        W26984  11.110  25.318  11.187
56385W        W26985  33.470  38.013   4.676
56386W        W26986  13.897  20.811  11.407
56387W        W26987   3.865  42.800   3.619
56388W        W26988  13.857   2.345   0.408
56389W        W26989  10.917  14.063  14.849
56390W        W26990  26.993  10.787   1.623
56391W        W26991  37.167   6.402   0.190
56392W        W26992  19.618  11.366  10.797
56393W        W26993  25.194  36.223  11.659
56394W        W26994  24.175  33.504   1.500
56395W        W26995  36.897   4.949   4.616
56396W        W26996  34.508   6.282  13.706
56397W        W26997  36.078   8.586  11.199
56398W        W26998   4.801   5.680  12.493
56399W        W26999   7.480  38.945  14.088
56400W        W27000  41.602  27.471   2.337
56401W        W27001  16.513  11.259  12.101
56402W        W27002  21.044  33.812   2.615
56403W        W27003   2.232  24.181  12.254
56404W        W27004  43.429  35.927   3.218
56405W        W27005  35.544  11.207   3.677
56406W        W27006  16.896  35.402  12.955
56407W        W27007  43.296  35.537   1.292
56408W        W27008   6.492   3.827  12.856
56409W        W27009   9.888  32.399   2.739
56410W        W27010   2.294  28.217  12.995
56411W        W27011  21.068  21.224  13.448
56412W        W27012  42.533   5.530   0.309
56413W        W27013  44.449  38.502  12.972
56414W        W27014   8.517  28.088   3.566
56415W        W27015  43.141  40.558  14.536
56416W        W27016   6.461   1.752  13.706
56417W        W27017  44.010  38.333  11.637
56418W        W27018   7.793  26.644  11.983
56419W        W27019  40.283  19.807  14.536
56420W        W27020  22.734  29.213   4.565
56421W        W27021   8.181  18.071   4.557
56422W        W27022  25.744  26.329  13.900
56423W        W27023  27.584  23.257   1.352
56424W        W27024  31.639  35.001  14.358
56425W        W27025  25.609  41.902  13.394
56426W        W27026  38.038  13.736  14.217
56427W        W27027  32.246  14.873   3.465
56428W        W27028  14.745   5.354   0.741
56429W        W27029  43.215  16.357  11.097
56430W        W27030   3.292   6.030  11.789
56431W        W27031  24.577   5.795  12.803
56432W        W27032   0.873   9.327   4.152
56433W        W27033  39.636  40.432  14.881
56434W        W27034  22.009  28.171  13.909
56435W        W27035   8.927   1.366   1.830
56436W        W27036  18.598  30.205  11.548
56437W        W27037  40.413  40.486   2.654
56438W        W27038  33.901  34.211  11.935
56439W        W27039  27.198  38.360  14.555
56440W        W27040  21.779  26.931   1.132
56441W        W27041  23.521   7.466   0.446
56442W        W27042  41.107  44.639  11.165
56443W        W27043   9.425   2.901   2.766
56444W        W27044   3.115  24.486   3.667
56445W        W27045   5.911  13.183   0.520
56446W        W27046  38.038  23.641  11.512
56447W        W27047  25.652   2.867  10.601
56448W        W27048  10.213   5.243  12.348
56449W        W27049  11.370   6.256   2.780
56450W        W27050   9.942   7.102   3.583
56451W        W27051   1.030  34.040   0.058
56452W        W27052  26.766  28.708   1.441
56453W        W27053  16.790  24.970   0.487
56454W        W27054   9.276  22.210   1.198
56455W        W27055  14.161  40.330   0.815
56456W        W27056  16.078  42.568  13.161
56457W        W27057  21.432  19.501   0.687
56458W        W27058  18.711   9.781  14.037
56459W        W27059  12.687  15.254   1.248
56460W        W27060   3.967  22.477   4.189
56461W        W27061  36.389   3.431   1.408
56462W        W27062  15.928   1.087   4.208
56463W        W27063  41.489  19.578   3.200
56464W        W27064  32.342  35.490  13.380
56465W        W27065  33.830   0.705  14.079
56466W        W27066   9.866  34.445   2.003
56467W        W27067  29.381  34.979  13.653
56468W        W27068  10.851   0.325  14.213
56469W        W27069  18.249   2.716  13.425
56470W        W27070  44.841  22.748   0.519
56471W        W27071  35.423  30.637  12.376
56472W        W27072  43.427   3.720   4.112
56473W        W27073   5.433  44.701  12.892
56474W        W27074   9.297  36.528   0.666
56475W        W27075  36.415  39.911   3.731
56476W        W27076   5.370  13.028  13.630
56477W        W27077  39.008   5.440   1.994
56478W        W27078  30.072  28.057  13.592
56479W        W27079  13.111  23.004  13.568
56480W        W27080  36.449  27.065  10.881
56481W        W27081   1.643   0.387   1.375
56482W        W27082  44.278   7.125  12.990
56483W        W27083  21.440   8.820  13.576
56484W        W27084  30.651  24.890  13.422
56485W        W27085  18.226  40.253  13.411
56486W        W27086  10.560  25.419  14.523
56487W        W27087  33.415   6.886   4.202
56488W        W27088  24.151  18.949   2.273
56489W        W27089  17.623  28.454   3.829
56490W        W27090  39.254  25.979   4.682
56491W        W27091  26.743  31.864  14.513
56492W        W27092  41.452   0.465   0.975
56493W        W27093  39.068  23.133  14.671
56494W        W27094  24.585  43.932   0.256
56495W        W27095  13.363  26.009   0.720
56496W        W27096  23.634  38.393   4.108
56497W        W27097  14.746  28.986  13.498
56498W        W27098  32.036   1.766  12.266
56499W        W27099  38.274  37.469  14.017
56500W        W27100  24.456  30.642   0.804
56501W        W27101  30.435  17.057   2.332
56502W        W27102  41.563  21.219  11.166
56503W        W27103  42.706   4.273   2.719
56504W        W27104  43.808  30.823   2.299
56505W        W27105  34.812  19.667   4.537
56506W        W27106  15.712  36.800  14.735
56507W        W27107  42.458   0.236   3.445
56508W        W27108  19.144  20.273  13.196
56509W        W27109   6.342  41.469   2.333
56510W        W27110  42.958  13.592   4.186
56511W        W27111  27.136   2.300   2.178
56512W        W27112  39.520  23.928   0.396
56513W        W27113  36.838  44.780  10.894
56514W        W27114  33.964  23.175  10.627
56515W        W27115  27.658   1.820   2.845
56516W        W27116   1.467  30.715   1.299
56517W        W27117  41.806  30.081  11.951
56518W        W27118   2.199   2.913  13.803
56519W        W27119  26.084  32.060   2.360
56520W        W27120  34.080  19.782  11.811
56521W        W27121  39.796  13.076   4.723
56522W        W27122   0.742  36.976  14.469
56523W        W27123   1.777  33.661   0.263
56524W        W27124  20.878  42.306   4.262
56525W        W27125  37.451  31.018   3.699
56526W        W27126  26.110  18.172   4.342
56527W        W27127   8.317  33.458  11.588
56528W        W27128   7.749  13.113   4.620
56529W        W27129  39.965  12.109  10.689
56530W        W27130  41.146  33.856  14.431
56531W        W27131   4.941   9.191   1.529
56532W        W27132  21.522  36.062  14.814
56533W        W27133  16.396  28.468  12.762
56534W        W27134  17.779   8.333  11.203
56535W        W27135   6.162  31.127  10.708
56536W        W27136  23.404  18.821   4.305
56537W        W27137  38.227   1.643   1.771
56538W        W27138  39.049  44.265   3.659
56539W        W27139  10.326  39.337  12.275
56540W        W27140  27.155   2.312  11.602
56541W        W27141  16.293  20.800   4.253
56542W        W27142  22.508  12.416   2.312
56543W        W27143  19.651   3.767  11.376
56544W        W27144  42.873  19.052  11.614
56545W        W27145  20.713   0.334   5.533
56546W        W27146   9.667  23.531   0.792
56547W        W27147  35.150   3.344  12.732
56548W        W27148  29.587   2.285   1.274
56549W        W27149  34.377   0.280  14.853
56550W        W27150   9.567   2.579  11.723
56551W        W27151  36.016   4.259  13.834
56552W        W27152  38.472  28.945   0.705
56553W        W27153  27.993   8.757   0.295
56554W        W27154  36.011   6.172   1.481
56555W        W27155  16.978  26.240   3.572
56556W        W27156   6.825  44.730   3.907
56557W        W27157  16.113  18.230   1.841
56558W        W27158  13.790  30.628  13.124
56559W        W27159  15.806  14.245   2.808
56560W        W27160  24.575  38.944  13.438
56561W        W27161  43.149  11.573   4.938
56562W        W27162  26.006  39.754   4.089
56563W        W27163   0.731  12.455  11.647
56564W        W27164  24.123  26.141   3.112
56565W        W27165   4.051  37.011  14.340
56566W        W27166  42.846  10.528  14.816
56567W        W27167  10.674  14.793  13.540
56568W        W27168   0.596   8.569  14.323
56569W        W27169  15.708  22.120  13.832
56570W        W27170   1.209  29.159  11.149
56571W        W27171  22.243  13.693  13.832
56572W        W27172  26.663  29.978  12.528
56573W        W27173   5.777  33.177   2.149
56574W        W27174  17.689  12.144   0.207
56575W        W27175   5.133  43.528  14.493
56576W        W27176  20.023  39.503   1.340
56577W        W27177   5.593  42.414  10.559
56578W        W27178  19.263  31.561   1.712
56579W        W27179  31.598  32.468   3.050
56580W        W27180  14.792   6.185   0.310
56581W        W27181  11.825  34.789  13.285
56582W        W27182  25.135  43.759   4.086
56583W        W27183   3.393  39.921  11.475
56584W        W27184   0.955  41.146  10.446
56585W        W27185  42.533  22.284  11.454
56586W        W27186  16.756   2.412  12.614
56587W        W27187  30.580   9.746  11.419
56588W        W27188  31.479  10.142   1.830
56589W        W27189  24.193  23.622   2.831
56590W        W27190  35.171  37.947  10.655
56591W        W27191   4.737  30.909  10.685
56592W        W27192  34.006  44.217   2.851
56593W        W27193  40.723  13.651  13.954
56594W        W27194  25.782  24.583  14.861
56595W        W27195  26.553  34.265   1.699
56596W        W27196  22.449  31.946   0.358
56597W        W27197  12.275  11.017  11.170
56598W        W27198  24.968   4.397   1.090
56599W        W27199  38.235  10.646  13.005
56600W        W27200   2.482   0.080   4.088
56601W        W27201  18.270  34.013   3.864
56602W        W27202  16.155  10.905   3.712
56603W        W27203  17.126   1.369  14.035
56604W        W27204  28.188  11.651  11.132
56605W        W27205  38.650  40.106  12.588
56606W        W27206  30.885  24.112   2.232
56607W        W27207  12.338  44.675  10.597
56608W        W27208  35.440  34.335  13.928
56609W        W27209  15.333  36.605   0.025
56610W        W27210  25.405  11.321  14.686
56611W        W27211  28.074   7.840  10.204
56612W        W27212  21.998  41.419  12.702
56613W        W27213   8.793  19.223   4.639
56614W        W27214  26.150  37.267  14.943
56615W        W27215  29.083   0.533  13.248
56616W        W27216  22.903   0.788   2.350
56617W        W27217  16.111  19.026   2.782
56618W        W27218  44.271  33.881   0.206
56619W        W27219   8.275  38.775  14.695
56620W        W27220  43.836  34.925   3.858
56621W        W27221   9.122  39.052   1.441
56622W        W27222  12.171   1.916  14.221
56623W        W27223  26.548  24.263  11.109
56624W        W27224  40.336  32.806  12.997
56625W        W27225  26.748  15.710  14.274
56626W        W27226  28.055  32.538  10.384
56627W        W27227  19.059  38.271   0.071
56628W        W27228  16.387   0.470   0.478
56629W        W27229  44.533  26.879  14.419
56630W        W27230  15.511  11.665   4.625
56631W        W27231  20.665  29.553  12.194
56632W        W27232  44.422  39.899  12.041
56633W        W27233  27.939   9.252   3.336
56634W        W27234   1.300  19.221  10.775
56635W        W27235   7.373  10.105   1.755
56636W        W27236   9.620  32.507   3.681
56637W        W27237  40.264  33.385  12.122
56638W        W27238  20.323  28.731  13.748
56639W        W27239  15.851  31.150  14.479
56640W        W27240  40.152  39.373   4.262
56641W        W27241  12.936  14.888   2.716
56642W        W27242  14.849  11.346   3.295
56643W        W27243  10.787  11.655  11.316
56644W        W27244   6.331  28.017  12.671
56645W        W27245  19.602  42.802   0.484
56646W        W27246  35.515  21.282   1.293
56647W        W27247  20.504  30.870  13.654
56648W        W27248  26.634  32.659   1.764
56649W        W27249   0.055  26.071   1.906
56650W        W27250  29.431  28.083   0.332
56651W        W27251   7.480   9.196  13.043
56652W        W27252  29.665  30.127  12.077
56653W        W27253  21.693  13.790   3.293
56654W        W27254  44.136  19.884  13.300
56655W        W27255  44.075  23.444   2.351
56656W        W27256   4.438  42.428   0.397
56657W        W27257  31.131  37.837   5.462
56658W        W27258  43.749  28.637   2.159
56659W        W27259  34.232  26.162   0.946
56660W        W27260   0.176   3.212  13.990
56661W        W27261  17.141  33.230   9.849
56662W        W27262  31.906  21.107  13.356
56663W        W27263   5.734  27.101  11.822
56664W        W27264   0.625   0.396  10.870
56665W        W27265  44.287  11.846   2.377
56666W        W27266  37.460   3.992   4.119
56667W        W27267  15.826  29.014  13.398
56668W        W27268   8.832   3.502  11.858
56669W        W27269  23.684  41.634  12.209
56670W        W27270  43.045  32.646   3.214
56671W        W27271  38.499   0.219  14.265
56672W        W27272   1.844   4.370  14.460
56673W        W27273  17.024   0.886  13.854
56674W        W27274  36.974  38.398   0.069
56675W        W27275  20.634  24.116   4.353
56676W        W27276  17.797  30.096   0.695
56677W        W27277  17.678  23.556  14.718
56678W        W27278  33.346  18.074  11.086
56679W        W27279  25.189  41.597  12.619
56680W        W27280  35.882  44.397   1.453
56681W        W27281   8.116  14.295   0.994
56682W        W27282  34.960  40.755  10.646
56683W        W27283  33.856  35.703   1.346
56684W        W27284  12.427  11.211   1.251
56685W        W27285  21.463  15.982  11.899
56686W        W27286   4.028   4.298   0.048
56687W        W27287  12.487  29.031  12.027
56688W        W27288  31.560  32.976   2.613
56689W        W27289  13.700  38.770  11.639
56690W        W27290   1.419  23.250   1.898
56691W        W27291  33.924  19.303  12.019
56692W        W27292  34.486  12.871  14.165
56693W        W27293   5.897  36.503   1.969
56694W        W27294  27.498   2.893   4.333
56695W        W27295  35.489   4.394   1.694
56696W        W27296  32.430   4.618   3.150
56697W        W27297  12.686  18.071  12.954
56698W        W27298   4.387   5.358   0.128
56699W        W27299   9.999  19.746  14.498
56700W        W27300  15.244   8.341  14.817
56701W        W27301   3.340  42.317   2.490
56702W        W27302  39.608  10.829   4.220
56703W        W27303   5.222  17.846   3.327
56704W        W27304  27.080   0.681  11.633
56705W        W27305  15.729  17.077   3.267
56706W        W27306  31.924  37.719   1.737
56707W        W27307  44.833   3.702  10.562
56708W        W27308  41.396  44.212  12.870
56709W        W27309  37.480  38.832  13.874
56710W        W27310  30.216  17.239  10.647
56711W        W27311   2.090  21.117  14.961
56712W        W27312  37.872   5.877  12.772
56713W        W27313  30.534  18.380  11.480
56714W        W27314  24.746  22.044  10.842
56715W        W27315   4.803  12.822  12.048
56716W        W27316  39.877  10.860  10.872
56717W        W27317   8.938   5.734   0.186
56718W        W27318  40.895  26.526   0.974
56719W        W27319  44.303  34.330   2.223
56720W        W27320  10.755  20.554   2.043
56721W        W27321  39.974  40.413  14.469
56722W        W27322  35.406  23.992  13.992
56723W        W27323  30.616   4.232   1.146
56724W        W27324  24.448  35.521  11.501
56725W        W27325   6.158  36.031  10.832
56726W        W27326  18.810  40.010  10.632
56727W        W27327   8.292  10.386   1.517
56728W        W27328  24.138   6.190  11.559
56729W        W27329  15.154   9.886  11.181
56730W        W27330   4.707   9.452   0.403
56731W        W27331  30.276  24.063  12.996
56732W        W27332  27.004  30.805  14.214
56733W        W27333   0.321  42.041   1.147
56734W        W27334   5.392  31.841  12.031
56735W        W27335  36.493   2.856  10.683
56736W        W27336  19.817  42.465   1.765
56737W        W27337  10.196  12.272   1.751
56738W        W27338  32.195  25.221  14.345
56739W        W27339  33.837  11.095  10.395
56740W        W27340   3.897   1.298   0.316
56741W        W27341   0.273  29.483  10.958
56742W        W27342  39.669  17.813   1.885
56743W        W27343  22.711  19.785  11.165
56744W        W27344  20.363  26.576   0.860
56745W        W27345  19.108  23.165   3.250
56746W        W27346   7.759  21.147  14.529
56747W        W27347  27.807   5.691  11.652
56748W        W27348   5.495   6.635   3.305
56749W        W27349   6.216  31.016   2.379
56750W        W27350  14.010  25.748  13.751
56751W        W27351  19.713   5.849   0.846
56752W        W27352  14.825  25.113   0.711
56753W        W27353  29.283  30.031  12.870
56754W        W27354  25.154  28.441  13.080
56755W        W27355   3.481  30.641   4.238
56756W        W27356  22.144   6.734   2.341
56757W        W27357  17.101  20.709   3.824
56758W        W27358   0.282  10.259  13.801
56759W        W27359  22.124  15.536  12.961
56760W        W27360  14.978  33.047  11.551
56761W        W27361  32.343  10.437  10.264
56762W        W27362  43.871  41.483   2.165
56763W        W27363  43.806   0.169  11.932
56764W        W27364  43.176  26.748  11.512
56765W        W27365  31.920  14.059   4.655
56766W        W27366  35.809  19.529  12.298
56767W        W27367   9.247  17.563  13.735
56768W        W27368  27.051  29.734  14.657
56769W        W27369  35.276  41.063   2.095
56770W        W27370  41.569  39.743  13.354
56771W        W27371   5.847  18.098  12.771
56772W        W27372  42.590  41.959  11.035
56773W        W27373  43.310  27.800  12.413
56774W        W27374  10.390   4.282   1.362
56775W        W27375  20.096  20.527  10.642
56776W        W27376  10.151  23.268  13.302
56777W        W27377  33.152   9.820   1.863
56778W        W27378  34.796  41.701   3.787
56779W        W27379  26.881   3.984   0.805
56780W        W27380  33.789  38.475  13.590
56781W        W27381  12.724  34.956  14.444
56782W        W27382  12.267   6.474  12.037
56783W        W27383   1.961  17.265  12.511
56784W        W27384  16.306  27.849   2.461
56785W        W27385  36.040  21.887  11.364
56786W        W27386  31.945  38.908   4.150
56787W        W27387  24.418  44.110  12.241
56788W        W27388  22.493   4.437   3.680
56789W        W27389  25.170  39.584   3.533
56790W        W27390   3.705  30.833   1.831
56791W        W27391  33.461  37.507   4.494
56792W        W27392  43.952  18.599   1.319
56793W        W27393  27.636  37.335   2.674
56794W        W27394  21.949  40.320   1.638
56795W        W27395   6.410  41.070   4.499
56796W        W27396  11.772  26.952   4.600
56797W        W27397  26.414  27.677  14.057
56798W        W27398  18.014  22.191   2.854
56799W        W27399  28.493  15.359  14.365
56800W        W27400  37.345   5.738  12.062
56801W        W27401  29.089  17.144  12.631
56802W        W27402  30.537  21.255  12.435
56803W        W27403  17.538   6.570  13.234
56804W        W27404  26.904  13.494   0.773
56805W        W27405   5.153  23.063   0.276
56806W        W27406  28.871  30.966   4.170
56807W        W27407  17.588   4.432  13.300
56808W        W27408  19.508  28.612   3.845
56809W        W27409  14.122  19.020   4.262
56810W        W27410   1.990  24.684   0.988
56811W        W27411  36.084  18.548   1.846
56812W        W27412  38.369  36.143   3.836
56813W        W27413  22.332  26.187  13.397
56814W        W27414  22.651  35.833   2.369
56815W        W27415  40.124   1.838  11.149
56816W        W27416  13.869  37.997   1.031
56817W        W27417  29.064  14.047   1.234
56818W        W27418  19.174   9.377   4.608
56819W        W27419  13.278   4.127  14.534
56820W        W27420  23.144   2.874   2.375
56821W        W27421  13.783   0.446   4.127
56822W        W27422  11.170  42.102  12.493
56823W        W27423  37.887  20.088   5.060
56824W        W27424  20.425  32.959   0.903
56825W        W27425   9.000   9.646  14.723
56826W        W27426   4.264  25.939   0.828
56827W        W27427  14.282   5.236  13.821
56828W        W27428   6.642  20.525  11.264
56829W        W27429  31.967  41.269   0.444
56830W        W27430  18.684  17.022  14.073
56831W        W27431  31.578  40.492   0.241
56832W        W27432  24.034  41.393  12.513
56833W        W27433  29.272  21.463   1.865
56834W        W27434   9.147  31.154   2.210
56835W        W27435  10.252  29.198  11.999
56836W        W27436  43.565  27.039   3.511
56837W        W27437   2.031  38.446   2.061
56838W        W27438  28.882  27.017   1.367
56839W        W27439  10.728  17.700  13.046
56840W        W27440  41.547  28.043   3.586
56841W        W27441  44.514   5.231   2.179
56842W        W27442  14.870  23.068   1.802
56843W        W27443  17.035  14.822   2.203
56844W        W27444  12.513  12.579   1.527
56845W        W27445  38.787  23.073   2.205
56846W        W27446  17.279  20.093   0.182
56847W        W27447   5.410  20.650  14.078
56848W        W27448  30.917  39.540  12.878
56849W        W27449  29.971   4.551   0.401
56850W        W27450  17.668  28.528   4.346
56851W        W27451  27.541  40.864  13.393
56852W        W27452  39.223  23.454  10.722
56853W        W27453   4.873  18.991  12.637
56854W        W27454  33.830  34.477  10.651
56855W        W27455  41.499  33.339  11.529
56856W        W27456  39.956   4.638   2.922
56857W        W27457  26.976  14.313  11.933
56858W        W27458  39.529   3.915   5.038
56859W        W27459  42.666  34.958   1.746
56860W        W27460  33.473  19.593  10.212
56861W        W27461  14.708  18.677   3.752
56862W        W27462  21.310   0.028  12.132
56863W        W27463  40.558  12.124   4.428
56864W        W27464  42.976  39.222   4.483
56865W        W27465  37.339  26.006  11.196
56866W        W27466   7.185   8.512   0.842
56867W        W27467   3.993   3.174   2.486
56868W        W27468  37.261   1.349   1.774
56869W        W27469  26.025  33.330   4.023
56870W        W27470  15.712  28.393   3.747
56871W        W27471   2.773   2.026  10.677
56872W        W27472  18.559  34.106  11.335
56873W        W27473   2.318  32.728  12.151
56874W        W27474   9.513  35.403  12.658
56875W        W27475  33.834  25.808   0.965
56876W        W27476  29.040  37.489  12.000
56877W        W27477  22.494  20.507   3.222
56878W        W27478  31.101  19.235   3.220
56879W        W27479  17.570  12.034   1.964
56880W        W27480  26.798  12.670   0.672
56881W        W27481  12.379  22.331  12.493
56882W        W27482  33.613  19.497   0.878
56883W        W27483  40.783  24.675   2.758
56884W        W27484   6.079  32.606  14.698
56885W        W27485  16.675  26.457   0.736
56886W        W27486  13.661  14.137   1.388
56887W        W27487  31.922  44.929   2.191
56888W        W27488  31.006  34.458   4.552
56889W        W27489  39.003   2.751   0.912
56890W        W27490  35.096   3.362   4.178
56891W        W27491   1.239  19.367   0.383
56892W        W27492  12.277  13.652  12.039
56893W        W27493  33.594  32.056  11.854
56894W        W27494  14.347   7.247   3.216
56895W        W27495  43.438  10.290   3.232
56896W        W27496  13.790  29.511  14.777
56897W        W27497   4.417   3.029   3.334
56898W        W27498  34.422  40.581   2.981
56899W        W27499  43.860  41.923   3.874
56900W        W27500   2.261  41.245  12.831
56901W        W27501  13.175  14.105   9.346
56902W        W27502  27.948   0.260  11.563
56903W        W27503  25.952  42.744  12.005
56904W        W27504   4.958  26.731  12.041
56905W        W27505  31.999  21.733  10.930
56906W        W27506  18.616  34.031  14.174
56907W        W27507  23.750  24.202  11.636
56908W        W27508  13.316  32.508   0.890
56909W        W27509  21.558   2.224   4.429
56910W        W27510  41.483  24.600   4.832
56911W        W27511  18.541  16.408   3.092
56912W        W27512   8.750  31.659   0.263
56913W        W27513   1.297  20.530  12.948
56914W        W27514  14.089  31.074  12.367
56915W        W27515  40.795  19.081   0.308
56916W        W27516  11.919   9.256   2.190
56917W        W27517  39.077  21.037  11.687
56918W        W27518   1.539   5.185  14.942
56919W        W27519  26.429  36.013   1.489
56920W        W27520  23.630  43.395   2.399
56921W        W27521  23.486  27.719   1.490
56922W        W27522  39.382   1.527  10.762
56923W        W27523  17.193  12.870  10.998
56924W        W27524  42.779  41.191   4.073
56925W        W27525  26.505  10.121   3.730
56926W        W27526  24.875  17.703  10.902
56927W        W27527  12.713  16.048   4.278
56928W        W27528  18.789  21.254   3.789
56929W        W27529   7.920  16.048   0.905
56930W        W27530  39.602   5.708  11.558
56931W        W27531  15.815  27.380   0.693
56932W        W27532   7.012  42.988   4.758
56933W        W27533  22.933  31.540  11.879
56934W        W27534   9.715  31.113   0.816
56935W        W27535  17.297   5.470  13.014
56936W        W27536   3.004  22.248  13.335
56937W        W27537  34.728  37.492  10.316
56938W        W27538  24.204  30.326  12.665
56939W        W27539  35.894  25.092   1.402
56940W        W27540  16.247  29.666   1.423
56941W        W27541  23.737  22.421   0.202
56942W        W27542  37.651  39.399   3.235
56943W        W27543  32.918  35.497  10.991
56944W        W27544  12.636  26.693  10.879
56945W        W27545  18.496   7.926  13.547
56946W        W27546   0.202   3.468  10.870
56947W        W27547   7.311  17.056   2.188
56948W        W27548  20.676  41.511  14.273
56949W        W27549  38.479  17.875   0.586
56950W        W27550  14.631   0.261  13.865
56951W        W27551  43.510   4.004   1.757
56952W        W27552  41.536   5.253   1.266
56953W        W27553   3.254  37.549  12.782
56954W        W27554   9.097  22.075   2.434
56955W        W27555  15.821  35.042  12.534
56956W        W27556  33.332   1.966  12.927
56957W        W27557  43.235  38.222  14.844
56958W        W27558  31.473  14.084   1.768
56959W        W27559  38.967  43.301   4.610
56960W        W27560   3.470  33.287  11.563
56961W        W27561  13.723  21.698  11.964
56962W        W27562   9.254  32.106   3.703
56963W        W27563  40.442   1.681  13.041
56964W        W27564   1.882  43.009   4.773
56965W        W27565  20.692  12.662   3.297
56966W        W27566  11.671  12.936  10.952
56967W        W27567  27.087  12.647   2.377
56968W        W27568   6.557  36.155  13.720
56969W        W27569  38.458  33.539   1.701
56970W        W27570  15.752  31.439  11.448
56971W        W27571  32.844   4.676   1.932
56972W        W27572  26.497  32.215  13.687
56973W        W27573  27.520   6.705  12.588
56974W        W27574  25.507  35.330   3.141
56975W        W27575  38.064  26.304   2.877
56976W        W27576  26.408  32.423  12.838
56977W        W27577  40.434  19.640   1.056
56978W        W27578  43.737   3.909  12.289
56979W        W27579  41.149   8.587   0.032
56980W        W27580   0.843  26.210  12.086
56981W        W27581  10.439  34.071  11.766
56982W        W27582   9.996  15.871  10.860
56983W        W27583  39.921  21.412  12.129
56984W        W27584  22.419  32.586   1.668
56985W        W27585  12.344  28.922  11.072
56986W        W27586  27.018  20.950  14.933
56987W        W27587  28.564   5.149  13.419
56988W        W27588   6.954  29.888  12.498
56989W        W27589   5.278  13.894   2.669
56990W        W27590  23.151  23.715  11.128
56991W        W27591  14.779  30.510  10.695
56992W        W27592   1.219  21.591   0.349
56993W        W27593  41.007  25.533   0.554
56994W        W27594  26.154  33.540   2.191
56995W        W27595  39.378  19.337  14.514
56996W        W27596   5.123  14.202  10.757
56997W        W27597  15.586   9.984   2.343
56998W        W27598  12.344  19.577  13.762
56999W        W27599  11.568  41.245  11.107
57000W        W27600  35.032  13.070  11.289
57001W        W27601  43.731  27.509   0.709
57002W        W27602  33.422  26.146   0.880
57003W        W27603  39.423  15.145  13.914
57004W        W27604   9.322  17.576  11.512
57005W        W27605  19.394  32.608  13.021
57006W        W27606   8.771  37.621  13.911
57007W        W27607  39.272  33.669   0.053
57008W        W27608   2.213   3.407  10.665
57009W        W27609  34.126  20.220  14.457
57010W        W27610  22.008  31.062  11.022
57011W        W27611  37.882  16.320   3.509
57012W        W27612   3.252  31.071  13.841
57013W        W27613  32.875  11.897  14.356
57014W        W27614  15.492   9.385   2.753
57015W        W27615  17.361  29.137   4.348
57016W        W27616  19.318  38.345  14.639
57017W        W27617  38.034   0.519   1.360
57018W        W27618  16.012  24.022  12.572
57019W        W27619  29.495  33.052  11.336
57020W        W27620  28.976  22.492  13.124
57021W        W27621   3.845  41.939  10.765
57022W        W27622  33.988  14.532   2.685
57023W        W27623  19.589  38.273  10.994
57024W        W27624  24.060  30.234  10.611
57025W        W27625  40.676   0.353  14.765
57026W        W27626  35.125  10.289   4.068
57027W        W27627  44.896   7.239   4.405
57028W        W27628   6.748  23.725  11.648
57029W        W27629  21.143   9.910  12.472
57030W        W27630  39.296  35.729   2.634
57031W        W27631  36.920  17.261  13.086
57032W        W27632  23.562  26.419  10.954
57033W        W27633  15.810  28.611   0.262
57034W        W27634  21.671  40.571  14.399
57035W        W27635   4.169  36.845  12.446
57036W        W27636  40.812  30.919  14.803
57037W        W27637  19.755  21.665  13.557
57038W        W27638  44.514   3.152  12.533
57039W        W27639  36.674   1.038  10.600
57040W        W27640  26.398   4.704  12.298
57041W        W27641   4.368  43.813   0.722
57042W        W27642  38.843   4.341  10.237
57043W        W27643  16.546  25.136  13.824
57044W        W27644   0.490  43.964  12.318
57045W        W27645  28.537   8.915   1.713
57046W        W27646  20.381  30.575  10.258
57047W        W27647  26.243  42.743  11.566
57048W        W27648   3.726  36.488   4.279
57049W        W27649  36.489  35.380   0.774
57050W        W27650  35.953   8.537   3.795
57051W        W27651  27.695  29.316   1.413
57052W        W27652  30.633   1.410   3.724
57053W        W27653  41.296  40.476   5.088
57054W        W27654   5.361  23.550  12.868
57055W        W27655  28.061  14.019  12.954
57056W        W27656  29.395  19.094  10.720
57057W        W27657  43.143  19.582   1.744
57058W        W27658   4.225  11.799   2.672
57059W        W27659  15.526  27.233   2.392
57060W        W27660  14.543   5.369   1.230
57061W        W27661  25.687  18.209   0.704
57062W        W27662   0.846   1.187   1.990
57063W        W27663  44.408   6.726   1.320
57064W        W27664  35.136   5.380  13.085
57065W        W27665  21.076  19.344  14.342
57066W        W27666  37.850   2.966   4.688
57067W        W27667  36.620   6.380  11.740
57068W        W27668  26.232   3.386  11.560
57069W        W27669  25.092  32.496   0.010
57070W        W27670  19.948  14.856  11.478
57071W        W27671  30.166  39.467   0.473
57072W        W27672   3.209  36.838   1.890
57073W        W27673  39.025  20.488  12.549
57074W        W27674  23.003   8.729  11.341
57075W        W27675  36.656  25.222   0.700
57076W        W27676   4.696  15.119  13.139
57077W        W27677  25.096  20.543  11.675
57078W        W27678  36.572  37.147   2.836
57079W        W27679  23.305  41.034   1.691
57080W        W27680  14.807  21.616   3.880
57081W        W27681  23.084  30.679  11.096
57082W        W27682  23.149  28.693  12.617
57083W        W27683  17.346   3.270   2.752
57084W        W27684  43.238  33.485  12.122
57085W        W27685  24.106  21.313   2.340
57086W        W27686   0.235  24.999   4.716
57087W        W27687  44.309  14.272   2.166
57088W        W27688  40.414  23.972   0.932
57089W        W27689   8.263  12.536   2.669
57090W        W27690  38.766  26.217  13.337
57091W        W27691  24.953  26.647   4.656
57092W        W27692  17.425  27.190  12.098
57093W        W27693  41.415  33.471  14.218
57094W        W27694  42.605  24.350  11.210
57095W        W27695   1.327   8.250   4.911
57096W        W27696   1.436  16.076  10.556
57097W        W27697  12.045   3.879  14.084
57098W        W27698   4.773  14.485   3.316
57099W        W27699  10.251   3.275   0.274
57100W        W27700  27.821   6.347   1.495
57101W        W27701   5.528  26.647   1.697
57102W        W27702   6.333   6.892  10.685
57103W        W27703  10.018   0.435   4.998
57104W        W27704  16.628   9.112   4.490
57105W        W27705  40.176  21.985  13.001
57106W        W27706  30.374  35.607  11.996
57107W        W27707  15.035  11.286   5.790
57108W        W27708  20.621   4.746   4.675
57109W        W27709  43.374   6.781  14.038
57110W        W27710  27.675   5.764  10.736
57111W        W27711  44.634  38.010   0.336
57112W        W27712  37.543   8.915   3.862
57113W        W27713   8.949  22.665   4.193
57114W        W27714   9.360   1.266   0.092
57115W        W27715  24.626   7.410  10.664
57116W        W27716  36.541  41.450  13.918
57117W        W27717   1.273   8.779  13.453
57118W        W27718  25.127  40.616   1.718
57119W        W27719  35.044  11.851   2.231
57120W        W27720  10.627  12.325   2.040
57121W        W27721  43.563  38.825   3.659
57122W        W27722  32.304   8.561   2.816
57123W        W27723  43.840  38.703   0.962
57124W        W27724  15.902   7.623   0.361
57125W        W27725   7.716  13.556  12.002
57126W        W27726  30.514  18.687   3.565
57127W        W27727  35.754  41.107   2.301
57128W        W27728  33.023  11.855  10.638
57129W        W27729   8.116  23.861  11.582
57130W        W27730  31.445  27.580   0.963
57131W        W27731  16.239  16.349   1.228
57132W        W27732  20.762  16.236  12.551
57133W        W27733  42.842  20.501  11.528
57134W        W27734  28.603  17.713   0.641
57135W        W27735  27.046  12.728   4.308
57136W        W27736  27.567  12.589   3.764
57137W        W27737   4.133  12.695   0.354
57138W        W27738   5.852  13.102   1.497
57139W        W27739  27.708  13.760  10.392
57140W        W27740  14.664   1.884   0.345
57141W        W27741  21.685  31.466  11.024
57142W        W27742  33.336  43.983  13.998
57143W        W27743  33.670  23.509  14.021
57144W        W27744  38.093  19.714  10.691
57145W        W27745  41.799  10.305   2.969
57146W        W27746  36.842  41.729   4.615
57147W        W27747  24.285  42.196   1.233
57148W        W27748  20.266  16.332  12.518
57149W        W27749   2.193  43.576   2.865
57150W        W27750  14.993  27.033   4.794
57151W        W27751  21.665  19.181   2.415
57152W        W27752  42.073  22.191   1.055
57153W        W27753  13.978  33.698  12.433
57154W        W27754  37.263  13.669   3.632
57155W        W27755  17.056  31.850   3.205
57156W        W27756  21.551  11.414  10.888
57157W        W27757  39.539   8.046   1.986
57158W        W27758  36.942  12.147   1.923
57159W        W27759  38.579  18.107  11.431
57160W        W27760  31.408  15.328   2.161
57161W        W27761   5.963   8.191  14.158
57162W        W27762  44.356  22.430  12.876
57163W        W27763  27.661   8.146   4.590
57164W        W27764  12.364  21.156  14.421
57165W        W27765  19.175  22.993  12.388
57166W        W27766  33.348  19.851  11.227
57167W        W27767  19.830   5.343   4.930
57168W        W27768  30.622  19.207   2.368
57169W        W27769   9.778   9.282   0.432
57170W        W27770  23.051  21.211   2.423
57171W        W27771  36.923  30.390   0.713
57172W        W27772  29.533   6.790   4.628
57173W        W27773  14.253   5.418   4.765
57174W        W27774  15.429  30.039   3.918
57175W        W27775  26.419  32.448   5.065
57176W        W27776   9.275  38.592   4.934
57177W        W27777  17.652   5.387   2.336
57178W        W27778  23.484  18.546  13.682
57179W        W27779  32.165  17.004  11.134
57180W        W27780  17.264  26.078  13.035
57181W        W27781   5.711  34.840  13.079
57182W        W27782  43.366  11.672  12.663
57183W        W27783   8.382  25.773   3.063
57184W        W27784   5.814  23.778  12.976
57185W        W27785  39.399  13.087  13.037
57186W        W27786  26.934  25.176  14.956
57187W        W27787  33.167  40.121  12.100
57188W        W27788   1.408  33.351   0.878
57189W        W27789  15.557   2.182  12.848
57190W        W27790  19.659  34.434  13.281
57191W        W27791  34.490  21.493   0.870
57192W        W27792  22.978  25.771   2.819
57193W        W27793   0.440  29.968  13.356
57194W        W27794  14.237  31.675   4.979
57195W        W27795   8.945  36.541   3.683
57196W        W27796  24.687  28.620  11.553
57197W        W27797  23.039  26.764   2.750
57198W        W27798   5.098  14.652   0.450
57199W        W27799  36.133  24.156  10.689
57200W        W27800  27.677  30.902  12.432
57201W        W27801  13.591  16.852   3.323
57202W        W27802  27.920  44.790   3.597
57203W        W27803   3.074  21.454  11.106
57204W        W27804  17.561  24.611   4.103
57205W        W27805  29.126  16.177  14.392
57206W        W27806  42.814  11.827   4.583
57207W        W27807   5.845  16.234   2.428
57208W        W27808  34.271   3.911  13.724
57209W        W27809  10.690   4.051   3.583
57210W        W27810   6.673  30.020   3.201
57211W        W27811  28.142  24.708   2.651
57212W        W27812  17.362   9.299   3.403
57213W        W27813   1.441  23.540   1.417
57214W        W27814  31.440   6.667   3.967
57215W        W27815  19.192  12.709  11.361
57216W        W27816  29.149  17.343   2.243
57217W        W27817   0.336  39.390   0.050
57218W        W27818   3.411  35.573   3.740
57219W        W27819  33.462   1.948  10.718
57220W        W27820  19.287  17.240  12.484
57221W        W27821  21.373  23.670   4.940
57222W        W27822  31.639  40.249  13.062
57223W        W27823   7.411  12.810  12.976
57224W        W27824   6.744   9.198  14.455
57225W        W27825  40.886   7.497   2.832
57226W        W27826  11.221  34.586  10.624
57227W        W27827  11.242   3.173  10.850
57228W        W27828  16.756  22.662  12.751
57229W        W27829  12.725   4.595  13.337
57230W        W27830   7.466  15.019  13.488
57231W        W27831  38.181  21.135   3.971
57232W        W27832  35.907   2.996  11.622
57233W        W27833  17.619  41.086   4.630
57234W        W27834  43.065  14.371  14.448
57235W        W27835   6.982  28.601  13.791
57236W        W27836  11.740  28.233  10.986
57237W        W27837  26.465   6.773   0.291
57238W        W27838  32.597  37.038  11.639
57239W        W27839  34.959   8.406   0.819
57240W        W27840  33.575  10.747   4.676
57241W        W27841  26.445  40.836  13.307
57242W        W27842  15.162  25.099  13.364
57243W        W27843   6.144  24.074   4.692
57244W        W27844  13.832   4.323   1.005
57245W        W27845   1.247  25.709  13.792
57246W        W27846  18.073  28.877   0.442
57247W        W27847  30.482   7.677   3.375
57248W        W27848  10.359  21.127   0.377
57249W        W27849  17.992  34.948   1.438
57250W        W27850  33.582  22.102  10.143
57251W        W27851  21.096   8.625   0.841
57252W        W27852  27.167  24.976  12.058
57253W        W27853  21.377   4.115   0.532
57254W        W27854  40.816   1.889   3.069
57255W        W27855  27.060  12.129   2.417
57256W        W27856  24.684  41.683  13.712
57257W        W27857  44.924  33.483   4.532
57258W        W27858  31.201  33.199   3.348
57259W        W27859  24.945  23.016  14.891
57260W        W27860  13.189  23.135  12.192
57261W        W27861  43.517  12.987  12.505
57262W        W27862  21.309  19.710  11.555
57263W        W27863  20.691  27.162   2.883
57264W        W27864  13.269  23.137   4.659
57265W        W27865  42.278   0.931  13.776
57266W        W27866   1.069   9.144  13.763
57267W        W27867  36.322  41.452   0.886
57268W        W27868   9.625  22.985   1.782
57269W        W27869  40.592  33.513  12.561
57270W        W27870  27.572  15.337  10.918
57271W        W27871  25.595  12.063   1.088
57272W        W27872   5.841  28.557  14.749
57273W        W27873  11.539   1.543  13.585
57274W        W27874  33.610  15.593  12.009
57275W        W27875  25.889  24.169   3.269
57276W        W27876  23.192  26.512   4.502
57277W        W27877  37.036  20.517   0.023
57278W        W27878  14.411  44.533  11.149
57279W        W27879   9.908  24.144   3.585
57280W        W27880  42.019  20.017   3.457
57281W        W27881  38.910  43.035  14.791
57282W        W27882  40.572  22.035   2.758
57283W        W27883   7.152  34.031  14.379
57284W        W27884  39.647  25.056   3.788
57285W        W27885  12.082  23.760  10.604
57286W        W27886  26.115  24.764  14.502
57287W        W27887  12.767   0.501   3.823
57288W        W27888  41.873  11.145   3.604
57289W        W27889  17.186   7.211  14.314
57290W        W27890  22.134  26.624   3.183
57291W        W27891  14.518   9.599  14.754
57292W        W27892   1.273  24.686  11.352
57293W        W27893  15.762  22.965  10.748
57294W        W27894  34.162   2.916   1.773
57295W        W27895  24.900  23.682   1.405
57296W        W27896  44.012  12.872  13.411
57297W        W27897   1.962   8.448   3.740
57298W        W27898  32.022  37.060   2.384
57299W        W27899  13.711  42.487  14.430
57300W        W27900  14.419  20.345   4.165
57301W        W27901  17.632  16.873   4.792
57302W        W27902  22.153   2.140  14.344
57303W        W27903   7.652  15.316  12.626
57304W        W27904  25.084   5.405   2.626
57305W        W27905   5.222   0.466   4.605
57306W        W27906  31.340  24.472  10.890
57307W        W27907  43.868  19.085  11.721
57308W        W27908   1.385  19.750  11.667
57309W        W27909  12.662  18.830  12.499
57310W        W27910  37.474  16.611  12.187
57311W        W27911   1.975   0.725   3.745
57312W        W27912   8.289  22.492  13.870
57313W        W27913   5.212  18.305   4.991
57314W        W27914  43.436  16.308   1.903
57315W        W27915  22.071  23.209   4.411
57316W        W27916  18.623  15.267  11.058
57317W        W27917  22.194  10.069  10.029
57318W        W27918  23.599  22.551   4.682
57319W        W27919   0.937  11.009   1.381
57320W        W27920  31.689  12.495  11.504
57321W        W27921   8.185  33.849   4.155
57322W        W27922  42.225   1.320   3.609
57323W        W27923  34.523  23.260  13.079
57324W        W27924  17.974  29.999   9.468
57325W        W27925  40.031  15.521  13.339
57326W        W27926  39.388  18.658   3.177
57327W        W27927  29.489  15.539  11.575
57328W        W27928  37.744   5.767  13.978
57329W        W27929   3.327  30.573  12.548
57330W        W27930   4.091   1.704   3.305
57331W        W27931  21.035  23.224  10.622
57332W        W27932  36.051  31.443   4.263
57333W        W27933  20.208   2.267  11.938
57334W        W27934   5.654  32.555  12.897
57335W        W27935  12.173  41.365  12.447
57336W        W27936  13.476  24.898  10.259
57337W        W27937   5.762  36.922  12.343
57338W        W27938  17.760  36.876  13.975
57339W        W27939   4.543   4.748  10.421
57340W        W27940  28.686  34.035  14.444
57341W        W27941  37.922  27.710  10.634
57342W        W27942   6.274  10.513   0.544
57343W        W27943  21.676  41.859  12.073
57344W        W27944  44.942  38.419  10.774
57345W        W27945  33.905  10.230   0.715
57346W        W27946  44.915   6.802  10.666
57347W        W27947   2.385  18.261  14.432
57348W        W27948  19.725  33.817   1.608
57349W        W27949  34.583  30.687   3.905
57350W        W27950   1.538  35.795  11.160
57351W        W27951  34.903  29.563   2.840
57352W        W27952  11.327   4.580   1.418
57353W        W27953  16.149  42.411  11.677
57354W        W27954  44.190   4.858   2.345
57355W        W27955  41.768  42.899   5.069
57356W        W27956   6.296  35.633  14.437
57357W        W27957  36.369  25.621  14.000
57358W        W27958  25.773  18.321   3.960
57359W        W27959   0.517   3.871  12.394
57360W        W27960  33.605   4.135   0.364
57361W        W27961  24.756   0.995   0.326
57362W        W27962   6.601   7.899   3.332
57363W        W27963   9.257  37.856  13.984
57364W        W27964  39.025  36.905   0.194
57365W        W27965  34.817   9.299   1.808
57366W        W27966  43.404  28.889  10.993
57367W        W27967  20.824  36.431  13.518
57368W        W27968  17.107  22.221   2.920
57369W        W27969  12.738  17.791  11.582
57370W        W27970   4.940  35.910  12.106
57371W        W27971  30.095  13.709   2.311
57372W        W27972  13.845  16.005  14.529
57373W        W27973   8.791  44.079   1.343
57374W        W27974  42.823   4.730  14.918
57375W        W27975  18.683   6.943  10.481
57376W        W27976   5.694  40.561   4.752
57377W        W27977   0.178  22.572   3.555
57378W        W27978  31.391  38.540   1.889
57379W        W27979  42.371   1.712  12.877
57380W        W27980   7.207   2.383   0.205
57381W        W27981  19.350   9.270  13.471
57382W        W27982  22.005   9.055  11.179
57383W        W27983  34.678   3.752  12.436
57384W        W27984  34.100  23.515   3.264
57385W        W27985  41.347  10.823  11.503
57386W        W27986  24.601  29.201   2.661
57387W        W27987  26.961   9.180   2.285
57388W        W27988  16.770   4.184  13.924
57389W        W27989  18.076  35.792  14.673
57390W        W27990   3.228  44.340  13.808
57391W        W27991   4.243  33.019  11.596
57392W        W27992  30.582   2.474  10.684
57393W        W27993  27.608  44.227   0.915
57394W        W27994   6.458   4.605   1.384
57395W        W27995  31.037  16.835   1.269
57396W        W27996  28.494   4.352  11.320
57397W        W27997  27.679  25.211   3.221
57398W        W27998  25.739  15.326  13.925
57399W        W27999  38.880   9.473   2.671
57400W        W28000  22.972  15.350  10.690
57401W        W28001  17.088  29.966  14.927
57402W        W28002  24.552  24.734  10.591
57403W        W28003   4.917  25.494  14.407
57404W        W28004  30.613  30.378  10.352
57405W        W28005  41.435  34.463   0.335
57406W        W28006  12.778   4.163   0.813
57407W        W28007  32.671  26.024  14.254
57408W        W28008  34.639  41.842  13.292
57409W        W28009  40.278  17.023   1.971
57410W        W28010   1.954   8.909   2.326
57411W        W28011  25.967  26.019  12.078
57412W        W28012  25.755  22.766  12.577
57413W        W28013   6.341  38.562   3.252
57414W        W28014  11.039  35.899  12.151
57415W        W28015  41.409   9.382   0.384
57416W        W28016  36.145  26.619  13.367
57417W        W28017  35.381  40.273  14.319
57418W        W28018   2.558  39.002  13.378
57419W        W28019  16.339  34.970  12.111
57420W        W28020  26.226  21.200   0.762
57421W        W28021  22.485   0.980   2.825
57422W        W28022   1.484  24.420  11.731
57423W        W28023   4.000  15.153  13.414
57424W        W28024  31.337  18.690  11.228
57425W        W28025  38.774  39.349  13.821
57426W        W28026   3.938   2.223  12.070
57427W        W28027  15.693  18.165   2.441
57428W        W28028  38.009  28.646  11.959
57429W        W28029  40.035   9.674  14.341
57430W        W28030  44.031   5.712   1.845
57431W        W28031  15.615  32.898  10.226
57432W        W28032  41.629  13.178  13.479
57433W        W28033  35.676   9.133  10.418
57434W        W28034  23.771   5.348  14.675
57435W        W28035  30.206  11.809   0.331
57436W        W28036  34.510  13.569   3.742
57437W        W28037  20.159  26.394  12.371
57438W        W28038  16.317  30.596  10.531
57439W        W28039   0.513  20.517  10.952
57440W        W28040  34.078  23.814  14.071
57441W        W28041  11.073  11.723  10.922
57442W        W28042  41.136  15.960   4.938
57443W        W28043  25.479  31.382  14.752
57444W        W28044  22.358  11.563   3.152
57445W        W28045  22.052  37.437  10.847
57446W        W28046  35.068   0.230   0.697
57447W        W28047  31.684  17.551  12.953
57448W        W28048  37.537  14.792  12.972
57449W        W28049  15.667   4.498  13.855
57450W        W28050  34.351  12.154   1.418
57451W        W28051   4.002  26.141   4.139
57452W        W28052  33.858  19.943  11.294
57453W        W28053  15.492   0.776   5.008
57454W        W28054   0.473   1.965   3.093
57455W        W28055   5.737  29.450   0.932
57456W        W28056  18.610   1.239   1.271
57457W        W28057  13.570   0.308  12.086
57458W        W28058  35.397  39.950   0.726
57459W        W28059   7.908   9.769  14.423
57460W        W28060  21.109   4.402   0.887
57461W        W28061   2.553  40.981  14.779
57462W        W28062   0.131  35.604  11.026
57463W        W28063  22.662  24.362   1.857
57464W        W28064  37.441  33.137   2.690
57465W        W28065  41.400   0.216  12.903
57466W        W28066  22.753  42.789   2.829
57467W        W28067  40.404  38.860   2.378
57468W        W28068  17.984  32.048   2.761
57469W        W28069  15.119  39.058   4.668
57470W        W28070   5.921  24.693  10.794
57471W        W28071   1.482   1.900   3.315
57472W        W28072   1.350  16.750   4.472
57473W        W28073   7.256  41.025   1.008
57474W        W28074  21.674  36.082   4.220
57475W        W28075  38.883  33.811   1.727
57476W        W28076  42.977  43.505  12.558
57477W        W28077   5.349  19.389   1.863
57478W        W28078  18.286   6.216   1.902
57479W        W28079  23.993  33.895  11.592
57480W        W28080  29.511   8.428  14.022
57481W        W28081  13.371   8.797   3.768
57482W        W28082  41.433  27.894   2.678
57483W        W28083  44.923  14.542   2.380
57484W        W28084  33.680  13.289   1.963
57485W        W28085  39.954  35.234  14.014
57486W        W28086  24.835  14.591  12.356
57487W        W28087   1.989  20.686  10.492
57488W        W28088  18.585   8.768  10.469
57489W        W28089  19.448  12.238  12.028
57490W        W28090   5.360  18.232  12.754
57491W        W28091  40.811  44.510  10.744
57492W        W28092   7.634  20.692  11.014
57493W        W28093  31.049  38.306   5.639
57494W        W28094  33.883  17.142  11.639
57495W        W28095  19.220   0.483   4.018
57496W        W28096  18.293   5.124   0.936
57497W        W28097  34.497  28.085   1.749
57498W        W28098  31.465  13.460   4.008
57499W        W28099  22.560  13.852  13.416
57500W        W28100  17.869  27.587  12.536
57501W        W28101  39.611   1.611   5.071
57502W        W28102  29.416   4.164   1.311
57503W        W28103  32.927  37.338  12.885
57504W        W28104  17.286  43.001   2.312
57505W        W28105  26.020  12.776   0.153
57506W        W28106  39.785  27.167   0.314
57507W        W28107  36.832  41.213  11.549
57508W        W28108  11.707  23.205   2.709
57509W        W28109  15.977  37.423  13.273
57510W        W28110  28.904  23.240   2.601
57511W        W28111  39.554  18.812  11.998
57512W        W28112  37.387   4.190  12.844
57513W        W28113  24.309  36.886  12.108
57514W        W28114  44.361  15.825   0.018
57515W        W28115   9.390  20.485  13.913
57516W        W28116  32.088  20.611  13.369
57517W        W28117  39.525  33.673  13.310
57518W        W28118   8.287  38.472   2.456
57519W        W28119  35.578  23.138  14.408
57520W        W28120   7.650   6.923  10.866
57521W        W28121  37.854   8.427   0.321
57522W        W28122   4.854  17.798   0.311
57523W        W28123   0.537  12.583   0.249
57524W        W28124  41.583   6.841   3.735
57525W        W28125   6.907  36.555   3.703
57526W        W28126   8.827  39.824   4.622
57527W        W28127  17.587  20.664   3.983
57528W        W28128   7.203  27.458   0.752
57529W        W28129   6.306   5.378   1.798
57530W        W28130  41.286  20.486   1.845
57531W        W28131  37.642  36.080  11.511
57532W        W28132  39.870  13.969  13.111
57533W        W28133  10.570  16.784   0.837
57534W        W28134  22.573  15.976   4.249
57535W        W28135  20.484  14.570  10.356
57536W        W28136  30.438  23.196   1.210
57537W        W28137  42.463  33.611  13.789
57538W        W28138  42.584  17.216   3.551
57539W        W28139   0.128   7.875  11.553
57540W        W28140  21.214  20.994  14.781
57541W        W28141   9.561  15.925  13.511
57542W        W28142   1.800  29.497   4.434
57543W        W28143   9.176  25.593   4.803
57544W        W28144   8.978  24.500   1.271
57545W        W28145  36.979   8.329   0.795
57546W        W28146  14.172   9.322   4.134
57547W        W28147  39.451   4.882   1.217
57548W        W28148  29.612  39.913  12.498
57549W        W28149  32.378   1.338  13.026
57550W        W28150   1.654   4.257  14.936
57551W        W28151  32.106  26.683   2.203
57552W        W28152  41.258  10.118   4.660
57553W        W28153  19.558  16.849   4.172
57554W        W28154   5.168  29.220   3.389
57555W        W28155   0.859  21.710  10.688
57556W        W28156  12.185  41.828  10.605
57557W        W28157  28.088   4.914  11.972
57558W        W28158   9.247   7.261   0.897
57559W        W28159   5.893  23.176   0.715
57560W        W28160   4.411  32.515   0.414
57561W        W28161  38.656  16.788   4.494
57562W        W28162  28.511   1.225   4.525
57563W        W28163  28.554  44.018  14.767
57564W        W28164  26.984  38.989  13.385
57565W        W28165   4.962  32.471  11.137
57566W        W28166  34.871  36.827  14.517
57567W        W28167  14.156   1.477  10.582
57568W        W28168  21.814  27.697   3.569
57569W        W28169  19.282  38.894   4.040
57570W        W28170  22.141  24.414  10.869
57571W        W28171   2.228  30.667  11.633
57572W        W28172  43.428   0.895   3.578
57573W        W28173  13.257   2.911   3.642
57574W        W28174   9.086   1.043   2.424
57575W        W28175   0.406  36.377   2.859
57576W        W28176  40.387  10.874  13.995
57577W        W28177  27.760   8.603  12.588
57578W        W28178  20.329  36.347  13.511
57579W        W28179  27.480  10.049   4.185
57580W        W28180  18.595  20.007  12.146
57581W        W28181   0.234  27.835   0.321
57582W        W28182  35.874   1.859  11.199
57583W        W28183  44.323  16.053  14.206
57584W        W28184  23.937   3.333  11.074
57585W        W28185  16.610  10.195   1.398
57586W        W28186   5.936  34.841  12.125
57587W        W28187  35.763  14.337   0.474
57588W        W28188  39.909   2.444   3.228
57589W        W28189  11.024  34.105  10.532
57590W        W28190  39.947  38.323   3.164
57591W        W28191  18.541  31.012   2.929
57592W        W28192  20.242   6.310   3.666
57593W        W28193  11.871  18.498   1.796
57594W        W28194  33.338  15.136   2.153
57595W        W28195  21.105  25.236   0.893
57596W        W28196  36.015  32.844   4.048
57597W        W28197  30.975   7.449   3.711
57598W        W28198  19.634   3.800   2.726
57599W        W28199   8.307  40.545   0.400
57600W        W28200  25.027  25.898  12.914
57601W        W28201  33.595  23.120   3.690
57602W        W28202   8.861   3.426  11.360
57603W        W28203  38.454   4.155  14.264
57604W        W28204   0.130  37.041  12.575
57605W        W28205   7.086  42.468  11.592
57606W        W28206   0.806  33.951  13.305
57607W        W28207  25.087  21.230  10.718
57608W        W28208  16.088   5.586  11.717
57609W        W28209  15.694  34.004   1.431
57610W        W28210  16.416  15.321  12.037
57611W        W28211  39.735  39.579  12.372
57612W        W28212   0.572  43.281  10.517
57613W        W28213  38.603  20.314   0.368
57614W        W28214  17.041  41.209  10.929
57615W        W28215  39.893   5.608   2.650
57616W        W28216  17.579  29.048  14.247
57617W        W28217  44.546  33.877  10.715
57618W        W28218  11.833   9.425  13.978
57619W        W28219  26.434   9.289  14.464
57620W        W28220  19.230  16.487  11.044
57621W        W28221  31.199   5.881   1.557
57622W        W28222  17.795  44.956  11.563
57623W        W28223  30.841   0.429   3.520
57624W        W28224   6.371  24.469  13.933
57625W        W28225  33.088  10.353  13.496
57626W        W28226  41.355  37.791   4.995
57627W        W28227   3.106  36.159  12.933
57628W        W28228  35.533  29.080   0.566
57629W        W28229   5.829  18.752  12.156
57630W        W28230  40.030  10.566  11.921
57631W        W28231  44.109  10.836  11.239
57632W        W28232  24.756   5.300  13.593
57633W        W28233  12.359  44.173  13.005
57634W        W28234  37.315   0.560   4.535
57635W        W28235  26.728   5.158  10.756
57636W        W28236  43.382  24.080  14.702
57637W        W28237   4.103  13.196   3.593
57638W        W28238  35.973  23.968  13.626
57639W        W28239  32.153   2.734   4.284
57640W        W28240   4.303  32.039   1.240
57641W        W28241   7.120  32.957  11.191
57642W        W28242  16.736   7.694   2.394
57643W        W28243  30.666  41.275  13.913
57644W        W28244  21.052  31.597   3.351
57645W        W28245  15.062   0.884  11.060
57646W        W28246  15.665   6.321   0.385
57647W        W28247  40.122  27.072   0.895
57648W        W28248  11.827  13.760   1.900
57649W        W28249  29.120  44.846   3.511
57650W        W28250   4.881  41.351  14.754
57651W        W28251  33.484  33.665   3.633
57652W        W28252  33.094  20.780  14.930
57653W        W28253   5.273  23.039  12.965
57654W        W28254  24.501  43.075   2.927
57655W        W28255  20.516  31.411   4.120
57656W        W28256  38.416  28.910  10.502
57657W        W28257  44.236  34.762  10.658
57658W        W28258  41.526  13.570   5.069
57659W        W28259  15.571  41.815  13.739
57660W        W28260  13.882   5.360   2.472
57661W        W28261  36.141  13.960   5.053
57662W        W28262  35.477  31.152  12.396
57663W        W28263  32.910  19.016   1.878
57664W        W28264  36.741   0.220   0.962
57665W        W28265  25.581  26.884  11.170
57666W        W28266  41.973   1.789   4.157
57667W        W28267  35.127  14.831  12.902
57668W        W28268  42.520   2.027  11.549
57669W        W28269  44.212  37.916  11.433
57670W        W28270   8.837  12.456   4.178
57671W        W28271  33.125  36.389  12.371
57672W        W28272  31.742  16.862  12.386
57673W        W28273  11.731   8.451  12.478
57674W        W28274  19.155  20.255   1.881
57675W        W28275  42.488  39.919   1.346
57676W        W28276  18.228   5.895  11.604
57677W        W28277  25.994  26.172   2.280
57678W        W28278   5.724   0.544  10.698
57679W        W28279  29.227  33.850  11.716
57680W        W28280  34.290  21.786  12.566
57681W        W28281  38.498  13.534   2.417
57682W        W28282  12.988  14.901  11.557
57683W        W28283  14.688   3.746  14.364
57684W        W28284  36.900  30.450  10.653
57685W        W28285   0.860  24.464  13.955
57686W        W28286   5.705  40.846  12.095
57687W        W28287  43.544  41.838   2.344
57688W        W28288  16.658  22.121   2.612
57689W        W28289  21.455  13.738  13.065
57690W        W28290  17.251   9.924  10.651
57691W        W28291  41.547  11.741   0.869
57692W        W28292  29.850  34.070  13.116
57693W        W28293  24.239  32.506  14.194
57694W        W28294   0.480  32.825  14.540
57695W        W28295   9.764   0.955   0.297
57696W        W28296   8.341  13.786   4.191
57697W        W28297  38.118  38.076   3.880
57698W        W28298  44.812  41.834  13.957
57699W        W28299   4.817  33.404  12.529
57700W        W28300  24.936   7.443  14.008
57701W        W28301  26.397  12.881  14.751
57702W        W28302  16.301  28.288   4.154
57703W        W28303   4.636  31.442   4.632
57704W        W28304  38.912  14.826  12.443
57705W        W28305  31.557  41.135   1.273
57706W        W28306  44.414  37.182   1.775
57707W        W28307  37.264   2.457   1.377
57708W        W28308  17.366  25.712  11.995
57709W        W28309   0.908  23.607   2.233
57710W        W28310  18.148  13.607  13.325
57711W        W28311  42.051  23.935   4.121
57712W        W28312  20.205  19.538  12.073
57713W        W28313   7.584  25.778  13.976
57714W        W28314  21.036  22.809  12.979
57715W        W28315  27.664   3.358  14.194
57716W        W28316  29.571  20.283  10.993
57717W        W28317  16.159  17.692  10.586
57718W        W28318   4.881   4.303   1.366
57719W        W28319   1.924  36.901   3.227
57720W        W28320  23.172  29.928  14.899
57721W        W28321  26.263  30.863   3.184
57722W        W28322  32.229   0.242  12.254
57723W        W28323   8.636  13.119  10.661
57724W        W28324   5.940  19.099   1.110
57725W        W28325  28.900  26.964   9.999
57726W        W28326  39.493  35.947  10.619
57727W        W28327  34.857  13.610  13.028
57728W        W28328  21.139   4.895  14.526
57729W        W28329  41.409  29.568   2.919
57730W        W28330  42.929  40.296   3.994
57731W        W28331   9.856   0.728   0.775
57732W        W28332  22.251   0.364  14.021
57733W        W28333  20.845   2.271   2.216
57734W        W28334  15.052   0.674  10.038
57735W        W28335  43.324  16.007   1.323
57736W        W28336  37.018   9.906   2.866
57737W        W28337  20.050  35.023   2.174
57738W        W28338  18.728  33.810  12.322
57739W        W28339  32.400   8.775   0.414
57740W        W28340   6.285  26.983  12.178
57741W        W28341  39.856   7.267  12.513
57742W        W28342   0.238  37.951  12.590
57743W        W28343  11.111  44.219  14.841
57744W        W28344  34.606  23.760  11.572
57745W        W28345   9.702   0.872  12.080
57746W        W28346  38.913   7.411  10.740
57747W        W28347  39.552  32.476   1.301
57748W        W28348  36.230  31.837   0.400
57749W        W28349  37.953  18.559  13.392
57750W        W28350   7.796   9.954   0.841
57751W        W28351  38.588  13.692  11.716
57752W        W28352  11.924  37.068   0.939
57753W        W28353  37.963   0.116   0.579
57754W        W28354  27.574  21.691  11.708
57755W        W28355   8.924  21.122   1.840
57756W        W28356   4.398   8.678   2.008
57757W        W28357  17.662  39.666  12.871
57758W        W28358   2.893   0.972  12.572
57759W        W28359  25.846   3.339   0.382
57760W        W28360   4.173  23.212   2.901
57761W        W28361  19.070  37.280   2.670
57762W        W28362  35.554   1.066  11.178
57763W        W28363  30.536  10.792  10.474
57764W        W28364  42.184  34.166  11.071
57765W        W28365  15.857  20.444  13.976
57766W        W28366   9.241  15.571  10.302
57767W        W28367   2.420  42.915   1.629
57768W        W28368  24.421  36.306  11.117
57769W        W28369   6.425  20.491  10.367
57770W        W28370  31.440  44.248  11.990
57771W        W28371   9.919  39.824   2.891
57772W        W28372  39.982  28.142   4.139
57773W        W28373   2.727  32.061   3.088
57774W        W28374   3.869  12.825  12.196
57775W        W28375   0.278  40.927  12.933
57776W        W28376  39.577  31.049   1.476
57777W        W28377   0.720  28.342  14.647
57778W        W28378  34.871   9.819  12.593
57779W        W28379  31.654  15.546   3.325
57780W        W28380  39.965  35.049   4.672
57781W        W28381  41.495   9.891   0.412
57782W        W28382  35.849  19.199   0.682
57783W        W28383   2.304  20.229   1.940
57784W        W28384  22.312   4.344   1.334
57785W        W28385  40.517  26.714   0.643
57786W        W28386  27.158  11.577  14.391
57787W        W28387   6.303   1.850   2.169
57788W        W28388  15.730  30.389   1.354
57789W        W28389  27.753  14.346  11.704
57790W        W28390  28.926  12.734   1.306
57791W        W28391   4.709  29.664  11.953
57792W        W28392  11.615  30.910   2.935
57793W        W28393   9.654   4.987  10.901
57794W        W28394   4.798  28.226  11.945
57795W        W28395  32.036  27.197   0.432
57796W        W28396  36.864   7.315   4.102
57797W        W28397   4.304   9.235   4.234
57798W        W28398  37.315  41.595   2.344
57799W        W28399  20.870  39.550   1.785
57800W        W28400   8.760  23.413  10.724
57801W        W28401  24.639   2.840   3.922
57802W        W28402  14.906   6.395  12.904
57803W        W28403  15.207  37.980   2.134
57804W        W28404  29.492  39.002   3.835
57805W        W28405  37.306   5.297   3.726
57806W        W28406  10.492  44.675  11.554
57807W        W28407  37.170  12.861   1.191
57808W        W28408  27.486   1.816  11.881
57809W        W28409  38.928  37.334  11.509
57810W        W28410  13.327  13.535   5.246
57811W        W28411  19.998   7.743  13.352
57812W        W28412   5.062  12.620  13.686
57813W        W28413  40.130  23.946   0.091
57814W        W28414  38.301  30.629   1.852
57815W        W28415  41.417  22.588   3.144
57816W        W28416  34.832  12.731   5.137
57817W        W28417  20.792  26.913   0.850
57818W        W28418  25.689  27.700   4.293
57819W        W28419  41.297   4.122   1.811
57820W        W28420  37.426  24.947  14.306
57821W        W28421  40.045  18.891  11.732
57822W        W28422  31.487  19.965   4.077
57823W        W28423   8.432  35.311   0.286
57824W        W28424  11.368  24.708  12.943
57825W        W28425  30.389  18.352   0.481
57826W        W28426  36.899  14.852   4.469
57827W        W28427  26.563  23.616  11.992
57828W        W28428   5.237  10.480  11.120
57829W        W28429   4.905  30.932   2.673
57830W        W28430  33.334  32.053  14.254
57831W        W28431   9.608  30.574  12.908
57832W        W28432  20.187  38.085  13.374
57833W        W28433   9.340  33.961  14.424
57834W        W28434  20.320  35.980   2.403
57835W        W28435  25.690   6.695  11.012
57836W        W28436   5.806  22.236  14.641
57837W        W28437  36.478  18.024  13.103
57838W        W28438  12.238  11.401   2.463
57839W        W28439   9.373  20.688  12.092
57840W        W28440   2.293   9.652  10.552
57841W        W28441  44.688  37.138  11.419
57842W        W28442  11.084  30.261  13.445
57843W        W28443  36.135  21.758   3.282
57844W        W28444   3.743  24.186   3.218
57845W        W28445  30.276  23.303   3.791
57846W        W28446  21.206  30.945  11.652
57847W        W28447  14.697  18.821   1.635
57848W        W28448  15.519  26.159  12.120
57849W        W28449   0.792  18.734  11.484
57850W        W28450  11.588   3.223   0.953
57851W        W28451  13.047  18.286  10.297
57852W        W28452  16.800   6.693   1.216
57853W        W28453  23.965  17.561   0.766
57854W        W28454  19.258   2.021  12.626
57855W        W28455  10.577   9.671   4.659
57856W        W28456  10.711   0.948   0.764
57857W        W28457  23.066  16.257   1.061
57858W        W28458  41.463  30.531   2.366
57859W        W28459  35.448  44.764  13.398
57860W        W28460  42.185  30.901   0.624
57861W        W28461  32.401  20.037   5.000
57862W        W28462   8.294  21.511   4.638
57863W        W28463  21.206  43.785  11.569
57864W        W28464  39.088  24.053   3.232
57865W        W28465  40.070  40.468   4.032
57866W        W28466  31.562  32.399  11.876
57867W        W28467  14.750  31.354  11.650
57868W        W28468  38.899   7.548  13.377
57869W        W28469   4.504  36.246  11.193
57870W        W28470  41.893  13.110  14.584
57871W        W28471   6.037   3.778  13.109
57872W        W28472  11.575   6.827   4.212
57873W        W28473  19.928  44.327  14.433
57874W        W28474  25.396  44.841  12.428
57875W        W28475   9.850  15.399  11.126
57876W        W28476  24.461  41.419   4.152
57877W        W28477  23.707  18.547   4.638
57878W        W28478  22.746  32.554   1.244
57879W        W28479   9.452  19.484   0.719
57880W        W28480  17.000  19.604  13.902
57881W        W28481  28.434  40.273   1.400
57882W        W28482  16.206  16.781   1.626
57883W        W28483  38.951  28.161   2.033
57884W        W28484  36.380  22.994  11.083
57885W        W28485  23.861  17.251   4.327
57886W        W28486  17.996  39.960   2.825
57887W        W28487  17.758  40.767  12.544
57888W        W28488  15.749   4.227  12.033
57889W        W28489  15.969  20.244  11.967
57890W        W28490  33.845  29.002  11.773
57891W        W28491  26.928  14.145  14.569
57892W        W28492  28.156  38.875   1.185
57893W        W28493   9.867  20.021  11.174
57894W        W28494  19.102  37.093  11.688
57895W        W28495  31.370  19.623  14.019
57896W        W28496   7.008  13.465  10.978
57897W        W28497   8.461  26.759  13.789
57898W        W28498  32.763  43.408   0.384
57899W        W28499  12.414  16.519  13.144
57900W        W28500  31.156  38.472   2.368
57901W        W28501  31.948   5.182  13.266
57902W        W28502   4.750   1.304   1.015
57903W        W28503  16.144  44.363   3.699
57904W        W28504  44.822  42.906   2.705
57905W        W28505  26.943  42.342  13.897
57906W        W28506  21.598   1.262   0.633
57907W        W28507   6.315  43.972   3.654
57908W        W28508  23.023   6.386  11.642
57909W        W28509  10.131  25.959   5.090
57910W        W28510  18.272  19.318   2.412
57911W        W28511  30.551  30.969  12.593
57912W        W28512  34.461   3.615  11.950
57913W        W28513   8.898  28.158  13.998
57914W        W28514  21.901  30.423   3.150
57915W        W28515  25.406   3.795  11.438
57916W        W28516  33.068  22.558   3.225
57917W        W28517   2.231  21.501   3.334
57918W        W28518  24.257  19.061  11.862
57919W        W28519  30.562  11.214   3.640
57920W        W28520  27.180  38.030  13.021
57921W        W28521  34.098   8.300   2.372
57922W        W28522  13.700  19.322  14.543
57923W        W28523  19.665  37.804  14.211
57924W        W28524  20.697  24.603   4.645
57925W        W28525   8.725  30.112  10.653
57926W        W28526   5.914  22.602   3.771
57927W        W28527  34.506  26.500  14.367
57928W        W28528  30.847   6.227   0.391
57929W        W28529  30.158   9.972  13.503
57930W        W28530  21.649  32.656   4.559
57931W        W28531  37.451  43.786  14.781
57932W        W28532  18.532  22.515   2.315
57933W        W28533  16.113  36.496   4.076
57934W        W28534   4.366  40.796  11.924
57935W        W28535  40.854  20.331  13.417
57936W        W28536  33.049   8.784  14.580
57937W        W28537  40.524   4.944  11.655
57938W        W28538  16.764  31.892  11.129
57939W        W28539   1.192   6.891  13.406
57940W        W28540  12.270  44.542  14.013
57941W        W28541  36.211  41.749  12.009
57942W        W28542  35.890  39.593   4.226
57943W        W28543  36.051  28.601  12.092
57944W        W28544  21.530  33.128  13.958
57945W        W28545  20.596  24.608   4.140
57946W        W28546  16.548  27.585  14.262
57947W        W28547  22.684  10.911   0.959
57948W        W28548  41.483  11.416  14.984
57949W        W28549  11.265  23.988  11.515
57950W        W28550  18.036  12.821   0.949
57951W        W28551  41.897   1.858  13.614
57952W        W28552   0.854  34.370   3.213
57953W        W28553  34.345  16.722  13.366
57954W        W28554  15.656  43.252   0.719
57955W        W28555  25.188  11.117   4.514
57956W        W28556  34.498  23.061   2.675
57957W        W28557  37.472  16.173   3.782
57958W        W28558  19.195  29.448   5.145
57959W        W28559  39.277  37.902   4.409
57960W        W28560  40.998  42.958  13.437
57961W        W28561   2.570  18.922   0.769
57962W        W28562  14.459  44.995   3.727
57963W        W28563  32.299  43.582  13.188
57964W        W28564   6.500  19.771  13.003
57965W        W28565  24.357  29.614  12.241
57966W        W28566  16.953  40.054   4.919
57967W        W28567  19.229   6.837   1.436
57968W        W28568  30.484   5.644   1.764
57969W        W28569  11.740  39.997   1.950
57970W        W28570  44.991  29.852   2.401
57971W        W28571  18.711   9.288  13.773
57972W        W28572  44.021  31.679   1.811
57973W        W28573  32.323   4.503   0.050
57974W        W28574  12.502  43.620   5.047
57975W        W28575   3.781  12.683  14.079
57976W        W28576  26.651  36.360  14.716
57977W        W28577  14.835   5.878   4.243
57978W        W28578  29.461  38.442   2.584
57979W        W28579  21.579   9.313   2.648
57980W        W28580  40.953  43.520  13.305
57981W        W28581  23.559   9.736  13.055
57982W        W28582   7.185  28.949   3.229
57983W        W28583   1.340   4.799  13.619
57984W        W28584   2.246   1.506  12.617
57985W        W28585  33.412  17.745   1.255
57986W        W28586   9.744   9.987  12.629
57987W        W28587  27.910  11.526   2.407
57988W        W28588  44.580  39.357  12.059
57989W        W28589  28.625  13.902   3.321
57990W        W28590  12.635  39.929  10.592
57991W        W28591  31.697  29.401  14.418
57992W        W28592  16.581  42.899   3.166
57993W        W28593  34.074  24.903  11.187
57994W        W28594  27.720  31.628   2.671
57995W        W28595  13.333   0.020   2.272
57996W        W28596  20.341   4.878  12.185
57997W        W28597  36.129  44.258   4.103
57998W        W28598  22.290   1.404   2.195
57999W        W28599  34.931  29.547   1.926
58000W        W28600  41.043   9.758   0.659
58001W        W28601   5.821  21.691   2.027
58002W        W28602   8.462  17.638  11.662
58003W        W28603  37.041  33.874  11.529
58004W        W28604  23.678  31.450   1.575
58005W        W28605  11.584  12.138  12.949
58006W        W28606   6.781  13.313  11.431
58007W        W28607  11.101  14.858  11.559
58008W        W28608  38.395  23.575   4.155
58009W        W28609  11.695  18.242  14.390
58010W        W28610  20.186  28.642  13.243
58011W        W28611  43.381  36.905   0.916
58012W        W28612  39.180  12.249   0.393
58013W        W28613  22.982  20.045  12.023
58014W        W28614  15.740  39.890   1.527
58015W        W28615  10.626  31.400   1.158
58016W        W28616  21.067  24.051   4.684
58017W        W28617  25.901  12.407   0.875
58018W        W28618  23.757  23.103  10.896
58019W        W28619   1.579   9.266  11.489
58020W        W28620  34.284  21.555  10.611
58021W        W28621  39.418  13.743  12.210
58022W        W28622  32.476  10.828  10.609
58023W        W28623   7.132  12.750   1.502
58024W        W28624  14.749  34.291   1.869
58025W        W28625  22.596   2.588   1.717
58026W        W28626   6.371  16.998   1.310
58027W        W28627  34.639  30.993   2.817
58028W        W28628  24.942  16.739  12.024
58029W        W28629   2.351  26.450  13.415
58030W        W28630  25.275  15.674  13.014
58031W        W28631  15.196   2.497  11.628
58032W        W28632  34.739  23.304  13.557
58033W        W28633  12.259   0.425  12.547
58034W        W28634  22.154  24.419   3.647
58035W        W28635  19.231  16.773  14.662
58036W        W28636  27.990   6.785  11.522
58037W        W28637  42.324  34.854   3.131
58038W        W28638  42.594  43.715  13.980
58039W        W28639  38.574  41.405  11.194
58040W        W28640   7.258  14.247  10.946
58041W        W28641   3.263  16.081   0.224
58042W        W28642   3.701  29.528   1.763
58043W        W28643  34.584  15.538  12.873
58044W        W28644  43.077  31.135   2.654
58045W        W28645  26.569  40.833  12.496
58046W        W28646  17.447  18.130   3.206
58047W        W28647  15.801  37.908  14.913
58048W        W28648   5.836  11.637   4.576
58049W        W28649  28.398  18.544   0.754
58050W        W28650  38.107  15.700  10.711
58051W        W28651  23.100  40.832   0.657
58052W        W28652   6.363  44.663  12.279
58053W        W28653  34.608  11.388  13.485
58054W        W28654  16.246  41.159  10.649
58055W        W28655   5.991  35.973   2.401
58056W        W28656  43.303  25.969   0.442
58057W        W28657  37.450  39.250   0.297
58058W        W28658  43.525  14.362   4.201
58059W        W28659   6.446  30.695  11.584
58060W        W28660  42.858  42.224  13.537
58061W        W28661  32.155  42.266   3.554
58062W        W28662  42.713  44.472  14.444
58063W        W28663  14.700  32.944  10.670
58064W        W28664  16.070  37.004   2.276
58065W        W28665  15.749  16.063   3.206
58066W        W28666  43.507  22.009   1.339
58067W        W28667  27.424  24.015   4.079
58068W        W28668  28.371   7.562  13.718
58069W        W28669  17.759  27.597   3.935
58070W        W28670   6.902  41.076   3.697
58071W        W28671  40.021  16.947   5.019
58072W        W28672  35.953  37.400  14.481
58073W        W28673  31.138   7.747   2.176
58074W        W28674  25.920   5.103   4.264
58075W        W28675  31.769  44.027  11.564
58076W        W28676  30.083  25.935  12.161
58077W        W28677  43.373   9.733  13.107
58078W        W28678  10.263   9.787   5.053
58079W        W28679  31.526  16.074   1.209
58080W        W28680  38.853  30.351  11.936
58081W        W28681   8.249  22.427  11.558
58082W        W28682  11.819  15.353  10.742
58083W        W28683  26.732   6.685  11.087
58084W        W28684  30.960   8.848   3.602
58085W        W28685   6.375  23.692   0.520
58086W        W28686  33.502  18.441   2.019
58087W        W28687  18.569   3.404   1.924
58088W        W28688  32.093  26.106   1.332
58089W        W28689  36.981   3.679  14.340
58090W        W28690  16.817   7.943  14.995
58091W        W28691  33.696  16.676   1.517
58092W        W28692  44.854   4.816   0.329
58093W        W28693  10.202  20.052   2.783
58094W        W28694  32.905   7.301   2.031
58095W        W28695   4.459  15.480  12.373
58096W        W28696  24.195  43.432   0.906
58097W        W28697  35.475  10.635  13.024
58098W        W28698  41.511   8.778   1.575
58099W        W28699  12.073  37.993  12.932
58100W        W28700  13.033  33.518  10.657
58101W        W28701   9.260  14.340  11.903
58102W        W28702   1.326  43.776   4.594
58103W        W28703  26.188  32.854   3.587
58104W        W28704  29.338  16.727  12.073
58105W        W28705   4.940  40.069   1.976
58106W        W28706  34.354  35.457  13.929
58107W        W28707  43.405  15.418  12.016
58108W        W28708  13.772  21.325   0.053
58109W        W28709  21.741  40.546  11.599
58110W        W28710  18.039   3.810  11.565
58111W        W28711   3.686  43.089   4.167
58112W        W28712  25.259  40.396  11.742
58113W        W28713   5.352  29.922   4.578
58114W        W28714   6.687  39.344  14.867
58115W        W28715  36.012  18.329  12.591
58116W        W28716  16.307   2.727  14.329
58117W        W28717   2.385  23.946   0.006
58118W        W28718   7.537  30.762  12.352
58119W        W28719  42.795  44.304  12.106
58120W        W28720  36.902  21.404   1.476
58121W        W28721  23.751  38.450   1.866
58122W        W28722   8.608  44.280   5.021
58123W        W28723   0.920  12.276   0.387
58124W        W28724   8.031  32.099   1.230
58125W        W28725  26.346  37.436   4.506
58126W        W28726  39.569  13.290   3.600
58127W        W28727  31.554  19.812  14.472
58128W        W28728  32.599  30.682   0.449
58129W        W28729  42.351   9.322  15.000
58130W        W28730  37.820  36.108   3.167
58131W        W28731   8.737  32.392   0.800
58132W        W28732  39.877  11.636   4.847
58133W        W28733   0.249   0.825   0.387
58134W        W28734  17.202   9.324  14.455
58135W        W28735  31.478  24.659   3.754
58136W        W28736  19.857   9.085  13.453
58137W        W28737   1.247  32.908  11.192
58138W        W28738  14.338   1.342   4.115
58139W        W28739   3.988  16.805   4.052
58140W        W28740  41.827  39.164  10.169
58141W        W28741  30.850   2.466   0.145
58142W        W28742  32.018  32.416   5.266
58143W        W28743  14.116  43.554   1.779
58144W        W28744   8.664  24.231   3.351
58145W        W28745  36.554  17.000  11.343
58146W        W28746  44.529   5.795  12.422
58147W        W28747  33.480  34.730   2.197
58148W        W28748  36.901  18.236   2.643
58149W        W28749  21.670   6.965   1.146
58150W        W28750  34.885  37.581  12.958
58151W        W28751  27.438  43.188   1.845
58152W        W28752  27.004  19.276   3.178
58153W        W28753  32.387  36.464   3.959
58154W        W28754  18.182   5.316   1.435
58155W        W28755  17.720  37.481   4.592
58156W        W28756  11.441  29.589  11.512
58157W        W28757  29.652   3.163  13.799
58158W        W28758  40.440  41.572   1.031
58159W        W28759  14.838  12.676  13.754
58160W        W28760  40.601   7.656  10.776
58161W        W28761   7.375  35.807  12.569
58162W        W28762   1.226  39.987  11.650
58163W        W28763  25.178  17.315  13.858
58164W        W28764  35.897  25.191   4.323
58165W        W28765  27.384   8.386   1.364
58166W        W28766  16.564  44.719   3.691
58167W        W28767  29.580   7.373  13.979
58168W        W28768  15.218  19.543   0.750
58169W        W28769  26.736  38.147  11.055
58170W        W28770  21.045  24.426   4.306
58171W        W28771  40.929  34.093  14.827
58172W        W28772   4.940  44.006  14.343
58173W        W28773  27.053  19.079   4.058
58174W        W28774  32.518  36.793  14.852
58175W        W28775  37.404   7.205  13.918
58176W        W28776   2.428  24.619  10.946
58177W        W28777  18.859  21.542   2.317
58178W        W28778  19.769   3.208   2.896
58179W        W28779   2.779  25.105  12.995
58180W        W28780  42.399   7.251  11.166
58181W        W28781  19.027  24.182  10.689
58182W        W28782   7.365  43.957   0.244
58183W        W28783   8.937  30.140   3.725
58184W        W28784  31.628  13.170  10.846
58185W        W28785  43.796   5.212   0.894
58186W        W28786   0.921  44.237   3.383
58187W        W28787  18.587  35.649  11.098
58188W        W28788  18.292  12.660  13.870
58189W        W28789  28.198  30.456   4.828
58190W        W28790  31.249  18.171  11.188
58191W        W28791  36.347  36.435   3.282
58192W        W28792  40.630  20.354   0.734
58193W        W28793  11.194  38.401  11.882
58194W        W28794  40.225  32.066   0.351
58195W        W28795  15.094  26.034  10.818
58196W        W28796  16.650  27.266  11.675
58197W        W28797  19.894   4.919  11.923
58198W        W28798  23.468  44.530   3.162
58199W        W28799   9.094   6.468  13.391
58200W        W28800  10.704  32.679   1.637
58201W        W28801  16.251  32.084   2.358
58202W        W28802  38.409  18.642  14.851
58203W        W28803  29.922   3.692   4.228
58204W        W28804   7.819  38.757   4.078
58205W        W28805  16.642  10.683  11.089
58206W        W28806   3.795  32.018  12.180
58207W        W28807  26.575  14.956   4.615
58208W        W28808   1.386  33.086  14.444
58209W        W28809  11.875  38.347   1.325
58210W        W28810  36.507  20.612   2.969
58211W        W28811  23.486  36.893  14.798
58212W        W28812  42.940  34.437   0.396
58213W        W28813   6.910  16.092   4.854
58214W        W28814  25.476   1.332  12.158
58215W        W28815  34.579  21.046  14.085
58216W        W28816   0.261  21.523  12.892
58217W        W28817   4.210  28.969   3.631
58218W        W28818  12.813   7.330  12.390
58219W        W28819  38.984  43.347  14.309
58220W        W28820  28.598  10.121   0.380
58221W        W28821  30.413  44.385  14.567
58222W        W28822  15.380   0.698  11.430
58223W        W28823  26.598  23.142   4.556
58224W        W28824  32.931  44.681  14.900
58225W        W28825  23.998  36.869  14.593
58226W        W28826  37.951  24.918   1.317
58227W        W28827  22.076  41.865  11.013
58228W        W28828  17.614  12.032  10.313
58229W        W28829  31.400  37.774   3.765
58230W        W28830  23.521  14.252   4.039
58231W        W28831  35.552  23.135  13.546
58232W        W28832  40.358   9.166   0.995
58233W        W28833  13.767  34.433  11.398
58234W        W28834  31.399  18.996   0.559
58235W        W28835  18.019  28.505   3.033
58236W        W28836  36.497  28.412   1.929
58237W        W28837   6.117  36.465  13.936
58238W        W28838  16.378  27.085   3.723
58239W        W28839  15.550   4.516   3.701
58240W        W28840  11.912  12.334  14.281
58241W        W28841   2.952  19.516   1.786
58242W        W28842  34.386   9.684   0.361
58243W        W28843  28.196  40.100  12.480
58244W        W28844  23.944  29.670  11.452
58245W        W28845  24.090  44.368   3.729
58246W        W28846  39.391   2.754  12.083
58247W        W28847  27.625  32.434  10.748
58248W        W28848  20.578   5.809   4.444
58249W        W28849  44.682  21.753  14.469
58250W        W28850  36.269  44.933  10.493
58251W        W28851  43.239  15.626   4.565
58252W        W28852  37.520  13.823  14.047
58253W        W28853  34.008  38.193   3.299
58254W        W28854   7.902  38.761   4.579
58255W        W28855  39.286  27.567  11.146
58256W        W28856  17.102  27.612  13.820
58257W        W28857  16.018   4.789  11.940
58258W        W28858  13.843  11.368   1.435
58259W        W28859  21.510   3.454   4.212
58260W        W28860  16.478   6.221   2.341
58261W        W28861  43.925  14.029   2.958
58262W        W28862   0.913  25.388   2.309
58263W        W28863   1.311  30.103   3.048
58264W        W28864  34.218  26.228   2.734
58265W        W28865  23.109  44.995  12.176
58266W        W28866  13.674  41.214   1.600
58267W        W28867   3.053  42.800  11.891
58268W        W28868   4.263  18.111   1.268
58269W        W28869  31.932  40.986   3.002
58270W        W28870  39.689  37.051  11.114
58271W        W28871  35.952  32.448  11.886
58272W        W28872  16.100   3.464  12.953
58273W        W28873  36.266   1.750   4.168
58274W        W28874  36.357  21.565   0.755
58275W        W28875  39.388  33.918  11.106
58276W        W28876  32.542   0.629   3.834
58277W        W28877  41.909  21.510   0.320
58278W        W28878  22.253  24.418   0.863
58279W        W28879  10.528  19.622  10.629
58280W        W28880  27.151  18.317  12.965
58281W        W28881   4.104  14.910   3.132
58282W        W28882  27.725  15.309   0.346
58283W        W28883  19.259  13.069   2.594
58284W        W28884  28.880  17.208   0.868
58285W        W28885  12.793  24.010   2.819
58286W        W28886   5.164  31.246  14.045
58287W        W28887  13.172  35.862  11.882
58288W        W28888   3.762  25.468  11.363
58289W        W28889  24.520  38.631   0.302
58290W        W28890   1.631  28.044  14.297
58291W        W28891   2.811  22.628  14.444
58292W        W28892  18.749  10.204  14.334
58293W        W28893  10.280  40.730   2.557
58294W        W28894  20.293  17.116  10.739
58295W        W28895  33.077  30.621  14.285
58296W        W28896  42.967  27.882   0.913
58297W        W28897  44.938  31.664  10.688
58298W        W28898  10.665  16.100   4.172
58299W        W28899  34.673  20.712  10.839
58300W        W28900   6.912  16.766   2.510
58301W        W28901  42.808   8.945   4.047
58302W        W28902  33.015  19.461   1.242
58303W        W28903  26.466  10.339  10.704
58304W        W28904  40.340   3.299   1.309
58305W        W28905  11.118   2.550  12.129
58306W        W28906  37.921  13.564   4.170
58307W        W28907  41.409  18.180  13.506
58308W        W28908  16.779  42.575  11.099
58309W        W28909   5.905   3.267   2.793
58310W        W28910   5.158  22.144  11.477
58311W        W28911  25.692  23.062  10.939
58312W        W28912  39.408  19.628  11.179
58313W        W28913  26.097   4.349  11.491
58314W        W28914  25.581  43.852   3.034
58315W        W28915  14.427  44.030  11.185
58316W        W28916  16.289  30.111  12.062
58317W        W28917  29.936  36.884  14.786
58318W        W28918   8.063  22.833  12.409
58319W        W28919   8.589  41.551   1.938
58320W        W28920   6.266  25.224   1.069
58321W        W28921  13.336   3.863   2.371
58322W        W28922  10.906  25.945   2.357
58323W        W28923  12.077  16.924  14.324
58324W        W28924  19.248   6.284  14.465
58325W        W28925  44.482  10.429   4.541
58326W        W28926  40.464   4.896  12.188
58327W        W28927  44.306  30.978   2.246
58328W        W28928  27.885   6.863   1.706
58329W        W28929  43.893  11.737   4.342
58330W        W28930  23.111  15.647  11.730
58331W        W28931  10.846  26.529  11.618
58332W        W28932  10.389  26.888   4.639
58333W        W28933  44.267   8.204   2.724
58334W        W28934  11.229  35.633  10.707
58335W        W28935   2.949   2.776   3.258
58336W        W28936   7.817  33.230  13.792
58337W        W28937  33.712  26.321   1.266
58338W        W28938  39.740  10.837  13.511
58339W        W28939  35.607   8.183  11.993
58340W        W28940  42.879  11.903   1.736
58341W        W28941  34.315  15.085   0.875
58342W        W28942  27.679   2.258   0.706
58343W        W28943  35.298   9.592   3.359
58344W        W28944  36.678  16.822   2.297
58345W        W28945  38.057   9.424   0.319
58346W        W28946  31.834  42.892  11.096
58347W        W28947  26.753  35.343   4.091
58348W        W28948  26.210  37.929  13.310
58349W        W28949  42.824  35.986  12.382
58350W        W28950  21.265   7.763   1.041
58351W        W28951  18.555  17.957   4.180
58352W        W28952   6.192  19.563  12.021
58353W        W28953  38.062  39.968  11.337
58354W        W28954  35.459  12.868   4.136
58355W        W28955   9.785  34.755   4.721
58356W        W28956   7.631   1.946   3.416
58357W        W28957  41.390   5.489  13.425
58358W        W28958  34.914   1.277   1.884
58359W        W28959  16.226   2.430   4.748
58360W        W28960   1.982  24.710  12.986
58361W        W28961  32.108  20.315  13.840
58362W        W28962  12.669  32.508   4.293
58363W        W28963  10.547  44.912   4.198
58364W        W28964  20.993   6.856   0.761
58365W        W28965  37.340  25.194   4.247
58366W        W28966  33.062  40.350   2.247
58367W        W28967  26.527   9.803   0.290
58368W        W28968   9.393   1.645   4.205
58369W        W28969  20.002   0.180   2.315
58370W        W28970   2.980  44.954   0.339
58371W        W28971  28.604  38.368   5.562
58372W        W28972  42.756  15.049  13.875
58373W        W28973  39.507   9.404  11.721
58374W        W28974  36.642   4.252   4.078
58375W        W28975   3.444  30.100   4.491
58376W        W28976  28.084   8.912   1.408
58377W        W28977   2.033  24.132  14.668
58378W        W28978  41.956  31.341   2.254
58379W        W28979  15.814   2.194  13.819
58380W        W28980  14.015  11.712   3.299
58381W        W28981  36.128  30.981  13.038
58382W        W28982  23.772   9.263   1.456
58383W        W28983  37.970  39.496   1.737
58384W        W28984  13.592   5.943  12.932
58385W        W28985  18.222  33.370  14.876
58386W        W28986   0.208  31.516  11.107
58387W        W28987   5.375  12.343   1.691
58388W        W28988   9.128  40.808  12.512
58389W        W28989   5.460  29.022   4.568
58390W        W28990  14.547  36.311  10.766
58391W        W28991   8.356  16.367   0.869
58392W        W28992  43.673  40.939   2.856
58393W        W28993  38.934  44.658  10.755
58394W        W28994   5.987  11.203   9.927
58395W        W28995   6.686  42.523   4.673
58396W        W28996  39.438   5.244  13.113
58397W        W28997  13.186  16.261   2.694
58398W        W28998  17.822  14.898   1.780
58399W        W28999  24.579  13.716  11.809
58400W        W29000  35.479  32.479   0.362
58401W        W29001  11.564  19.211   4.022
58402W        W29002  19.447  21.568  12.668
58403W        W29003  40.130   3.265   1.766
58404W        W29004  34.560  24.771   4.140
58405W        W29005  17.694   0.303   1.869
58406W        W29006  40.753  18.509  12.983
58407W        W29007  14.722  34.020  11.651
58408W        W29008  30.024  29.380   0.257
58409W        W29009  22.584  12.140  13.251
58410W        W29010  44.313  42.214   2.672
58411W        W29011  25.145   9.458  13.945
58412W        W29012  27.081  39.577   1.638
58413W        W29013  23.968  16.079   3.206
58414W        W29014  34.380   7.346  13.903
58415W        W29015  26.177  25.129   4.709
58416W        W29016   0.785  15.402   2.753
58417W        W29017  10.410  36.145   1.683
58418W        W29018   8.170  22.778   1.766
58419W        W29019  20.575  34.440  13.012
58420W        W29020  27.905  11.243   1.527
58421W        W29021   1.041  36.709  14.053
58422W        W29022  43.791  12.585  10.645
58423W        W29023   0.046  25.415   1.309
58424W        W29024  28.434  13.320  10.645
58425W        W29025  44.814   1.700  11.489
58426W        W29026  17.047  14.894  13.166
58427W        W29027   4.785  17.720  10.607
58428W        W29028  27.189   0.285  12.465
58429W        W29029  44.783  39.749   0.817
58430W        W29030  16.265  22.189   2.269
58431W        W29031  39.053   8.768  14.472
58432W        W29032  27.908   2.542   1.757
58433W        W29033  36.713   4.417   1.300
58434W        W29034   1.699  25.144   0.851
58435W        W29035  37.043  34.246  13.381
58436W        W29036  28.253  29.597   4.717
58437W        W29037  42.221  25.685  12.999
58438W        W29038  38.378   3.035   2.207
58439W        W29039  40.618  39.281   4.098
58440W        W29040  38.821  29.781   1.024
58441W        W29041  16.620  36.025   1.162
58442W        W29042  36.852  26.614   2.346
58443W        W29043  23.359  44.736  14.064
58444W        W29044  10.180  44.307  11.684
58445W        W29045  22.005   4.186  12.589
58446W        W29046  32.995  44.389  10.903
58447W        W29047  31.047   5.749   3.204
58448W        W29048  32.892  29.853   2.291
58449W        W29049  23.015  14.664  12.645
58450W        W29050  37.673  41.837  13.996
58451W        W29051  19.275   0.237  10.745
58452W        W29052  32.128  21.589  14.396
58453W        W29053   0.353  41.938   1.712
58454W        W29054   7.263  20.684   4.080
58455W        W29055  43.946  24.065  11.028
58456W        W29056  40.524  26.117   3.219
58457W        W29057  44.935  34.893   0.992
58458W        W29058  28.482  35.269  12.056
58459W        W29059   2.258  14.693   0.872
58460W        W29060  36.402   0.378   3.345
58461W        W29061  35.169  11.160   2.631
58462W        W29062  30.001  41.680  11.301
58463W        W29063   2.525   9.094  13.068
58464W        W29064  41.426  26.738  14.023
58465W        W29065  26.914   6.552   0.335
58466W        W29066   1.856  32.483  12.034
58467W        W29067  41.551  35.804   2.110
58468W        W29068  33.959  35.806  13.994
58469W        W29069  37.071  40.380   4.656
58470W        W29070  44.096   3.478  12.478
58471W        W29071  10.275  26.373   4.791
58472W        W29072   6.755  27.034  13.476
58473W        W29073  41.570  34.444  13.352
58474W        W29074  11.892  24.309  12.702
58475W        W29075  21.111  42.420   2.518
58476W        W29076  34.376   6.292  10.981
58477W        W29077  24.221  35.679   2.165
58478W        W29078  34.593   5.537   2.860
58479W        W29079  31.014  20.187   4.009
58480W        W29080  38.911  33.314   1.922
58481W        W29081  35.581  34.040   4.527
58482W        W29082  20.485   7.355  13.975
58483W        W29083   0.335  14.246   0.365
58484W        W29084   4.673   7.997   4.242
58485W        W29085   0.072   9.131   3.672
58486W        W29086  18.053   9.809  11.134
58487W        W29087   2.690  25.898   1.333
58488W        W29088  34.567  21.142   4.612
58489W        W29089  14.286  31.555  11.676
58490W        W29090  28.910  34.948   0.287
58491W        W29091  15.676  42.454   1.411
58492W        W29092  29.530  34.810  11.018
58493W        W29093  31.079  26.498  10.159
58494W        W29094  43.039  14.351  12.640
58495W        W29095  15.141  39.215  13.371
58496W        W29096  11.429  33.404  11.023
58497W        W29097  27.143  43.755  14.789
58498W        W29098  43.498  32.995  13.422
58499W        W29099   6.425  21.084  12.118
58500W        W29100  15.247  42.042   2.949
58501W        W29101  24.437  14.103   2.437
58502W        W29102  31.092  32.641   1.186
58503W        W29103  43.309  39.917  13.589
58504W        W29104  41.911  36.068   0.886
58505W        W29105  14.170  29.172   0.299
58506W        W29106  27.684  22.095  10.377
58507W        W29107   1.826  16.792  11.561
58508W        W29108   3.174   3.443  10.676
58509W        W29109  25.025  38.600   3.232
58510W        W29110  23.564  16.404   1.763
58511W        W29111  34.179   8.662  12.468
58512W        W29112   9.265  22.192   3.332
58513W        W29113  27.196  36.438   1.293
58514W        W29114  36.507  19.742   2.428
58515W        W29115  37.483  21.976   0.183
58516W        W29116  38.477  26.559   2.693
58517W        W29117  17.113  14.572  14.123
58518W        W29118  12.528  43.893  11.153
58519W        W29119  20.104  41.353   2.306
58520W        W29120   0.350  25.385   4.050
58521W        W29121   6.135  16.862  14.986
58522W        W29122   1.737  33.856  12.106
58523W        W29123  38.316  30.127   3.483
58524W        W29124  18.750  17.996   5.054
58525W        W29125  16.901  43.269  12.538
58526W        W29126   7.896  16.871   0.349
58527W        W29127  16.202   3.238  13.428
58528W        W29128  33.056   0.475   2.618
58529W        W29129  37.083  24.665   1.129
58530W        W29130   8.455   8.137  13.870
58531W        W29131  23.815   2.191  12.035
58532W        W29132   9.322   7.694   2.330
58533W        W29133   7.254  30.713   3.706
58534W        W29134  13.852   4.366   4.089
58535W        W29135  40.956  24.982   0.205
58536W        W29136  33.397  39.010   3.175
58537W        W29137  40.740  15.384   3.705
58538W        W29138  13.807  19.473  13.797
58539W        W29139  11.346  27.946  11.645
58540W        W29140  43.276  11.492   3.759
58541W        W29141  41.359   6.915  11.556
58542W        W29142   9.788  24.263  10.839
58543W        W29143   4.156  31.934  12.550
58544W        W29144  26.153  44.767   3.822
58545W        W29145  34.800   8.184  11.586
58546W        W29146  13.619  25.086   1.272
58547W        W29147   7.429   9.340   2.427
58548W        W29148  31.777  29.136  13.253
58549W        W29149  16.581  14.746   1.404
58550W        W29150  11.302  21.528  12.586
58551W        W29151  25.323  18.728   2.278
58552W        W29152  15.061  32.167  12.974
58553W        W29153  18.201  41.873  14.940
58554W        W29154  32.151  33.736   4.188
58555W        W29155  20.265  27.600  13.026
58556W        W29156   9.361  21.296   0.876
58557W        W29157  32.694  20.071   3.368
58558W        W29158   8.907  23.634  13.499
58559W        W29159  19.682  43.262  13.560
58560W        W29160   2.402  10.419  11.016
58561W        W29161   1.293  25.946  11.984
58562W        W29162  33.409  44.466   0.843
58563W        W29163  28.463  39.040   4.901
58564W        W29164  33.052  29.415  14.787
58565W        W29165   7.260  22.568  12.087
58566W        W29166  28.098   4.334   3.437
58567W        W29167  39.744  12.745   4.249
58568W        W29168  18.621  14.303   3.646
58569W        W29169  13.133  26.718   3.057
58570W        W29170  37.681  12.363  14.821
58571W        W29171  25.289   7.671   2.984
58572W        W29172  28.860  32.885  13.996
58573W        W29173  38.941  34.963  14.283
58574W        W29174  43.929  17.272  12.610
58575W        W29175  41.983   9.590  14.437
58576W        W29176  35.635  11.266  14.391
58577W        W29177  24.203  39.883   4.525
58578W        W29178  43.391  23.942  10.991
58579W        W29179  17.729  34.468  13.108
58580W        W29180  17.980  42.010   1.858
58581W        W29181   0.440  39.011  14.312
58582W        W29182  37.909  38.510   4.650
58583W        W29183  11.784  16.530  14.476
58584W        W29184  14.447  24.757  12.951
58585W        W29185  25.786  19.120  11.611
58586W        W29186  43.286  24.877   5.006
58587W        W29187  30.076  33.857   1.680
58588W        W29188  27.248  24.284   3.647
58589W        W29189  27.536  42.796   0.532
58590W        W29190  21.091  41.113   0.858
58591W        W29191  22.998   1.194  13.864
58592W        W29192  42.330   7.499  14.154
58593W        W29193  30.867  30.493   2.197
58594W        W29194  17.381  19.713  13.493
58595W        W29195  18.812  18.177   4.563
58596W        W29196   7.135  22.086  11.030
58597W        W29197  32.470  17.249  11.909
58598W        W29198   1.934   8.362   1.120
58599W        W29199   9.484  32.455   2.431
58600W        W29200  17.789   9.318  13.558
58601W        W29201  14.414   8.680  10.891
58602W        W29202  41.301  22.604   4.124
58603W        W29203   8.911  23.930   3.789
58604W        W29204  20.067  24.530  14.380
58605W        W29205  18.718  25.260   2.103
58606W        W29206  22.182  37.015   2.701
58607W        W29207  28.999  35.584   3.694
58608W        W29208  32.583  24.459   2.951
58609W        W29209  41.850  22.734  13.732
58610W        W29210   8.616  37.074   0.941
58611W        W29211  42.868  39.452   3.585
58612W        W29212   1.378  10.784  13.707
58613W        W29213  22.282  18.286  12.956
58614W        W29214   0.824  38.609  12.435
58615W        W29215  14.575  13.108  13.931
58616W        W29216   1.323   0.683  10.977
58617W        W29217  28.380  35.026  14.352
58618W        W29218  36.070  38.472  14.492
58619W        W29219  24.271  34.456  12.607
58620W        W29220  29.676  41.962   0.223
58621W        W29221  28.084  13.416  14.052
58622W        W29222  16.324  10.797   0.314
58623W        W29223  12.363  26.683   4.137
58624W        W29224  44.806   8.206   0.779
58625W        W29225  28.755  28.571  12.347
58626W        W29226  21.006  30.915   5.225
58627W        W29227  12.111   5.661  14.217
58628W        W29228  12.321   8.923   2.199
58629W        W29229  10.722  30.495  14.241
58630W        W29230  16.053  37.638   1.464
58631W        W29231  30.317   1.181  11.188
58632W        W29232  30.052  21.778   4.229
58633W        W29233  38.568  18.357   0.729
58634W        W29234  43.828  10.259   2.003
58635W        W29235   6.836  35.335  12.000
58636W        W29236   8.328  29.112  14.583
58637W        W29237  29.489  13.495   1.710
58638W        W29238  31.812  25.800   5.113
58639W        W29239  12.708   4.066   0.289
58640W        W29240  40.248  14.168  11.089
58641W        W29241  31.933   4.845   1.925
58642W        W29242  29.280  27.596  11.042
58643W        W29243  13.682  23.111  11.958
58644W        W29244   2.943  20.246  12.841
58645W        W29245  12.713  28.267  14.298
58646W        W29246  26.918  13.677  10.748
58647W        W29247  22.220  13.772   3.163
58648W        W29248  11.664  19.747   5.105
58649W        W29249  39.200  14.963  13.460
58650W        W29250   4.791  20.739   3.762
58651W        W29251  40.043  35.400   1.484
58652W        W29252  32.703   0.221   5.119
58653W        W29253  17.061  24.057   3.367
58654W        W29254  33.320  39.136  12.694
58655W        W29255  44.765  16.079  14.505
58656W        W29256  20.704   1.266   3.353
58657W        W29257   6.306   7.424  11.425
58658W        W29258  33.031  30.344   1.426
58659W        W29259   3.368  11.122   1.731
58660W        W29260  34.972   9.207   3.108
58661W        W29261  34.953   2.802  11.345
58662W        W29262  28.617  33.091  11.403
58663W        W29263   3.015   8.712  14.549
58664W        W29264  21.139  20.540   2.387
58665W        W29265  24.062  13.242   3.354
58666W        W29266  20.640  21.701   4.243
58667W        W29267  13.693  43.026   4.157
58668W        W29268  33.672  26.200  12.445
58669W        W29269  36.546  13.146   0.449
58670W        W29270  27.265  18.554   0.306
58671W        W29271   5.171   2.342   2.382
58672W        W29272  15.218  14.561   2.278
58673W        W29273  33.509  28.111   3.283
58674W        W29274  19.492   5.840  14.283
58675W        W29275  22.536  19.642   1.184
58676W        W29276  42.756   0.442  13.967
58677W        W29277  40.468  18.471  14.708
58678W        W29278  16.605  11.734   1.698
58679W        W29279  25.933  21.803  14.430
58680W        W29280  41.884  19.878   1.400
58681W        W29281  23.511  27.384   1.895
58682W        W29282  25.124  12.832   3.853
58683W        W29283  33.558  29.388   0.615
58684W        W29284  12.840  18.197   0.936
58685W        W29285  32.430  27.204  11.955
58686W        W29286   9.197  23.326   2.519
58687W        W29287  44.242  33.917  14.331
58688W        W29288  41.746   8.134  14.285
58689W        W29289  35.343  23.543   4.104
58690W        W29290  18.054  10.863  11.380
58691W        W29291   1.767  44.750  11.014
58692W        W29292  12.297  16.426  14.444
58693W        W29293  15.792  13.105   4.188
58694W        W29294   7.869  18.853  13.414
58695W        W29295  37.579   6.694  13.937
58696W        W29296  25.721  25.050   1.071
58697W        W29297   1.149  34.877  14.713
58698W        W29298   0.236  30.025  11.075
58699W        W29299  10.437  15.286  10.018
58700W        W29300  29.365   2.782  10.513
58701W        W29301  33.068  15.602  13.659
58702W        W29302  18.020  42.510  12.328
58703W        W29303  23.805  32.358   1.495
58704W        W29304  40.377  44.545  11.595
58705W        W29305  43.799  15.544  11.437
58706W        W29306   4.800   4.629  11.373
58707W        W29307  22.003   8.760   0.909
58708W        W29308  39.587  13.655   4.166
58709W        W29309  40.064   6.796  11.119
58710W        W29310  26.288   3.071  13.314
58711W        W29311  15.827  32.521   0.451
58712W        W29312  36.520  43.818  11.155
58713W        W29313  12.806  10.024   4.993
58714W        W29314   9.328  36.847  13.898
58715W        W29315  37.636  44.996   2.175
58716W        W29316  30.014  33.560  14.042
58717W        W29317  38.065  41.483  11.099
58718W        W29318  26.413   8.685   4.983
58719W        W29319   6.380  29.778  13.072
58720W        W29320  14.311   7.641  10.642
58721W        W29321  40.494  37.509   1.116
58722W        W29322  38.855  16.566   0.419
58723W        W29323  37.910  29.152  11.970
58724W        W29324  20.673  15.149  14.401
58725W        W29325   0.848   1.967   2.680
58726W        W29326  33.622  24.012  14.877
58727W        W29327  44.929  15.782   3.680
58728W        W29328  31.566  39.177   1.331
58729W        W29329  38.064  43.480  10.672
58730W        W29330  44.319  19.080  11.020
58731W        W29331  16.887  20.728   2.188
58732W        W29332  25.605   7.602  10.664
58733W        W29333  37.885   9.812   2.356
58734W        W29334  42.977   0.194   1.236
58735W        W29335  40.448  12.361  14.923
58736W        W29336  30.372   9.985   3.215
58737W        W29337  12.668  33.051   2.663
58738W        W29338  44.326   6.807   3.318
58739W        W29339  36.587   1.324   3.275
58740W        W29340   1.527   7.362  13.453
58741W        W29341  25.871  27.451   3.257
58742W        W29342   1.625  12.257   4.620
58743W        W29343  17.718   1.231   3.312
58744W        W29344  43.015  19.473  12.469
58745W        W29345  33.146  35.347   3.709
58746W        W29346  30.446  15.012   2.690
58747W        W29347  18.445  16.779  11.526
58748W        W29348  39.335  10.364  11.637
58749W        W29349  23.172  21.090   4.694
58750W        W29350  30.186   5.770   0.070
58751W        W29351  42.273  34.580  13.983
58752W        W29352  40.493  43.957   1.835
58753W        W29353  30.712  29.974  11.158
58754W        W29354  34.090  11.257   0.413
58755W        W29355  40.331  27.177  10.649
58756W        W29356  38.540  34.898  12.969
58757W        W29357  37.787  42.088   2.754
58758W        W29358   9.188  19.678   2.213
58759W        W29359  23.295  34.183  13.907
58760W        W29360  37.960  28.525   4.153
58761W        W29361  29.097   1.752  14.329
58762W        W29362  39.493  10.740   1.004
58763W        W29363   2.689  28.106  14.363
58764W        W29364   7.776  31.331  11.998
58765W        W29365  12.099  25.362   0.606
58766W        W29366   6.851  34.496   4.696
58767W        W29367  20.493  30.617   3.496
58768W        W29368  36.365  12.991   3.615
58769W        W29369  10.203  30.652   3.108
58770W        W29370  30.718  39.845  10.749
58771W        W29371  33.088  33.534  14.752
58772W        W29372  42.246  41.836   1.756
58773W        W29373  40.258  13.741  13.709
58774W        W29374  10.639   5.610   2.763
58775W        W29375   0.285  22.796   3.103
58776W        W29376  15.635  20.515  10.643
58777W        W29377  13.607  15.536  13.095
58778W        W29378   7.357  27.251  14.301
58779W        W29379  36.502  31.230  12.115
58780W        W29380   1.219  21.143   3.825
58781W        W29381  41.886  41.624   1.295
58782W        W29382   4.126  29.067   4.984
58783W        W29383   3.937  10.621   4.604
58784W        W29384  36.905   3.704  13.818
58785W        W29385  17.976  14.381   2.375
58786W        W29386  33.142   9.918   2.698
58787W        W29387  38.483   8.411  12.783
58788W        W29388  22.145  15.804  13.436
58789W        W29389  36.264  16.228  14.815
58790W        W29390  21.818   0.979  11.019
58791W        W29391  44.014  28.907   4.122
58792W        W29392  25.069  10.694  13.323
58793W        W29393   2.513  19.949   0.808
58794W        W29394  35.922   0.015  10.881
58795W        W29395  31.559  31.784  14.839
58796W        W29396  26.879   4.281   3.857
58797W        W29397   7.778  21.507  12.597
58798W        W29398  40.961  15.685  12.118
58799W        W29399  25.206  13.001   0.879
58800W        W29400  29.137  27.652   4.838
58801W        W29401  23.969   0.755   0.783
58802W        W29402  29.976  14.384   0.450
58803W        W29403  18.463  13.792  14.632
58804W        W29404  43.713  35.851   2.779
58805W        W29405   2.805  40.315   2.091
58806W        W29406  17.009   5.171   3.683
58807W        W29407   9.169   5.373   1.800
58808W        W29408  23.139   5.729   4.134
58809W        W29409  33.596  36.552   1.454
58810W        W29410   2.753  28.945  11.116
58811W        W29411  23.773  33.621   2.279
58812W        W29412   7.216  23.260   3.332
58813W        W29413  15.117  22.818   3.292
58814W        W29414  22.622  32.221  14.923
58815W        W29415  21.741   6.087   0.140
58816W        W29416  31.338  39.992  13.555
58817W        W29417  35.916  37.310  14.993
58818W        W29418  37.112   9.152   3.709
58819W        W29419  36.898  19.339  11.121
58820W        W29420  44.450   8.850   2.491
58821W        W29421  32.886  16.739  14.715
58822W        W29422  30.896  19.663   4.074
58823W        W29423   2.630  19.367   1.412
58824W        W29424  32.050  15.215  12.436
58825W        W29425  11.373  13.697  12.927
58826W        W29426  37.389   5.496   2.195
58827W        W29427  10.174  44.007  12.354
58828W        W29428  25.115  15.723   4.624
58829W        W29429  24.204  23.390  12.704
58830W        W29430  43.883   4.361   4.248
58831W        W29431  43.777  34.451  14.999
58832W        W29432  22.560   6.372  13.756
58833W        W29433  42.434  15.772  12.999
58834W        W29434  41.864   3.700  10.745
58835W        W29435  26.725  43.915   2.750
58836W        W29436  32.886  24.996   4.039
58837W        W29437  12.927  43.054   0.441
58838W        W29438  26.349   8.869  13.027
58839W        W29439  20.432  12.626   2.622
58840W        W29440   8.290  43.491   4.386
58841W        W29441  39.070  16.826   4.165
58842W        W29442  31.057   3.924   1.870
58843W        W29443  19.674   5.149   3.217
58844W        W29444  32.506  12.670  12.127
58845W        W29445  17.583   8.417   1.774
58846W        W29446  25.086  31.661  11.575
58847W        W29447   6.387   1.939  14.691
58848W        W29448  13.137  32.999   0.873
58849W        W29449  33.342  34.780  10.927
58850W        W29450  19.052  28.363  14.466
58851W        W29451   6.249  30.669   1.165
58852W        W29452  17.978  23.650   1.182
58853W        W29453  35.066  40.248   3.700
58854W        W29454  26.630  29.578  13.364
58855W        W29455  43.667  35.634  14.337
58856W        W29456  40.509  39.495   1.818
58857W        W29457  17.583  13.213   3.188
58858W        W29458   4.197  42.887   0.277
58859W        W29459  43.877  39.238   1.022
58860W        W29460   7.684  33.910   0.257
58861W        W29461   9.262  21.957   4.670
58862W        W29462  19.931  38.564  12.469
58863W        W29463  26.757  43.582   3.639
58864W        W29464  28.348  17.963   1.952
58865W        W29465  27.067  39.039  12.050
58866W        W29466  26.248  19.655  13.318
58867W        W29467  17.278   9.549  11.975
58868W        W29468  27.649  19.312  13.827
58869W        W29469  39.917  23.247  10.772
58870W        W29470  21.680   7.345  11.713
58871W        W29471  43.953  41.016   2.417
58872W        W29472  25.989  34.508   2.657
58873W        W29473  25.560   1.583   4.146
58874W        W29474  40.968  37.337   2.858
58875W        W29475  20.026  30.852  14.948
58876W        W29476  17.008  42.341   3.587
58877W        W29477  15.220   9.488  13.179
58878W        W29478   6.428   3.472  13.272
58879W        W29479  15.853  41.952  11.592
58880W        W29480  37.100  32.399  13.372
58881W        W29481  35.234  34.579   4.600
58882W        W29482  39.152   6.267  14.295
58883W        W29483   8.964  13.093  13.495
58884W        W29484  34.158  13.653   4.107
58885W        W29485  11.618   3.689  13.352
58886W        W29486  43.875  38.837  10.636
58887W        W29487  19.093  33.129  13.566
58888W        W29488   0.502  28.107   2.494
58889W        W29489  20.107  23.209   3.138
58890W        W29490  30.510  44.759  12.141
58891W        W29491  41.093  24.952  13.806
58892W        W29492  42.824  37.075   2.814
58893W        W29493   9.262   4.747  10.128
58894W        W29494  26.889  16.318  11.956
58895W        W29495   1.426   6.595   2.342
58896W        W29496  13.156  21.926   2.767
58897W        W29497  33.390  40.704  11.426
58898W        W29498   9.271  22.796   2.357
58899W        W29499  10.464  27.791  13.057
58900W        W29500  28.599  33.946   4.231
58901W        W29501  41.448  31.894  12.552
58902W        W29502  37.411   1.675   0.318
58903W        W29503  35.318   9.304  12.425
58904W        W29504  25.524  38.835  13.077
58905W        W29505  31.942  12.031  11.544
58906W        W29506  19.779  15.438  13.944
58907W        W29507  16.366  36.274   2.177
58908W        W29508   2.636  37.487   4.080
58909W        W29509  11.835  12.752  13.940
58910W        W29510   8.093  44.179   9.877
58911W        W29511  12.094  33.708  11.757
58912W        W29512  40.516   6.022  13.508
58913W        W29513  24.010  11.644  13.067
58914W        W29514  44.579   6.287  12.987
58915W        W29515  33.032  18.374  14.372
58916W        W29516  43.367   7.261  12.149
58917W        W29517  35.910  21.727   1.899
58918W        W29518  32.957  33.568   2.769
58919W        W29519  14.145  12.844   4.607
58920W        W29520   3.338  26.764  10.836
58921W        W29521  40.488  39.119  13.570
58922W        W29522  21.141  15.778  11.569
58923W        W29523  26.178  14.320   0.310
58924W        W29524  34.318  42.859   2.225
58925W        W29525  32.779  43.874  12.681
58926W        W29526  40.348  39.873  10.789
58927W        W29527   5.751  25.466  13.429
58928W        W29528  32.622   4.170   2.249
58929W        W29529   4.753  44.840   0.197
58930W        W29530  13.724  44.281  11.899
58931W        W29531  25.514   0.806  10.914
58932W        W29532   5.134  11.208  14.049
58933W        W29533   3.927  41.505   3.080
58934W        W29534  38.642  16.313  12.088
58935W        W29535  17.706   0.853   1.141
58936W        W29536  23.645   8.287  11.494
58937W        W29537   0.125   8.456   1.802
58938W        W29538  15.705   9.848   4.479
58939W        W29539  14.095  32.549  11.490
58940W        W29540  17.649  30.849   4.528
58941W        W29541   9.349  19.018  13.938
58942W        W29542  22.718  21.737   3.731
58943W        W29543   9.039  32.101   5.330
58944W        W29544   8.437  14.313  14.030
58945W        W29545  18.904  35.625   2.179
58946W        W29546  19.994  18.058   1.304
58947W        W29547  37.086  10.452  11.095
58948W        W29548  25.593   6.182  12.399
58949W        W29549   9.401  33.715   1.852
58950W        W29550  39.849  43.460   4.273
58951W        W29551   5.086  36.200  13.341
58952W        W29552   4.808  31.869   0.988
58953W        W29553  24.780  18.636  14.509
58954W        W29554  20.717   9.395   2.712
58955W        W29555   7.240  36.129  11.907
58956W        W29556  37.411  17.245   2.184
58957W        W29557   1.983  37.998  14.728
58958W        W29558   7.525  25.729   4.166
58959W        W29559  20.973  28.078   2.263
58960W        W29560  21.771  19.900   0.765
58961W        W29561  10.720  22.578   9.866
58962W        W29562  30.665  20.598  11.897
58963W        W29563  26.395   2.397   2.718
58964W        W29564   6.288  44.321   4.038
58965W        W29565  32.794   3.240   2.758
58966W        W29566  19.646  18.271  11.151
58967W        W29567   7.919   6.236   0.770
58968W        W29568  12.270   0.337  14.463
58969W        W29569  37.483   2.178   1.767
58970W        W29570  35.619  25.816  13.365
58971W        W29571   1.707  24.065   3.091
58972W        W29572  19.843   9.340  14.481
58973W        W29573   3.161  41.043   2.247
58974W        W29574  37.011  11.942  13.366
58975W        W29575  21.633  16.715   1.343
58976W        W29576  24.531  35.022   3.718
58977W        W29577  34.998   0.654  13.414
58978W        W29578  17.671  25.007  11.804
58979W        W29579  28.911  43.973  11.251
58980W        W29580  31.184  23.009   4.127
58981W        W29581  20.516  33.446  14.920
58982W        W29582  11.620  35.955  12.042
58983W        W29583  35.418  34.165   1.871
58984W        W29584  15.801  20.001   1.194
58985W        W29585   5.731  13.211   1.013
58986W        W29586  30.044  39.760  12.739
58987W        W29587  36.182  20.663   3.828
58988W        W29588  36.414  20.412  10.576
58989W        W29589   9.358  20.288   0.994
58990W        W29590  24.992   0.831  10.730
58991W        W29591   9.595   5.924  13.967
58992W        W29592  20.219   9.444   3.276
58993W        W29593  20.421   9.481  11.120
58994W        W29594  15.613  17.666  12.580
58995W        W29595   4.136  27.536  14.397
58996W        W29596  11.325  40.983   2.672
58997W        W29597  31.666  22.214  11.137
58998W        W29598  24.362  14.411  10.626
58999W        W29599  17.152  23.494  14.002
59000W        W29600  37.290  21.619  14.354
59001W        W29601  30.550  18.218  12.402
59002W        W29602  38.003  32.294   1.921
59003W        W29603  23.744  21.699   1.809
59004W        W29604   5.183  33.428   0.957
59005W        W29605   5.847  38.458  13.303
59006W        W29606   4.319   3.918   2.784
59007W        W29607   1.137  11.837  12.328
59008W        W29608  10.379  16.854  14.351
59009W        W29609  31.474   0.553  10.751
59010W        W29610  44.583  23.855   0.328
59011W        W29611  25.597  24.661  12.527
59012W        W29612  11.742  28.949   1.394
59013W        W29613  36.058  16.711  14.743
59014W        W29614  41.424  38.429   3.244
59015W        W29615  17.691  11.191  14.237
59016W        W29616   1.684   7.449  12.163
59017W        W29617  17.107  42.487   2.257
59018W        W29618  23.480  43.719   2.019
59019W        W29619  32.904  30.628   1.019
59020W        W29620  27.582  23.163   4.576
59021W        W29621  21.399   7.692   1.549
59022W        W29622  23.122  25.807  12.053
59023W        W29623   4.339  38.011   0.232
59024W        W29624  15.594  44.365   0.158
59025W        W29625  38.737  29.101  12.554
59026W        W29626   0.873  39.428   3.231
59027W        W29627  18.111  19.677   1.028
59028W        W29628  20.168  34.137  13.061
59029W        W29629  33.160   6.423   4.342
59030W        W29630   2.251   4.137   2.287
59031W        W29631  39.971  28.111   3.081
59032W        W29632   0.428  22.503  10.983
59033W        W29633  17.833   1.179  12.233
59034W        W29634  38.439  34.616   3.455
59035W        W29635  19.591  11.308   2.602
59036W        W29636  26.185   1.976   3.667
59037W        W29637  18.953   0.836  13.497
59038W        W29638  36.346  13.230   4.984
59039W        W29639   7.824  29.080  14.655
59040W        W29640  41.441  17.437   4.074
59041W        W29641   2.436  29.714   2.250
59042W        W29642  37.364  22.478  13.469
59043W        W29643   0.973   6.847   2.261
59044W        W29644  29.732  29.708   0.576
59045W        W29645  29.173  43.518  12.196
59046W        W29646   4.928   1.549  14.291
59047W        W29647  22.713  44.071   0.407
59048W        W29648  24.646  20.853   0.347
59049W        W29649  43.792  10.949   3.686
59050W        W29650  35.397   1.572  14.264
59051W        W29651  13.161  40.484  14.962
59052W        W29652   0.358  15.121  11.174
59053W        W29653  32.060  24.595   2.909
59054W        W29654  37.031  23.183  11.150
59055W        W29655  31.990  20.756  14.876
59056W        W29656   1.991   1.949  12.472
59057W        W29657  28.587  25.560  14.258
59058W        W29658   1.341  29.645   2.273
59059W        W29659  13.079  16.927   3.329
59060W        W29660  27.363  11.798  11.474
59061W        W29661  16.216  16.854   1.121
59062W        W29662  14.738  38.022   0.496
59063W        W29663  39.518   2.813  12.605
59064W        W29664  26.934  41.355  10.775
59065W        W29665  42.849  33.879  12.139
59066W        W29666  12.400  30.611  13.420
59067W        W29667  21.032  21.991  12.388
59068W        W29668  44.183  33.833   2.164
59069W        W29669  35.885  19.330  13.607
59070W        W29670  34.858   9.259  13.157
59071W        W29671  19.607  36.429   2.611
59072W        W29672  15.384   7.651   0.450
59073W        W29673  18.260  28.558   5.080
59074W        W29674  20.405  20.031   3.823
59075W        W29675  12.558   6.037  12.867
59076W        W29676  32.895   4.429   2.949
59077W        W29677   4.739   0.352  13.058
59078W        W29678  12.248  42.558  14.110
59079W        W29679  21.555  31.295  14.775
59080W        W29680  44.578   4.662  10.498
59081W        W29681   1.379  44.029  11.522
59082W        W29682  17.075  16.775   3.082
59083W        W29683  42.762  40.946   1.927
59084W        W29684  29.380  25.567   3.815
59085W        W29685   6.274   3.480   3.572
59086W        W29686   6.431   8.094   3.793
59087W        W29687  39.807  32.043   1.153
59088W        W29688  36.414  16.255   0.307
59089W        W29689  37.072   6.519   2.651
59090W        W29690  17.615  28.555  12.309
59091W        W29691  44.993  20.157  11.476
59092W        W29692  12.894  12.685  14.504
59093W        W29693  42.581  11.773  11.186
59094W        W29694  30.663  38.433   1.400
59095W        W29695  31.127  24.499   4.616
59096W        W29696  23.520  40.427  14.846
59097W        W29697   2.908  30.687  14.000
59098W        W29698   6.915  14.953  11.055
59099W        W29699  33.369  10.412  11.548
59100W        W29700  17.788  11.703  12.893
59101W        W29701  32.422   4.344  12.036
59102W        W29702  18.476  43.740   2.175
59103W        W29703  24.978  31.034  10.743
59104W        W29704  21.883  43.521   1.321
59105W        W29705  34.869   3.471  13.191
59106W        W29706   2.486   7.363   4.198
59107W        W29707  39.053  22.085   0.671
59108W        W29708  32.930  44.776   4.934
59109W        W29709  10.685   2.650  10.891
59110W        W29710  30.052  35.486  11.097
59111W        W29711  32.408  34.844  12.058
59112W        W29712  44.259  33.566  14.780
59113W        W29713  16.706  41.852  12.480
59114W        W29714   5.681   9.334  13.405
59115W        W29715  36.885  35.595  12.944
59116W        W29716  14.309   6.402   5.197
59117W        W29717   6.620   9.382   4.166
59118W        W29718  29.553  28.124  14.814
59119W        W29719  23.163  10.760   2.337
59120W        W29720   5.646   5.861   0.905
59121W        W29721   7.360  12.229  10.563
59122W        W29722  18.684   8.228  11.749
59123W        W29723  26.921  22.489   1.192
59124W        W29724   7.665  13.824   0.251
59125W        W29725  39.170  25.319   0.254
59126W        W29726  21.565   0.521   1.150
59127W        W29727  28.584  11.131   3.610
59128W        W29728   6.899  23.146   2.959
59129W        W29729  25.679  40.856   0.872
59130W        W29730   1.890  20.717  10.993
59131W        W29731   6.177  23.677  11.643
59132W        W29732  37.185  27.700  11.589
59133W        W29733  42.930  14.147  10.590
59134W        W29734  19.320  42.340  12.383
59135W        W29735   5.989  22.947  11.955
59136W        W29736   1.611  41.770   3.298
59137W        W29737   8.379   8.101  11.350
59138W        W29738  22.713  22.030   3.177
59139W        W29739  13.112   8.393   0.770
59140W        W29740   9.252   4.688  12.610
59141W        W29741  29.963  18.607   0.319
59142W        W29742  30.197  21.080   3.797
59143W        W29743   9.675  42.762   1.254
59144W        W29744  24.930  14.680  13.341
59145W        W29745   0.753  38.894  12.939
59146W        W29746   5.930  44.470  10.557
59147W        W29747   1.535  29.228   4.081
59148W        W29748  27.608  33.741   1.902
59149W        W29749  21.702  37.055  14.937
59150W        W29750  33.058  34.524   1.402
59151W        W29751  32.105  28.489   4.451
59152W        W29752  11.663  10.879  11.657
59153W        W29753  41.563  21.676   4.739
59154W        W29754  44.284  28.011   1.172
59155W        W29755  23.478   7.164   4.058
59156W        W29756   7.394  34.389  14.666
59157W        W29757  43.312   4.120  13.432
59158W        W29758  25.632  15.300   0.729
59159W        W29759  15.808  37.142  12.139
59160W        W29760   2.525   9.924  14.933
59161W        W29761  12.831   5.039   1.195
59162W        W29762  14.288  29.741   1.851
59163W        W29763  38.448   9.279   1.837
59164W        W29764  22.035  41.972  14.477
59165W        W29765  32.356  14.028   1.289
59166W        W29766  41.126  17.331  14.390
59167W        W29767  26.263   8.354  12.513
59168W        W29768  25.030  33.405   3.043
59169W        W29769  27.606   8.145  12.827
59170W        W29770  17.870  11.253   0.261
59171W        W29771  26.836  28.985  14.771
59172W        W29772  33.705  12.974   3.720
59173W        W29773  10.106   7.308   5.020
59174W        W29774  12.223   6.154  12.470
59175W        W29775  12.593   5.242  14.878
59176W        W29776   4.315   0.921  12.384
59177W        W29777  20.581  30.293   0.806
59178W        W29778   2.056   3.165   4.589
59179W        W29779   2.298  31.242  12.443
59180W        W29780  11.585  22.462  11.627
59181W        W29781  31.928  43.086  14.481
59182W        W29782   8.947  40.296  12.381
59183W        W29783   5.393  35.668   0.362
59184W        W29784   5.941  10.196   3.601
59185W        W29785   3.193  12.728   3.355
59186W        W29786  12.306  11.046  12.024
59187W        W29787  37.594  20.608  12.457
59188W        W29788  18.059  43.468   3.921
59189W        W29789  28.153  28.021   3.232
59190W        W29790   4.162  28.037   3.312
59191W        W29791  14.502  17.859   1.398
59192W        W29792   5.471   2.335  11.995
59193W        W29793   7.326  28.210   0.472
59194W        W29794  38.922   9.869   2.351
59195W        W29795   1.767   6.277   2.110
59196W        W29796  31.686   4.340  10.684
59197W        W29797  32.990  34.450  12.992
59198W        W29798  26.198  41.877  11.942
59199W        W29799  35.071  15.800   0.703
59200W        W29800   6.153  10.357   1.848
59201W        W29801   8.809  23.661  14.003
59202W        W29802  28.147  28.385  14.301
59203W        W29803   2.598  35.123   3.223
59204W        W29804  41.315  41.493   1.298
59205W        W29805  31.008  37.545   1.630
59206W        W29806  28.039  27.830   4.263
59207W        W29807  38.610  13.855  13.082
59208W        W29808  39.622  10.713  10.457
59209W        W29809  37.404  21.008  11.208
59210W        W29810  27.209  10.370  12.486
59211W        W29811  22.035  22.513   2.808
59212W        W29812  37.759  27.378   3.324
59213W        W29813  37.848   4.095  11.160
59214W        W29814   5.626  39.439   4.340
59215W        W29815  35.650  14.800  13.354
59216W        W29816  22.336   5.229  14.775
59217W        W29817  25.453  22.018  14.464
59218W        W29818  13.843  37.083  13.597
59219W        W29819  18.535   0.316  14.111
59220W        W29820   8.839   5.769   0.706
59221W        W29821  37.320  18.690   1.439
59222W        W29822  44.252   0.458  14.589
59223W        W29823  31.900   1.943  13.622
59224W        W29824  38.283   8.687   0.497
59225W        W29825  25.290  17.091   1.694
59226W        W29826  16.360  33.389  10.533
59227W        W29827  13.189  15.065  13.525
59228W        W29828  28.375   6.093   4.549
59229W        W29829  22.183  35.096  10.608
59230W        W29830  35.818  43.236   3.173
59231W        W29831  18.642  39.437  11.551
59232W        W29832  42.686   6.260  10.714
59233W        W29833   1.795  37.999   2.603
59234W        W29834  33.208  34.432  12.135
59235W        W29835  25.842   2.134  11.069
59236W        W29836  39.533  44.796   3.679
59237W        W29837  11.575   7.674   2.406
59238W        W29838  28.708   6.120  13.295
59239W        W29839  40.978  38.090   2.324
59240W        W29840   9.247  32.643   4.971
59241W        W29841   1.872   6.844  12.880
59242W        W29842  36.564  43.446   4.198
59243W        W29843   9.659   8.129   3.656
59244W        W29844   3.231  13.311   1.286
59245W        W29845  40.924  17.608   4.135
59246W        W29846  39.916  37.505  11.147
59247W        W29847  40.910  35.634   4.087
59248W        W29848   0.891  32.528  12.524
59249W        W29849  44.875  34.497  12.945
59250W        W29850  41.307   5.707   0.414
59251W        W29851  32.663  41.365   0.680
59252W        W29852  30.068  36.239  11.727
59253W        W29853  41.791   9.960  14.772
59254W        W29854   6.300  37.954   4.538
59255W        W29855  11.584   4.949   5.093
59256W        W29856  40.814   0.455   3.194
59257W        W29857   1.566  41.834  14.244
59258W        W29858  17.261  37.049   2.461
59259W        W29859   5.411  22.012   3.945
59260W        W29860  20.643  34.469   3.182
59261W        W29861  24.740  10.335   3.759
59262W        W29862  14.359  11.625   2.930
59263W        W29863  41.047   1.700  13.888
59264W        W29864  15.569  26.207  10.768
59265W        W29865  17.639  35.613  13.497
59266W        W29866  40.226  44.015   4.666
59267W        W29867  22.518  42.838  13.418
59268W        W29868  38.045  15.310   1.769
59269W        W29869  22.153   6.195  13.469
59270W        W29870   0.892  36.156   1.882
59271W        W29871  43.123   3.692  11.192
59272W        W29872   2.051  44.568   1.348
59273W        W29873  42.237  43.808  12.673
59274W        W29874  32.354  18.188  14.551
59275W        W29875  30.887   2.273  12.093
59276W        W29876  14.929  33.585  14.430
59277W        W29877  30.026  18.863  14.443
59278W        W29878   6.363  22.624   5.007
59279W        W29879  15.656  11.141  13.439
59280W        W29880  21.983  38.559   0.979
59281W        W29881  31.620  10.304   3.157
59282W        W29882  39.314  16.154   2.640
59283W        W29883  41.287  34.394  14.304
59284W        W29884   2.566  41.685  11.942
59285W        W29885   2.754  43.523   0.495
59286W        W29886  40.292  27.134   2.258
59287W        W29887  41.992   9.243   2.449
59288W        W29888  24.568  20.852  12.329
59289W        W29889  28.782  44.531  13.510
59290W        W29890  11.855  37.494  12.979
59291W        W29891  35.035  38.404   3.231
59292W        W29892  42.239   0.907  12.308
59293W        W29893  43.287   3.781   1.328
59294W        W29894   2.217  34.491   0.165
59295W        W29895   5.865  23.800   2.560
59296W        W29896  15.286   2.840  14.436
59297W        W29897  42.365  19.311  14.025
59298W        W29898  34.570  23.300   3.166
59299W        W29899  14.086   7.253   1.833
59300W        W29900   2.372  13.630  12.030
59301W        W29901  38.748  16.471   3.545
59302W        W29902  43.031  21.835   1.214
59303W        W29903  17.058   8.001   3.231
59304W        W29904   8.976  30.099   0.284
59305W        W29905  14.378  30.183  12.021
59306W        W29906  38.354  13.816   0.590
59307W        W29907  20.184  17.598  11.121
59308W        W29908   6.492   7.575  14.856
59309W        W29909  37.771   7.229   9.805
59310W        W29910  37.571  32.976  13.895
59311W        W29911  19.148  22.348   4.691
59312W        W29912  21.640   6.983   4.705
59313W        W29913   0.299  42.027  11.136
59314W        W29914   6.217  35.756  11.704
59315W        W29915  31.743  34.917  12.524
59316W        W29916   0.287   8.913   1.978
59317W        W29917   9.291  13.787   2.226
59318W        W29918   7.731  41.487  13.359
59319W        W29919  43.549  11.657  11.388
59320W        W29920  11.228  30.058  11.504
59321W        W29921  11.312  31.319   3.769
59322W        W29922  39.948  38.847   3.144
59323W        W29923  11.541  35.192   0.823
59324W        W29924  27.251  14.340  11.037
59325W        W29925  38.756  12.817  13.766
59326W        W29926   6.916  28.455   2.735
59327W        W29927  21.738  27.423   2.204
59328W        W29928   8.213  11.605   2.398
59329W        W29929  25.233  42.298   3.473
59330W        W29930  21.275   0.004  14.915
59331W        W29931   8.046  21.224  12.020
59332W        W29932  29.233  19.872  14.426
59333W        W29933   6.348  21.936   4.523
59334W        W29934  14.603  26.462  14.467
59335W        W29935  25.686  42.475   3.658
59336W        W29936   9.947  44.284   5.131
59337W        W29937  15.113  24.165   3.167
59338W        W29938  15.208   0.359   3.648
59339W        W29939  34.116   6.428   1.835
59340W        W29940   6.327   6.437   1.740
59341W        W29941   0.855  27.635  10.696
59342W        W29942  32.098  29.891  12.843
59343W        W29943  10.728  21.173  10.615
59344W        W29944  12.294  40.105   1.157
59345W        W29945  27.757  22.626  13.120
59346W        W29946  39.990  40.212  10.640
59347W        W29947  11.644  25.138   0.445
59348W        W29948  24.576   9.476   0.987
59349W        W29949  18.907  10.903  13.092
59350W        W29950  43.933   7.800   0.027
59351W        W29951  34.967  30.627   2.592
59352W        W29952  15.282  15.560  14.820
59353W        W29953   9.297  35.709   5.061
59354W        W29954  12.208  36.934   0.496
59355W        W29955  23.977  14.391  12.052
59356W        W29956  29.195   2.896   3.675
59357W        W29957  36.624  34.466  14.479
59358W        W29958  23.816   8.821  13.406
59359W        W29959   7.314  25.551  11.568
59360W        W29960  34.591  10.803   1.909
59361W        W29961  38.656  21.243  11.459
59362W        W29962  23.612  15.195   2.299
59363W        W29963  25.762  14.939  11.171
59364W        W29964  13.911  24.197  10.482
59365W        W29965  22.919   3.336   2.402
59366W        W29966  30.280  35.010   1.734
59367W        W29967  12.893   5.635  12.070
59368W        W29968  38.301  42.955   2.412
59369W        W29969  33.992  44.764  14.079
59370W        W29970   4.769  28.313  10.659
59371W        W29971  13.466  38.262   4.156
59372W        W29972  37.995  36.202   0.899
59373W        W29973  10.884  37.580   2.264
59374W        W29974   2.466  27.601  11.236
59375W        W29975  18.899   4.729  11.029
59376W        W29976  20.263  25.573   1.240
59377W        W29977  26.582  32.060  13.192
59378W        W29978  32.989  33.874   2.146
59379W        W29979  12.320  32.145   4.089
59380W        W29980  15.562   1.313   4.494
59381W        W29981  27.773  36.684   2.108
59382W        W29982  38.920   9.396   1.125
59383W        W29983  24.510  25.563   3.637
59384W        W29984  39.565  35.816   4.434
59385W        W29985  33.525  41.170  13.917
59386W        W29986  25.750   6.925  11.992
59387W        W29987  20.548  13.850  10.836
59388W        W29988  28.480  26.507  10.638
59389W        W29989  36.446   6.492   1.420
59390W        W29990  16.891  16.508   1.390
59391W        W29991  10.348  33.336   2.705
59392W        W29992   1.211  32.029   4.142
59393W        W29993  19.196  28.368  13.921
59394W        W29994  24.621  23.648   4.171
59395W        W29995   0.378  13.092   0.269
59396W        W29996   3.083  13.001   5.066
59397W        W29997   2.338   5.485  12.428
59398W        W29998  11.086  27.980   3.793
59399W        W29999  44.508  41.076   3.140
59400W        W30000  24.644  15.021  12.097
59401W        W30001   2.576   1.804  10.251
59402W        W30002  21.097  36.782  13.083
59403W        W30003  36.295  29.147   1.891
59404W        W30004   0.719  15.143   2.288
59405W        W30005  10.791  38.601  13.239
59406W        W30006  38.857  22.504   4.014
59407W        W30007   4.643  26.711   1.175
59408W        W30008  36.631  44.786   2.194
59409W        W30009  32.234   0.317   2.008
59410W        W30010   6.115  29.040   3.853
59411W        W30011  21.990  28.350   3.416
59412W        W30012  32.504  23.675   0.819
59413W        W30013   1.271   9.080  10.596
59414W        W30014  14.259   7.915   2.622
59415W        W30015  24.610  13.863  14.292
59416W        W30016  24.532  24.220  14.716
59417W        W30017   3.234   1.378   3.603
59418W        W30018  10.230  15.988   3.338
59419W        W30019  36.008  28.808  10.787
59420W        W30020  38.096  25.070  11.562
59421W        W30021   3.470  14.829  13.071
59422W        W30022  17.370  13.093   4.182
59423W        W30023  17.777   8.901  13.961
59424W        W30024   8.712  38.800  13.365
59425W        W30025  40.581  33.357   1.726
59426W        W30026   2.472  15.546   4.518
59427W        W30027  34.010  32.040   0.535
59428W        W30028  28.688  32.189   1.168
59429W        W30029   6.220  24.332   2.223
59430W        W30030  23.895  27.920  13.945
59431W        W30031  12.031   7.060  10.423
59432W        W30032  35.152  28.661   1.754
59433W        W30033  13.365  28.523   4.953
59434W        W30034  11.264   3.936   2.321
59435W        W30035  16.956  10.078  11.069
59436W        W30036   6.181  21.644   0.475
59437W        W30037  40.253  28.160   4.998
59438W        W30038  21.942   8.881  13.575
59439W        W30039  23.472  15.242  10.598
59440W        W30040  23.540  26.291   2.377
59441W        W30041  11.352  22.128   2.296
59442W        W30042  23.752  40.624   3.077
59443W        W30043  19.528  22.137   0.779
59444W        W30044  29.925   1.204  12.548
59445W        W30045  35.786  18.681   2.238
59446W        W30046  29.034  27.710  10.605
59447W        W30047  40.325  24.502   4.352
59448W        W30048  35.881  37.819  14.884
59449W        W30049   4.303  17.053   2.951
59450W        W30050  30.328  42.734   2.452
59451W        W30051  28.473  33.980   3.278
59452W        W30052  33.979  15.565   2.815
59453W        W30053  17.644  34.321  11.674
59454W        W30054   3.747   5.800   2.321
59455W        W30055  11.649   5.436  11.523
59456W        W30056  32.871  12.407   2.793
59457W        W30057  14.288  23.728   2.336
59458W        W30058  17.372  25.401   2.733
59459W        W30059  13.731   2.508   4.253
59460W        W30060  34.977   8.177   4.232
59461W        W30061   8.273   8.629  14.985
59462W        W30062  34.772  13.171  12.732
59463W        W30063  36.816  38.792  12.610
59464W        W30064  23.677  12.450   2.753
59465W        W30065  32.244  39.250  11.032
59466W        W30066  40.288   0.349  14.382
59467W        W30067  35.519  41.044  10.628
59468W        W30068  25.065   2.015   2.631
59469W        W30069  44.159  15.143   2.244
59470W        W30070   9.614  23.125  13.827
59471W        W30071  13.063  44.760   2.612
59472W        W30072   6.952  12.833   4.588
59473W        W30073  32.592  22.412   0.312
59474W        W30074   4.338  17.311  14.894
59475W        W30075   7.301  17.082  12.827
59476W        W30076   0.999  39.001   1.258
59477W        W30077  13.799  27.996  14.941
59478W        W30078  31.715  33.374   0.325
59479W        W30079  38.889  38.149  14.691
59480W        W30080  18.105  33.412   1.237
59481W        W30081  24.496   3.355   4.100
59482W        W30082   7.641  42.400  10.716
59483W        W30083  26.265  25.167  12.462
59484W        W30084  33.438  42.928   0.344
59485W        W30085  42.087  23.718  11.524
59486W        W30086   1.956   8.884  11.615
59487W        W30087  16.180  22.366  14.462
59488W        W30088  21.569  36.467  13.108
59489W        W30089   0.364   7.355   0.403
59490W        W30090  21.007  20.033  14.752
59491W        W30091  43.821  27.409   3.243
59492W        W30092  38.614  19.255   0.595
59493W        W30093  16.318  39.075  11.411
59494W        W30094  23.894  19.723   1.831
59495W        W30095  36.259   5.808   4.364
59496W        W30096  15.569  10.299   1.424
59497W        W30097   1.651  20.675  13.809
59498W        W30098   9.830   2.238  10.459
59499W        W30099   1.895   2.968   2.694
59500W        W30100   7.807  25.573  12.527
59501W        W30101  35.075  23.124  14.502
59502W        W30102  19.363  40.427  12.354
59503W        W30103  11.870   3.710  12.443
59504W        W30104  15.514  31.932   4.707
59505W        W30105  31.904  39.414   1.675
59506W        W30106  41.718  20.431  14.350
59507W        W30107   6.807  12.613  12.602
59508W        W30108  32.095  22.792  12.864
59509W        W30109  38.655  43.930   3.675
59510W        W30110  21.213  40.863   1.747
59511W        W30111  21.495  22.235   3.688
59512W        W30112  24.980   2.231   1.166
59513W        W30113  16.598  26.180   2.186
59514W        W30114  42.966  27.629   3.779
59515W        W30115  26.228  14.876  10.888
59516W        W30116  38.380  21.244   1.428
59517W        W30117  37.119   2.777  11.826
59518W        W30118  40.052   2.798   4.226
59519W        W30119  27.421  36.902  14.335
59520W        W30120  11.916  12.109  10.660
59521W        W30121  21.732  32.852   1.830
59522W        W30122  43.169   2.418   0.401
59523W        W30123  27.194  40.622  11.929
59524W        W30124   8.938  34.232   2.443
59525W        W30125  16.835   6.984   4.019
59526W        W30126  43.784  34.152   2.266
59527W        W30127  12.795  20.411  11.574
59528W        W30128  36.388  37.500  10.180
59529W        W30129  25.078  17.184   3.092
59530W        W30130  32.620   5.888  12.358
59531W        W30131  31.618  16.166  12.137
59532W        W30132  29.100  18.034  14.079
59533W        W30133  14.258   0.524   2.912
59534W        W30134  43.074  10.822   4.505
59535W        W30135  38.442  32.828  12.860
59536W        W30136  13.708  23.259  14.748
59537W        W30137   1.754  41.683  13.796
59538W        W30138   7.456   3.661   0.130
59539W        W30139  30.968  10.783  14.078
59540W        W30140  29.236  22.786   2.590
59541W        W30141   5.581  13.548   1.385
59542W        W30142   9.405  10.163  10.113
59543W        W30143   1.598   6.635  14.842
59544W        W30144  26.091  43.733   2.234
59545W        W30145   6.193  25.211   4.207
59546W        W30146  31.617  39.967   2.805
59547W        W30147   8.435  37.549  10.425
59548W        W30148   5.847  43.492   1.661
59549W        W30149   1.470   0.431  14.529
59550W        W30150  35.415  23.517  10.636
59551W        W30151  18.866   5.781  12.455
59552W        W30152  42.973  44.540   5.032
59553W        W30153   4.195   0.778   2.359
59554W        W30154  34.564  10.844  12.605
59555W        W30155  24.122  24.507  14.885
59556W        W30156   2.921   4.319  11.073
59557W        W30157   2.918  20.713   1.849
59558W        W30158   0.269  39.038  12.815
59559W        W30159   6.161   1.330   2.935
59560W        W30160  40.443  12.141   3.927
59561W        W30161  20.414  41.366   4.602
59562W        W30162  27.455   1.804   2.381
59563W        W30163  20.806  44.399  11.106
59564W        W30164   1.904  31.844   0.870
59565W        W30165  19.260  30.138  11.004
59566W        W30166  21.485  38.468  13.418
59567W        W30167   5.284  15.709   0.784
59568W        W30168  20.615   8.670   2.210
59569W        W30169  13.121  31.684   1.428
59570W        W30170   4.322  20.500  11.067
59571W        W30171  42.031  42.596   4.724
59572W        W30172  29.594  31.599   3.006
59573W        W30173  40.114  12.201  11.596
59574W        W30174  27.501   2.758   2.888
59575W        W30175  24.401   8.923   1.857
59576W        W30176  43.319  37.511   2.255
59577W        W30177  28.956  29.237  12.485
59578W        W30178   9.126  14.170  14.454
59579W        W30179  16.783  16.241  12.467
59580W        W30180  42.009  22.013   2.936
59581W        W30181  13.886   5.464   2.968
59582W        W30182  44.474   3.991  14.119
59583W        W30183  37.518   6.930  14.398
59584W        W30184  14.781  21.966   4.272
59585W        W30185  32.650  39.556  13.236
59586W        W30186  11.360  20.253   3.672
59587W        W30187  38.409  29.339   3.130
59588W        W30188  25.094  40.495   2.222
59589W        W30189  39.310  24.760   4.086
59590W        W30190  41.062   1.491   2.344
59591W        W30191  32.077  12.299  14.169
59592W        W30192   6.304  32.694  10.748
59593W        W30193   3.807  11.283   1.934
59594W        W30194  41.348  39.566   3.694
59595W        W30195  35.519  15.010   3.628
59596W        W30196  33.289  40.932   2.644
59597W        W30197  22.604  28.305   1.513
59598W        W30198  33.364  16.337   1.279
59599W        W30199  31.625   0.766   0.506
59600W        W30200   1.543  24.250  10.610
59601W        W30201   5.690  25.780   0.898
59602W        W30202  14.732   6.283   1.332
59603W        W30203   5.521  10.614   1.206
59604W        W30204  39.817  20.019  12.429
59605W        W30205  39.833   2.932  13.026
59606W        W30206  38.945  22.449  13.970
59607W        W30207  20.405  12.256   2.942
59608W        W30208  11.146  14.638  10.918
59609W        W30209  21.695  21.705   0.940
59610W        W30210  23.153  21.106  14.526
59611W        W30211  11.529   1.706  12.367
59612W        W30212   5.888  12.801  14.286
59613W        W30213  18.529   0.802   2.288
59614W        W30214  41.887  23.086  12.421
59615W        W30215  41.036  27.857  14.951
59616W        W30216   7.850  31.620  13.342
59617W        W30217  28.868  19.025   1.939
59618W        W30218  42.762  14.834  11.894
59619W        W30219  20.746  18.005   4.959
59620W        W30220  41.881   3.927   4.546
59621W        W30221   6.648   8.649  13.945
59622W        W30222   6.569  35.023  11.578
59623W        W30223  25.409   2.126   5.101
59624W        W30224  28.910  26.689   0.485
59625W        W30225  40.072  17.056  14.789
59626W        W30226  12.666  34.021  14.383
59627W        W30227  39.969   2.805   1.947
59628W        W30228   9.764  15.106   4.810
59629W        W30229  15.332   0.417  10.999
59630W        W30230   1.510  20.937   4.595
59631W        W30231  42.909  15.997   3.138
59632W        W30232  30.559  38.286  12.140
59633W        W30233  21.173   5.862   3.698
59634W        W30234  17.617  21.200   4.472
59635W        W30235  42.025   5.757  14.705
59636W        W30236  24.125  37.618   2.217
59637W        W30237  26.183  42.994   0.309
59638W        W30238  29.807  32.873   1.683
59639W        W30239  12.877   1.924   1.907
59640W        W30240  40.084  16.173   2.246
59641W        W30241  42.526   2.635  12.511
59642W        W30242  42.465   3.953  14.763
59643W        W30243   5.138  39.587   1.878
59644W        W30244  28.209  34.392  11.171
59645W        W30245   7.279  13.134  11.804
59646W        W30246  24.644  35.431   2.394
59647W        W30247  22.415  10.888   4.885
59648W        W30248   3.896  18.604  12.587
59649W        W30249   0.588   1.531  14.976
59650W        W30250  41.292  37.851   3.844
59651W        W30251  20.609  12.183   2.408
59652W        W30252  28.276  11.279   3.243
59653W        W30253  24.927  41.860   0.422
59654W        W30254   8.694  23.175   1.680
59655W        W30255   7.849  21.121   3.249
59656W        W30256   3.344   9.835   4.578
59657W        W30257   7.443  31.705   0.445
59658W        W30258   5.221   3.946  12.917
59659W        W30259  11.596  38.405  14.454
59660W        W30260  15.302  41.446  12.029
59661W        W30261  21.550  32.644   2.851
59662W        W30262  16.557  39.399  14.269
59663W        W30263  31.322  43.413  13.557
59664W        W30264  18.105   0.911  11.867
59665W        W30265  10.267  15.620   3.699
59666W        W30266  39.525  34.652   0.968
59667W        W30267  22.099   3.392   4.611
59668W        W30268  21.023  26.735  14.132
59669W        W30269  27.121  24.395  10.750
59670W        W30270  34.847  13.805   2.314
59671W        W30271  22.472  25.740   4.567
59672W        W30272  11.027  27.434  13.502
59673W        W30273   5.770  43.804   0.541
59674W        W30274   1.641  15.076  12.974
59675W        W30275   7.030   5.353   2.260
59676W        W30276  21.732  10.404   4.651
59677W        W30277  25.552   1.033  13.094
59678W        W30278  32.611  34.640   2.245
59679W        W30279  13.379  21.903   0.626
59680W        W30280  12.270   0.056  13.987
59681W        W30281  33.595  10.236  13.509
59682W        W30282   7.074  10.713   0.907
59683W        W30283  27.315  34.432  14.866
59684W        W30284  27.531   2.359  10.587
59685W        W30285   5.910   9.162   0.325
59686W        W30286   2.679  21.244   0.777
59687W        W30287  28.360  21.406  14.957
59688W        W30288  28.545  16.667  11.490
59689W        W30289   9.646  30.811  14.963
59690W        W30290  38.155  13.751   1.755
59691W        W30291  43.415   4.838  12.922
59692W        W30292  27.488   5.768  12.072
59693W        W30293  19.324  24.277   2.755
59694W        W30294  18.392  10.159   1.020
59695W        W30295   8.716  37.981   4.369
59696W        W30296   7.265  33.109   4.638
59697W        W30297   1.472   5.363  10.633
59698W        W30298  15.029  28.473   1.712
59699W        W30299  22.636  22.988  12.400
59700W        W30300   6.950  11.531   2.791
59701W        W30301  35.170  24.984  11.510
59702W        W30302  12.712  30.546   1.568
59703W        W30303   0.984  44.582  10.738
59704W        W30304  10.094  11.497  12.391
59705W        W30305  26.574   0.201  11.245
59706W        W30306   0.192  20.091  11.958
59707W        W30307  32.997  26.045   3.100
59708W        W30308   9.815  27.524  10.945
59709W        W30309  22.341  10.417  10.490
59710W        W30310  31.505  19.177  13.498
59711W        W30311  21.713  21.804  13.434
59712W        W30312   5.669  31.169   0.960
59713W        W30313  15.341  32.493  13.290
59714W        W30314  17.045  25.473  11.667
59715W        W30315  35.424  10.234   3.642
59716W        W30316  11.789  24.440   0.823
59717W        W30317   3.611   6.293   4.984
59718W        W30318  35.539  43.059   2.767
59719W        W30319  15.240  27.901  12.952
59720W        W30320  38.327  28.654   1.909
59721W        W30321   8.528  31.904  11.637
59722W        W30322   9.442   1.308   2.699
59723W        W30323  27.977  14.549  12.976
59724W        W30324  38.988  19.065  14.747
59725W        W30325  10.703  20.618   1.006
59726W        W30326   8.878   5.289   2.235
59727W        W30327  16.297  34.527  11.558
59728W        W30328  35.352   2.309   2.746
59729W        W30329  32.567  32.045   3.540
59730W        W30330   6.071  26.483  10.608
59731W        W30331  39.002  42.544   2.107
59732W        W30332  31.200  34.425   1.415
59733W        W30333  29.449  18.041   1.245
59734W        W30334  23.502  16.606  13.450
59735W        W30335  20.694  37.435  14.369
59736W        W30336  19.788  38.557  14.548
59737W        W30337  27.494  19.618   3.716
59738W        W30338  25.390  39.974   2.242
59739W        W30339  19.463  13.197  13.786
59740W        W30340  20.483  32.647   2.276
59741W        W30341   3.236   1.778  13.094
59742W        W30342  24.156  20.679   3.792
59743W        W30343  35.949   1.566  11.628
59744W        W30344  29.736  11.790   0.897
59745W        W30345  23.484  30.971  10.807
59746W        W30346  41.775  43.573   0.887
59747W        W30347   9.175  13.253   3.690
59748W        W30348  19.970   7.387  14.064
59749W        W30349   2.350  42.874   2.143
59750W        W30350  36.474  15.354   2.311
59751W        W30351   8.600   1.945  13.297
59752W        W30352   1.281   5.982  12.099
59753W        W30353  24.007  21.175  10.692
59754W        W30354  35.341  19.111   0.732
59755W        W30355  21.216  38.727   2.226
59756W        W30356  17.542  10.812   3.437
59757W        W30357  41.432  10.842  12.850
59758W        W30358  44.786  19.562   0.980
59759W        W30359   3.864  35.933  13.820
59760W        W30360  36.432  20.166  13.300
59761W        W30361   2.229  25.683   4.367
59762W        W30362  31.424  39.294  12.930
59763W        W30363  13.447  37.598  11.160
59764W        W30364  38.390  18.204  12.424
59765W        W30365  40.357   2.858  14.156
59766W        W30366  19.778  35.280  14.950
59767W        W30367  30.955   8.288   2.891
59768W        W30368  20.553  10.692  11.371
59769W        W30369   3.920  40.418  10.919
59770W        W30370  20.522  35.701   4.492
59771W        W30371  18.667  30.166   3.327
59772W        W30372   7.977   6.494   3.131
59773W        W30373  42.698  34.110  14.378
59774W        W30374   0.353   8.682   3.325
59775W        W30375   7.514   7.842   4.325
59776W        W30376  34.062   1.424   3.511
59777W        W30377  37.808  30.543   1.636
59778W        W30378  36.154  34.542  11.050
59779W        W30379   2.972  28.534  14.389
59780W        W30380  35.516   9.665  11.250
59781W        W30381  23.708  10.622  11.009
59782W        W30382  36.113  14.069  13.926
59783W        W30383  21.649  36.972   2.789
59784W        W30384  35.474   3.954   3.302
59785W        W30385  21.383  12.596   3.171
59786W        W30386   2.648  36.649  12.148
59787W        W30387  39.875   5.725  12.011
59788W        W30388  28.154  14.089  11.141
59789W        W30389  15.567   0.872   0.785
59790W        W30390  21.141   6.351  13.164
59791W        W30391  44.650  38.648   1.958
59792W        W30392   6.620  17.986   3.180
59793W        W30393  24.580  43.234  13.111
59794W        W30394  20.720  42.991  12.872
59795W        W30395  35.370   8.635  11.997
59796W        W30396  31.565   5.679   1.837
59797W        W30397  38.301   0.817  12.493
59798W        W30398  29.535  43.374   0.811
59799W        W30399  40.442  11.815   0.727
59800W        W30400  32.431   2.874   2.876
59801W        W30401   1.892   1.430  10.803
59802W        W30402  32.996  42.545  13.904
59803W        W30403  38.090   6.382   4.692
59804W        W30404  39.218  20.547  11.654
59805W        W30405   6.450   9.916   1.767
59806W        W30406  14.819  20.746  12.402
59807W        W30407  34.392   4.106  11.654
59808W        W30408  14.045   3.790   3.787
59809W        W30409  35.367  25.015  12.006
59810W        W30410  12.405  26.994  14.256
59811W        W30411  19.861  18.860   2.695
59812W        W30412  44.280   4.308   1.677
59813W        W30413   0.023  12.015  10.323
59814W        W30414  14.619  35.405  14.313
59815W        W30415  42.461  25.092   4.595
59816W        W30416  13.341  42.290  14.133
59817W        W30417   9.151  29.084   4.307
59818W        W30418  44.347   2.152  12.550
59819W        W30419  16.019  21.157   0.646
59820W        W30420  11.948   4.628  13.357
59821W        W30421  21.213  27.914  12.092
59822W        W30422  27.432  10.771   3.382
59823W        W30423  32.496  43.781  11.827
59824W        W30424  22.214  25.432  11.408
59825W        W30425  30.596   7.889   2.903
59826W        W30426  35.885  14.689   2.128
59827W        W30427  43.870  13.183   4.750
59828W        W30428  40.403  43.238   2.199
59829W        W30429  18.278  30.494  13.314
59830W        W30430  42.802  17.124   2.628
59831W        W30431  30.015   6.160  13.786
59832W        W30432  11.173   2.008   1.185
59833W        W30433  42.619  18.654   3.322
59834W        W30434  34.778   5.731  12.939
59835W        W30435   8.550  30.118   2.812
59836W        W30436   0.485  17.445  11.597
59837W        W30437   5.403  23.560   4.137
59838W        W30438  31.258  27.208  12.974
59839W        W30439   3.814   1.921  10.740
59840W        W30440  26.541  36.188   2.384
59841W        W30441  37.519  12.766   4.557
59842W        W30442   2.452   7.571   3.720
59843W        W30443  37.312  43.456   0.931
59844W        W30444   4.920   3.441  12.823
59845W        W30445  31.976  10.734  13.423
59846W        W30446  21.537   0.964   1.928
59847W        W30447  36.074   4.872   1.653
59848W        W30448  36.996  18.003  14.764
59849W        W30449  35.513  31.829  10.667
59850W        W30450  11.200  19.576   2.321
59851W        W30451   4.806  34.126   2.867
59852W        W30452   3.470   1.014   0.499
59853W        W30453  28.011  44.838   2.687
59854W        W30454  11.015   9.802  10.702
59855W        W30455  23.068  44.264   4.042
59856W        W30456   8.715  33.408   3.595
59857W        W30457  40.363  42.457   0.951
59858W        W30458  34.928  29.439  12.493
59859W        W30459  17.306   8.328   4.343
59860W        W30460  18.844  29.072   2.122
59861W        W30461  29.927  42.151  10.317
59862W        W30462   3.331  39.097  12.516
59863W        W30463  30.201   7.424  14.382
59864W        W30464  28.863  38.986   2.277
59865W        W30465   8.229   5.440   3.944
59866W        W30466  28.498   0.587   2.392
59867W        W30467  43.683  31.090   4.788
59868W        W30468  36.865  17.031   0.099
59869W        W30469   9.052  34.412  13.616
59870W        W30470  44.892  26.420   0.425
59871W        W30471  11.892  21.684   3.747
59872W        W30472   7.792  11.153  14.432
59873W        W30473  22.740  43.303   5.413
59874W        W30474  27.934  39.664   0.435
59875W        W30475  41.040  24.430  11.977
59876W        W30476  39.976  29.304  12.521
59877W        W30477  12.332  18.062  10.735
59878W        W30478  16.760   3.183  14.756
59879W        W30479  21.064  27.091  12.850
59880W        W30480  41.431  39.747   1.938
59881W        W30481  16.841  22.683   1.398
59882W        W30482   0.480  39.774   1.368
59883W        W30483   6.511  39.544   0.463
59884W        W30484  32.135   8.683  11.673
59885W        W30485  40.763  41.915   2.697
59886W        W30486  43.786  29.074  11.554
59887W        W30487  14.861  23.708  12.244
59888W        W30488  18.377  42.817   1.316
59889W        W30489  24.228   6.392   0.441
59890W        W30490   4.415  32.863  12.067
59891W        W30491  24.917  28.454  12.061
59892W        W30492   3.967  39.040   1.200
59893W        W30493  11.411  21.257  14.953
59894W        W30494  24.639  27.812  14.377
59895W        W30495   3.495  25.638  13.924
59896W        W30496  24.178  18.569   3.210
59897W        W30497  22.092  15.032  13.848
59898W        W30498  23.324  31.324  13.858
59899W        W30499  27.408  13.070  13.955
59900W        W30500  21.194  39.471   4.737
59901W        W30501  36.070  26.936   4.402
59902W        W30502  23.147  10.468  12.901
59903W        W30503  41.969  26.636   3.237
59904W        W30504  19.686  42.818   2.810
59905W        W30505  41.930  35.914  13.938
59906W        W30506  27.203  20.229   4.637
59907W        W30507  37.254   9.731  12.943
59908W        W30508  44.383  13.086   2.781
59909W        W30509  12.087  34.108   3.282
59910W        W30510   1.033  21.057   3.285
59911W        W30511  12.359  11.622  12.950
59912W        W30512  40.862  16.545   0.368
59913W        W30513   0.580   0.425   2.365
59914W        W30514  13.754  40.197   3.133
59915W        W30515  19.386  26.148  13.227
59916W        W30516  12.706  21.143  12.118
59917W        W30517  11.039  18.337  11.081
59918W        W30518  12.878  18.657   3.992
59919W        W30519  43.961  30.639   4.907
59920W        W30520   3.651  44.355  12.082
59921W        W30521  20.299  22.274  14.360
59922W        W30522  33.957  31.725   1.304
59923W        W30523   8.966  23.545  11.165
59924W        W30524  36.348  30.654   4.642
59925W        W30525  41.043  19.314   3.234
59926W        W30526   1.941  42.668   3.177
59927W        W30527  10.235  34.554  12.921
59928W        W30528  21.346  39.132   5.099
59929W        W30529  17.594  33.579   2.630
59930W        W30530   0.482  26.917  10.976
59931W        W30531  17.748   0.267  13.049
59932W        W30532  23.427  39.636   4.125
59933W        W30533  23.769  39.976  13.040
59934W        W30534  13.860   2.517  13.938
59935W        W30535  32.448  43.559  10.673
59936W        W30536  17.058  10.415   2.170
59937W        W30537  17.487  13.325   0.859
59938W        W30538  28.847  39.909   2.434
59939W        W30539  32.923  26.653   4.626
59940W        W30540  10.367  11.421  11.103
59941W        W30541   4.229   7.261   1.637
59942W        W30542  18.116   8.413  12.413
59943W        W30543  22.016  23.948  13.558
59944W        W30544  16.371  12.240   0.744
59945W        W30545  29.663  44.401  12.575
59946W        W30546  14.615  26.050   1.432
59947W        W30547  31.026  30.159  11.544
59948W        W30548  38.196  11.366   0.679
59949W        W30549  18.548  44.756   2.787
59950W        W30550  39.017  38.838   2.949
59951W        W30551  38.851  35.386   4.021
59952W        W30552  18.850  23.102  14.294
59953W        W30553  34.354   4.001   4.076
59954W        W30554  29.900  37.936  12.936
59955W        W30555  29.843  29.592   4.242
59956W        W30556  34.060  21.203   0.911
59957W        W30557   0.391   6.746  14.965
59958W        W30558  26.655   4.429  11.516
59959W        W30559  36.795  18.563  13.923
59960W        W30560  41.916  35.876   5.224
59961W        W30561   1.666  16.628  10.690
59962W        W30562  20.920   3.763   1.473
59963W        W30563  24.943  25.449  11.495
59964W        W30564  15.065  18.173   2.713
59965W        W30565  30.992  34.279   2.649
59966W        W30566  44.025  27.419  12.861
59967W        W30567  22.668  29.059  14.003
59968W        W30568  31.550   0.970   1.988
59969W        W30569  21.230   3.882  12.033
59970W        W30570  24.710  10.238  13.095
59971W        W30571  12.911   8.322   1.281
59972W        W30572  12.266  18.831   1.146
59973W        W30573  43.245  14.099   2.384
59974W        W30574  22.982   1.773   1.703
59975W        W30575   5.413   2.616   0.846
59976W        W30576  26.286  26.610   4.425
59977W        W30577   0.965  14.585  14.925
59978W        W30578  15.118   0.207   0.028
59979W        W30579  19.544  43.318   2.167
59980W        W30580  16.729   3.410  13.502
59981W        W30581  18.320  23.485  12.583
59982W        W30582  12.918  15.134   3.241
59983W        W30583  44.462  26.619   3.138
59984W        W30584  25.190  32.635  14.497
59985W        W30585  28.033  23.097  14.888
59986W        W30586   1.141  28.111   3.264
59987W        W30587  20.757  41.035  12.079
59988W        W30588  16.582  11.312   1.405
59989W        W30589   6.797  40.747  11.888
59990W        W30590  22.617  32.747  13.127
59991W        W30591   3.182   1.534  12.632
59992W        W30592   3.345   0.296   0.974
59993W        W30593  24.728  35.617   1.233
59994W        W30594  28.140   3.252   4.971
59995W        W30595  41.746   7.898   5.058
59996W        W30596  14.179  34.765  11.393
59997W        W30597  43.396  43.471  11.153
59998W        W30598   4.725   0.421  10.682
59999W        W30599  33.621  31.935  11.246
60000W        W30600  43.252  31.345   1.828
60001W        W30601  38.997  27.606  11.558
60002W        W30602   6.401  43.250   4.125
60003W        W30603  12.740  34.400   3.084
60004W        W30604   0.054   5.457  11.008
60005W        W30605  20.165  10.884   0.725
60006W        W30606  14.573  34.714  12.966
60007W        W30607  20.071  15.668   0.344
60008W        W30608  24.598  21.728  14.842
60009W        W30609  35.565  20.756  11.054
60010W        W30610  33.267  38.202   1.893
60011W        W30611  13.793  18.135   0.010
60012W        W30612  23.619  16.059   2.654
60013W        W30613  18.384  10.777  13.850
60014W        W30614  15.192   1.324  10.749
60015W        W30615  38.139  38.785  12.551
60016W        W30616   5.976  18.571  13.032
60017W        W30617  41.982  28.867   2.286
60018W        W30618  38.311  34.434  10.754
60019W        W30619   7.661  41.766   0.738
60020W        W30620  30.922  32.114   4.536
60021W        W30621  31.528  34.449  13.454
60022W        W30622  24.230  10.300  10.897
60023W        W30623  42.340  42.417  13.599
60024W        W30624  35.118  35.260   3.352
60025W        W30625  32.939   9.476   0.290
60026W        W30626  30.560  33.028  11.172
60027W        W30627  13.655  39.390  14.901
60028W        W30628  38.356  10.900  13.424
60029W        W30629  41.322  27.985  13.403
60030W        W30630   0.295   1.160  14.461
60031W        W30631   2.760  16.128   3.620
60032W        W30632  41.397   4.733  11.675
60033W        W30633  35.492  38.799  12.758
60034W        W30634  19.980  36.087   3.698
60035W        W30635  26.119  35.616   1.446
60036W        W30636  19.866  17.976   3.393
60037W        W30637   3.378   4.935   0.511
60038W        W30638  10.234  27.262   1.887
60039W        W30639   8.154  37.753  14.940
60040W        W30640  22.207  12.771  13.333
60041W        W30641  18.608  42.800   4.159
60042W        W30642  44.043  11.812  14.417
60043W        W30643  16.793  37.330  12.940
60044W        W30644  33.496   2.206   1.264
60045W        W30645  11.815  17.272   0.823
60046W        W30646  42.258  27.864  11.658
60047W        W30647   8.747  23.148  12.736
60048W        W30648  24.665   4.188   3.235
60049W        W30649   5.796   7.730  14.418
60050W        W30650  13.270  10.705   2.721
60051W        W30651  30.131  20.204   3.128
60052W        W30652  11.665  17.132   0.348
60053W        W30653  29.150  42.553  12.951
60054W        W30654  43.557  26.620   5.102
60055W        W30655  10.706  10.796   4.168
60056W        W30656  24.718  13.830   0.501
60057W        W30657   3.829   3.808  11.200
60058W        W30658  26.093  23.783  11.893
60059W        W30659  10.835  22.902   4.142
60060W        W30660  37.837  11.336  11.610
60061W        W30661  28.430  34.650  13.952
60062W        W30662   4.933   8.268   3.386
60063W        W30663  35.080  34.322  12.049
60064W        W30664   9.298  18.154   0.672
60065W        W30665  38.053   0.810  11.039
60066W        W30666  17.806  38.787   1.231
60067W        W30667  44.610  26.267  14.964
60068W        W30668  30.981  32.490  13.358
60069W        W30669   1.237  37.872  12.485
60070W        W30670   2.895  42.568   0.015
60071W        W30671  20.719   1.973   2.637
60072W        W30672  34.777  34.269   3.398
60073W        W30673   1.219   5.931  11.168
60074W        W30674  34.990  44.694  12.615
60075W        W30675   5.098  25.324   3.064
60076W        W30676  19.735  32.523   1.373
60077W        W30677   6.158   4.764   4.198
60078W        W30678   9.161  33.033  10.432
60079W        W30679  28.024  41.157  13.430
60080W        W30680  28.788  43.021  11.003
60081W        W30681  42.712  34.437  14.918
60082W        W30682  38.615  35.930  13.849
60083W        W30683  26.680   7.129   1.263
60084W        W30684  40.981  39.883  13.856
60085W        W30685   4.907  15.422   1.545
60086W        W30686  35.022   0.910  10.659
60087W        W30687  37.062  40.800   1.767
60088W        W30688  26.277  30.847  14.843
60089W        W30689  31.945  36.521  14.898
60090W        W30690   6.620  40.924   2.863
60091W        W30691  30.146  32.484   3.816
60092W        W30692   4.751  26.280  12.984
60093W        W30693   5.733   2.055   3.592
60094W        W30694  39.932  23.557  11.184
60095W        W30695  30.114  12.640  14.250
60096W        W30696  43.472  32.528   0.309
60097W        W30697  29.942  34.589   1.766
60098W        W30698   3.272   1.722   4.561
60099W        W30699  40.496  16.694   4.980
60100W        W30700   2.537  21.522  12.466
60101W        W30701  21.666   6.596  12.220
60102W        W30702  17.526  38.020  11.544
60103W        W30703  11.300  24.141   0.416
60104W        W30704  12.518  32.350  11.509
60105W        W30705  16.290  32.359  13.409
60106W        W30706  42.289  14.850  13.076
60107W        W30707  18.576  19.528  12.327
60108W        W30708  37.903  35.816  14.515
60109W        W30709  40.485  24.084  13.728
60110W        W30710   3.958  13.194   1.669
60111W        W30711  44.886   2.711  11.592
60112W        W30712  11.341   1.533   1.252
60113W        W30713   5.229  19.041   2.708
60114W        W30714   1.246  24.978  12.382
60115W        W30715   7.598   4.747   2.762
60116W        W30716   0.749  40.053  12.430
60117W        W30717  19.762   9.179  12.052
60118W        W30718  26.054  38.187  12.112
60119W        W30719  25.614  20.465  14.500
60120W        W30720  40.995  29.656   0.275
60121W        W30721  37.219  16.759  13.797
60122W        W30722  14.668  21.299   1.711
60123W        W30723  11.184   0.902  11.150
60124W        W30724  12.200  25.804  10.579
60125W        W30725  10.844  42.304   0.186
60126W        W30726  11.019  40.308   2.242
60127W        W30727  12.684  31.034  13.352
60128W        W30728   8.721  12.365  11.539
60129W        W30729  18.599   9.196  11.387
60130W        W30730  17.974  40.119  14.283
60131W        W30731  19.642  18.273   2.668
60132W        W30732  38.115   4.506   0.099
60133W        W30733  30.236  38.556  13.461
60134W        W30734  28.202   2.239  14.858
60135W        W30735  24.649   0.765  14.881
60136W        W30736  20.599   9.517   4.103
60137W        W30737  10.263  20.532   4.650
60138W        W30738  20.299  14.111   0.831
60139W        W30739  14.707  33.119  14.334
60140W        W30740   0.891   8.871  11.508
60141W        W30741   9.648  21.579   3.068
60142W        W30742  21.759  27.277   3.861
60143W        W30743  36.327  14.863  14.962
60144W        W30744  35.107   7.798  13.974
60145W        W30745   6.771  18.894  14.321
60146W        W30746  29.185  34.834  11.423
60147W        W30747   3.030  31.739  11.559
60148W        W30748  42.966  40.528  13.108
60149W        W30749   3.737  16.093  14.295
60150W        W30750  44.021  25.649   4.909
60151W        W30751   8.427  16.987   4.444
60152W        W30752  25.058  13.352  13.964
60153W        W30753  12.546  11.163  11.581
60154W        W30754  38.023  39.774   2.258
60155W        W30755  22.481  41.890   1.390
60156W        W30756  11.070  42.726  14.096
60157W        W30757   4.892  10.094  12.785
60158W        W30758  32.045   7.549  10.694
60159W        W30759  36.418  43.918   1.156
60160W        W30760  42.541   5.970  11.160
60161W        W30761  33.077  35.326   4.206
60162W        W30762  35.129  38.368   2.086
60163W        W30763  11.645  35.065  11.487
60164W        W30764  33.519  38.641   1.252
60165W        W30765  34.168   1.650   1.280
60166W        W30766  41.860   3.199   4.932
60167W        W30767   8.914   1.539   4.473
60168W        W30768  44.774  27.008   1.278
60169W        W30769  44.968  23.496  14.625
60170W        W30770  37.206   1.879  10.437
60171W        W30771   6.732  26.505   5.063
60172W        W30772  17.705  14.339  12.828
60173W        W30773   5.416  20.077  12.018
60174W        W30774  19.116  33.457  12.436
60175W        W30775  35.476  37.354  12.022
60176W        W30776  36.937  14.561  10.652
60177W        W30777  39.984  26.553   3.828
60178W        W30778  36.541  12.291   1.521
60179W        W30779  24.216   3.132  13.072
60180W        W30780  40.338  24.868   3.445
60181W        W30781  28.757   4.225   2.407
60182W        W30782  44.442  16.985  11.943
60183W        W30783  41.406   2.311  12.610
60184W        W30784  38.631  19.119  13.439
60185W        W30785  22.077  35.394   1.708
60186W        W30786  17.722  11.830  11.580
60187W        W30787  41.241   2.274  11.056
60188W        W30788  12.258  29.182  13.373
60189W        W30789  11.237  27.015   2.191
60190W        W30790  32.610  24.163   4.724
60191W        W30791  38.421  37.510   1.824
60192W        W30792   3.762  25.670   3.351
60193W        W30793  18.908  10.388   3.056
60194W        W30794  38.908  27.458   5.001
60195W        W30795  12.733  32.509  11.947
60196W        W30796   4.376  37.875   2.271
60197W        W30797  27.132   3.004   0.608
60198W        W30798  29.795  41.802  12.954
60199W        W30799   4.434  35.415   2.769
60200W        W30800   8.406  14.684  13.688
60201W        W30801  11.215   6.840  14.520
60202W        W30802  40.398   0.476   1.972
60203W        W30803  28.404   0.703   3.414
60204W        W30804  29.703  31.884  12.140
60205W        W30805  32.369  42.366   2.614
60206W        W30806   4.191  29.168   1.692
60207W        W30807   4.651  20.921  11.542
60208W        W30808   7.379  21.002   4.639
60209W        W30809  39.553   5.514   0.026
60210W        W30810  40.411  35.956  14.316
60211W        W30811  18.183  18.705   4.668
60212W        W30812  21.675  40.267  11.165
60213W        W30813  18.718   5.149   2.153
60214W        W30814  13.586  22.095  14.372
60215W        W30815   3.447  33.627  13.588
60216W        W30816  24.687  26.566   4.226
60217W        W30817  16.720  22.593  10.945
60218W        W30818  10.197  42.755  11.119
60219W        W30819  12.626   8.264  11.971
60220W        W30820   7.218  33.705   0.317
60221W        W30821  22.201  15.787  14.349
60222W        W30822  39.767  15.210   2.197
60223W        W30823  37.350  19.317  14.202
60224W        W30824  14.674  40.598  11.099
60225W        W30825  23.531  41.053  14.812
60226W        W30826  24.979  21.045   2.598
60227W        W30827  10.824  10.374  10.681
60228W        W30828  29.720  22.988   4.593
60229W        W30829  32.600  41.249  11.050
60230W        W30830  25.261  26.169   2.732
60231W        W30831  11.275   7.820  14.308
60232W        W30832  24.145   6.477   3.727
60233W        W30833  23.737  31.127  12.502
60234W        W30834  18.055  28.192  14.824
60235W        W30835  20.477  34.651   2.104
60236W        W30836  10.443  13.936  14.444
60237W        W30837  21.879   9.295  10.704
60238W        W30838  32.967   8.187   0.840
60239W        W30839  22.191   9.913   4.615
60240W        W30840  14.958   8.406   1.318
60241W        W30841   8.006  20.756  14.272
60242W        W30842   9.737  44.246  11.226
60243W        W30843   0.032  33.989  13.086
60244W        W30844  39.885  13.227  13.354
60245W        W30845   6.647  10.114  13.748
60246W        W30846  21.037  30.968  10.659
60247W        W30847  43.302  41.370  14.921
60248W        W30848  35.821  32.977  11.216
60249W        W30849  33.176  13.478   3.611
60250W        W30850   8.289   7.181  10.462
60251W        W30851   2.240   6.643  11.115
60252W        W30852  39.185  14.709   4.158
60253W        W30853   2.315   4.353  14.246
60254W        W30854  10.678   8.607   2.717
60255W        W30855  33.049  41.445   3.068
60256W        W30856  35.435  42.043  10.796
60257W        W30857  16.871   5.783  13.242
60258W        W30858  21.635  18.132   1.390
60259W        W30859  39.862  35.514   1.952
60260W        W30860   0.877   2.277  14.545
60261W        W30861  28.491  41.334  12.600
60262W        W30862   8.845  39.379   4.339
60263W        W30863  37.917  41.705   0.765
60264W        W30864  17.477  10.038   4.114
60265W        W30865  30.162  12.470   4.118
60266W        W30866  32.970  37.263  12.368
60267W        W30867  41.695  38.569   3.697
60268W        W30868   6.476  35.910  11.240
60269W        W30869  20.064  13.367  13.968
60270W        W30870  40.261   6.847  13.426
60271W        W30871  13.077  29.114  12.874
60272W        W30872  21.470   6.247   3.517
60273W        W30873  38.560  40.454  10.703
60274W        W30874  33.087   7.103  10.653
60275W        W30875  15.719  26.215  11.628
60276W        W30876  16.269  10.667   2.848
60277W        W30877   8.696  11.327   3.128
60278W        W30878  42.918   5.996  13.371
60279W        W30879  35.664  25.225   2.886
60280W        W30880   2.469  11.665  12.115
60281W        W30881  44.747   0.964   1.426
60282W        W30882  11.574  11.721   0.802
60283W        W30883  19.597  32.192   5.043
60284W        W30884  33.118  20.885   0.779
60285W        W30885  44.506  29.694   1.735
60286W        W30886   3.531  12.648  13.403
60287W        W30887  33.936  35.783   3.690
60288W        W30888  31.700  36.387  10.652
60289W        W30889  30.918  26.129  11.941
60290W        W30890  14.193   1.207   1.724
60291W        W30891  33.926  11.165   2.776
60292W        W30892   5.924  17.760   1.613
60293W        W30893  26.155  27.551  12.959
60294W        W30894  32.323  21.134   3.231
60295W        W30895  27.104   0.851   4.742
60296W        W30896  23.940  31.287  10.797
60297W        W30897   7.266  30.709  13.261
60298W        W30898  27.045   7.441  13.476
60299W        W30899   6.465  29.681   2.260
60300W        W30900  15.610  41.924   2.144
60301W        W30901  42.417  13.101   2.793
60302W        W30902  18.594  14.918  14.742
60303W        W30903  23.946  17.303  13.065
60304W        W30904  17.998  12.732  12.980
60305W        W30905   7.154  21.789  13.452
60306W        W30906  13.353   3.692  10.518
60307W        W30907  38.898  35.379  11.610
60308W        W30908  20.839  14.692  12.674
60309W        W30909  32.930   0.193  14.873
60310W        W30910  36.800  24.008  13.944
60311W        W30911  22.078  35.563  12.511
60312W        W30912  34.040  10.745   0.737
60313W        W30913  34.580  39.805   1.777
60314W        W30914  25.789  24.726   0.674
60315W        W30915   4.116   1.716   1.442
60316W        W30916  25.017  23.734   4.537
60317W        W30917  10.754  26.070   3.792
60318W        W30918  32.860  31.162   1.226
60319W        W30919   9.669  22.951   3.266
60320W        W30920  12.256   0.371  11.459
60321W        W30921  19.992   4.009   4.206
60322W        W30922  36.681  44.798   1.303
60323W        W30923  15.679   4.858  11.545
60324W        W30924   6.271  33.494   3.349
60325W        W30925  42.994  38.667   5.184
60326W        W30926  22.835  36.106   3.627
60327W        W30927  25.939  20.774  14.256
60328W        W30928  37.540  34.575  12.081
60329W        W30929  28.083  39.334  14.334
60330W        W30930  14.571  36.492   4.138
60331W        W30931  25.192  28.096  13.462
60332W        W30932  34.392  21.977   3.703
60333W        W30933  30.429  28.513  11.618
60334W        W30934  39.056  15.572  10.335
60335W        W30935  31.126  26.553  11.718
60336W        W30936  40.967  35.041  10.957
60337W        W30937  43.536   7.759  14.094
60338W        W30938  11.047  16.712   4.938
60339W        W30939   9.165  23.491  14.350
60340W        W30940   8.161  44.292  10.560
60341W        W30941  25.148   3.326  13.626
60342W        W30942  44.358  17.030   3.658
60343W        W30943   1.982  43.436   1.957
60344W        W30944  31.589  14.850  12.436
60345W        W30945  28.876  23.453  11.199
60346W        W30946   9.325  14.892   1.796
60347W        W30947   0.688  24.399  13.427
60348W        W30948  19.273  40.894  12.568
60349W        W30949  24.845  11.661   1.730
60350W        W30950  42.467  40.363   1.677
60351W        W30951  22.842  21.250  12.152
60352W        W30952  17.157  39.548   4.215
60353W        W30953  27.060  33.268   2.446
60354W        W30954  43.709  32.172  10.688
60355W        W30955  33.900   6.294  11.227
60356W        W30956   7.630   2.999   4.093
60357W        W30957  32.433  17.703  14.824
60358W        W30958  19.314  27.741  14.699
60359W        W30959  42.889   6.281   2.429
60360W        W30960  34.670  24.719   2.363
60361W        W30961  13.773  36.662  11.438
60362W        W30962  10.131  36.088   0.818
60363W        W30963   7.277  15.716  13.043
60364W        W30964  31.605  16.651   0.332
60365W        W30965   1.765  35.476  13.375
60366W        W30966  14.607  43.909  12.592
60367W        W30967  24.776  19.050  11.660
60368W        W30968  25.068  28.082   2.414
60369W        W30969   9.575  28.679  11.675
60370W        W30970  34.019  35.848  12.536
60371W        W30971  34.182   9.626  14.841
60372W        W30972  14.026   0.544   1.239
60373W        W30973  23.890  23.085   1.795
60374W        W30974  15.325   5.394  11.062
60375W        W30975   2.018   7.122  11.252
60376W        W30976  16.449  35.122   1.353
60377W        W30977  24.568  30.026  12.955
60378W        W30978  39.903  18.537  13.249
60379W        W30979  28.988   2.519   1.809
60380W        W30980  34.942  19.725   2.390
60381W        W30981  13.369  39.985   0.949
60382W        W30982  13.458   9.811   1.754
60383W        W30983  42.820  35.703  12.855
60384W        W30984  15.482  21.278   0.653
60385W        W30985   5.343   4.493   2.804
60386W        W30986  16.174  20.813  13.082
60387W        W30987  33.513  33.984   0.746
60388W        W30988  27.862   1.576  11.157
60389W        W30989  37.678  44.289   2.048
60390W        W30990  34.044   6.371  14.981
60391W        W30991  35.759  44.032  13.785
60392W        W30992  38.390   7.235   5.073
60393W        W30993  14.798  16.582  12.603
60394W        W30994  30.076  27.011   2.704
60395W        W30995  21.508  39.419   1.209
60396W        W30996  18.533  22.174   4.268
60397W        W30997  39.008  17.090  12.215
60398W        W30998  26.952  43.436   2.700
60399W        W30999  26.380  39.317  11.165
60400W        W31000  19.691  38.764  11.616
60401W        W31001   2.870   7.735  11.414
60402W        W31002  37.565  32.924   3.153
60403W        W31003  13.814  32.633   0.814
60404W        W31004  28.170  19.328  10.366
60405W        W31005  37.452  42.276  13.833
60406W        W31006   0.487  41.065  10.738
60407W        W31007  41.388   2.618   1.818
60408W        W31008  44.970  25.003  11.812
60409W        W31009  25.166  39.437   4.461
60410W        W31010  42.425   4.418   1.289
60411W        W31011  39.886  25.974  11.987
60412W        W31012  13.205   4.264   4.705
60413W        W31013  31.192  33.615  11.818
60414W        W31014  33.417  35.314  14.462
60415W        W31015   7.374   8.173   1.179
60416W        W31016   6.935  20.793  11.660
60417W        W31017  19.039  43.892   4.319
60418W        W31018  40.615  36.706   0.769
60419W        W31019  16.313  30.639   5.014
60420W        W31020  21.775   4.809   4.537
60421W        W31021   2.357  34.984   0.990
60422W        W31022  27.551  35.063   4.379
60423W        W31023  16.627  23.349   0.244
60424W        W31024  36.911  25.934  10.494
60425W        W31025  37.979  40.609   4.459
60426W        W31026   2.608  37.532  11.970
60427W        W31027  14.690  30.549   2.686
60428W        W31028  33.446   9.823  12.847
60429W        W31029  38.340  37.477   0.985
60430W        W31030  40.820  34.525   1.323
60431W        W31031  18.003   8.846  13.474
60432W        W31032  44.331   1.718   2.307
60433W        W31033  28.005  44.396  11.407
60434W        W31034  42.467  27.129  11.973
60435W        W31035  44.333  11.363  10.490
60436W        W31036  12.106  31.845  12.058
60437W        W31037  41.533   0.860   3.179
60438W        W31038  18.104  24.742  11.617
60439W        W31039  36.612  11.771   1.719
60440W        W31040   3.472   5.647  11.496
60441W        W31041  25.227  26.439  14.628
60442W        W31042   7.971  16.340   1.798
60443W        W31043   8.742  28.133  11.609
60444W        W31044   8.762   4.914   3.533
60445W        W31045  37.304  38.018  14.800
60446W        W31046   3.313  11.941  13.793
60447W        W31047  26.544   6.220  14.056
60448W        W31048  40.856   3.342  13.378
60449W        W31049   2.392  21.780  14.716
60450W        W31050   9.709  36.868   1.903
60451W        W31051  13.686  15.125  13.394
60452W        W31052   7.202  32.081   0.901
60453W        W31053  23.521  40.073   0.250
60454W        W31054   7.620  12.975   1.087
60455W        W31055  40.310  29.720  10.643
60456W        W31056   7.433  17.617  13.600
60457W        W31057   5.717   0.288  13.830
60458W        W31058  22.227   3.886   4.585
60459W        W31059  20.761  34.484  13.499
60460W        W31060   7.232  19.212   3.812
60461W        W31061   4.678   5.298   1.975
60462W        W31062   5.742  21.192  12.629
60463W        W31063   5.799  32.961   0.385
60464W        W31064  21.960   5.222  11.481
60465W        W31065  18.083  40.278   2.428
60466W        W31066   2.150  20.616   1.201
60467W        W31067   7.212  30.547   2.348
60468W        W31068  12.617  24.175   0.880
60469W        W31069  30.865   7.072  12.951
60470W        W31070  31.901  25.166  13.866
60471W        W31071   0.482  18.144   0.742
60472W        W31072  20.731  24.714   3.626
60473W        W31073  17.106   5.330  13.466
60474W        W31074   0.213  10.487  14.317
60475W        W31075  16.847  16.922  11.978
60476W        W31076  13.280  29.637  14.971
60477W        W31077  22.020  41.404  11.690
60478W        W31078   6.194  33.072  14.435
60479W        W31079  35.049   1.796   2.763
60480W        W31080  10.732  32.856   3.358
60481W        W31081  20.048  12.377   3.445
60482W        W31082  12.769   6.881  12.651
60483W        W31083  25.654  23.663   1.695
60484W        W31084   9.808   7.179   0.413
60485W        W31085  33.443   7.114  11.032
60486W        W31086   2.946  37.568  12.359
60487W        W31087  32.366  34.120  12.443
60488W        W31088  17.081  32.558  13.875
60489W        W31089   4.130  37.542  10.086
60490W        W31090  29.158   4.191   3.218
60491W        W31091  17.816  13.883   1.458
60492W        W31092  21.667  13.383  10.695
60493W        W31093  29.645  14.335   3.137
60494W        W31094  19.963  27.695   1.893
60495W        W31095  15.232   1.199   1.802
60496W        W31096  25.546  13.592   1.479
60497W        W31097  29.664   2.662  13.926
60498W        W31098  30.780  24.694   4.271
60499W        W31099  16.624   1.826  13.495
60500W        W31100  18.647   7.911  10.460
60501W        W31101  40.581   0.775  11.928
60502W        W31102  22.569  18.564   3.311
60503W        W31103   8.617   7.133   1.428
60504W        W31104  24.802  32.095   1.784
60505W        W31105  30.852   3.395   0.331
60506W        W31106   6.483  21.213   1.687
60507W        W31107  36.304  37.610   0.189
60508W        W31108   6.353   5.297  11.550
60509W        W31109  13.081   8.907   1.702
60510W        W31110  29.004  19.382  10.931
60511W        W31111  12.075  31.077   2.772
60512W        W31112   1.750   8.389   4.633
60513W        W31113   4.192  10.864   1.343
60514W        W31114   7.663  42.010  11.068
60515W        W31115  44.364   3.729   3.204
60516W        W31116  19.481  33.821  11.636
60517W        W31117   0.034  33.501  11.721
60518W        W31118  19.655  37.929   3.668
60519W        W31119  23.636   5.810   3.978
60520W        W31120  31.544  18.108  10.757
60521W        W31121  43.874  25.713   0.903
60522W        W31122  36.918  19.605   2.739
60523W        W31123  25.641   5.808   4.548
60524W        W31124  28.250   7.885  11.468
60525W        W31125  35.892   8.041   2.678
60526W        W31126  43.657   7.902   9.989
60527W        W31127  26.411  39.055   3.294
60528W        W31128  31.977  16.240  11.421
60529W        W31129  21.077  34.774   3.218
60530W        W31130  39.682  22.893   2.945
60531W        W31131   3.638   1.526  14.767
60532W        W31132  19.600  27.295  14.709
60533W        W31133  10.673  23.996   3.224
60534W        W31134  10.232  21.960  13.848
60535W        W31135  19.116  34.064  10.789
60536W        W31136   9.648  23.191  13.305
60537W        W31137  14.325  36.891   2.187
60538W        W31138  32.566  19.815  12.416
60539W        W31139  33.552  22.741   3.333
60540W        W31140  11.218  30.546  14.324
60541W        W31141  41.126  27.723   3.663
60542W        W31142  11.077  29.457   3.900
60543W        W31143   9.306   2.668  12.525
60544W        W31144  27.443  44.407   4.321
60545W        W31145  26.903  30.056   3.751
60546W        W31146  11.424  19.744  11.130
60547W        W31147  21.203  15.875  14.103
60548W        W31148  44.252  12.326   3.243
60549W        W31149  44.067  12.713  14.341
60550W        W31150  26.331   4.396   0.530
60551W        W31151  18.243  13.545  11.498
60552W        W31152  34.374  39.351  13.833
60553W        W31153  11.872   9.591   0.843
60554W        W31154   7.854  42.968  12.089
60555W        W31155   0.641  27.656   2.710
60556W        W31156  12.884  40.318  10.358
60557W        W31157  38.035  28.088   4.682
60558W        W31158  40.406  43.518   4.835
60559W        W31159  14.855   0.826   3.588
60560W        W31160   9.730  37.712  10.375
60561W        W31161  20.780  41.893   0.690
60562W        W31162  24.857  21.588  12.985
60563W        W31163   4.647  32.643   3.342
60564W        W31164  23.945   3.039  10.624
60565W        W31165   2.232  23.340   1.127
60566W        W31166  13.723  36.289   4.307
60567W        W31167  23.673   0.946   1.757
60568W        W31168  33.499  38.490  14.452
60569W        W31169   0.536  41.830   2.789
60570W        W31170  21.107  23.790   2.237
60571W        W31171  40.152  18.189   3.797
60572W        W31172  34.181  40.265  13.897
60573W        W31173  31.752  10.549  11.525
60574W        W31174  28.035  26.652  12.906
60575W        W31175  20.331  36.401  12.593
60576W        W31176  10.580  35.691   4.448
60577W        W31177  25.021  25.196   4.281
60578W        W31178   4.228  18.236   5.172
60579W        W31179  15.860  39.126  13.849
60580W        W31180  27.866  43.093  10.009
60581W        W31181  37.295  20.523  11.110
60582W        W31182  22.816  33.792  10.073
60583W        W31183   9.079   6.257  12.431
60584W        W31184  21.286  20.079   4.137
60585W        W31185  20.848  35.530  11.567
60586W        W31186  29.381  29.663   2.299
60587W        W31187   5.042  26.987   3.815
60588W        W31188  13.226  26.627   2.375
60589W        W31189  42.245  22.257   3.689
60590W        W31190  32.157  19.313   3.198
60591W        W31191  12.728  27.805   0.926
60592W        W31192   5.162   9.333   2.831
60593W        W31193  15.742  12.372   9.768
60594W        W31194  39.857   5.259   2.277
60595W        W31195  27.740   3.313   4.623
60596W        W31196  18.634   8.284   1.175
60597W        W31197   1.024  23.581   3.426
60598W        W31198  33.438  38.002  13.241
60599W        W31199   3.864  18.753   2.376
60600W        W31200   3.980  35.498  12.875
60601W        W31201  44.856  13.065  12.909
60602W        W31202  24.276  40.836  11.176
60603W        W31203  35.403  31.592  14.290
60604W        W31204  43.680  25.595  12.126
60605W        W31205   9.862  26.463   3.737
60606W        W31206  12.010  33.961  13.425
60607W        W31207  39.969  21.292   1.413
60608W        W31208   9.161   1.753   0.906
60609W        W31209  20.666  10.383   3.688
60610W        W31210  18.521  38.365   4.607
60611W        W31211  33.078  18.288  12.437
60612W        W31212  22.807  14.889   2.843
60613W        W31213  32.655   2.146   4.628
60614W        W31214  38.795  35.944   2.782
60615W        W31215  12.156  42.746   0.005
60616W        W31216  21.850   2.144   1.363
60617W        W31217  39.957   7.934   0.774
60618W        W31218  42.673  24.531  12.356
60619W        W31219  33.668  24.166   1.775
60620W        W31220   1.568  18.232  12.361
60621W        W31221   4.981  39.571  11.169
60622W        W31222   8.218  21.187  10.786
60623W        W31223  31.516   9.603   1.734
60624W        W31224  11.323   2.969  11.966
60625W        W31225  38.159  17.609   4.224
60626W        W31226  16.131   9.159  10.550
60627W        W31227  40.298  41.086   1.190
60628W        W31228   4.948  29.990   1.866
60629W        W31229   1.441  17.627   1.607
60630W        W31230  40.944   4.880  12.484
60631W        W31231  21.332  38.410  12.437
60632W        W31232  26.367  24.022  14.559
60633W        W31233  15.922  19.229   0.374
60634W        W31234   3.784  27.092   2.252
60635W        W31235   3.471  31.078   0.977
60636W        W31236   7.635  23.643   0.934
60637W        W31237  41.207  37.761   2.716
60638W        W31238  23.555  14.194  13.381
60639W        W31239  18.087  12.866  10.976
60640W        W31240   8.722  14.703   4.324
60641W        W31241  34.550  39.042   0.554
60642W        W31242   5.114  27.556  12.300
60643W        W31243  35.355   8.794   1.267
60644W        W31244  18.539  42.936  11.110
60645W        W31245  20.654  19.547  12.886
60646W        W31246  19.308  32.163  13.359
60647W        W31247  10.837   5.406   3.745
60648W        W31248  16.082  18.932   3.699
60649W        W31249  37.867  27.462  12.423
60650W        W31250  14.769  26.879  11.132
60651W        W31251  31.921  25.503  13.449
60652W        W31252  10.818  24.706   3.859
60653W        W31253   1.825   9.710  12.539
60654W        W31254  24.487  23.594   3.252
60655W        W31255  19.525  16.411  14.874
60656W        W31256   6.487  43.952  13.314
60657W        W31257  17.202  14.089   1.485
60658W        W31258  14.730  36.522  11.735
60659W        W31259  28.160  20.407   2.879
60660W        W31260  33.530  39.361  14.987
60661W        W31261  19.053  11.787   3.133
60662W        W31262   2.202  34.119   2.314
60663W        W31263   7.951   5.729   3.612
60664W        W31264  33.802   1.265   0.380
60665W        W31265  31.574   9.675   4.545
60666W        W31266  41.956  10.905   2.213
60667W        W31267   4.111  15.636   1.378
60668W        W31268  30.594  28.565   1.408
60669W        W31269  39.884  34.645   3.922
60670W        W31270  19.147  11.239   3.785
60671W        W31271  19.035  34.675  12.073
60672W        W31272   4.755  41.785   3.222
60673W        W31273  41.224  32.752  13.603
60674W        W31274  39.394  12.037  14.961
60675W        W31275  43.119  24.070  13.631
60676W        W31276   9.318   8.731  13.849
60677W        W31277  15.322  22.619   1.575
60678W        W31278  34.052  37.790  13.958
60679W        W31279  29.075  29.731  12.428
60680W        W31280   7.720  32.325   3.651
60681W        W31281  11.657  16.150  13.973
60682W        W31282  19.033  36.987  12.608
60683W        W31283  23.350  40.298  12.981
60684W        W31284   2.374  31.710  14.660
60685W        W31285  22.747  28.639  10.340
60686W        W31286  40.170  14.113  11.869
60687W        W31287   2.978  19.104  14.705
60688W        W31288  30.992  13.773   0.805
60689W        W31289  38.613  21.098   3.161
60690W        W31290  32.673  19.207   2.300
60691W        W31291  28.973  35.813  11.386
60692W        W31292   7.212  22.673   5.077
60693W        W31293  14.836  33.407   2.183
60694W        W31294  20.258  17.203   4.653
60695W        W31295  14.900  39.471   3.295
60696W        W31296  22.553   3.865   1.443
60697W        W31297   9.114  25.216  12.122
60698W        W31298  10.143  29.200   4.921
60699W        W31299  29.566  14.149   1.343
60700W        W31300  27.653   4.737  13.550
60701W        W31301   2.807  24.667  13.828
60702W        W31302  41.889  24.290  13.940
60703W        W31303   3.515   8.371  11.797
60704W        W31304  25.972  28.125   3.708
60705W        W31305  42.422   5.723   3.051
60706W        W31306   1.664  41.568   4.353
60707W        W31307  18.486   1.450  11.556
60708W        W31308  15.270  38.582  14.400
60709W        W31309  21.039   5.364   4.970
60710W        W31310  28.489  26.534  13.891
60711W        W31311   8.317  23.407  14.016
60712W        W31312  42.954  40.320  10.793
60713W        W31313  14.865   5.124  12.413
60714W        W31314  39.177  19.740  10.740
60715W        W31315  35.492   0.471  13.295
60716W        W31316  38.059  21.592  14.371
60717W        W31317  17.936   4.450  14.967
60718W        W31318  25.664  34.384  13.992
60719W        W31319  37.941  23.901  12.424
60720W        W31320  36.518  22.109  12.445
60721W        W31321  14.688  29.267   2.286
60722W        W31322  24.004  25.494  14.893
60723W        W31323   6.710  21.619   1.953
60724W        W31324   4.411  41.560  12.806
60725W        W31325  30.969  25.491   2.828
60726W        W31326  18.182  37.853  11.887
60727W        W31327  42.936   9.866  12.051
60728W        W31328  36.639  25.068  10.722
60729W        W31329  16.869  15.291  14.186
60730W        W31330  29.539  16.362   0.418
60731W        W31331  18.025  28.650   1.260
60732W        W31332  18.729   8.006   2.418
60733W        W31333  31.241   6.812  13.373
60734W        W31334  43.779  13.502  12.132
60735W        W31335  30.206  40.309   2.694
60736W        W31336  39.295  17.963  10.893
60737W        W31337  10.211  11.426   1.211
60738W        W31338  14.533  39.020   2.175
60739W        W31339  11.287   1.521   4.830
60740W        W31340   9.728  20.887  11.120
60741W        W31341   3.945  39.540  10.948
60742W        W31342   9.973  44.422   3.092
60743W        W31343  24.842  37.490   3.663
60744W        W31344  16.941  26.001  14.410
60745W        W31345  16.508  44.749   2.152
60746W        W31346   9.625  32.430   3.171
60747W        W31347  35.376  42.690  14.305
60748W        W31348  20.700   0.427  11.186
60749W        W31349  10.372   9.215   1.210
60750W        W31350  40.719  24.723  11.540
60751W        W31351   8.707  43.534   1.024
60752W        W31352   3.316  23.776  13.856
60753W        W31353  25.642  19.977  12.719
60754W        W31354  39.133  15.177   9.961
60755W        W31355  39.044  42.426  14.566
60756W        W31356  27.145  26.769   0.750
60757W        W31357  42.405   9.803   3.701
60758W        W31358  34.932   2.461  14.487
60759W        W31359   7.391  21.760   0.865
60760W        W31360  16.800  43.009   0.251
60761W        W31361  14.099  26.567  13.051
60762W        W31362  43.518  36.462   4.557
60763W        W31363  28.931  37.303   3.966
60764W        W31364  33.865  19.726   4.598
60765W        W31365  20.690  41.518  12.942
60766W        W31366  23.776  39.372  14.537
60767W        W31367  10.641   6.875   2.283
60768W        W31368  21.593  19.698   2.581
60769W        W31369  36.259  38.614   4.507
60770W        W31370   4.746  30.215   1.406
60771W        W31371   6.097  44.798   0.369
60772W        W31372  12.658   1.833   0.515
60773W        W31373  31.796  14.680   3.707
60774W        W31374  21.067  15.078  14.725
60775W        W31375   3.945   8.732  11.222
60776W        W31376  19.184  14.313   2.283
60777W        W31377  11.321  25.097   3.983
60778W        W31378  40.427   1.246  13.400
60779W        W31379  27.697  28.696   0.199
60780W        W31380  10.848  14.206  12.980
60781W        W31381  30.627  11.615  11.556
60782W        W31382  42.823  27.607  14.216
60783W        W31383   0.403  30.445  14.536
60784W        W31384  15.880   9.289  11.126
60785W        W31385  12.631  27.611   0.470
60786W        W31386  39.331   5.339   2.429
60787W        W31387  34.848  28.828  12.958
60788W        W31388   8.312  41.167  14.412
60789W        W31389  40.460  24.206  14.722
60790W        W31390  31.950  22.138   3.181
60791W        W31391  29.013  17.070  11.029
60792W        W31392   1.495  23.586   2.299
60793W        W31393  27.852  33.251   3.295
60794W        W31394  25.711  23.129   4.837
60795W        W31395  37.062  17.058  14.526
60796W        W31396  44.522  20.286   0.877
60797W        W31397  30.138  10.288   1.779
60798W        W31398  15.585  32.455   4.721
60799W        W31399  39.596  37.904   0.864
60800W        W31400  33.541  17.471  12.247
60801W        W31401  22.725  22.994   3.670
60802W        W31402  10.244  41.370  10.701
60803W        W31403  37.800  36.673   0.881
60804W        W31404   6.136   7.770  10.191
60805W        W31405  32.357   7.556  11.914
60806W        W31406  23.128   4.365   2.020
60807W        W31407   4.528  41.963   3.756
60808W        W31408  21.446   7.776  12.901
60809W        W31409  33.661   2.127  14.815
60810W        W31410  17.441   8.839   4.269
60811W        W31411  14.160  39.385  11.160
60812W        W31412  22.435  18.821   4.723
60813W        W31413  17.150  30.961  14.624
60814W        W31414  40.885   4.316  13.765
60815W        W31415  34.070  23.500  13.649
60816W        W31416   8.382  22.294   2.238
60817W        W31417  36.345  42.261  11.133
60818W        W31418  23.503   4.396  10.693
60819W        W31419  42.960   1.167  14.067
60820W        W31420  27.009  23.232  14.676
60821W        W31421   0.252  42.241   2.560
60822W        W31422  39.265  40.819   0.240
60823W        W31423  27.507   6.394  10.730
60824W        W31424   1.569   7.422   1.329
60825W        W31425   7.736   0.597   2.230
60826W        W31426   5.868  21.964   4.276
60827W        W31427  27.549  26.897  12.116
60828W        W31428  34.827  12.042   0.040
60829W        W31429  38.488  27.282   1.346
60830W        W31430  39.566  29.204   1.376
60831W        W31431  35.345  37.364  12.917
60832W        W31432  32.078  36.284  14.392
60833W        W31433  15.285  28.909   1.805
60834W        W31434   4.736   9.950   3.145
60835W        W31435   2.456  40.476   0.517
60836W        W31436  18.864  41.341   4.820
60837W        W31437  23.766  38.246  12.141
60838W        W31438  10.472   0.774  10.343
60839W        W31439  33.725  36.865   2.780
60840W        W31440  44.882  40.811   1.648
60841W        W31441  34.843   1.982  14.293
60842W        W31442  42.864  24.129  12.607
60843W        W31443  43.962   5.984   3.783
60844W        W31444  30.005  17.004  12.464
60845W        W31445  13.168  20.254   1.407
60846W        W31446  32.140  12.099   3.667
60847W        W31447  32.461   5.234   0.469
60848W        W31448  17.170  27.962   1.374
60849W        W31449  15.138   2.243  11.173
60850W        W31450  30.910  26.588  13.485
60851W        W31451   2.746   8.802   4.066
60852W        W31452   5.461  43.067  13.422
60853W        W31453   7.859   0.049   1.180
60854W        W31454  44.667  36.913   2.784
60855W        W31455   0.275  13.927  13.840
60856W        W31456  31.407  29.670   4.307
60857W        W31457  38.243   1.004   1.441
60858W        W31458   6.892   7.634  10.673
60859W        W31459  29.379  42.066   0.637
60860W        W31460  14.673  27.328  10.756
60861W        W31461  16.599  27.415   3.214
60862W        W31462   9.942  24.514  12.655
60863W        W31463   1.708  31.958  14.493
60864W        W31464  23.158  43.422   5.130
60865W        W31465  21.458   7.796   0.525
60866W        W31466  37.453   5.266  10.507
60867W        W31467  42.111  34.648   0.760
60868W        W31468  37.509  32.427   1.843
60869W        W31469  12.347  36.555   4.216
60870W        W31470  41.115  31.229  13.046
60871W        W31471  36.037   3.535  12.647
60872W        W31472  43.414  21.997  12.890
60873W        W31473  30.837  31.410  11.029
60874W        W31474  30.679  17.054   0.958
60875W        W31475  43.325  18.192  14.496
60876W        W31476  26.243  17.764  14.443
60877W        W31477  13.696  23.203   4.995
60878W        W31478   6.917  16.815   0.190
60879W        W31479   2.830   0.310   1.048
60880W        W31480  26.485  28.439   1.078
60881W        W31481  10.285  19.781  12.182
60882W        W31482  26.060  31.511  10.579
60883W        W31483  44.222  15.266  12.989
60884W        W31484  14.546  24.239   0.699
60885W        W31485   2.397   9.355  14.046
60886W        W31486  34.921  34.658   4.192
60887W        W31487  37.741  22.515   1.782
60888W        W31488  42.833   7.009   1.315
60889W        W31489  25.227  12.618  11.692
60890W        W31490  12.180   2.846   3.739
60891W        W31491  23.742  31.987  13.735
60892W        W31492  19.978  44.505   2.855
60893W        W31493  31.784  15.265  11.133
60894W        W31494  31.729  25.699   4.233
60895W        W31495  22.063  33.671   0.925
60896W        W31496  32.580   9.816  11.996
60897W        W31497   1.691   0.364  12.484
60898W        W31498  37.843  34.808   4.526
60899W        W31499  26.492  40.128   2.888
60900W        W31500  11.385  37.445   4.514
60901W        W31501  29.600  24.494  10.910
60902W        W31502  42.612  14.112   1.646
60903W        W31503  29.599  24.774   1.262
60904W        W31504   9.887  11.596  11.250
60905W        W31505  37.423  13.069  12.614
60906W        W31506  33.545   3.813  11.580
60907W        W31507  14.561  25.441   1.871
60908W        W31508  31.546  42.175  14.786
60909W        W31509  12.523  40.190   3.672
60910W        W31510  42.825  13.065  12.041
60911W        W31511  20.511  18.286   2.863
60912W        W31512  12.721  31.025  14.369
60913W        W31513  43.748  15.678  13.307
60914W        W31514  26.443  34.797  10.817
60915W        W31515   8.220  29.652   1.961
60916W        W31516  21.669   7.407  14.321
60917W        W31517  14.363  44.354   2.172
60918W        W31518  21.277  16.895  13.376
60919W        W31519  25.931  32.339   4.247
60920W        W31520  15.194  13.718   0.799
60921W        W31521  42.784  15.862   4.565
60922W        W31522   7.563  32.278   0.283
60923W        W31523  22.912  33.364  10.326
60924W        W31524   8.621  20.540   2.116
60925W        W31525  24.840  36.044   0.950
60926W        W31526   7.390  41.265   3.702
60927W        W31527   9.720  39.404   0.019
60928W        W31528  10.875  23.467  11.151
60929W        W31529   6.207   4.329  13.855
60930W        W31530  36.070  34.539   1.797
60931W        W31531   2.787  29.022  14.453
60932W        W31532  15.632  16.359  10.146
60933W        W31533  26.845   2.173   2.638
60934W        W31534  15.836  34.435   0.194
60935W        W31535  28.057  38.827  11.481
60936W        W31536   5.394  23.590   4.674
60937W        W31537  11.096   9.178  12.995
60938W        W31538  26.885  30.637   4.402
60939W        W31539  23.956  14.732   4.614
60940W        W31540  38.795  41.296  13.530
60941W        W31541  37.879  31.561   0.268
60942W        W31542   8.980  34.481   1.987
60943W        W31543   8.729   8.689   0.333
60944W        W31544  26.820  31.996  14.024
60945W        W31545  41.468   5.978   3.310
60946W        W31546  14.151  16.859   3.274
60947W        W31547   0.935  30.599  12.939
60948W        W31548   0.335  33.754  10.755
60949W        W31549  32.908  18.584  11.507
60950W        W31550  29.723  14.561  10.752
60951W        W31551  29.375  22.301   1.369
60952W        W31552  38.505  39.931   2.103
60953W        W31553  15.827  35.119   2.363
60954W        W31554   5.905  25.278  14.512
60955W        W31555  20.599  25.142  10.739
60956W        W31556  42.729  18.323  11.932
60957W        W31557   1.398  24.080   0.396
60958W        W31558   8.801  40.884   3.949
60959W        W31559  16.112  39.880   0.748
60960W        W31560  23.304  24.137  13.810
60961W        W31561  41.730  28.551   4.211
60962W        W31562  27.654  37.506  10.409
60963W        W31563  21.787  38.990   1.230
60964W        W31564  31.021  26.971   2.793
60965W        W31565  40.191  17.823  13.891
60966W        W31566  15.614  31.145   0.989
60967W        W31567  30.949  23.613   4.919
60968W        W31568  39.585  26.526  14.209
60969W        W31569  21.675  44.670  14.896
60970W        W31570  36.587  14.506  14.543
60971W        W31571   5.765  27.406  13.964
60972W        W31572  30.885  10.638   1.415
60973W        W31573  23.453   7.166   0.010
60974W        W31574  10.056   1.442   0.769
60975W        W31575  27.664   8.778  12.119
60976W        W31576   7.723  20.523  12.370
60977W        W31577  27.922   7.323   3.783
60978W        W31578  30.711  24.365  12.132
60979W        W31579   3.295  22.491  14.551
60980W        W31580  29.656  23.440   4.297
60981W        W31581   5.102  43.268  13.102
60982W        W31582  41.369   9.633   1.843
60983W        W31583  34.125  14.196   4.125
60984W        W31584  25.297  34.314   4.519
60985W        W31585   8.237   6.856   4.523
60986W        W31586  12.213   8.072  14.287
60987W        W31587   8.438  27.298   2.008
60988W        W31588  36.397  39.804   4.566
60989W        W31589  36.937  14.259  10.229
60990W        W31590  31.956  41.899   3.251
60991W        W31591  30.365  41.439   2.538
60992W        W31592   9.128  37.531  13.024
60993W        W31593  33.823   1.773   4.178
60994W        W31594  21.945  15.167  10.714
60995W        W31595  34.425  10.379   2.807
60996W        W31596  11.212  31.361   2.387
60997W        W31597  35.715  43.948  12.988
60998W        W31598  38.577   9.652   0.286
60999W        W31599  25.548  34.550   1.618
61000W        W31600  22.181  26.587   4.156
61001W        W31601   8.326   6.637  14.350
61002W        W31602  14.443  11.861   1.950
61003W        W31603  19.106   5.827   1.745
61004W        W31604  43.142  31.611  11.266
61005W        W31605  10.755  17.873   4.199
61006W        W31606  29.954  29.904  10.781
61007W        W31607  40.943  27.557  13.874
61008W        W31608  14.499  26.881   2.429
61009W        W31609  18.415   2.044   5.025
61010W        W31610  19.775  41.580  14.165
61011W        W31611  10.159   5.783  14.308
61012W        W31612  36.436  11.578   0.254
61013W        W31613  44.441  23.684  12.594
61014W        W31614  39.846  11.327   4.299
61015W        W31615   8.391  22.228  12.958
61016W        W31616  36.584  44.284   2.891
61017W        W31617  33.961   7.911  12.902
61018W        W31618   6.988  22.745   3.742
61019W        W31619  12.413  17.661   0.323
61020W        W31620   7.155  44.798   1.800
61021W        W31621  21.488  35.056   2.966
61022W        W31622  36.929  13.047  14.319
61023W        W31623   8.494  44.325  11.394
61024W        W31624   4.462   1.220   0.208
61025W        W31625  27.007   5.953  13.533
61026W        W31626  23.036  33.544  11.320
61027W        W31627   0.846  31.418   4.896
61028W        W31628  21.181  26.577  10.122
61029W        W31629  12.928   1.953   1.402
61030W        W31630  16.808  34.339   0.461
61031W        W31631  44.003  37.746  12.905
61032W        W31632  31.421  32.617  10.692
61033W        W31633   1.215  41.591  13.019
61034W        W31634  34.815  34.454  12.904
61035W        W31635  25.638   3.863   3.760
61036W        W31636  16.690   5.491  14.954
61037W        W31637   1.011  35.094  11.995
61038W        W31638  39.473  42.466  11.901
61039W        W31639  21.708  18.113  10.491
61040W        W31640  19.818  10.625  14.876
61041W        W31641  38.919  33.639   5.305
61042W        W31642  35.424   4.365  13.502
61043W        W31643  36.097   4.714  14.387
61044W        W31644   1.760  22.617   4.405
61045W        W31645  27.661   4.469   1.047
61046W        W31646  35.980  22.664   4.103
61047W        W31647  33.788  23.665  10.703
61048W        W31648  27.498   1.404  14.014
61049W        W31649   7.812   0.817  13.532
61050W        W31650   5.153  33.628   1.845
61051W        W31651  40.022   9.919  11.304
61052W        W31652  31.816  43.265   2.307
61053W        W31653  12.623  40.568   3.327
61054W        W31654  31.580  42.351   0.717
61055W        W31655   1.412  14.541  10.694
61056W        W31656   0.235  11.143  10.702
61057W        W31657  40.003  16.881  10.249
61058W        W31658  23.746  18.055   2.405
61059W        W31659  19.291  42.462   1.726
61060W        W31660   5.230  30.867  10.508
61061W        W31661  13.199   5.988   2.414
61062W        W31662  15.669  17.383   1.737
61063W        W31663   0.851  34.126  13.789
61064W        W31664  16.203  24.156  11.168
61065W        W31665   8.134   2.238  13.524
61066W        W31666  10.641  19.583  11.808
61067W        W31667  38.384  41.055  13.317
61068W        W31668  25.886  44.296   4.198
61069W        W31669  21.060  34.497  12.215
61070W        W31670  16.055  10.686  11.906
61071W        W31671   7.963  39.883  14.401
61072W        W31672  10.966  22.697   0.469
61073W        W31673  44.912  25.538   4.260
61074W        W31674  27.198  23.637  13.789
61075W        W31675   0.778   9.276  10.664
61076W        W31676  24.515  19.684  10.691
61077W        W31677  40.220   8.784   4.510
61078W        W31678  13.672   9.283   4.901
61079W        W31679  12.665  13.693  13.137
61080W        W31680   0.935  21.585  14.243
61081W        W31681  35.427  40.016  14.757
61082W        W31682  40.866  31.646  13.333
61083W        W31683  37.320  32.402   0.436
61084W        W31684  43.261   6.616   0.432
61085W        W31685  14.319  26.114   0.961
61086W        W31686  33.062  33.941  12.962
61087W        W31687  18.319  41.986   0.931
61088W        W31688  12.639  42.352   0.486
61089W        W31689  16.074  37.233  10.173
61090W        W31690  31.208  20.133  14.719
61091W        W31691  43.260   3.320  13.252
61092W        W31692   9.982  23.693   9.861
61093W        W31693  26.547  33.466  10.670
61094W        W31694  23.742  13.949  12.951
61095W        W31695   3.719  43.677   3.725
61096W        W31696  21.555   5.461  13.294
61097W        W31697  44.603  21.201  14.582
61098W        W31698  42.573   3.452  10.739
61099W        W31699   2.265  33.103  12.508
61100W        W31700  33.501  20.273   0.401
61101W        W31701  34.368   7.843  10.905
61102W        W31702  20.082  32.880  14.127
61103W        W31703  34.985  13.593  14.912
61104W        W31704  10.799  39.954   0.532
61105W        W31705  34.028  15.026   1.918
61106W        W31706  25.087  26.653  10.780
61107W        W31707  30.129  12.610  11.582
61108W        W31708  31.986  42.739   2.203
61109W        W31709  28.538  35.344   3.750
61110W        W31710  35.043  22.569   2.139
61111W        W31711   2.995  20.713  13.592
61112W        W31712   7.878  17.944   1.885
61113W        W31713   3.724  22.568   1.374
61114W        W31714  44.453  32.170  12.918
61115W        W31715  26.988  28.955   4.080
61116W        W31716  38.236  31.205   0.335
61117W        W31717  40.078  37.257   1.380
61118W        W31718  31.588  31.433  12.999
61119W        W31719   3.669  15.335   0.803
61120W        W31720  31.771  21.233   4.118
61121W        W31721  10.335   6.683   1.429
61122W        W31722  12.611  21.567  13.408
61123W        W31723  28.708  24.919  14.339
61124W        W31724   2.758   7.632   0.970
61125W        W31725  41.662  34.988   0.862
61126W        W31726  15.233  33.317   3.695
61127W        W31727  44.719  32.097  10.572
61128W        W31728  44.753  38.587  14.428
61129W        W31729  41.292  43.756   0.830
61130W        W31730  31.390   2.235   1.921
61131W        W31731  35.982  17.021   1.721
61132W        W31732  16.187  16.653   4.845
61133W        W31733  31.434  44.889   4.625
61134W        W31734  28.653   1.089   2.268
61135W        W31735   5.164  24.118  13.543
61136W        W31736  18.423   9.818   4.012
61137W        W31737   1.090  30.059  14.028
61138W        W31738  30.116  38.000   2.681
61139W        W31739  15.235   3.696   4.155
61140W        W31740  38.990  22.749  11.038
61141W        W31741  33.815  36.900  12.432
61142W        W31742   1.332   9.814   4.698
61143W        W31743  16.383   8.062  13.460
61144W        W31744   9.094   9.265   0.078
61145W        W31745  14.016  39.073   0.095
61146W        W31746  33.622  37.439   4.016
61147W        W31747  14.696  16.336  10.731
61148W        W31748  32.787  18.205  13.967
61149W        W31749  42.771   2.515   0.712
61150W        W31750   3.734  41.925  11.297
61151W        W31751  31.124  32.054  13.060
61152W        W31752  41.471  34.853   2.297
61153W        W31753   4.414  11.497  10.471
61154W        W31754  44.520   9.243   4.176
61155W        W31755  20.291  12.300  12.363
61156W        W31756  12.532  26.614  10.382
61157W        W31757  35.441  11.082   4.173
61158W        W31758  12.818  23.137   1.716
61159W        W31759  10.379  37.583   4.955
61160W        W31760  28.444   8.186  10.945
61161W        W31761  12.482  40.058  13.328
61162W        W31762   6.876  25.017  12.911
61163W        W31763  18.667  31.953   3.395
61164W        W31764  20.633  20.960   3.617
61165W        W31765  20.264  14.606   0.654
61166W        W31766  18.219  29.730  13.480
61167W        W31767  21.579  44.255  13.476
61168W        W31768  42.605  34.593  12.332
61169W        W31769   3.266  38.376   4.203
61170W        W31770  21.086  26.186  12.477
61171W        W31771  42.925   4.166  10.351
61172W        W31772  16.748  17.340   4.668
61173W        W31773  30.130  30.408  11.562
61174W        W31774   1.229  38.643  14.921
61175W        W31775  16.292  36.332  11.080
61176W        W31776  43.740  25.624   4.446
61177W        W31777  14.374  22.795   1.304
61178W        W31778   3.861   3.926   3.126
61179W        W31779   3.785  13.282   4.096
61180W        W31780  25.426  14.641  13.488
61181W        W31781  19.479  35.058   1.220
61182W        W31782  35.517   6.581  14.188
61183W        W31783  18.120  25.245  11.526
61184W        W31784  27.410   5.915   4.156
61185W        W31785   8.893  28.407  11.147
61186W        W31786  24.801   0.442  10.430
61187W        W31787  17.639   2.695  14.970
61188W        W31788  22.181  29.575   2.755
61189W        W31789  22.127   8.897  12.166
61190W        W31790  16.184  44.398   1.375
61191W        W31791   5.256   1.324  10.725
61192W        W31792  39.805  42.714  11.135
61193W        W31793   1.493  36.211  13.967
61194W        W31794  22.533   3.156  13.563
61195W        W31795  40.200  37.087  11.134
61196W        W31796  10.807  15.324   1.830
61197W        W31797  21.996   5.380   0.936
61198W        W31798  18.753  19.719  11.359
61199W        W31799  31.639  14.283   2.854
61200W        W31800  33.137   4.301  12.977
61201W        W31801  15.104  16.303   2.408
61202W        W31802  26.932  34.211  13.013
61203W        W31803  39.257  29.453   3.657
61204W        W31804   1.715   3.843  11.560
61205W        W31805  37.244  30.667  13.618
61206W        W31806  11.807  31.428  10.534
61207W        W31807  13.721  42.867  13.071
61208W        W31808  24.539  42.931  12.692
61209W        W31809  41.806  22.642   0.912
61210W        W31810  31.418  27.622   3.751
61211W        W31811  43.797  15.088   4.678
61212W        W31812   7.440  40.517   4.086
61213W        W31813  21.283  11.212  13.113
61214W        W31814  28.384  17.249   0.702
61215W        W31815  11.361   9.633  13.816
61216W        W31816  28.480  25.134  14.792
61217W        W31817   7.648  10.280  13.526
61218W        W31818  34.665  25.132  11.555
61219W        W31819  17.203  10.268  14.457
61220W        W31820  38.889  37.333   3.207
61221W        W31821  21.570  20.221  11.603
61222W        W31822  20.504  34.426   2.577
61223W        W31823  33.944   7.064   3.934
61224W        W31824  17.102  22.612  12.305
61225W        W31825   5.408  44.242   4.086
61226W        W31826  18.271  10.001   0.538
61227W        W31827  39.449  43.169   1.795
61228W        W31828  17.097  37.263   0.448
61229W        W31829  20.075  30.922   4.604
61230W        W31830  34.374  17.913   4.762
61231W        W31831  29.084  10.164  13.352
61232W        W31832  20.873  25.176  11.932
61233W        W31833  15.636   6.238   1.351
61234W        W31834  29.542  26.108  14.877
61235W        W31835  38.024  29.605   0.836
61236W        W31836  17.533  23.006  14.845
61237W        W31837  29.594  26.156   4.531
61238W        W31838  14.272  44.388   1.650
61239W        W31839  20.003  16.214  14.216
61240W        W31840  13.773  32.806   4.060
61241W        W31841  30.667  29.879   0.938
61242W        W31842  31.088  44.415  10.109
61243W        W31843  16.818  11.046  12.452
61244W        W31844  21.549   1.867  14.349
61245W        W31845  10.168  30.469   1.105
61246W        W31846  12.256   4.360   0.265
61247W        W31847   9.680  21.118   0.493
61248W        W31848  27.438  30.719   2.704
61249W        W31849  31.643   9.334   3.275
61250W        W31850  24.812   4.148  11.954
61251W        W31851  17.687  15.563   0.465
61252W        W31852   0.380  32.378   4.114
61253W        W31853  26.862  14.698  13.363
61254W        W31854  37.438  23.666   1.135
61255W        W31855  39.471  10.152   2.214
61256W        W31856  16.816   6.193   3.702
61257W        W31857  10.045  21.790   4.204
61258W        W31858  38.403  32.677   3.174
61259W        W31859   7.227  26.144  13.272
61260W        W31860  29.205  39.416   4.600
61261W        W31861  43.753  38.106   2.845
61262W        W31862   0.772  11.454  12.368
61263W        W31863  40.379  13.310   0.925
61264W        W31864  43.656  27.228  14.734
61265W        W31865  14.073  25.585  11.564
61266W        W31866  18.934   0.132   0.067
61267W        W31867  40.629   6.787  14.073
61268W        W31868  38.424  20.152   0.837
61269W        W31869   9.623  29.570  11.219
61270W        W31870  31.870  22.130  11.591
61271W        W31871   6.020  44.983  12.063
61272W        W31872  31.409  29.012  14.896
61273W        W31873  13.687  43.395  14.887
61274W        W31874  41.186  11.599  14.446
61275W        W31875  40.533  43.029   4.609
61276W        W31876  13.640   9.566   1.333
61277W        W31877  20.824   6.752  11.655
61278W        W31878  27.655   0.057   0.507
61279W        W31879  44.992  40.495  11.542
61280W        W31880  16.808  40.014  11.539
61281W        W31881  11.245   1.796   0.729
61282W        W31882   9.114  37.033   1.224
61283W        W31883  32.561  22.041  10.747
61284W        W31884  32.116   1.288   4.179
61285W        W31885  44.751  24.533  14.719
61286W        W31886  42.071   3.187   3.648
61287W        W31887  31.602  26.461  12.948
61288W        W31888  13.199  23.522   1.437
61289W        W31889  34.395  17.956  12.413
61290W        W31890  24.035  14.891  13.206
61291W        W31891   2.499  39.404  14.918
61292W        W31892  16.684   4.379  13.441
61293W        W31893  17.473  11.742   2.767
61294W        W31894  42.369  38.868   1.786
61295W        W31895  15.196  42.043   0.833
61296W        W31896   1.721  25.170   2.687
61297W        W31897  25.459  29.187   3.168
61298W        W31898  18.020  38.061   2.809
61299W        W31899   9.847   1.372   2.130
61300W        W31900  17.350   5.904   3.195
61301W        W31901  17.202  20.271  10.386
61302W        W31902  19.029   3.213   0.255
61303W        W31903   7.598   5.263  10.592
61304W        W31904   5.896   1.616   0.469
61305W        W31905   1.738  20.229  10.523
61306W        W31906   9.602   9.642  12.266
61307W        W31907  19.464   4.290  13.987
61308W        W31908  30.833   7.171   1.722
61309W        W31909  31.419  42.570  11.213
61310W        W31910  12.883  31.996  11.583
61311W        W31911  41.973   5.921   2.781
61312W        W31912   6.282  23.484   2.346
61313W        W31913   4.455  35.043   3.709
61314W        W31914  44.518  37.251   2.326
61315W        W31915  37.002  22.756   2.158
61316W        W31916  31.962  36.362   1.551
61317W        W31917  39.017   3.226   2.777
61318W        W31918  43.033  41.512   0.878
61319W        W31919  41.873  21.749  13.313
61320W        W31920  40.532  15.619   1.096
61321W        W31921   8.754  11.879  13.967
61322W        W31922  43.119  18.654  14.364
61323W        W31923  27.974   4.940  12.516
61324W        W31924  10.803  21.424   4.117
61325W        W31925  36.919  33.470   0.471
61326W        W31926  37.931  19.571   5.086
61327W        W31927  15.852  12.601   2.466
61328W        W31928  31.968  24.579   1.406
61329W        W31929  17.657  36.539  11.625
61330W        W31930  33.480   1.072  11.635
61331W        W31931  28.558  37.323  12.062
61332W        W31932  20.582  36.315  13.055
61333W        W31933  31.325  24.821   4.236
61334W        W31934  20.089  23.174  12.802
61335W        W31935  37.293  34.127   3.745
61336W        W31936  22.780  31.720   1.916
61337W        W31937  38.552   8.608   1.497
61338W        W31938  34.923   6.682   1.327
61339W        W31939  20.612  15.090   1.708
61340W        W31940  13.473  16.139  14.870
61341W        W31941  41.886  24.776   4.498
61342W        W31942  40.387  19.183  13.985
61343W        W31943   8.027  17.805  11.403
61344W        W31944  31.561  10.447   2.250
61345W        W31945  43.984  23.062   3.069
61346W        W31946   9.935  38.291   0.826
61347W        W31947   0.255   9.839   2.505
61348W        W31948  24.035  19.342  10.546
61349W        W31949  27.715  29.972   0.857
61350W        W31950   8.586  18.528  14.916
61351W        W31951  42.909  33.932  13.942
61352W        W31952  40.102  30.581  10.733
61353W        W31953  11.136  42.999  11.003
61354W        W31954  28.967   6.284  11.341
61355W        W31955  17.397   7.725  12.508
61356W        W31956  16.312  37.005  10.568
61357W        W31957   3.734   5.356   1.998
61358W        W31958  22.030  43.349  10.691
61359W        W31959   4.392   9.251  14.979
61360W        W31960  27.621   8.598  13.089
61361W        W31961  20.194  35.392   0.953
61362W        W31962  38.522  40.562   2.930
61363W        W31963  29.399   2.203   1.794
61364W        W31964  34.478   6.671  14.981
61365W        W31965  17.262  13.277  10.655
61366W        W31966  18.258  40.061   1.454
61367W        W31967  27.109  37.836  14.634
61368W        W31968   5.658  21.069   1.374
61369W        W31969  17.234  28.860  12.512
61370W        W31970   2.018  40.870   3.661
61371W        W31971  42.857  41.581  12.003
61372W        W31972   6.104  29.547  12.683
61373W        W31973  32.603  19.710   2.575
61374W        W31974  21.558  15.438   0.910
61375W        W31975  37.482  29.229  12.799
61376W        W31976  39.429   5.700  10.658
61377W        W31977  10.366  24.917   3.279
61378W        W31978  16.168  10.991  13.492
61379W        W31979  18.062  18.825   1.422
61380W        W31980  14.929  20.031  12.053
61381W        W31981  34.145   9.977   1.095
61382W        W31982  15.252  26.826   5.188
61383W        W31983  40.365  21.689   4.063
61384W        W31984  43.780  38.331  13.485
61385W        W31985  11.863  43.905   4.173
61386W        W31986  12.374   1.806  13.314
61387W        W31987  10.287  40.848  13.841
61388W        W31988  43.828   0.937   2.161
61389W        W31989   4.384  11.333   0.710
61390W        W31990   8.195  26.004  11.729
61391W        W31991  41.277  30.868  13.392
61392W        W31992  12.075  17.130   3.663
61393W        W31993   2.226  18.045  11.065
61394W        W31994  35.550  12.281   0.724
61395W        W31995  17.348   8.419   3.371
61396W        W31996  11.434  27.738   0.027
61397W        W31997   7.408  44.746  11.569
61398W        W31998   9.233  15.019  11.432
61399W        W31999  28.431  23.178  11.202
61400W        W32000  27.480  14.771  11.571
61401W        W32001  29.999  31.898   1.733
61402W        W32002  27.012  42.860  13.824
61403W        W32003  21.627  12.338  14.927
61404W        W32004  30.338  13.893   4.161
61405W        W32005  32.266  24.432   4.296
61406W        W32006  22.213  20.216   1.480
61407W        W32007  20.081   9.419   4.159
61408W        W32008   9.328   9.237  12.047
61409W        W32009  39.458  24.107  10.464
61410W        W32010   4.490  15.947   1.806
61411W        W32011  36.037   7.204   3.148
61412W        W32012  21.251   4.658  10.512
61413W        W32013  42.739  35.029   2.785
61414W        W32014  15.752  15.762  13.837
61415W        W32015  25.709  39.692  11.590
61416W        W32016  39.018  39.454   3.143
61417W        W32017  29.055  17.362  11.454
61418W        W32018  27.163  35.022   3.992
61419W        W32019   1.856  23.980   0.663
61420W        W32020  17.822   4.450   1.857
61421W        W32021   0.762   5.944   2.983
61422W        W32022  26.925  10.182  13.475
61423W        W32023  26.197  33.957   4.853
61424W        W32024  25.665  26.246  14.890
61425W        W32025  18.797   2.642  11.555
61426W        W32026  25.704  18.706   1.290
61427W        W32027  33.157  41.325   0.809
61428W        W32028   7.315  36.374   3.185
61429W        W32029  40.729   1.896   4.978
61430W        W32030  38.754  26.913  10.844
61431W        W32031  18.322  41.349   1.368
61432W        W32032  29.473  43.649  13.398
61433W        W32033  33.371  18.577   4.208
61434W        W32034  41.025   3.425  10.654
61435W        W32035  25.106  34.862  11.509
61436W        W32036  24.210  44.921  13.985
61437W        W32037  16.561   2.419   0.267
61438W        W32038  34.156  28.483   4.548
61439W        W32039  25.458  35.736  14.629
61440W        W32040   9.944  40.415  14.765
61441W        W32041  14.953  17.146   3.699
61442W        W32042  42.287   6.821   4.764
61443W        W32043  21.728  21.914  10.796
61444W        W32044  13.065  33.142   0.257
61445W        W32045  38.712   3.808   0.075
61446W        W32046  42.812  34.606  10.689
61447W        W32047  19.575   0.822  11.989
61448W        W32048   0.293  42.558  11.102
61449W        W32049  41.058  27.491   0.379
61450W        W32050  24.862   4.550  12.972
61451W        W32051  18.238  19.320   1.402
61452W        W32052  13.738  18.237   2.321
61453W        W32053  21.727  29.485  11.589
61454W        W32054  18.314  29.491  14.341
61455W        W32055  23.146  15.661   0.445
61456W        W32056  17.977  14.855   5.321
61457W        W32057  17.108  33.447   2.822
61458W        W32058   4.989   6.682   3.278
61459W        W32059  36.282  35.533  14.843
61460W        W32060  18.105  27.659  14.788
61461W        W32061   4.794   0.278  14.878
61462W        W32062  36.582  20.642  13.438
61463W        W32063  15.661  35.742   1.489
61464W        W32064   7.599   5.428   0.414
61465W        W32065  19.713  26.254  14.067
61466W        W32066  25.109  42.324  14.846
61467W        W32067  18.637   9.912  11.932
61468W        W32068  28.003   1.878   0.216
61469W        W32069  16.800   8.885   3.797
61470W        W32070  22.647  26.421   0.785
61471W        W32071  24.991  44.089  11.257
61472W        W32072  33.623  43.413  14.810
61473W        W32073  34.600  44.315   2.212
61474W        W32074  41.990   8.212  10.635
61475W        W32075  26.222  43.608  12.046
61476W        W32076   5.353  18.334  14.821
61477W        W32077   3.374  28.424  14.837
61478W        W32078  26.942  11.919  13.084
61479W        W32079  33.012   5.977   0.290
61480W        W32080  10.190  44.728  13.390
61481W        W32081  38.031   6.333  12.974
61482W        W32082  18.148  31.023   4.590
61483W        W32083  20.806  17.138  10.671
61484W        W32084  42.733  28.616   1.249
61485W        W32085  35.869  16.386   0.102
61486W        W32086  26.756  18.349  11.134
61487W        W32087  25.187  37.133   3.588
61488W        W32088  34.349   8.636   1.490
61489W        W32089  23.265  21.516  12.203
61490W        W32090   6.647  33.111   2.614
61491W        W32091  19.033   3.317   2.190
61492W        W32092  34.902  34.933  14.310
61493W        W32093  33.158   1.805   1.321
61494W        W32094  23.694  18.597   1.462
61495W        W32095  41.904  29.165  11.316
61496W        W32096   8.067   1.745   4.657
61497W        W32097  18.061  20.717   0.251
61498W        W32098  12.294  14.365   1.954
61499W        W32099  15.784  31.181   0.503
61500W        W32100  38.455  25.883  13.052
61501W        W32101  16.842  41.485   3.312
61502W        W32102  13.710  21.603  14.204
61503W        W32103  16.717  18.727   4.301
61504W        W32104  23.743  29.044   1.578
61505W        W32105  10.720   7.924   2.462
61506W        W32106  35.441  42.751   2.073
61507W        W32107  18.348  21.758  12.205
61508W        W32108   5.886  33.818   5.025
61509W        W32109  28.108  34.920   1.327
61510W        W32110  34.650  20.234  14.473
61511W        W32111  19.169   4.289  10.806
61512W        W32112  20.472   7.605   0.495
61513W        W32113  10.375  27.506   0.119
61514W        W32114  29.559  11.361   3.593
61515W        W32115  11.583  29.530  13.878
61516W        W32116  16.798  36.303   0.444
61517W        W32117  10.764   1.461   3.062
61518W        W32118   0.934  30.099  10.621
61519W        W32119  17.190   2.708   0.216
61520W        W32120   4.666  16.679  12.049
61521W        W32121  26.987  42.616  11.100
61522W        W32122  43.885   5.608  10.722
61523W        W32123   4.771  40.301  14.587
61524W        W32124   0.827  11.934   3.823
61525W        W32125  21.604  19.092  14.922
61526W        W32126  28.176  18.981   4.552
61527W        W32127  31.126   1.258   3.875
61528W        W32128  39.767  38.439  12.401
61529W        W32129  28.256  43.083  11.096
61530W        W32130  22.914   4.357  12.513
61531W        W32131   7.912  23.313  12.415
61532W        W32132  31.437  24.032  10.627
61533W        W32133  40.035  22.077   0.955
61534W        W32134   8.651   2.213  14.472
61535W        W32135  28.720   7.193  10.987
61536W        W32136   7.789  33.439   1.910
61537W        W32137   2.852   6.860  10.363
61538W        W32138   8.872  23.910  12.132
61539W        W32139   7.915  19.334  11.077
61540W        W32140   2.685   4.787  13.499
61541W        W32141  27.508   5.178   4.219
61542W        W32142   2.654  14.407   2.380
61543W        W32143  17.200  21.521   1.194
61544W        W32144  41.318  24.837   1.040
61545W        W32145  27.516  39.037  10.681
61546W        W32146   2.814  11.215  11.120
61547W        W32147  25.120   6.917  14.065
61548W        W32148  16.590  33.710  13.515
61549W        W32149  20.323  41.413   3.637
61550W        W32150  40.319  39.624  14.526
61551W        W32151  28.288  44.751  12.634
61552W        W32152  40.020   4.878   3.363
61553W        W32153   1.312  27.026  10.947
61554W        W32154  29.567  41.433   3.006
61555W        W32155   0.389  24.222  13.846
61556W        W32156  15.780  17.021   1.389
61557W        W32157  31.131  41.086   2.142
61558W        W32158  29.818  12.786  10.340
61559W        W32159   1.917  35.604  10.873
61560W        W32160  11.150  20.339  14.851
61561W        W32161  26.044  22.006  13.946
61562W        W32162   2.999  15.396  13.435
61563W        W32163  33.453   8.516  13.355
61564W        W32164  37.886  21.088  14.269
61565W        W32165  10.594  38.353   0.344
61566W        W32166  39.315  13.323   1.651
61567W        W32167   2.872  14.282  12.958
61568W        W32168  32.482  41.892  13.355
61569W        W32169  42.823  19.780   3.527
61570W        W32170  28.110   9.408  12.895
61571W        W32171  23.454   3.950  14.802
61572W        W32172  16.547  42.063   1.036
61573W        W32173   7.783   5.552   4.611
61574W        W32174  12.287  23.233   0.840
61575W        W32175  31.321  34.199  13.036
61576W        W32176  37.255  35.378   2.003
61577W        W32177  33.383   2.484  12.990
61578W        W32178  35.596   7.959   1.772
61579W        W32179  21.999   7.671   2.348
61580W        W32180  31.467  22.196   1.313
61581W        W32181  18.612   3.212  13.006
61582W        W32182  21.905  34.791  12.430
61583W        W32183  26.683  41.063   0.169
61584W        W32184  18.525  36.861   3.746
61585W        W32185  15.578  30.932  14.956
61586W        W32186  17.280  39.266   0.437
61587W        W32187   0.460   8.666  12.037
61588W        W32188  31.115  30.476   4.581
61589W        W32189  29.857  37.958   3.139
61590W        W32190   1.677  11.907  13.086
61591W        W32191  38.472   1.905  13.484
61592W        W32192  20.077  22.817  10.146
61593W        W32193  29.627   6.375   0.986
61594W        W32194   5.392  18.327   3.432
61595W        W32195   4.800  43.967   0.997
61596W        W32196  38.945  19.888   3.180
61597W        W32197  35.913  43.011  11.878
61598W        W32198  35.913   4.271  13.347
61599W        W32199   5.208  33.319   2.676
61600W        W32200  12.964  35.845  14.387
61601W        W32201   5.859  25.906  13.696
61602W        W32202  24.307   1.904  11.178
61603W        W32203   8.145  44.728   0.854
61604W        W32204  15.270   5.641   1.059
61605W        W32205  30.057  14.314  12.492
61606W        W32206  40.763  41.933  11.549
61607W        W32207  26.558  13.463   4.601
61608W        W32208  40.491  21.353   3.377
61609W        W32209  43.841  35.543   3.166
61610W        W32210  16.009   2.404  12.948
61611W        W32211  27.196   7.942  12.533
61612W        W32212  33.117  14.725  13.346
61613W        W32213  32.933  35.891  12.359
61614W        W32214  29.183  42.617  12.145
61615W        W32215   7.783  18.984  12.597
61616W        W32216  37.105   5.008  14.334
61617W        W32217  16.542   9.616  13.540
61618W        W32218   8.444  27.514  11.987
61619W        W32219  33.508  35.813  12.900
61620W        W32220  34.303  19.671   4.933
61621W        W32221  43.289  32.616  14.833
61622W        W32222  20.811  19.903   0.517
61623W        W32223  12.330  21.674   1.736
61624W        W32224  28.974  15.077  13.781
61625W        W32225  31.215  42.403  13.339
61626W        W32226  21.064  38.152  14.555
61627W        W32227  38.348  41.555  13.402
61628W        W32228  11.197   6.984   1.886
61629W        W32229   1.415  12.107   2.856
61630W        W32230  15.804   4.263  12.935
61631W        W32231   2.467   5.221   2.371
61632W        W32232  31.850  36.105   2.782
61633W        W32233  35.209  36.851   2.421
61634W        W32234  35.853  24.043  13.129
61635W        W32235  21.736   5.259  12.318
61636W        W32236  44.877  18.055  10.704
61637W        W32237  22.749   3.463   0.680
61638W        W32238  12.259  11.338  14.769
61639W        W32239   7.887  12.649   0.783
61640W        W32240  24.598  18.736  12.063
61641W        W32241  10.686   5.188  12.042
61642W        W32242  30.488  18.252   3.856
61643W        W32243  40.352  35.165  13.437
61644W        W32244  18.009  24.521  10.143
61645W        W32245  21.155  31.599   4.712
61646W        W32246  31.667   3.956  11.040
61647W        W32247  35.941   4.777  11.368
61648W        W32248  29.580  10.307   4.477
61649W        W32249  32.570  26.382   2.170
61650W        W32250   2.293  11.309   4.627
61651W        W32251   5.956   2.152   0.447
61652W        W32252  35.112  17.149  14.412
61653W        W32253  38.935  39.221  14.917
61654W        W32254  13.257  13.782  13.928
61655W        W32255  20.159  11.691  13.663
61656W        W32256   0.008   2.973   0.741
61657W        W32257  21.718  10.645   4.188
61658W        W32258  26.548  26.247  10.771
61659W        W32259  38.002  37.855  11.425
61660W        W32260  20.519   9.170   0.473
61661W        W32261  32.608   2.205   3.645
61662W        W32262  21.205  38.961   4.637
61663W        W32263   8.784   9.729  11.436
61664W        W32264   2.076   4.187   3.759
61665W        W32265  34.895  21.516  12.030
61666W        W32266  29.463  17.350  11.120
61667W        W32267   2.421  39.998   1.935
61668W        W32268  25.787  15.817  12.880
61669W        W32269  42.558  29.516   5.071
61670W        W32270  27.654  43.087   2.388
61671W        W32271  12.950  37.950  12.275
61672W        W32272   6.865  15.855   2.409
61673W        W32273   6.976  10.304   2.655
61674W        W32274  16.412  35.585  14.804
61675W        W32275  13.378  36.877   4.804
61676W        W32276  25.156  29.954  13.258
61677W        W32277  14.626  39.513   2.344
61678W        W32278  40.831  22.775  10.739
61679W        W32279   1.775  29.114  14.401
61680W        W32280  43.383  38.715  14.830
61681W        W32281  12.600  36.093   0.087
61682W        W32282   6.424  25.015  11.601
61683W        W32283  12.294  29.702  13.343
61684W        W32284   0.844  23.186  14.574
61685W        W32285  29.198  38.987  14.898
61686W        W32286   7.434   7.318   3.698
61687W        W32287   3.823  29.085   3.960
61688W        W32288   8.901  27.004   1.917
61689W        W32289  11.969  36.834  13.748
61690W        W32290  25.145   4.228  13.583
61691W        W32291  12.170  12.048  11.150
61692W        W32292  31.535  31.823  13.367
61693W        W32293  16.086  35.584  10.446
61694W        W32294  27.671   8.915   3.612
61695W        W32295  42.644  33.900  13.012
61696W        W32296   3.717  14.392  10.961
61697W        W32297  34.137  24.035  14.927
61698W        W32298  12.381   1.851   3.699
61699W        W32299  44.325  14.103   0.355
61700W        W32300  38.102  35.028   2.267
61701W        W32301  19.131  27.469  12.900
61702W        W32302  43.988  23.885  11.547
61703W        W32303  44.333  28.565   2.581
61704W        W32304   4.480  22.564  12.596
61705W        W32305  11.798  13.312   2.158
61706W        W32306   9.280  20.438   4.586
61707W        W32307  38.540   1.344  10.446
61708W        W32308  35.181  26.833  10.745
61709W        W32309   0.968   7.666   3.648
61710W        W32310  15.187  32.340  10.900
61711W        W32311  11.812  27.408  14.857
61712W        W32312  15.336   5.738  13.569
61713W        W32313   7.673  17.674  10.613
61714W        W32314   0.482   2.750  12.170
61715W        W32315  36.321  24.204  13.972
61716W        W32316  25.906  10.298   1.754
61717W        W32317  19.471  36.107   3.753
61718W        W32318   5.195   5.957  10.789
61719W        W32319  28.050   4.486   1.836
61720W        W32320  37.982  42.118  10.601
61721W        W32321  18.688  16.058   1.715
61722W        W32322  11.647   8.379   1.207
61723W        W32323  41.732  20.724  14.790
61724W        W32324  43.873  32.680  11.566
61725W        W32325  32.085  35.936   2.322
61726W        W32326  25.023   8.304  12.249
61727W        W32327  13.242  15.256  10.397
61728W        W32328  33.903  36.590   2.331
61729W        W32329  28.145  19.615  12.410
61730W        W32330  11.660  20.522  11.988
61731W        W32331   1.809   4.875  11.864
61732W        W32332   8.433   1.248  12.389
61733W        W32333   4.384  20.657   1.163
61734W        W32334   4.715  23.050  11.256
61735W        W32335  44.434  37.331   4.164
61736W        W32336  14.738  21.250  14.919
61737W        W32337  12.817  26.068   0.803
61738W        W32338  10.662  39.043  13.604
61739W        W32339  14.069   5.811   2.172
61740W        W32340  13.373  41.739   0.811
61741W        W32341  30.367  19.217   1.891
61742W        W32342  21.266  29.678  12.446
61743W        W32343  43.673  14.357  12.983
61744W        W32344  43.504  40.912  12.522
61745W        W32345  24.179  40.997  11.659
61746W        W32346   6.499  38.754   9.931
61747W        W32347  41.777  28.043  10.774
61748W        W32348  30.408  29.253   3.704
61749W        W32349   5.147  10.241   3.336
61750W        W32350  32.680   4.431   4.315
61751W        W32351   0.902  16.193  10.525
61752W        W32352  36.525  19.738   3.836
61753W        W32353  14.688  39.806   2.817
61754W        W32354  11.272  15.782  11.112
61755W        W32355  30.086  16.718   3.480
61756W        W32356  40.916  22.977   0.171
61757W        W32357   6.203  39.996   0.467
61758W        W32358  13.586  18.778  12.219
61759W        W32359   0.016   8.030   1.542
61760W        W32360  12.654  26.404   3.421
61761W        W32361   1.363   7.708  13.071
61762W        W32362  19.006  30.002   4.676
61763W        W32363   5.214  23.751  14.807
61764W        W32364  29.575  10.672   0.956
61765W        W32365  40.325  20.196  14.145
61766W        W32366  40.633  23.735   4.212
61767W        W32367  16.295   6.291   2.812
61768W        W32368  31.620  32.906  12.026
61769W        W32369   6.005  10.662   0.958
61770W        W32370   6.918   6.238  11.173
61771W        W32371  10.756  27.621   3.223
61772W        W32372  28.911  29.457  12.000
61773W        W32373  35.338  39.101  14.905
61774W        W32374  16.614  36.623  13.946
61775W        W32375  31.728  27.403  12.903
61776W        W32376  19.541  40.891  13.985
61777W        W32377   7.218   1.447   4.570
61778W        W32378   9.949  17.812   3.171
61779W        W32379  32.419  15.917  12.549
61780W        W32380  13.021  19.633  14.376
61781W        W32381  18.891  35.397  10.749
61782W        W32382  26.654  29.056  12.205
61783W        W32383  37.584  29.401   0.693
61784W        W32384  27.032   1.813  14.345
61785W        W32385  39.331  38.640  13.401
61786W        W32386   5.722  18.807  13.429
61787W        W32387  12.671  10.739  14.436
61788W        W32388  22.228  13.345  12.045
61789W        W32389  28.850   3.790   0.594
61790W        W32390  36.024  29.442   0.740
61791W        W32391  17.373   4.884  13.417
61792W        W32392  27.952  29.475   3.394
61793W        W32393  43.812  43.015  12.587
61794W        W32394  29.955   3.921  10.885
61795W        W32395  38.811  44.442   2.892
61796W        W32396  36.290  31.284   2.417
61797W        W32397   2.603  17.766  13.565
61798W        W32398  16.842  39.003  14.860
61799W        W32399  21.934   8.971   4.687
61800W        W32400   6.883  41.717  11.256
61801W        W32401  31.441  38.348  12.190
61802W        W32402  30.121   6.424   4.023
61803W        W32403  36.310  38.770  13.515
61804W        W32404  33.191   1.770  11.127
61805W        W32405  32.199  36.163  13.888
61806W        W32406  17.180  31.796   4.106
61807W        W32407  32.338  20.633   4.139
61808W        W32408   6.169   4.693   0.497
61809W        W32409   5.679   3.450   4.351
61810W        W32410  43.222  43.949   3.639
61811W        W32411  41.426   7.820  11.991
61812W        W32412  33.110  23.298   3.748
61813W        W32413  11.595  26.380   1.685
61814W        W32414  18.824  21.058  10.754
61815W        W32415  23.244  40.885   3.066
61816W        W32416   0.071  30.123  14.315
61817W        W32417  36.046  24.942  14.950
61818W        W32418  30.520   8.941   2.805
61819W        W32419  18.268  26.494   2.210
61820W        W32420  10.085  17.055   0.793
61821W        W32421  31.528  22.471   0.882
61822W        W32422  30.724   3.362   2.242
61823W        W32423  28.560   4.119   3.333
61824W        W32424  21.550  15.166   0.474
61825W        W32425   5.187  16.164  12.380
61826W        W32426  34.838  31.433  12.489
61827W        W32427  44.251  29.175  10.737
61828W        W32428  16.924   9.798  14.283
61829W        W32429  37.691  29.150   2.364
61830W        W32430  22.033  31.891   3.118
61831W        W32431  25.396  41.386  12.127
61832W        W32432  19.528   8.295   2.822
61833W        W32433   9.678   3.775   3.903
61834W        W32434  32.204  24.768  14.615
61835W        W32435  12.184   3.315  14.765
61836W        W32436  38.270   8.226   1.261
61837W        W32437  10.529  10.501   1.351
61838W        W32438  32.535  26.748  13.503
61839W        W32439   9.915   1.541   2.656
61840W        W32440  32.605  29.960   4.142
61841W        W32441  40.951  11.160   0.642
61842W        W32442   7.330  25.629  13.343
61843W        W32443  35.809  38.843  13.602
61844W        W32444  33.936  31.183  13.394
61845W        W32445  19.141   7.274   3.239
61846W        W32446  12.781  24.031  12.373
61847W        W32447  17.648  18.523  14.443
61848W        W32448  32.652   7.781   0.851
61849W        W32449  42.973  30.550  12.406
61850W        W32450   5.704  32.074   2.764
61851W        W32451  38.011  14.326   3.740
61852W        W32452   1.605   3.876   4.253
61853W        W32453  10.842  33.681   3.739
61854W        W32454  29.267  21.067   2.547
61855W        W32455  37.462  33.564  12.483
61856W        W32456  33.719  20.534  11.982
61857W        W32457  33.373  42.907   5.097
61858W        W32458  40.282  38.980   1.694
61859W        W32459   3.752  10.184   3.711
61860W        W32460  31.212  44.058   3.199
61861W        W32461   1.971   7.942   4.516
61862W        W32462  16.838  14.211   2.820
61863W        W32463  29.736  35.262   3.085
61864W        W32464  41.942  41.362  12.295
61865W        W32465  18.307  27.558   4.023
61866W        W32466  38.579  28.508   5.013
61867W        W32467  35.973  25.956   0.010
61868W        W32468   3.904   2.986  10.642
61869W        W32469  21.763  40.413   2.130
61870W        W32470  31.404  14.184   4.659
61871W        W32471  37.404  25.232   3.127
61872W        W32472  37.459  39.762  13.388
61873W        W32473   7.442  43.956  12.021
61874W        W32474  20.086   6.237   1.788
61875W        W32475  17.547  41.445   0.846
61876W        W32476   6.764  30.293   2.333
61877W        W32477  18.176  25.006   3.252
61878W        W32478   4.915  29.341  14.527
61879W        W32479  23.038  16.508  13.637
61880W        W32480  16.279   8.377  14.208
61881W        W32481   5.957   4.217  13.391
61882W        W32482  44.508  22.316   0.330
61883W        W32483   0.245  18.199  13.415
61884W        W32484  18.743  35.400   3.666
61885W        W32485  36.955   1.292  14.633
61886W        W32486  36.095  22.024   3.720
61887W        W32487   8.352  17.506  13.073
61888W        W32488   7.209   1.950  11.523
61889W        W32489  22.025   2.133  12.393
61890W        W32490  19.033  15.311   3.192
61891W        W32491  27.838   7.809   1.190
61892W        W32492   9.894  31.280  14.930
61893W        W32493  33.649  29.888  13.240
61894W        W32494  37.059   7.323   3.113
61895W        W32495  29.910   6.841   3.200
61896W        W32496  10.184   7.160  13.138
61897W        W32497   4.678  26.218   1.015
61898W        W32498   8.714   3.291   0.979
61899W        W32499  15.248  28.860  11.178
61900W        W32500  22.516  41.136  10.492
61901W        W32501  36.946   9.156  11.483
61902W        W32502  33.935  27.629   0.522
61903W        W32503  12.688   1.217   2.604
61904W        W32504  36.797  19.999   4.219
61905W        W32505  43.738  30.531  10.724
61906W        W32506   6.675   0.677   0.239
61907W        W32507   4.110  14.698   4.418
61908W        W32508   2.414   8.295   1.354
61909W        W32509  10.779  31.567   2.175
61910W        W32510   0.713  28.620   4.150
61911W        W32511   8.858  28.553   4.503
61912W        W32512  31.546  24.745   2.845
61913W        W32513  36.101  32.764   3.558
61914W        W32514  37.027   5.310  12.122
61915W        W32515   9.256  37.661  13.509
61916W        W32516  34.971   4.197  12.385
61917W        W32517  36.588  40.300   3.378
61918W        W32518  31.690   3.690  13.525
61919W        W32519  28.006  36.013   4.571
61920W        W32520  29.916  32.636  14.353
61921W        W32521   3.448  10.303   1.281
61922W        W32522   7.373  28.027   4.207
61923W        W32523   1.538  14.352  12.841
61924W        W32524  25.295  35.040  13.853
61925W        W32525  18.765  40.952  11.656
61926W        W32526  22.189  31.977  12.346
61927W        W32527  40.608  17.199  14.419
61928W        W32528   6.700  25.999   2.945
61929W        W32529  33.289  30.389   0.088
61930W        W32530  14.771   2.941   0.339
61931W        W32531  17.774  40.990   0.930
61932W        W32532  32.052  42.302  14.923
61933W        W32533  38.265  12.745  13.873
61934W        W32534  44.884  11.708   4.217
61935W        W32535  35.146   1.999   3.590
61936W        W32536  12.156  33.293   0.384
61937W        W32537  32.960  27.778  11.066
61938W        W32538  20.081  36.959   3.642
61939W        W32539  44.756  33.101  11.571
61940W        W32540  36.929  30.191   4.222
61941W        W32541  33.283  29.129  11.668
61942W        W32542  33.170  41.259   4.165
61943W        W32543  13.726   2.740   3.787
61944W        W32544  33.826  20.487  13.027
61945W        W32545  26.605  41.026   4.092
61946W        W32546   2.685  37.561  14.735
61947W        W32547  11.902  43.949  14.756
61948W        W32548  14.972  31.440  12.487
61949W        W32549  22.435  23.628  10.094
61950W        W32550  41.639  42.526  13.977
61951W        W32551  15.358  17.637  13.455
61952W        W32552  22.008  11.624  13.536
61953W        W32553  36.062  41.555  11.149
61954W        W32554  29.552  23.521   3.340
61955W        W32555  14.507  35.551   4.134
61956W        W32556  44.911  18.738   4.659
61957W        W32557  35.314  40.608  11.789
61958W        W32558  23.020  24.627  13.074
61959W        W32559  21.549  19.841  11.988
61960W        W32560  37.984  14.608   2.895
61961W        W32561  18.543  17.756  10.742
61962W        W32562  17.021  32.930   4.513
61963W        W32563  19.770  31.941  13.362
61964W        W32564   9.485  34.843   4.200
61965W        W32565  20.904   4.247   3.886
61966W        W32566  21.683   0.695  14.296
61967W        W32567  20.121   3.907   4.716
61968W        W32568  21.630   4.903  11.126
61969W        W32569  44.918  32.617  12.462
61970W        W32570  34.525   5.837  13.367
61971W        W32571  30.464  14.578  11.054
61972W        W32572  12.876  16.549   4.202
61973W        W32573  10.366   1.214   2.856
61974W        W32574  37.553  29.996   4.002
61975W        W32575  22.194  33.251   2.691
61976W        W32576  35.086  28.000   4.322
61977W        W32577   0.819  33.026  12.872
61978W        W32578   8.270  42.500  12.907
61979W        W32579   7.917  19.276  12.035
61980W        W32580   8.960  13.379  12.696
61981W        W32581  36.930  33.268   1.027
61982W        W32582  41.362  42.877   1.129
61983W        W32583  39.419  25.455   4.667
61984W        W32584  26.421  43.387   2.844
61985W        W32585   1.961  25.426  11.212
61986W        W32586  24.184  37.054   4.744
61987W        W32587   6.814  23.999  12.860
61988W        W32588  14.517  43.806  11.645
61989W        W32589  23.628  43.505  13.257
61990W        W32590  18.008  13.302  11.919
61991W        W32591  35.056  27.012  14.861
61992W        W32592  42.112   6.783  11.131
61993W        W32593  19.800  42.493   4.247
61994W        W32594  39.619  36.018  12.883
61995W        W32595  34.401  22.595  14.879
61996W        W32596   8.262  17.493   4.458
61997W        W32597  11.387  30.073  12.938
61998W        W32598   3.441   7.574  10.713
61999W        W32599  30.535  22.239  12.574
62000W        W32600   5.090  42.587  10.643
62001W        W32601   9.912  37.454   4.742
62002W        W32602  17.846  20.307   0.531
62003W        W32603   6.395  22.063  14.733
62004W        W32604  11.727  27.133   3.333
62005W        W32605  21.656  30.660   1.688
62006W        W32606  34.474  36.838   0.890
62007W        W32607  25.242  31.844  11.126
62008W        W32608  12.631   7.630   3.451
62009W        W32609  44.869  27.778  10.277
62010W        W32610  27.024  29.579   2.449
62011W        W32611   2.729   0.321  11.448
62012W        W32612  33.965  25.294  13.954
62013W        W32613   4.396   4.027   3.743
62014W        W32614   6.225  22.642   0.302
62015W        W32615  39.096  21.432  12.644
62016W        W32616  25.372  18.207  12.029
62017W        W32617  23.516   4.470  14.747
62018W        W32618   1.353  22.116  11.713
62019W        W32619  26.106   6.384  13.724
62020W        W32620  13.698  43.003   3.650
62021W        W32621   6.323  35.397   1.253
62022W        W32622  31.133  17.805   2.413
62023W        W32623  17.626  14.619   0.466
62024W        W32624  14.618  23.517   1.823
62025W        W32625  42.983  10.882   3.212
62026W        W32626  23.659  15.811  14.647
62027W        W32627   9.359  40.059   4.690
62028W        W32628  21.704  44.488   0.367
62029W        W32629  41.999  28.145   4.024
62030W        W32630   4.958  15.996   2.986
62031W        W32631  31.194   7.290  12.120
62032W        W32632   0.186  42.199  12.899
62033W        W32633  29.677  31.383  12.168
62034W        W32634  15.553  43.008  13.962
62035W        W32635  40.258  27.491   1.698
62036W        W32636  11.257  12.944  14.185
62037W        W32637  36.527  11.171   2.360
62038W        W32638   1.201  29.526  13.631
62039W        W32639   1.688  38.970   2.620
62040W        W32640  28.580   3.283   0.810
62041W        W32641  11.061  20.565  11.139
62042W        W32642  32.964  22.536  13.582
62043W        W32643  39.460  25.514  10.933
62044W        W32644  18.735  22.720  12.487
62045W        W32645  40.443  32.928   3.114
62046W        W32646  27.656  41.787   1.661
62047W        W32647  37.105   0.533   4.061
62048W        W32648   7.171  36.501  11.531
62049W        W32649  16.838  15.773  11.558
62050W        W32650   8.300   4.242   3.221
62051W        W32651  33.839  28.526   1.049
62052W        W32652  22.676  23.041  11.467
62053W        W32653  31.672  31.067  11.239
62054W        W32654  10.727  20.349  12.825
62055W        W32655  43.296  30.672   0.587
62056W        W32656  41.582   6.883  14.750
62057W        W32657  18.299   2.142  10.544
62058W        W32658   1.488  39.823  12.590
62059W        W32659  34.597  13.952   4.162
62060W        W32660  22.100  42.641  11.210
62061W        W32661  16.762  23.259  12.115
62062W        W32662  25.146  25.760  11.110
62063W        W32663  16.195  41.383   4.112
62064W        W32664  35.430  39.887  12.537
62065W        W32665  18.150   0.105   4.775
62066W        W32666  34.809   0.367  13.846
62067W        W32667  36.218  17.052  12.073
62068W        W32668  37.078  18.682   1.892
62069W        W32669  44.967   9.362   3.227
62070W        W32670  13.170  18.079   4.633
62071W        W32671  43.012  15.300  12.711
62072W        W32672   0.790  18.165   2.193
62073W        W32673  14.515  21.208  10.036
62074W        W32674  39.301  33.361   0.469
62075W        W32675  10.637   7.431   0.899
62076W        W32676  28.015   2.887  11.104
62077W        W32677  24.320  12.158   0.495
62078W        W32678  17.720  33.030  11.126
62079W        W32679  19.975  32.596  11.142
62080W        W32680   8.252  37.094   1.331
62081W        W32681   1.322  44.030  12.906
62082W        W32682  16.677  28.728  14.292
62083W        W32683  34.478  31.150  11.639
62084W        W32684  15.014  43.551   2.630
62085W        W32685  17.720  25.097   4.176
62086W        W32686  36.411  17.024   1.425
62087W        W32687  14.092  27.808   3.201
62088W        W32688  12.253  30.960   1.748
62089W        W32689  31.931   3.228   4.832
62090W        W32690  41.746   6.763   5.556
62091W        W32691  28.145  29.955   1.327
62092W        W32692  26.106  41.743  10.596
62093W        W32693  29.650   1.797   0.439
62094W        W32694  18.029  17.200   2.621
62095W        W32695  29.926   6.361   1.462
62096W        W32696   5.439   0.993  14.987
62097W        W32697   9.287  19.779  10.646
62098W        W32698  34.708  29.456  11.483
62099W        W32699  22.170  17.114   3.250
62100W        W32700  34.499  43.495   1.946
62101W        W32701  23.925   8.250   3.166
62102W        W32702  30.486  15.685   0.831
62103W        W32703  19.786  31.356   3.325
62104W        W32704  32.862   8.134  10.780
62105W        W32705  22.727  13.160  11.996
62106W        W32706  14.043  33.543  13.367
62107W        W32707   7.896  22.348   1.577
62108W        W32708  34.677  35.512   3.261
62109W        W32709  22.566  28.238  13.014
62110W        W32710  18.759  10.210   3.674
62111W        W32711   8.732  12.629   4.879
62112W        W32712  39.930  22.589   0.922
62113W        W32713  17.467  32.202   2.709
62114W        W32714  25.734   7.582   1.355
62115W        W32715  33.241  35.417  14.938
62116W        W32716  40.517   8.255   0.177
62117W        W32717   0.576   9.769  12.968
62118W        W32718   9.371  12.096  12.291
62119W        W32719  27.065  35.940  11.052
62120W        W32720  40.866  20.532   2.572
62121W        W32721  36.988  37.788  12.589
62122W        W32722  29.574  43.503   4.187
62123W        W32723  16.273  42.943  11.856
62124W        W32724  34.056  34.068   2.148
62125W        W32725  11.691  22.619   5.027
62126W        W32726  22.813  17.539  11.674
62127W        W32727  17.523  41.249  11.169
62128W        W32728  25.589  20.972  11.544
62129W        W32729  31.517   3.202  12.387
62130W        W32730   5.460  14.119  11.146
62131W        W32731  36.068  20.490  13.052
62132W        W32732  24.491  29.721  11.412
62133W        W32733  33.909  42.380  14.529
62134W        W32734  16.856   6.424  12.250
62135W        W32735  24.725  19.637   2.341
62136W        W32736  35.556  40.633   2.319
62137W        W32737  25.825   9.390   9.654
62138W        W32738  37.331  37.862   2.209
62139W        W32739  35.370  24.527   0.755
62140W        W32740  40.308  39.468  11.572
62141W        W32741  11.697  12.237  14.794
62142W        W32742  13.669  20.165  11.876
62143W        W32743  36.313  20.810  12.101
62144W        W32744  32.374  17.628   0.694
62145W        W32745  31.053  24.969   2.818
62146W        W32746  21.210   3.193   0.432
62147W        W32747  22.173  43.420   0.022
62148W        W32748  33.489  16.868  13.950
62149W        W32749   1.166   2.882   2.833
62150W        W32750  35.669  14.959  11.591
62151W        W32751   1.477  17.233   1.932
62152W        W32752  20.246  42.106   2.464
62153W        W32753  33.727  44.318  10.341
62154W        W32754   2.968  12.845   2.303
62155W        W32755  18.212   4.941  11.236
62156W        W32756  27.332  19.165   2.794
62157W        W32757   8.800  21.995   3.592
62158W        W32758   3.948  25.697  10.948
62159W        W32759  33.133  25.204  11.269
62160W        W32760   0.446   9.608   4.279
62161W        W32761  26.459  16.123  14.074
62162W        W32762  26.458  37.074   2.412
62163W        W32763  22.351  20.568  14.433
62164W        W32764   4.812  31.902   4.503
62165W        W32765  16.869  41.834  14.380
62166W        W32766  30.441   0.195   1.441
62167W        W32767  25.496  44.291  14.438
62168W        W32768  19.632  32.412   3.247
62169W        W32769  39.896   7.185   2.331
62170W        W32770  25.495  21.510  14.507
62171W        W32771   2.604  37.945   4.594
62172W        W32772  25.528   1.542  13.636
62173W        W32773  41.088   1.753  14.990
62174W        W32774  41.036  41.269   4.679
62175W        W32775  13.357   4.458   4.245
62176W        W32776  26.671  26.149   1.712
62177W        W32777  18.528  17.199   1.762
62178W        W32778   5.334  43.016   0.305
62179W        W32779  29.213  42.478   3.858
62180W        W32780  35.546  44.709  12.574
62181W        W32781  42.557  31.019   1.217
62182W        W32782   7.380  40.519   1.940
62183W        W32783  28.597  41.816  10.967
62184W        W32784   1.503  15.074   2.808
62185W        W32785  21.640  24.081   1.405
62186W        W32786  13.268  26.554   4.067
62187W        W32787  35.531  12.594   2.367
62188W        W32788  43.305  29.496   1.407
62189W        W32789  27.161  39.275   3.111
62190W        W32790  13.316  28.665   3.316
62191W        W32791  15.116   3.968  12.798
62192W        W32792  18.050   2.996  14.957
62193W        W32793  14.164   9.929  12.523
62194W        W32794  34.180   9.137  10.718
62195W        W32795   0.451  16.067   0.918
62196W        W32796  10.219  42.731   2.302
62197W        W32797  44.937  32.544  10.961
62198W        W32798   7.906  32.103   2.333
62199W        W32799  33.378  22.178   4.261
62200W        W32800  42.843  16.301   2.708
62201W        W32801   3.466   0.495   0.506
62202W        W32802  43.731   3.503   1.362
62203W        W32803   1.583  35.500  14.126
62204W        W32804   6.565  18.036  11.138
62205W        W32805  26.117  37.495  10.395
62206W        W32806  26.158  22.584   4.840
62207W        W32807  20.100  30.586  11.962
62208W        W32808  38.278   0.682  11.622
62209W        W32809  11.834  16.674   3.615
62210W        W32810   0.888  29.965  11.960
62211W        W32811  15.807  17.104  11.948
62212W        W32812   0.425  14.147  13.364
62213W        W32813   3.532  34.154  13.972
62214W        W32814   1.050  41.402   1.861
62215W        W32815   3.843  28.471  10.637
62216W        W32816  38.883  17.600   1.854
62217W        W32817  10.386  27.513  12.619
62218W        W32818   1.899  42.530   4.620
62219W        W32819   2.496  22.069   0.326
62220W        W32820  29.364   9.661  14.413
62221W        W32821  27.623  40.552  11.442
62222W        W32822  43.829  22.043  13.543
62223W        W32823  38.843  20.168  12.166
62224W        W32824  13.863  40.774   4.499
62225W        W32825  17.667  27.641   2.139
62226W        W32826  15.269  37.352  13.941
62227W        W32827  27.195  20.959  10.143
62228W        W32828  29.590   1.893   2.268
62229W        W32829  33.537   7.049   0.062
62230W        W32830  25.816   1.372  14.942
62231W        W32831  17.889   8.703   4.456
62232W        W32832   9.731   9.023  12.505
62233W        W32833   0.748  17.641   0.097
62234W        W32834   7.206   3.089  11.002
62235W        W32835   7.394   5.668   3.210
62236W        W32836  22.709  11.126  12.061
62237W        W32837  36.846  31.579  10.650
62238W        W32838   1.337  29.629   3.299
62239W        W32839  13.949   8.943   3.061
62240W        W32840  20.118  13.932   3.725
62241W        W32841  39.650  16.252   0.315
62242W        W32842  22.669  31.479   4.237
62243W        W32843  30.497  32.536  12.050
62244W        W32844  43.723  16.661   2.189
62245W        W32845  12.105  14.647  13.891
62246W        W32846  12.346  29.906  13.882
62247W        W32847  28.597  16.047  12.645
62248W        W32848  35.848  40.750   4.960
62249W        W32849  28.369  36.915   0.262
62250W        W32850  31.334   1.983  11.102
62251W        W32851   3.189  17.015  12.137
62252W        W32852  20.288  38.656   1.790
62253W        W32853  26.601  36.181  11.097
62254W        W32854  12.267  41.431  13.213
62255W        W32855   0.508  10.216  14.720
62256W        W32856  42.318  36.407  10.706
62257W        W32857  25.157   4.469   4.148
62258W        W32858   5.428  38.035   3.940
62259W        W32859   1.462   3.671  14.358
62260W        W32860  31.833  43.654   0.139
62261W        W32861  20.749  19.130   3.846
62262W        W32862   0.219  21.272  13.328
62263W        W32863  34.901  28.083   0.502
62264W        W32864  12.029   7.667   2.124
62265W        W32865   5.011  39.182   0.317
62266W        W32866   5.145  11.254  11.527
62267W        W32867  31.500   4.152   1.690
62268W        W32868  42.944  44.769   4.077
62269W        W32869  16.889   4.763  10.753
62270W        W32870  27.100  27.551   1.293
62271W        W32871  12.796  39.539  10.872
62272W        W32872   4.152  38.306  10.625
62273W        W32873  30.655   5.232   0.186
62274W        W32874  41.449  13.255  11.225
62275W        W32875  11.779  37.309  13.817
62276W        W32876   6.978  37.465  13.664
62277W        W32877  10.465  28.978  13.503
62278W        W32878   2.185  17.755  11.496
62279W        W32879   5.884   1.878  12.491
62280W        W32880  12.439   0.656  10.672
62281W        W32881  12.364  11.286  10.734
62282W        W32882  19.731   6.179   2.194
62283W        W32883   0.277  31.887  12.561
62284W        W32884  43.736  44.582  10.634
62285W        W32885  27.742  23.120   3.127
62286W        W32886  13.628  20.254  14.259
62287W        W32887  32.415  27.685   3.721
62288W        W32888  34.449  16.152   1.277
62289W        W32889  30.194  44.128   0.765
62290W        W32890   4.491  33.344   3.758
62291W        W32891  33.816   4.449  10.442
62292W        W32892  35.917   3.516  11.614
62293W        W32893  13.331   2.414   2.383
62294W        W32894  30.627  32.159  12.819
62295W        W32895   6.444  22.231   1.662
62296W        W32896  32.936  10.128  11.561
62297W        W32897   6.456  34.511   0.341
62298W        W32898  28.050   1.072   1.921
62299W        W32899  15.283   6.505  12.499
62300W        W32900   3.162  32.947   4.507
62301W        W32901  36.899  20.317   3.205
62302W        W32902  29.300   4.309   2.238
62303W        W32903  13.905  18.777  13.111
62304W        W32904  21.542  41.925   3.209
62305W        W32905  39.122  41.115   4.237
62306W        W32906  14.293   9.326   2.129
62307W        W32907   3.202  31.457  14.712
62308W        W32908  26.607  27.535  14.528
62309W        W32909  27.968  37.073   1.210
62310W        W32910   3.949  37.044  11.962
62311W        W32911  14.786  20.783  11.624
62312W        W32912  15.013  16.652  14.386
62313W        W32913   2.816   1.488   0.125
62314W        W32914   1.733  14.882   4.612
62315W        W32915  26.983  24.099  12.819
62316W        W32916  25.109  37.511   0.174
62317W        W32917  41.622  23.325   0.812
62318W        W32918  35.930  20.769   0.837
62319W        W32919  19.644  19.971   2.030
62320W        W32920  38.359  23.738   0.961
62321W        W32921  36.649  43.016  10.202
62322W        W32922  31.106  41.044   2.990
62323W        W32923  32.147  37.977   4.380
62324W        W32924   8.260  12.860  11.727
62325W        W32925   2.785  13.309  12.957
62326W        W32926   3.122  42.721   0.469
62327W        W32927  43.456  18.277   3.381
62328W        W32928   5.173  34.932  13.823
62329W        W32929  18.272  28.709  11.658
62330W        W32930  35.506  33.859  10.702
62331W        W32931  37.181   2.795   4.069
62332W        W32932  39.927  35.587  12.976
62333W        W32933  18.165  27.747  12.927
62334W        W32934  15.947   8.660  10.645
62335W        W32935  34.616  38.489  13.716
62336W        W32936   9.138  40.470   1.737
62337W        W32937  31.031  13.193   4.313
62338W        W32938   6.868  42.242  11.201
62339W        W32939   1.960   2.592  12.993
62340W        W32940  36.084  32.873   0.219
62341W        W32941   8.595  15.792   0.192
62342W        W32942   3.451  23.137   4.079
62343W        W32943  40.607  14.213  14.943
62344W        W32944  42.930  12.403   1.611
62345W        W32945  42.826  41.218  12.387
62346W        W32946  40.073  39.098  13.879
62347W        W32947  29.962  30.861  10.653
62348W        W32948  20.955   5.530  10.587
62349W        W32949  29.843  25.117   4.138
62350W        W32950  35.688  38.985   1.099
62351W        W32951  28.954  12.156   1.748
62352W        W32952  14.101  23.494   1.904
62353W        W32953  31.725  18.359  11.175
62354W        W32954  19.372  28.132  11.993
62355W        W32955  16.566  36.580  13.403
62356W        W32956   5.215  38.908  12.395
62357W        W32957  32.880  26.201  12.056
62358W        W32958  23.473  18.249   3.793
62359W        W32959   7.919   3.379  12.310
62360W        W32960   9.774  12.205  10.650
62361W        W32961  34.577  24.193  13.537
62362W        W32962  36.503  36.136   2.759
62363W        W32963  24.341  10.134   1.394
62364W        W32964   6.439  34.190  10.246
62365W        W32965  29.188  18.576   2.753
62366W        W32966   9.927  35.612   2.214
62367W        W32967  29.973  31.382   2.657
62368W        W32968   4.863  26.457   4.622
62369W        W32969  34.384  41.609   0.872
62370W        W32970   2.014  30.647  12.954
62371W        W32971  19.508  43.295  11.653
62372W        W32972  27.170  32.868  13.879
62373W        W32973  11.868  35.995  12.492
62374W        W32974  19.479   7.335   2.669
62375W        W32975   1.328  27.810  11.532
62376W        W32976  31.600  14.512  14.285
62377W        W32977  38.983   2.140   2.951
62378W        W32978  10.292  19.834   0.895
62379W        W32979  20.312  24.455  12.028
62380W        W32980  40.981  27.716  12.548
62381W        W32981  15.143  29.993  12.423
62382W        W32982   3.001  37.128   4.149
62383W        W32983  26.921  28.648   0.368
62384W        W32984  22.081  14.100   0.926
62385W        W32985  13.672  28.437  13.821
62386W        W32986   1.851  32.413   4.534
62387W        W32987  36.072  20.684   2.123
62388W        W32988   0.591  42.857  10.811
62389W        W32989  14.579  11.552  10.797
62390W        W32990  10.371  26.541   2.395
62391W        W32991  36.065   0.517  10.782
62392W        W32992  37.095  26.640  14.465
62393W        W32993  12.399  42.296  14.963
62394W        W32994   2.530   1.833  11.976
62395W        W32995  30.338  13.136   2.991
62396W        W32996  16.066  43.040  12.845
62397W        W32997   8.331  36.006  14.828
62398W        W32998   9.316  18.207  13.313
62399W        W32999  42.276  38.024  14.875
62400W        W33000  18.194  18.024  13.449
62401W        W33001  26.633  41.566   4.054
62402W        W33002  18.853  34.312  12.812
62403W        W33003  30.405  30.115  13.952
62404W        W33004  20.703  27.912  11.459
62405W        W33005   7.802  18.458  12.500
62406W        W33006   1.417  26.905   4.059
62407W        W33007  16.249  27.054   1.833
62408W        W33008  27.974  25.496   1.560
62409W        W33009  42.115  37.727  14.334
62410W        W33010  18.830  11.108  11.536
62411W        W33011  25.746  40.266   1.966
62412W        W33012   6.544  40.073  11.260
62413W        W33013  12.238  11.816   4.826
62414W        W33014  11.365   5.005   3.094
62415W        W33015   6.780   1.867   2.890
62416W        W33016   9.175  37.356   1.729
62417W        W33017  14.010  32.032  12.804
62418W        W33018  14.147  36.999  14.831
62419W        W33019  25.279  11.673   0.869
62420W        W33020  19.158  12.395  12.424
62421W        W33021  27.070  23.317  12.550
62422W        W33022  43.072  37.397  11.055
62423W        W33023   7.269  44.973  14.300
62424W        W33024  32.468  23.339  13.938
62425W        W33025  29.136   4.168  12.377
62426W        W33026  20.731  37.080  13.955
62427W        W33027  27.620   8.702   0.629
62428W        W33028   3.199   4.531  14.405
62429W        W33029   4.490  43.342   1.423
62430W        W33030   4.315  44.265   0.978
62431W        W33031   0.873  14.719  12.677
62432W        W33032  13.191  29.539   2.728
62433W        W33033  37.834  29.967   0.048
62434W        W33034  19.696  27.695  11.468
62435W        W33035  19.247  10.751  14.060
62436W        W33036  16.876  27.201  11.206
62437W        W33037  25.261   6.465  11.224
62438W        W33038   8.756   3.979  14.969
62439W        W33039  33.896   7.571  13.889
62440W        W33040  18.668  33.809   3.306
62441W        W33041  28.133   0.710  12.449
62442W        W33042  23.506  33.736  11.436
62443W        W33043   0.274  29.215   0.302
62444W        W33044  32.977  35.068  10.706
62445W        W33045   9.893  11.175  14.386
62446W        W33046  37.583  32.693   0.811
62447W        W33047  32.758  39.071  12.572
62448W        W33048  12.258  38.012   2.532
62449W        W33049   3.864   0.013   1.899
62450W        W33050  17.853  14.134   2.839
62451W        W33051  33.358  27.598   3.323
62452W        W33052  42.769  17.599  14.874
62453W        W33053  10.649  15.390  14.376
62454W        W33054  15.753  28.577   3.273
62455W        W33055  30.085   9.667  13.048
62456W        W33056  33.755   8.200  10.847
62457W        W33057   8.837   3.890   1.967
62458W        W33058  13.298   9.431  14.372
62459W        W33059  33.899  29.018   0.834
62460W        W33060  16.735  10.366  10.695
62461W        W33061   4.231   7.876   3.944
62462W        W33062  26.451  10.792   1.582
62463W        W33063  42.034   8.282   0.688
62464W        W33064  38.551  36.947   3.307
62465W        W33065  18.272  13.816  11.913
62466W        W33066  39.291  16.370   0.664
62467W        W33067  11.294  42.539  13.282
62468W        W33068  36.446  25.926   1.299
62469W        W33069  16.530  15.981  10.605
62470W        W33070   5.498  41.115  11.012
62471W        W33071  17.681  41.613   2.186
62472W        W33072   3.279  33.481  14.056
62473W        W33073  11.668  12.524   2.312
62474W        W33074  39.084  36.832   3.255
62475W        W33075  31.087   2.821  13.912
62476W        W33076  15.075  40.876   1.510
62477W        W33077  36.063  29.956   4.240
62478W        W33078   0.329  38.954  12.317
62479W        W33079  29.397  30.598   2.364
62480W        W33080  29.051   5.124  14.725
62481W        W33081  14.166  21.012  12.336
62482W        W33082  20.518  16.755  10.443
62483W        W33083   1.039  29.419   0.748
62484W        W33084  31.056   4.404   0.887
62485W        W33085  17.999  34.899  14.966
62486W        W33086  33.096  39.212   0.846
62487W        W33087  32.160  17.214   1.010
62488W        W33088  37.371  41.873   4.577
62489W        W33089  17.067  37.025  12.601
62490W        W33090  17.275  12.255   2.768
62491W        W33091   3.571   1.613   3.293
62492W        W33092  34.077  32.068  12.106
62493W        W33093   4.777  38.584   4.204
62494W        W33094  42.575   3.971  11.637
62495W        W33095  34.623  34.345   1.436
62496W        W33096  20.034  41.755   3.353
62497W        W33097   9.483  29.899  10.352
62498W        W33098  30.621  16.196   0.895
62499W        W33099  30.606  36.555   0.487
62500W        W33100  40.278  39.597  13.664
62501W        W33101  20.992  23.744  14.103
62502W        W33102   6.298  12.702  14.946
62503W        W33103  43.249   5.444  12.303
62504W        W33104   6.497  16.802  11.576
62505W        W33105  34.045  22.495   2.283
62506W        W33106   4.241  38.985  14.649
62507W        W33107  12.133   2.894   0.952
62508W        W33108   6.349  25.984  10.679
62509W        W33109   1.519  27.680   1.134
62510W        W33110  10.462   6.867  12.369
62511W        W33111  14.359  41.467   3.243
62512W        W33112  21.672  33.201   4.526
62513W        W33113  15.244  22.782   0.149
62514W        W33114  34.226  36.799   2.753
62515W        W33115  38.999  29.569   4.365
62516W        W33116  12.532  33.116  14.111
62517W        W33117  44.504   1.428   1.207
62518W        W33118  35.362  35.452  13.346
62519W        W33119  14.143  38.463  11.919
62520W        W33120  17.524   0.846  10.583
62521W        W33121  11.909   3.137   0.503
62522W        W33122  35.439  43.572   4.549
62523W        W33123   5.212  10.378  12.508
62524W        W33124   6.863  41.794   4.186
62525W        W33125   7.798  32.608  12.599
62526W        W33126  39.327  12.822   4.543
62527W        W33127  23.546  35.977   1.575
62528W        W33128  33.690  37.300  13.136
62529W        W33129  34.879  18.044  12.583
62530W        W33130   9.056  32.386  12.840
62531W        W33131  16.328  41.782  10.083
62532W        W33132  37.975  27.972  12.507
62533W        W33133  17.056  22.244  12.689
62534W        W33134   3.258  25.992  13.103
62535W        W33135  38.910   0.831   4.467
62536W        W33136  41.495  32.927  12.468
62537W        W33137  31.674  19.933   4.559
62538W        W33138  15.547  31.512   5.070
62539W        W33139  14.256  11.137  13.865
62540W        W33140  11.654  29.210   0.267
62541W        W33141   0.753  38.100  10.683
62542W        W33142  44.149   8.471  13.981
62543W        W33143  44.941  28.964   3.156
62544W        W33144   0.560  33.405   3.087
62545W        W33145  31.590  38.045  13.507
62546W        W33146  33.363  37.461  11.565
62547W        W33147  33.614  20.375   3.747
62548W        W33148  14.719  42.286   0.878
62549W        W33149  15.391   7.914   3.795
62550W        W33150  26.615  10.245  11.197
62551W        W33151   1.237  43.449   4.182
62552W        W33152  31.953  23.970  12.453
62553W        W33153  12.256  18.860  12.141
62554W        W33154  27.211  15.302  11.976
62555W        W33155  21.603  26.708  12.351
62556W        W33156   5.747  30.077   3.105
62557W        W33157   7.143  20.515   2.191
62558W        W33158  38.353  13.886   4.623
62559W        W33159  40.049  43.776   1.616
62560W        W33160  35.783   7.321   0.845
62561W        W33161  26.458  27.118   1.872
62562W        W33162   9.880  40.724   2.895
62563W        W33163  18.800   6.850  12.847
62564W        W33164  17.715  43.918  12.606
62565W        W33165  10.059  10.575   4.588
62566W        W33166  15.754  12.845   0.354
62567W        W33167   1.090  29.319   2.848
62568W        W33168   6.418  22.641   9.616
62569W        W33169  31.580  18.538   4.550
62570W        W33170  35.896   8.875   3.209
62571W        W33171   0.001  40.938   3.048
62572W        W33172   5.887   5.275  10.722
62573W        W33173  10.712  32.206   4.751
62574W        W33174  11.598  38.296  12.709
62575W        W33175  24.162  22.100  12.231
62576W        W33176  34.574   2.662  12.166
62577W        W33177  28.086   8.921  10.373
62578W        W33178   0.550  36.916   4.051
62579W        W33179  35.681   2.648  12.893
62580W        W33180  10.418  31.996   0.388
62581W        W33181  26.497  15.272  12.530
62582W        W33182   5.770   6.813   2.898
62583W        W33183  33.335  26.876  11.134
62584W        W33184  42.469   7.910  11.531
62585W        W33185  18.305  15.606   3.788
62586W        W33186  44.455  28.052  14.796
62587W        W33187  16.535  44.276  11.899
62588W        W33188  22.593   2.288  12.550
62589W        W33189  10.208  13.702   1.231
62590W        W33190  44.883  42.569   2.299
62591W        W33191  44.752  24.089  11.885
62592W        W33192   6.716   2.766   1.336
62593W        W33193  40.125   7.268  12.960
62594W        W33194  34.991  41.970  12.526
62595W        W33195  11.207  32.314   3.675
62596W        W33196   5.267  24.985   0.339
62597W        W33197  29.224  28.503  13.422
62598W        W33198  15.094  30.198  14.345
62599W        W33199  33.371  17.369  13.920
62600W        W33200  30.918   9.986  11.128
62601W        W33201  19.443   4.687   0.284
62602W        W33202  30.629  39.352   1.368
62603W        W33203  10.855  41.406   0.564
62604W        W33204  16.148  29.089  12.985
62605W        W33205   8.826  17.593  12.034
62606W        W33206   4.494  21.840   0.029
62607W        W33207  19.420  41.586  11.148
62608W        W33208   8.301  18.271   1.863
62609W        W33209  41.904   2.664  11.882
62610W        W33210  28.724  20.061   0.274
62611W        W33211   3.912  11.146  12.893
62612W        W33212  43.030   1.372   2.453
62613W        W33213   8.184  42.094   4.107
62614W        W33214  38.476  36.205  13.406
62615W        W33215  10.928  22.689  13.905
62616W        W33216  35.137  22.663   1.188
62617W        W33217  24.432  10.204  12.204
62618W        W33218  28.695  29.570   1.685
62619W        W33219  19.926  24.624  10.870
62620W        W33220  24.525  43.393   0.010
62621W        W33221  40.061  40.941  14.510
62622W        W33222  13.910   0.043   4.984
62623W        W33223  38.520  22.614   3.207
62624W        W33224  23.471  24.100   2.959
62625W        W33225  23.558  26.605  13.150
62626W        W33226  29.135  19.602   3.686
62627W        W33227  39.350  10.594   4.616
62628W        W33228  20.541  25.633   3.539
62629W        W33229  34.049  18.051   1.244
62630W        W33230  36.333  22.566  13.449
62631W        W33231  23.534  20.713  12.566
62632W        W33232  44.598  19.781  11.421
62633W        W33233  43.442  28.745  14.021
62634W        W33234   3.917  41.598   0.860
62635W        W33235  15.796  21.982   3.726
62636W        W33236  25.445  37.049  10.431
62637W        W33237  10.279   3.305   1.693
62638W        W33238  13.253  32.449   3.119
62639W        W33239  35.681  20.555   3.652
62640W        W33240  15.914  20.937   4.578
62641W        W33241  21.981  16.684   2.694
62642W        W33242  40.475  42.551  14.313
62643W        W33243   8.172  33.102   2.920
62644W        W33244  38.907  12.491  10.014
62645W        W33245   8.770  24.335  13.272
62646W        W33246  10.260   0.961   1.006
62647W        W33247  19.064  30.214   3.838
62648W        W33248   1.718  34.312  10.159
62649W        W33249  31.666  34.376  12.448
62650W        W33250  28.276  23.575  14.949
62651W        W33251   0.820   4.546  11.127
62652W        W33252   3.284   8.377  14.259
62653W        W33253  42.954   9.283  12.446
62654W        W33254   3.028  41.746   3.414
62655W        W33255  41.265  14.012  13.399
62656W        W33256  19.763   4.413  12.015
62657W        W33257  14.109  18.664  10.896
62658W        W33258  13.676  21.756  12.474
62659W        W33259   6.398  38.639  12.008
62660W        W33260   3.395  20.819   1.678
62661W        W33261   5.630  17.044  13.809
62662W        W33262   2.337   1.218  11.597
62663W        W33263   1.516  35.025   4.912
62664W        W33264  12.833   7.786   1.475
62665W        W33265  22.257  35.630  10.717
62666W        W33266  22.181  14.314  11.193
62667W        W33267  13.823   7.829   0.851
62668W        W33268  20.777  32.866  12.848
62669W        W33269  35.943  17.351  10.740
62670W        W33270  29.551  24.398   4.579
62671W        W33271  28.351  19.667   3.191
62672W        W33272  18.577   2.687   1.404
62673W        W33273  37.446  43.506  12.320
62674W        W33274   3.335  14.804  11.496
62675W        W33275  13.873   7.643   3.533
62676W        W33276  17.559  43.263   3.911
62677W        W33277  36.675  17.552  12.159
62678W        W33278  36.107  24.629   1.252
62679W        W33279  31.637  25.788  11.545
62680W        W33280   3.819  15.385  11.134
62681W        W33281  12.206  29.385  12.912
62682W        W33282   4.750  18.853  14.394
62683W        W33283   1.786   8.027   5.009
62684W        W33284  35.542  26.472   2.610
62685W        W33285  28.403  43.291  12.391
62686W        W33286  23.525  13.280  14.336
62687W        W33287   1.281  30.372   2.105
62688W        W33288  14.045  11.729  11.991
62689W        W33289   3.504  37.853  14.872
62690W        W33290   6.303  42.919  14.410
62691W        W33291  44.216  14.738  12.522
62692W        W33292  40.285  15.764   0.176
62693W        W33293   1.285  33.903   4.069
62694W        W33294   4.988  13.278   1.737
62695W        W33295  19.171  42.393  14.118
62696W        W33296  12.544  10.054  12.092
62697W        W33297   8.721  10.713   2.271
62698W        W33298  10.439   0.626  10.831
62699W        W33299  31.596  34.802  11.540
62700W        W33300  17.029  37.540  12.542
62701W        W33301  34.374  24.312   2.998
62702W        W33302  11.248  25.098   4.944
62703W        W33303  41.441  42.337  11.643
62704W        W33304  34.973  12.104   2.716
62705W        W33305  32.958  44.794   1.830
62706W        W33306   2.227  27.042  10.487
62707W        W33307  13.596  34.185  11.002
62708W        W33308  15.298   2.697   2.722
62709W        W33309  17.410   1.423  14.482
62710W        W33310  23.556  35.373  12.719
62711W        W33311   7.248  40.561  12.016
62712W        W33312  12.499  31.432  14.046
62713W        W33313  28.888  40.039   1.355
62714W        W33314  20.190  42.228   0.709
62715W        W33315  37.487  23.492  10.110
62716W        W33316  12.267   6.861   3.685
62717W        W33317  24.350   3.262   4.987
62718W        W33318  28.904  10.325  11.536
62719W        W33319  32.892   7.240  11.115
62720W        W33320  15.334  23.281   0.244
62721W        W33321  16.501  20.551  12.145
62722W        W33322   3.512  36.571  11.211
62723W        W33323   1.008  44.744   3.328
62724W        W33324  37.637  18.772  10.709
62725W        W33325   5.855  34.831   4.209
62726W        W33326   4.807  32.369  14.909
62727W        W33327  31.542  21.396   4.574
62728W        W33328   6.426  33.385   2.249
62729W        W33329  40.801   0.431  11.604
62730W        W33330  38.089  25.423   0.398
62731W        W33331  23.528  24.455   1.293
62732W        W33332  43.201  10.303  10.547
62733W        W33333   6.377  30.558  10.744
62734W        W33334   7.293   6.602  11.120
62735W        W33335  16.060  16.863  13.343
62736W        W33336   6.670  39.508   2.620
62737W        W33337  15.262  18.995  14.452
62738W        W33338  43.819  41.442  14.823
62739W        W33339  41.506  42.270   2.883
62740W        W33340  10.445  22.567  12.633
62741W        W33341   5.974  20.730  10.497
62742W        W33342   0.002  41.378  11.829
62743W        W33343  43.282  12.508   1.183
62744W        W33344  19.134   3.861   2.596
62745W        W33345  33.309  24.792  11.024
62746W        W33346  31.252  25.200  14.797
62747W        W33347   2.679  31.841  14.252
62748W        W33348  35.377  23.727  11.098
62749W        W33349  41.469   9.897   1.380
62750W        W33350  18.308   7.404  14.516
62751W        W33351  35.354  21.196  14.968
62752W        W33352  10.694  12.453  11.704
62753W        W33353  18.044  17.059   1.701
62754W        W33354   6.161  15.666  12.970
62755W        W33355  13.867  30.005   1.099
62756W        W33356  32.134   5.640   0.711
62757W        W33357  36.122  40.251   2.096
62758W        W33358   8.355  19.118   1.462
62759W        W33359  19.749   3.158   3.814
62760W        W33360   2.871  27.185   3.796
62761W        W33361  31.120  25.292   3.293
62762W        W33362   2.000  10.243  10.734
62763W        W33363   5.230   7.711   2.215
62764W        W33364  25.229  13.706  13.517
62765W        W33365  12.386   0.837  11.713
62766W        W33366  26.984  36.105  10.562
62767W        W33367  26.783  13.394  13.327
62768W        W33368  21.620  28.544  13.768
62769W        W33369  31.851  30.963  13.030
62770W        W33370  15.153  27.040  14.069
62771W        W33371  17.359   9.381   2.900
62772W        W33372  19.803  13.653   2.403
62773W        W33373  35.896  16.319   0.603
62774W        W33374  14.130  43.334   4.162
62775W        W33375  33.892  40.553  11.188
62776W        W33376   5.809   6.586   0.364
62777W        W33377  43.820   9.821  12.878
62778W        W33378   3.744   4.998   4.749
62779W        W33379  17.218  13.169  13.440
62780W        W33380   3.368  32.750   1.013
62781W        W33381  36.900  25.194   0.249
62782W        W33382  21.593  43.405  10.965
62783W        W33383  15.221  26.656  11.047
62784W        W33384  17.931  30.539  10.694
62785W        W33385  13.059  43.309   2.630
62786W        W33386  29.463  19.621   1.196
62787W        W33387  35.756  13.988  14.319
62788W        W33388  25.605  33.075   4.149
62789W        W33389  29.552  15.079  10.674
62790W        W33390  30.829  42.239  13.911
62791W        W33391  38.947  27.824   1.634
62792W        W33392  30.153  27.757   4.605
62793W        W33393   4.913   6.970  13.383
62794W        W33394  15.182  36.792  11.650
62795W        W33395  20.728   4.465   3.148
62796W        W33396  21.651  27.542  11.616
62797W        W33397   6.456  14.152  11.980
62798W        W33398  21.268  34.594   3.691
62799W        W33399  33.070   3.925  11.507
62800W        W33400   6.748   4.986  10.311
62801W        W33401  12.381  39.407  14.613
62802W        W33402  13.030   8.047  14.030
62803W        W33403  24.159  13.811  13.999
62804W        W33404   7.327   4.141  12.081
62805W        W33405  35.739  12.129  11.952
62806W        W33406  12.359   9.110   4.130
62807W        W33407  12.173  37.820   0.245
62808W        W33408  40.867  34.779  10.514
62809W        W33409   0.698  34.457  13.391
62810W        W33410  41.284  32.377   4.870
62811W        W33411  41.893  35.368   1.226
62812W        W33412  21.606  10.782   1.222
62813W        W33413  42.565  25.077   3.574
62814W        W33414   4.873   3.734  13.832
62815W        W33415  24.302  29.654   3.647
62816W        W33416  37.835  21.712  11.374
62817W        W33417  10.460   2.306  11.222
62818W        W33418   0.743  26.189   4.227
62819W        W33419  40.869  35.627  14.433
62820W        W33420  14.064  33.564   3.289
62821W        W33421  36.642  19.382  13.005
62822W        W33422   6.646  33.962  13.590
62823W        W33423   0.689  23.955   2.553
62824W        W33424  42.086  34.367   4.163
62825W        W33425  34.864  43.220  11.104
62826W        W33426   2.868  34.126   2.742
62827W        W33427  40.089  10.119   3.785
62828W        W33428  40.773  32.161   1.901
62829W        W33429  33.490   9.355  10.702
62830W        W33430  23.525  39.098  14.152
62831W        W33431  23.702  27.955   0.697
62832W        W33432  10.746  23.783  10.756
62833W        W33433   2.954  44.410  14.949
62834W        W33434  31.726   6.589   0.298
62835W        W33435  39.164  31.095  12.570
62836W        W33436  39.898   7.497  11.634
62837W        W33437  29.548  19.064  14.414
62838W        W33438  10.902  11.533   2.982
62839W        W33439  31.847  33.587   4.587
62840W        W33440  18.721   5.991  14.958
62841W        W33441   8.903  10.932  12.362
62842W        W33442  17.193  30.470  14.770
62843W        W33443  42.506  30.633  11.242
62844W        W33444   8.832  38.446   2.403
62845W        W33445  33.845  35.075  13.510
62846W        W33446  14.750  11.173  13.363
62847W        W33447  29.222  12.324   1.352
62848W        W33448  42.043  25.756   2.608
62849W        W33449  43.532   7.783  14.611
62850W        W33450   7.686   4.081  10.727
62851W        W33451  27.538  22.150  12.463
62852W        W33452   5.345   0.784  11.421
62853W        W33453  10.341  11.887   1.401
62854W        W33454  28.661  34.156   1.368
62855W        W33455  25.744  43.486   3.367
62856W        W33456  44.364  15.391  10.376
62857W        W33457  19.764  24.608   1.798
62858W        W33458   2.374  14.870   2.445
62859W        W33459  38.951  15.723  12.972
62860W        W33460  16.968  44.505  14.965
62861W        W33461   5.732  13.802  13.136
62862W        W33462   5.723  40.082  11.565
62863W        W33463  42.819   5.364  12.565
62864W        W33464  17.778   9.299  12.477
62865W        W33465  37.521  44.997  12.531
62866W        W33466  42.577  13.025  13.480
62867W        W33467  41.047  38.695  14.588
62868W        W33468  28.062  25.663   3.895
62869W        W33469   8.634   1.994  12.442
62870W        W33470  19.683  30.301  14.477
62871W        W33471  32.702   6.949  14.851
62872W        W33472  40.417  31.611  13.551
62873W        W33473  17.272   1.461   3.190
62874W        W33474  44.499  27.456  11.598
62875W        W33475  22.050  42.347   0.430
62876W        W33476  37.511  40.854   0.964
62877W        W33477  42.878  39.396  10.559
62878W        W33478  13.157  19.743  11.721
62879W        W33479   2.807  39.348  14.302
62880W        W33480  23.428  40.992  11.470
62881W        W33481  38.318  28.916   2.397
62882W        W33482  23.469  10.209  13.792
62883W        W33483  43.948  28.133  14.848
62884W        W33484  33.498  40.522  12.755
62885W        W33485  39.586  23.152   2.522
62886W        W33486   7.394  34.445  14.156
62887W        W33487  32.755  17.921  12.667
62888W        W33488  27.126  15.833   1.975
62889W        W33489  38.139   6.621   2.777
62890W        W33490  41.297  19.258   2.784
62891W        W33491   0.949  15.423  14.431
62892W        W33492  31.504   4.628   0.730
62893W        W33493  28.882   2.282   0.412
62894W        W33494  13.615  38.097  10.990
62895W        W33495  36.889  38.525   1.900
62896W        W33496   8.076   0.206   2.924
62897W        W33497  27.583  44.232  12.154
62898W        W33498  25.999  12.902  12.736
62899W        W33499  26.394   3.374  10.667
62900W        W33500  38.467  42.907  13.477
62901W        W33501  40.276  15.246   1.390
62902W        W33502  25.216  16.068   0.881
62903W        W33503  22.736  41.220   4.104
62904W        W33504   7.142  39.360  11.480
62905W        W33505  19.869  29.019  11.221
62906W        W33506  37.809  19.348   2.780
62907W        W33507  36.308  31.515  12.472
62908W        W33508  42.840   3.947   0.415
62909W        W33509  39.948  43.338   1.920
62910W        W33510  32.108  13.578   4.566
62911W        W33511  20.091  44.553   4.145
62912W        W33512  43.220  14.593  13.114
62913W        W33513  37.249  29.850   5.150
62914W        W33514   5.247  40.263  12.839
62915W        W33515  28.394  22.061   1.149
62916W        W33516  32.526  40.897  11.898
62917W        W33517  21.276  20.665   4.534
62918W        W33518  22.421  30.954  13.020
62919W        W33519  14.293  19.189   2.194
62920W        W33520  33.574  44.767   1.284
62921W        W33521  41.285  27.057   2.394
62922W        W33522  27.167  17.480   2.122
62923W        W33523  43.479  19.713  12.535
62924W        W33524  43.275  26.817  14.763
62925W        W33525  27.282  20.341  11.619
62926W        W33526  36.119  16.057   1.971
62927W        W33527  33.974  37.623   0.274
62928W        W33528  32.572  38.537   0.525
62929W        W33529  42.816  11.218   3.667
62930W        W33530  43.232  29.737   0.503
62931W        W33531   2.387  31.133   3.270
62932W        W33532  14.876  35.554  12.032
62933W        W33533  17.347  31.477  10.572
62934W        W33534  30.035   8.390   0.312
62935W        W33535  30.632  29.765   1.826
62936W        W33536  26.464  35.888  14.830
62937W        W33537  30.558  44.782   1.864
62938W        W33538  19.429  30.958  12.766
62939W        W33539  12.796   9.951  13.999
62940W        W33540  17.279  43.427  14.248
62941W        W33541  19.302  43.447   3.304
62942W        W33542  42.808   7.758  10.577
62943W        W33543  30.744  39.930   4.002
62944W        W33544   7.651  18.950   1.825
62945W        W33545  26.579  34.001  12.637
62946W        W33546  37.432  33.882  14.296
62947W        W33547  14.438  37.272  11.123
62948W        W33548  25.494  38.982  12.190
62949W        W33549  21.767  12.864  10.743
62950W        W33550  36.765  25.924   1.699
62951W        W33551  34.993  31.033   4.918
62952W        W33552  18.492  28.441   3.280
62953W        W33553  26.988  40.857  13.387
62954W        W33554   4.727   1.373   3.935
62955W        W33555  19.221  35.995  13.861
62956W        W33556  29.105   7.656   0.746
62957W        W33557   1.964  18.664  11.428
62958W        W33558  36.528  36.358  13.609
62959W        W33559  19.154  15.701  12.823
62960W        W33560   5.268  26.107  14.043
62961W        W33561   8.723  15.829  13.820
62962W        W33562  27.019   2.902   5.238
62963W        W33563  18.050  43.971   3.739
62964W        W33564  28.591  22.047   3.410
62965W        W33565  17.989  13.304  13.827
62966W        W33566  22.753   0.830  14.582
62967W        W33567  33.520   2.147   4.606
62968W        W33568   2.551  23.679  11.178
62969W        W33569  12.608  18.106   0.468
62970W        W33570   6.294  39.302  14.385
62971W        W33571  27.126   1.230  11.590
62972W        W33572  30.102  31.688  13.965
62973W        W33573   1.062  43.056  10.749
62974W        W33574  37.430  12.644  12.314
62975W        W33575  28.850  27.434   2.751
62976W        W33576  27.428   0.982   3.772
62977W        W33577  25.994   4.617  10.462
62978W        W33578  40.237  28.554   0.722
62979W        W33579  12.391   7.904  10.616
62980W        W33580  44.310  38.549  11.992
62981W        W33581   4.302  27.617  11.080
62982W        W33582  44.470  25.615  14.250
62983W        W33583  24.933  42.947  10.654
62984W        W33584  16.747  12.434  10.646
62985W        W33585  13.757  19.336   4.586
62986W        W33586  35.506  17.607   4.338
62987W        W33587  35.605  26.794   3.067
62988W        W33588  24.131  18.815   0.155
62989W        W33589  22.029  28.913   4.197
62990W        W33590   3.249   1.381  11.056
62991W        W33591  20.170  34.598   4.578
62992W        W33592  17.978  40.532   0.779
62993W        W33593  22.610  32.110   1.581
62994W        W33594  31.929  25.078  10.582
62995W        W33595   9.607   2.442  14.506
62996W        W33596  28.156  32.397   2.752
62997W        W33597   7.863   7.645   4.762
62998W        W33598  23.160  44.752  13.105
62999W        W33599  14.770  10.309   3.647
63000W        W33600  22.698  23.339  13.353
63001W        W33601  32.875  31.964   0.837
63002W        W33602   0.395  11.690  10.523
63003W        W33603   0.921  41.612  10.178
63004W        W33604   7.848  42.595  12.558
63005W        W33605  17.066  17.673  13.901
63006W        W33606  41.614   7.045  10.266
63007W        W33607  40.564  21.228   0.435
63008W        W33608  36.289   8.293  14.314
63009W        W33609  33.373  11.848   1.547
63010W        W33610  12.856  17.235  13.580
63011W        W33611  32.880  17.294  14.058
63012W        W33612  25.250   1.827  12.155
63013W        W33613   7.645  29.654   1.499
63014W        W33614  14.675  44.088  13.088
63015W        W33615  32.541  34.572  13.203
63016W        W33616  17.735  10.763   2.959
63017W        W33617  10.109  14.127  12.475
63018W        W33618  34.308   0.572  13.944
63019W        W33619  22.538   4.864   1.828
63020W        W33620  21.076   9.878  11.182
63021W        W33621  27.942  33.508  12.331
63022W        W33622  12.162  38.366  12.027
63023W        W33623  32.293  39.072  11.672
63024W        W33624   5.241  30.532  12.113
63025W        W33625   2.107  28.553   4.183
63026W        W33626   4.911  35.404  11.112
63027W        W33627  20.427   7.026  14.434
63028W        W33628  29.879   2.375   1.864
63029W        W33629   8.103  19.066   1.026
63030W        W33630   6.682  22.605  13.891
63031W        W33631  32.458   1.973  10.666
63032W        W33632  30.907   5.568  11.353
63033W        W33633  35.445   8.043  11.186
63034W        W33634  21.985  43.472  12.341
63035W        W33635  13.201  41.371  14.609
63036W        W33636  24.963  38.910   0.358
63037W        W33637   6.310  22.934  10.562
63038W        W33638  40.266  27.983   1.364
63039W        W33639  16.587   4.989  11.250
63040W        W33640  38.602   1.784   0.912
63041W        W33641  41.618  34.444   0.837
63042W        W33642  28.580  35.056   3.338
63043W        W33643  19.514  40.802  13.041
63044W        W33644  41.409  15.412   0.413
63045W        W33645  13.859  31.849   2.877
63046W        W33646   4.728  14.214  11.129
63047W        W33647   6.339  27.473   0.281
63048W        W33648  13.337  26.415  12.499
63049W        W33649  44.984  22.260   2.325
63050W        W33650  10.890  40.224  14.527
63051W        W33651  19.683  13.173  14.267
63052W        W33652  41.024   7.909  12.930
63053W        W33653  39.238  41.977  11.391
63054W        W33654  20.292  28.035  14.943
63055W        W33655   6.654  30.893  10.462
63056W        W33656  23.588  42.601  12.853
63057W        W33657  31.541   3.894   0.014
63058W        W33658  33.873  42.674   0.436
63059W        W33659  15.823  10.124   0.911
63060W        W33660  23.177  13.856   4.067
63061W        W33661  36.972  38.480   4.215
63062W        W33662  39.942  11.997   0.792
63063W        W33663  15.063  44.966  11.059
63064W        W33664  18.608  23.126   3.716
63065W        W33665  13.756  24.228   4.063
63066W        W33666  28.542  31.584   0.465
63067W        W33667  22.308   1.229   3.666
63068W        W33668  22.152   5.203  10.585
63069W        W33669   7.964  10.371  10.819
63070W        W33670   9.227  33.874   1.403
63071W        W33671  18.666   1.747   1.170
63072W        W33672  11.077   9.451  13.425
63073W        W33673  44.767  18.559   3.325
63074W        W33674   8.519  29.583  11.454
63075W        W33675  22.597  22.297  10.972
63076W        W33676  38.971  22.560  14.829
63077W        W33677  41.412  28.150   1.213
63078W        W33678  27.926  33.744  12.810
63079W        W33679  27.434  32.231   3.806
63080W        W33680  17.210   2.904   3.103
63081W        W33681  17.603  10.856  11.599
63082W        W33682   9.914   9.784   2.466
63083W        W33683  19.126   9.747  12.558
63084W        W33684  22.253  24.586   2.764
63085W        W33685  41.898  41.443  10.930
63086W        W33686  17.732  30.107   3.238
63087W        W33687  29.957  39.232  11.481
63088W        W33688  13.168  42.887  12.324
63089W        W33689  11.777   0.170   9.337
63090W        W33690   6.002  29.382   0.067
63091W        W33691  20.798   7.389  14.382
63092W        W33692  27.978  37.585   1.403
63093W        W33693   8.198   9.951   1.766
63094W        W33694  28.207  44.534  14.035
63095W        W33695  31.668  39.411   2.347
63096W        W33696  25.791  17.713  10.493
63097W        W33697   2.461  19.573   3.530
63098W        W33698  36.531   1.318   2.332
63099W        W33699  26.028  19.563   4.203
63100W        W33700  33.555  41.571  14.941
63101W        W33701  23.648  22.093   4.434
63102W        W33702  32.782   5.649   2.316
63103W        W33703   4.167   3.442   3.110
63104W        W33704  20.302  14.773  14.440
63105W        W33705  12.121  21.716  13.399
63106W        W33706  44.525  36.668  11.586
63107W        W33707  25.533  19.523  12.371
63108W        W33708  25.833   6.184   2.792
63109W        W33709   5.293  40.882  13.427
63110W        W33710  36.185  28.538   3.000
63111W        W33711  10.161  36.242  12.306
63112W        W33712  12.127  44.256   2.652
63113W        W33713  38.061  10.637   4.283
63114W        W33714  21.228  40.881   2.887
63115W        W33715  38.898  10.517   1.782
63116W        W33716  31.694  30.288   0.122
63117W        W33717   9.394   9.560  11.179
63118W        W33718  25.478   0.552  12.874
63119W        W33719  14.817  31.407   3.910
63120W        W33720  27.210  21.175  10.613
63121W        W33721  42.063  39.766  11.510
63122W        W33722  25.617  39.485   0.439
63123W        W33723  33.104  19.134  14.906
63124W        W33724  31.658  42.766   1.022
63125W        W33725  14.813  35.545  11.153
63126W        W33726   8.421  30.644  14.167
63127W        W33727  28.129   5.049   2.743
63128W        W33728  24.660   6.453   4.530
63129W        W33729  23.233  18.108  14.872
63130W        W33730   0.671  32.028   1.481
63131W        W33731   4.451  13.955  12.768
63132W        W33732   8.796  43.512   3.624
63133W        W33733  13.864   0.643   2.191
63134W        W33734  28.684  37.327   2.734
63135W        W33735   4.082  14.902  13.846
63136W        W33736  38.897  37.922  12.004
63137W        W33737  29.310  44.272   5.013
63138W        W33738  20.702  39.488  14.476
63139W        W33739  10.100   8.229  14.802
63140W        W33740  42.495  20.574  13.814
63141W        W33741   9.232  36.605   3.233
63142W        W33742  13.089  17.726   0.934
63143W        W33743  36.537  19.841   5.162
63144W        W33744  15.180  41.976   1.359
63145W        W33745  20.657  35.605  13.731
63146W        W33746  14.032  23.051  11.543
63147W        W33747   2.318  43.445   0.791
63148W        W33748  14.822  26.431   0.319
63149W        W33749  43.366  31.544   1.144
63150W        W33750   8.118  44.822  13.372
63151W        W33751  19.658  34.815  11.153
63152W        W33752  24.147  42.397  10.968
63153W        W33753  10.574  44.454   0.312
63154W        W33754   9.499  33.568  11.198
63155W        W33755   6.892  32.381   4.212
63156W        W33756  34.398  29.003  13.784
63157W        W33757  44.452  31.959   0.022
63158W        W33758   2.416  18.994   4.258
63159W        W33759   0.053  34.520   4.819
63160W        W33760  12.088   8.609   1.003
63161W        W33761  33.396  37.204   1.967
63162W        W33762  27.188  11.237   3.260
63163W        W33763   1.410   7.616   2.336
63164W        W33764  10.672  42.741  11.878
63165W        W33765  44.769   3.788  14.501
63166W        W33766   2.686  42.820  12.916
63167W        W33767  11.249  33.037  13.667
63168W        W33768  27.498  33.950  14.976
63169W        W33769  19.272  44.976   4.840
63170W        W33770  41.003  12.200   4.138
63171W        W33771  15.349  15.798  13.508
63172W        W33772  17.808  40.335  12.280
63173W        W33773  17.922  19.009  13.428
63174W        W33774   6.684   5.793  11.533
63175W        W33775  34.974   7.980  14.802
63176W        W33776  28.430   1.230  13.555
63177W        W33777  12.281  15.194  12.869
63178W        W33778  39.537  42.673   2.712
63179W        W33779  25.577  12.037  13.945
63180W        W33780  42.875  36.972   1.212
63181W        W33781  15.118   9.217  12.379
63182W        W33782   3.291  15.061   4.801
63183W        W33783  25.741  34.008   4.575
63184W        W33784  33.433  37.149  14.102
63185W        W33785  24.380   1.910  12.914
63186W        W33786  25.956  14.353   3.775
63187W        W33787  41.346  28.062  11.863
63188W        W33788  26.719  43.230   3.247
63189W        W33789  33.216  30.817   1.395
63190W        W33790  12.245  20.712   1.627
63191W        W33791  19.548   7.625   0.767
63192W        W33792  17.889  16.721  13.992
63193W        W33793  18.806  37.647  13.405
63194W        W33794  29.049  15.680   1.886
63195W        W33795  10.727  35.922   5.070
63196W        W33796   9.828  27.013   2.151
63197W        W33797  31.332  21.194   3.150
63198W        W33798  18.039  31.600   3.841
63199W        W33799  14.315  28.240   0.832
63200W        W33800  19.257  38.947  11.021
63201W        W33801  23.021  22.792  13.913
63202W        W33802  36.994  41.246  14.062
63203W        W33803  41.945  42.413  10.696
63204W        W33804  43.425  41.121   0.448
63205W        W33805   5.294  12.268  14.945
63206W        W33806  27.211  36.533  12.012
63207W        W33807  42.763  40.412   3.040
63208W        W33808  31.056  44.937  12.828
63209W        W33809  15.827  10.801   2.552
63210W        W33810  26.673  15.784   1.470
63211W        W33811  14.714  20.219   0.823
63212W        W33812  26.210  14.372  13.956
63213W        W33813  39.642  39.366   4.954
63214W        W33814   2.886  31.490   1.272
63215W        W33815   0.236  19.760   4.532
63216W        W33816   9.390  26.182   1.500
63217W        W33817  31.835  32.493   1.689
63218W        W33818   5.043  23.204  13.392
63219W        W33819  24.388  31.992  10.188
63220W        W33820  35.409   2.918  11.135
63221W        W33821  27.176  33.997  10.775
63222W        W33822  12.358  27.038   3.726
63223W        W33823  25.622  37.499  10.682
63224W        W33824  19.133  25.250   0.761
63225W        W33825  10.109  36.461  11.407
63226W        W33826  30.645  18.038  10.468
63227W        W33827  29.946  14.108   2.785
63228W        W33828  23.177  41.814   3.669
63229W        W33829  27.025  16.831  11.171
63230W        W33830  18.727  18.998   0.599
63231W        W33831  10.682   8.132   2.928
63232W        W33832  10.851  37.599   1.559
63233W        W33833  27.661  43.796   0.585
63234W        W33834   6.337  24.513   1.756
63235W        W33835  29.560  13.553   4.899
63236W        W33836  14.708  41.777   0.842
63237W        W33837  32.054  17.849   2.340
63238W        W33838  18.060  17.904   4.280
63239W        W33839  44.712  35.808  11.755
63240W        W33840   3.920  18.396  10.558
63241W        W33841  35.849  13.128  14.506
63242W        W33842  10.251  34.767  10.501
63243W        W33843  26.717  12.507  14.478
63244W        W33844  13.379  37.454   2.918
63245W        W33845  33.684  39.770   1.863
63246W        W33846   0.444  12.367  12.077
63247W        W33847  11.706  19.125  11.309
63248W        W33848   4.957   9.817   3.623
63249W        W33849  25.405  18.226   0.268
63250W        W33850  19.857   6.999   0.333
63251W        W33851   9.280  10.956  10.481
63252W        W33852  32.558  21.423   0.087
63253W        W33853  27.250  28.912   1.293
63254W        W33854   2.789  10.072  11.112
63255W        W33855  12.374  12.770  12.316
63256W        W33856  36.033  23.108  10.718
63257W        W33857  34.999  11.316   4.044
63258W        W33858  40.319   0.835   3.334
63259W        W33859  42.895   3.176  14.973
63260W        W33860  27.384  20.839  11.522
63261W        W33861  22.984  44.441  14.289
63262W        W33862  19.245   2.688  14.314
63263W        W33863  31.375  16.752  10.421
63264W        W33864  16.849  14.179  13.112
63265W        W33865  35.095  41.736  14.350
63266W        W33866   5.326  15.080  12.512
63267W        W33867  29.887  22.205   1.448
63268W        W33868  31.927  40.075   3.212
63269W        W33869  23.570  17.632   2.174
63270W        W33870   9.561  37.134   1.461
63271W        W33871  23.293  24.315  11.026
63272W        W33872  41.010   2.254  10.273
63273W        W33873   6.151  25.684   2.640
63274W        W33874  40.708   1.670  13.494
63275W        W33875  11.553  14.610  11.638
63276W        W33876  22.676  44.956  13.383
63277W        W33877  15.533  41.537  11.605
63278W        W33878  21.570  26.188   4.239
63279W        W33879  40.553  36.853  12.062
63280W        W33880  27.475  11.028  11.046
63281W        W33881  31.785  18.243  13.884
63282W        W33882  31.350  40.435  13.875
63283W        W33883  13.813  22.537  10.771
63284W        W33884  26.018  21.741   3.310
63285W        W33885  27.071  21.631  13.817
63286W        W33886  38.123  39.527   0.780
63287W        W33887  38.330  27.764   4.389
63288W        W33888  30.762  40.134  12.135
63289W        W33889  20.664  27.282   4.986
63290W        W33890  26.687  30.093   3.162
63291W        W33891   3.220  41.974  11.447
63292W        W33892  31.206  16.293  10.615
63293W        W33893   2.935   3.654  12.172
63294W        W33894   1.010  30.938   5.013
63295W        W33895   5.333  39.891   2.273
63296W        W33896   2.147   2.307   0.528
63297W        W33897   0.551  15.348  10.701
63298W        W33898  38.227  26.995   3.961
63299W        W33899  36.449  15.699   0.487
63300W        W33900  10.876  39.826  11.790
63301W        W33901  41.144  42.892  11.601
63302W        W33902   4.629  11.223  11.509
63303W        W33903   7.633  41.086  12.415
63304W        W33904  38.170   4.239   3.800
63305W        W33905  37.891   8.939   0.226
63306W        W33906  32.903  31.675  14.387
63307W        W33907   0.877  14.600   3.139
63308W        W33908  10.385  24.968   3.810
63309W        W33909  24.397  22.809   2.392
63310W        W33910  34.929  15.578  13.249
63311W        W33911   0.683  22.699  12.384
63312W        W33912  22.484  29.617  13.312
63313W        W33913  19.898   5.749  12.514
63314W        W33914  20.622   0.775   2.233
63315W        W33915   4.134  24.675  14.853
63316W        W33916   6.796  11.146   0.853
63317W        W33917  20.664  40.016   1.702
63318W        W33918  12.395  30.346  12.964
63319W        W33919  41.364  28.544   3.853
63320W        W33920   7.343   0.465   3.659
63321W        W33921  35.957  32.872  12.146
63322W        W33922  41.769  37.359  13.417
63323W        W33923   4.417  37.887  10.675
63324W        W33924  20.313  38.968   4.808
63325W        W33925   0.345  20.114   2.133
63326W        W33926  14.794   8.696   4.632
63327W        W33927   6.908  43.724  13.579
63328W        W33928  42.834  23.573  13.502
63329W        W33929  31.038  34.110   0.651
63330W        W33930  21.419   3.465   5.050
63331W        W33931  33.214  43.592  11.021
63332W        W33932  39.256  20.038  13.823
63333W        W33933   4.491  27.603   3.310
63334W        W33934  18.633  29.153   1.685
63335W        W33935  29.412  20.186  13.100
63336W        W33936  39.513  33.406  14.004
63337W        W33937  41.281   3.232  11.621
63338W        W33938  10.330   7.475  11.118
63339W        W33939  37.859  21.646  12.960
63340W        W33940  31.158  20.124   2.356
63341W        W33941  35.704  22.219   4.016
63342W        W33942  38.283  25.837   0.088
63343W        W33943   4.770  29.595  13.498
63344W        W33944  38.946  26.613   5.039
63345W        W33945  37.883  19.175   1.876
63346W        W33946   3.027   6.335   0.828
63347W        W33947   4.747  42.298  11.988
63348W        W33948   4.823   3.418   5.094
63349W        W33949  31.056  20.804  10.467
63350W        W33950  19.162  30.420  13.006
63351W        W33951  32.025  25.622   0.359
63352W        W33952  30.143  12.978   4.219
63353W        W33953  12.779  24.464   1.302
63354W        W33954  17.598  28.372  14.255
63355W        W33955   2.489  44.010  14.782
63356W        W33956  30.903  26.603   3.671
63357W        W33957  26.724   7.397   1.724
63358W        W33958   6.386  41.104   3.728
63359W        W33959   3.851  21.168   3.729
63360W        W33960  30.718   7.807  14.838
63361W        W33961  37.571  11.100   2.794
63362W        W33962  24.200  10.731  12.052
63363W        W33963  15.802   3.709   2.420
63364W        W33964  36.351  30.165  13.951
63365W        W33965  43.681  10.944  14.723
63366W        W33966  33.920  36.531   4.082
63367W        W33967   1.434  24.474   2.963
63368W        W33968  35.030  36.483   1.845
63369W        W33969  24.696  39.894   1.655
63370W        W33970  33.838  34.939  10.929
63371W        W33971  41.328  38.696  11.039
63372W        W33972  39.916  17.470   3.238
63373W        W33973  16.590  16.821   4.195
63374W        W33974  20.037  21.265   0.457
63375W        W33975  23.244  42.436   1.316
63376W        W33976   5.714  13.119   4.570
63377W        W33977  38.449  25.482   0.869
63378W        W33978  38.834  21.541  10.476
63379W        W33979   9.173  18.935  10.978
63380W        W33980  18.779  31.703   4.290
63381W        W33981   2.883  39.298   2.219
63382W        W33982  34.434  35.395  10.983
63383W        W33983  25.534  11.190   1.450
63384W        W33984   1.907  12.026   1.184
63385W        W33985  43.477  32.377   0.856
63386W        W33986   5.238  44.659   1.953
63387W        W33987  13.047  22.673   1.661
63388W        W33988  36.057   1.800  14.740
63389W        W33989  14.121  31.905   1.429
63390W        W33990  20.567   8.357   2.639
63391W        W33991  20.211  33.965   4.034
63392W        W33992  32.996   7.428   2.529
63393W        W33993  26.437  10.538   3.397
63394W        W33994  39.977  11.903   3.857
63395W        W33995  18.764  21.167  10.265
63396W        W33996  33.540  18.389  10.703
63397W        W33997  11.500  40.112  13.447
63398W        W33998  19.249  11.188   0.440
63399W        W33999  35.673   0.732   1.552
63400W        W34000  26.108  17.278  14.257
63401W        W34001  12.799  22.351  12.927
63402W        W34002  44.739  17.139   1.424
63403W        W34003  40.804  30.525   4.574
63404W        W34004  35.743   0.382  11.190
63405W        W34005  24.465  43.310  11.375
63406W        W34006  17.548  29.513  13.922
63407W        W34007  15.335  13.169   2.795
63408W        W34008  15.661   5.426   1.766
63409W        W34009  32.036  16.344   3.455
63410W        W34010  13.440  39.298   4.161
63411W        W34011  24.680  33.671   2.719
63412W        W34012   9.346  42.934   1.953
63413W        W34013  25.485  38.388  11.593
63414W        W34014  18.480  17.176   0.897
63415W        W34015  14.386  23.018  13.351
63416W        W34016  38.387  33.974   4.710
63417W        W34017  44.253   8.961  10.257
63418W        W34018  20.259  43.318  12.873
63419W        W34019  26.179  40.592  12.250
63420W        W34020  15.626  38.302   3.920
63421W        W34021  10.335  19.100   3.693
63422W        W34022  26.227  26.476  13.050
63423W        W34023   5.378  41.804   4.392
63424W        W34024  32.875  10.406   2.656
63425W        W34025  12.816  12.607  11.551
63426W        W34026  24.945  20.192  10.643
63427W        W34027  16.752  39.256  12.922
63428W        W34028  44.679   9.089   2.874
63429W        W34029  16.825   5.885   3.167
63430W        W34030  38.216  17.681   1.046
63431W        W34031  17.870  22.050   1.893
63432W        W34032  29.358  22.541  12.361
63433W        W34033   4.212  27.909  14.767
63434W        W34034  28.836   7.845  10.929
63435W        W34035  38.107   1.435  14.122
63436W        W34036  27.513   8.624   2.082
63437W        W34037  43.359  43.922  10.355
63438W        W34038   0.947  29.564   4.656
63439W        W34039   5.896  23.703   1.551
63440W        W34040  31.386  29.407  11.850
63441W        W34041  14.260  30.645  14.409
63442W        W34042  12.415  26.137  13.162
63443W        W34043   8.437   5.573   2.160
63444W        W34044  11.130  20.192  12.418
63445W        W34045  12.673  26.669  11.378
63446W        W34046  33.679  17.909  14.791
63447W        W34047  40.969  41.122   2.886
63448W        W34048  10.676  23.027  12.473
63449W        W34049  18.474   0.833  13.273
63450W        W34050   4.443  17.537  12.580
63451W        W34051   4.269  26.152   3.669
63452W        W34052  23.060   2.822  10.434
63453W        W34053  29.323  13.816  11.255
63454W        W34054   9.876  38.766   3.421
63455W        W34055   4.643  38.959   2.664
63456W        W34056  42.373  38.368   1.963
63457W        W34057  37.874  30.041  13.084
63458W        W34058   6.701  31.991   2.790
63459W        W34059  38.449   1.801   4.307
63460W        W34060  31.610   7.932   0.240
63461W        W34061   1.788  16.872   2.622
63462W        W34062  10.367  23.622  12.321
63463W        W34063  33.854  21.078   2.326
63464W        W34064  14.425  39.840   0.676
63465W        W34065   5.384   2.444   3.595
63466W        W34066  12.454   1.630   1.857
63467W        W34067  25.658  41.923   2.406
63468W        W34068   9.223  33.717   0.904
63469W        W34069  16.712   8.428  14.442
63470W        W34070   7.799  26.493   1.282
63471W        W34071  18.661  43.694  14.926
63472W        W34072   0.823  33.875  11.850
63473W        W34073  18.424  20.587   1.621
63474W        W34074  24.427  41.994   0.306
63475W        W34075  17.392  14.167  13.622
63476W        W34076  34.775  21.522  13.993
63477W        W34077  14.255   0.039  12.141
63478W        W34078  35.305  37.937  12.512
63479W        W34079  27.620   3.110  13.238
63480W        W34080   6.832  18.666   0.702
63481W        W34081  35.938   2.031   2.288
63482W        W34082  29.887  40.413  12.048
63483W        W34083  10.453  19.674   0.405
63484W        W34084   2.447  39.056   3.300
63485W        W34085  17.191  30.272  12.218
63486W        W34086  14.802  37.142  11.696
63487W        W34087   3.234  34.505   3.680
63488W        W34088   0.913  21.565   4.766
63489W        W34089   8.423  38.742  12.637
63490W        W34090   2.989  21.176   2.077
63491W        W34091  20.135   0.569  12.449
63492W        W34092  37.555  27.888   0.813
63493W        W34093  22.882  41.410  12.645
63494W        W34094  14.644  25.138  14.825
63495W        W34095  34.582  18.696   3.891
63496W        W34096  19.014  44.999   2.339
63497W        W34097  42.531  23.424   0.961
63498W        W34098  26.711  29.758  11.413
63499W        W34099  15.091  13.912   0.331
63500W        W34100   0.491  12.392   1.300
63501W        W34101   0.364   0.346  12.876
63502W        W34102  16.240  33.162  13.799
63503W        W34103  12.591  20.353   5.007
63504W        W34104  44.577  19.250   0.308
63505W        W34105  44.424  32.690  11.171
63506W        W34106  42.258   0.010   0.758
63507W        W34107  32.414  35.375   2.859
63508W        W34108  38.614   5.964  10.333
63509W        W34109  15.547  16.140  11.867
63510W        W34110  32.223   7.149  14.795
63511W        W34111   3.925   5.776  12.845
63512W        W34112   9.191  33.617   3.669
63513W        W34113  29.997  40.172   3.181
63514W        W34114   9.769  32.151   0.830
63515W        W34115  42.239   5.363   1.821
63516W        W34116  26.790  34.476  14.984
63517W        W34117  13.127  11.638  12.009
63518W        W34118  25.446  17.843   0.943
63519W        W34119   1.811  17.343  13.047
63520W        W34120  44.780  15.600  13.322
63521W        W34121  12.906  15.296   2.331
63522W        W34122  42.082   8.288  11.507
63523W        W34123  29.879   4.563  13.006
63524W        W34124  14.730  28.910  11.965
63525W        W34125  21.093  39.167   2.483
63526W        W34126  24.720   0.504  11.050
63527W        W34127  20.235  13.592  11.188
63528W        W34128   5.277   6.269   0.683
63529W        W34129  24.628  26.218  12.854
63530W        W34130  25.499  29.048  14.068
63531W        W34131  10.955  10.140  11.892
63532W        W34132   4.662  12.229  11.606
63533W        W34133   9.835  10.127   2.939
63534W        W34134  32.924   6.018  11.435
63535W        W34135   1.611  41.582   3.821
63536W        W34136   3.223  34.531   0.806
63537W        W34137  14.770   0.720  14.143
63538W        W34138  10.870  13.639  12.363
63539W        W34139  30.578  37.526   2.953
63540W        W34140  18.989   5.245   2.921
63541W        W34141  30.001  32.872  12.676
63542W        W34142   2.877   8.970   3.579
63543W        W34143   8.673  44.467   4.546
63544W        W34144  28.136  35.583  14.858
63545W        W34145  36.637  39.059   2.669
63546W        W34146  11.158  11.618   1.602
63547W        W34147  25.514  12.485  12.107
63548W        W34148  28.912   6.874   3.264
63549W        W34149  17.293  15.357   0.125
63550W        W34150  29.459  16.644   2.777
63551W        W34151  13.182  42.013   1.204
63552W        W34152  32.322  33.588   3.310
63553W        W34153  36.170  16.316  12.480
63554W        W34154  13.885  32.028   2.399
63555W        W34155  17.881  35.384   2.189
63556W        W34156  30.795  27.063  13.149
63557W        W34157   2.256  17.517   1.111
63558W        W34158  30.855  37.609  14.862
63559W        W34159  20.091   1.298  13.123
63560W        W34160  37.893  42.302  11.924
63561W        W34161  31.953   9.117   4.900
63562W        W34162  42.833  38.297   4.425
63563W        W34163  30.464  24.241   1.295
63564W        W34164  25.192  32.994  12.159
63565W        W34165  26.693  40.540  12.937
63566W        W34166  32.050  28.157  10.994
63567W        W34167   7.859  32.626  13.112
63568W        W34168  33.264   4.072   0.775
63569W        W34169  22.201  38.361  10.683
63570W        W34170  25.881  35.472  14.529
63571W        W34171   0.470  29.085   4.229
63572W        W34172  15.620  29.971  11.415
63573W        W34173  23.509  38.705   0.207
63574W        W34174  23.481  44.632   1.468
63575W        W34175  20.249  12.662  14.103
63576W        W34176  26.387  40.334  14.847
63577W        W34177  16.152   5.212  11.070
63578W        W34178  17.793   0.488   2.881
63579W        W34179  18.238  38.044   3.322
63580W        W34180  15.161   7.642  13.369
63581W        W34181  14.409  30.019   2.745
63582W        W34182  21.738  16.712  14.450
63583W        W34183   3.564  30.578   0.857
63584W        W34184  38.395  29.735   3.881
63585W        W34185  37.356  13.742   4.866
63586W        W34186   7.915   5.568  12.875
63587W        W34187  25.095  26.697   1.299
63588W        W34188  41.792  13.772   4.178
63589W        W34189   3.132  28.007  13.448
63590W        W34190  21.221  19.324   0.249
63591W        W34191  13.093   3.784   0.973
63592W        W34192  34.610  23.005  10.856
63593W        W34193   8.026   7.838   4.308
63594W        W34194  40.332  20.116  11.773
63595W        W34195  10.147  10.926   2.766
63596W        W34196  18.848  30.399  11.133
63597W        W34197  34.594  18.535   2.898
63598W        W34198  19.277   2.388  12.997
63599W        W34199  30.434   1.232  14.739
63600W        W34200   6.774  20.175   1.999
63601W        W34201  44.187  42.215   1.726
63602W        W34202  44.524  30.653   4.090
63603W        W34203  41.551   8.305   4.837
63604W        W34204   1.792  33.553  14.114
63605W        W34205  42.395  26.953   0.846
63606W        W34206  24.681  33.199   4.305
63607W        W34207  23.415  25.210  13.811
63608W        W34208   5.895  27.759  11.212
63609W        W34209  14.964  28.049  10.110
63610W        W34210   5.843  32.007   1.463
63611W        W34211  39.160   8.817   2.986
63612W        W34212  13.344  20.798   0.678
63613W        W34213   2.220  37.902   1.374
63614W        W34214   2.297  17.071   4.561
63615W        W34215  23.297   1.871   4.121
63616W        W34216   0.947  12.200  12.667
63617W        W34217  19.666  21.003  12.877
63618W        W34218  43.984  44.289   0.950
63619W        W34219   3.253  41.570   3.872
63620W        W34220  37.348  30.180  13.759
63621W        W34221  11.232  10.191   2.492
63622W        W34222   8.224  35.187   3.872
63623W        W34223  24.640  32.645   2.478
63624W        W34224   8.392  16.671  14.360
63625W        W34225  39.946  37.857   0.421
63626W        W34226   8.981  31.643  11.571
63627W        W34227   1.820  42.083  11.264
63628W        W34228   1.786   4.353   2.236
63629W        W34229  18.023   7.727   3.283
63630W        W34230  19.566  25.653   2.975
63631W        W34231  14.796  15.733   1.229
63632W        W34232  26.239  39.034   0.472
63633W        W34233   2.920   7.600   1.927
63634W        W34234  22.039   9.754  12.621
63635W        W34235  22.781  24.184  12.957
63636W        W34236  14.999  21.564   2.015
63637W        W34237  26.230  41.008  12.866
63638W        W34238  23.029  29.117  12.372
63639W        W34239   7.354  15.857   2.194
63640W        W34240  22.239  15.330  11.104
63641W        W34241  14.968  26.473  11.453
63642W        W34242  19.515  16.084  12.956
63643W        W34243  10.971  11.335   4.347
63644W        W34244  40.873  15.029  11.195
63645W        W34245  14.266   9.893  11.509
63646W        W34246  10.256  13.218  12.016
63647W        W34247  33.712   2.926   2.408
63648W        W34248  22.184   4.476   1.835
63649W        W34249   9.783  35.572  11.706
63650W        W34250   3.072  36.842  11.023
63651W        W34251   1.802  20.537  11.477
63652W        W34252  39.088  32.073   2.689
63653W        W34253   4.956  34.543   1.899
63654W        W34254  43.323   3.797  13.038
63655W        W34255   0.761  32.492   1.708
63656W        W34256  16.707  32.421  10.719
63657W        W34257  22.065  18.401  13.422
63658W        W34258  24.658   3.711  13.831
63659W        W34259  40.213  18.444  13.897
63660W        W34260   7.787  29.136  10.633
63661W        W34261   4.665  24.678  14.949
63662W        W34262  10.326   6.018  11.924
63663W        W34263  40.592  16.204   2.272
63664W        W34264  18.588  20.619   1.137
63665W        W34265  42.000  40.502   1.885
63666W        W34266  40.220  24.738  11.369
63667W        W34267   0.284  33.145   3.621
63668W        W34268   4.788  17.297  14.339
63669W        W34269  43.012  34.277  11.028
63670W        W34270  23.709  37.502   0.930
63671W        W34271   7.631   0.969   0.523
63672W        W34272  33.649   6.667  12.927
63673W        W34273  31.516  11.407   4.426
63674W        W34274  27.730  38.442  12.421
63675W        W34275   0.699  38.479   2.321
63676W        W34276  28.933  21.154  10.025
63677W        W34277   2.282  31.376   3.713
63678W        W34278  38.938   6.257  12.821
63679W        W34279  35.913  25.172  14.011
63680W        W34280  37.683  21.912  14.208
63681W        W34281  22.715  33.963  11.939
63682W        W34282  28.167  20.107  11.543
63683W        W34283  22.992   8.783   1.072
63684W        W34284  35.817  33.097   4.440
63685W        W34285  28.946   8.395  11.663
63686W        W34286  37.017   5.213   3.205
63687W        W34287  39.104   4.213   4.100
63688W        W34288   0.497  42.428  13.698
63689W        W34289   7.904  39.872   1.420
63690W        W34290  20.837  41.499   2.815
63691W        W34291  41.220   0.512   2.379
63692W        W34292  12.607  35.371   2.299
63693W        W34293  31.895  27.188  11.952
63694W        W34294  30.533  15.704  11.966
63695W        W34295  30.393  10.715   3.654
63696W        W34296   6.851  39.214   4.101
63697W        W34297  41.063  21.239   5.184
63698W        W34298  36.022  36.434   4.516
63699W        W34299  35.990  11.607   1.196
63700W        W34300  42.417  36.509  12.053
63701W        W34301   2.715  14.303  11.959
63702W        W34302   6.370  19.666   4.570
63703W        W34303  39.429  11.374  13.385
63704W        W34304  13.386  18.742   0.333
63705W        W34305  10.958   4.952  13.427
63706W        W34306   5.896   8.814  12.523
63707W        W34307  35.928  13.861   0.347
63708W        W34308   3.377  26.402  10.479
63709W        W34309   9.339  29.890   0.751
63710W        W34310  15.698   4.925   0.942
63711W        W34311  26.574  41.766  13.414
63712W        W34312  44.260  39.538   4.744
63713W        W34313  34.051  26.532  13.121
63714W        W34314  37.622   0.430   4.118
63715W        W34315  27.529  30.540  13.120
63716W        W34316  18.228  16.118   3.826
63717W        W34317  38.063  26.461   1.685
63718W        W34318  39.966   2.164   0.259
63719W        W34319  22.668  16.476   4.192
63720W        W34320  38.615  21.054  14.917
63721W        W34321   6.433  18.283   0.875
63722W        W34322  12.707   1.463   3.609
63723W        W34323   4.702  24.491   4.618
63724W        W34324   5.421   0.627  14.617
63725W        W34325   7.755  29.488  11.191
63726W        W34326  22.311  10.301  14.479
63727W        W34327   6.225   2.929  10.804
63728W        W34328  41.745  12.207   0.089
63729W        W34329   3.652  28.169   0.883
63730W        W34330  32.509   1.025   2.326
63731W        W34331   5.294  33.947  12.079
63732W        W34332  23.881  42.409   0.742
63733W        W34333  38.477   7.182  10.851
63734W        W34334  35.639   2.484   4.286
63735W        W34335  23.349  11.426  13.079
63736W        W34336  41.431  25.428   4.684
63737W        W34337  16.135  27.216   0.317
63738W        W34338  15.603  22.164   1.685
63739W        W34339  38.161  12.373   1.714
63740W        W34340   5.750  38.459   0.207
63741W        W34341  25.711  26.448  13.018
63742W        W34342  41.249  11.615   0.413
63743W        W34343   7.265  10.098  11.187
63744W        W34344  10.043  14.043  14.749
63745W        W34345  11.114  38.779  12.629
63746W        W34346  39.954  13.619  14.998
63747W        W34347  35.195  27.138   2.876
63748W        W34348   4.593  19.904   3.672
63749W        W34349  16.259  28.682   3.162
63750W        W34350  10.120  38.366   4.371
63751W        W34351  18.501  15.504  13.862
63752W        W34352  40.495  36.355  12.025
63753W        W34353  42.290  11.319   4.545
63754W        W34354   9.436  24.999   2.659
63755W        W34355   2.676  39.154   4.763
63756W        W34356  15.143  35.651   3.695
63757W        W34357  18.594  33.352  10.640
63758W        W34358  34.765  24.319  14.495
63759W        W34359  18.081  30.354  12.837
63760W        W34360  25.593  28.908   0.907
63761W        W34361  42.358  36.825  13.841
63762W        W34362  36.390  36.065   1.802
63763W        W34363  16.569  17.532   1.892
63764W        W34364  34.664  13.987   1.097
63765W        W34365  21.505  29.955  13.438
63766W        W34366  27.203  12.848  11.133
63767W        W34367  27.653  22.576   1.674
63768W        W34368  23.579  38.162   0.056
63769W        W34369  17.796  21.472   4.053
63770W        W34370   8.745   2.882   5.046
63771W        W34371  35.137   7.223  13.054
63772W        W34372   9.924   9.671   1.382
63773W        W34373  21.220  30.080   1.109
63774W        W34374  21.927  11.536   0.960
63775W        W34375  22.538  44.272   1.504
63776W        W34376  20.070  13.591   4.091
63777W        W34377  40.365  19.429   1.854
63778W        W34378  43.797  39.200  10.247
63779W        W34379   4.375  36.484   3.641
63780W        W34380  28.515  30.400   0.824
63781W        W34381   4.277  18.741   2.946
63782W        W34382  31.448  34.652  14.958
63783W        W34383   8.245  19.234   3.709
63784W        W34384  26.632  25.055  12.102
63785W        W34385   2.957  35.326  12.977
63786W        W34386  24.708  28.433   0.474
63787W        W34387   2.715   7.164   3.523
63788W        W34388  29.601  14.414  12.075
63789W        W34389  20.023  11.823   0.324
63790W        W34390  10.216  26.746   1.940
63791W        W34391  19.314   1.372   1.848
63792W        W34392  21.947  37.091   1.765
63793W        W34393   4.686  20.417  11.450
63794W        W34394   8.944  40.471  11.547
63795W        W34395   1.874  39.592   1.320
63796W        W34396   6.644  44.396   0.816
63797W        W34397   5.861   7.894  12.294
63798W        W34398  40.023  30.346   0.184
63799W        W34399  16.608  33.466  13.981
63800W        W34400   0.808  20.285   0.333
63801W        W34401  14.987  11.692   3.681
63802W        W34402   8.800  16.020  11.977
63803W        W34403  25.861   6.792   4.107
63804W        W34404  43.973  16.275   2.732
63805W        W34405  32.574  32.583   3.287
63806W        W34406  32.468  13.142   4.165
63807W        W34407  38.804  26.945   4.688
63808W        W34408  33.787  37.936   1.865
63809W        W34409  27.670  12.605  11.099
63810W        W34410   9.368   2.070  13.738
63811W        W34411  24.631   6.552   2.861
63812W        W34412  12.061  11.319  11.656
63813W        W34413  35.585  24.713   1.206
63814W        W34414  11.097  44.817  13.329
63815W        W34415  18.541   0.557   3.144
63816W        W34416  10.174  14.688  13.387
63817W        W34417  23.058  32.531   4.598
63818W        W34418  10.150  33.266   4.072
63819W        W34419  31.974  40.220   0.438
63820W        W34420  26.442  19.615  11.595
63821W        W34421  37.197   4.476   1.460
63822W        W34422  42.092  17.283   3.414
63823W        W34423   4.259   4.373  10.646
63824W        W34424  13.841  29.859   1.599
63825W        W34425  15.899  23.711  11.750
63826W        W34426  11.582  11.591   3.713
63827W        W34427   1.854  28.422  14.942
63828W        W34428  19.775  24.073  14.464
63829W        W34429  10.561  21.068  13.201
63830W        W34430  10.386   3.899   1.014
63831W        W34431  36.548  10.210  11.907
63832W        W34432   7.271  41.983  11.429
63833W        W34433  44.917  41.174  12.302
63834W        W34434   6.878  12.889  13.015
63835W        W34435  41.429  26.630   3.300
63836W        W34436  41.750   8.179   3.167
63837W        W34437   7.903  38.834   1.432
63838W        W34438  12.380   4.578   4.560
63839W        W34439  19.788  43.122  11.245
63840W        W34440   0.997  19.043   3.092
63841W        W34441  34.649  16.960   0.249
63842W        W34442  32.603  39.109  14.003
63843W        W34443  18.518  22.573   2.849
63844W        W34444  16.007  10.768  14.860
63845W        W34445   6.366  31.569  12.605
63846W        W34446  43.419  12.436  13.317
63847W        W34447  25.673  30.891  12.438
63848W        W34448  22.048  33.781   3.948
63849W        W34449  43.568  24.180  10.581
63850W        W34450  17.106  12.698   3.594
63851W        W34451   3.639  39.810   3.795
63852W        W34452  26.165   9.731  10.547
63853W        W34453  33.910  19.596   2.297
63854W        W34454   9.699  41.496  10.708
63855W        W34455  37.371   6.744  13.075
63856W        W34456  16.147  36.161   4.689
63857W        W34457  41.905  12.666   3.653
63858W        W34458  36.133  15.262  13.221
63859W        W34459  24.121  30.005   2.665
63860W        W34460  19.268  15.738   3.353
63861W        W34461   1.975   7.863  12.323
63862W        W34462  14.766  21.254  11.356
63863W        W34463  29.555   9.590   3.196
63864W        W34464  42.822  30.399  13.954
63865W        W34465  20.755   9.260   0.918
63866W        W34466  22.975  33.968   2.291
63867W        W34467  43.172   1.027  10.639
63868W        W34468  30.051  29.187  12.172
63869W        W34469   2.545  31.623   3.280
63870W        W34470  36.932  39.253   0.395
63871W        W34471   1.810  14.235   0.203
63872W        W34472  18.065  43.026   3.065
63873W        W34473  43.533  36.492  13.432
63874W        W34474   8.074  14.126   1.482
63875W        W34475   4.393  17.092  13.462
63876W        W34476  36.637   8.356   5.033
63877W        W34477  14.168   7.809  11.622
63878W        W34478  35.123  12.794   3.692
63879W        W34479  14.802  28.392   4.363
63880W        W34480  38.794  23.213  14.237
63881W        W34481   3.286   4.406   4.451
63882W        W34482   8.400  37.864  14.502
63883W        W34483  22.472  17.668  10.692
63884W        W34484   1.535  33.325   1.830
63885W        W34485  36.990   1.969   0.515
63886W        W34486  38.153  33.954  12.024
63887W        W34487  20.840   5.725   0.496
63888W        W34488  32.604  28.888  11.125
63889W        W34489  17.595   2.225   0.903
63890W        W34490  21.050   1.521   2.741
63891W        W34491  36.049  43.195  14.932
63892W        W34492  36.981   8.421   3.072
63893W        W34493  27.279  18.179   0.684
63894W        W34494  18.624   8.841  11.007
63895W        W34495  34.529  11.281  10.753
63896W        W34496   1.476  32.430  13.038
63897W        W34497   0.933  24.739   0.644
63898W        W34498  34.956  43.589  11.878
63899W        W34499  35.978  41.900   3.177
63900W        W34500  27.864  14.550  11.233
63901W        W34501  18.944  39.965   2.603
63902W        W34502  29.346  33.513  10.531
63903W        W34503  34.840  31.090   2.340
63904W        W34504   5.768  18.776   0.182
63905W        W34505  33.469   5.215  14.681
63906W        W34506  10.097  25.456   1.411
63907W        W34507  35.373  11.220  13.953
63908W        W34508  23.198  40.404   3.835
63909W        W34509  33.581  15.130  12.503
63910W        W34510  17.084  20.286   0.952
63911W        W34511  40.712  26.500  12.045
63912W        W34512   6.672  26.709   2.296
63913W        W34513  14.119  19.799  11.420
63914W        W34514   0.328  19.707   4.019
63915W        W34515  33.616   9.901  10.356
63916W        W34516  18.278  18.360   4.295
63917W        W34517  36.665  33.861  13.359
63918W        W34518  18.770  20.283   0.740
63919W        W34519  13.111   1.794   2.881
63920W        W34520   8.653  31.413   3.223
63921W        W34521  44.039  20.329  14.524
63922W        W34522  24.638  24.659  12.937
63923W        W34523  34.988  32.114   1.703
63924W        W34524  36.921  22.592   3.649
63925W        W34525  44.410   3.892  12.652
63926W        W34526  26.413  19.558   2.716
63927W        W34527  10.040   5.989  11.110
63928W        W34528  37.419  37.517  14.552
63929W        W34529  12.958  32.981   3.085
63930W        W34530  29.179   2.693   0.478
63931W        W34531  40.116  25.117  13.927
63932W        W34532  11.645  43.411   4.312
63933W        W34533  12.885  16.690  13.365
63934W        W34534   5.919  21.748   0.921
63935W        W34535  30.938  17.868  12.415
63936W        W34536   9.791  37.223  12.172
63937W        W34537  32.555  32.090  12.448
63938W        W34538   9.926  27.976  13.906
63939W        W34539   6.282  42.955   9.934
63940W        W34540  15.342  27.689  12.503
63941W        W34541   7.822  24.055  11.186
63942W        W34542  10.096  40.159  14.322
63943W        W34543  34.085  20.179   3.691
63944W        W34544  24.181  44.064   2.853
63945W        W34545  16.234  31.845  12.040
63946W        W34546   9.402  20.826   4.152
63947W        W34547  16.770  28.700   2.796
63948W        W34548  16.556  17.620  11.010
63949W        W34549  33.696  13.242  13.980
63950W        W34550  31.182  41.376   0.840
63951W        W34551   5.899   5.915   2.192
63952W        W34552  22.781   4.908   3.585
63953W        W34553  38.649   3.442  13.869
63954W        W34554  16.107  10.256  13.559
63955W        W34555   9.121  42.857   0.267
63956W        W34556  14.644  25.686   0.994
63957W        W34557  26.027  39.931   0.383
63958W        W34558   6.825   8.150   2.197
63959W        W34559  29.408  37.441  11.046
63960W        W34560  31.167  20.302   1.380
63961W        W34561  24.902  18.775   0.926
63962W        W34562  21.491  30.493  14.908
63963W        W34563  44.199   9.199  11.963
63964W        W34564   1.742  34.228  12.502
63965W        W34565  15.827   0.884   2.217
63966W        W34566  43.554   4.077  11.831
63967W        W34567  35.609  28.473  14.406
63968W        W34568  36.169  18.051   1.888
63969W        W34569   9.698  28.807  14.390
63970W        W34570  22.561   5.745   9.861
63971W        W34571  43.473  20.682   0.279
63972W        W34572  41.968  32.138  12.495
63973W        W34573  16.048  17.188   0.168
63974W        W34574  21.649   3.678   1.928
63975W        W34575  41.736   5.416   0.445
63976W        W34576  36.774  41.781   1.745
63977W        W34577   1.061   3.315  14.323
63978W        W34578   9.814  31.853  11.432
63979W        W34579  24.009   9.382   0.306
63980W        W34580  38.391  39.660  12.567
63981W        W34581  30.947  17.740  14.206
63982W        W34582   0.974  15.175   1.836
63983W        W34583  14.073  41.048   1.222
63984W        W34584  15.474  31.577  12.425
63985W        W34585   7.681  25.451   3.732
63986W        W34586  12.254  30.399   2.313
63987W        W34587  39.165   1.483   2.271
63988W        W34588  43.137  36.953   2.375
63989W        W34589  18.657   2.210  14.028
63990W        W34590   5.420  28.512   4.010
63991W        W34591  38.775   5.058   3.577
63992W        W34592  15.315   3.671  11.128
63993W        W34593  39.784  30.239   4.637
63994W        W34594   1.468   5.448   4.031
63995W        W34595  14.618  43.242  10.370
63996W        W34596   1.254   7.184   0.975
63997W        W34597  37.023  37.164  14.632
63998W        W34598  37.937  12.758  11.012
63999W        W34599  22.840  13.150  11.410
64000W        W34600   2.772   2.488   4.124
64001W        W34601   7.697  14.078  10.748
64002W        W34602  41.102  25.658  14.271
64003W        W34603  24.576   1.918   4.003
64004W        W34604  18.262   8.630  13.907
64005W        W34605  26.495  30.467  12.981
64006W        W34606  28.703  11.104  11.007
64007W        W34607  34.514   0.402   2.411
64008W        W34608  15.973  28.565  14.751
64009W        W34609  10.634   9.059  12.820
64010W        W34610  22.637  10.801   2.427
64011W        W34611  24.720  20.081  11.083
64012W        W34612   0.653   2.970   2.899
64013W        W34613  25.869  27.293  12.019
64014W        W34614  14.707  28.072   1.647
64015W        W34615  31.741   5.695   3.786
64016W        W34616  27.548  28.432  11.980
64017W        W34617  33.902  38.912   0.986
64018W        W34618  15.731   4.823   1.460
64019W        W34619   7.898   7.106  12.100
64020W        W34620  24.548  16.143  12.102
64021W        W34621  27.600  10.748  10.644
64022W        W34622   2.644   3.452   9.943
64023W        W34623   9.887  41.433   0.539
64024W        W34624  12.569   9.821  10.703
64025W        W34625   3.519  36.841  13.330
64026W        W34626  16.720   3.707   3.542
64027W        W34627  16.218  13.686   0.945
64028W        W34628  27.621  32.591  13.841
64029W        W34629  21.039  38.114  11.908
64030W        W34630  17.281  33.945  14.028
64031W        W34631   0.301  36.721  14.495
64032W        W34632   5.776  20.301  10.804
64033W        W34633   6.498  18.566  11.113
64034W        W34634   3.122  32.738   1.897
64035W        W34635   9.393  23.173   0.482
64036W        W34636  40.998  35.398  13.984
64037W        W34637  28.052  38.774   3.190
64038W        W34638   7.923   0.487   0.790
64039W        W34639  43.448  19.198   1.937
64040W        W34640  44.472  14.267  12.593
64041W        W34641  31.063  22.709  10.741
64042W        W34642  43.749  44.352   0.472
64043W        W34643  33.863   3.343  14.859
64044W        W34644   1.847  20.050  12.509
64045W        W34645  27.893  36.843  12.487
64046W        W34646  14.711   7.372  10.807
64047W        W34647   4.848  41.904  13.965
64048W        W34648  37.384  17.163   1.649
64049W        W34649  27.891  19.059  14.735
64050W        W34650  14.333  14.190   3.690
64051W        W34651  26.783  18.293  14.825
64052W        W34652  28.331  33.102   2.225
64053W        W34653  27.162  11.550   0.890
64054W        W34654   7.364  44.447   0.473
64055W        W34655  35.997  43.420   2.292
64056W        W34656  40.559  23.833  12.976
64057W        W34657  22.770  33.010  11.974
64058W        W34658  31.102  16.171   0.660
64059W        W34659  19.137  22.648  14.283
64060W        W34660   9.937  18.795   3.741
64061W        W34661  41.677  18.824  13.236
64062W        W34662  34.891  20.198   2.186
64063W        W34663  41.845  44.084  11.610
64064W        W34664  38.685  34.471   0.461
64065W        W34665  13.155  13.766   3.248
64066W        W34666   8.200  36.637  12.446
64067W        W34667  30.500  16.500   2.277
64068W        W34668   3.576  24.013   5.213
64069W        W34669   2.219  40.225   1.451
64070W        W34670  22.745  30.688   2.856
64071W        W34671  38.995  40.407  13.425
64072W        W34672  12.699   9.415  14.930
64073W        W34673  44.340  28.399  11.137
64074W        W34674   6.095  25.784  11.844
64075W        W34675  11.441  35.568  13.760
64076W        W34676  38.956   0.916  13.013
64077W        W34677   6.421  34.701  10.148
64078W        W34678  36.430  39.925  14.966
64079W        W34679  40.443  22.112  14.241
64080W        W34680  29.749  34.884   4.784
64081W        W34681  37.241  43.431  11.863
64082W        W34682   2.921  32.911  11.978
64083W        W34683   4.218  29.494   3.420
64084W        W34684  24.499  24.734   0.408
64085W        W34685  23.688  25.431  13.409
64086W        W34686   6.010  22.634  12.361
64087W        W34687  38.570  10.234  12.932
64088W        W34688  17.789   2.930  13.491
64089W        W34689  13.120  28.003  13.610
64090W        W34690  38.317   9.766  12.915
64091W        W34691  19.618  11.435   1.248
64092W        W34692   0.374  23.705  13.917
64093W        W34693  30.802  39.406  14.128
64094W        W34694  15.859  30.703   0.356
64095W        W34695  29.556  12.570  10.734
64096W        W34696   0.317   0.046  11.125
64097W        W34697  36.619  44.410   0.229
64098W        W34698   5.797  32.848   4.736
64099W        W34699   6.951   0.793  12.540
64100W        W34700  35.211   9.188  10.679
64101W        W34701  34.907   8.271  13.959
64102W        W34702  24.672  38.805  11.924
64103W        W34703   1.440  43.242   2.460
64104W        W34704  39.392  21.570  11.351
64105W        W34705   8.397  20.018  12.824
64106W        W34706  30.426   8.665   4.654
64107W        W34707  31.295  38.123   0.527
64108W        W34708  43.410  24.007   4.908
64109W        W34709  42.529  19.582  12.264
64110W        W34710   3.673  34.199  11.047
64111W        W34711  42.670   5.150   2.688
64112W        W34712   7.307  11.186  13.057
64113W        W34713  11.217  37.155  10.922
64114W        W34714  31.986   1.125   2.241
64115W        W34715  13.884  14.108   2.830
64116W        W34716   6.551  21.534   3.691
64117W        W34717   2.768  27.176   3.007
64118W        W34718  29.261   3.629  12.919
64119W        W34719  30.665  21.440  13.058
64120W        W34720  20.486  32.469  11.208
64121W        W34721   2.645  20.158  11.043
64122W        W34722   7.882  15.099   3.110
64123W        W34723  33.092  36.162   0.255
64124W        W34724  30.421  22.517  14.985
64125W        W34725  11.796   3.467  11.662
64126W        W34726  19.694  19.564   1.283
64127W        W34727  31.490  33.646   1.259
64128W        W34728   5.740   4.800   2.707
64129W        W34729  32.076  22.033   2.150
64130W        W34730  33.157   5.738  12.394
64131W        W34731  38.266  15.594   1.380
64132W        W34732  22.921  17.245  13.022
64133W        W34733  28.979  28.217  10.749
64134W        W34734  29.350  39.870   1.485
64135W        W34735  43.877  30.889  11.936
64136W        W34736  12.238   5.908  10.670
64137W        W34737  30.822  31.274  13.426
64138W        W34738  43.903  30.634   3.955
64139W        W34739  44.800  38.284  13.339
64140W        W34740  14.069   0.805  13.286
64141W        W34741  44.534  22.627  13.448
64142W        W34742  42.723  10.226   3.708
64143W        W34743  18.784  30.461   4.691
64144W        W34744   1.214  13.374  12.837
64145W        W34745  29.595  40.821   0.369
64146W        W34746  38.672  21.325  10.918
64147W        W34747  41.378  34.615  13.840
64148W        W34748  31.182   5.592  12.631
64149W        W34749  17.385  35.070  12.921
64150W        W34750  24.224  34.147  12.022
64151W        W34751  15.897  29.940   3.717
64152W        W34752   6.007  33.619   0.674
64153W        W34753   5.649  40.716   2.515
64154W        W34754  25.515  13.041  14.485
64155W        W34755  11.188  43.787   3.114
64156W        W34756  32.127   7.775  11.520
64157W        W34757  43.971   3.879  14.265
64158W        W34758   3.397   0.433  11.188
64159W        W34759  24.575   9.972  13.494
64160W        W34760   7.882  34.690  10.657
64161W        W34761  34.977  25.349   3.720
64162W        W34762  23.578  19.025  10.691
64163W        W34763  10.719  14.512  14.642
64164W        W34764  19.330  29.489  12.066
64165W        W34765   0.426   2.978   4.225
64166W        W34766   2.236  38.164  14.293
64167W        W34767  17.336  19.366   0.932
64168W        W34768  35.841  34.406   0.079
64169W        W34769  10.708  19.305   4.622
64170W        W34770  20.504  40.416   3.403
64171W        W34771  17.759  12.414   1.153
64172W        W34772  26.196  19.922  11.900
64173W        W34773  22.020  35.492  14.807
64174W        W34774   5.656  21.985   1.357
64175W        W34775  12.763  26.011   2.329
64176W        W34776  38.204  44.334   4.278
64177W        W34777  28.656  41.384  12.126
64178W        W34778  20.729   1.825  12.917
64179W        W34779  21.771  40.505  12.944
64180W        W34780  22.022  31.517  12.171
64181W        W34781   1.481  29.547  11.392
64182W        W34782   7.633   1.460   1.621
64183W        W34783   1.003  38.130   0.155
64184W        W34784   7.757  12.120   0.843
64185W        W34785  31.832  22.139  12.514
64186W        W34786  16.311  39.397   0.681
64187W        W34787  21.688   4.629  13.511
64188W        W34788  21.685  41.037   2.652
64189W        W34789  15.608   1.003  13.585
64190W        W34790  23.508   6.820  12.086
64191W        W34791  11.805  35.397   2.251
64192W        W34792  21.147  29.863   4.317
64193W        W34793   1.724  24.103  12.172
64194W        W34794  17.308  23.194   2.708
64195W        W34795  40.981  16.786  10.048
64196W        W34796  12.017   6.649  11.601
64197W        W34797  40.786  25.439  12.063
64198W        W34798  25.632   6.635   3.671
64199W        W34799  43.512  15.263   0.804
64200W        W34800  19.975   8.150   3.703
64201W        W34801  44.119  18.786  10.178
64202W        W34802   8.650   1.712   0.845
64203W        W34803  22.520  19.588  12.798
64204W        W34804  25.295  33.462   5.390
64205W        W34805  38.361  11.129  14.331
64206W        W34806  13.126  40.115   0.338
64207W        W34807  42.958  40.071  11.673
64208W        W34808  35.605  21.938   3.592
64209W        W34809  43.291  10.990   3.661
64210W        W34810  31.780  44.001  12.919
64211W        W34811  19.625  19.568  11.857
64212W        W34812  19.342  34.584   3.133
64213W        W34813  13.477  36.024  14.293
64214W        W34814  34.125  14.596   3.790
64215W        W34815   5.920  42.301   0.161
64216W        W34816  21.917  30.969  10.509
64217W        W34817  27.614   8.335  10.575
64218W        W34818  42.173  37.710  13.511
64219W        W34819  27.502  40.395  14.787
64220W        W34820  10.127  36.956  12.499
64221W        W34821  27.076  14.892  13.817
64222W        W34822  30.413  34.511   1.960
64223W        W34823  42.985  29.880   0.066
64224W        W34824  10.720  38.149  12.378
64225W        W34825  30.139   7.818   0.667
64226W        W34826   7.989  11.499   5.098
64227W        W34827  13.842   0.841   0.665
64228W        W34828  14.253  26.267  10.983
64229W        W34829   6.788  41.202   1.668
64230W        W34830  13.388  30.123  11.088
64231W        W34831  13.770  15.701  14.958
64232W        W34832   2.821   8.084   0.075
64233W        W34833  37.420  23.427   3.660
64234W        W34834  18.547  38.300   0.237
64235W        W34835  10.316  41.776  13.033
64236W        W34836  31.254  34.805  12.390
64237W        W34837  22.231  26.697   0.890
64238W        W34838  22.761  35.331   0.376
64239W        W34839  25.804  40.823   2.765
64240W        W34840  17.958   0.256   3.795
64241W        W34841   0.941   7.895  10.036
64242W        W34842  16.207  18.506   2.738
64243W        W34843  33.378  40.297   0.283
64244W        W34844  30.587  25.442   3.260
64245W        W34845  31.140  20.604  14.290
64246W        W34846  36.508  16.660  14.980
64247W        W34847  20.979  25.683  12.524
64248W        W34848  29.941   2.655  12.171
64249W        W34849  44.239   5.475   0.862
64250W        W34850  42.216  30.901   4.395
64251W        W34851  26.437  13.267  11.549
64252W        W34852  12.942  36.919  13.372
64253W        W34853  18.261  38.034   4.310
64254W        W34854  43.454  17.490  13.320
64255W        W34855   2.923   9.595  11.312
64256W        W34856  25.475   0.752   0.815
64257W        W34857  41.917  41.716   4.209
64258W        W34858  30.987  19.281  14.929
64259W        W34859  15.797  33.230   9.873
64260W        W34860  25.265  23.293  12.062
64261W        W34861  24.950  22.815  14.380
64262W        W34862  40.258  16.046   0.944
64263W        W34863  19.763  12.638  12.957
64264W        W34864  29.156  20.007   1.876
64265W        W34865   6.620  33.966   5.031
64266W        W34866  14.129  31.725  11.016
64267W        W34867  40.607  25.534   4.110
64268W        W34868  21.514  20.097  14.793
64269W        W34869   9.619  32.666  13.469
64270W        W34870  19.237   9.793  13.468
64271W        W34871  27.070  23.807   3.604
64272W        W34872  32.646   5.410   4.630
64273W        W34873  28.042  29.142   4.831
64274W        W34874  40.946   8.359   4.157
64275W        W34875   1.857   7.634   0.358
64276W        W34876   2.527  43.503   3.831
64277W        W34877  37.161  32.634  11.178
64278W        W34878   0.054  44.845   0.494
64279W        W34879  28.026  25.593  13.087
64280W        W34880  18.767   9.640   4.359
64281W        W34881  26.539  15.220   2.299
64282W        W34882  40.983  12.381  14.307
64283W        W34883   5.284  10.434  13.588
64284W        W34884  39.573  29.057   0.398
64285W        W34885   7.316  15.687   0.701
64286W        W34886  34.526   0.573   4.347
64287W        W34887  14.895   6.876   4.227
64288W        W34888  20.196  22.932  11.088
64289W        W34889  43.923  17.457   2.280
64290W        W34890  27.069  22.913   2.658
64291W        W34891  13.599   1.897  14.873
64292W        W34892  11.651   1.063  13.497
64293W        W34893  17.852   5.103  11.626
64294W        W34894   0.792  44.058   2.688
64295W        W34895  23.424   6.571   1.712
64296W        W34896  19.515  12.231   0.749
64297W        W34897  37.969  31.680   4.248
64298W        W34898   4.211   3.484  13.469
64299W        W34899  12.992   3.131   4.290
64300W        W34900  23.268  36.063   0.866
64301W        W34901  43.637  36.581  11.153
64302W        W34902  18.227  14.207   3.209
64303W        W34903  27.636  27.286   0.469
64304W        W34904  29.018  40.587  11.987
64305W        W34905   7.316   8.891  10.648
64306W        W34906  13.914   7.949  10.931
64307W        W34907  31.879   1.783   0.021
64308W        W34908   0.335  29.654   0.540
64309W        W34909  36.077  41.268  10.722
64310W        W34910  27.892  42.395   4.278
64311W        W34911  25.700   5.693  10.899
64312W        W34912   7.821  11.658  12.457
64313W        W34913  35.332  33.132  11.121
64314W        W34914  42.870  38.774  12.083
64315W        W34915  12.086   7.889  11.032
64316W        W34916  27.895  36.911   2.576
64317W        W34917  40.409  24.564  13.544
64318W        W34918  35.595   8.463  13.428
64319W        W34919   1.438  29.276  14.025
64320W        W34920   9.700  18.398  11.494
64321W        W34921  11.253  21.104  10.829
64322W        W34922  11.802   2.421   4.081
64323W        W34923   5.490  13.226   1.843
64324W        W34924  38.370  42.979   1.513
64325W        W34925  25.107   6.839   3.719
64326W        W34926  27.589  32.486  14.333
64327W        W34927  19.743  31.368   0.872
64328W        W34928   9.321   3.308  11.170
64329W        W34929  40.452  24.960   0.882
64330W        W34930   0.415  41.038   0.921
64331W        W34931  34.337  34.020  11.162
64332W        W34932  37.567  29.640   2.262
64333W        W34933   9.508  38.552  13.957
64334W        W34934   1.342   6.326  12.471
64335W        W34935  32.443  28.481  12.608
64336W        W34936  26.024  18.110  13.430
64337W        W34937  20.503  34.951  12.951
64338W        W34938  19.820  17.162  12.497
64339W        W34939  40.651   1.178   2.390
64340W        W34940   2.971  16.081   1.810
64341W        W34941  23.225  14.127   3.126
64342W        W34942   8.166  36.437  11.612
64343W        W34943  26.766  14.154  11.503
64344W        W34944  23.965  22.124   2.713
64345W        W34945  10.647  36.788  13.059
64346W        W34946  12.116  31.146   0.017
64347W        W34947  16.536   7.947  14.334
64348W        W34948   2.438  22.015   4.858
64349W        W34949  42.598  20.294  10.327
64350W        W34950   9.376  33.898  13.762
64351W        W34951  23.609  26.065  13.164
64352W        W34952  11.744  40.837   2.401
64353W        W34953   7.646   1.894   2.385
64354W        W34954   7.065   8.826  11.093
64355W        W34955   9.366  44.355  13.424
64356W        W34956  23.287  34.375   0.444
64357W        W34957   6.033   9.971  12.079
64358W        W34958  37.040   1.865  13.246
64359W        W34959   2.457  26.596  10.880
64360W        W34960   2.886  22.101   0.712
64361W        W34961   0.816  39.748  13.916
64362W        W34962  37.886  18.031  14.357
64363W        W34963  42.220   2.643  10.718
64364W        W34964   8.937  34.331   3.285
64365W        W34965   8.837  35.497   1.916
64366W        W34966   7.207  14.387  14.190
64367W        W34967  20.976  33.662  12.541
64368W        W34968  31.085  35.027  14.509
64369W        W34969  14.409   6.199  11.468
64370W        W34970  44.775  24.556   0.249
64371W        W34971  31.897  15.585   0.738
64372W        W34972  33.538  40.436   1.397
64373W        W34973   0.323  34.992   4.722
64374W        W34974  43.987  15.803   4.099
64375W        W34975  39.472  18.107  11.952
64376W        W34976   0.896   9.091   1.870
64377W        W34977  36.860   2.698  14.308
64378W        W34978   8.658   3.085   4.587
64379W        W34979  44.346  19.582  11.019
64380W        W34980   9.458  41.896   2.162
64381W        W34981  38.028  41.294  12.037
64382W        W34982  11.174  28.347  13.394
64383W        W34983  11.697  40.770   3.767
64384W        W34984  30.633  42.340  11.731
64385W        W34985  25.477   8.986  13.277
64386W        W34986   7.821  22.859   2.628
64387W        W34987   8.913  13.623  11.930
64388W        W34988  20.599   1.821  13.431
64389W        W34989  40.886   8.067   3.603
64390W        W34990  43.973  12.698   2.293
64391W        W34991  10.266  23.406  13.966
64392W        W34992   7.512  39.748   2.851
64393W        W34993  26.682  27.699   1.550
64394W        W34994  13.423  19.376  11.467
64395W        W34995  15.582  10.367  11.812
64396W        W34996  23.408  37.114  11.298
64397W        W34997   0.026  43.369   5.007
64398W        W34998  19.192  12.341   4.636
64399W        W34999  41.056  22.246  12.479
64400W        W35000   6.749  34.451  13.457
64401W        W35001   2.825  36.051   1.205
64402W        W35002  22.854  23.250  14.930
64403W        W35003  25.405  13.763  12.481
64404W        W35004  28.766  16.615   3.693
64405W        W35005  28.519  34.780   3.767
64406W        W35006   5.481  42.428  12.556
64407W        W35007  13.518  43.265   2.345
64408W        W35008  44.737  41.278  11.053
64409W        W35009   9.384  22.758  11.277
64410W        W35010  38.859  13.944   1.287
64411W        W35011  25.012  42.824   0.723
64412W        W35012  40.996   0.340  12.577
64413W        W35013   2.625  11.619   0.071
64414W        W35014  23.588   1.510  10.476
64415W        W35015  20.618  20.649   4.294
64416W        W35016  31.510  15.704   2.846
64417W        W35017  23.796  16.760  13.054
64418W        W35018  24.790  17.980  13.029
64419W        W35019  35.693  17.710   0.239
64420W        W35020  29.587  18.089  14.244
64421W        W35021  18.174  29.643   3.754
64422W        W35022  24.406  27.350  14.453
64423W        W35023   4.754   1.348  14.790
64424W        W35024  33.634  17.806   3.255
64425W        W35025  40.972  22.232  14.273
64426W        W35026  18.585  26.604  14.263
64427W        W35027  44.530  29.918   2.217
64428W        W35028  38.183  33.453  13.313
64429W        W35029  35.923   7.435  11.132
64430W        W35030   2.343  26.059  12.139
64431W        W35031  28.123  20.369  11.106
64432W        W35032  30.900   9.911   4.545
64433W        W35033   9.436  41.959   4.982
64434W        W35034  23.608  27.927  11.669
64435W        W35035   2.943  39.025   3.090
64436W        W35036  35.299   8.568   2.322
64437W        W35037   9.300  30.494   1.437
64438W        W35038  41.434   1.941   0.865
64439W        W35039  22.743  17.775   0.514
64440W        W35040  36.841   7.948  14.888
64441W        W35041   3.428  10.605   2.438
64442W        W35042  16.295  35.097  13.949
64443W        W35043  18.670  29.644   1.514
64444W        W35044  21.995  15.055   4.573
64445W        W35045  11.443  12.670  14.984
64446W        W35046  44.055  23.287  10.517
64447W        W35047  12.036   5.765  11.514
64448W        W35048  41.707   9.230  11.545
64449W        W35049  22.269   5.939   2.762
64450W        W35050  44.485  15.660   3.234
64451W        W35051  36.040  21.683  14.737
64452W        W35052   0.035  26.559  14.941
64453W        W35053  22.002  43.299  11.492
64454W        W35054   0.510  16.722   1.257
64455W        W35055  32.118  11.319   1.072
64456W        W35056  41.359   5.407  10.818
64457W        W35057   2.892  26.626  10.590
64458W        W35058  41.555   1.462  13.791
64459W        W35059  20.709  33.942  14.806
64460W        W35060   8.529  14.088   1.255
64461W        W35061  26.287  31.974   4.408
64462W        W35062  20.398  44.293   3.129
64463W        W35063  35.436  12.404  12.752
64464W        W35064  39.528  42.298   3.782
64465W        W35065  13.325  44.289   1.033
64466W        W35066  32.559  10.665   0.828
64467W        W35067  22.684  40.110   5.021
64468W        W35068  23.693   2.987   3.117
64469W        W35069   1.361  25.847   4.863
64470W        W35070  31.694  18.682   2.673
64471W        W35071  18.267  27.910  14.328
64472W        W35072  12.159  42.584   0.494
64473W        W35073   0.394   3.947   3.288
64474W        W35074  10.628  29.585  12.070
64475W        W35075  36.779  10.876   4.419
64476W        W35076  30.055   5.910   2.231
64477W        W35077  16.690   6.261   0.920
64478W        W35078   8.439  30.597   3.018
64479W        W35079  43.115  25.190   2.234
64480W        W35080   6.502  10.181  11.923
64481W        W35081  21.074  10.734   0.250
64482W        W35082  16.786   3.264  11.775
64483W        W35083  29.154  34.795   4.120
64484W        W35084  43.764   4.286  12.641
64485W        W35085  23.309  20.075   2.862
64486W        W35086  20.023  22.641   2.893
64487W        W35087  41.477  23.877   1.881
64488W        W35088  26.059  19.621  14.431
64489W        W35089   3.975  37.363   2.123
64490W        W35090   9.103  18.963  12.524
64491W        W35091  23.409  42.843   0.008
64492W        W35092  29.538   6.178  10.669
64493W        W35093  16.548  30.742   2.435
64494W        W35094  20.563   5.984   1.833
64495W        W35095   7.819  41.981   0.163
64496W        W35096  40.308   3.845   4.143
64497W        W35097  15.177  36.486   0.497
64498W        W35098  25.116   9.137  11.953
64499W        W35099   3.426  19.744  12.209
64500W        W35100   5.363   9.925  13.529
64501W        W35101  43.276  25.258   0.481
64502W        W35102   6.312  19.950  13.659
64503W        W35103   5.159  33.075  14.333
64504W        W35104   2.856  36.585  13.605
64505W        W35105  19.754  34.031   3.784
64506W        W35106  39.884  33.721  12.680
64507W        W35107  39.238  18.212   3.642
64508W        W35108  20.059  18.518  14.383
64509W        W35109   2.727  38.645   3.490
64510W        W35110   6.667  18.829   0.234
64511W        W35111  29.022  26.543   1.526
64512W        W35112   9.239  15.295  13.886
64513W        W35113  43.202  22.880  11.931
64514W        W35114  16.304  44.846  14.623
64515W        W35115   0.745   1.018   4.179
64516W        W35116  26.094   4.199   4.627
64517W        W35117  29.955  28.742   4.546
64518W        W35118  22.944  19.824   0.934
64519W        W35119  10.633  41.303  11.477
64520W        W35120   9.187  28.102  11.870
64521W        W35121  34.172  42.501  13.677
64522W        W35122  44.427  34.849  11.967
64523W        W35123  32.000  36.524   3.076
64524W        W35124  42.091  23.101   0.836
64525W        W35125  12.597  31.361  14.998
64526W        W35126  31.159  13.769  11.950
64527W        W35127  31.466  13.845   3.197
64528W        W35128  41.351  41.315   2.558
64529W        W35129  40.999  14.363   2.779
64530W        W35130   5.920  22.098   0.519
64531W        W35131  18.219  32.475  14.418
64532W        W35132  35.828  43.417   3.664
64533W        W35133  24.228  25.985  14.920
64534W        W35134   3.933  44.215  14.361
64535W        W35135  33.549  13.129   3.257
64536W        W35136   7.438  17.081  12.305
64537W        W35137  15.335  24.236  12.989
64538W        W35138  34.853   3.330  12.188
64539W        W35139  28.235  28.633  12.555
64540W        W35140  23.813  10.724   3.399
64541W        W35141  19.202  21.727  11.832
64542W        W35142  34.464  18.834  12.752
64543W        W35143  40.797  17.691  14.543
64544W        W35144  22.819  34.170   1.208
64545W        W35145  11.284  11.379  12.118
64546W        W35146  39.756  44.477  14.330
64547W        W35147  28.421  30.422   2.149
64548W        W35148  26.691  32.335  10.810
64549W        W35149   8.121  15.238  14.463
64550W        W35150   6.610  41.875  12.160
64551W        W35151  37.176  15.149   3.226
64552W        W35152  43.939  23.665   3.667
64553W        W35153   2.020  23.996   4.011
64554W        W35154  28.017  10.250   0.412
64555W        W35155  39.041  34.896  11.291
64556W        W35156  32.567  24.406   0.458
64557W        W35157  17.647   3.980   1.831
64558W        W35158  13.737  39.937   5.071
64559W        W35159  15.443  33.321  12.426
64560W        W35160  22.682   9.935   0.252
64561W        W35161  24.420  44.489  14.342
64562W        W35162   6.199  40.744   1.290
64563W        W35163   8.280  36.856   4.748
64564W        W35164  41.460  26.720  11.601
64565W        W35165   2.806   9.109   1.741
64566W        W35166  44.511  10.856   2.441
64567W        W35167  32.113   7.614  13.943
64568W        W35168   4.318  30.378   4.383
64569W        W35169   1.091  12.426   0.856
64570W        W35170  16.728  27.681   2.766
64571W        W35171  42.709  29.457  13.315
64572W        W35172  38.923  17.772   3.220
64573W        W35173   8.585  39.075  14.969
64574W        W35174  37.579  37.840   0.470
64575W        W35175  39.316  10.224   1.310
64576W        W35176  27.022  14.618   3.320
64577W        W35177  18.980  30.918   1.687
64578W        W35178  39.088  34.467  12.047
64579W        W35179  37.566  16.689  10.821
64580W        W35180  36.469   5.233  10.808
64581W        W35181   4.676  37.496  14.395
64582W        W35182  16.232  15.326   2.151
64583W        W35183  26.654  43.222  13.928
64584W        W35184  11.080  14.055   4.373
64585W        W35185  24.140   4.824  13.398
64586W        W35186   2.844  17.634   3.917
64587W        W35187  31.731  43.085  13.467
64588W        W35188  15.837   3.003   0.480
64589W        W35189  44.023  34.036  14.788
64590W        W35190  21.423  16.340  10.769
64591W        W35191   5.605  25.114   3.085
64592W        W35192  40.292   3.664   5.408
64593W        W35193  13.565   7.105   0.437
64594W        W35194  33.217   5.725   1.318
64595W        W35195   4.892  38.869   0.756
64596W        W35196  24.155  37.203  10.730
64597W        W35197   6.350  30.122  14.944
64598W        W35198  23.013  21.593   4.601
64599W        W35199  13.514  22.191  11.589
64600W        W35200  34.485  36.353  14.090
64601W        W35201  14.843  41.735   2.752
64602W        W35202   3.621  35.289   5.679
64603W        W35203   2.835   9.951   1.910
64604W        W35204  30.354  13.723  11.062
64605W        W35205  43.839  35.511   4.546
64606W        W35206  11.088  24.700  10.770
64607W        W35207   5.220  41.336   0.192
64608W        W35208   8.467   7.190   3.651
64609W        W35209  15.656   0.855  14.068
64610W        W35210  15.398   1.625  14.430
64611W        W35211  22.168   3.995  12.142
64612W        W35212   0.681   9.279   2.719
64613W        W35213  40.965  25.037   0.717
64614W        W35214  13.897   8.422   2.920
64615W        W35215  35.184   4.291  14.387
64616W        W35216  41.489  23.150   2.594
64617W        W35217  36.816  18.688   2.372
64618W        W35218   7.927   1.111  12.374
64619W        W35219  35.048  33.813  12.119
64620W        W35220  10.941   2.437   0.980
64621W        W35221  12.677  21.025   0.432
64622W        W35222  13.050  21.144   3.516
64623W        W35223  17.513  26.704  12.849
64624W        W35224  33.774  43.058  13.850
64625W        W35225  21.230  44.073  11.119
64626W        W35226  11.141  23.912   4.161
64627W        W35227  37.158  25.283  13.477
64628W        W35228  10.384   1.098  11.549
64629W        W35229  29.425  23.231   1.233
64630W        W35230  31.466   7.500   3.243
64631W        W35231   7.998  11.906  12.942
64632W        W35232  13.244  17.812  11.483
64633W        W35233   7.729   5.115   1.843
64634W        W35234  15.350  30.283  11.992
64635W        W35235  13.336  40.090  12.710
64636W        W35236  13.361   6.723  13.787
64637W        W35237  15.773   3.490  11.468
64638W        W35238  14.534  30.897  11.658
64639W        W35239  31.533  30.396  14.361
64640W        W35240  15.630  32.130  12.992
64641W        W35241  34.410  29.676   4.632
64642W        W35242   1.845  36.647   3.701
64643W        W35243  11.716  32.839  13.963
64644W        W35244  43.800   4.692   0.985
64645W        W35245   4.734  24.082   2.627
64646W        W35246  27.224  15.269   0.334
64647W        W35247  18.457   4.316  14.837
64648W        W35248  33.105  20.686   3.765
64649W        W35249  12.119  42.943   0.857
64650W        W35250   9.765  21.864   2.612
64651W        W35251  34.428  28.478  13.790
64652W        W35252   0.974  14.236  12.505
64653W        W35253  27.470   4.857  14.882
64654W        W35254  24.644   4.400   0.216
64655W        W35255  26.792  38.930   2.337
64656W        W35256  40.473  36.983  10.697
64657W        W35257   2.869  32.322   1.740
64658W        W35258  17.325  16.690  14.058
64659W        W35259  10.854   3.278   4.205
64660W        W35260  14.656   2.299   1.006
64661W        W35261   0.603   9.317  11.534
64662W        W35262  16.751  44.318  10.939
64663W        W35263  12.641  26.350  14.870
64664W        W35264  40.465  39.990  13.947
64665W        W35265  11.818  22.225  14.177
64666W        W35266  38.532  29.509   4.810
64667W        W35267  33.471  33.517   0.973
64668W        W35268  31.119  21.071   1.862
64669W        W35269  20.385  28.703   3.343
64670W        W35270   1.308  35.651   2.244
64671W        W35271   7.242  21.591   2.350
64672W        W35272   1.932   1.265  14.247
64673W        W35273  14.104  34.864   2.221
64674W        W35274  18.763  18.993   2.227
64675W        W35275  22.668  30.726  10.355
64676W        W35276  29.078  29.371   2.664
64677W        W35277  35.466   5.847   2.131
64678W        W35278  12.688   7.331  14.605
64679W        W35279  28.175  14.289  13.397
64680W        W35280   2.891   8.503  13.536
64681W        W35281  10.898   8.824   3.129
64682W        W35282  16.906  37.060   3.263
64683W        W35283  31.262   7.093   4.196
64684W        W35284  32.119  17.285  10.703
64685W        W35285   8.798  37.825   1.437
64686W        W35286  40.121  14.859  12.852
64687W        W35287  18.807   7.323  14.687
64688W        W35288   2.021  29.933  13.913
64689W        W35289  43.117   2.794   5.034
64690W        W35290  38.893   8.058  13.452
64691W        W35291  31.002  36.359   1.757
64692W        W35292   3.854  26.645   3.300
64693W        W35293   5.773  35.626  14.353
64694W        W35294  20.621   0.421   0.814
64695W        W35295  34.518  40.843  12.668
64696W        W35296  44.332   8.211   0.347
64697W        W35297  38.146  10.604   3.366
64698W        W35298  21.585  37.567   0.999
64699W        W35299  15.651  11.331   2.914
64700W        W35300   1.263  40.466  10.742
64701W        W35301  12.761  16.684   1.297
64702W        W35302  16.259  16.223  11.564
64703W        W35303  22.150  33.572  11.580
64704W        W35304  37.306  23.664  11.101
64705W        W35305  37.151  34.584   1.442
64706W        W35306  34.460  23.536   1.775
64707W        W35307  35.477  11.646   0.339
64708W        W35308   3.179   0.945   2.234
64709W        W35309   5.721  10.235  12.519
64710W        W35310   9.917   3.701   3.393
64711W        W35311  35.003   2.048  11.402
64712W        W35312   2.712  32.662  11.557
64713W        W35313  31.583   3.749   4.270
64714W        W35314   2.015  22.994  11.436
64715W        W35315  29.669  35.393   2.278
64716W        W35316  12.425   9.476   3.763
64717W        W35317  42.888   9.790   3.948
64718W        W35318   1.335  11.121   0.428
64719W        W35319  38.874   6.266  14.939
64720W        W35320  36.108   2.326  14.905
64721W        W35321  22.449  11.451   3.686
64722W        W35322  15.840  38.875  10.660
64723W        W35323  22.092  44.027   1.703
64724W        W35324  15.663  12.388  11.152
64725W        W35325   8.255   4.622  12.969
64726W        W35326   1.439   4.515   3.042
64727W        W35327  16.304  15.275   0.314
64728W        W35328  12.176   3.826  13.587
64729W        W35329   9.952  25.090   2.671
64730W        W35330  14.311  31.445   3.894
64731W        W35331   3.206  14.089  11.964
64732W        W35332   1.387  20.497  11.121
64733W        W35333   2.473  26.267   3.265
64734W        W35334   6.075  19.246   4.587
64735W        W35335  42.746  31.612   3.290
64736W        W35336   0.437  35.899   2.646
64737W        W35337  15.029  13.105  14.832
64738W        W35338   8.535  26.992  14.640
64739W        W35339  34.803  33.082   1.326
64740W        W35340  35.200  44.964  13.999
64741W        W35341  38.870  21.526  14.869
64742W        W35342  28.326   9.129  13.944
64743W        W35343  42.281  44.290  12.919
64744W        W35344  29.455   5.742  12.043
64745W        W35345   1.892  18.847  13.332
64746W        W35346   6.927  31.892   3.248
64747W        W35347  12.579  25.390  13.904
64748W        W35348  20.575   7.230   3.667
64749W        W35349  16.510  28.073  11.142
64750W        W35350  19.068  14.481  10.964
64751W        W35351  31.335  34.183   3.745
64752W        W35352  13.494  14.265  12.096
64753W        W35353  13.312   8.687   4.266
64754W        W35354  17.629  38.330   4.993
64755W        W35355  39.071  32.650  12.441
64756W        W35356  41.438  30.492   4.713
64757W        W35357  11.321  22.365   4.093
64758W        W35358  13.625  31.155  11.587
64759W        W35359   0.828  11.052  14.647
64760W        W35360  15.971  23.944  14.711
64761W        W35361  38.886   0.632   0.539
64762W        W35362  19.134  38.144   4.595
64763W        W35363  28.636  32.741   2.429
64764W        W35364  43.469  23.583  14.945
64765W        W35365   0.124   6.080  11.424
64766W        W35366  41.512  24.782   0.582
64767W        W35367  18.549  22.285  11.586
64768W        W35368  19.267  21.669   0.200
64769W        W35369  44.807   4.797   4.170
64770W        W35370  11.523  14.004   4.082
64771W        W35371  25.969   8.793   1.760
64772W        W35372  27.093  39.842   5.172
64773W        W35373  24.473  25.991  14.443
64774W        W35374   4.704  13.673   3.761
64775W        W35375  29.630  21.202  11.367
64776W        W35376  33.507  36.615  13.967
64777W        W35377  26.753   6.143   0.042
64778W        W35378   5.347  14.639  13.825
64779W        W35379   8.846  32.630  13.744
64780W        W35380   0.417   6.029   0.813
64781W        W35381   4.190   8.239   2.131
64782W        W35382  21.324  21.537   3.200
64783W        W35383  39.836  39.410   1.488
64784W        W35384  43.440  21.072   4.465
64785W        W35385   0.120   6.338   4.614
64786W        W35386  23.785  36.938  12.021
64787W        W35387   7.861  34.161  10.693
64788W        W35388  21.600  33.842   1.741
64789W        W35389   6.004  14.182   4.967
64790W        W35390  13.865   6.171   3.772
64791W        W35391  21.265  10.183   4.408
64792W        W35392   2.331  41.060  10.684
64793W        W35393  30.593  18.744   0.773
64794W        W35394  14.055   0.070   1.467
64795W        W35395  42.037   6.580  12.974
64796W        W35396  34.611   5.273  13.097
64797W        W35397   1.708   2.872  13.982
64798W        W35398  37.590   6.663  12.604
64799W        W35399  21.099  29.141   3.788
64800W        W35400   0.322  18.846   0.273
64801W        W35401  33.915  11.815   4.159
64802W        W35402   7.920  41.047   1.820
64803W        W35403  42.425  22.455  12.418
64804W        W35404  17.074  13.625  14.846
64805W        W35405  17.101  20.270  11.381
64806W        W35406  28.180  13.711   3.529
64807W        W35407  18.786  38.240   2.774
64808W        W35408  37.966  27.107   0.467
64809W        W35409  22.115  43.920  12.093
64810W        W35410  39.380  38.920   0.005
64811W        W35411   0.847  27.588   1.791
64812W        W35412  36.348  44.957  13.352
64813W        W35413  12.222   1.073   4.661
64814W        W35414  30.096  38.333  14.779
64815W        W35415  40.895   6.901  14.527
64816W        W35416  29.196   5.828   4.423
64817W        W35417  23.970  26.255  12.417
64818W        W35418  37.950  35.525  13.505
64819W        W35419  25.736  17.690   2.733
64820W        W35420  36.478  23.753   3.079
64821W        W35421   0.418  15.233   0.690
64822W        W35422   4.323  29.909  14.373
64823W        W35423   1.918  32.317  14.873
64824W        W35424  13.205  14.037   5.163
64825W        W35425   9.637  32.075   1.691
64826W        W35426  43.496  15.916  11.978
64827W        W35427  33.170   4.776  14.820
64828W        W35428  10.747  24.208   4.019
64829W        W35429  44.469  43.411   3.734
64830W        W35430  24.042  22.748  10.603
64831W        W35431  36.388  25.516   3.683
64832W        W35432  44.521  42.435   1.408
64833W        W35433  23.220  42.731  11.503
64834W        W35434  14.196  11.465   0.259
64835W        W35435  21.186   9.454   1.360
64836W        W35436  21.352  21.136   1.569
64837W        W35437   3.709  31.274   3.670
64838W        W35438   6.926   8.932  12.491
64839W        W35439  29.038   5.858   2.824
64840W        W35440   1.819  44.053  11.806
64841W        W35441   2.489  20.402   3.947
64842W        W35442  22.251  42.466  13.127
64843W        W35443  23.547  15.745  13.157
64844W        W35444  22.114   0.015   0.978
64845W        W35445   1.722  36.273   1.838
64846W        W35446  16.772  22.269   3.808
64847W        W35447  24.989   6.031   4.090
64848W        W35448   9.997  26.734   1.172
64849W        W35449  22.730   7.807   1.276
64850W        W35450  26.361  40.022  10.845
64851W        W35451  16.158  34.377   3.551
64852W        W35452  26.520  30.432  13.884
64853W        W35453  23.915   6.160   3.292
64854W        W35454  37.486  27.887   4.586
64855W        W35455   1.257  32.459   0.332
64856W        W35456  33.504  38.485  14.970
64857W        W35457  31.309   8.482   0.237
64858W        W35458  33.179  42.516  11.719
64859W        W35459  22.963  30.132  13.567
64860W        W35460   8.339  36.440   4.044
64861W        W35461   0.669  32.375   0.289
64862W        W35462  18.147  10.701  10.895
64863W        W35463  31.705  10.904   4.125
64864W        W35464  21.690  15.866   4.766
64865W        W35465  32.647  13.420   0.012
64866W        W35466   8.831  16.891   4.771
64867W        W35467  37.769  13.625  13.223
64868W        W35468  12.780  32.138  14.537
64869W        W35469  20.004  13.755   3.271
64870W        W35470  23.237  38.744   3.219
64871W        W35471  18.219  22.000  10.977
64872W        W35472  39.601  40.563  10.714
64873W        W35473   2.425   0.009  11.181
64874W        W35474  16.128  30.421   2.408
64875W        W35475   4.924  10.441  14.251
64876W        W35476   8.787  36.330   3.244
64877W        W35477  29.915  35.282   4.059
64878W        W35478  35.291  15.318  13.853
64879W        W35479  13.808  32.161   1.052
64880W        W35480  34.548  12.651   4.315
64881W        W35481  20.496  43.042  14.574
64882W        W35482  42.251  29.627   3.096
64883W        W35483  32.933  19.459   3.986
64884W        W35484  24.653  15.234  12.571
64885W        W35485  29.887  39.706   3.446
64886W        W35486   9.655  12.822   3.147
64887W        W35487  27.044  17.636  13.961
64888W        W35488  35.377  39.513   2.914
64889W        W35489  29.931  21.501   4.689
64890W        W35490  43.570   0.371   4.730
64891W        W35491  21.066   2.165  13.458
64892W        W35492   0.307  42.331   2.050
64893W        W35493  13.209  33.891   0.674
64894W        W35494  23.786   3.954  12.938
64895W        W35495  41.030  23.471  13.809
64896W        W35496  20.546  24.993   2.331
64897W        W35497  24.898   6.733   2.436
64898W        W35498  16.195   9.318   2.340
64899W        W35499  39.216  44.454   3.213
64900W        W35500  42.253  34.935  11.593
64901W        W35501  16.760  34.025   1.319
64902W        W35502  38.758  42.453  12.005
64903W        W35503  20.557   5.298  12.411
64904W        W35504   8.316  15.835  12.343
64905W        W35505  35.616  38.110   1.165
64906W        W35506  43.951   8.704  13.161
64907W        W35507   4.511  40.989   3.589
64908W        W35508   3.514  40.227  13.281
64909W        W35509   1.343  28.428   1.623
64910W        W35510  26.774   4.826  11.931
64911W        W35511   9.761  30.794   1.226
64912W        W35512   1.266  44.714   1.373
64913W        W35513  33.968  22.776   2.736
64914W        W35514  36.878  28.474  13.387
64915W        W35515  32.032  11.747  14.905
64916W        W35516  11.674   7.256   1.978
64917W        W35517  41.881  39.208   1.155
64918W        W35518  24.535  21.565   4.671
64919W        W35519  41.149  21.161  14.212
64920W        W35520   7.682  31.087   3.198
64921W        W35521  22.661  36.026  14.452
64922W        W35522  37.276  39.102   0.765
64923W        W35523  31.421  20.450   4.185
64924W        W35524   7.844  36.106  11.134
64925W        W35525  30.503  33.964  14.465
64926W        W35526  18.185  10.688  12.390
64927W        W35527  42.567   6.289  11.771
64928W        W35528  32.647  36.484   4.423
64929W        W35529  13.668  11.084  10.673
64930W        W35530  14.340   9.792   1.845
64931W        W35531  33.555   4.706   9.986
64932W        W35532   9.355   9.313   3.729
64933W        W35533  38.063   3.655   0.945
64934W        W35534   9.763  26.011   0.416
64935W        W35535  34.333  39.459   4.259
64936W        W35536  38.862  17.670  14.870
64937W        W35537  24.508  17.694   2.139
64938W        W35538   7.363  37.125  14.467
64939W        W35539  19.629   5.512  10.575
64940W        W35540   5.913  34.641  14.368
64941W        W35541  14.980  41.801  11.807
64942W        W35542  28.098  35.101   2.659
64943W        W35543  17.789   8.430   0.848
64944W        W35544  35.440  44.445   0.377
64945W        W35545  23.223  41.770  11.791
64946W        W35546   4.794  28.684   3.269
64947W        W35547  25.037  14.227  14.324
64948W        W35548  19.909   2.345   3.793
64949W        W35549  13.447  10.169   4.337
64950W        W35550  12.864  33.086  11.144
64951W        W35551  21.950  35.790  13.376
64952W        W35552  31.365  20.789  12.507
64953W        W35553  40.405  13.852   0.251
64954W        W35554   7.421  21.193   4.151
64955W        W35555  37.336   6.255  10.910
64956W        W35556  44.868  18.010   4.199
64957W        W35557  26.697  42.441  11.567
64958W        W35558  10.236  27.767   1.853
64959W        W35559  44.695   6.840  11.143
64960W        W35560  29.213  38.258  13.430
64961W        W35561  24.032  14.919  13.741
64962W        W35562   2.307  14.555   4.671
64963W        W35563   3.734   6.746  12.585
64964W        W35564  10.172   8.964   3.567
64965W        W35565  11.200  31.175   0.582
64966W        W35566  32.528   5.411  14.921
64967W        W35567  21.238  15.353  11.988
64968W        W35568   2.216  17.629  12.807
64969W        W35569  44.151  32.087   2.415
64970W        W35570  16.274  39.124  12.388
64971W        W35571  10.687  13.187  11.086
64972W        W35572  39.984  17.927  11.982
64973W        W35573  26.463  44.903   1.022
64974W        W35574  19.022  42.291  10.668
64975W        W35575  15.374  12.747  13.061
64976W        W35576   0.163   0.260  10.692
64977W        W35577  20.284  32.001  11.204
64978W        W35578  34.048  24.542   3.343
64979W        W35579  20.743  43.925   3.697
64980W        W35580  42.885  39.546  11.469
64981W        W35581   0.786  35.498   0.357
64982W        W35582  23.714  41.121  12.992
64983W        W35583  37.756  20.681   0.754
64984W        W35584  44.817  32.833  10.056
64985W        W35585  33.261  40.001   1.319
64986W        W35586  31.102   1.343  12.567
64987W        W35587   8.298  33.873  14.838
64988W        W35588   4.868  25.719  10.605
64989W        W35589   7.187   4.974  12.277
64990W        W35590  14.134   1.158  10.990
64991W        W35591  24.170   8.508   2.774
64992W        W35592  30.559  24.468   3.156
64993W        W35593  11.939  31.375  12.266
64994W        W35594  12.916  13.105  12.418
64995W        W35595  16.327  20.379   3.604
64996W        W35596  35.828  32.982  13.473
64997W        W35597  21.264  25.719  12.983
64998W        W35598   8.884  23.140   0.648
64999W        W35599  15.661  39.916   3.030
65000W        W35600  37.022  13.138  14.821
65001W        W35601  12.371  29.906   2.383
65002W        W35602   0.455  25.968   3.371
65003W        W35603  36.872   0.096   2.631
65004W        W35604   1.236   1.939  11.511
65005W        W35605  22.189  38.833  10.431
65006W        W35606   9.392  27.670   3.026
65007W        W35607   9.163  35.030  13.005
65008W        W35608  18.273   1.909  13.815
65009W        W35609  39.888  22.987   4.091
65010W        W35610  25.119   9.983  13.942
65011W        W35611   4.200   6.871  13.011
65012W        W35612  24.724   4.506  14.728
65013W        W35613  28.979  17.587  11.009
65014W        W35614  12.563   2.666   0.006
65015W        W35615  41.387  32.127  14.454
65016W        W35616  30.653  35.276   1.482
65017W        W35617  22.354   1.830  13.834
65018W        W35618   0.897  31.441  13.049
65019W        W35619  33.697   8.681   3.841
65020W        W35620   8.084  14.411   3.596
65021W        W35621   1.224  11.320  14.069
65022W        W35622  33.998  40.933  10.828
65023W        W35623   1.359  44.437   0.530
65024W        W35624  29.570  42.090  14.285
65025W        W35625  26.142  41.251   4.053
65026W        W35626  15.025   3.923  11.480
65027W        W35627  28.509  23.584   4.771
65028W        W35628  39.489  37.393   1.789
65029W        W35629  16.271  15.915   3.243
65030W        W35630  32.435  36.659   2.265
65031W        W35631  17.561   0.733   3.272
65032W        W35632  35.593  37.121   1.566
65033W        W35633   7.556  19.730  11.156
65034W        W35634  39.517  38.299  11.043
65035W        W35635  18.643  31.085   0.534
65036W        W35636  33.643   7.919   4.260
65037W        W35637  14.138  32.874   4.439
65038W        W35638  38.036  16.566   1.298
65039W        W35639  38.458  34.099   1.880
65040W        W35640  21.566  41.492  14.443
65041W        W35641   1.675  25.091   1.811
65042W        W35642  27.418  43.435  12.554
65043W        W35643   6.215   8.131  11.939
65044W        W35644   9.416  34.178  12.809
65045W        W35645  29.515   3.387  13.365
65046W        W35646  28.754  40.508   2.738
65047W        W35647  13.205  26.473  11.989
65048W        W35648  16.260  41.057   3.742
65049W        W35649  24.533  20.149  13.981
65050W        W35650  38.012  14.569   1.341
65051W        W35651  16.438  37.258   3.187
65052W        W35652   0.468  22.299   3.893
65053W        W35653  36.930  23.200   0.517
65054W        W35654   4.749  36.109  11.657
65055W        W35655  40.476   0.573   3.753
65056W        W35656   6.129  41.361   1.870
65057W        W35657  40.025  17.126  10.704
65058W        W35658   9.860  10.313  10.669
65059W        W35659  38.251  18.105  12.925
65060W        W35660  30.522   2.283   2.283
65061W        W35661   9.741  27.235  10.455
65062W        W35662   3.919  40.065  14.356
65063W        W35663  24.502  23.345   0.402
65064W        W35664  39.553  15.044   4.055
65065W        W35665  40.066  35.397  11.117
65066W        W35666  21.782  34.667  13.543
65067W        W35667  32.133   0.020  11.566
65068W        W35668   1.408   4.691   2.344
65069W        W35669  31.066   9.469  14.500
65070W        W35670  10.072  16.310   0.291
65071W        W35671  35.574  24.687   3.550
65072W        W35672  21.122  30.580   1.350
65073W        W35673   8.652  23.258   4.452
65074W        W35674  39.015  25.663   1.637
65075W        W35675  24.504  14.297  12.623
65076W        W35676  19.625  20.386   2.337
65077W        W35677  39.350  15.580  12.143
65078W        W35678  42.769  38.662  13.476
65079W        W35679  42.985  21.541   3.676
65080W        W35680   7.284  41.676  13.566
65081W        W35681   8.328  20.618   2.575
65082W        W35682   5.710   4.120  12.900
65083W        W35683  32.894  10.307   3.666
65084W        W35684   1.835  20.546   3.365
65085W        W35685  19.565   6.461   0.214
65086W        W35686  29.084   9.307  13.148
65087W        W35687  17.515  22.142   0.951
65088W        W35688   4.466  40.636  14.882
65089W        W35689  33.035  38.226  11.037
65090W        W35690  32.594   2.106   0.239
65091W        W35691  12.808  43.948  11.603
65092W        W35692  25.295  14.836   4.784
65093W        W35693   8.163  10.621  12.834
65094W        W35694  33.387  27.994   1.893
65095W        W35695   5.773  11.531   3.087
65096W        W35696   7.619  17.054   0.800
65097W        W35697   3.678   9.868   5.000
65098W        W35698  22.599   3.830   1.946
65099W        W35699   9.452  22.020  10.581
65100W        W35700  19.370  23.306  11.092
65101W        W35701  19.224  44.986   1.246
65102W        W35702  13.643  16.022  12.910
65103W        W35703  11.869  31.541  13.625
65104W        W35704   6.828  12.050   2.098
65105W        W35705  14.590  22.175  11.690
65106W        W35706  14.402  24.635  12.183
65107W        W35707   5.322  29.251   0.724
65108W        W35708  16.478  40.928  12.531
65109W        W35709  32.549  43.136  13.359
65110W        W35710  24.303  25.143   2.843
65111W        W35711   8.479  35.995  13.433
65112W        W35712   2.265  23.540   3.581
65113W        W35713  28.364  36.313   0.308
65114W        W35714  25.134  21.419   5.085
65115W        W35715  11.356  14.223   3.063
65116W        W35716  37.121  36.078  12.859
65117W        W35717  38.806  39.909   0.111
65118W        W35718  27.412  12.104  11.050
65119W        W35719   9.875  25.689  11.591
65120W        W35720  40.989  14.789  11.784
65121W        W35721  29.105   3.363   3.483
65122W        W35722  27.357   2.355  11.117
65123W        W35723  25.822  38.102  14.300
65124W        W35724  24.628   1.460   0.997
65125W        W35725  11.621  18.433   4.135
65126W        W35726  33.096  36.520   4.718
65127W        W35727   9.245  33.984  11.456
65128W        W35728  13.144   0.334  12.971
65129W        W35729  36.348  41.937  10.732
65130W        W35730   3.911  36.540   1.925
65131W        W35731   5.130  20.516   0.620
65132W        W35732  18.795   6.295   1.823
65133W        W35733  38.300   5.124   3.747
65134W        W35734   8.111  35.140   1.203
65135W        W35735   9.211  17.511  10.598
65136W        W35736  10.281  31.401  12.116
65137W        W35737   3.876  36.550  14.149
65138W        W35738  22.716  16.039   1.370
65139W        W35739  25.700  44.973   3.666
65140W        W35740  10.137  42.548  12.459
65141W        W35741  33.486  14.029   4.778
65142W        W35742   6.454  34.986  12.134
65143W        W35743  29.470  10.666  12.585
65144W        W35744  36.152  36.569   4.018
65145W        W35745   9.506  23.863   9.978
65146W        W35746  30.742  19.039  13.801
65147W        W35747  24.882  27.683   3.073
65148W        W35748   8.789  31.206  13.108
65149W        W35749  34.390  44.938   0.247
65150W        W35750  30.146  18.742  13.949
65151W        W35751  32.403  11.756  12.879
65152W        W35752  28.731  24.683  14.801
65153W        W35753   8.949  25.984  13.947
65154W        W35754  24.669  27.978   0.193
65155W        W35755  11.072  16.672  13.625
65156W        W35756  26.697  24.925  11.619
65157W        W35757  34.077  22.864  11.013
65158W        W35758  39.214   5.350   4.265
65159W        W35759  40.324  14.226  12.343
65160W        W35760  34.488  23.151  12.562
65161W        W35761   8.444  42.004  12.981
65162W        W35762  40.977  37.332   1.938
65163W        W35763  37.412  13.792  10.944
65164W        W35764  23.053   2.550   1.983
65165W        W35765  43.776  26.008   3.164
65166W        W35766   3.010  13.779   4.599
65167W        W35767  20.885  32.794   4.128
65168W        W35768  42.402  27.516  10.638
65169W        W35769  21.922  31.870   0.374
65170W        W35770  28.440  44.905  13.410
65171W        W35771  32.083  34.437  10.914
65172W        W35772  25.894  11.615  13.878
65173W        W35773  37.936  24.922  12.409
65174W        W35774   2.268  32.168   4.326
65175W        W35775  16.752  25.279  12.939
65176W        W35776  29.408  22.512  13.448
65177W        W35777  27.153   8.448   2.894
65178W        W35778  23.691   1.077  14.303
65179W        W35779   5.754  29.938  13.158
65180W        W35780  37.562  39.408  10.360
65181W        W35781  28.395  33.440   3.327
65182W        W35782  43.892   0.427  12.355
65183W        W35783  13.179  38.436  14.919
65184W        W35784  25.566  39.152   3.595
65185W        W35785  27.051  16.571  12.465
65186W        W35786  43.070   7.676   4.751
65187W        W35787   6.329  30.943   0.291
65188W        W35788  14.744  38.950  11.522
65189W        W35789  32.943  34.575   3.318
65190W        W35790  29.956  13.917   3.264
65191W        W35791  12.763  29.003  10.750
65192W        W35792  28.981  42.026   1.526
65193W        W35793  40.033  38.854  10.315
65194W        W35794  16.783   2.778   1.434
65195W        W35795   0.760  32.017  12.438
65196W        W35796  34.195  25.709   2.891
65197W        W35797  27.927  40.931   2.672
65198W        W35798  24.749  11.701   3.301
65199W        W35799  13.831  41.342   4.200
65200W        W35800  37.353  17.589   4.734
65201W        W35801  26.531  19.031   5.343
65202W        W35802  44.259  44.369   0.448
65203W        W35803  25.073  38.037  11.678
65204W        W35804  32.113  18.374   3.211
65205W        W35805  15.339   1.345  12.022
65206W        W35806  12.350  43.959  12.518
65207W        W35807   2.232  26.651   2.271
65208W        W35808  18.242  26.664   3.640
65209W        W35809  38.502  15.613  13.895
65210W        W35810  18.384  14.824   0.901
65211W        W35811  30.977  30.428   2.693
65212W        W35812  24.922   9.771   4.173
65213W        W35813   2.494  19.665  13.453
65214W        W35814  44.501  23.667   1.808
65215W        W35815  42.541   3.790   2.545
65216W        W35816  25.488  44.206  13.886
65217W        W35817  44.827  22.603   2.941
65218W        W35818  15.204  38.992   3.746
65219W        W35819  17.027  25.063   3.214
65220W        W35820  32.541  18.371  11.781
65221W        W35821  10.878   6.238   2.586
65222W        W35822  35.862  36.626   0.803
65223W        W35823   9.286  19.173   2.294
65224W        W35824  13.895  10.114  13.394
65225W        W35825  41.598  13.613   3.504
65226W        W35826  23.079   2.285   0.798
65227W        W35827  43.436   6.183   3.735
65228W        W35828  36.483  37.417  13.793
65229W        W35829  12.893  42.270   0.023
65230W        W35830  38.425   9.207   3.404
65231W        W35831  16.343  28.495   0.210
65232W        W35832   4.462   8.607  11.965
65233W        W35833  17.639  12.683   3.434
65234W        W35834  41.521  43.282  12.582
65235W        W35835  32.674  28.523  10.744
65236W        W35836   6.718   8.465   4.088
65237W        W35837  19.468  40.281   0.877
65238W        W35838  39.364  15.816  11.658
65239W        W35839  31.720  24.032   0.788
65240W        W35840  36.544  11.665   3.272
65241W        W35841  12.585  19.387   1.187
65242W        W35842  15.126  14.408   1.631
65243W        W35843   2.779  26.666  12.517
65244W        W35844  35.874  42.015   4.526
65245W        W35845   3.440  35.936  13.479
65246W        W35846  25.962   5.439   2.166
65247W        W35847  24.203  36.587   0.864
65248W        W35848   0.436   4.181   0.778
65249W        W35849  20.471  35.873  12.821
65250W        W35850  37.502  25.715   1.168
65251W        W35851  30.410  43.866  12.106
65252W        W35852  39.906  33.541   3.670
65253W        W35853  39.056  17.152  14.907
65254W        W35854   3.384  28.665   2.695
65255W        W35855  19.580   2.240   4.202
65256W        W35856   1.945  30.378  12.533
65257W        W35857  19.090   1.493   0.893
65258W        W35858  40.808   6.458   5.183
65259W        W35859  24.045  22.463   5.027
65260W        W35860   0.906  40.080   1.349
65261W        W35861  29.540  24.632  11.419
65262W        W35862  35.106   4.432   2.028
65263W        W35863  24.086  12.196   0.025
65264W        W35864  28.000  30.989   3.611
65265W        W35865  40.417  23.960  10.321
65266W        W35866  32.442  44.446  14.864
65267W        W35867   5.411  43.951   4.531
65268W        W35868   3.433   8.865  13.471
65269W        W35869  25.112  15.235   4.455
65270W        W35870  42.717  21.449  14.336
65271W        W35871  39.813  10.855   3.732
65272W        W35872  39.573  26.556   0.219
65273W        W35873  25.937  19.638  11.483
65274W        W35874   4.705  41.813  10.943
65275W        W35875  44.079  42.625  10.206
65276W        W35876  13.352  23.946   1.718
65277W        W35877  13.262  35.674   4.174
65278W        W35878  27.077   9.239   2.775
65279W        W35879  35.931  34.539  10.582
65280W        W35880  43.549   2.052   0.558
65281W        W35881  27.699  19.633  12.873
65282W        W35882  36.366   7.423   4.841
65283W        W35883  42.085  11.751   1.279
65284W        W35884  13.708  12.910  13.413
65285W        W35885   6.704  16.715   4.233
65286W        W35886   8.144  26.915   0.943
65287W        W35887  18.136  11.787   1.254
65288W        W35888  43.498  31.533   0.613
65289W        W35889  39.438  24.938   4.568
65290W        W35890  32.683   4.906   2.752
65291W        W35891  40.245  44.072  13.510
65292W        W35892  41.313  34.057  13.645
65293W        W35893  40.798  36.810  12.528
65294W        W35894  34.917   0.100   2.207
65295W        W35895  31.003  10.182   4.108
65296W        W35896  37.144   2.139   2.449
65297W        W35897   1.792  43.892   4.336
65298W        W35898  32.283  36.401  11.207
65299W        W35899  21.122   1.082   0.971
65300W        W35900   4.340  41.599  11.404
65301W        W35901   4.148   0.662  11.507
65302W        W35902  26.178  23.137  10.723
65303W        W35903  31.508  33.320   0.849
65304W        W35904   5.249  12.885   2.858
65305W        W35905   0.961  33.849  14.577
65306W        W35906   7.701  40.337  14.385
65307W        W35907   0.032  33.144  13.435
65308W        W35908  19.835  18.816   0.463
65309W        W35909   1.230  39.053   0.776
65310W        W35910  30.606  34.351  11.659
65311W        W35911  31.953  13.898  14.462
65312W        W35912  15.611  27.526  12.951
65313W        W35913  26.148  14.918  13.986
65314W        W35914  38.558  39.196  11.058
65315W        W35915  19.439  35.697  11.453
65316W        W35916   3.250  24.234   4.107
65317W        W35917  41.799  16.788   3.371
65318W        W35918  30.884  16.264  14.181
65319W        W35919   0.846  18.587   3.822
65320W        W35920  28.558   1.992   1.208
65321W        W35921  44.036  39.273  12.902
65322W        W35922  18.734  24.741  12.407
65323W        W35923  41.008  28.973   0.872
65324W        W35924  36.094  10.287  10.985
65325W        W35925  28.176  31.212   0.442
65326W        W35926   1.263  27.685   0.202
65327W        W35927  17.077  33.433   3.334
65328W        W35928  16.352  28.992   0.878
65329W        W35929  38.150  21.004   5.106
65330W        W35930  17.697  37.300   1.462
65331W        W35931  18.502  36.581   1.709
65332W        W35932  17.233  18.384   9.747
65333W        W35933  39.859   0.321  11.990
65334W        W35934   3.427  31.057  11.879
65335W        W35935  25.056   3.044  12.744
65336W        W35936   9.325  13.253   3.128
65337W        W35937   0.405  24.897   3.803
65338W        W35938  33.393  20.772   0.360
65339W        W35939  25.336  23.506  12.893
65340W        W35940  40.972  12.737   2.196
65341W        W35941   9.598  38.346  11.055
65342W        W35942  20.731   5.480   1.816
65343W        W35943  26.012  16.232   4.279
65344W        W35944   9.578  25.413  11.964
65345W        W35945   4.795   3.214   3.652
65346W        W35946  16.337   1.193   1.777
65347W        W35947  30.902  35.935   3.189
65348W        W35948  10.334  27.471   4.597
65349W        W35949  35.640  43.239  11.497
65350W        W35950   2.834  39.616   1.350
65351W        W35951   9.433  14.729  12.648
65352W        W35952  11.222  34.546  11.959
65353W        W35953   1.490  22.122   4.070
65354W        W35954  37.935  12.387  13.698
65355W        W35955  38.117  18.310  11.487
65356W        W35956  12.137  31.392   2.375
65357W        W35957  40.643  32.710  14.986
65358W        W35958  36.839  44.398  12.918
65359W        W35959   4.331  23.768  10.532
65360W        W35960  18.975   6.286  12.563
65361W        W35961  24.236   4.852   0.743
65362W        W35962  29.150  25.728  10.774
65363W        W35963  16.288  42.451  11.180
65364W        W35964  12.598  29.639   4.423
65365W        W35965   1.281  26.069  11.141
65366W        W35966  28.073  25.156   0.700
65367W        W35967  19.660  32.341  10.791
65368W        W35968  12.086  41.596   0.342
65369W        W35969  44.231   7.741  11.288
65370W        W35970  37.746  28.424  11.564
65371W        W35971   4.603  20.805   4.265
65372W        W35972  26.833  32.836   2.233
65373W        W35973  41.169   0.062  13.414
65374W        W35974  14.057  12.366   4.080
65375W        W35975  31.236  35.063  10.718
65376W        W35976  26.018  38.385  13.490
65377W        W35977  13.289  15.847  11.046
65378W        W35978  43.239   1.933   2.711
65379W        W35979  11.060  24.756  12.001
65380W        W35980   7.740  14.372  10.109
65381W        W35981   2.938  27.171  14.393
65382W        W35982  42.553  28.496  12.874
65383W        W35983   2.528  36.248  12.942
65384W        W35984  23.628  38.325   0.539
65385W        W35985  26.457  12.583   4.631
65386W        W35986  11.904  26.903  14.347
65387W        W35987  24.145  25.702   0.370
65388W        W35988  26.071  43.854   3.188
65389W        W35989  33.827   0.719   4.380
65390W        W35990  39.616  26.752   4.144
65391W        W35991  25.325  14.229   4.970
65392W        W35992  27.448   9.120   3.147
65393W        W35993  25.971  20.758  12.893
65394W        W35994  25.171  29.661  14.423
65395W        W35995  40.388   0.333   4.195
65396W        W35996  42.002  43.888   3.070
65397W        W35997  23.302  31.115   3.637
65398W        W35998   0.577  32.545   2.202
65399W        W35999  32.027  21.505   2.172
65400W        W36000   9.199  15.376   4.137
65401W        W36001  19.151  24.726   0.773
65402W        W36002  44.501  36.120  12.688
65403W        W36003  38.530  42.360   3.869
65404W        W36004  15.084  42.295  11.762
65405W        W36005  10.598  15.239  10.715
65406W        W36006  36.718   0.970   1.377
65407W        W36007  30.456   7.574   3.887
65408W        W36008  14.755  43.993   2.189
65409W        W36009  19.892  18.026   4.623
65410W        W36010  36.802  20.015  14.834
65411W        W36011   6.809  38.506   3.572
65412W        W36012  29.891  30.612   2.176
65413W        W36013  25.175  22.621   0.863
65414W        W36014  41.723  37.780   1.832
65415W        W36015  18.150  25.541   1.864
65416W        W36016  16.688   0.167  11.107
65417W        W36017  33.084  31.895   4.293
65418W        W36018  28.398  32.109  12.870
65419W        W36019  15.239  11.883  13.251
65420W        W36020  34.153  32.078  14.542
65421W        W36021  33.160  13.883  11.077
65422W        W36022   8.902  26.997   0.478
65423W        W36023  30.772   3.909  11.934
65424W        W36024  44.818  33.634  13.903
65425W        W36025  41.782  36.102   3.426
65426W        W36026  10.460  36.659   3.692
65427W        W36027  29.221  26.651  12.970
65428W        W36028  10.796   5.415   4.570
65429W        W36029  25.723  13.120  13.118
65430W        W36030  19.099  39.742   0.238
65431W        W36031  41.144  15.197  12.072
65432W        W36032  29.690  17.751  12.995
65433W        W36033  10.294  21.261  12.192
65434W        W36034  36.551   4.038  11.379
65435W        W36035  43.149  44.692   0.845
65436W        W36036  37.942  16.886  12.314
65437W        W36037   1.840   5.181   1.768
65438W        W36038  24.547  28.941   3.153
65439W        W36039  31.258  12.265  12.597
65440W        W36040  21.180  19.093   4.169
65441W        W36041  33.407   2.033   2.702
65442W        W36042   1.390  11.196   2.387
65443W        W36043  27.583   2.285   3.070
65444W        W36044   2.010   0.233   2.310
65445W        W36045   5.328  35.780  11.719
65446W        W36046  21.974   5.120  14.324
65447W        W36047   0.770   0.487   4.257
65448W        W36048  43.058  18.235   0.472
65449W        W36049  27.605   6.220   1.975
65450W        W36050  16.542  19.593   0.877
65451W        W36051  27.469   0.036  13.289
65452W        W36052  33.000  31.389  13.921
65453W        W36053  32.517   4.935   4.410
65454W        W36054  21.215  12.075  12.089
65455W        W36055  27.717  20.070   3.708
65456W        W36056  32.128  24.198  11.137
65457W        W36057  25.174  44.304  14.850
65458W        W36058   3.273  26.606   1.599
65459W        W36059  23.136  31.130  11.639
65460W        W36060  24.418   9.693   0.170
65461W        W36061   9.901   7.234  11.286
65462W        W36062  28.409  31.540  13.640
65463W        W36063  20.170  13.633   2.791
65464W        W36064  16.742  21.173  14.433
65465W        W36065  39.107  43.390   2.559
65466W        W36066  36.929  24.517   2.584
65467W        W36067  24.920  35.368  11.321
65468W        W36068  31.521   0.305   3.712
65469W        W36069  25.471  31.181  13.517
65470W        W36070  34.093   0.845  10.819
65471W        W36071  14.702  13.912  14.998
65472W        W36072   5.915  24.182   1.750
65473W        W36073  34.335  14.775  12.709
65474W        W36074   8.489  10.325  12.588
65475W        W36075   4.328   5.730   4.149
65476W        W36076  34.638  16.454   4.160
65477W        W36077  38.430   1.318   0.746
65478W        W36078   3.023  21.710   2.762
65479W        W36079  17.796   2.347   4.573
65480W        W36080  34.967  35.598  10.707
65481W        W36081  32.234  13.839  12.005
65482W        W36082  12.068  30.846  14.607
65483W        W36083  12.606  16.855  14.372
65484W        W36084  33.180  25.851  12.367
65485W        W36085  38.091  13.633   3.304
65486W        W36086  12.135   8.459  12.082
65487W        W36087  13.133  26.198   3.179
65488W        W36088  13.715  12.059   0.901
65489W        W36089  14.289   8.754   0.002
65490W        W36090  44.428   9.960  12.976
65491W        W36091  26.985  13.866  12.180
65492W        W36092  42.694  42.871   2.328
65493W        W36093   1.220   1.944  13.394
65494W        W36094  44.228  21.745  13.769
65495W        W36095  25.647   5.198  10.753
65496W        W36096   8.684   6.985  14.194
65497W        W36097  30.647  28.612   2.447
65498W        W36098  37.574  11.725   4.182
65499W        W36099  24.606  12.649  14.753
65500W        W36100  41.570   3.282  13.793
65501W        W36101  28.504  25.558  10.575
65502W        W36102  13.203  13.323   1.040
65503W        W36103   2.801  35.302   2.095
65504W        W36104  18.780  36.382   3.703
65505W        W36105  12.319  32.289   2.198
65506W        W36106   7.955  22.138  10.701
65507W        W36107   1.895   3.762  12.449
65508W        W36108   4.806  22.376  11.808
65509W        W36109  42.561  38.447   2.854
65510W        W36110  12.736  41.560  14.038
65511W        W36111   0.750  17.644  14.561
65512W        W36112  39.870   8.182  13.369
65513W        W36113  36.629   1.770  14.457
65514W        W36114  30.965  39.135  10.666
65515W        W36115  11.230  35.995  14.002
65516W        W36116  44.915  29.653   4.853
65517W        W36117  23.014  41.928   2.295
65518W        W36118  35.381  21.291   3.134
65519W        W36119   8.682  33.842   0.289
65520W        W36120  13.397  42.331  12.091
65521W        W36121  32.270  27.675   0.453
65522W        W36122  44.114  31.172  10.506
65523W        W36123  30.549  21.686   1.419
65524W        W36124  31.399  32.402  14.345
65525W        W36125  28.976  33.009  14.466
65526W        W36126  40.714  10.919  12.590
65527W        W36127   9.776  41.407  11.731
65528W        W36128  13.743  39.512  14.386
65529W        W36129  24.086  42.452  10.453
65530W        W36130  29.508  29.730  14.087
65531W        W36131  16.651   8.878   0.998
65532W        W36132  34.134  13.407   4.561
65533W        W36133  35.105   1.353  11.948
65534W        W36134   2.173  25.797  14.075
65535W        W36135  41.802   5.807   3.748
65536W        W36136  44.017   5.867  12.448
65537W        W36137  34.040  10.644   3.992
65538W        W36138  38.916   6.716   2.213
65539W        W36139   9.612  20.151   3.830
65540W        W36140  42.409  12.212  10.930
65541W        W36141  10.119  44.827  14.332
65542W        W36142   7.207  39.373  14.318
65543W        W36143  37.212  29.793   4.341
65544W        W36144  27.212   1.379   2.203
65545W        W36145  40.357  18.503   2.160
65546W        W36146  19.530  20.319   4.516
65547W        W36147  10.143   3.475   1.232
65548W        W36148  21.636  20.197  12.598
65549W        W36149  35.566  21.853   2.265
65550W        W36150   8.095  21.663  14.373
65551W        W36151  35.957  43.309   0.825
65552W        W36152  39.054   3.399  11.327
65553W        W36153  11.376  29.162   1.694
65554W        W36154  24.834  37.042  11.964
65555W        W36155  15.180  26.362   4.034
65556W        W36156  41.481   7.092   0.591
65557W        W36157  15.254  36.771   2.929
65558W        W36158  17.339  43.941  12.090
65559W        W36159  11.860  29.131   4.159
65560W        W36160  21.202  37.277  12.997
65561W        W36161  23.940  25.870  11.512
65562W        W36162  35.361  31.913   4.036
65563W        W36163  19.185  43.952   3.423
65564W        W36164  28.071   9.784  11.574
65565W        W36165  14.771  11.743  13.876
65566W        W36166  19.997  11.356  10.429
65567W        W36167  30.954  16.817  12.258
65568W        W36168  28.094  25.026   1.775
65569W        W36169  22.669  23.823   3.794
65570W        W36170  23.849  21.004   0.789
65571W        W36171  16.110  40.404   3.725
65572W        W36172  24.498  24.161  11.667
65573W        W36173  30.418  14.707  12.624
65574W        W36174   6.819   6.878   3.443
65575W        W36175   0.978  31.195  10.687
65576W        W36176   2.938  38.004  13.970
65577W        W36177  12.135  33.153  13.782
65578W        W36178  35.430  24.805  13.465
65579W        W36179   3.419  39.067  13.843
65580W        W36180  33.270  42.200   1.400
65581W        W36181  36.345  23.481  14.663
65582W        W36182   7.001  14.835  13.301
65583W        W36183  44.170  25.264   4.246
65584W        W36184   5.669  38.525  14.317
65585W        W36185  12.309  15.630  13.655
65586W        W36186  16.196  19.056  14.374
65587W        W36187   6.904  19.390   2.685
65588W        W36188  31.672  42.334   3.292
65589W        W36189   5.221   6.205   3.365
65590W        W36190   3.283  30.186   4.008
65591W        W36191  42.314   2.254   0.472
65592W        W36192  28.586  10.652   4.937
65593W        W36193  22.624  32.826   5.087
65594W        W36194   4.741  42.818  12.021
65595W        W36195  43.375  28.722  10.308
65596W        W36196  16.513  13.118  11.976
65597W        W36197  26.992  40.286   4.895
65598W        W36198  25.606  36.096   5.350
65599W        W36199  24.089   3.833  11.052
65600W        W36200  10.323  39.269   4.214
65601W        W36201  28.842  39.372  14.858
65602W        W36202   7.184   7.214   3.250
65603W        W36203  18.333  25.039   1.857
65604W        W36204  16.329  22.942   2.841
65605W        W36205  19.241  24.230   4.059
65606W        W36206  30.930  12.249   4.478
65607W        W36207  38.608  30.490  13.099
65608W        W36208  13.449   9.835  11.167
65609W        W36209  16.263  31.361   0.631
65610W        W36210   6.365  11.779   1.334
65611W        W36211  44.095  43.458   0.924
65612W        W36212  39.219  20.437   4.531
65613W        W36213  36.828  26.084  12.517
65614W        W36214  27.236  27.460  13.431
65615W        W36215  30.119  35.422  12.512
65616W        W36216  44.732  11.632   2.213
65617W        W36217   7.234  44.428  11.968
65618W        W36218  42.496  26.239  13.235
65619W        W36219  36.386  44.353   4.784
65620W        W36220  30.947  44.795   2.731
65621W        W36221  17.621   1.149   0.715
65622W        W36222  28.448  36.171   3.356
65623W        W36223   1.956  20.802   2.923
65624W        W36224  15.557  33.147   1.996
65625W        W36225  32.959  28.989  10.688
65626W        W36226  19.255  22.083  14.891
65627W        W36227   1.444  15.488  12.168
65628W        W36228  19.281  19.020  13.858
65629W        W36229  10.393  38.407  11.451
65630W        W36230   1.514   9.671   2.545
65631W        W36231  14.672  14.215   3.309
65632W        W36232  34.209  34.824  12.645
65633W        W36233   3.908  11.359  11.941
65634W        W36234  29.113  20.018  11.615
65635W        W36235   0.356  38.463  10.477
65636W        W36236   4.418  44.471   1.425
65637W        W36237   9.231  32.622   1.991
65638W        W36238  26.731   2.783   3.884
65639W        W36239   7.881  43.949   0.233
65640W        W36240  20.139   5.358  12.771
65641W        W36241  35.476  13.065  11.597
65642W        W36242  28.967  34.551   3.649
65643W        W36243  29.422   0.382   2.461
65644W        W36244  41.531  19.493  11.112
65645W        W36245  21.801   4.392   0.269
65646W        W36246   5.031  37.928   0.832
65647W        W36247  28.072   7.684  13.300
65648W        W36248  29.786  32.107  11.650
65649W        W36249  39.513   8.794   1.338
65650W        W36250  10.100  38.841  12.045
65651W        W36251  31.730  42.543  10.754
65652W        W36252   0.208   1.927   3.561
65653W        W36253   6.354  41.785   4.299
65654W        W36254  39.366  25.167  12.125
65655W        W36255   5.323  20.558  11.075
65656W        W36256   6.876  40.363  13.942
65657W        W36257  16.770  22.155   2.105
65658W        W36258  23.129  19.031  10.401
65659W        W36259  44.473  17.058   5.068
65660W        W36260  39.257  29.863  13.041
65661W        W36261  40.906  30.078   3.795
65662W        W36262  25.904   3.790  11.610
65663W        W36263  15.059  42.737   3.117
65664W        W36264  19.008  20.684  14.371
65665W        W36265  43.380   4.836   1.244
65666W        W36266  40.809  16.178   4.108
65667W        W36267  12.029  29.923  12.111
65668W        W36268  28.237  40.480   2.881
65669W        W36269   7.388   6.166   1.396
65670W        W36270   7.765  25.915   4.789
65671W        W36271  26.389   0.316  13.005
65672W        W36272  38.903   8.170   0.334
65673W        W36273   0.372  38.105  14.808
65674W        W36274  35.404  17.840   1.408
65675W        W36275  27.469  43.430  14.344
65676W        W36276   3.861  10.424   3.237
65677W        W36277  29.813   6.292   2.922
65678W        W36278  29.540  14.559  11.553
65679W        W36279  19.830  25.611   0.303
65680W        W36280   8.737  43.813   3.212
65681W        W36281  13.091   0.395  11.907
65682W        W36282  17.513  28.754   2.871
65683W        W36283  42.568  19.565   5.623
65684W        W36284  32.398  22.253   1.171
65685W        W36285  20.525  11.975  10.681
65686W        W36286  17.254   7.723   0.228
65687W        W36287  24.246  19.786   2.583
65688W        W36288   9.654   6.422   3.170
65689W        W36289   3.457  25.073   0.876
65690W        W36290  24.423   3.830  11.713
65691W        W36291  10.577   4.394  12.449
65692W        W36292   9.364  22.296   2.056
65693W        W36293  24.035  27.680  11.322
65694W        W36294   7.876  23.153  13.887
65695W        W36295  20.634  25.894   5.422
65696W        W36296  28.722  36.580  11.137
65697W        W36297  11.437  30.471  11.837
65698W        W36298  42.336  25.249   1.206
65699W        W36299  19.632  40.242  13.266
65700W        W36300  16.716  31.649  10.025
65701W        W36301  34.611  32.580   4.804
65702W        W36302  23.203  21.991   1.391
65703W        W36303  16.361  24.470   2.244
65704W        W36304  22.106   3.164   0.400
65705W        W36305  28.621  33.467   2.045
65706W        W36306  30.117  14.768   3.628
65707W        W36307   9.426  39.487  12.230
65708W        W36308  35.146  42.511  13.867
65709W        W36309  35.516  27.580  11.644
65710W        W36310  33.997   9.352  14.416
65711W        W36311  32.578   0.188  11.851
65712W        W36312  30.050  44.606  14.042
65713W        W36313  32.527   5.914  13.457
65714W        W36314  23.073  18.456  13.153
65715W        W36315  44.365   7.711   2.831
65716W        W36316  30.559  12.590  14.589
65717W        W36317  26.063  15.546   2.928
65718W        W36318  24.231  40.400   0.982
65719W        W36319  31.905  33.831  13.551
65720W        W36320  11.778  20.467   4.426
65721W        W36321  18.221  41.729   2.239
65722W        W36322  36.981  41.730   4.110
65723W        W36323  30.142  26.089  13.067
65724W        W36324  28.524  26.938  10.920
65725W        W36325  23.992   4.149   2.240
65726W        W36326  38.001  17.050  14.228
65727W        W36327  32.869  22.115   4.525
65728W        W36328  40.792   3.980   4.273
65729W        W36329  33.922  43.351   1.391
65730W        W36330  39.323   4.512  10.264
65731W        W36331  42.895  36.744   1.688
65732W        W36332  38.922  16.329  13.938
65733W        W36333   0.546  33.360  13.442
65734W        W36334   1.488  42.610  13.888
65735W        W36335   4.629  38.496   2.967
65736W        W36336  33.152  32.420   4.711
65737W        W36337   8.800  42.993  10.862
65738W        W36338  29.504   6.812  13.397
65739W        W36339  25.373  33.036   3.239
65740W        W36340   0.292  28.531   1.294
65741W        W36341   9.281  43.314  14.400
65742W        W36342  16.711  36.630  11.111
65743W        W36343  22.923  30.485  12.161
65744W        W36344  38.639  26.077  12.550
65745W        W36345  24.443   7.317   3.173
65746W        W36346  12.246  20.686   3.120
65747W        W36347  24.726  24.569   1.701
65748W        W36348  16.791   6.303  12.772
65749W        W36349  12.302  35.908   3.408
65750W        W36350  22.508  13.684   0.241
65751W        W36351  26.691  23.106  10.546
65752W        W36352  29.903  37.926  13.996
65753W        W36353   3.874  25.154   0.556
65754W        W36354  16.101  23.073   4.951
65755W        W36355   4.453  27.514  11.567
65756W        W36356  30.083  17.023  13.432
65757W        W36357  22.444  10.446   1.028
65758W        W36358   9.575  12.305  13.626
65759W        W36359  38.122   9.412   1.452
65760W        W36360   3.264   7.745  14.951
65761W        W36361  23.472  10.168  12.431
65762W        W36362  11.550  44.805   1.703
65763W        W36363  38.946   6.388  13.846
65764W        W36364   7.328  42.434  13.080
65765W        W36365  13.673   6.161  10.739
65766W        W36366  21.702  19.390  11.762
65767W        W36367  13.244  42.937   3.380
65768W        W36368  16.571   8.255   0.351
65769W        W36369  29.050   3.633  12.414
65770W        W36370   0.979  39.513   4.463
65771W        W36371  44.307  16.246  14.712
65772W        W36372  14.375  28.687  11.131
65773W        W36373  19.789  13.646   1.393
65774W        W36374  25.906  39.162   3.215
65775W        W36375   2.818  23.561   2.619
65776W        W36376  27.247  11.648   1.629
65777W        W36377  24.980   5.560  11.220
65778W        W36378  35.916  27.012   3.906
65779W        W36379   5.963  35.682   4.431
65780W        W36380   6.134   7.674   2.561
65781W        W36381  24.257  43.766   9.792
65782W        W36382   8.910  14.761   0.882
65783W        W36383  35.378  15.833  12.496
65784W        W36384  43.361   0.583  10.857
65785W        W36385   4.304  43.967  13.360
65786W        W36386  44.584   4.422   4.714
65787W        W36387  12.295  26.014   3.584
65788W        W36388  25.116   0.171   0.430
65789W        W36389  38.375  20.142  12.415
65790W        W36390   5.450  19.020  12.368
65791W        W36391   0.368  21.511  11.092
65792W        W36392  15.562   2.944  14.864
65793W        W36393  24.358   6.346  11.118
65794W        W36394   1.432  13.661  10.682
65795W        W36395  39.713   7.680  13.253
65796W        W36396  37.837  24.457  12.593
65797W        W36397  29.272  17.378   0.496
65798W        W36398  43.411  33.144  10.937
65799W        W36399  12.520  23.260   0.365
65800W        W36400   2.744   9.138   3.072
65801W        W36401   2.250  26.192   1.318
65802W        W36402  29.272  29.441   0.424
65803W        W36403  12.168  14.403  11.621
65804W        W36404  19.641   2.766  10.911
65805W        W36405   0.256  36.369   1.747
65806W        W36406  12.370  14.138   0.310
65807W        W36407   3.443   4.433   2.706
65808W        W36408  33.447  42.105   3.196
65809W        W36409  32.979  42.417  10.733
65810W        W36410  14.781  17.987   1.883
65811W        W36411  13.581  42.062   3.258
65812W        W36412  26.965  43.779   1.360
65813W        W36413  33.014  37.528   3.742
65814W        W36414  20.081  35.576  12.948
65815W        W36415  16.411   0.611  11.010
65816W        W36416  27.225   0.923  13.910
65817W        W36417  28.466  39.008   4.375
65818W        W36418  20.262  34.974   1.692
65819W        W36419   7.057  12.026   2.785
65820W        W36420  37.197  23.573  12.934
65821W        W36421  38.807  18.656   9.800
65822W        W36422   5.617  41.737   2.798
65823W        W36423   5.382  14.272   0.683
65824W        W36424  34.068  10.255  13.013
65825W        W36425  36.542  34.586  11.987
65826W        W36426   4.968  37.408   1.790
65827W        W36427  39.728   0.427  14.999
65828W        W36428  22.718   1.960  11.267
65829W        W36429  32.909  10.755   1.216
65830W        W36430  44.444   6.259  12.057
65831W        W36431  33.528  33.860  10.553
65832W        W36432  26.711   7.799  12.381
65833W        W36433  16.962  26.574   3.120
65834W        W36434  20.884  26.966  14.581
65835W        W36435  31.439  28.904  11.710
65836W        W36436  44.545  31.933   3.690
65837W        W36437  31.944  30.509  11.985
65838W        W36438  20.582  12.732  11.417
65839W        W36439  20.641  36.106   3.212
65840W        W36440  10.281  20.806   4.195
65841W        W36441  39.757  38.926   1.641
65842W        W36442  15.559  39.054   0.758
65843W        W36443  15.288  29.534  11.495
65844W        W36444  28.462  16.084   2.264
65845W        W36445  10.184   4.701   4.739
65846W        W36446  37.389   7.829   2.331
65847W        W36447  24.301  34.980  11.182
65848W        W36448  36.192   8.126   3.548
65849W        W36449  18.452   6.694  13.197
65850W        W36450  37.999  24.296  10.610
65851W        W36451  41.464   5.515   3.510
65852W        W36452  42.800  37.748  11.981
65853W        W36453   0.274   2.192   2.634
65854W        W36454  29.610  36.023  12.567
65855W        W36455  35.604  28.823  11.989
65856W        W36456  24.293   5.333  13.367
65857W        W36457  17.504  37.997   2.695
65858W        W36458  44.926  23.624   4.708
65859W        W36459  24.305  15.304  13.415
65860W        W36460  39.973  17.571  14.853
65861W        W36461  40.417  35.319   4.774
65862W        W36462  15.101  31.509  13.321
65863W        W36463  43.944  29.211   0.308
65864W        W36464  21.382  30.534   3.173
65865W        W36465  24.123  38.925  13.801
65866W        W36466  17.374  34.259   2.771
65867W        W36467  20.495  35.601   3.166
65868W        W36468  15.783  21.830   4.605
65869W        W36469  14.604  33.901   2.215
65870W        W36470  38.935  37.114  14.338
65871W        W36471  10.443  19.622   1.866
65872W        W36472  43.427  11.025  13.347
65873W        W36473  12.724  15.176  14.841
65874W        W36474   7.816  33.305  14.302
65875W        W36475  12.977   8.351   3.180
65876W        W36476  32.926  37.946  14.074
65877W        W36477  44.566  28.024  13.339
65878W        W36478  32.885   1.287   0.686
65879W        W36479  10.776  36.197   2.687
65880W        W36480  39.778   2.775   4.657
65881W        W36481   3.367  10.761   4.610
65882W        W36482   8.944  36.008   0.420
65883W        W36483  21.834  43.491  14.590
65884W        W36484  19.869  24.189  11.143
65885W        W36485  14.503  13.142   3.735
65886W        W36486   5.878  23.682   4.901
65887W        W36487   6.327  43.669  14.862
65888W        W36488  42.785  27.942  12.403
65889W        W36489   2.446  37.484   3.606
65890W        W36490  31.054  32.414   3.890
65891W        W36491  19.007  17.357  12.908
65892W        W36492  17.717  20.813   4.830
65893W        W36493  27.628  21.085  14.475
65894W        W36494  32.590   3.991  11.008
65895W        W36495  23.685  44.229   2.803
65896W        W36496  24.153  13.183  10.783
65897W        W36497   6.495  26.680   4.570
65898W        W36498  35.976  38.975   0.666
65899W        W36499  14.553   8.402  13.837
65900W        W36500  12.046   8.370  12.886
65901W        W36501  24.227  30.818  12.526
65902W        W36502  43.055  13.912   4.994
65903W        W36503   1.498   8.313  13.356
65904W        W36504  20.573  40.777  11.677
65905W        W36505  39.832  29.500  11.179
65906W        W36506  36.894  35.960  11.935
65907W        W36507  27.019   8.742  14.911
65908W        W36508  37.940  23.825   4.050
65909W        W36509   0.902  42.873  14.262
65910W        W36510  38.364  39.819   4.600
65911W        W36511  33.514  21.199  11.200
65912W        W36512  20.853  19.654  13.943
65913W        W36513  20.669  10.375   1.370
65914W        W36514   8.412  38.112  14.046
65915W        W36515  21.173  32.736   1.123
65916W        W36516   0.656   1.847  14.119
65917W        W36517  22.243  14.855  12.594
65918W        W36518  34.342  31.603   4.994
65919W        W36519  37.623   2.340  12.268
65920W        W36520  12.225  27.317   3.305
65921W        W36521   2.216  15.671  11.137
65922W        W36522  36.917  14.297   1.922
65923W        W36523  24.588  41.334  11.622
65924W        W36524  24.995  22.335   2.678
65925W        W36525  44.315  23.967  14.908
65926W        W36526  37.238  31.032   3.190
65927W        W36527  14.601  30.663   5.015
65928W        W36528  36.878  35.352   4.281
65929W        W36529  31.362  35.347  13.373
65930W        W36530  18.010  36.408  14.044
65931W        W36531  38.068  31.891   4.718
65932W        W36532  42.538   0.876  13.240
65933W        W36533  32.081  41.944  12.520
65934W        W36534  38.375  10.658   2.686
65935W        W36535  26.753  29.433  13.977
65936W        W36536  29.621  41.735   2.202
65937W        W36537  41.921  38.803   1.487
65938W        W36538  34.546  27.412   1.164
65939W        W36539   5.645   3.720  14.649
65940W        W36540  41.253  40.561   4.594
65941W        W36541  19.970  40.233   4.176
65942W        W36542   7.409  15.725   1.219
65943W        W36543  23.983  44.186  14.406
65944W        W36544  25.640  23.608   5.069
65945W        W36545  27.191  42.997  10.740
65946W        W36546  40.087   3.924  14.898
65947W        W36547  34.831   9.394   3.567
65948W        W36548  14.568  40.804  13.176
65949W        W36549  13.682  13.402  11.090
65950W        W36550  42.044   9.598  11.503
65951W        W36551  10.611  39.811   3.767
65952W        W36552   5.333  33.453  12.380
65953W        W36553  12.419  43.654   1.335
65954W        W36554  11.802  10.665  13.719
65955W        W36555  20.113  18.225   0.827
65956W        W36556  16.859  28.570   2.092
65957W        W36557  19.956   0.470  13.920
65958W        W36558  10.833  42.075  11.068
65959W        W36559  42.434  35.395  13.930
65960W        W36560  43.288  10.284   0.724
65961W        W36561   8.422  10.846   1.296
65962W        W36562  29.009  42.952   3.799
65963W        W36563   9.279  40.515   0.333
65964W        W36564   7.379   2.400   3.618
65965W        W36565  12.824  11.588  11.563
65966W        W36566  17.803   1.757  12.887
65967W        W36567  23.565  20.515   3.076
65968W        W36568  37.450  36.507  12.904
65969W        W36569  20.192  36.369  14.007
65970W        W36570  38.932  31.354  14.192
65971W        W36571  10.830  23.345  12.088
65972W        W36572  24.010  22.132   1.830
65973W        W36573  13.919  10.697  14.798
65974W        W36574  42.956   7.658   3.650
65975W        W36575  31.693  12.765   3.270
65976W        W36576  15.036  28.069   3.757
65977W        W36577  31.050   8.544  10.024
65978W        W36578  25.805  18.132  12.958
65979W        W36579  20.498  29.856  13.352
65980W        W36580   6.915  34.826  11.942
65981W        W36581  44.420  43.447  12.584
65982W        W36582  18.631  33.466   3.817
65983W        W36583  36.382   0.448  12.607
65984W        W36584  24.043  20.265  13.843
65985W        W36585  12.764  14.120   1.721
65986W        W36586  17.617  11.421  13.515
65987W        W36587  41.915   7.239  11.013
65988W        W36588  15.260  38.568  12.054
65989W        W36589  22.712  42.684  12.951
65990W        W36590  44.380  24.912   1.188
65991W        W36591   0.924  19.258   1.350
65992W        W36592  31.835  11.819   0.395
65993W        W36593  32.722  32.197   4.549
65994W        W36594   6.953  18.175   0.875
65995W        W36595   6.776  39.270   3.302
65996W        W36596  31.004   6.096  13.906
65997W        W36597  27.600  36.028  11.250
65998W        W36598   7.429  37.416  10.781
65999W        W36599  14.938  33.551  11.614
66000W        W36600  21.529  30.098  11.589
66001W        W36601  31.266  29.952  13.335
66002W        W36602  26.934   0.416  14.073
66003W        W36603   5.351  28.052   2.600
66004W        W36604  11.875  39.420  10.824
66005W        W36605   9.036   6.616  14.299
66006W        W36606  13.578  20.100   2.124
66007W        W36607  31.592  25.111   3.481
66008W        W36608   9.804   5.360  13.036
66009W        W36609  12.240  23.741  14.641
66010W        W36610   0.737  19.118  13.527
66011W        W36611   1.385  31.431  13.815
66012W        W36612  36.337  31.377   0.207
66013W        W36613  39.467  16.378   1.747
66014W        W36614  23.469  28.100   0.258
66015W        W36615  21.774   3.272  12.747
66016W        W36616   3.745  23.668  13.048
66017W        W36617  13.394  36.815  10.539
66018W        W36618  19.847  19.165  12.089
66019W        W36619   4.376  29.715   2.435
66020W        W36620  42.245  40.431  14.832
66021W        W36621  41.045  19.092  11.661
66022W        W36622   6.729  44.874   2.667
66023W        W36623  39.072  41.585  11.999
66024W        W36624  28.550   3.855   0.189
66025W        W36625  34.088  40.061  11.137
66026W        W36626  39.039   7.346  14.378
66027W        W36627   3.771  12.816   2.668
66028W        W36628   7.644  15.708  10.722
66029W        W36629  35.264  29.940  13.988
66030W        W36630   6.369  23.944   2.559
66031W        W36631   8.349  20.115   2.319
66032W        W36632  25.560  13.036  11.839
66033W        W36633  25.652   5.453  14.287
66034W        W36634  40.105  44.797   2.401
66035W        W36635  27.082  10.352   4.098
66036W        W36636  22.715  18.875  10.113
66037W        W36637  41.439   5.464  10.307
66038W        W36638  37.475   8.985   0.544
66039W        W36639   9.293   8.237  11.763
66040W        W36640  25.401  43.773   4.547
66041W        W36641  40.289   5.882  13.957
66042W        W36642   1.677  31.961  12.722
66043W        W36643  13.340  26.657   1.883
66044W        W36644  22.072  43.401  10.176
66045W        W36645  25.578  35.810   2.361
66046W        W36646  34.906  30.879  14.019
66047W        W36647  15.849  30.482   2.845
66048W        W36648   4.005   0.125   3.201
66049W        W36649  20.681  12.198   4.701
66050W        W36650  40.884  23.268  11.545
66051W        W36651  22.720  31.117  12.592
66052W        W36652  39.864  39.898  14.411
66053W        W36653  41.058  33.613   2.839
66054W        W36654   5.015  32.410   1.848
66055W        W36655  24.924   8.544  11.403
66056W        W36656  37.102   7.227  13.006
66057W        W36657  14.474  15.699  11.647
66058W        W36658  17.264  16.439   0.983
66059W        W36659  14.990  14.307   0.664
66060W        W36660  31.637   7.954   2.257
66061W        W36661   5.485  20.687  10.606
66062W        W36662  23.966  11.660  11.814
66063W        W36663  27.143  36.678  13.363
66064W        W36664  19.380  12.260  11.202
66065W        W36665  39.831  17.053   0.249
66066W        W36666   7.629  36.136   0.406
66067W        W36667  19.063  44.784   4.385
66068W        W36668  19.071  10.403   4.655
66069W        W36669  27.114  10.051   0.429
66070W        W36670   7.314  21.309  12.479
66071W        W36671  39.720  20.902   0.401
66072W        W36672  28.119  18.628  14.127
66073W        W36673  21.774  35.963  12.369
66074W        W36674  40.920  29.765  12.463
66075W        W36675  25.373   4.826   4.683
66076W        W36676  27.950  36.542   0.503
66077W        W36677  17.202  41.847   2.334
66078W        W36678   4.620   3.130  11.009
66079W        W36679   1.617  15.719   4.530
66080W        W36680  15.002   8.786   4.020
66081W        W36681  32.691  19.444   1.680
66082W        W36682  16.247  13.708  12.639
66083W        W36683   8.387   6.871   0.357
66084W        W36684  36.351  40.838   4.815
66085W        W36685   0.919  33.338  14.432
66086W        W36686  10.655  16.901  13.418
66087W        W36687  30.165   4.500   3.355
66088W        W36688  32.235  39.979   1.962
66089W        W36689  28.935   9.068   2.448
66090W        W36690  10.211   9.548  13.395
66091W        W36691  40.853   4.805  11.123
66092W        W36692  33.731   6.345  11.855
66093W        W36693  25.536   2.426   2.534
66094W        W36694  11.254  36.472   0.865
66095W        W36695  11.857   2.300  11.634
66096W        W36696  32.645  39.987  11.485
66097W        W36697  13.444  15.443   3.252
66098W        W36698   9.122  41.977  13.462
66099W        W36699  33.099   1.327  13.939
66100W        W36700  37.831  20.140  13.561
66101W        W36701   1.862  27.394   3.765
66102W        W36702  33.530  14.192   1.974
66103W        W36703  20.691   9.742  12.213
66104W        W36704  28.082  21.917  13.522
66105W        W36705   1.463  32.807  13.466
66106W        W36706  33.624  17.583   4.148
66107W        W36707  12.919  17.626   0.432
66108W        W36708  33.191  16.101  13.522
66109W        W36709   6.846   4.065  11.906
66110W        W36710  29.621  11.862  11.723
66111W        W36711  42.970   1.014   4.611
66112W        W36712   0.953  26.631   4.015
66113W        W36713  43.822  34.020   3.132
66114W        W36714  28.595  36.126   4.141
66115W        W36715  26.624  14.619  12.712
66116W        W36716  19.104   7.904   0.813
66117W        W36717  43.418  27.288  12.382
66118W        W36718  40.426  28.746  14.272
66119W        W36719  42.006  13.545  13.792
66120W        W36720  41.826   5.149   3.479
66121W        W36721  12.840  42.338  12.913
66122W        W36722  28.044   1.719  12.463
66123W        W36723  19.033  43.025   1.930
66124W        W36724  15.301   2.996   0.323
66125W        W36725  23.683  30.118  14.776
66126W        W36726  43.523  27.736   1.922
66127W        W36727  33.662   5.394   0.944
66128W        W36728  34.449  42.682  12.061
66129W        W36729  22.655  42.173  13.025
66130W        W36730  27.583  39.114   4.863
66131W        W36731   6.227  13.482  11.455
66132W        W36732  11.794   3.968  11.553
66133W        W36733  13.177  24.011   4.316
66134W        W36734  33.502  41.506  10.581
66135W        W36735  26.952  10.218  10.757
66136W        W36736  34.534   8.860   1.915
66137W        W36737  37.794  40.467  12.482
66138W        W36738  23.033   7.881   2.186
66139W        W36739  23.284  36.050   0.055
66140W        W36740  12.739  42.412  13.971
66141W        W36741  30.926  23.396   1.899
66142W        W36742  26.563  28.993  13.761
66143W        W36743   8.483  43.877   4.677
66144W        W36744   8.866  22.784  13.491
66145W        W36745  22.623  37.872   1.977
66146W        W36746  39.853  19.769  14.826
66147W        W36747  43.066   9.460   3.158
66148W        W36748  10.247  35.955  14.346
66149W        W36749  42.486   1.249   4.614
66150W        W36750  37.917   0.637   3.171
66151W        W36751  43.548  44.426  11.539
66152W        W36752  37.471  18.908  12.684
66153W        W36753  25.695  29.191  10.544
66154W        W36754  39.247  17.687   1.003
66155W        W36755  37.529  35.403  13.026
66156W        W36756   7.109  26.284  11.098
66157W        W36757  29.648  30.464   4.082
66158W        W36758  33.867  43.446   3.213
66159W        W36759  27.625   8.183  12.329
66160W        W36760  28.394  28.179  11.490
66161W        W36761   4.858  22.290   2.156
66162W        W36762  36.490  27.595  14.023
66163W        W36763  14.802   2.946   2.707
66164W        W36764  32.908  11.352  10.707
66165W        W36765  16.233  35.967  10.127
66166W        W36766   5.406  13.659  12.617
66167W        W36767  38.633  38.005   3.779
66168W        W36768  11.260  43.452   1.730
66169W        W36769   4.225  10.226   0.506
66170W        W36770   8.364  17.747   1.856
66171W        W36771  16.394   3.357  12.088
66172W        W36772   8.289  11.335  14.320
66173W        W36773  11.160  21.758   2.787
66174W        W36774  27.020  20.243  12.056
66175W        W36775  35.850  35.457  11.298
66176W        W36776  39.771  20.696   2.700
66177W        W36777  27.720  21.985   3.309
66178W        W36778   1.264  18.651  14.913
66179W        W36779  40.561   5.924   2.426
66180W        W36780  42.505  17.692   1.141
66181W        W36781  12.513  10.470  14.876
66182W        W36782  23.977   0.342  11.530
66183W        W36783  33.562  27.248  14.320
66184W        W36784  35.082  12.644   0.373
66185W        W36785   3.297  27.082   0.206
66186W        W36786   1.787  41.407   0.807
66187W        W36787  42.234  11.354  11.279
66188W        W36788  39.776  31.883   0.156
66189W        W36789  37.924  42.005  11.108
66190W        W36790   9.716   5.500  11.140
66191W        W36791  27.513   2.256  12.181
66192W        W36792  26.442  44.813   2.737
66193W        W36793  32.400   4.954  12.024
66194W        W36794  13.440  27.798  12.917
66195W        W36795  24.957  12.602   1.139
66196W        W36796   2.202   1.110  12.988
66197W        W36797   7.784   6.757   3.825
66198W        W36798  20.637  30.013  13.839
66199W        W36799  41.523  35.399  13.363
66200W        W36800   5.725  20.440   0.055
66201W        W36801   8.569  30.021   1.423
66202W        W36802  28.538  24.938   0.710
66203W        W36803  17.031  28.712   1.613
66204W        W36804  16.615  22.067  12.912
66205W        W36805  21.588  29.608   3.069
66206W        W36806  33.936  44.537  11.132
66207W        W36807  20.048  36.008  13.252
66208W        W36808  18.507  15.825   2.408
66209W        W36809   1.862  20.611  14.288
66210W        W36810   2.718  26.436   1.306
66211W        W36811  33.472   7.478  13.551
66212W        W36812  11.268  40.847  10.905
66213W        W36813  21.555  38.270  14.347
66214W        W36814  29.480  31.508   2.510
66215W        W36815   1.491  39.777   4.563
66216W        W36816  34.440  23.472  11.987
66217W        W36817   2.972  11.816  12.057
66218W        W36818  26.548  16.544  14.403
66219W        W36819  29.365   3.926  13.308
66220W        W36820  41.935   5.829  11.856
66221W        W36821   7.235  23.504   3.814
66222W        W36822  39.027  20.059  13.358
66223W        W36823  44.416  17.762  10.667
66224W        W36824  41.029  20.096  10.666
66225W        W36825  17.408  33.235   2.174
66226W        W36826  16.315  32.600  12.920
66227W        W36827  10.473  17.754   2.834
66228W        W36828   4.778   2.718  10.240
66229W        W36829  11.131  37.916  12.681
66230W        W36830  24.271   4.775   0.220
66231W        W36831   1.399   8.457  12.140
66232W        W36832  37.846  39.065  10.660
66233W        W36833  44.853  22.411  13.079
66234W        W36834  15.785  22.755   2.878
66235W        W36835  31.063  25.598   1.412
66236W        W36836   5.952  35.787   1.223
66237W        W36837  26.998  18.181   1.152
66238W        W36838  39.495   5.716   3.734
66239W        W36839   4.941   8.445   5.476
66240W        W36840  42.449  22.268  10.959
66241W        W36841  28.177  20.679  12.792
66242W        W36842  38.252  22.509   2.692
66243W        W36843  36.126  19.430   2.608
66244W        W36844  23.277  15.160  13.369
66245W        W36845  13.461  26.268  10.519
66246W        W36846   7.757  14.914  13.079
66247W        W36847  15.600  30.343  12.854
66248W        W36848  34.212  13.086   2.012
66249W        W36849  28.627   8.092   1.408
66250W        W36850  44.972  16.716   1.232
66251W        W36851   8.242  34.377   4.150
66252W        W36852   7.632  43.263  13.026
66253W        W36853   0.944  28.993   3.309
66254W        W36854   9.930  21.519   1.683
66255W        W36855  28.461  25.249  11.411
66256W        W36856  24.931  29.160  14.909
66257W        W36857  35.341   5.950   3.379
66258W        W36858  12.298  26.889  12.849
66259W        W36859  19.329  37.731  13.340
66260W        W36860  39.498  10.391   9.931
66261W        W36861  24.970   4.313   0.590
66262W        W36862  37.479  40.451   4.333
66263W        W36863  32.051  34.841   0.408
66264W        W36864  28.002  28.197  13.832
66265W        W36865  29.714  41.563  14.879
66266W        W36866   6.908  18.785   1.324
66267W        W36867   2.732  21.718   3.778
66268W        W36868  17.712  37.443  10.682
66269W        W36869   4.478  18.154   3.893
66270W        W36870  43.715   2.759  12.878
66271W        W36871  23.200  29.954  14.020
66272W        W36872   3.353  19.786   2.732
66273W        W36873  12.515  33.839  14.871
66274W        W36874  40.436  19.526   2.374
66275W        W36875  17.841  43.870  13.157
66276W        W36876   8.217  26.609   2.369
66277W        W36877  16.019  20.711  12.212
66278W        W36878  30.054   9.972   0.390
66279W        W36879  35.934  22.403   1.833
66280W        W36880   7.993  16.226  12.343
66281W        W36881   6.346  18.066  14.241
66282W        W36882  24.820   2.362  13.983
66283W        W36883   8.727  19.782  13.112
66284W        W36884  33.588  23.953  11.883
66285W        W36885   4.876  12.735   0.867
66286W        W36886   9.600  20.747  14.316
66287W        W36887   5.488  44.039  11.425
66288W        W36888  39.442  34.373   3.710
66289W        W36889  30.200   7.244   3.353
66290W        W36890  24.175  32.131   4.223
66291W        W36891  32.009  16.246  12.508
66292W        W36892   5.189  10.779  14.538
66293W        W36893   1.472  23.217  14.106
66294W        W36894   9.182  43.228   3.348
66295W        W36895  28.910  30.387  12.919
66296W        W36896  33.787   6.748  14.742
66297W        W36897  42.683  15.802   2.678
66298W        W36898   5.867  36.269  14.930
66299W        W36899   4.510  24.505  13.108
66300W        W36900  20.581  30.886   4.368
66301W        W36901  19.937  24.307  14.889
66302W        W36902   1.219  16.150  11.017
66303W        W36903   3.357  42.394   1.946
66304W        W36904  37.327  15.267  14.178
66305W        W36905  24.778  15.179   0.956
66306W        W36906   5.192  31.872   3.603
66307W        W36907  20.986  11.352   1.380
66308W        W36908   8.944  20.138   2.140
66309W        W36909   6.148  21.764   3.392
66310W        W36910  15.694   3.976   3.826
66311W        W36911  35.392  35.102  12.476
66312W        W36912  18.097  34.431   1.327
66313W        W36913  10.189  10.926   4.121
66314W        W36914  18.677  30.904  10.563
66315W        W36915  23.267  36.232  11.588
66316W        W36916  31.981  25.542   4.686
66317W        W36917  27.166   1.666   4.105
66318W        W36918  41.722  17.204   3.070
66319W        W36919  41.258   0.841  13.075
66320W        W36920  26.566  41.547   2.220
66321W        W36921  10.641   5.098   2.744
66322W        W36922  44.512  42.377  12.563
66323W        W36923  27.158  21.949  11.047
66324W        W36924  38.833   1.981  12.805
66325W        W36925  10.018  34.150  12.065
66326W        W36926  29.563  35.560  14.887
66327W        W36927  14.425  34.832  13.473
66328W        W36928  36.061  27.287   5.295
66329W        W36929  18.253   4.830  11.742
66330W        W36930   1.492   5.172   2.195
66331W        W36931  31.196  42.222   3.130
66332W        W36932  20.327  29.972   1.123
66333W        W36933  21.515  28.576   3.349
66334W        W36934  33.620  37.467  11.099
66335W        W36935  32.355  25.461  12.527
66336W        W36936  22.611  15.691  13.119
66337W        W36937   3.992   4.803  11.649
66338W        W36938  16.939  32.848  11.512
66339W        W36939  18.810  28.680  14.071
66340W        W36940   0.444  37.034   0.817
66341W        W36941  32.601  14.798   1.762
66342W        W36942   9.452  35.850  14.773
66343W        W36943  19.014   5.771   1.242
66344W        W36944  14.414  19.125   3.608
66345W        W36945  25.111   7.682  14.426
66346W        W36946  23.293  27.299  12.057
66347W        W36947  20.622  36.102  13.888
66348W        W36948  10.134  31.451  13.036
66349W        W36949  23.373  19.491  13.310
66350W        W36950  44.631  17.747   0.921
66351W        W36951   4.214  31.602  14.930
66352W        W36952   8.781  33.962  13.489
66353W        W36953   4.211  42.397  13.980
66354W        W36954  36.509   4.718   2.925
66355W        W36955  35.184  32.498   0.819
66356W        W36956   4.089  11.241  12.400
66357W        W36957   1.344   4.488  12.735
66358W        W36958  19.523   7.789  11.989
66359W        W36959  12.529  27.899   2.749
66360W        W36960   1.169  42.019   3.194
66361W        W36961   3.396  18.287  14.283
66362W        W36962   7.891  28.422  12.461
66363W        W36963  20.492  35.882  11.422
66364W        W36964   7.009  10.552  12.475
66365W        W36965  23.710  33.445  13.250
66366W        W36966  23.980  17.154  14.413
66367W        W36967  26.816  23.543  13.451
66368W        W36968  21.587  29.938  10.592
66369W        W36969  10.045  28.762  10.678
66370W        W36970  12.802  36.785   2.342
66371W        W36971   5.984  36.923  11.887
66372W        W36972   7.460  41.529  11.145
66373W        W36973  13.591  15.615  12.593
66374W        W36974  39.308  31.749   0.018
66375W        W36975   2.161  37.023  12.459
66376W        W36976  21.914  22.712  11.255
66377W        W36977  18.155  44.648  10.691
66378W        W36978  29.590  33.960   4.349
66379W        W36979   4.997   8.878  13.844
66380W        W36980   1.830  38.909   4.577
66381W        W36981  30.892   1.765  11.843
66382W        W36982  42.637   9.705  13.346
66383W        W36983  38.366   6.341  14.863
66384W        W36984   7.985  30.057   0.510
66385W        W36985  28.193  37.935   0.513
66386W        W36986  25.529  39.910   4.255
66387W        W36987   5.279  27.253   3.066
66388W        W36988   4.667  27.756   0.890
66389W        W36989  15.546  10.586   0.763
66390W        W36990   2.269  35.003  14.977
66391W        W36991   0.059   4.524   0.717
66392W        W36992  29.570  15.853  12.481
66393W        W36993  11.829  24.071   1.911
66394W        W36994  15.852  12.309   3.497
66395W        W36995  24.125  23.533   1.803
66396W        W36996  37.529  40.089  14.330
66397W        W36997   6.419  34.478  11.569
66398W        W36998   4.797  19.789   4.320
66399W        W36999  43.245  17.133   4.128
66400W        W37000  17.590  29.921  14.229
66401W        W37001  31.395  11.880  13.436
66402W        W37002  11.107  28.630  13.840
66403W        W37003  26.514  31.641  14.963
66404W        W37004  43.368  35.368   4.719
66405W        W37005   6.174  43.300  11.222
66406W        W37006  29.596  32.404   2.340
66407W        W37007  29.512  24.154  13.396
66408W        W37008  19.512  43.848   2.989
66409W        W37009  38.127  11.257   4.884
66410W        W37010  12.836   9.177  14.473
66411W        W37011  13.707  31.679  13.074
66412W        W37012  25.016  35.543   0.748
66413W        W37013  32.649  10.295   0.424
66414W        W37014  35.643  21.731   3.123
66415W        W37015   1.555  23.251  13.605
66416W        W37016  23.652  42.759   1.495
66417W        W37017  38.514  28.169   1.685
66418W        W37018   7.523  18.127  11.277
66419W        W37019  27.396  40.049  10.658
66420W        W37020  14.662  33.094  11.152
66421W        W37021  28.983  39.081  12.453
66422W        W37022   6.657  24.212   4.777
66423W        W37023  37.561  16.372   1.240
66424W        W37024  16.161  19.072   5.052
66425W        W37025  22.911   4.364  14.791
66426W        W37026   5.964  21.696  10.501
66427W        W37027  12.569  11.250   2.848
66428W        W37028  16.524  27.562  11.249
66429W        W37029  22.659  17.563   1.598
66430W        W37030  43.451  23.805   1.868
66431W        W37031   0.489  44.374   1.185
66432W        W37032  41.853  15.308  13.415
66433W        W37033  10.290  29.223  10.672
66434W        W37034   6.980  28.415   1.824
66435W        W37035   1.249  31.910   3.262
66436W        W37036  39.970   8.010   2.864
66437W        W37037  13.226  17.077   4.343
66438W        W37038  26.544  23.315  13.867
66439W        W37039  19.630  14.205  12.050
66440W        W37040   0.461  31.179  10.675
66441W        W37041  16.740  37.600  13.687
66442W        W37042  43.423  27.271   2.596
66443W        W37043  38.894  37.243  13.386
66444W        W37044  16.832  44.286  12.321
66445W        W37045  44.480  27.626   1.486
66446W        W37046   3.713  41.942   4.518
66447W        W37047  10.171  43.357   3.150
66448W        W37048  12.738  37.760  11.014
66449W        W37049  44.297   3.519  13.986
66450W        W37050  14.709   2.326  10.915
66451W        W37051  41.810   4.692  13.924
66452W        W37052  43.646   8.270  13.928
66453W        W37053  38.870  15.944   2.721
66454W        W37054  33.896  44.870   1.709
66455W        W37055   7.244   1.488   0.397
66456W        W37056  17.372  31.620   4.655
66457W        W37057  14.259  11.375   0.867
66458W        W37058  38.150  19.019   1.411
66459W        W37059  25.763   0.314   0.778
66460W        W37060   6.617  39.403   1.761
66461W        W37061  28.056   5.465   0.508
66462W        W37062  28.915  28.748  11.454
66463W        W37063  15.626  11.382  14.475
66464W        W37064   4.240  14.135  12.342
66465W        W37065  33.063  38.547  14.743
66466W        W37066  39.012  27.696  10.721
66467W        W37067   2.315  19.007   1.226
66468W        W37068  40.475  23.122   2.477
66469W        W37069   8.565  16.221   1.637
66470W        W37070   2.491  39.065   5.233
66471W        W37071  43.585  27.931  12.010
66472W        W37072   3.293  31.508  11.158
66473W        W37073  22.723  40.539  13.536
66474W        W37074   5.943  32.417   3.980
66475W        W37075  27.578  43.742   3.204
66476W        W37076   1.233   6.266  14.813
66477W        W37077  36.853  43.001  11.942
66478W        W37078  22.532   5.369   3.653
66479W        W37079   9.033  20.160   1.377
66480W        W37080  34.404  38.923  13.507
66481W        W37081  26.982   4.330  13.547
66482W        W37082  36.971  22.241  11.090
66483W        W37083  17.629  29.469   0.192
66484W        W37084  27.655  25.156  11.513
66485W        W37085  34.379  11.890   0.925
66486W        W37086  19.489   0.477  12.949
66487W        W37087  37.547  21.232  12.966
66488W        W37088   2.185  21.662   0.165
66489W        W37089  20.958  20.974  11.204
66490W        W37090  21.650  40.963   4.537
66491W        W37091  43.712  44.278  11.075
66492W        W37092  17.271  32.793  11.118
66493W        W37093  18.192   7.161   2.294
66494W        W37094  27.506  27.421  12.977
66495W        W37095  39.118  12.220   4.504
66496W        W37096  15.831  39.623  12.991
66497W        W37097  21.976  17.697  13.788
66498W        W37098  43.528  44.433   4.615
66499W        W37099   2.887   7.854   0.524
66500W        W37100  15.548  24.544   0.847
66501W        W37101  37.457  16.745  11.675
66502W        W37102  39.774  29.980   2.298
66503W        W37103  22.115  42.335  10.777
66504W        W37104  43.222  31.601  14.773
66505W        W37105  35.512   6.925   1.100
66506W        W37106   9.303  19.521  12.555
66507W        W37107  19.754  17.114   4.606
66508W        W37108  41.219   7.225  11.136
66509W        W37109   9.754  42.482   4.520
66510W        W37110   8.281  42.775   1.270
66511W        W37111  43.811   9.795   2.787
66512W        W37112  29.208  36.648  11.315
66513W        W37113  20.214  15.256   2.334
66514W        W37114  15.283  33.438  13.985
66515W        W37115   3.502  33.422  14.521
66516W        W37116  34.335   9.710  13.920
66517W        W37117  42.325  20.171  11.894
66518W        W37118  30.676  44.951   3.731
66519W        W37119  31.882   3.505   2.650
66520W        W37120  35.566  34.184  14.411
66521W        W37121  29.668  18.891   0.923
66522W        W37122  11.423  14.041  11.005
66523W        W37123  36.517   1.799  13.942
66524W        W37124   7.126  18.989   1.883
66525W        W37125  26.176   9.603  14.968
66526W        W37126  39.813  39.700   0.296
66527W        W37127   8.309  29.673   0.728
66528W        W37128  17.242   2.764   1.643
66529W        W37129   0.289  21.307   1.422
66530W        W37130   0.405  20.631  12.848
66531W        W37131  30.481  36.793  13.861
66532W        W37132  32.151  18.690  10.954
66533W        W37133  15.689  44.385  11.617
66534W        W37134  14.994   8.257   4.081
66535W        W37135  31.803  23.627  14.939
66536W        W37136  30.204  38.892  13.866
66537W        W37137  22.290  40.339   3.587
66538W        W37138  39.923  10.185   2.466
66539W        W37139  22.530  35.518  14.824
66540W        W37140  40.917   8.927   2.408
66541W        W37141  42.059  43.819   1.275
66542W        W37142  19.342   0.335  12.057
66543W        W37143  28.616  43.760  13.931
66544W        W37144   4.568  28.923  14.454
66545W        W37145  29.623   8.238   3.707
66546W        W37146  38.219  17.626   2.410
66547W        W37147  37.766   3.842   3.616
66548W        W37148   1.521  13.124  11.442
66549W        W37149  38.884  29.171   3.406
66550W        W37150   0.871  35.896   2.334
66551W        W37151   4.389  36.998   4.443
66552W        W37152   2.191  22.915   2.361
66553W        W37153  20.371  40.890   1.295
66554W        W37154   5.229   8.695   4.756
66555W        W37155  10.293  38.459   3.377
66556W        W37156  21.653  42.903   4.672
66557W        W37157   2.247  13.214  12.316
66558W        W37158  41.610  34.511  12.472
66559W        W37159  42.431  40.255   0.294
66560W        W37160  38.151  19.154   0.364
66561W        W37161   3.808  24.246   2.221
66562W        W37162  21.231  42.558  11.195
66563W        W37163  44.554  41.074  11.924
66564W        W37164   7.502  39.395   0.479
66565W        W37165  15.422   5.032   3.678
66566W        W37166   9.477   5.914   3.660
66567W        W37167   5.261   8.615   1.371
66568W        W37168  27.999  41.428   2.436
66569W        W37169  10.656   5.791   3.429
66570W        W37170  22.572   3.364   1.708
66571W        W37171  33.929   3.738  13.353
66572W        W37172  41.456  13.511   2.589
66573W        W37173   8.808  30.936   3.089
66574W        W37174  11.020  37.224   1.917
66575W        W37175  25.230   5.656  14.493
66576W        W37176  30.155  13.615   2.845
66577W        W37177   4.559  28.145  12.379
66578W        W37178  44.654   3.125  13.828
66579W        W37179  44.315  29.150  14.181
66580W        W37180  10.270   0.268   2.986
66581W        W37181   3.900  44.449   1.661
66582W        W37182  22.652   8.309   0.001
66583W        W37183   8.260  40.022  12.965
66584W        W37184  44.339   6.333   3.555
66585W        W37185  19.214  32.948  14.026
66586W        W37186  36.514  25.195  14.898
66587W        W37187   7.816  21.697   0.298
66588W        W37188  15.249  26.685  12.388
66589W        W37189  44.826  20.271  13.987
66590W        W37190  21.170  23.469   0.898
66591W        W37191   6.008  10.373  11.703
66592W        W37192  43.968   9.669  12.023
66593W        W37193  27.139  41.851  13.481
66594W        W37194  28.086  24.612   0.698
66595W        W37195  43.100  10.088  14.858
66596W        W37196  17.297   5.791  12.279
66597W        W37197  29.636  27.789  13.478
66598W        W37198  44.701  12.164   2.316
66599W        W37199   1.267   3.479   4.206
66600W        W37200  31.417  36.860  13.471
66601W        W37201   9.747  16.329   4.101
66602W        W37202   5.857  20.788   0.915
66603W        W37203  26.986  34.506   1.834
66604W        W37204  42.518  40.268  12.984
66605W        W37205  36.597  16.798   3.197
66606W        W37206  12.692   5.261  10.631
66607W        W37207   9.105  44.832   4.536
66608W        W37208  31.444  20.775   0.062
66609W        W37209  10.712  20.213  13.737
66610W        W37210  11.926  41.300   1.273
66611W        W37211  36.393   0.968  12.434
66612W        W37212  20.259  17.255   1.896
66613W        W37213  38.578  32.499  14.615
66614W        W37214  35.921  11.128   4.336
66615W        W37215   2.391  14.173  14.340
66616W        W37216  22.146  37.735   3.039
66617W        W37217  25.466   9.436  13.535
66618W        W37218  36.251  31.967   1.347
66619W        W37219  10.706  36.581  11.458
66620W        W37220   7.610  23.620  13.310
66621W        W37221   4.694  14.560   0.992
66622W        W37222  40.008   7.233   1.357
66623W        W37223  22.508  14.183  12.160
66624W        W37224  10.882   4.217  12.832
66625W        W37225  23.150  25.475   2.373
66626W        W37226  41.407  28.950   4.234
66627W        W37227  44.971  44.552  12.814
66628W        W37228  18.843  16.797   2.891
66629W        W37229  34.934  24.624  13.617
66630W        W37230  27.198  44.006  11.926
66631W        W37231   5.318  43.974  14.711
66632W        W37232  18.612   7.421  10.670
66633W        W37233  18.724  22.102  11.140
66634W        W37234  11.891   1.023  13.005
66635W        W37235  21.513  30.138  12.559
66636W        W37236  41.457  44.337   1.989
66637W        W37237  32.450  38.298  12.065
66638W        W37238  10.167  27.488   2.801
66639W        W37239  23.979  44.434   1.873
66640W        W37240   8.699  13.242   1.773
66641W        W37241  41.435   9.185   4.161
66642W        W37242  21.398   2.068   3.916
66643W        W37243  28.120  23.538   0.719
66644W        W37244  35.831  23.051  13.978
66645W        W37245  28.070  41.470  13.866
66646W        W37246  20.338  25.669   4.024
66647W        W37247  37.869  23.183  11.724
66648W        W37248   3.435  40.305  11.810
66649W        W37249  15.052  10.751   2.155
66650W        W37250  21.806  11.291   4.842
66651W        W37251  21.416  33.075  13.434
66652W        W37252  31.096  44.249  12.355
66653W        W37253  22.923  44.836   4.359
66654W        W37254  16.254   4.412   3.201
66655W        W37255  11.656  33.594   4.345
66656W        W37256  43.451  32.936  11.429
66657W        W37257  31.112  40.998   3.535
66658W        W37258   4.936  20.752   1.055
66659W        W37259   6.758  14.287  11.593
66660W        W37260   8.956  11.155   0.514
66661W        W37261  38.182  16.994  11.855
66662W        W37262  41.550   5.423   9.790
66663W        W37263  14.999  27.199   2.460
66664W        W37264  23.503  23.680  13.907
66665W        W37265  25.216  19.695   3.650
66666W        W37266  21.007  17.866   0.476
66667W        W37267  27.098  20.919  11.059
66668W        W37268  27.116  26.040   3.027
66669W        W37269  39.635  14.121   3.541
66670W        W37270  21.420   2.785   3.486
66671W        W37271   7.338  25.958   0.293
66672W        W37272  20.160  10.567   0.283
66673W        W37273  37.672  34.941  11.055
66674W        W37274  21.262  33.633   1.384
66675W        W37275  41.304  30.459  14.885
66676W        W37276  41.845  29.874  13.647
66677W        W37277   1.350  20.332   0.389
66678W        W37278  37.036  34.591  12.119
66679W        W37279   3.939  37.931  12.108
66680W        W37280  34.660  27.221  13.059
66681W        W37281   4.202  26.793   4.853
66682W        W37282   2.872  27.598  12.328
66683W        W37283  38.005  33.330   3.673
66684W        W37284  38.778   8.881   1.877
66685W        W37285  44.607   5.430   4.580
66686W        W37286   8.224  39.247  10.761
66687W        W37287   7.661  38.305  12.586
66688W        W37288  43.395   2.297  14.937
66689W        W37289  41.271  15.353   3.752
66690W        W37290  42.954   3.978   4.142
66691W        W37291  15.806  12.067   1.607
66692W        W37292   0.767   4.200  10.764
66693W        W37293   0.498   3.925   1.963
66694W        W37294  17.969  17.758   2.189
66695W        W37295  32.654  44.222  14.455
66696W        W37296  12.132   2.827   4.251
66697W        W37297  16.208  28.961  10.682
66698W        W37298  30.148  26.640  11.130
66699W        W37299   4.173  21.044  14.283
66700W        W37300   9.553   9.585  11.755
66701W        W37301   7.944  39.282  12.461
66702W        W37302  18.649   7.398  11.170
66703W        W37303  22.578  33.496  14.086
66704W        W37304  10.838  25.439   4.378
66705W        W37305  13.865  32.164  11.770
66706W        W37306  39.967  35.050   3.608
66707W        W37307  30.242   5.887  12.525
66708W        W37308   3.241   7.705   4.572
66709W        W37309  43.461   6.176  14.797
66710W        W37310  33.967  10.885  11.935
66711W        W37311  14.814  35.044   0.754
66712W        W37312  13.135  41.801  14.313
66713W        W37313  41.787  40.392   0.071
66714W        W37314  38.064  43.293  12.943
66715W        W37315  31.920  43.325   4.878
66716W        W37316   3.723  27.577  12.352
66717W        W37317   8.928  39.758   2.699
66718W        W37318  34.577  27.933   1.261
66719W        W37319  43.410   0.038   2.741
66720W        W37320  44.030  19.117   2.586
66721W        W37321   6.330  42.026   3.487
66722W        W37322  41.300  29.025   1.719
66723W        W37323  33.181  25.462  10.486
66724W        W37324  21.360  35.025   3.975
66725W        W37325   3.828  37.498   0.779
66726W        W37326  22.545  12.163  11.688
66727W        W37327   4.307  28.674  13.606
66728W        W37328  42.211  33.926   0.346
66729W        W37329  31.798  16.763  14.811
66730W        W37330  15.119  26.186   3.540
66731W        W37331  17.371  40.734   2.780
66732W        W37332  37.174   4.386  14.993
66733W        W37333  13.819  10.086  11.925
66734W        W37334   8.969   1.727  10.684
66735W        W37335  42.656  30.698   4.190
66736W        W37336  18.362   7.963  12.625
66737W        W37337  31.046   3.360  12.447
66738W        W37338  38.899  13.120   1.871
66739W        W37339   9.252  43.901   0.564
66740W        W37340   9.921  12.702   1.842
66741W        W37341  40.283   1.205  14.315
66742W        W37342   3.300  37.637   3.466
66743W        W37343  28.942  39.938  13.736
66744W        W37344  24.076  19.557  11.945
66745W        W37345  17.623   5.317  13.570
66746W        W37346   5.687  33.418  12.833
66747W        W37347  31.646  41.310  14.814
66748W        W37348  41.532  33.485   2.624
66749W        W37349   8.131  44.734  12.089
66750W        W37350   6.898  38.428  10.807
66751W        W37351  24.466  23.486  13.936
66752W        W37352  17.226  42.226  11.762
66753W        W37353  18.289  18.389  13.797
66754W        W37354   8.941   4.837   2.508
66755W        W37355  16.256  24.030   0.930
66756W        W37356  15.783  23.585   3.383
66757W        W37357  17.420  20.534  13.403
66758W        W37358   7.722  37.551  14.329
66759W        W37359  36.851  44.290  14.406
66760W        W37360  16.217   2.771   3.648
66761W        W37361  19.592   7.680   2.187
66762W        W37362  34.811  34.865   1.746
66763W        W37363  35.678   8.282   3.448
66764W        W37364  27.448  18.511   1.828
66765W        W37365  27.451  24.373  13.591
66766W        W37366  16.289  29.822   1.930
66767W        W37367   6.536  35.011  13.546
66768W        W37368  11.809   8.945   3.686
66769W        W37369  41.699  41.281  13.921
66770W        W37370  38.378  24.136   1.323
66771W        W37371   2.458  28.700   3.798
66772W        W37372  43.453  27.300   1.638
66773W        W37373  22.624  39.722  13.318
66774W        W37374  25.797   2.188   3.360
66775W        W37375  43.723  27.490   1.235
66776W        W37376   3.924  43.725  12.626
66777W        W37377   5.404   3.203  12.494
66778W        W37378  31.921  12.558   4.533
66779W        W37379  29.112  25.722  14.020
66780W        W37380   7.883  41.275   3.251
66781W        W37381  30.012   9.592   1.289
66782W        W37382  42.366  26.202   0.223
66783W        W37383  25.407  18.252   3.598
66784W        W37384  41.543  24.742  14.103
66785W        W37385  23.058  26.673  14.888
66786W        W37386  30.178   9.273   0.872
66787W        W37387   6.199  42.353  11.138
66788W        W37388  23.550   9.728  11.244
66789W        W37389  10.223  32.392  13.008
66790W        W37390   5.449  22.558  12.904
66791W        W37391   9.220  18.477  12.659
66792W        W37392   9.988   1.330   1.634
66793W        W37393  11.897  30.158   1.502
66794W        W37394  30.663  37.082  13.455
66795W        W37395  40.789  31.868  11.235
66796W        W37396  28.237  44.235  12.625
66797W        W37397  40.799   8.970  10.616
66798W        W37398  12.480  37.709  14.831
66799W        W37399  15.529  34.216  14.266
66800W        W37400  21.651   7.791  14.680
66801W        W37401  42.037  17.289  14.325
66802W        W37402  30.345  42.759  11.586
66803W        W37403  24.915  14.014  14.770
66804W        W37404   4.960  26.054   1.404
66805W        W37405  33.048  34.474  14.413
66806W        W37406   7.095  33.819   3.191
66807W        W37407  22.693  27.357  13.110
66808W        W37408  28.465  37.836  14.785
66809W        W37409   6.702   3.875  10.473
66810W        W37410   5.752   9.886   4.502
66811W        W37411  34.690   2.435   4.199
66812W        W37412   5.333  40.273   0.322
66813W        W37413  16.336  38.380  14.006
66814W        W37414  23.616  24.096  10.706
66815W        W37415  10.759  18.940   3.922
66816W        W37416  22.517  19.070   4.228
66817W        W37417  41.350  20.926   0.486
66818W        W37418  40.069   0.229   1.659
66819W        W37419  14.050  20.517  10.673
66820W        W37420  44.581  23.202  14.461
66821W        W37421  28.191  23.988  14.348
66822W        W37422  30.110  42.182   0.452
66823W        W37423  17.832  30.062   2.344
66824W        W37424  33.204   1.722  14.913
66825W        W37425  26.660   4.281  12.576
66826W        W37426  24.008  37.828  13.929
66827W        W37427  12.238  28.577   2.683
66828W        W37428  17.113  27.638  11.997
66829W        W37429  13.303  36.670   2.252
66830W        W37430  32.144   1.921   1.988
66831W        W37431  13.210  22.950   4.080
66832W        W37432  14.648   1.302   3.430
66833W        W37433   4.260  43.047   3.369
66834W        W37434  10.594  21.706  14.522
66835W        W37435  19.871  21.252  11.361
66836W        W37436  26.182  18.707   3.091
66837W        W37437   6.667  22.227  11.137
66838W        W37438   3.720  27.024  12.493
66839W        W37439  12.248  44.198   4.384
66840W        W37440  30.675   2.538   0.648
66841W        W37441  40.415  13.309   3.291
66842W        W37442   6.641  12.321   2.762
66843W        W37443  40.807  37.637   3.311
66844W        W37444   0.786  22.631   4.074
66845W        W37445   8.202   6.006  13.539
66846W        W37446  30.183  22.041  14.976
66847W        W37447  14.816  40.587  13.588
66848W        W37448  40.003  14.785  11.083
66849W        W37449  44.074  20.954   1.791
66850W        W37450  37.415  24.219  12.436
66851W        W37451  44.414  37.147  14.800
66852W        W37452  12.660  29.435  11.233
66853W        W37453   1.438   0.303   2.574
66854W        W37454   8.144  17.417   2.872
66855W        W37455  32.597  43.878   3.255
66856W        W37456  32.372  16.852   0.700
66857W        W37457  41.522  43.781  14.747
66858W        W37458  33.097   2.381   4.409
66859W        W37459  29.594   6.853  14.836
66860W        W37460  13.643  24.961   1.804
66861W        W37461  27.483  13.709  14.951
66862W        W37462  29.661  27.105   1.770
66863W        W37463   9.810   4.312  13.964
66864W        W37464  18.352  36.884  12.013
66865W        W37465   3.488   0.067  12.945
66866W        W37466  33.420  36.710  10.800
66867W        W37467  11.705  17.080   3.225
66868W        W37468  21.482  13.328  11.584
66869W        W37469  16.035  43.889  11.039
66870W        W37470   5.387  28.200  13.949
66871W        W37471  26.671  18.716  10.773
66872W        W37472  38.154  43.009   2.906
66873W        W37473  18.763  31.460   2.812
66874W        W37474  18.691  32.528   4.855
66875W        W37475   0.693  44.941   4.658
66876W        W37476  12.709   1.273   4.654
66877W        W37477  40.284  40.582   3.169
66878W        W37478  29.057  25.159   3.663
66879W        W37479  20.600   2.664   3.109
66880W        W37480   8.390  17.680   4.938
66881W        W37481  19.781  15.162  14.393
66882W        W37482   5.325  10.533  14.983
66883W        W37483  27.740  11.120  13.999
66884W        W37484   9.181  37.976   4.699
66885W        W37485  17.000  42.881  12.919
66886W        W37486  29.929  23.613   1.642
66887W        W37487  43.298   2.942   4.573
66888W        W37488  31.126  41.573  12.185
66889W        W37489  12.794   9.363   0.963
66890W        W37490  21.967  43.857  13.544
66891W        W37491  16.739  29.854   1.264
66892W        W37492  35.118   3.339   3.303
66893W        W37493  38.461  39.059  11.541
66894W        W37494  12.774   7.722   2.862
66895W        W37495  21.630  14.374   0.957
66896W        W37496  10.693   6.158   1.253
66897W        W37497  44.198  32.839  14.549
66898W        W37498  44.334  14.358  14.412
66899W        W37499   6.932  32.972   0.810
66900W        W37500   5.667  39.498  13.963
66901W        W37501  21.512   6.111  12.535
66902W        W37502  31.866  21.936   3.645
66903W        W37503   6.347  37.497  11.939
66904W        W37504  36.139  14.844  11.377
66905W        W37505  35.996   2.391   3.871
66906W        W37506  21.672  33.128   2.731
66907W        W37507  29.472  36.607   1.886
66908W        W37508   2.361  16.759  10.722
66909W        W37509  35.981  38.565   9.848
66910W        W37510   4.952  24.595  14.061
66911W        W37511  31.351  14.592   0.152
66912W        W37512  20.189  44.019  13.408
66913W        W37513  21.940  29.931   0.277
66914W        W37514  34.336  37.109   2.373
66915W        W37515  12.616  37.374   0.796
66916W        W37516  12.633  13.273  11.942
66917W        W37517  35.155  21.371  10.843
66918W        W37518  44.390  23.174  13.487
66919W        W37519  33.264  11.336   1.468
66920W        W37520  21.317  12.231   2.066
66921W        W37521  15.083   4.406   4.855
66922W        W37522  10.132   1.710  13.510
66923W        W37523  33.035  20.640  12.463
66924W        W37524  34.961   5.214   0.269
66925W        W37525  17.804  36.500   0.357
66926W        W37526  38.362  41.932  13.055
66927W        W37527  41.105   8.262   2.319
66928W        W37528  35.460   4.281   4.928
66929W        W37529   7.676  35.915  12.061
66930W        W37530  30.193  16.081  12.060
66931W        W37531  25.095   8.417  10.543
66932W        W37532  24.136  15.417   1.475
66933W        W37533  27.550   7.651   2.391
66934W        W37534  30.362  43.757  13.548
66935W        W37535  39.796  41.823   2.767
66936W        W37536  41.371  11.852  11.416
66937W        W37537  21.497  10.899   4.601
66938W        W37538   1.644  40.629  12.890
66939W        W37539  22.268   4.164   0.425
66940W        W37540   2.403  44.251   1.124
66941W        W37541  37.959  34.460  14.170
66942W        W37542  26.702   2.423   3.137
66943W        W37543  32.910  34.613   4.951
66944W        W37544  26.150   3.891  12.997
66945W        W37545  28.969  38.438   0.816
66946W        W37546  23.641  31.622  10.533
66947W        W37547  22.265   0.198  14.544
66948W        W37548  13.165  28.337  14.013
66949W        W37549   5.183  17.128  11.556
66950W        W37550   7.904   3.867  11.540
66951W        W37551  10.111  25.098  13.453
66952W        W37552   0.361  38.488  12.597
66953W        W37553  10.836  31.509  11.490
66954W        W37554  25.725  36.409  14.775
66955W        W37555  12.967  19.827  12.563
66956W        W37556  17.168  19.059  12.899
66957W        W37557  33.623   4.485  12.927
66958W        W37558  26.474  23.131   1.820
66959W        W37559  25.023  16.057  11.848
66960W        W37560  19.226  27.501   1.180
66961W        W37561  39.677   3.781   0.205
66962W        W37562   4.857   8.447   4.426
66963W        W37563  31.008  34.911   0.027
66964W        W37564  34.157  14.091  13.892
66965W        W37565  29.306  27.137  14.591
66966W        W37566  20.740  19.254   4.407
66967W        W37567   3.220   9.690  12.132
66968W        W37568  15.774  32.166  14.813
66969W        W37569  13.693  17.576  11.262
66970W        W37570  20.185  20.552  12.068
66971W        W37571  42.970  28.537   1.694
66972W        W37572  13.252  24.022  11.098
66973W        W37573  43.939  40.424   5.032
66974W        W37574  32.929  38.569  10.674
66975W        W37575  18.696  20.414   3.442
66976W        W37576  43.862  27.852   3.526
66977W        W37577  20.881   4.392  13.843
66978W        W37578   4.240   0.363   1.200
66979W        W37579  23.507  12.868   3.073
66980W        W37580  31.359  17.697   3.997
66981W        W37581  36.838  28.160   0.066
66982W        W37582  27.543  21.623   0.264
66983W        W37583  34.276  27.060   0.910
66984W        W37584  41.151  27.106  14.396
66985W        W37585   6.755  30.348  12.459
66986W        W37586  25.610  39.004  10.970
66987W        W37587  33.861  31.785  14.877
66988W        W37588   3.692  29.849   2.176
66989W        W37589  11.176  14.920  13.534
66990W        W37590  37.181  24.106  14.329
66991W        W37591  28.977   2.260   4.749
66992W        W37592  17.944   1.342   4.641
66993W        W37593  42.343  14.129   1.171
66994W        W37594  18.184  21.216   2.854
66995W        W37595  19.783  21.209  10.488
66996W        W37596  40.856  27.176  13.405
66997W        W37597  42.181  18.107   1.079
66998W        W37598  19.169   5.358  12.469
66999W        W37599   3.872  15.029  14.299
67000W        W37600   8.833  41.645  12.927
67001W        W37601  42.007   3.840  14.979
67002W        W37602  15.269  16.161  14.461
67003W        W37603  30.381  13.580  14.938
67004W        W37604  25.723  39.188  11.777
67005W        W37605  27.688  33.952   2.873
67006W        W37606   1.101  42.954  12.031
67007W        W37607  21.021  22.643  13.834
67008W        W37608  34.130  12.160   0.519
67009W        W37609   5.782  36.766  14.763
67010W        W37610   8.366  13.854   1.806
67011W        W37611  13.229  28.445   1.503
67012W        W37612  11.785  24.972  11.613
67013W        W37613  27.687  31.146   2.838
67014W        W37614  15.609  14.648   1.154
67015W        W37615  11.248  41.718  10.992
67016W        W37616  25.510  19.948  11.418
67017W        W37617  10.081  44.365   0.494
67018W        W37618  20.023  20.001  10.647
67019W        W37619  32.825   1.497   0.179
67020W        W37620  44.716  42.009   0.262
67021W        W37621  42.870  40.077  13.858
67022W        W37622  40.427  41.591   0.520
67023W        W37623  17.502  17.878   3.761
67024W        W37624  41.110  26.394   2.870
67025W        W37625   7.677   4.668   5.035
67026W        W37626   7.305  12.777   2.421
67027W        W37627  30.493   2.984   3.023
67028W        W37628  31.177  27.038  13.494
67029W        W37629  41.788   5.385  12.089
67030W        W37630  38.703   0.560  12.736
67031W        W37631   0.245  17.859   0.304
67032W        W37632  28.667  37.852   2.837
67033W        W37633   4.464  31.548   1.281
67034W        W37634  39.267  38.907   4.346
67035W        W37635   1.723   0.804  14.064
67036W        W37636  42.975  37.426   1.432
67037W        W37637   0.836  33.939  12.798
67038W        W37638  14.749  41.801  14.942
67039W        W37639  28.481  43.671   4.243
67040W        W37640   0.516  35.164  11.938
67041W        W37641  20.414  37.341   3.691
67042W        W37642  24.184  32.652   1.231
67043W        W37643  42.841   7.466  13.351
67044W        W37644  37.708  33.981   4.093
67045W        W37645  13.845  23.454   2.352
67046W        W37646   4.298  44.063   3.249
67047W        W37647  30.041   7.630   1.574
67048W        W37648  17.809  42.100   2.335
67049W        W37649  10.522  33.674  11.183
67050W        W37650  11.880  29.701  14.274
67051W        W37651  44.252   4.938   0.909
67052W        W37652  31.005  44.456   1.026
67053W        W37653  42.734   0.945  12.248
67054W        W37654   8.960  27.596  12.486
67055W        W37655  15.875   8.599   9.755
67056W        W37656  40.920  21.042   1.195
67057W        W37657  26.272  36.403   4.269
67058W        W37658  14.057  26.003   3.753
67059W        W37659  11.042  25.628   3.682
67060W        W37660   5.364  27.794   3.043
67061W        W37661  27.935  37.966  12.445
67062W        W37662  44.510  39.915   2.132
67063W        W37663  27.611  35.922   3.665
67064W        W37664   8.285  10.300  11.208
67065W        W37665  31.901  34.342  14.239
67066W        W37666  44.980  35.988   3.947
67067W        W37667  24.459   8.108  13.035
67068W        W37668   8.158  18.411  14.293
67069W        W37669  21.263   4.510   1.770
67070W        W37670  28.735  20.191  14.449
67071W        W37671  22.973  14.372   0.797
67072W        W37672  32.354  22.188  12.481
67073W        W37673  34.346  12.337   3.749
67074W        W37674  13.121  25.854  13.529
67075W        W37675  19.601  25.040  11.594
67076W        W37676   1.845  38.450   4.032
67077W        W37677  20.944  24.174  13.787
67078W        W37678  29.750  15.751   2.169
67079W        W37679   8.017  16.033   0.028
67080W        W37680  20.633  31.553   3.654
67081W        W37681  44.628  28.793  10.800
67082W        W37682  25.017   2.203  12.659
67083W        W37683  22.492   8.735   4.124
67084W        W37684  43.870  32.741  12.082
67085W        W37685   8.920  27.891   1.758
67086W        W37686  19.968  31.883  10.783
67087W        W37687  10.842  35.825  12.681
67088W        W37688  31.379  41.874   0.811
67089W        W37689  16.592  29.632  11.382
67090W        W37690   2.465  28.661  12.844
67091W        W37691   2.207  43.309  14.326
67092W        W37692  24.733  23.025  13.884
67093W        W37693  37.055  28.394   4.070
67094W        W37694  44.977  33.449   2.234
67095W        W37695  34.279  11.758   1.768
67096W        W37696  28.033  32.450  14.585
67097W        W37697  37.373  20.366   0.931
67098W        W37698  10.904  28.472   0.382
67099W        W37699  38.568  20.137   2.643
67100W        W37700  38.092  11.539   4.437
67101W        W37701  10.270  43.064  12.435
67102W        W37702   7.408  31.777   3.746
67103W        W37703  29.302  41.796  12.514
67104W        W37704  20.162  27.566  11.686
67105W        W37705  40.005  23.731  11.649
67106W        W37706  38.109  30.397  11.776
67107W        W37707  38.588  38.980  13.486
67108W        W37708  42.943   1.930  10.740
67109W        W37709  14.576  12.339   4.132
67110W        W37710   9.792   3.518  11.076
67111W        W37711  35.591   4.416   0.431
67112W        W37712  40.799  26.683   1.474
67113W        W37713  37.456   8.128  10.889
67114W        W37714  18.303  31.077   0.945
67115W        W37715  35.758   4.986  12.384
67116W        W37716  36.389  37.499   4.651
67117W        W37717  36.285   4.393  11.090
67118W        W37718   3.756  34.043  13.510
67119W        W37719  31.128  39.402   1.411
67120W        W37720  34.968  12.268  10.792
67121W        W37721  16.609  23.059   4.245
67122W        W37722  23.483   3.451  11.623
67123W        W37723  41.099  21.601   3.303
67124W        W37724  36.870  30.884  12.175
67125W        W37725  29.464  26.601   4.252
67126W        W37726   1.328  42.095  13.861
67127W        W37727  26.118   8.820   3.112
67128W        W37728  23.643  29.008   3.415
67129W        W37729  42.775   2.177  13.580
67130W        W37730  23.065  17.900   1.368
67131W        W37731  31.634  29.479   3.427
67132W        W37732   3.362  16.655  12.561
67133W        W37733  13.755  18.716   2.709
67134W        W37734  39.747  41.822   3.672
67135W        W37735  28.119   2.431  14.002
67136W        W37736   7.872  44.495   0.449
67137W        W37737  15.744  28.799  10.988
67138W        W37738  10.118  23.561  10.346
67139W        W37739  25.031  17.761  14.953
67140W        W37740   6.862  22.435  14.416
67141W        W37741  44.668  32.958  14.385
67142W        W37742   0.900   0.982   1.519
67143W        W37743  27.055  28.895  12.476
67144W        W37744  21.869  43.460  13.859
67145W        W37745  19.638  27.780   4.999
67146W        W37746  31.798  30.427  10.126
67147W        W37747  37.352  19.605  11.113
67148W        W37748   8.197  21.686  10.644
67149W        W37749  10.243  41.950   2.796
67150W        W37750  14.134  40.270  10.464
67151W        W37751  41.911  15.744   5.042
67152W        W37752  37.240  42.590  11.264
67153W        W37753   3.504  41.785   3.206
67154W        W37754   7.942   1.097   1.374
67155W        W37755  30.965   9.150  12.995
67156W        W37756   7.526   8.585  11.071
67157W        W37757  17.204   4.245  12.733
67158W        W37758  11.801  42.406  13.514
67159W        W37759  14.216  40.778  14.367
67160W        W37760  10.799  41.373  10.628
67161W        W37761  29.023  10.733   4.647
67162W        W37762  27.537  38.025  13.414
67163W        W37763  32.188  12.515  11.461
67164W        W37764  42.309  35.923  12.311
67165W        W37765  29.865  44.519   1.715
67166W        W37766  24.227  20.427   4.244
67167W        W37767  21.573  22.634   0.064
67168W        W37768  24.137  24.209   1.251
67169W        W37769  37.453  30.460  11.117
67170W        W37770  18.763  39.338  14.502
67171W        W37771  35.132  13.769   3.322
67172W        W37772  22.576  39.501  13.809
67173W        W37773   6.907  42.030   1.842
67174W        W37774  24.521  13.820   3.387
67175W        W37775  43.919  42.265   4.275
67176W        W37776  44.196   1.649   1.791
67177W        W37777  17.832  25.624   0.277
67178W        W37778  17.805  39.547   0.966
67179W        W37779  17.730   9.372  11.089
67180W        W37780  31.491  21.016  10.614
67181W        W37781  40.146  18.988   3.190
67182W        W37782   4.881  12.309  12.096
67183W        W37783  26.344   2.235  11.232
67184W        W37784  28.376   7.733   0.291
67185W        W37785   5.833  10.850  10.395
67186W        W37786  16.390   5.205   4.750
67187W        W37787  27.845   9.774   3.589
67188W        W37788  19.082  13.533  12.871
67189W        W37789  21.866  11.684   3.087
67190W        W37790  36.387  36.169  12.557
67191W        W37791  24.901  11.243  14.084
67192W        W37792   1.944  41.856   2.025
67193W        W37793  40.034  32.218  11.017
67194W        W37794   8.201  12.426  12.445
67195W        W37795  23.064   5.982  14.478
67196W        W37796  34.706   4.267   1.755
67197W        W37797  10.520   1.736  12.065
67198W        W37798  13.290  24.214   0.390
67199W        W37799  36.926  34.779  13.397
67200W        W37800  31.604  14.380  10.635
67201W        W37801  15.663  17.549  13.070
67202W        W37802  25.664  24.444  12.973
67203W        W37803  21.916  21.689  12.582
67204W        W37804  36.026  37.377   1.449
67205W        W37805  42.295   7.790   4.308
67206W        W37806  33.019  31.893   3.760
67207W        W37807  30.630  12.934   3.980
67208W        W37808  13.260  36.518  13.356
67209W        W37809  13.138  34.877  10.868
67210W        W37810   4.944  37.925  14.509
67211W        W37811   5.922  38.925   1.041
67212W        W37812   2.283   7.795  13.522
67213W        W37813  42.620  34.249   4.138
67214W        W37814  31.920  39.957   0.881
67215W        W37815   1.367  29.191   4.566
67216W        W37816   2.784   5.882   0.759
67217W        W37817   8.698   3.521   2.854
67218W        W37818  12.867  11.350   0.969
67219W        W37819  20.845  29.591   3.833
67220W        W37820  13.226  27.937   4.089
67221W        W37821  31.532  28.668   0.533
67222W        W37822   7.886  43.470   3.661
67223W        W37823  23.537  34.872  14.424
67224W        W37824  43.000   6.208  12.899
67225W        W37825   9.482  23.816   4.203
67226W        W37826  19.051   7.741   3.415
67227W        W37827  34.904  40.805  12.031
67228W        W37828  41.525  36.527  11.176
67229W        W37829  42.446   2.925  13.864
67230W        W37830  41.706  16.299  12.895
67231W        W37831  31.104   4.935   0.830
67232W        W37832  27.989  34.829   1.826
67233W        W37833  19.572  19.131  11.583
67234W        W37834  10.895   5.273  13.000
67235W        W37835  22.856  14.345   2.866
67236W        W37836  31.888   2.336   2.130
67237W        W37837  31.389  39.853   2.330
67238W        W37838   9.594  40.304  14.351
67239W        W37839  27.227  32.775   2.592
67240W        W37840   0.216  13.094  14.345
67241W        W37841   9.354  34.266   2.785
67242W        W37842  23.525  25.474  11.345
67243W        W37843  11.884   5.825   0.747
67244W        W37844  34.658  29.003  11.195
67245W        W37845  15.345   6.206   1.786
67246W        W37846  23.426  24.498  14.291
67247W        W37847  23.023  37.770  12.451
67248W        W37848  30.898   0.525  13.425
67249W        W37849   1.013  12.432   1.348
67250W        W37850  28.517  42.256  11.677
67251W        W37851   8.857  19.113   1.364
67252W        W37852  10.740   5.046  14.580
67253W        W37853   9.565  27.866  10.590
67254W        W37854  41.545   1.332   2.403
67255W        W37855  21.601  14.829  11.489
67256W        W37856  39.274  13.856   2.830
67257W        W37857   7.352   9.590   1.688
67258W        W37858  19.091  33.292   0.451
67259W        W37859  29.293   4.904  14.250
67260W        W37860  40.365  20.684  14.332
67261W        W37861  28.272  17.645   3.956
67262W        W37862  18.113  40.726  11.539
67263W        W37863  21.968  31.461   2.279
67264W        W37864   2.936   1.444  13.351
67265W        W37865  38.782   3.264   0.836
67266W        W37866  11.719   2.745  11.381
67267W        W37867  22.757  30.366   0.266
67268W        W37868  44.806  26.390  13.110
67269W        W37869  37.477  25.115   2.213
67270W        W37870  44.012  31.583   4.954
67271W        W37871   3.456   0.992  13.479
67272W        W37872  27.926  41.836   2.119
67273W        W37873  20.520  13.143   3.259
67274W        W37874   1.971   6.868   2.298
67275W        W37875  32.120  42.420   3.060
67276W        W37876  18.935  15.747   0.949
67277W        W37877   1.993  29.159   1.664
67278W        W37878  20.851   6.158   1.241
67279W        W37879  13.778  34.538   3.077
67280W        W37880  43.834  20.631   1.314
67281W        W37881   6.977  14.225  12.827
67282W        W37882  16.027   3.223   2.407
67283W        W37883   6.782   8.125  11.639
67284W        W37884  41.449   5.196  12.620
67285W        W37885   3.462  34.962  13.349
67286W        W37886  39.980  12.903   1.214
67287W        W37887  25.275  34.031  11.092
67288W        W37888  34.105  18.606   3.611
67289W        W37889  43.944   9.324  13.436
67290W        W37890  26.404  25.461  12.897
67291W        W37891  27.529   7.791   1.881
67292W        W37892  11.556  26.764  13.966
67293W        W37893  38.198   0.898  10.535
67294W        W37894  40.565   8.846  14.255
67295W        W37895   7.381  20.020   0.234
67296W        W37896   2.046  24.044  13.578
67297W        W37897  42.340  10.269   2.788
67298W        W37898  22.821   4.321   3.284
67299W        W37899   1.230  44.008   1.779
67300W        W37900  40.359  40.850   2.254
67301W        W37901  41.505  10.236  10.686
67302W        W37902  21.820   5.672   0.524
67303W        W37903  40.055  22.095   4.056
67304W        W37904   2.835   9.417  11.890
67305W        W37905  31.404  10.467   0.457
67306W        W37906  33.965  22.755   1.834
67307W        W37907  25.899  13.110   4.128
67308W        W37908  24.992  29.149  13.878
67309W        W37909   4.110  40.367   2.711
67310W        W37910  44.493   4.235  11.989
67311W        W37911  17.733   8.983  14.995
67312W        W37912  19.080  11.822   4.662
67313W        W37913  24.357  16.672   1.603
67314W        W37914  26.671   2.804   0.476
67315W        W37915  12.968  40.466   3.695
67316W        W37916   6.131  28.129  14.585
67317W        W37917  30.914  20.818  11.446
67318W        W37918   4.386   3.112   2.153
67319W        W37919  30.465   8.062   4.580
67320W        W37920  16.655  23.004  10.414
67321W        W37921  34.949   7.417   3.835
67322W        W37922   4.839  15.946   0.693
67323W        W37923  32.810  32.521   2.818
67324W        W37924  23.111   8.247  11.493
67325W        W37925  33.918  16.976   4.324
67326W        W37926  22.406  37.040  12.902
67327W        W37927  28.612   2.827   1.950
67328W        W37928  12.387   6.106  14.430
67329W        W37929   2.930  27.609   2.776
67330W        W37930  12.464  40.209  14.340
67331W        W37931  13.254  25.949  10.858
67332W        W37932  41.516  17.331  13.022
67333W        W37933  23.516  12.730  14.341
67334W        W37934   2.834  25.206   4.615
67335W        W37935  25.916  31.626  11.701
67336W        W37936  23.918   4.169  13.806
67337W        W37937   8.035   8.109  14.370
67338W        W37938  22.556  19.064   3.367
67339W        W37939  13.915  36.047   1.161
67340W        W37940   8.161   6.630  14.946
67341W        W37941  37.851   2.287   0.719
67342W        W37942   5.894  42.439   3.401
67343W        W37943   5.233   4.989   2.690
67344W        W37944  22.258  21.267  14.880
67345W        W37945  22.208  30.512  10.551
67346W        W37946  43.578  16.735   4.053
67347W        W37947  43.331  25.982   2.918
67348W        W37948  27.024  12.779  14.138
67349W        W37949  43.709  20.284  13.306
67350W        W37950   2.353  11.914   2.941
67351W        W37951  20.603  18.784   4.213
67352W        W37952   4.754  30.914  13.947
67353W        W37953  39.388  24.120  11.975
67354W        W37954  29.851  21.155  14.191
67355W        W37955   3.204  10.932   1.002
67356W        W37956   7.932  19.144   3.244
67357W        W37957   5.858   8.371   0.715
67358W        W37958  25.164  22.210  10.596
67359W        W37959   6.444  10.424  10.720
67360W        W37960  14.961  15.362  10.686
67361W        W37961  30.588   5.252  14.301
67362W        W37962  22.243  37.276  14.877
67363W        W37963  26.103  28.484  12.659
67364W        W37964  29.312  22.779   0.325
67365W        W37965  26.192  28.068   2.749
67366W        W37966  15.329   1.675  13.510
67367W        W37967  23.691   7.483   4.409
67368W        W37968   0.827  34.589   3.660
67369W        W37969  35.517  41.347   1.333
67370W        W37970  25.099  32.007   0.164
67371W        W37971  17.292  19.739  12.986
67372W        W37972  38.857  26.564   2.145
67373W        W37973   6.618  40.803  14.017
67374W        W37974   5.021  38.733  10.000
67375W        W37975  19.438  23.460   0.366
67376W        W37976  44.543  11.807  14.574
67377W        W37977  27.778  21.267  11.950
67378W        W37978  38.126  18.188  14.796
67379W        W37979  28.185  28.527  11.117
67380W        W37980  41.482  15.672   1.419
67381W        W37981  27.430  16.819  13.942
67382W        W37982  23.085  29.920   4.044
67383W        W37983  13.688  34.950   3.840
67384W        W37984   4.201  19.629  14.814
67385W        W37985  17.936  43.006  12.568
67386W        W37986  29.023  33.148   1.764
67387W        W37987  13.688  22.760   4.692
67388W        W37988   5.137  21.438  12.027
67389W        W37989  14.799   4.380  14.019
67390W        W37990  37.541  40.079  12.997
67391W        W37991  14.667   8.763   3.033
67392W        W37992  37.067   6.197  11.989
67393W        W37993   8.278  12.509  14.730
67394W        W37994  10.933  11.340  14.320
67395W        W37995  38.779  40.994   1.990
67396W        W37996  38.656  24.590   4.105
67397W        W37997   0.853   4.875   4.568
67398W        W37998  24.233  24.941   3.801
67399W        W37999  13.706  31.991   3.746
67400W        W38000   8.654  35.385   4.141
67401W        W38001  19.829  19.153   3.872
67402W        W38002  40.489   5.601  14.335
67403W        W38003  20.027  18.386  11.547
67404W        W38004   4.054  27.773   4.102
67405W        W38005  13.278  12.326   0.780
67406W        W38006   3.711   1.829   0.422
67407W        W38007  16.766  32.181  13.562
67408W        W38008  34.953  23.698   3.289
67409W        W38009  22.463  37.161   0.376
67410W        W38010   5.463  14.232  14.236
67411W        W38011  35.130  26.581   2.913
67412W        W38012  17.156  37.460  10.727
67413W        W38013  13.251  34.587   0.403
67414W        W38014  21.016  31.335  14.398
67415W        W38015  39.870  15.042  10.644
67416W        W38016  33.109  29.054  11.190
67417W        W38017  43.215   9.425  11.947
67418W        W38018   0.695  39.991   3.296
67419W        W38019  28.192  13.779   1.251
67420W        W38020  29.935  25.473  12.348
67421W        W38021   3.679  27.681  14.572
67422W        W38022  24.217  20.130   1.754
67423W        W38023   5.787  16.729  12.599
67424W        W38024   6.391  11.019  11.443
67425W        W38025  19.749  16.236  12.512
67426W        W38026  16.509  37.249   2.413
67427W        W38027   2.907  37.088  13.915
67428W        W38028   4.260  37.587  13.092
67429W        W38029  32.928   5.209  14.609
67430W        W38030  36.959  32.125   3.269
67431W        W38031  20.799  11.597  14.791
67432W        W38032  13.227  19.163  13.433
67433W        W38033  16.493  14.132   1.875
67434W        W38034  19.560  29.160   1.789
67435W        W38035  23.695  13.253   3.782
67436W        W38036  18.553  42.007  12.082
67437W        W38037  40.862  12.943   4.543
67438W        W38038   5.396   9.253   0.274
67439W        W38039  14.787  19.602   4.624
67440W        W38040  44.794  44.933   0.036
67441W        W38041  37.504   3.414   0.209
67442W        W38042  22.200  23.177  12.068
67443W        W38043   5.323  27.657  14.805
67444W        W38044  42.031  36.642   2.199
67445W        W38045  28.799  31.244   0.793
67446W        W38046   2.468  19.064   0.271
67447W        W38047  37.573   6.943   4.619
67448W        W38048  27.859  25.038   4.626
67449W        W38049   7.874  40.771   4.174
67450W        W38050  18.166  34.258  14.330
67451W        W38051   7.017  43.485  14.383
67452W        W38052   1.965  23.536  13.862
67453W        W38053  27.098  41.567  12.631
67454W        W38054  33.064  40.744   4.315
67455W        W38055  34.412  34.304  14.469
67456W        W38056   0.705   0.186   3.810
67457W        W38057  34.608   3.362   5.037
67458W        W38058  43.055   3.507   3.854
67459W        W38059  32.016  44.389   1.435
67460W        W38060  18.609  33.217  11.153
67461W        W38061  29.666  10.672   0.003
67462W        W38062  20.238  33.895  13.962
67463W        W38063  19.302   3.999  14.431
67464W        W38064  14.327  40.035   4.496
67465W        W38065   7.931  43.820   4.596
67466W        W38066  10.131  38.373  11.015
67467W        W38067   2.035  17.205  14.506
67468W        W38068   8.394  38.537   4.587
67469W        W38069  20.816  17.085   0.448
67470W        W38070  35.405   0.907  11.966
67471W        W38071  18.658  36.872  11.604
67472W        W38072  43.279   6.242   1.619
67473W        W38073  32.254   2.111  14.811
67474W        W38074  22.537   8.597  12.085
67475W        W38075  30.121  23.020  14.428
67476W        W38076   2.900  21.045  13.967
67477W        W38077   0.023  15.107  13.382
67478W        W38078  10.135   9.813   1.939
67479W        W38079  21.027  23.994   0.924
67480W        W38080  29.227  32.004  13.910
67481W        W38081  14.849   3.716  12.381
67482W        W38082  17.622  30.656  14.963
67483W        W38083  12.903  38.414   1.742
67484W        W38084  44.554   5.933   4.108
67485W        W38085  25.233  14.607   0.374
67486W        W38086   7.807  33.647  14.753
67487W        W38087   8.976  23.766   3.297
67488W        W38088  30.404  15.284   4.524
67489W        W38089  39.989   7.176   3.237
67490W        W38090  23.228  43.263   5.649
67491W        W38091  35.079  20.645  12.252
67492W        W38092  27.942   6.778   3.197
67493W        W38093  42.446  15.971   3.618
67494W        W38094  19.082   6.450   0.456
67495W        W38095  19.637  37.584  12.399
67496W        W38096  40.274  29.303   5.080
67497W        W38097   1.959  44.315  10.833
67498W        W38098   5.854  10.667  13.805
67499W        W38099  39.308  38.118  13.347
67500W        W38100   0.830  42.984  13.023
67501W        W38101   3.512  21.174  14.791
67502W        W38102  15.325  17.599   2.421
67503W        W38103  29.945  40.976  14.622
67504W        W38104  33.443   8.010  13.465
67505W        W38105  43.014  28.106  14.972
67506W        W38106  31.341  33.135   4.178
67507W        W38107  43.375   2.701   2.251
67508W        W38108  21.802   9.341  12.021
67509W        W38109   4.838  32.308   4.811
67510W        W38110  21.155   3.792  14.573
67511W        W38111  42.831  29.211  10.299
67512W        W38112  42.484  26.936   1.929
67513W        W38113  43.818  10.902  12.588
67514W        W38114   7.241  28.075  11.472
67515W        W38115  27.737  22.047  12.945
67516W        W38116  20.539  41.495   4.111
67517W        W38117  35.796  44.007  14.296
67518W        W38118   4.134  38.590   3.810
67519W        W38119  38.406  36.482  12.938
67520W        W38120  15.822  43.400   3.081
67521W        W38121   6.477  29.415  11.273
67522W        W38122  28.729  44.960   3.836
67523W        W38123  31.492  36.735   4.202
67524W        W38124   5.984   7.403   2.089
67525W        W38125  28.671  36.507   1.636
67526W        W38126  21.233  14.434  13.527
67527W        W38127   2.454  44.409   3.417
67528W        W38128  22.992  15.198   0.251
67529W        W38129   2.932  24.031   1.335
67530W        W38130  38.556  26.751   3.206
67531W        W38131  14.688  29.768   4.535
67532W        W38132  24.793  32.120   0.981
67533W        W38133  26.526  23.196  14.895
67534W        W38134  34.372  30.703   4.736
67535W        W38135  20.216  28.899   1.458
67536W        W38136  23.963  28.658  10.701
67537W        W38137   8.429   2.525  11.442
67538W        W38138   0.174   3.040   3.776
67539W        W38139  14.339  41.458  11.969
67540W        W38140  30.542   0.438  11.108
67541W        W38141  34.342  10.883  10.486
67542W        W38142  35.462  22.522   4.833
67543W        W38143  20.320   2.885   0.736
67544W        W38144  27.681  16.096   2.618
67545W        W38145  43.912  16.125   0.062
67546W        W38146   3.092  20.760  11.697
67547W        W38147  21.786  16.250  11.554
67548W        W38148  23.114   6.805  12.544
67549W        W38149  28.412   3.389  12.882
67550W        W38150  29.646  35.977   1.047
67551W        W38151  41.136  36.351  12.545
67552W        W38152   4.666  30.129   2.279
67553W        W38153   3.387  12.395   4.670
67554W        W38154  32.293  30.637   3.702
67555W        W38155  35.151   1.804  13.842
67556W        W38156   3.100  43.554   3.071
67557W        W38157  29.613  42.343  11.995
67558W        W38158  10.354   0.479  14.730
67559W        W38159  16.565  36.559  10.636
67560W        W38160  38.287  16.142  13.318
67561W        W38161  20.785  29.837   0.937
67562W        W38162  19.500  31.656  11.192
67563W        W38163  42.845  29.909   0.814
67564W        W38164  10.042  39.568   2.435
67565W        W38165  23.527  23.401  11.280
67566W        W38166   4.605  20.626  13.024
67567W        W38167  29.943   8.758   4.856
67568W        W38168  22.242  39.819   1.483
67569W        W38169   9.277   2.439  10.831
67570W        W38170  18.695  12.604  12.480
67571W        W38171  34.341  24.368   0.309
67572W        W38172  32.464  34.730  13.712
67573W        W38173  13.562  27.504   1.951
67574W        W38174  26.043  28.625   0.854
67575W        W38175  38.384  28.089  11.031
67576W        W38176  41.317   8.865  10.608
67577W        W38177   1.450  38.312   3.335
67578W        W38178   2.905  26.730   2.776
67579W        W38179  10.190  13.420  13.098
67580W        W38180  32.456   9.575  13.758
67581W        W38181   6.306  30.168  11.664
67582W        W38182   0.885   2.491  11.938
67583W        W38183   3.744  17.769   0.851
67584W        W38184  24.462  10.418   1.889
67585W        W38185   3.637  21.025   4.216
67586W        W38186   0.340   2.259   1.346
67587W        W38187  31.736  11.605  12.448
67588W        W38188  25.319  18.143   4.156
67589W        W38189  17.224  18.026   2.360
67590W        W38190   8.273  14.815  12.232
67591W        W38191  17.854  31.165  12.879
67592W        W38192  29.883  34.377   0.045
67593W        W38193  24.021  26.903  11.610
67594W        W38194  18.782  18.829  11.358
67595W        W38195  40.782  18.379  14.295
67596W        W38196  41.486  27.039   3.790
67597W        W38197   6.742  23.219  11.666
67598W        W38198   8.472  17.803   2.740
67599W        W38199  27.595   3.239  11.102
67600W        W38200  16.057  44.694  12.627
67601W        W38201   9.591  11.321  10.679
67602W        W38202  38.976   6.525  13.339
67603W        W38203  22.633  23.138  10.914
67604W        W38204  22.277  26.527   1.749
67605W        W38205  26.513  42.122   4.005
67606W        W38206   8.210  14.636   3.025
67607W        W38207  24.941  36.543  13.062
67608W        W38208  23.217  18.220  11.354
67609W        W38209  10.573  17.026  10.230
67610W        W38210  15.572   7.502  12.605
67611W        W38211  34.068  14.553  10.823
67612W        W38212  35.898  11.639  12.127
67613W        W38213  11.878  11.767  10.280
67614W        W38214  15.022   9.688   3.157
67615W        W38215  35.587  20.725   3.131
67616W        W38216  13.870  23.723   4.276
67617W        W38217   3.401  20.411  13.601
67618W        W38218  25.073  33.393   4.601
67619W        W38219  42.388   5.359  14.291
67620W        W38220  13.221  28.221   3.053
67621W        W38221  26.226  38.318  13.998
67622W        W38222  39.888   2.859  12.127
67623W        W38223   7.767   0.988   1.868
67624W        W38224  41.616  15.083  11.910
67625W        W38225   4.080  29.580   0.084
67626W        W38226  22.023   4.447  11.971
67627W        W38227  10.258  26.196   0.383
67628W        W38228  17.708  42.002   4.606
67629W        W38229  37.239  13.857  10.452
67630W        W38230  18.041  23.038   1.829
67631W        W38231  40.765  42.528  12.087
67632W        W38232  22.001  12.826  14.417
67633W        W38233  38.258  20.316  11.488
67634W        W38234  28.723  26.201   0.386
67635W        W38235  25.285  37.006   0.218
67636W        W38236  41.123  32.497   2.777
67637W        W38237  32.341  34.159  11.298
67638W        W38238   4.873  16.735   1.211
67639W        W38239  42.321  44.597   0.308
67640W        W38240   5.286  20.964  12.594
67641W        W38241  12.600  23.703  10.796
67642W        W38242  15.760  22.078  10.954
67643W        W38243  17.028  13.046   0.824
67644W        W38244  35.056  24.556  11.111
67645W        W38245   5.891  30.975   1.398
67646W        W38246  12.220   1.540   4.882
67647W        W38247  41.774  43.336  13.031
67648W        W38248  38.814  19.166   3.609
67649W        W38249  18.384  27.645  13.378
67650W        W38250   8.783  42.112   0.736
67651W        W38251  38.372  20.728   1.325
67652W        W38252   3.816  20.334   0.884
67653W        W38253  19.326  36.956   4.117
67654W        W38254  34.632  10.726  13.937
67655W        W38255  40.756  41.861  14.556
67656W        W38256  38.804   3.943  13.001
67657W        W38257  38.575  39.544  14.454
67658W        W38258  26.307  29.004  14.547
67659W        W38259  38.139   7.828   4.150
67660W        W38260   8.186  42.509  14.814
67661W        W38261  26.682  20.198   0.267
67662W        W38262  25.608   2.532   4.160
67663W        W38263  13.407  12.055  12.407
67664W        W38264  22.988  34.653  12.070
67665W        W38265  36.161  33.166   1.769
67666W        W38266  41.429  15.029  13.469
67667W        W38267  22.483   7.291  14.179
67668W        W38268  23.545  29.033  12.489
67669W        W38269  15.283  26.759  14.471
67670W        W38270  40.258  37.408  13.315
67671W        W38271   2.271  42.800  14.335
67672W        W38272  43.698  24.280   4.505
67673W        W38273  39.334  40.818  14.733
67674W        W38274   4.667  12.005   3.414
67675W        W38275  44.622  34.613  13.451
67676W        W38276   7.192  16.682  14.769
67677W        W38277  37.984  22.348  11.918
67678W        W38278  12.900  33.869  13.884
67679W        W38279  37.075   0.706   1.853
67680W        W38280  25.486  36.788   1.373
67681W        W38281  18.152  41.856  14.026
67682W        W38282  35.809   3.578  10.657
67683W        W38283  35.248  34.194  12.996
67684W        W38284  15.557   2.146  14.479
67685W        W38285  33.359  20.556  12.874
67686W        W38286   5.259  42.780  12.954
67687W        W38287  23.132  16.884   2.770
67688W        W38288   1.414   0.806   2.745
67689W        W38289  13.296  22.535  14.881
67690W        W38290  29.594  28.745  13.939
67691W        W38291  44.975  16.315   3.693
67692W        W38292  27.034   9.375   3.866
67693W        W38293   7.203  22.952  14.954
67694W        W38294  15.398  36.946   0.680
67695W        W38295  26.850  11.615  10.706
67696W        W38296  36.027  25.526  13.286
67697W        W38297  41.294  19.080  10.835
67698W        W38298  41.021   3.765   9.649
67699W        W38299  18.998  32.548   1.720
67700W        W38300  41.072  17.125   4.303
67701W        W38301  24.564  18.817   0.523
67702W        W38302  38.355  32.885  11.550
67703W        W38303  43.378  30.012  12.902
67704W        W38304  39.916  33.822   2.294
67705W        W38305   8.314  36.970  11.045
67706W        W38306   0.994  41.311  12.590
67707W        W38307   2.794  12.839  10.780
67708W        W38308  30.641  37.289  13.969
67709W        W38309  10.034  30.514  10.395
67710W        W38310  19.905  12.811  10.142
67711W        W38311  24.153  38.372  13.943
67712W        W38312  23.400  27.542  14.516
67713W        W38313  40.908  12.404   2.620
67714W        W38314  41.764  18.662  14.400
67715W        W38315   9.731  40.092  13.776
67716W        W38316  18.639  27.192  10.312
67717W        W38317  34.762  34.006  13.439
67718W        W38318  22.487  36.895  13.919
67719W        W38319  19.219  11.610   4.164
67720W        W38320  44.339  23.912  12.124
67721W        W38321  22.436  41.448  13.947
67722W        W38322  20.517  14.723  13.111
67723W        W38323   3.322  31.961  12.908
67724W        W38324  22.657   6.918   3.368
67725W        W38325  23.417  24.569  11.480
67726W        W38326  15.702  11.211  13.970
67727W        W38327  42.287  22.515   2.130
67728W        W38328  27.388  15.612  13.354
67729W        W38329  16.766  38.336  13.100
67730W        W38330   8.389  31.047   4.784
67731W        W38331  18.808  12.731  13.958
67732W        W38332  41.417  14.516  12.560
67733W        W38333   8.203  17.672  10.659
67734W        W38334  13.198  39.368  13.476
67735W        W38335  33.840  33.922   1.144
67736W        W38336  17.790  20.702  14.764
67737W        W38337  34.563  35.322  14.406
67738W        W38338  41.997  22.655  12.707
67739W        W38339  12.243   3.240  11.905
67740W        W38340  19.244  14.855   4.954
67741W        W38341  37.192  11.142  13.134
67742W        W38342  16.560   5.465   2.990
67743W        W38343  42.157  13.583  11.094
67744W        W38344   0.398  25.433   2.220
67745W        W38345  10.825  44.711  14.907
67746W        W38346  10.853   9.917   2.248
67747W        W38347  39.273  38.786   3.847
67748W        W38348   1.427  20.207   5.019
67749W        W38349  39.259   9.569   1.958
67750W        W38350  26.854  35.507   3.147
67751W        W38351  18.717  33.219   2.097
67752W        W38352  31.231  24.326  12.200
67753W        W38353  37.718   7.603  14.057
67754W        W38354  28.038   1.393  12.860
67755W        W38355  20.348   1.802  12.069
67756W        W38356  13.196   0.758  12.601
67757W        W38357  18.189  38.397   1.863
67758W        W38358  30.118  10.425  10.434
67759W        W38359  37.424  24.196  14.799
67760W        W38360   4.355  18.677  11.904
67761W        W38361  40.936  18.683  10.773
67762W        W38362   6.242   9.687   4.562
67763W        W38363  18.165  36.032   1.352
67764W        W38364  15.674  21.660   4.135
67765W        W38365  14.845  35.528  13.865
67766W        W38366  17.115  28.757  13.045
67767W        W38367   8.411   0.245  12.572
67768W        W38368  41.358  42.755  14.863
67769W        W38369  19.033  31.623  11.004
67770W        W38370   6.842  14.454  11.134
67771W        W38371   4.351  28.771   1.381
67772W        W38372  40.602  15.940  10.933
67773W        W38373  22.774   5.947   2.593
67774W        W38374  28.861   1.239   0.319
67775W        W38375  32.219  27.195  14.902
67776W        W38376  42.098  35.379   4.388
67777W        W38377  27.048  39.600  14.641
67778W        W38378  36.934  35.868   2.878
67779W        W38379  28.476  30.737  11.202
67780W        W38380  29.983  30.335   2.718
67781W        W38381  44.523  22.928   4.249
67782W        W38382  15.110   6.662   2.390
67783W        W38383  15.809  18.252  14.439
67784W        W38384   2.984  10.502  13.095
67785W        W38385  22.172   2.324  13.850
67786W        W38386  14.083  14.165  12.294
67787W        W38387  36.324  21.181   2.572
67788W        W38388   3.782  41.252  12.592
67789W        W38389  19.760  33.540   2.557
67790W        W38390   6.253  16.106  11.540
67791W        W38391  38.349  43.256   0.517
67792W        W38392   2.097  44.445  12.166
67793W        W38393  37.208  38.451   4.810
67794W        W38394  19.228   5.393  11.569
67795W        W38395   6.325  19.949  14.536
67796W        W38396  16.273  32.395  14.811
67797W        W38397  44.325   0.552   0.458
67798W        W38398  30.489  19.433  12.453
67799W        W38399  14.394  19.836   4.912
67800W        W38400  11.842   5.148  13.491
67801W        W38401  32.374  15.261  14.386
67802W        W38402  38.334   2.568   2.471
67803W        W38403  26.690  11.390   0.994
67804W        W38404  17.638  21.915  11.650
67805W        W38405  29.828  11.736   3.796
67806W        W38406   6.925   2.933  14.847
67807W        W38407  30.102  15.556  13.306
67808W        W38408  22.570  41.019  12.505
67809W        W38409  21.870  26.316  12.587
67810W        W38410   7.630  20.698   2.219
67811W        W38411  23.347   6.305  13.067
67812W        W38412  17.763  43.411   4.355
67813W        W38413  23.385  20.184   4.137
67814W        W38414  10.045  31.872  13.399
67815W        W38415  22.317  37.558  11.266
67816W        W38416  10.669  28.678   4.215
67817W        W38417  26.748  18.559   0.348
67818W        W38418  20.510   3.182   3.169
67819W        W38419  14.739   0.335   3.386
67820W        W38420  15.387   0.838  11.945
67821W        W38421   5.112   4.193   0.898
67822W        W38422  18.836  42.833  14.805
67823W        W38423   4.642  19.155  11.900
67824W        W38424   8.933   6.880   3.713
67825W        W38425  39.325   6.435  14.749
67826W        W38426  32.043   5.789   1.675
67827W        W38427  31.356  30.551   0.481
67828W        W38428  14.610  30.049  10.483
67829W        W38429  29.458  30.616   1.042
67830W        W38430  33.399   7.173   1.889
67831W        W38431  19.868  20.992   1.278
67832W        W38432   6.704  20.062   4.709
67833W        W38433   6.667  32.478  12.912
67834W        W38434  16.752  24.026  14.432
67835W        W38435  13.590  34.044  12.589
67836W        W38436  31.025   0.956  11.978
67837W        W38437  26.403  19.349  11.135
67838W        W38438   0.139  35.844   4.849
67839W        W38439  35.871  43.841   4.345
67840W        W38440   2.834  10.098   1.364
67841W        W38441  33.339  40.856   1.120
67842W        W38442  16.353  22.912   0.268
67843W        W38443  21.564  13.879  10.712
67844W        W38444   1.557  41.294  13.448
67845W        W38445  37.214   0.292  12.860
67846W        W38446  41.847  19.098   1.461
67847W        W38447  18.816  36.383  12.606
67848W        W38448  33.552  37.983   3.158
67849W        W38449   6.957  34.313   3.309
67850W        W38450  25.619  13.143   2.431
67851W        W38451  14.623   3.436   0.448
67852W        W38452  38.913  40.273  11.674
67853W        W38453   5.331   3.227  13.022
67854W        W38454  29.481  43.294   0.248
67855W        W38455  43.335  31.734  10.785
67856W        W38456  38.958  25.239   1.941
67857W        W38457   0.280  22.757  10.556
67858W        W38458   1.880   7.257  11.722
67859W        W38459  23.808   4.784  11.175
67860W        W38460   0.891  38.573   3.686
67861W        W38461  17.829  14.291  11.117
67862W        W38462  23.348   5.720   1.627
67863W        W38463  41.353  10.508   3.905
67864W        W38464  25.828  16.635   3.420
67865W        W38465  35.240   6.527   0.835
67866W        W38466   7.881   3.314   2.493
67867W        W38467  32.092  19.008   1.431
67868W        W38468  39.780  31.982   0.654
67869W        W38469  29.213  17.852  11.373
67870W        W38470  28.105   6.964  14.848
67871W        W38471  26.164   4.386   2.155
67872W        W38472  17.137  12.919  10.271
67873W        W38473  12.585   2.431  11.661
67874W        W38474  17.305  15.917   0.858
67875W        W38475   1.794  14.850  14.367
67876W        W38476  24.207   2.384  13.102
67877W        W38477  18.079  23.018  12.575
67878W        W38478   0.342  41.546   0.692
67879W        W38479  26.713   0.803   0.220
67880W        W38480  16.165   2.749   2.168
67881W        W38481  33.112  33.194   3.079
67882W        W38482  39.141  21.985  14.871
67883W        W38483  37.159  44.483   1.327
67884W        W38484  16.928  29.475   3.243
67885W        W38485   3.771  33.569  12.140
67886W        W38486  19.037   6.580   2.306
67887W        W38487  43.176  13.380  11.249
67888W        W38488  29.954  42.763   4.164
67889W        W38489  19.310  29.997   0.811
67890W        W38490   5.275  25.036   1.899
67891W        W38491   1.009   8.150  10.983
67892W        W38492  37.297  22.679  11.017
67893W        W38493  27.516  29.714   2.662
67894W        W38494  15.770  19.478  10.459
67895W        W38495  35.452  30.523   1.733
67896W        W38496  17.301   1.193   3.653
67897W        W38497  42.900  38.159   3.163
67898W        W38498  41.533  12.389   4.640
67899W        W38499  25.628  35.752   1.436
67900W        W38500  12.116  17.832  12.099
67901W        W38501   4.454   7.213  12.361
67902W        W38502  43.940   2.921   3.200
67903W        W38503  43.303  32.644   2.361
67904W        W38504  24.477  21.220   3.864
67905W        W38505  13.760  12.908   0.034
67906W        W38506   6.633   3.654   1.307
67907W        W38507  23.652  40.252   0.742
67908W        W38508  18.645  27.951  11.539
67909W        W38509  43.576  26.591  10.756
67910W        W38510  44.519  34.495  12.536
67911W        W38511  25.054  24.161  11.093
67912W        W38512  26.175   8.797  12.081
67913W        W38513  22.511  34.422  12.077
67914W        W38514  43.928  31.426   4.468
67915W        W38515  14.095  13.198  11.338
67916W        W38516  19.988  11.809  10.731
67917W        W38517   7.578  10.022   2.954
67918W        W38518  25.107  44.217   3.722
67919W        W38519  22.515  12.689   1.227
67920W        W38520  22.844  32.036  14.476
67921W        W38521  32.820  20.731  11.137
67922W        W38522   7.419   5.147   3.179
67923W        W38523  36.158  37.527  11.232
67924W        W38524   6.974  38.006   1.333
67925W        W38525  17.554  10.657   2.478
67926W        W38526  34.164  27.129  14.243
67927W        W38527  34.880  15.221  14.140
67928W        W38528  23.617  16.813   4.165
67929W        W38529   7.868  11.829   1.825
67930W        W38530   5.586  17.071   2.666
67931W        W38531  29.389  26.904   1.372
67932W        W38532  33.386  42.338  14.438
67933W        W38533  33.640  14.716  13.328
67934W        W38534  13.125  27.048   4.143
67935W        W38535  14.883  27.913   3.303
67936W        W38536  25.535  25.496   4.575
67937W        W38537  43.244  20.475  12.974
67938W        W38538   4.583  17.796  14.016
67939W        W38539   7.903  28.445  11.153
67940W        W38540  34.174  13.122  10.735
67941W        W38541  16.800  17.563   2.842
67942W        W38542  44.036  30.118   0.402
67943W        W38543  26.941  31.321   0.305
67944W        W38544  44.023  37.670   3.001
67945W        W38545  22.150  17.166  11.885
67946W        W38546  13.556  33.879   1.439
67947W        W38547  43.512  30.442   4.723
67948W        W38548   4.251  30.917  10.869
67949W        W38549  23.424  20.068   2.276
67950W        W38550  18.699  19.450   2.722
67951W        W38551  39.096  32.131  12.492
67952W        W38552  16.292   4.544   4.090
67953W        W38553  29.066   1.969   3.393
67954W        W38554  32.023  31.819  13.561
67955W        W38555  19.204  29.956  13.924
67956W        W38556  11.734   9.776   4.304
67957W        W38557  33.613  34.896   4.542
67958W        W38558  37.020  19.508   0.676
67959W        W38559  16.404  33.984   2.784
67960W        W38560   9.282  39.943  13.026
67961W        W38561  39.372   1.687   3.585
67962W        W38562  37.452  44.060   2.434
67963W        W38563   1.666  10.503  13.405
67964W        W38564  27.879  34.317   1.866
67965W        W38565  20.055  14.346  11.616
67966W        W38566  11.077   3.506  11.205
67967W        W38567   1.279  15.768   5.056
67968W        W38568  30.867  21.099   0.979
67969W        W38569  32.194  31.962   3.901
67970W        W38570  12.883  18.986  11.110
67971W        W38571  15.971  31.006  12.141
67972W        W38572   3.615  21.591   5.042
67973W        W38573  33.688  38.048   0.150
67974W        W38574   1.243  44.274   2.832
67975W        W38575  35.893  36.665   3.213
67976W        W38576  30.276  25.693  11.402
67977W        W38577  35.054   8.685   0.389
67978W        W38578  31.454  33.827   0.767
67979W        W38579   9.645  43.621   1.656
67980W        W38580  26.483   0.593   3.844
67981W        W38581  24.086  16.848   0.370
67982W        W38582  33.034  30.760  12.500
67983W        W38583  30.999   1.474   0.019
67984W        W38584  26.178  31.983  12.891
67985W        W38585  20.177  30.533   4.283
67986W        W38586  10.428  26.045  13.792
67987W        W38587  30.997  23.519   3.377
67988W        W38588  22.270  32.444  11.668
67989W        W38589  13.647  17.227   2.160
67990W        W38590  27.526   8.033  10.988
67991W        W38591   4.696   7.147   3.172
67992W        W38592  18.203  14.590   3.762
67993W        W38593  39.854  32.130   3.971
67994W        W38594  32.439   0.965   1.351
67995W        W38595  25.028  33.889   4.800
67996W        W38596  37.301   4.494   2.334
67997W        W38597  28.174   0.840  13.785
67998W        W38598  10.762   4.716  10.592
67999W        W38599  40.959   7.317  13.264
68000W        W38600  10.641  12.746   1.303
68001W        W38601  23.706  15.628   3.358
68002W        W38602  18.021  41.060  12.882
68003W        W38603   1.243  22.601  11.601
68004W        W38604   6.721  21.736  10.999
68005W        W38605  10.272  34.446  10.928
68006W        W38606   6.890  22.449   1.482
68007W        W38607  42.628  42.907   5.037
68008W        W38608  29.066  36.823   3.828
68009W        W38609  43.948  32.432  11.105
68010W        W38610  20.079  17.049  10.283
68011W        W38611   7.864  35.123  13.540
68012W        W38612  42.336  42.538   4.076
68013W        W38613  10.168  35.456  14.496
68014W        W38614   1.366  22.762  12.922
68015W        W38615   3.596  15.838   1.356
68016W        W38616  31.329  41.595   1.279
68017W        W38617  23.978  15.733  13.486
68018W        W38618  35.448  19.788   1.403
68019W        W38619  30.128  32.380  12.835
68020W        W38620  21.121  39.066  12.957
68021W        W38621  24.497  43.388   3.768
68022W        W38622  43.422  24.912   3.190
68023W        W38623  36.184   9.564   3.662
68024W        W38624   1.977   0.227   3.274
68025W        W38625  17.383  15.817  14.701
68026W        W38626  25.057  42.950   1.777
68027W        W38627  31.108  24.707  13.094
68028W        W38628   3.175  27.564  14.623
68029W        W38629  25.796  26.678   0.306
68030W        W38630   2.893  34.442  11.541
68031W        W38631  39.050  36.797   3.763
68032W        W38632   8.568  12.368   3.136
68033W        W38633  34.899  44.758   0.453
68034W        W38634  11.663  12.406   0.384
68035W        W38635  10.352  42.271  14.959
68036W        W38636  31.440  23.299   3.213
68037W        W38637  28.162   7.291   1.528
68038W        W38638  40.219   6.367  10.823
68039W        W38639  13.504  35.888   3.312
68040W        W38640  30.426  24.054   4.091
68041W        W38641  31.428  18.668  13.348
68042W        W38642  15.157   9.187  10.632
68043W        W38643  23.618  40.671  14.394
68044W        W38644  28.542  43.856  10.448
68045W        W38645  14.309   9.859   4.195
68046W        W38646  33.890  20.645   4.916
68047W        W38647  42.895  21.182  14.744
68048W        W38648  30.901  19.150  12.877
68049W        W38649  39.381  24.899   2.798
68050W        W38650  44.328  30.398  13.428
68051W        W38651  19.027  32.260  12.948
68052W        W38652  33.594  32.130   0.235
68053W        W38653   8.758   9.649   0.697
68054W        W38654  36.279   5.353   3.633
68055W        W38655  12.208  15.090  14.846
68056W        W38656  38.087  25.681  14.545
68057W        W38657  17.586  33.162  14.975
68058W        W38658   0.565  44.484   0.672
68059W        W38659   9.318  35.048   3.257
68060W        W38660  42.129  20.613  12.855
68061W        W38661  22.736  26.768   1.782
68062W        W38662  26.695   1.456   4.680
68063W        W38663   8.723  34.662  11.179
68064W        W38664   7.595  11.403   1.908
68065W        W38665  32.936  17.148  12.107
68066W        W38666  34.843  35.452   3.782
68067W        W38667  43.017  15.140   0.786
68068W        W38668  15.307   0.290   5.135
68069W        W38669  35.835  38.151   3.020
68070W        W38670  41.089  19.189  14.881
68071W        W38671  14.757   5.630  12.546
68072W        W38672   1.700  33.068   4.262
68073W        W38673  30.619  39.411  14.995
68074W        W38674  21.796  15.563  11.024
68075W        W38675  28.535  37.383   0.531
68076W        W38676  14.647  30.573  11.186
68077W        W38677  42.874  18.402   4.614
68078W        W38678   2.949  29.865  11.117
68079W        W38679  12.227   9.208   2.644
68080W        W38680   2.768  11.257   0.424
68081W        W38681  22.276  43.788  14.477
68082W        W38682  21.079  39.425  13.415
68083W        W38683  36.852   9.662  11.549
68084W        W38684  33.409   8.863  10.765
68085W        W38685   8.769  38.962   4.008
68086W        W38686  41.815   9.531   4.215
68087W        W38687  22.813  20.691   4.605
68088W        W38688  26.283  34.860   2.927
68089W        W38689   6.622   3.709  14.532
68090W        W38690   0.786  17.682   3.793
68091W        W38691   7.137  43.250  12.964
68092W        W38692  15.957  25.771   4.501
68093W        W38693  36.439  20.044  10.943
68094W        W38694  36.146   8.891   1.821
68095W        W38695  29.189  18.649  11.653
68096W        W38696   1.310  40.940  11.711
68097W        W38697   9.219   5.325   0.285
68098W        W38698  13.357   5.418  14.770
68099W        W38699  30.031  43.255   4.122
68100W        W38700  43.577  34.731   0.827
68101W        W38701  40.481   7.253   2.655
68102W        W38702   8.343   2.022  11.446
68103W        W38703  32.598  23.398  10.470
68104W        W38704  17.701  16.369   2.716
68105W        W38705  32.358  42.767  11.592
68106W        W38706   8.427   3.701   1.713
68107W        W38707  12.745  23.099  14.926
68108W        W38708   2.173  42.692  12.938
68109W        W38709  35.523  12.358   4.276
68110W        W38710  19.927  28.597   3.568
68111W        W38711  37.612  42.408  14.821
68112W        W38712  24.128  22.635   1.894
68113W        W38713  35.519  22.367   2.236
68114W        W38714  13.026  16.128  13.747
68115W        W38715  32.453  17.242   1.442
68116W        W38716  25.625  10.852   3.715
68117W        W38717  12.054   6.526  14.331
68118W        W38718  43.861  27.615   4.483
68119W        W38719  17.991   2.450   3.632
68120W        W38720  11.830  38.604  14.899
68121W        W38721   0.008  36.481   2.174
68122W        W38722  44.151  40.856  11.531
68123W        W38723  32.871  22.083  13.336
68124W        W38724  10.294  36.957  13.444
68125W        W38725   4.526  31.870  13.702
68126W        W38726  14.646  23.256   1.261
68127W        W38727  20.576   4.425   0.826
68128W        W38728  39.097  33.406  13.096
68129W        W38729  27.148  32.351  10.534
68130W        W38730  30.425  38.772   4.148
68131W        W38731  16.911  17.762   3.871
68132W        W38732  15.731  38.174   0.901
68133W        W38733  13.700  14.419   0.227
68134W        W38734   3.948  38.351   1.705
68135W        W38735   1.840  40.018  14.907
68136W        W38736   4.558  30.446   0.971
68137W        W38737  38.473   5.210   0.390
68138W        W38738  39.328   2.628   3.601
68139W        W38739  16.407  23.578   4.220
68140W        W38740  35.531   3.360   0.317
68141W        W38741  31.053  26.906   1.917
68142W        W38742   7.909   0.250  11.119
68143W        W38743   7.178  34.116   1.944
68144W        W38744  11.782  14.442  12.840
68145W        W38745   4.221  31.469   3.688
68146W        W38746  30.630  17.244  14.854
68147W        W38747  29.971   3.827  14.841
68148W        W38748   6.052   6.134  13.903
68149W        W38749  41.372  39.290   0.951
68150W        W38750   6.710  30.839   4.407
68151W        W38751  39.712   9.102  12.101
68152W        W38752   0.535  39.426  13.633
68153W        W38753  14.889  35.894   2.699
68154W        W38754  18.791  36.982   0.479
68155W        W38755  27.144   0.313   2.716
68156W        W38756   9.065   5.724  14.527
68157W        W38757  19.168  42.033   4.360
68158W        W38758  16.226  14.664  12.344
68159W        W38759  32.101  41.955   2.752
68160W        W38760   7.704  24.106   4.904
68161W        W38761  14.732  39.320  14.278
68162W        W38762  19.734  22.559  12.582
68163W        W38763  42.989  35.520  13.336
68164W        W38764   1.824  43.028  12.773
68165W        W38765   2.129  26.274  13.881
68166W        W38766  17.927  17.131   3.889
68167W        W38767  10.714  43.348   4.433
68168W        W38768  35.300  40.289   2.014
68169W        W38769  41.464  43.827  14.204
68170W        W38770  22.483  17.685   0.054
68171W        W38771  15.894   9.145   1.338
68172W        W38772   7.906  31.286   0.737
68173W        W38773  36.619  33.936  11.189
68174W        W38774  27.060  40.422  12.381
68175W        W38775  34.547  22.732   5.058
68176W        W38776  43.452  27.936   0.806
68177W        W38777  33.047  24.224  14.455
68178W        W38778   5.887  32.589   0.732
68179W        W38779  40.759   1.382  12.545
68180W        W38780  28.218  35.871  14.000
68181W        W38781  16.337  25.074  11.247
68182W        W38782   2.985  44.496   3.693
68183W        W38783  18.224  43.256   0.483
68184W        W38784   0.486  33.077   0.041
68185W        W38785  39.817  11.838  14.456
68186W        W38786   7.440  35.891  10.423
68187W        W38787   4.333   0.248   1.683
68188W        W38788  25.996  42.441  11.143
68189W        W38789  13.737  37.814   2.759
68190W        W38790  24.927  15.696   3.655
68191W        W38791  42.988  38.996  14.558
68192W        W38792  15.007  26.430  13.062
68193W        W38793  23.983  36.016   1.833
68194W        W38794   9.343  14.553  10.597
68195W        W38795  44.386  43.945  10.734
68196W        W38796  29.219  22.048  12.184
68197W        W38797  21.970  44.510  13.818
68198W        W38798  33.106   1.195   3.286
68199W        W38799  18.803  27.883  14.550
68200W        W38800  37.144  17.531   1.354
68201W        W38801  21.986  31.870  10.365
68202W        W38802  17.030  24.956  14.961
68203W        W38803  25.526  31.172  10.577
68204W        W38804  41.432  26.184   0.222
68205W        W38805  22.568  37.435   3.149
68206W        W38806   5.415  30.961  11.425
68207W        W38807  27.624  19.730   0.218
68208W        W38808  44.000  42.992   3.159
68209W        W38809  13.741  29.575   0.765
68210W        W38810  21.390  32.544   3.852
68211W        W38811  38.421  11.057   1.836
68212W        W38812   6.486   5.179   3.133
68213W        W38813  42.100  12.865  12.613
68214W        W38814  43.286  26.016  11.703
68215W        W38815  18.825  14.445  13.546
68216W        W38816  29.490  39.671  12.985
68217W        W38817  29.165  31.205  12.482
68218W        W38818  40.488  26.176  13.175
68219W        W38819  27.456  17.161   1.376
68220W        W38820   4.020  42.173  13.529
68221W        W38821  30.949   8.847   0.356
68222W        W38822  31.436   5.389   1.432
68223W        W38823  26.112  16.628   0.920
68224W        W38824  28.440  14.688  13.140
68225W        W38825  11.348  39.356  13.514
68226W        W38826  10.109   4.267  14.892
68227W        W38827  24.067  39.528  11.135
68228W        W38828  18.111  27.369   2.143
68229W        W38829   9.358  27.494   1.162
68230W        W38830   7.499   0.249   1.537
68231W        W38831  15.098  40.384  11.933
68232W        W38832  20.327  15.897  14.890
68233W        W38833  31.390   0.973  12.355
68234W        W38834  32.654  21.233   2.835
68235W        W38835   1.744  28.582  13.490
68236W        W38836  39.534  38.574   2.883
68237W        W38837  20.463  41.632  12.506
68238W        W38838   3.254  39.468   4.160
68239W        W38839  41.795  27.534  11.522
68240W        W38840   1.480  37.212  14.874
68241W        W38841  32.794  40.899   4.750
68242W        W38842  40.325   7.509  12.554
68243W        W38843  13.711   3.145  11.743
68244W        W38844  12.030   1.489  12.403
68245W        W38845  17.137   3.889  10.510
68246W        W38846  33.009  42.557   4.993
68247W        W38847  24.214  12.306   1.861
68248W        W38848  41.208  21.743   5.129
68249W        W38849  17.686  30.669  13.012
68250W        W38850  22.557   7.746   4.123
68251W        W38851  16.715   7.415   0.007
68252W        W38852   1.687  15.832  14.331
68253W        W38853  33.362  26.494   0.313
68254W        W38854  40.076  33.263   3.232
68255W        W38855  43.794   4.446   0.134
68256W        W38856   5.779  41.224   2.731
68257W        W38857  28.161  13.838   0.371
68258W        W38858  19.305  37.114  14.017
68259W        W38859  37.852  38.005   1.858
68260W        W38860  34.136  22.574   1.371
68261W        W38861  22.723  42.346   1.290
68262W        W38862  15.429  33.545   0.810
68263W        W38863  31.890   5.387   1.140
68264W        W38864  28.224  25.212   3.328
68265W        W38865   4.455  41.000  11.463
68266W        W38866  13.696  35.431  11.476
68267W        W38867  12.878  39.934   0.763
68268W        W38868  33.606  41.361  10.074
68269W        W38869  19.836  12.304   0.346
68270W        W38870   9.767   9.337   5.051
68271W        W38871  14.287  37.118  10.621
68272W        W38872   9.798   3.902  11.412
68273W        W38873   3.989  39.433   4.675
68274W        W38874  10.401  16.332  14.346
68275W        W38875   8.656   5.804  13.719
68276W        W38876  13.274  13.789   3.760
68277W        W38877  43.116  38.072   3.618
68278W        W38878  39.470  12.110   1.308
68279W        W38879  23.235  23.501  14.676
68280W        W38880  40.856  27.068  11.435
68281W        W38881  38.419  17.606   0.146
68282W        W38882   4.114  40.976   0.676
68283W        W38883  18.161  13.222   0.245
68284W        W38884   9.851   8.664  11.526
68285W        W38885  33.972  33.923   3.709
68286W        W38886  15.747  26.391   0.271
68287W        W38887  28.479  35.709   1.527
68288W        W38888  28.146  42.401   1.992
68289W        W38889  37.493  34.975  13.329
68290W        W38890   8.810   5.972  10.314
68291W        W38891  32.677  41.441   1.635
68292W        W38892  41.576   7.315   3.953
68293W        W38893   1.770   7.671   1.849
68294W        W38894  33.407  43.913   3.698
68295W        W38895  14.601  44.212  12.151
68296W        W38896  43.338   3.325  14.213
68297W        W38897  27.254  25.584   2.804
68298W        W38898  42.759   5.904   4.899
68299W        W38899  21.333  22.580   0.532
68300W        W38900  31.671   7.608  13.395
68301W        W38901  43.952  19.564   2.258
68302W        W38902  27.343  32.540   0.749
68303W        W38903   5.303  33.047   3.959
68304W        W38904  11.272   3.703   4.104
68305W        W38905   1.565   8.428  11.659
68306W        W38906  42.350  22.021  13.228
68307W        W38907  20.751  17.211  12.585
68308W        W38908  19.729  31.833   4.249
68309W        W38909  10.319  39.918   2.164
68310W        W38910  23.508  38.583  10.808
68311W        W38911  35.990  37.897   1.996
68312W        W38912   7.677  40.798   3.206
68313W        W38913  11.220  39.769   4.150
68314W        W38914  22.981  18.649   0.558
68315W        W38915  35.825  32.739   1.726
68316W        W38916  37.473  35.351   0.593
68317W        W38917   5.955  13.067   2.006
68318W        W38918  29.949  37.842  14.755
68319W        W38919  13.413  10.230  13.110
68320W        W38920  27.364  20.143  14.503
68321W        W38921   2.789  27.648   2.280
68322W        W38922   4.790  18.270  13.983
68323W        W38923  12.994  19.220   0.863
68324W        W38924   1.781  40.455  11.094
68325W        W38925   4.845  17.248   0.272
68326W        W38926   3.390  25.125  11.259
68327W        W38927  32.151  29.138  14.443
68328W        W38928   4.945  19.764   0.346
68329W        W38929  20.279  40.945  12.332
68330W        W38930  26.977  10.362  12.970
68331W        W38931  40.174  41.977   1.790
68332W        W38932  41.927  30.833   2.286
68333W        W38933   8.276  12.103  13.823
68334W        W38934  42.434  31.852  13.416
68335W        W38935   6.787  20.850   4.200
68336W        W38936  16.299   1.466  12.028
68337W        W38937  16.633   7.135  13.434
68338W        W38938  24.136  32.888  11.508
68339W        W38939  18.051  36.707   2.608
68340W        W38940  17.169  27.161   1.735
68341W        W38941  33.624  37.061   1.503
68342W        W38942  34.421  13.117   1.544
68343W        W38943   8.045  10.036   4.244
68344W        W38944  31.348  35.979   4.903
68345W        W38945  30.115  15.047  13.536
68346W        W38946  15.362  23.939   2.741
68347W        W38947  11.961  14.275  10.939
68348W        W38948  44.046   7.765  14.532
68349W        W38949  14.677  29.945  12.806
68350W        W38950  38.465  11.176   4.474
68351W        W38951  36.798  40.386   1.903
68352W        W38952  22.135  20.015   2.372
68353W        W38953   7.849  32.925   1.788
68354W        W38954  32.548  26.877   3.194
68355W        W38955   8.893   1.054   4.643
68356W        W38956  39.949  38.340  10.479
68357W        W38957   7.587  14.473  13.860
68358W        W38958  22.777  38.073  11.904
68359W        W38959  42.330  19.122  11.638
68360W        W38960   5.605  24.459  12.004
68361W        W38961   4.292  22.000  11.977
68362W        W38962  40.528  14.522   2.628
68363W        W38963  28.423  39.307  13.882
68364W        W38964  33.658  43.478   3.857
68365W        W38965   4.984  21.028  13.793
68366W        W38966  38.657  16.479  13.490
68367W        W38967   9.405  26.570   4.466
68368W        W38968  29.063  35.091  10.975
68369W        W38969  30.126   7.387  11.885
68370W        W38970  15.772   2.710  14.301
68371W        W38971  36.194  14.671  14.244
68372W        W38972  22.646  35.270  11.432
68373W        W38973  19.713  36.700  11.584
68374W        W38974  11.022  22.537   4.480
68375W        W38975  15.278   4.162   1.976
68376W        W38976  33.003  44.396  13.362
68377W        W38977  20.070  32.352  11.578
68378W        W38978  33.999  36.413  12.560
68379W        W38979  40.059  38.507   1.616
68380W        W38980  15.858   9.080   4.091
68381W        W38981  13.297  32.704   0.034
68382W        W38982  31.688  43.749   4.076
68383W        W38983  13.131  30.205  11.523
68384W        W38984  38.103  38.773   2.835
68385W        W38985  22.058  41.503  13.196
68386W        W38986  19.575  42.075   1.454
68387W        W38987   5.487   7.254   2.175
68388W        W38988   0.550  36.500   4.428
68389W        W38989  17.573   1.502   2.746
68390W        W38990  36.620  24.607  14.054
68391W        W38991  30.920   3.807  10.672
68392W        W38992  17.756  24.021   1.476
68393W        W38993  31.842  27.967  13.923
68394W        W38994  30.467  21.744  13.461
68395W        W38995  19.771  22.628   0.095
68396W        W38996   8.978  33.466  13.297
68397W        W38997  11.715  26.918  11.573
68398W        W38998   8.907   8.176  12.129
68399W        W38999   5.927  12.763   0.866
68400W        W39000  34.473   6.618  10.562
68401W        W39001  34.477  26.218   4.094
68402W        W39002  41.445  13.180   4.406
68403W        W39003  21.867  17.532   2.103
68404W        W39004  41.862  39.674  10.371
68405W        W39005  35.017  36.796  11.669
68406W        W39006  38.446  38.676  11.179
68407W        W39007  13.384  26.372   0.309
68408W        W39008  29.097  38.538  12.172
68409W        W39009  39.894  22.496  14.831
68410W        W39010  35.173  20.020   0.233
68411W        W39011  31.547   3.400   3.487
68412W        W39012  11.429  35.541   4.271
68413W        W39013  24.625  38.538   4.175
68414W        W39014  34.766  18.464  14.355
68415W        W39015  23.290  36.847   1.554
68416W        W39016  32.176  19.344   4.478
68417W        W39017  29.867  18.255  12.924
68418W        W39018   4.348  10.232  13.840
68419W        W39019  23.264  18.409   1.685
68420W        W39020   6.246  20.183  13.183
68421W        W39021  32.056   6.008  10.229
68422W        W39022   8.883  41.133  14.830
68423W        W39023  32.472  39.793   4.133
68424W        W39024  30.931   8.621   1.234
68425W        W39025   3.696  20.466  11.613
68426W        W39026  22.637  25.670  11.913
68427W        W39027  16.591  32.652  14.481
68428W        W39028  11.678  28.747   5.043
68429W        W39029   6.934  19.861   2.879
68430W        W39030  30.530  32.633  12.560
68431W        W39031  30.567   9.763  11.939
68432W        W39032  23.125   1.749   3.100
68433W        W39033  28.626  14.977   0.587
68434W        W39034  36.044  14.901  12.833
68435W        W39035  16.441  27.051   2.817
68436W        W39036   6.655  11.219   0.356
68437W        W39037  19.725  39.054  14.541
68438W        W39038  44.307  20.817  10.544
68439W        W39039   0.411  22.029  12.880
68440W        W39040  29.521  40.941   1.251
68441W        W39041  39.285  38.384   4.162
68442W        W39042  14.779  11.800  11.759
68443W        W39043  42.511   3.849  10.281
68444W        W39044   4.902  19.967  11.289
68445W        W39045  22.804  39.899   2.761
68446W        W39046  26.009  21.495   1.336
68447W        W39047   8.942  23.163   4.039
68448W        W39048  33.385  23.974   2.167
68449W        W39049  29.189  29.999  11.205
68450W        W39050  29.633  34.397  14.280
68451W        W39051  34.506  22.302   0.312
68452W        W39052  27.945  26.173  14.774
68453W        W39053  40.898  18.523   1.461
68454W        W39054  28.214   3.126   4.483
68455W        W39055   9.631  34.920  14.991
68456W        W39056   2.957   5.223  12.112
68457W        W39057   6.620  38.980   3.701
68458W        W39058  15.881   4.810  10.643
68459W        W39059  29.053  32.581   0.428
68460W        W39060  36.426  12.745  10.933
68461W        W39061  44.523   8.699   1.307
68462W        W39062  43.004  20.699  13.731
68463W        W39063  16.720  23.542  11.140
68464W        W39064   6.087  38.951   3.802
68465W        W39065  16.853  16.524   0.368
68466W        W39066   7.693  15.025  14.131
68467W        W39067  33.037  33.943   4.165
68468W        W39068   0.522   0.001   0.728
68469W        W39069  29.374  14.043   4.978
68470W        W39070  24.846  42.336  12.069
68471W        W39071  26.624  44.517  13.587
68472W        W39072  28.977  34.906   2.100
68473W        W39073  24.420  11.033   4.222
68474W        W39074  38.212  43.135  12.127
68475W        W39075  40.413  12.503   2.527
68476W        W39076  41.496  42.780   4.623
68477W        W39077  36.779  10.296   2.315
68478W        W39078  44.788  22.539  14.945
68479W        W39079  21.538  36.587   3.340
68480W        W39080  17.088   0.855  12.861
68481W        W39081  36.441  31.543   4.585
68482W        W39082  22.663  19.295   4.683
68483W        W39083  26.242  25.547   4.356
68484W        W39084  18.068  41.474  12.539
68485W        W39085  43.921   7.962   1.435
68486W        W39086  16.625   2.197  11.178
68487W        W39087  16.724  18.460   2.574
68488W        W39088  40.973   8.731  14.571
68489W        W39089   0.474  22.362   2.889
68490W        W39090  13.817  19.481  11.130
68491W        W39091  15.781  12.358   5.328
68492W        W39092  13.549  34.599   2.611
68493W        W39093  30.480  37.267   0.762
68494W        W39094  33.899   0.710  11.667
68495W        W39095  36.822  29.013   4.538
68496W        W39096  39.556  17.337  13.464
68497W        W39097  43.253   4.372   2.849
68498W        W39098  20.848  18.733   2.852
68499W        W39099  33.564  14.332  14.746
68500W        W39100   2.532  20.812  14.820
68501W        W39101  10.749   3.205   1.440
68502W        W39102   8.360   7.784   0.221
68503W        W39103  32.975  17.193   3.980
68504W        W39104   4.425  12.719  10.901
68505W        W39105  17.050  14.033  14.097
68506W        W39106  33.473  34.534   4.211
68507W        W39107  20.055   7.217  12.657
68508W        W39108  22.340   5.712  13.429
68509W        W39109  28.890   1.908  12.917
68510W        W39110  12.730  20.113   3.707
68511W        W39111  27.726  41.316   0.240
68512W        W39112   9.268  13.265  14.504
68513W        W39113   8.217  39.723  12.541
68514W        W39114  29.969  10.488   0.399
68515W        W39115  40.524  16.836  11.915
68516W        W39116  14.623  39.751   0.094
68517W        W39117  43.927  33.392   2.283
68518W        W39118  24.323   0.968   3.690
68519W        W39119  23.722   5.894   1.235
68520W        W39120  30.342  39.794   2.254
68521W        W39121  41.336  18.927   0.291
68522W        W39122  11.273  42.067   3.910
68523W        W39123  30.363  39.083   4.571
68524W        W39124  30.973  10.706  13.049
68525W        W39125  36.948  35.765   3.391
68526W        W39126  28.522  13.401  13.804
68527W        W39127  31.206  23.029   3.596
68528W        W39128  28.677  12.938   1.790
68529W        W39129  35.242  38.781  14.504
68530W        W39130  15.583  15.098  14.840
68531W        W39131  15.207   3.342  14.242
68532W        W39132  34.880  20.612   4.509
68533W        W39133  24.061  11.134   4.591
68534W        W39134  19.568  23.513  11.595
68535W        W39135   2.994  41.356   3.082
68536W        W39136   7.948  41.792  12.953
68537W        W39137  29.004  12.571  13.290
68538W        W39138  14.761  32.697   0.914
68539W        W39139  17.857  24.497   1.284
68540W        W39140   0.113  27.233   2.540
68541W        W39141   7.020   8.167  14.454
68542W        W39142  15.205  16.871  12.418
68543W        W39143  40.314  36.489   0.359
68544W        W39144  19.066  17.690   0.242
68545W        W39145  21.927  36.753  12.002
68546W        W39146  21.937  15.561   2.155
68547W        W39147  43.496  14.423  14.722
68548W        W39148  39.468   8.569   1.913
68549W        W39149   9.448  42.931  14.831
68550W        W39150  15.353  16.042  14.976
68551W        W39151   6.722  32.929   0.331
68552W        W39152  42.171  34.121  14.396
68553W        W39153  42.995   6.686  14.951
68554W        W39154   6.818  23.758   1.256
68555W        W39155  35.502   7.402   0.371
68556W        W39156  22.614  28.676   2.483
68557W        W39157  43.731  26.618  12.650
68558W        W39158  14.878  36.456  14.814
68559W        W39159  31.179  43.964   1.164
68560W        W39160  31.275  33.094  10.643
68561W        W39161  16.601  23.089  10.915
68562W        W39162  17.952  20.341   1.587
68563W        W39163  32.558   7.564   2.783
68564W        W39164  44.066   8.273  14.859
68565W        W39165  35.062  31.513   3.919
68566W        W39166  18.718   1.994   1.610
68567W        W39167   1.343  12.646   2.691
68568W        W39168  37.773  34.984  11.858
68569W        W39169  34.083  22.429  13.098
68570W        W39170  10.161  22.476  14.027
68571W        W39171  26.010  29.304   3.336
68572W        W39172  29.431   9.055   1.988
68573W        W39173  27.411  28.573  13.895
68574W        W39174  40.056  41.254  11.993
68575W        W39175  38.686  14.833   4.162
68576W        W39176   4.964  19.156  10.939
68577W        W39177  37.270   7.619  14.952
68578W        W39178  41.784  35.729   4.207
68579W        W39179  10.341  43.411   0.870
68580W        W39180  34.038  37.021  13.403
68581W        W39181   0.244  41.493  13.954
68582W        W39182  38.775  19.846   0.514
68583W        W39183   7.642   8.753   1.887
68584W        W39184  36.540  24.164  14.925
68585W        W39185  39.918  37.570  14.976
68586W        W39186  40.338  24.090  12.371
68587W        W39187   9.900  22.751  10.498
68588W        W39188  22.919  20.703   2.370
68589W        W39189  28.912  24.523   3.867
68590W        W39190   0.456  26.856   2.308
68591W        W39191  42.840  19.960  12.386
68592W        W39192  34.159  36.053   4.077
68593W        W39193   0.675  22.913  14.970
68594W        W39194  23.657  33.951  13.076
68595W        W39195  18.392   3.892   2.310
68596W        W39196  31.124   4.293   3.308
68597W        W39197  17.121  15.300   2.054
68598W        W39198  18.758  32.435  13.902
68599W        W39199  11.226  40.984   0.000
68600W        W39200  44.313   2.408   0.719
68601W        W39201  42.521  42.904  12.947
68602W        W39202  42.937   9.816   1.104
68603W        W39203  20.786  44.730  11.508
68604W        W39204   9.821  25.132  12.888
68605W        W39205  24.380  41.280  13.822
68606W        W39206   6.379  19.461  13.451
68607W        W39207  28.200  13.837  10.133
68608W        W39208  13.542   2.900  10.800
68609W        W39209  23.574   1.455  10.990
68610W        W39210  16.944  33.017  14.444
68611W        W39211  10.886  35.985   0.382
68612W        W39212  38.371  40.503  11.550
68613W        W39213  33.313  18.264  13.881
68614W        W39214   0.311  37.745  14.420
68615W        W39215  10.384  44.820   3.271
68616W        W39216  34.371  10.088   3.233
68617W        W39217  30.161  26.591  11.634
68618W        W39218  13.674  33.416   3.637
68619W        W39219   8.237   4.070  10.636
68620W        W39220  12.526   4.183  12.022
68621W        W39221  33.632  30.115   0.366
68622W        W39222  26.776   9.638   2.906
68623W        W39223  25.129  44.491  14.117
68624W        W39224  30.323  17.683  14.874
68625W        W39225  21.163  13.242   5.368
68626W        W39226   2.359  40.032  12.930
68627W        W39227  43.536  27.997  10.609
68628W        W39228   8.855  44.027  11.644
68629W        W39229   7.230  18.749  11.992
68630W        W39230  27.917   4.436  13.881
68631W        W39231   5.241  31.252  12.844
68632W        W39232   4.327   3.473   0.813
68633W        W39233  42.882  31.938  10.974
68634W        W39234  33.092   6.217  14.335
68635W        W39235  23.591  16.885  12.120
68636W        W39236  43.801  20.251  11.601
68637W        W39237   0.952  35.995  14.559
68638W        W39238   2.361  36.157   2.238
68639W        W39239  34.854   6.273  10.674
68640W        W39240  26.645  26.059   3.284
68641W        W39241  16.988  44.868   4.680
68642W        W39242   3.352  36.547   0.700
68643W        W39243  10.431  16.714  11.537
68644W        W39244   8.698  11.618  13.487
68645W        W39245  38.850  33.518  11.158
68646W        W39246  14.082   9.903   0.918
68647W        W39247  30.198  36.543   4.763
68648W        W39248  35.138  33.245   0.352
68649W        W39249   3.017  33.531   3.961
68650W        W39250  27.573  33.212   1.729
68651W        W39251  41.416  24.154   2.352
68652W        W39252  24.021  42.108   4.213
68653W        W39253  27.264  44.269  14.921
68654W        W39254  22.669  15.746  14.128
68655W        W39255  12.800  30.467   0.571
68656W        W39256  36.280  15.576   4.522
68657W        W39257  13.490   3.064  11.276
68658W        W39258   3.316   9.574  11.653
68659W        W39259  35.378  21.161   4.068
68660W        W39260  28.685  24.900   1.196
68661W        W39261  29.739  11.876   2.794
68662W        W39262   6.330   3.448   0.813
68663W        W39263  41.883  38.139  12.377
68664W        W39264  25.096  27.061  12.516
68665W        W39265  17.031   0.803   1.850
68666W        W39266  25.421  18.262   1.230
68667W        W39267  32.161   7.207   1.263
68668W        W39268   3.134  30.228  11.442
68669W        W39269  12.946  37.194  14.320
68670W        W39270  32.353   5.151  12.515
68671W        W39271   7.549   2.001   3.901
68672W        W39272   5.953  14.102   4.127
68673W        W39273  37.143  38.472   2.418
68674W        W39274  40.465  42.083   0.392
68675W        W39275  16.432   1.152  13.344
68676W        W39276  17.692  37.813  12.921
68677W        W39277  42.016  31.893  13.856
68678W        W39278  32.545  27.166  13.176
68679W        W39279   3.435  19.987  13.317
68680W        W39280  18.454  27.135   3.585
68681W        W39281   7.950  24.085  12.091
68682W        W39282  21.342  43.753   5.109
68683W        W39283  43.402  36.361   0.044
68684W        W39284  41.340   8.238   1.859
68685W        W39285  18.375   3.807   1.266
68686W        W39286   8.893  16.479  13.350
68687W        W39287   7.982  18.331  11.324
68688W        W39288  37.692  40.414  10.983
68689W        W39289  13.389   1.803   1.244
68690W        W39290   6.629  24.247   1.157
68691W        W39291  30.381  34.656  13.348
68692W        W39292  39.530  13.671   3.251
68693W        W39293   3.677   3.609  12.159
68694W        W39294  22.588  24.194  10.696
68695W        W39295   0.496  44.476   2.369
68696W        W39296  19.508  13.615  14.510
68697W        W39297  24.091  22.757   0.484
68698W        W39298  39.984   8.924  10.981
68699W        W39299  24.267  40.569  12.914
68700W        W39300  37.410  20.782   4.893
68701W        W39301  42.978  12.055  14.789
68702W        W39302  37.944  42.255  12.981
68703W        W39303  18.751  13.199   4.926
68704W        W39304  14.166  12.896   0.656
68705W        W39305  33.436  44.177  11.597
68706W        W39306  43.029   7.204  13.977
68707W        W39307  24.781   1.896   2.184
68708W        W39308   0.677  36.126  12.903
68709W        W39309  26.589   3.059   0.927
68710W        W39310  11.242  37.346   4.007
68711W        W39311   7.273  35.544  11.596
68712W        W39312   8.935  23.488   0.261
68713W        W39313   0.427  24.715  11.488
68714W        W39314  37.577  24.267  10.215
68715W        W39315   4.678   4.207  13.989
68716W        W39316   9.104  12.759  11.431
68717W        W39317   3.054  41.089   3.737
68718W        W39318   2.497  29.386  12.373
68719W        W39319  13.053  36.124  14.833
68720W        W39320  17.125  41.674   2.827
68721W        W39321   9.523  44.470   0.885
68722W        W39322  24.394  33.157   3.490
68723W        W39323  33.875  12.199  14.327
68724W        W39324  24.410  26.481  14.961
68725W        W39325  17.528   0.727  13.987
68726W        W39326  18.031  34.615   1.878
68727W        W39327   6.218   2.707   1.531
68728W        W39328  31.546  38.923  10.643
68729W        W39329   0.815  23.522  13.676
68730W        W39330  19.202  30.048   3.311
68731W        W39331  18.663  10.120  12.569
68732W        W39332  22.388   9.371  10.784
68733W        W39333   0.970  25.892   2.316
68734W        W39334  34.352  23.347   0.351
68735W        W39335  11.098  18.123   2.416
68736W        W39336  29.241  31.300  14.894
68737W        W39337  16.782   1.703  11.167
68738W        W39338  31.541  25.198   4.950
68739W        W39339  24.494  31.070  13.175
68740W        W39340  44.749  13.439   2.627
68741W        W39341   9.088  25.532   4.308
68742W        W39342  20.266   9.512   4.733
68743W        W39343  14.879  43.498   0.296
68744W        W39344  38.928  29.020  14.389
68745W        W39345  13.033  19.751   0.251
68746W        W39346  31.757   1.728  11.296
68747W        W39347   9.263  41.023   0.245
68748W        W39348  43.712  33.666   0.927
68749W        W39349  25.028  21.728  13.438
68750W        W39350  16.701  38.016  14.015
68751W        W39351  17.248  20.133   3.794
68752W        W39352  42.968  15.222  12.219
68753W        W39353  10.402  21.254  11.676
68754W        W39354   1.985  36.064  11.144
68755W        W39355  29.591  16.824  13.528
68756W        W39356   1.461  13.672  14.038
68757W        W39357   1.635  15.325   0.136
68758W        W39358  14.646  10.183   1.375
68759W        W39359  38.523  18.203   2.370
68760W        W39360  43.909  17.348  14.431
68761W        W39361   7.138   8.477  11.877
68762W        W39362  37.410  15.214   1.433
68763W        W39363  23.156  13.338  11.048
68764W        W39364  27.108  32.685  14.358
68765W        W39365  32.882  10.253   1.774
68766W        W39366  27.415  13.202   2.952
68767W        W39367  11.224  15.134  12.002
68768W        W39368  10.183  11.280   3.642
68769W        W39369  32.372  39.830   1.148
68770W        W39370   3.256  43.828   2.052
68771W        W39371  31.934   8.188   2.672
68772W        W39372   6.655  42.390   2.204
68773W        W39373  44.018  34.625   4.721
68774W        W39374  17.739  43.295   2.743
68775W        W39375  41.305   5.722   1.909
68776W        W39376  42.708  12.361   2.132
68777W        W39377  38.363  13.673  11.249
68778W        W39378  11.237  41.961   1.832
68779W        W39379  38.464  18.425  10.164
68780W        W39380  23.947  39.822  13.496
68781W        W39381   3.499  44.552   3.737
68782W        W39382  22.456  24.420  11.283
68783W        W39383  10.396  22.348   9.537
68784W        W39384  10.332  34.049   0.805
68785W        W39385  11.859  22.331  10.212
68786W        W39386  26.444  43.939   4.588
68787W        W39387   3.045   0.021  11.193
68788W        W39388   4.828  35.486  14.474
68789W        W39389  12.095  21.647   4.650
68790W        W39390  37.024  32.132   0.041
68791W        W39391  13.115  13.324   3.546
68792W        W39392  28.031  25.185   2.826
68793W        W39393  28.856  11.358   1.208
68794W        W39394  34.413  43.813   3.670
68795W        W39395  28.724  20.547   1.283
68796W        W39396   2.907  26.612   4.647
68797W        W39397   0.179   4.170  14.628
68798W        W39398   0.009  16.657  12.990
68799W        W39399  20.750  44.778  14.971
68800W        W39400  17.839  35.868   2.369
68801W        W39401   8.882  43.467   5.090
68802W        W39402  25.058  18.266  13.401
68803W        W39403  34.525  13.251   2.403
68804W        W39404  36.732   8.968   4.306
68805W        W39405  17.131  27.860  12.899
68806W        W39406  15.545  40.804  12.442
68807W        W39407  30.470  41.104  13.383
68808W        W39408  31.699   4.708  14.001
68809W        W39409  16.653  19.578   3.162
68810W        W39410  38.481  26.537   9.916
68811W        W39411  17.126  20.210   1.468
68812W        W39412   9.710  25.046   3.126
68813W        W39413  38.529  36.498   1.619
68814W        W39414  18.488  35.103   1.411
68815W        W39415  30.426  41.003   0.790
68816W        W39416  34.812  19.505   5.031
68817W        W39417   5.889  25.772  14.607
68818W        W39418  40.566  33.343  13.866
68819W        W39419  33.930  37.291   3.602
68820W        W39420  15.386   6.284  11.472
68821W        W39421  23.954  13.485   4.169
68822W        W39422  26.717  36.061   1.911
68823W        W39423  34.456  33.552  11.407
68824W        W39424   8.585  21.228  12.910
68825W        W39425  30.897  11.170  11.814
68826W        W39426   4.394  43.373   2.426
68827W        W39427  14.179  40.530   1.306
68828W        W39428   3.819  13.107  11.119
68829W        W39429  39.481   9.811   0.170
68830W        W39430  39.727  22.494   4.026
68831W        W39431  17.649  10.413  14.837
68832W        W39432  30.643  26.091  12.875
68833W        W39433  38.480  21.725   3.225
68834W        W39434   1.292  37.304  11.940
68835W        W39435  31.680  44.300  11.102
68836W        W39436  35.635  13.674   3.214
68837W        W39437  27.490   9.236  11.570
68838W        W39438  30.141  31.656   1.301
68839W        W39439  20.289   2.988   1.851
68840W        W39440  39.297   8.302   2.348
68841W        W39441  18.683   4.888   3.117
68842W        W39442  20.283   7.533  10.264
68843W        W39443  26.922   5.344  11.235
68844W        W39444   6.653   7.105  11.640
68845W        W39445  10.851  22.635   3.668
68846W        W39446  19.996  28.008   3.299
68847W        W39447  38.036  25.576   1.836
68848W        W39448   4.924  36.485   0.902
68849W        W39449  28.859  12.095   3.085
68850W        W39450   9.194  42.902  11.147
68851W        W39451  19.511   7.394   0.300
68852W        W39452   6.878  11.401  14.514
68853W        W39453  33.727  38.120  14.190
68854W        W39454  42.617  16.595  14.965
68855W        W39455  23.261  42.679  14.165
68856W        W39456  44.817  11.840   1.752
68857W        W39457   6.836  37.489   0.359
68858W        W39458  14.192  25.884   0.073
68859W        W39459   7.721  18.209   2.320
68860W        W39460  40.783  36.359   1.116
68861W        W39461  44.646   8.102  10.632
68862W        W39462  41.750  25.742  11.239
68863W        W39463   3.714  36.986  11.507
68864W        W39464  11.312   2.438   0.441
68865W        W39465  41.444  31.612  10.797
68866W        W39466   7.375  44.489  10.286
68867W        W39467  14.286  38.512  10.567
68868W        W39468  14.949  30.022   2.796
68869W        W39469  30.826  25.507   1.866
68870W        W39470  19.089  18.108   1.778
68871W        W39471  17.262  14.904  12.185
68872W        W39472  32.630  24.156  11.087
68873W        W39473  10.608  41.809  14.804
68874W        W39474  14.392  41.894  10.772
68875W        W39475  24.097  11.129   1.256
68876W        W39476   8.525  38.274  10.530
68877W        W39477  41.297  16.763  11.639
68878W        W39478  38.317  23.589   3.167
68879W        W39479   4.661   5.132   0.503
68880W        W39480   4.811  40.363  13.130
68881W        W39481  14.048  15.832  13.790
68882W        W39482   9.758  24.538   0.881
68883W        W39483   6.174  22.006   1.297
68884W        W39484  16.949   7.659  14.261
68885W        W39485  28.024  32.900   1.838
68886W        W39486  21.706  33.937  12.022
68887W        W39487  15.824  12.107   0.036
68888W        W39488  20.481  24.551   2.584
68889W        W39489  13.691   0.936   1.790
68890W        W39490  42.509   7.417  11.631
68891W        W39491   0.442  20.297   3.144
68892W        W39492  36.276   9.392  10.903
68893W        W39493  21.519   3.899  11.553
68894W        W39494  33.948   9.691   4.164
68895W        W39495  32.691  24.671  11.028
68896W        W39496  31.991  41.732  13.477
68897W        W39497  33.477  13.355   1.462
68898W        W39498  12.900  24.484   2.193
68899W        W39499  29.190  31.279   1.778
68900W        W39500  37.014   7.756  12.582
68901W        W39501  29.559   6.342   0.037
68902W        W39502   1.300  27.608  13.409
68903W        W39503   9.227  13.631   0.303
68904W        W39504  19.235  27.666  13.364
68905W        W39505  24.536  43.794   5.633
68906W        W39506  39.834  19.540  14.344
68907W        W39507   6.637  24.728  14.846
68908W        W39508  19.995  22.508   4.255
68909W        W39509  26.063  36.898   4.203
68910W        W39510  13.667   4.319   0.517
68911W        W39511  22.320  12.864  11.890
68912W        W39512  22.173  12.538  11.534
68913W        W39513  39.857  27.989   2.593
68914W        W39514  29.756  43.818   3.139
68915W        W39515  17.367  30.810   4.070
68916W        W39516  18.578  20.679  10.516
68917W        W39517  27.928  44.850  13.403
68918W        W39518  22.116   8.082  12.806
68919W        W39519  26.954   0.172  11.589
68920W        W39520  36.434  14.323  10.079
68921W        W39521  20.765  33.960  10.830
68922W        W39522  10.721  24.294  10.807
68923W        W39523  38.113  31.138  13.519
68924W        W39524  14.640  33.078   1.736
68925W        W39525  35.993   1.373   3.947
68926W        W39526  39.025  35.550  12.098
68927W        W39527  20.069  29.513   4.557
68928W        W39528  38.483   1.777  12.445
68929W        W39529   6.285  10.196  12.572
68930W        W39530  41.847  21.896   3.836
68931W        W39531   5.729  24.938  13.489
68932W        W39532   6.030   2.541   2.764
68933W        W39533  39.875  43.203  13.796
68934W        W39534  17.261   1.277  10.708
68935W        W39535  30.116   6.770  11.640
68936W        W39536  30.434  34.982   1.140
68937W        W39537  14.155   4.305  12.823
68938W        W39538  34.093  25.264  11.601
68939W        W39539  16.770  32.289   0.405
68940W        W39540   3.703  38.001   2.875
68941W        W39541  15.838  36.254   1.272
68942W        W39542  26.708  13.555  11.222
68943W        W39543  12.072  24.162   3.276
68944W        W39544  43.956  13.148  14.977
68945W        W39545  26.918  37.931  12.547
68946W        W39546  16.352   9.203   3.255
68947W        W39547  22.959  26.547  11.585
68948W        W39548   0.727  24.212   1.213
68949W        W39549   9.108  18.450  14.727
68950W        W39550  43.083  44.543  14.832
68951W        W39551  39.301  21.609   3.696
68952W        W39552   6.990  18.387  13.406
68953W        W39553  10.418  31.912  13.036
68954W        W39554  21.791  43.494  12.846
68955W        W39555  11.699  29.570  10.961
68956W        W39556   5.016  16.186  10.977
68957W        W39557  33.054  44.567   1.236
68958W        W39558  37.010   5.729   3.322
68959W        W39559  34.490  36.354   2.725
68960W        W39560   4.137  11.659   1.776
68961W        W39561  38.843  40.594  12.488
68962W        W39562  43.897   3.928   3.313
68963W        W39563  18.505  23.090   4.239
68964W        W39564  25.050  39.444   0.285
68965W        W39565  34.817  40.250   1.823
68966W        W39566   4.296  32.358   4.463
68967W        W39567   8.410  20.631   1.098
68968W        W39568  26.408   5.192  12.116
68969W        W39569  14.118  43.605   4.898
68970W        W39570  23.146  33.169  13.922
68971W        W39571  10.248  44.345  11.116
68972W        W39572  11.204   5.114  14.803
68973W        W39573  23.352  24.637  12.438
68974W        W39574  41.408  13.935   1.172
68975W        W39575  31.129  29.131   2.199
68976W        W39576  40.449  25.922  14.391
68977W        W39577   9.396  31.408  14.702
68978W        W39578  29.491  35.102  12.213
68979W        W39579   6.909  26.933  14.426
68980W        W39580  16.107   6.704  11.021
68981W        W39581  36.932  33.445  12.850
68982W        W39582  37.410   1.715  10.987
68983W        W39583  32.680   7.170  12.025
68984W        W39584  13.367   7.215  13.340
68985W        W39585   5.492   1.764  13.909
68986W        W39586  37.974  39.275  12.603
68987W        W39587  15.117  30.183  12.912
68988W        W39588  30.095  23.456  11.580
68989W        W39589  36.895  43.800   0.971
68990W        W39590   0.216  23.090   0.252
68991W        W39591  12.132  32.709  11.545
68992W        W39592  24.922  29.680  14.881
68993W        W39593  20.658  43.535  10.936
68994W        W39594  22.576  40.433   4.616
68995W        W39595  16.985   2.317   1.595
68996W        W39596  23.572   6.472   4.587
68997W        W39597   6.134  38.350   1.304
68998W        W39598  36.852  23.583   3.403
68999W        W39599  38.041  12.117  13.281
69000W        W39600   5.224  38.148   2.871
69001W        W39601  28.974  41.189  11.179
69002W        W39602  28.992  21.589  11.405
69003W        W39603  32.453  39.097  13.440
69004W        W39604  25.505  33.906  14.151
69005W        W39605  30.968  22.233  13.881
69006W        W39606  25.051  31.976  11.994
69007W        W39607  28.520  27.683   1.647
69008W        W39608  34.917   0.278   1.682
69009W        W39609  15.495  17.958   2.885
69010W        W39610  24.990  22.758   1.326
69011W        W39611  15.634  27.722  14.720
69012W        W39612  29.168  44.765   4.523
69013W        W39613   7.669  21.145   1.436
69014W        W39614  18.784  29.982   2.335
69015W        W39615  10.090  44.477  13.876
69016W        W39616  23.684   7.815  14.126
69017W        W39617   2.314   9.972  13.032
69018W        W39618  24.758  35.407  11.896
69019W        W39619  17.687  35.865   4.500
69020W        W39620   3.361  36.538  14.280
69021W        W39621  28.880  36.045   2.307
69022W        W39622  34.531  34.459  13.568
69023W        W39623  43.862  38.189   0.838
69024W        W39624  19.664  20.408   3.281
69025W        W39625  41.499   8.657   3.107
69026W        W39626  19.018   3.920  12.657
69027W        W39627  32.595  28.370  14.381
69028W        W39628  30.630  19.922  12.466
69029W        W39629  39.719  23.692  12.085
69030W        W39630  17.298  35.978  13.572
69031W        W39631  22.913  24.457  11.553
69032W        W39632  32.866  26.130  13.777
69033W        W39633  24.999  29.399  13.038
69034W        W39634  11.170  32.627  10.679
69035W        W39635  21.766  23.555   0.464
69036W        W39636   3.462   7.799  13.347
69037W        W39637   0.772  14.733   4.660
69038W        W39638   0.955  11.471   1.131
69039W        W39639  35.129  12.602  14.006
69040W        W39640   4.079  43.722  14.381
69041W        W39641   2.575  33.713  14.451
69042W        W39642  18.580  24.961  11.632
69043W        W39643  35.676  39.564  10.714
69044W        W39644  31.525  12.579   0.744
69045W        W39645  28.645  21.230  11.290
69046W        W39646  16.466  10.981  14.228
69047W        W39647  42.804  19.861   1.220
69048W        W39648   8.424  42.507   4.328
69049W        W39649  40.543  12.693   1.745
69050W        W39650   3.027  12.241   0.206
69051W        W39651  21.698  39.069   4.652
69052W        W39652  24.274  36.677   2.401
69053W        W39653  26.062   9.013   5.147
69054W        W39654  38.025   8.091   1.728
69055W        W39655  22.266   2.086   3.345
69056W        W39656  39.170   4.844  12.853
69057W        W39657  27.966  40.732   4.068
69058W        W39658   9.255  41.124   1.182
69059W        W39659   6.216   1.708  12.952
69060W        W39660  14.566  30.003   0.029
69061W        W39661  37.011   4.113   4.882
69062W        W39662   2.782  32.735   4.822
69063W        W39663  36.416  35.331  14.355
69064W        W39664  24.806   7.217   2.090
69065W        W39665   8.590  42.171  14.849
69066W        W39666  42.524   0.342   1.481
69067W        W39667  31.748  42.686  14.776
69068W        W39668  30.066  24.561   3.126
69069W        W39669  28.138  25.158  12.224
69070W        W39670  27.260  35.619  11.390
69071W        W39671  19.784  19.981   0.017
69072W        W39672  39.862   9.842  10.823
69073W        W39673   1.782  35.649   2.808
69074W        W39674  24.270  18.789   2.760
69075W        W39675   9.692  10.198   1.402
69076W        W39676  33.403  13.284   2.780
69077W        W39677   9.190  44.436   9.767
69078W        W39678  14.202  18.692   3.847
69079W        W39679  26.522  27.944   2.334
69080W        W39680  33.156  22.293   2.131
69081W        W39681  43.802  27.884   4.061
69082W        W39682   4.222  43.447  13.526
69083W        W39683   2.690   0.558  13.774
69084W        W39684  24.208  19.544   5.136
69085W        W39685  42.360  30.118   1.684
69086W        W39686  30.947   7.591   3.152
69087W        W39687  33.814  24.825  11.641
69088W        W39688  20.121  24.771   4.183
69089W        W39689  42.049  20.378   4.824
69090W        W39690  42.905  39.914  14.501
69091W        W39691  12.205  11.356   1.967
69092W        W39692   4.644  13.642   0.439
69093W        W39693  24.517  23.671  14.489
69094W        W39694  16.959  33.645   0.228
69095W        W39695  31.322  32.530   1.737
69096W        W39696  20.629  19.713   3.122
69097W        W39697  33.459  17.575  11.039
69098W        W39698  44.706   7.198  13.379
69099W        W39699  38.653  15.058  11.594
69100W        W39700  33.418  27.024   4.883
69101W        W39701   3.192   3.270  12.396
69102W        W39702  10.134  11.726  14.351
69103W        W39703  16.698  32.907   0.437
69104W        W39704  34.871   0.902  12.002
69105W        W39705  33.526  36.841  11.702
69106W        W39706  40.139  30.620   3.617
69107W        W39707  39.763  26.486   2.498
69108W        W39708  11.450  13.512  11.144
69109W        W39709  37.196  30.611   2.722
69110W        W39710  15.161   2.425   1.070
69111W        W39711   1.445  30.438  10.967
69112W        W39712   7.737  21.700   2.373
69113W        W39713   9.255  16.858   3.113
69114W        W39714  33.837  26.146   4.826
69115W        W39715   2.607  15.721  12.536
69116W        W39716  39.796  38.978   2.610
69117W        W39717  18.696   8.705  11.999
69118W        W39718  27.445  18.131   1.448
69119W        W39719   3.006  41.625  10.638
69120W        W39720  21.006  10.670   1.964
69121W        W39721  26.987  42.953  11.884
69122W        W39722   9.308   4.563   3.216
69123W        W39723   3.780   2.411   1.307
69124W        W39724   7.251   9.780   2.184
69125W        W39725  24.691  38.555  12.370
69126W        W39726  24.225   5.246  10.739
69127W        W39727  27.432  35.991   1.236
69128W        W39728  40.874  23.447   1.225
69129W        W39729  21.654   9.827   2.695
69130W        W39730  42.323  22.309  11.931
69131W        W39731  40.455  15.249  13.879
69132W        W39732  33.923  38.290  12.583
69133W        W39733  11.811   6.447  12.648
69134W        W39734  25.576  25.989   3.241
69135W        W39735  29.802  25.304  11.183
69136W        W39736  26.452   8.213  13.498
69137W        W39737  18.182  31.098  11.418
69138W        W39738  19.341   0.177   0.383
69139W        W39739  17.237  29.458  13.508
69140W        W39740  24.035  29.181  10.659
69141W        W39741  15.284  21.524   4.909
69142W        W39742  44.276  31.018  12.439
69143W        W39743  11.442  12.226  10.447
69144W        W39744  16.175  18.036   0.818
69145W        W39745  38.963  33.990  11.915
69146W        W39746   3.943  29.983   1.738
69147W        W39747  29.892  42.858  12.913
69148W        W39748  36.506  32.590  13.845
69149W        W39749  30.646  33.544   2.544
69150W        W39750  18.137   3.972  11.048
69151W        W39751  13.232  36.858   0.277
69152W        W39752  34.880  44.523  14.455
69153W        W39753   3.823  26.183  10.744
69154W        W39754  17.120  36.842  14.459
69155W        W39755  33.501  21.192  10.661
69156W        W39756  32.096  16.893  12.001
69157W        W39757  15.285  17.022   1.690
69158W        W39758  38.947  27.396   0.312
69159W        W39759  33.030  28.440  12.860
69160W        W39760  25.046  34.007  12.434
69161W        W39761  43.358   4.112  11.017
69162W        W39762  37.072  40.507   3.676
69163W        W39763  18.434   7.983   5.143
69164W        W39764  36.456  24.373   2.436
69165W        W39765   4.996  22.256   0.685
69166W        W39766  33.868  14.205  14.338
69167W        W39767  26.733   8.977   1.269
69168W        W39768  17.188   3.227   0.397
69169W        W39769  14.114  30.146   3.177
69170W        W39770   2.286   4.754  10.800
69171W        W39771  20.529  33.387  12.374
69172W        W39772  16.247  22.723  10.687
69173W        W39773  16.321  30.911  14.369
69174W        W39774  13.128   4.677   4.999
69175W        W39775  24.751  41.612  11.197
69176W        W39776  44.529  10.783   3.294
69177W        W39777  44.924  26.753   2.344
69178W        W39778  42.522  26.323   1.421
69179W        W39779   1.946  11.048   1.470
69180W        W39780   7.976   7.370   2.195
69181W        W39781  34.460  37.825   1.896
69182W        W39782  37.356  39.577   1.730
69183W        W39783  24.875  25.482   1.685
69184W        W39784  24.924  44.140   2.381
69185W        W39785  15.785  40.426  12.711
69186W        W39786  20.069  19.682   0.956
69187W        W39787  27.856  37.177  14.296
69188W        W39788  31.113  22.288  10.417
69189W        W39789  36.940  10.168  12.859
69190W        W39790  13.093   7.239  12.861
69191W        W39791  42.643   2.305  14.771
69192W        W39792  17.265  32.335   3.184
69193W        W39793  44.442   1.625   2.841
69194W        W39794  16.358  21.015  13.756
69195W        W39795  29.000   0.701   4.415
69196W        W39796  26.635  44.538   3.839
69197W        W39797  22.939  19.770   3.801
69198W        W39798  30.130  40.149  14.806
69199W        W39799  41.589  39.909  11.503
69200W        W39800  12.402  36.284  12.024
69201W        W39801   5.183  14.539   1.461
69202W        W39802  23.496  33.767  14.463
69203W        W39803  37.542  34.469   4.762
69204W        W39804  44.861  41.907   3.878
69205W        W39805  18.113  21.753  14.437
69206W        W39806  26.869  37.768  11.548
69207W        W39807  15.436  31.807   2.651
69208W        W39808   1.794  14.766   1.712
69209W        W39809   8.764  37.544  12.030
69210W        W39810   9.932  31.883   0.377
69211W        W39811   7.987  10.241   2.727
69212W        W39812  32.665  22.548   3.703
69213W        W39813  15.311  37.401   3.747
69214W        W39814  35.402  29.633  12.287
69215W        W39815  43.857  13.402   1.973
69216W        W39816   4.931  35.028  11.986
69217W        W39817   0.710  15.298   0.286
69218W        W39818  22.529  23.235  12.856
69219W        W39819  19.251  41.349  11.968
69220W        W39820  15.826  24.489  12.378
69221W        W39821  31.595  20.735  13.531
69222W        W39822   3.630   1.516  12.333
69223W        W39823  23.425  11.371   0.871
69224W        W39824   0.248  12.210  10.741
69225W        W39825  17.119  40.768   3.704
69226W        W39826  12.620   8.172   4.038
69227W        W39827  12.329  21.583  12.941
69228W        W39828  37.857   0.238   2.842
69229W        W39829   8.508  27.547  14.816
69230W        W39830  15.774  18.514   3.662
69231W        W39831  21.915  29.658  12.040
69232W        W39832  16.521  21.308   3.694
69233W        W39833  24.195  13.698   1.646
69234W        W39834  12.063  34.989   2.870
69235W        W39835  25.083  16.275   2.895
69236W        W39836  14.432   3.300  13.664
69237W        W39837   0.809   9.455   0.887
69238W        W39838  40.221  29.129   3.828
69239W        W39839  15.173  17.887   4.117
69240W        W39840  39.337  44.044   4.186
69241W        W39841  34.385  11.061  12.176
69242W        W39842   2.519  18.564  14.916
69243W        W39843   1.430  31.250  12.402
69244W        W39844  13.201  10.698  13.073
69245W        W39845  42.140   4.241   0.880
69246W        W39846  28.450  29.237   1.996
69247W        W39847   3.310  30.167   1.220
69248W        W39848  15.231  20.986   2.880
69249W        W39849   0.379  29.911  11.922
69250W        W39850   2.747  10.789  11.388
69251W        W39851  15.134  34.812   0.159
69252W        W39852  17.631  21.083  13.372
69253W        W39853  34.135   4.462   4.001
69254W        W39854  39.906  25.795  13.379
69255W        W39855  36.418  25.921  11.640
69256W        W39856   5.313   2.380  10.617
69257W        W39857  22.666  11.629  12.014
69258W        W39858   7.673  33.033   1.315
69259W        W39859  40.004   1.396  13.138
69260W        W39860   1.955  34.587   3.757
69261W        W39861  24.075  22.728   4.577
69262W        W39862  24.028  43.379   4.582
69263W        W39863  19.734  33.869   4.779
69264W        W39864  18.114  19.814   3.207
69265W        W39865  19.792   0.427   1.793
69266W        W39866  39.303  43.767  12.476
69267W        W39867   8.673  16.330  13.973
69268W        W39868  17.796  12.828  14.576
69269W        W39869  12.772  36.634  12.117
69270W        W39870  11.023   7.463   0.088
69271W        W39871  37.360   0.395  11.438
69272W        W39872  25.664  22.279  10.484
69273W        W39873  42.563  31.343  13.393
69274W        W39874   2.531   7.364  13.352
69275W        W39875  32.686  40.793  14.301
69276W        W39876  11.383  16.882  11.276
69277W        W39877   3.400  26.801   2.505
69278W        W39878  41.293  30.512  12.147
69279W        W39879  38.852  23.648   2.922
69280W        W39880  24.038  35.962  12.031
69281W        W39881  18.737   4.423   3.340
69282W        W39882  36.501  16.885  14.473
69283W        W39883  37.333  37.600   9.885
69284W        W39884  23.363  23.337   4.141
69285W        W39885  18.333  37.152   4.172
69286W        W39886  27.152  29.725  11.101
69287W        W39887  16.665   9.388  14.011
69288W        W39888  31.547  10.168  14.018
69289W        W39889  11.663  40.463  14.705
69290W        W39890  34.848  23.966   3.740
69291W        W39891  26.165  41.755   4.007
69292W        W39892   9.900  24.619   1.380
69293W        W39893  39.521  23.049   1.527
69294W        W39894  43.359  33.164  13.951
69295W        W39895  26.021  28.961  12.912
69296W        W39896  12.830  34.843   0.246
69297W        W39897  41.304  36.624   0.312
69298W        W39898  30.621  34.056   3.200
69299W        W39899  23.305  39.394  12.120
69300W        W39900  10.228  29.304  13.847
69301W        W39901  42.527  24.127  10.707
69302W        W39902   1.538   7.153  12.571
69303W        W39903  26.163   0.236   3.607
69304W        W39904   1.073   1.877   2.164
69305W        W39905  37.984  14.057  11.177
69306W        W39906  16.837  30.419  13.955
69307W        W39907   3.840  41.334  13.953
69308W        W39908  21.109  38.705   4.209
69309W        W39909  27.728  38.076   4.547
69310W        W39910  17.472   6.518   2.317
69311W        W39911  29.358  40.411   3.926
69312W        W39912   8.853   8.450  11.535
69313W        W39913  37.821  13.600  11.265
69314W        W39914   3.861   7.142  11.472
69315W        W39915  34.655  10.712  11.412
69316W        W39916  44.808  28.938  13.172
69317W        W39917  40.395  34.579   0.138
69318W        W39918  21.445  43.449  14.153
69319W        W39919  29.717  31.080  14.760
69320W        W39920  40.971   1.937  14.354
69321W        W39921  26.411  31.332  13.990
69322W        W39922  42.861  19.252   3.573
69323W        W39923  21.742  16.660  11.064
69324W        W39924  28.957   6.895   1.722
69325W        W39925  32.399  23.571   4.167
69326W        W39926  11.320  21.180  14.417
69327W        W39927   9.864  26.480   2.257
69328W        W39928  19.787  42.436  14.769
69329W        W39929  42.723  40.559   0.805
69330W        W39930   0.353  16.362  10.660
69331W        W39931  29.399  42.285  13.817
69332W        W39932  44.439   7.915  14.876
69333W        W39933   9.726  43.035  13.378
69334W        W39934  34.813   4.828   4.857
69335W        W39935  10.352   4.370  10.835
69336W        W39936   4.262  41.956   4.210
69337W        W39937  44.066  23.416  11.788
69338W        W39938  24.923  42.819  14.824
69339W        W39939  24.567   9.922   1.915
69340W        W39940  41.703  15.710   3.602
69341W        W39941   3.743  39.729   0.309
69342W        W39942  44.383  26.673   1.102
69343W        W39943  17.121  18.206   3.638
69344W        W39944  36.999  44.516  14.864
69345W        W39945  41.355   5.975  13.578
69346W        W39946   1.861  15.706   3.462
69347W        W39947   7.234  37.011  13.597
69348W        W39948  43.122  29.545   3.587
69349W        W39949  30.362  43.257  13.750
69350W        W39950   7.857   4.440   3.066
69351W        W39951  39.942  27.012   2.868
69352W        W39952  26.641  22.277  12.575
69353W        W39953  23.298  35.101  13.510
69354W        W39954  21.917   6.293  12.798
69355W        W39955  11.697  18.982   1.882
69356W        W39956   0.905  24.722   3.717
69357W        W39957  13.334  40.056  14.704
69358W        W39958  39.427  35.523  12.885
69359W        W39959  34.968  44.263   0.335
69360W        W39960  12.897   2.258   0.136
69361W        W39961   3.111   3.845  11.667
69362W        W39962  43.725  39.419   2.452
69363W        W39963  39.551  10.231  10.666
69364W        W39964  14.744  32.404  14.919
69365W        W39965  41.953  31.349   0.769
69366W        W39966  17.683  10.236   2.766
69367W        W39967  18.608  42.240  11.514
69368W        W39968  27.116  10.433  11.187
69369W        W39969  44.215  19.966  11.698
69370W        W39970  38.850  40.312   3.778
69371W        W39971  44.787   5.262  14.319
69372W        W39972  10.737  31.534  14.718
69373W        W39973  30.076  30.871   1.692
69374W        W39974   0.944  22.082   1.436
69375W        W39975  10.715  33.451   0.893
69376W        W39976  12.368  35.849  12.424
69377W        W39977  16.749   2.688  13.060
69378W        W39978  21.765   7.865   0.953
69379W        W39979  42.429  10.808  14.710
69380W        W39980  20.840   7.387  10.122
69381W        W39981  19.236  17.255  14.803
69382W        W39982  16.510  34.880   1.821
69383W        W39983  36.373  33.268   2.256
69384W        W39984  25.591  20.523   4.707
69385W        W39985  26.973  14.313   2.918
69386W        W39986   8.433  44.349  11.896
69387W        W39987  17.753  36.933  12.969
69388W        W39988  23.114  20.313   3.300
69389W        W39989  22.438  42.916  12.560
69390W        W39990  42.386  18.183  11.164
69391W        W39991  19.480  36.695   2.167
69392W        W39992  41.347  34.353   2.264
69393W        W39993  22.227  22.159   4.655
69394W        W39994   3.949  41.094  13.492
69395W        W39995   4.557  27.207  12.792
69396W        W39996  41.082  33.573   4.785
69397W        W39997  10.767   3.589   3.797
69398W        W39998   2.475  43.869  11.575
69399W        W39999   7.817   6.307  14.708
69400W        W40000   8.897  19.516  11.735
69401W        W40001  31.831   4.665   0.137
69402W        W40002   0.975  15.669   2.340
69403W        W40003  38.853   9.092  10.118
69404W        W40004  35.909   1.119   2.170
69405W        W40005   6.933   5.449   3.176
69406W        W40006  18.166  16.122  13.433
69407W        W40007   3.733  25.722  14.900
69408W        W40008  29.380  24.873  13.350
69409W        W40009  35.052  24.054   1.903
69410W        W40010  23.084  12.777  10.317
69411W        W40011  43.958   4.896  14.452
69412W        W40012  32.106  11.258   0.088
69413W        W40013  44.401  19.275   4.297
69414W        W40014  22.711  17.180  10.703
69415W        W40015  40.860  12.403  13.319
69416W        W40016  21.195  13.161  13.147
69417W        W40017  33.436   9.111  14.361
69418W        W40018  35.346  28.197   1.912
69419W        W40019  42.351   1.731  13.385
69420W        W40020  14.319  27.618   2.734
69421W        W40021  30.768  17.059  11.386
69422W        W40022  18.772  33.415  13.013
69423W        W40023   7.259  23.022   4.644
69424W        W40024  32.011  34.951  12.966
69425W        W40025  33.652  41.909  14.395
69426W        W40026  43.312  40.434  11.848
69427W        W40027   8.776  30.521   1.372
69428W        W40028  22.234  42.371   3.632
69429W        W40029  38.418  44.859  10.668
69430W        W40030  24.635   9.345   2.792
69431W        W40031  26.042   6.424   1.196
69432W        W40032   9.899  20.051  13.196
69433W        W40033   2.983  43.974   0.697
69434W        W40034  19.263  15.624   2.851
69435W        W40035  35.430  39.583   2.364
69436W        W40036  36.415  37.846   2.327
69437W        W40037  17.704  43.441  12.818
69438W        W40038  35.257  23.001  13.982
69439W        W40039   4.137   1.409  14.848
69440W        W40040   1.042  25.179   4.330
69441W        W40041  24.501  13.223   1.811
69442W        W40042  16.019  16.252  12.045
69443W        W40043  32.718   0.814  11.168
69444W        W40044  23.027  13.467   1.777
69445W        W40045  41.584   4.725   3.259
69446W        W40046  32.958   3.436  13.533
69447W        W40047  19.814   9.822   3.531
69448W        W40048   8.626  14.594   2.336
69449W        W40049   2.393  39.622  14.439
69450W        W40050  16.062   7.095  13.501
69451W        W40051   1.499   9.913  14.891
69452W        W40052  16.107   5.838   2.678
69453W        W40053  17.881  22.421  14.030
69454W        W40054  39.699   2.578   2.746
69455W        W40055  33.913  38.323  14.733
69456W        W40056  27.200  38.890  13.867
69457W        W40057  33.160  25.737   0.363
69458W        W40058  12.261  22.899  14.071
69459W        W40059  27.772  43.614   2.201
69460W        W40060  17.162   4.445  13.639
69461W        W40061  19.652  27.148   0.716
69462W        W40062  32.084   3.286   4.345
69463W        W40063  25.704  21.252   1.942
69464W        W40064  32.590  29.373  10.964
69465W        W40065  43.081  17.791  11.152
69466W        W40066  15.520  15.729   0.376
69467W        W40067  44.901   7.203   0.615
69468W        W40068  31.465  40.025  12.595
69469W        W40069   0.895  13.331  14.101
69470W        W40070   6.636   0.309  11.473
69471W        W40071   6.283  23.375  10.813
69472W        W40072   2.673  30.603   0.970
69473W        W40073  28.372   6.847   0.282
69474W        W40074   9.655   8.959   3.441
69475W        W40075  21.076  36.866  11.125
69476W        W40076  12.508   7.672   4.002
69477W        W40077  38.500   1.717  13.956
69478W        W40078  10.579  26.528   1.653
69479W        W40079   2.504  20.167   4.423
69480W        W40080  44.619  22.019  10.040
69481W        W40081  26.420  39.391  13.775
69482W        W40082  30.480  41.838  11.899
69483W        W40083  33.634  19.106  13.988
69484W        W40084  27.869  33.314  14.534
69485W        W40085  30.064  21.280   4.249
69486W        W40086   1.185  34.298  13.430
69487W        W40087  10.291  21.901  10.698
69488W        W40088  14.833  14.740  11.978
69489W        W40089  43.048  24.139  10.651
69490W        W40090  13.343   2.782   2.751
69491W        W40091  44.349   4.389   2.202
69492W        W40092  39.424  20.236   4.089
69493W        W40093  36.417  27.065   0.352
69494W        W40094  11.583  36.861  11.149
69495W        W40095   7.254  39.481   3.229
69496W        W40096  43.284  29.234  10.591
69497W        W40097   7.360  35.173  13.225
69498W        W40098   6.404  36.465   4.691
69499W        W40099  17.873  35.616   2.835
69500W        W40100   0.754  11.377  10.711
69501W        W40101  43.867  20.482  14.069
69502W        W40102  39.344  13.844  11.219
69503W        W40103  11.780  35.420   2.906
69504W        W40104  19.663   0.364  14.338
69505W        W40105  16.556  14.577   2.218
69506W        W40106  34.073  15.301   3.248
69507W        W40107  39.454   1.404  12.524
69508W        W40108  16.273  36.596   1.327
69509W        W40109  35.048  19.166   0.290
69510W        W40110  12.199  35.441   2.623
69511W        W40111  38.550  40.485  12.062
69512W        W40112  42.634  38.543   1.457
69513W        W40113  24.578   9.017  14.706
69514W        W40114  33.139   1.727   2.366
69515W        W40115   9.685  23.574   1.975
69516W        W40116  34.608   2.899   1.486
69517W        W40117  14.255  12.876  10.031
69518W        W40118   0.696  22.476   1.774
69519W        W40119  20.106   7.645   3.766
69520W        W40120   5.019  31.995   4.054
69521W        W40121  29.950  23.299  14.892
69522W        W40122  27.973  33.742   3.274
69523W        W40123  30.114  11.733  11.599
69524W        W40124  42.063  31.547  11.611
69525W        W40125   9.055   1.302   0.657
69526W        W40126  41.808  20.775   2.725
69527W        W40127  11.900  32.505  14.751
69528W        W40128   7.288  20.714   2.679
69529W        W40129   4.639  23.923   1.834
69530W        W40130   1.978  10.844   2.760
69531W        W40131   5.838  11.213   3.481
69532W        W40132  41.419  21.043  13.305
69533W        W40133  32.627  21.743  12.537
69534W        W40134  24.426  26.727  10.510
69535W        W40135   6.038  24.064  13.914
69536W        W40136  40.293   9.360   2.915
69537W        W40137  13.177  43.429   0.101
69538W        W40138  17.095  32.874  10.214
69539W        W40139  15.795  32.793  13.638
69540W        W40140  41.010  44.964  12.063
69541W        W40141  35.685  32.384   4.154
69542W        W40142   7.877   2.399  13.941
69543W        W40143  14.173   1.905  12.592
69544W        W40144   2.248  32.550  14.001
69545W        W40145  20.605  27.802   4.945
69546W        W40146  23.777   5.035  11.619
69547W        W40147  16.244   7.689  10.773
69548W        W40148  37.578   2.155   3.564
69549W        W40149  39.000   3.846   3.438
69550W        W40150  20.906  40.194   2.206
69551W        W40151  41.448  40.971   4.849
69552W        W40152  21.972  10.651  13.642
69553W        W40153   2.394  10.931  11.007
69554W        W40154   4.455   6.343  12.356
69555W        W40155  36.104  19.679   0.740
69556W        W40156  10.586  13.242  13.942
69557W        W40157  39.258   7.280  13.914
69558W        W40158  40.485  11.849  14.921
69559W        W40159  18.269   7.884   4.667
69560W        W40160  10.805  26.837   2.410
69561W        W40161  11.037  42.401  10.464
69562W        W40162  11.690  10.416   1.188
69563W        W40163  10.692  29.431   4.696
69564W        W40164  19.640  26.185  12.781
69565W        W40165  13.598  29.111   2.183
69566W        W40166  41.995   3.654  13.117
69567W        W40167   5.003  22.443  12.602
69568W        W40168  36.339  40.111  11.180
69569W        W40169  18.281  43.372  11.051
69570W        W40170  18.015  44.855  13.440
69571W        W40171   8.295  41.239  13.496
69572W        W40172  14.793   6.386   4.165
69573W        W40173  37.401   5.348  13.421
69574W        W40174  26.998   5.843  11.256
69575W        W40175  21.497  11.063   0.246
69576W        W40176  30.877   8.685   2.540
69577W        W40177  43.496  10.708   1.075
69578W        W40178  21.011  23.558  11.043
69579W        W40179  21.086  25.173  12.411
69580W        W40180   7.211   0.701   4.091
69581W        W40181  23.373  23.037   4.689
69582W        W40182  33.136  13.922   1.765
69583W        W40183   8.062   2.716   1.818
69584W        W40184  20.419  16.276  13.914
69585W        W40185  28.471  12.222   4.212
69586W        W40186   3.862   4.256  10.956
69587W        W40187  21.271  20.538  11.250
69588W        W40188  25.177   2.762  11.312
69589W        W40189   1.618  28.758   4.281
69590W        W40190   6.307   8.194   2.404
69591W        W40191   8.110  32.042   0.719
69592W        W40192   2.148   7.908   2.906
69593W        W40193   7.935   2.447  12.163
69594W        W40194  24.063   9.411  12.871
69595W        W40195  41.138  11.251  13.754
69596W        W40196  42.881  34.451   3.656
69597W        W40197  20.738   9.629  13.686
69598W        W40198  31.447   7.851   1.332
69599W        W40199  13.911  40.367   4.832
69600W        W40200  26.738  31.365  14.385
69601W        W40201  16.699  21.908  13.389
69602W        W40202  27.873  36.330  12.547
69603W        W40203  25.000  12.715   2.903
69604W        W40204  38.837  34.584   2.150
69605W        W40205  20.122  12.876   4.518
69606W        W40206  17.002  24.016  14.882
69607W        W40207  41.591  17.951   4.098
69608W        W40208  25.084   5.275   3.587
69609W        W40209  35.839  20.987  12.295
69610W        W40210  18.694  28.289   5.038
69611W        W40211  25.089   9.089   2.765
69612W        W40212  30.564  28.727   1.936
69613W        W40213  37.594  26.066   2.847
69614W        W40214   8.838  42.524  11.141
69615W        W40215   6.874  35.057  12.435
69616W        W40216  12.611   1.733   2.774
69617W        W40217   2.469  39.140  11.085
69618W        W40218  44.053  40.413  13.395
69619W        W40219  36.140   5.249  12.114
69620W        W40220  21.162  36.291   4.103
69621W        W40221   7.306  23.515   4.368
69622W        W40222  28.621  15.558   2.214
69623W        W40223  22.368  32.809  11.074
69624W        W40224  29.039  18.306   1.465
69625W        W40225  22.077   1.995  11.737
69626W        W40226  32.111  13.098  14.743
69627W        W40227  18.033  33.615   1.702
69628W        W40228   1.770  31.641  14.067
69629W        W40229  28.910  13.596  13.550
69630W        W40230  28.831  17.107   4.773
69631W        W40231  18.140   7.975  12.116
69632W        W40232  26.547   9.269   2.581
69633W        W40233  16.326  23.478  11.953
69634W        W40234  13.393  21.416  13.763
69635W        W40235  16.893  27.205  12.138
69636W        W40236  40.635  27.555  12.911
69637W        W40237  33.394   3.121  14.762
69638W        W40238  27.662  42.806  11.701
69639W        W40239  22.704  38.373   1.206
69640W        W40240   4.652  34.564  13.026
69641W        W40241  27.973  21.691  10.857
69642W        W40242  16.955  33.129   3.845
69643W        W40243  44.866  28.275   4.190
69644W        W40244  12.800  35.809   2.119
69645W        W40245  40.430  10.789   4.782
69646W        W40246  39.953  39.951  13.883
69647W        W40247  35.445  43.065   3.645
69648W        W40248   3.217  10.601  12.643
69649W        W40249  44.792  40.708  11.103
69650W        W40250  27.388  35.215  10.625
69651W        W40251   4.215  19.123   1.323
69652W        W40252  27.991  43.103   4.670
69653W        W40253  22.102  38.156  12.189
69654W        W40254  37.920  44.603  13.356
69655W        W40255  21.097  22.569  11.715
69656W        W40256  13.371   2.366  12.021
69657W        W40257  34.411  20.601  11.262
69658W        W40258  19.101  35.069  12.423
69659W        W40259  36.620  42.301  14.138
69660W        W40260  14.471  43.227   2.679
69661W        W40261  40.481  33.155   4.310
69662W        W40262  15.936  30.707   4.126
69663W        W40263  35.906  35.521  14.441
69664W        W40264  32.951  27.592   3.669
69665W        W40265  15.371  33.055  13.605
69666W        W40266  14.464  37.847   3.479
69667W        W40267  38.758  38.868   3.743
69668W        W40268  22.216  19.207   1.284
69669W        W40269  17.952  26.754  11.619
69670W        W40270  37.422  41.337   4.825
69671W        W40271  13.182  15.331  11.747
69672W        W40272  24.658   1.009  11.102
69673W        W40273  26.200  30.213  12.559
69674W        W40274  32.005  11.592   2.815
69675W        W40275  38.826   7.872  12.965
69676W        W40276  43.202  37.395   0.840
69677W        W40277  28.294   2.730   4.801
69678W        W40278  30.468  18.669   4.612
69679W        W40279  35.042  42.050  13.580
69680W        W40280  19.011  24.957   3.076
69681W        W40281  15.023  10.356  10.040
69682W        W40282  18.687   5.419  10.481
69683W        W40283  10.987  10.909   3.647
69684W        W40284  39.522  11.482  14.787
69685W        W40285   2.830  17.898   2.944
69686W        W40286  17.366  39.268  10.205
69687W        W40287  21.164  23.063   0.497
69688W        W40288  14.403  39.586   3.196
69689W        W40289  30.221  10.054   2.254
69690W        W40290   4.634  13.190   3.665
69691W        W40291   3.698  42.974   1.175
69692W        W40292   1.455  29.680   2.790
69693W        W40293   2.877  29.699  14.716
69694W        W40294  25.355  10.227  14.400
69695W        W40295  32.899  16.874   0.629
69696W        W40296  28.669   3.151   4.237
69697W        W40297  44.320  40.289   2.419
69698W        W40298  36.966  40.027  14.914
69699W        W40299  32.008  20.599  14.299
69700W        W40300  34.909  25.039   2.722
69701W        W40301  44.010   2.981  12.535
69702W        W40302  43.489  29.921   4.744
69703W        W40303  28.087   9.424   1.391
69704W        W40304  10.381  26.448   3.780
69705W        W40305  44.274  36.803   3.101
69706W        W40306  19.177   3.186   4.662
69707W        W40307  29.451   8.811   3.651
69708W        W40308  33.574  25.219  12.536
69709W        W40309  11.667   7.941  12.611
69710W        W40310   9.650   0.802  11.058
69711W        W40311  35.480  30.060   0.558
69712W        W40312  38.800  41.515  12.452
69713W        W40313  23.612  22.943   0.272
69714W        W40314  12.566   1.986   2.324
69715W        W40315  13.552  21.077   2.266
69716W        W40316   6.459  22.052  12.097
69717W        W40317  26.449  30.225   3.615
69718W        W40318  24.515  37.958  11.580
69719W        W40319  16.113   8.833   2.114
69720W        W40320   0.523   4.366  12.009
69721W        W40321  19.131  26.641  11.992
69722W        W40322  15.953  44.528  14.438
69723W        W40323  40.351   0.522   2.898
69724W        W40324   8.004  40.035   0.903
69725W        W40325  36.017  27.039  11.202
69726W        W40326  32.159  11.513  11.668
69727W        W40327  13.273  36.005   2.242
69728W        W40328  30.807   0.824   1.808
69729W        W40329  35.149   0.472  14.312
69730W        W40330   7.869  28.225   1.766
69731W        W40331   7.187  35.352  14.621
69732W        W40332  28.899  39.581  10.729
69733W        W40333  11.223  29.543   0.870
69734W        W40334  14.577   6.396  11.935
69735W        W40335   1.759  24.670   3.738
69736W        W40336   3.806  37.439  14.864
69737W        W40337  21.098  38.664   2.751
69738W        W40338  17.103  41.532  14.998
69739W        W40339  20.572   7.609   4.453
69740W        W40340  37.543  25.224   1.330
69741W        W40341  10.174  28.614   4.085
69742W        W40342  15.110   4.785  11.722
69743W        W40343  16.837   6.700   4.458
69744W        W40344   2.830  44.909  14.836
69745W        W40345  14.996  29.267   4.310
69746W        W40346  17.654  17.039  14.334
69747W        W40347  38.491   1.204   1.873
69748W        W40348  27.040  12.808  12.901
69749W        W40349  33.935  17.003   1.186
69750W        W40350   3.425  18.199  12.088
69751W        W40351  26.416  21.554   4.506
69752W        W40352  19.543  13.630  11.976
69753W        W40353  18.020  16.369  14.860
69754W        W40354   4.065  22.088   0.218
69755W        W40355   8.588  34.395  13.245
69756W        W40356  35.534  23.059  12.181
69757W        W40357  20.260  35.958  12.304
69758W        W40358  21.229  28.846  12.019
69759W        W40359  16.910  15.694  14.891
69760W        W40360   3.910  31.452   4.101
69761W        W40361  32.854  15.593  10.435
69762W        W40362  36.915   7.711   0.370
69763W        W40363  36.682  24.593   3.972
69764W        W40364  19.703  38.585   0.552
69765W        W40365  26.231  17.727   0.421
69766W        W40366  17.696   9.875   3.676
69767W        W40367  35.290  27.671  14.471
69768W        W40368  33.585  35.146   3.115
69769W        W40369   6.625  32.317  13.862
69770W        W40370   5.619  28.090  14.662
69771W        W40371   6.167   4.538   2.863
69772W        W40372  33.185  19.449   1.751
69773W        W40373  43.554   5.179  14.729
69774W        W40374  18.236  28.876   3.302
69775W        W40375  16.562  36.971   3.632
69776W        W40376   9.974  11.046  12.630
69777W        W40377  28.412  37.322   1.333
69778W        W40378  16.109   4.731  11.206
69779W        W40379  12.676  30.827  10.359
69780W        W40380  27.145  43.935   0.402
69781W        W40381  43.002  33.102   4.562
69782W        W40382  27.065  25.121   1.848
69783W        W40383  17.742  36.373   2.211
69784W        W40384  13.987  39.795  11.940
69785W        W40385  11.646  10.205   4.606
69786W        W40386   5.059  36.643   4.397
69787W        W40387  26.716  21.239   3.184
69788W        W40388  19.842  19.167   0.923
69789W        W40389   3.755  14.537  14.571
69790W        W40390  28.471  13.684   0.797
69791W        W40391  38.506  41.445   1.928
69792W        W40392  43.241  33.368   4.210
69793W        W40393  22.465  16.222  13.035
69794W        W40394  17.101  42.665  11.511
69795W        W40395  17.862  43.934  12.122
69796W        W40396  17.772  30.139  11.038
69797W        W40397  22.228  21.211  12.797
69798W        W40398  43.048  27.513  11.201
69799W        W40399  39.117   3.871  11.511
69800W        W40400   5.416   7.523  10.873
69801W        W40401  17.527  21.153  11.176
69802W        W40402  22.028  19.008   4.049
69803W        W40403  43.754  28.196   1.751
69804W        W40404  30.673  26.719   4.126
69805W        W40405  34.060  17.114   3.524
69806W        W40406  32.566   2.658   0.464
69807W        W40407  33.836   7.307   0.376
69808W        W40408  43.715  36.283  10.709
69809W        W40409  37.099  28.985  13.058
69810W        W40410  11.052  44.793   4.181
69811W        W40411  15.371   0.458  12.820
69812W        W40412  40.261  25.967  13.885
69813W        W40413  33.926   6.902  11.206
69814W        W40414  34.675  37.020  10.717
69815W        W40415  41.036   0.956  10.711
69816W        W40416   5.702  16.609  13.112
69817W        W40417  36.550  41.419   3.529
69818W        W40418  34.351  20.808   1.496
69819W        W40419  37.668   2.938   3.997
69820W        W40420  19.061  34.580  10.672
69821W        W40421  44.270  18.289  11.444
69822W        W40422  44.631  27.502   2.904
69823W        W40423  27.671  10.017   2.249
69824W        W40424  17.061   0.510  14.853
69825W        W40425  44.964  36.816  13.578
69826W        W40426  27.199  19.469  14.962
69827W        W40427  24.917  20.145   3.636
69828W        W40428  11.268  18.434  11.523
69829W        W40429  21.133  27.688  10.578
69830W        W40430  23.130   8.807   3.250
69831W        W40431  28.669  17.828  13.724
69832W        W40432   7.382  10.927  12.581
69833W        W40433   3.622  42.851   0.297
69834W        W40434  14.813  26.138   4.858
69835W        W40435  28.038  18.227   2.279
69836W        W40436  37.964   5.086  11.149
69837W        W40437  41.099   9.702   2.882
69838W        W40438  22.512  39.746  12.046
69839W        W40439  35.588   3.400  12.429
69840W        W40440  11.611  37.489  11.683
69841W        W40441  31.825   1.428  11.925
69842W        W40442  20.276  30.115  12.045
69843W        W40443   4.815  30.868   0.752
69844W        W40444  12.899   5.958   0.819
69845W        W40445  26.019  37.107   3.198
69846W        W40446  35.859  18.069  14.840
69847W        W40447   2.677  42.857  10.652
69848W        W40448  24.893  37.363   2.694
69849W        W40449  19.957   6.641   3.935
69850W        W40450  21.089   1.329   0.491
69851W        W40451  17.723  24.782  13.844
69852W        W40452  11.176   6.469   3.237
69853W        W40453  37.585  41.559  12.043
69854W        W40454  41.332   9.775  10.892
69855W        W40455  23.136  28.981  10.264
69856W        W40456  12.872   3.208   0.249
69857W        W40457  14.774  10.586   1.731
69858W        W40458   8.722   7.413  10.657
69859W        W40459  39.659  23.725  10.755
69860W        W40460   9.727   3.586   1.551
69861W        W40461  21.018  39.429  11.632
69862W        W40462   6.785  44.636  13.524
69863W        W40463  15.217  41.902  13.375
69864W        W40464  13.514   1.415   0.099
69865W        W40465   9.606  32.077   0.040
69866W        W40466  35.614  19.808  10.986
69867W        W40467   0.814  19.493   4.189
69868W        W40468   3.841  11.275   1.407
69869W        W40469   8.735  30.416  13.366
69870W        W40470   7.391  36.883  10.771
69871W        W40471   2.311  40.223   4.673
69872W        W40472   3.959  16.848   1.539
69873W        W40473   9.847  43.482   0.805
69874W        W40474   2.794   4.290   4.491
69875W        W40475  44.264  31.685   0.898
69876W        W40476  11.769  35.608  10.759
69877W        W40477  13.619  25.753  12.369
69878W        W40478  27.916  11.775  14.227
69879W        W40479  38.784  37.875   1.965
69880W        W40480  24.569  23.124  12.479
69881W        W40481  40.280   5.305  11.926
69882W        W40482  12.048   3.370  13.397
69883W        W40483  33.627  12.889  12.452
69884W        W40484   3.237   9.095  11.764
69885W        W40485   1.175   2.096  10.977
69886W        W40486   9.073  26.293  14.420
69887W        W40487  22.350   3.327  11.499
69888W        W40488  17.780   7.690   4.652
69889W        W40489   6.270  38.577   0.859
69890W        W40490  25.913  39.776   1.279
69891W        W40491  30.240  11.394  14.506
69892W        W40492  21.718  28.789  12.263
69893W        W40493  33.147  33.147  11.154
69894W        W40494   5.379  32.638   1.547
69895W        W40495  25.280  12.250   2.836
69896W        W40496   5.451   4.937  13.036
69897W        W40497  39.390   2.449   3.129
69898W        W40498  42.365  32.897   2.920
69899W        W40499  16.267   3.477  13.922
69900W        W40500  12.761  22.671   4.149
69901W        W40501  10.394  32.199  12.567
69902W        W40502  41.306   3.970  12.100
69903W        W40503  27.266  12.129   0.304
69904W        W40504  12.312  17.057   2.851
69905W        W40505  26.175  38.942   1.512
69906W        W40506   0.931  29.128  11.588
69907W        W40507  39.530  16.950  10.485
69908W        W40508  23.527  17.716  14.021
69909W        W40509  42.749  34.804   4.154
69910W        W40510  24.266  26.983   2.207
69911W        W40511   5.950  43.881   2.382
69912W        W40512  23.381   8.150  13.839
69913W        W40513  35.161  15.792   0.179
69914W        W40514  10.928  13.308   1.134
69915W        W40515  34.417  16.726   1.459
69916W        W40516  11.555  35.676  14.448
69917W        W40517  20.221  44.911  10.301
69918W        W40518  26.008  44.440   1.804
69919W        W40519  29.963  14.698  11.226
69920W        W40520  19.961  30.039  12.639
69921W        W40521  15.492  29.543  13.455
69922W        W40522   3.434  29.348  10.251
69923W        W40523   3.827   9.936   0.255
69924W        W40524  20.256   3.526  12.106
69925W        W40525  15.636  10.715  13.808
69926W        W40526  30.408  26.099  14.064
69927W        W40527  38.515  33.909  11.664
69928W        W40528  32.430   1.256  11.134
69929W        W40529   6.344  24.016   1.509
69930W        W40530   1.504   3.032  14.458
69931W        W40531  24.999  27.296   3.838
69932W        W40532  25.527   6.038   5.000
69933W        W40533  40.777  34.893  13.282
69934W        W40534  25.085  24.299   3.695
69935W        W40535  26.493   9.245  11.136
69936W        W40536  11.280  25.662   2.141
69937W        W40537  20.183  21.164   3.899
69938W        W40538  42.844  33.663  12.596
69939W        W40539  23.424   8.736  11.664
69940W        W40540  38.774  41.263  11.642
69941W        W40541  14.562   2.844  10.712
69942W        W40542  15.601   5.850  12.634
69943W        W40543  31.247  18.554   3.599
69944W        W40544  26.913  41.580  12.146
69945W        W40545  25.494  37.946   2.906
69946W        W40546   0.337  16.328   4.071
69947W        W40547   9.168   3.132  11.637
69948W        W40548  15.123  14.048   2.179
69949W        W40549  11.343  43.592  11.602
69950W        W40550   6.928  13.928  11.191
69951W        W40551  41.090  13.903   4.187
69952W        W40552  31.179  42.892   4.653
69953W        W40553   7.313  33.972   4.684
69954W        W40554  24.150   7.975  13.439
69955W        W40555  25.854   4.149   4.161
69956W        W40556  37.256  37.997  12.998
69957W        W40557  13.251  24.894  10.740
69958W        W40558  34.573  11.418   0.842
69959W        W40559  14.603  41.431  10.141
69960W        W40560  22.834  29.245  13.512
69961W        W40561  39.722  44.445   3.331
69962W        W40562  34.640  25.323  14.416
69963W        W40563  30.678  26.948   3.201
69964W        W40564  29.593  20.769   0.883
69965W        W40565  21.103  26.205   1.930
69966W        W40566  28.222  44.707   2.223
69967W        W40567  16.537   3.801  10.710
69968W        W40568  16.512  29.650  13.344
69969W        W40569  41.516  44.409  13.356
69970W        W40570  11.244   3.414   2.255
69971W        W40571  34.274  29.643  10.610
69972W        W40572  42.362  10.835  12.969
69973W        W40573  11.275  15.825  14.100
69974W        W40574  32.021   2.118  12.647
69975W        W40575  16.558  43.287   3.764
69976W        W40576  42.329  28.050  12.671
69977W        W40577   9.741  37.865  13.495
69978W        W40578  23.310  28.199  13.487
69979W        W40579  16.227  30.594  11.906
69980W        W40580  43.466  15.296  13.520
69981W        W40581  13.197  26.007  12.190
69982W        W40582   9.257   0.861   0.425
69983W        W40583  33.877  24.457   0.002
69984W        W40584  25.544  28.591  13.385
69985W        W40585  43.758   7.636  12.174
69986W        W40586   9.571  43.790   2.533
69987W        W40587  12.237  35.463   3.132
69988W        W40588  39.131  44.061  14.003
69989W        W40589  34.477  10.297   1.918
69990W        W40590  13.290  44.371   4.193
69991W        W40591   7.675  13.310  13.017
69992W        W40592  11.021  36.186   3.148
69993W        W40593   7.308   5.387  14.966
69994W        W40594  19.260   9.058   4.138
69995W        W40595   9.625  37.950   4.423
69996W        W40596  17.302  30.085   3.767
69997W        W40597  38.578   9.631  14.753
69998W        W40598  29.289  17.917   1.729
69999W        W40599  21.232  26.449   2.817
70000W        W40600   2.174  19.358  10.776
70001W        W40601  30.357  15.092   0.621
70002W        W40602  16.926   4.762  14.295
70003W        W40603  37.512  31.915  11.008
70004W        W40604  24.698  12.825   0.759
70005W        W40605   4.352  11.785  11.367
70006W        W40606  36.921  19.197  13.403
70007W        W40607  44.014  12.611   0.289
70008W        W40608  34.386  17.578   2.808
70009W        W40609  16.684   1.365   4.583
70010W        W40610  11.063  35.044   2.836
70011W        W40611   7.886  38.975   2.745
70012W        W40612  32.630  34.161   1.349
70013W        W40613  23.196  42.265  11.677
70014W        W40614  42.132  33.152   1.724
70015W        W40615   5.717  40.584  11.607
70016W        W40616   3.639  37.403  10.677
70017W        W40617   3.591   1.806  11.203
70018W        W40618   7.426  13.381   0.019
70019W        W40619  40.977  36.117  11.795
70020W        W40620  44.472  31.648   0.432
70021W        W40621  43.413  11.284  14.281
70022W        W40622  39.091  19.799   2.303
70023W        W40623  24.588  18.131  11.640
70024W        W40624  32.670  41.037   4.159
70025W        W40625  28.121   7.789  14.806
70026W        W40626  30.793  31.143  11.461
70027W        W40627  35.166  44.271   0.808
70028W        W40628  11.092  26.319   4.124
70029W        W40629  15.765  33.299  13.831
70030W        W40630  26.095   1.776  10.568
70031W        W40631   2.991  30.674  10.670
70032W        W40632  36.496   9.392  14.387
70033W        W40633  24.687   0.649   1.627
70034W        W40634  39.092   6.959   1.776
70035W        W40635  41.842  23.984  12.557
70036W        W40636   1.392  20.820   0.166
70037W        W40637  42.747  38.083  12.945
70038W        W40638  31.974  10.371   0.690
70039W        W40639  36.042  11.604   4.151
70040W        W40640  21.512  38.352   0.939
70041W        W40641  35.610   3.894  11.049
70042W        W40642  41.942  28.262  11.619
70043W        W40643  36.545  21.973  10.378
70044W        W40644  14.352  34.988   2.753
70045W        W40645  34.399  10.404  12.391
70046W        W40646  28.482  28.024   2.357
70047W        W40647  28.630  26.977  14.712
70048W        W40648  34.162  16.267   4.119
70049W        W40649  22.237  43.542   2.757
70050W        W40650  34.905  33.980   1.686
70051W        W40651  34.363  39.793  13.502
70052W        W40652   6.288  18.508  13.453
70053W        W40653  38.094  44.367  12.026
70054W        W40654  10.857  31.334   2.754
70055W        W40655  43.651   6.835   2.235
70056W        W40656  22.443  42.279   1.799
70057W        W40657   7.699  15.331   2.681
70058W        W40658  20.667  20.686   2.625
70059W        W40659  11.801  10.601  12.082
70060W        W40660  37.555   2.856  13.084
70061W        W40661  25.627  15.490  10.279
70062W        W40662  15.524  22.641   4.220
70063W        W40663   4.302   9.691   1.307
70064W        W40664  14.165  11.757  12.953
70065W        W40665  36.909  38.230  13.424
70066W        W40666  14.316  33.394   2.298
70067W        W40667  21.178  26.553  11.583
70068W        W40668   2.791  38.416   0.781
70069W        W40669  18.316  29.123   2.267
70070W        W40670  31.615  29.865  12.054
70071W        W40671   7.711  10.843  10.761
70072W        W40672  43.463  36.903   3.254
70073W        W40673  28.568   0.994   0.882
70074W        W40674   2.306  17.217  13.160
70075W        W40675  40.511  26.755  13.839
70076W        W40676  35.941  34.028  10.450
70077W        W40677  30.097   1.841   0.189
70078W        W40678  22.305  29.397   0.259
70079W        W40679   0.062   1.412  14.853
70080W        W40680  32.706   7.698   1.788
70081W        W40681  34.573  26.669  11.179
70082W        W40682   0.357  31.112  12.868
70083W        W40683   7.744  40.414  10.279
70084W        W40684  16.642  32.935  12.015
70085W        W40685  15.712  33.457  11.111
70086W        W40686  27.207  19.012  13.902
70087W        W40687  17.507  31.145  11.921
70088W        W40688  28.988  23.509  14.342
70089W        W40689  25.490   7.984   2.246
70090W        W40690  37.327  14.176   3.583
70091W        W40691  14.499  11.714   3.474
70092W        W40692   5.969  33.099  11.567
70093W        W40693  16.727  25.463   0.339
70094W        W40694  18.081  38.083   4.809
70095W        W40695   6.937   2.382   2.808
70096W        W40696   8.036  14.634  14.062
70097W        W40697   6.878  35.638  12.437
70098W        W40698  23.514   1.992  13.485
70099W        W40699   1.001   1.471  12.141
70100W        W40700  14.463  12.021  12.084
70101W        W40701   8.445  37.997  12.696
70102W        W40702  12.167  39.885  10.342
70103W        W40703  22.519   1.532   1.692
70104W        W40704  13.180  20.537  10.729
70105W        W40705  25.978  30.418   4.077
70106W        W40706  14.776  31.384   0.445
70107W        W40707   0.766  36.686   3.639
70108W        W40708  34.029  14.440   4.577
70109W        W40709  22.229  39.824   0.090
70110W        W40710  11.401  10.953  13.462
70111W        W40711   2.457  35.669  12.086
70112W        W40712  21.317   9.897   3.650
70113W        W40713   1.274  22.573   4.204
70114W        W40714  16.625   1.278   0.892
70115W        W40715   2.823   0.834   1.263
70116W        W40716  41.060  17.278   0.769
70117W        W40717  11.124  10.777   1.946
70118W        W40718  40.891   5.950  14.468
70119W        W40719  20.135  15.726  11.931
70120W        W40720  28.743  10.412   0.784
70121W        W40721  20.568  38.059  12.151
70122W        W40722  27.640  38.621  13.768
70123W        W40723  34.627  22.776   1.269
70124W        W40724  33.478  20.261   1.301
70125W        W40725   2.239  23.203  13.048
70126W        W40726   1.716  29.660  11.975
70127W        W40727  40.733  28.544   3.165
70128W        W40728  28.242  14.304  11.590
70129W        W40729   1.497   8.266  11.173
70130W        W40730  32.756  23.000  11.760
70131W        W40731  10.839  40.831  10.620
70132W        W40732  16.138  41.142  12.179
70133W        W40733  33.118  26.370  10.172
70134W        W40734  37.504  35.559   3.904
70135W        W40735  10.380  26.396   1.196
70136W        W40736  44.428  20.307  13.615
70137W        W40737  25.481  24.139  14.879
70138W        W40738  27.645  20.721   2.209
70139W        W40739  42.986  24.515   0.353
70140W        W40740  31.377   2.201   0.933
70141W        W40741  16.035  36.506   0.832
70142W        W40742   0.183   5.218  13.608
70143W        W40743   8.287  43.606   0.273
70144W        W40744  40.920   5.831   0.059
70145W        W40745   0.873  20.545  12.615
70146W        W40746  24.417   2.863   1.393
70147W        W40747   5.215   9.659   4.538
70148W        W40748  30.105   5.135  14.483
70149W        W40749  19.573   0.466  11.614
70150W        W40750  10.499  33.141   1.801
70151W        W40751  23.010  38.172   2.226
70152W        W40752   7.398  41.431  14.057
70153W        W40753  26.973  40.378  14.714
70154W        W40754  28.869  10.329   1.682
70155W        W40755  12.066  33.574   3.096
70156W        W40756  30.204  20.596  13.000
70157W        W40757   5.751  26.868  14.000
70158W        W40758  28.180  18.209   0.220
70159W        W40759  27.867  25.568  12.032
70160W        W40760   8.216  22.650   0.388
70161W        W40761  13.627   1.426   0.965
70162W        W40762  24.546  20.246   2.692
70163W        W40763   7.224  25.103   0.584
70164W        W40764  29.546  22.732  11.572
70165W        W40765  14.135  20.157   4.563
70166W        W40766  25.285  42.828   3.572
70167W        W40767  13.551  22.399   0.753
70168W        W40768  29.365  26.190  10.944
70169W        W40769  25.547   6.716   0.384
70170W        W40770  14.639  32.907  12.603
70171W        W40771   1.893  43.689   3.321
70172W        W40772  40.465  31.561  12.459
70173W        W40773  42.990   5.675  12.945
70174W        W40774  27.742   8.667   1.117
70175W        W40775  44.279  12.621   4.215
70176W        W40776  27.173  15.905   1.447
70177W        W40777  41.261  29.587  11.603
70178W        W40778  20.005  35.772   3.263
70179W        W40779  27.090  19.723  13.354
70180W        W40780   7.435  32.998  11.599
70181W        W40781   5.819  36.670   0.719
70182W        W40782  35.460   4.983   3.125
70183W        W40783  24.599  18.026  12.529
70184W        W40784  20.966  41.753  12.592
70185W        W40785  32.443  29.192   2.801
70186W        W40786  20.041   0.875   1.893
70187W        W40787  43.299   8.272  12.298
70188W        W40788  37.762   1.912   3.103
70189W        W40789  33.882  44.960  12.045
70190W        W40790  34.205  29.712   2.379
70191W        W40791  44.210  17.610   1.228
70192W        W40792  18.104  18.519  13.310
70193W        W40793  32.831  37.033   3.785
70194W        W40794  12.113  33.386  10.546
70195W        W40795  14.149   3.391   2.541
70196W        W40796  26.942   5.454   2.828
70197W        W40797  41.722  27.963  11.264
70198W        W40798   4.726  25.637  11.595
70199W        W40799  43.987  11.784  11.172
70200W        W40800  33.279   5.680  12.978
70201W        W40801   0.204  37.506   1.851
70202W        W40802  10.739  26.904  13.311
70203W        W40803  39.326   3.999  10.203
70204W        W40804  24.847   6.429  10.913
70205W        W40805  20.049  37.631   4.569
70206W        W40806   0.111   5.716   2.066
70207W        W40807  26.700  10.652  14.250
70208W        W40808   4.899   2.883   4.044
70209W        W40809  17.586   7.794  14.844
70210W        W40810  30.479  28.968  12.022
70211W        W40811  34.359   0.726   1.704
70212W        W40812  41.535  26.699   4.202
70213W        W40813  41.636   4.053   2.805
70214W        W40814  23.669  10.222  11.414
70215W        W40815   8.122  18.683  14.730
70216W        W40816  43.180  38.027  11.746
70217W        W40817  17.406   7.294  13.810
70218W        W40818  40.843   9.959   0.220
70219W        W40819  14.159  19.591  14.497
70220W        W40820   0.968   0.980   2.937
70221W        W40821  15.362  20.660  12.411
70222W        W40822  39.993   9.581  11.671
70223W        W40823   3.986  15.145   3.578
70224W        W40824   8.442  25.167   1.402
70225W        W40825   6.826   1.438  13.932
70226W        W40826  24.331  11.665  12.347
70227W        W40827  19.259  20.057   4.140
70228W        W40828   5.648   3.334   1.894
70229W        W40829   7.164  16.504   3.292
70230W        W40830   6.323   0.906  14.461
70231W        W40831   0.354  32.766   0.421
70232W        W40832  24.398  43.205   4.240
70233W        W40833  15.799   6.401   2.691
70234W        W40834  33.096   2.225   4.933
70235W        W40835  27.879  10.652  13.294
70236W        W40836  22.131  16.580   1.306
70237W        W40837  13.582   1.685   4.975
70238W        W40838   3.226  30.220   0.265
70239W        W40839  38.901  24.923   3.282
70240W        W40840   8.943  36.808   4.182
70241W        W40841   7.783  17.235  13.630
70242W        W40842  13.833  22.270   4.532
70243W        W40843   6.561   9.408  10.758
70244W        W40844  22.051   8.367  13.707
70245W        W40845  40.982  13.620   1.023
70246W        W40846  40.994  41.773   0.030
70247W        W40847   9.963   3.407   2.956
70248W        W40848  30.579  20.272  13.661
70249W        W40849  28.036   1.828  13.806
70250W        W40850  11.373  40.273  14.320
70251W        W40851  29.637  43.016   4.479
70252W        W40852   9.930  32.819  13.055
70253W        W40853  21.097   8.879  12.729
70254W        W40854  21.210  13.075   4.430
70255W        W40855  13.359  42.201   1.701
70256W        W40856  29.351  31.865  11.752
70257W        W40857  12.106  20.308  12.141
70258W        W40858  17.888  40.100   4.664
70259W        W40859  40.776  19.123   2.803
70260W        W40860   3.330  14.746   2.228
70261W        W40861  12.309  22.286  14.820
70262W        W40862  15.172  33.007  12.056
70263W        W40863   6.684   5.326   3.631
70264W        W40864  29.135  40.255   0.948
70265W        W40865   1.499  40.384  13.424
70266W        W40866  26.306   0.078  11.793
70267W        W40867   4.648  25.456   4.506
70268W        W40868  15.287  22.279   0.321
70269W        W40869  38.535  41.433  12.044
70270W        W40870  24.678   7.015  13.835
70271W        W40871  44.459  11.738   5.351
70272W        W40872  17.533   8.630  11.568
70273W        W40873  15.166  44.071   3.152
70274W        W40874  27.205  13.303  12.988
70275W        W40875  40.726  19.818  14.280
70276W        W40876  34.406  15.281   2.706
70277W        W40877   6.690  14.677  12.854
70278W        W40878  10.053  29.042   4.364
70279W        W40879  16.258  12.876   0.435
70280W        W40880  26.333  35.971   4.641
70281W        W40881  24.576  37.513  10.623
70282W        W40882  11.039  35.923   2.325
70283W        W40883  19.930   1.403  14.538
70284W        W40884   5.861   2.452  14.091
70285W        W40885  42.858  31.341   2.209
70286W        W40886  23.944   1.436  12.458
70287W        W40887  44.448  23.415   4.150
70288W        W40888  35.538   9.093   2.129
70289W        W40889  39.707  18.415  12.316
70290W        W40890  20.690  13.492   2.909
70291W        W40891  37.787  22.557  11.059
70292W        W40892   7.796  44.594  12.471
70293W        W40893   3.864  20.544   3.014
70294W        W40894  41.097   0.982   4.569
70295W        W40895  19.807  26.921  14.369
70296W        W40896  18.587  33.925  13.659
70297W        W40897  12.550  15.051   4.379
70298W        W40898  22.266  21.246   4.162
70299W        W40899  34.980  14.741  12.002
70300W        W40900  14.227  10.356  11.713
70301W        W40901  16.967   9.574  10.923
70302W        W40902  27.043  15.783   3.811
70303W        W40903  22.067   3.979  14.947
70304W        W40904  23.212  25.767  13.354
70305W        W40905  28.067  12.799   3.721
70306W        W40906  24.450  15.171   0.547
70307W        W40907  26.123  30.653   0.736
70308W        W40908  33.172  22.057  12.891
70309W        W40909  26.925  21.664  14.312
70310W        W40910  20.528  40.825   0.055
70311W        W40911  26.142  36.407  14.475
70312W        W40912  34.439  11.805   3.817
70313W        W40913  36.843  42.366   2.792
70314W        W40914  25.137  28.128   4.332
70315W        W40915   4.249  10.114   1.034
70316W        W40916  42.298  28.920   3.722
70317W        W40917  11.520  20.647  10.196
70318W        W40918  34.393  39.254   3.296
70319W        W40919   5.748   0.316   4.620
70320W        W40920  24.132  24.477  13.802
70321W        W40921   4.915  23.692   3.379
70322W        W40922  27.624   7.670  13.007
70323W        W40923  13.686  24.519  14.083
70324W        W40924  25.992  37.585   1.331
70325W        W40925  11.662  30.909  14.946
70326W        W40926  17.519   9.675   2.300
70327W        W40927  22.245   5.843   3.628
70328W        W40928  19.968  23.473  11.977
70329W        W40929  42.828  13.783   0.308
70330W        W40930  35.417  33.831  14.033
70331W        W40931  15.346  21.726  12.961
70332W        W40932  22.923  33.010  13.472
70333W        W40933   8.229  18.880  11.973
70334W        W40934  26.036  36.138   0.702
70335W        W40935  16.605  31.608   3.278
70336W        W40936   0.494  16.139   1.788
70337W        W40937  39.524  21.098  11.451
70338W        W40938  43.148  38.883  12.712
70339W        W40939  38.172  20.019   0.395
70340W        W40940  21.935  11.565  11.629
70341W        W40941   1.769  19.031  10.728
70342W        W40942  33.519  29.686  14.047
70343W        W40943  22.920  29.478  11.917
70344W        W40944   1.495  32.071   0.051
70345W        W40945  32.086  13.178   0.737
70346W        W40946  23.271  15.303   3.611
70347W        W40947  44.207  21.733  14.332
70348W        W40948  15.819  40.744   1.691
70349W        W40949  22.103  33.572   2.287
70350W        W40950  25.436  26.489   4.761
70351W        W40951  18.498  39.891   2.350
70352W        W40952  44.279  44.860   5.108
70353W        W40953  24.273  32.904   2.797
70354W        W40954  16.610  38.325  14.455
70355W        W40955  26.030  13.836   4.671
70356W        W40956  23.107   1.465  10.719
70357W        W40957  10.764   7.701   0.489
70358W        W40958   4.547  13.745   4.977
70359W        W40959  32.522   0.270   3.365
70360W        W40960  23.962   8.915  12.175
70361W        W40961  36.405   3.347   2.320
70362W        W40962  39.175   7.917   3.731
70363W        W40963  22.345  32.051  13.442
70364W        W40964   5.943  24.509   0.458
70365W        W40965   8.113  17.959   3.189
70366W        W40966  23.312   5.952  12.110
70367W        W40967  26.000  28.509   1.370
70368W        W40968  33.214  22.554  14.053
70369W        W40969  31.039  22.561   9.974
70370W        W40970  25.117  28.225  13.960
70371W        W40971  27.667  15.639   2.216
70372W        W40972  41.897  35.047  14.828
70373W        W40973  21.923  38.364   2.374
70374W        W40974  13.015  41.022   3.947
70375W        W40975   2.797  16.569   0.936
70376W        W40976  23.597  16.946   0.519
70377W        W40977  30.949  28.204   1.226
70378W        W40978  39.300  17.524  14.598
70379W        W40979  16.902  29.648  12.577
70380W        W40980   4.621  43.043   9.978
70381W        W40981  15.154   5.981  12.423
70382W        W40982  17.477  27.182   3.742
70383W        W40983  42.310  10.716   1.394
70384W        W40984  10.222  44.508   4.109
70385W        W40985   4.251  39.797   2.823
70386W        W40986  22.710  36.534   1.736
70387W        W40987  19.541  17.359   4.182
70388W        W40988   0.387  27.468  14.734
70389W        W40989  30.165  37.939   4.539
70390W        W40990  40.773  22.291   4.607
70391W        W40991  39.437  19.286   1.900
70392W        W40992  36.999   9.249   3.183
70393W        W40993  42.445  27.234   0.411
70394W        W40994   7.134   3.237   0.200
70395W        W40995  20.142  27.160   3.721
70396W        W40996  10.276  17.375   1.204
70397W        W40997   3.028  22.563   3.255
70398W        W40998  18.374  30.886   4.118
70399W        W40999  22.422  39.222   4.177
70400W        W41000  36.671  18.171   1.746
70401W        W41001  15.815  40.004   0.353
70402W        W41002  29.346  31.068   1.318
70403W        W41003  20.719  38.757   2.088
70404W        W41004  26.930  20.165  12.565
70405W        W41005  26.171  32.004   0.309
70406W        W41006  14.613   4.693  12.563
70407W        W41007   4.669  41.648  13.550
70408W        W41008  11.334   8.372  11.630
70409W        W41009  23.521  22.777  13.810
70410W        W41010   3.866   5.405   1.489
70411W        W41011  43.415  15.667   3.209
70412W        W41012  30.011  40.227   2.220
70413W        W41013  18.506  43.413  13.557
70414W        W41014  17.059   9.134  13.789
70415W        W41015  30.407  23.578  14.912
70416W        W41016  28.459  30.636   2.927
70417W        W41017  18.471  13.150  13.919
70418W        W41018  36.859  18.312  12.897
70419W        W41019   6.156  31.105  12.510
70420W        W41020  13.411  29.401   1.768
70421W        W41021  21.254  21.100  11.615
70422W        W41022  38.917  29.970  10.445
70423W        W41023   7.240  38.768   5.470
70424W        W41024  21.519   2.486  11.007
70425W        W41025   7.906  21.838  12.950
70426W        W41026  10.317  21.124   1.820
70427W        W41027  12.291  13.409   0.905
70428W        W41028  31.003  37.087   1.941
70429W        W41029  22.243  16.817  11.128
70430W        W41030  40.603  25.987  14.910
70431W        W41031  16.567   0.516   4.152
70432W        W41032  43.957  36.871  13.488
70433W        W41033  33.652  27.511   4.860
70434W        W41034   4.236   6.908  10.603
70435W        W41035  15.966  42.753   5.542
70436W        W41036  17.485   2.960  11.156
70437W        W41037  12.292   6.650   4.711
70438W        W41038  29.026  12.637  10.542
70439W        W41039  11.380  34.578  13.042
70440W        W41040  44.723  37.187  10.897
70441W        W41041   7.388  42.352  12.568
70442W        W41042  34.687   1.796   0.368
70443W        W41043  31.934  22.484   1.268
70444W        W41044  21.136  40.046   2.745
70445W        W41045  23.487  20.634   0.737
70446W        W41046  36.536  43.971  13.432
70447W        W41047  35.575   7.388   3.282
70448W        W41048  43.800  36.876   4.493
70449W        W41049  43.205  18.124   0.959
70450W        W41050  14.054  12.140   2.151
70451W        W41051  39.277  31.394   2.420
70452W        W41052  25.456  33.937   1.988
70453W        W41053  37.095   5.236  14.794
70454W        W41054  21.154  31.091   3.237
70455W        W41055   2.592  13.586   4.352
70456W        W41056  34.141   1.537  11.376
70457W        W41057   0.448  36.091  11.912
70458W        W41058   0.670  24.205  12.118
70459W        W41059  35.690  32.090   3.111
70460W        W41060  20.228  32.630   4.170
70461W        W41061  19.272  13.591  11.515
70462W        W41062   9.211   4.477  13.512
70463W        W41063  10.115  35.984  11.180
70464W        W41064  18.694  15.528  12.911
70465W        W41065  19.111  25.948   2.961
70466W        W41066  29.547  32.973   4.745
70467W        W41067  22.160  42.525  13.843
70468W        W41068  41.774  13.132   3.472
70469W        W41069  15.289  11.224  12.563
70470W        W41070  32.855  21.526   1.704
70471W        W41071  17.725  27.390   0.866
70472W        W41072  19.658  31.863   0.778
70473W        W41073  37.560  24.945  13.523
70474W        W41074  34.546  37.789   3.814
70475W        W41075  22.123  36.880   3.629
70476W        W41076  16.001  15.312  13.891
70477W        W41077  25.051  40.674  11.307
70478W        W41078   6.325  34.962   2.232
70479W        W41079  33.616  12.759  11.571
70480W        W41080  10.762  30.021  14.896
70481W        W41081   2.250  14.657  14.459
70482W        W41082  15.553  38.575  11.422
70483W        W41083  42.025  27.458   0.207
70484W        W41084  22.445  28.723   1.239
70485W        W41085  44.918  28.605  12.185
70486W        W41086  35.137  13.859   0.939
70487W        W41087  41.395  43.268   4.782
70488W        W41088  23.918  36.396  13.864
70489W        W41089   4.054  27.144  10.737
70490W        W41090   7.445   3.233  13.843
70491W        W41091  26.313  19.872  11.144
70492W        W41092  26.495  11.826   3.500
70493W        W41093  11.988  34.901  14.277
70494W        W41094  15.880  24.685   1.287
70495W        W41095  30.847  26.144  14.376
70496W        W41096  16.400  25.532   3.733
70497W        W41097  43.843  23.111  13.985
70498W        W41098  21.634  29.417  10.659
70499W        W41099   9.032  44.954   2.721
70500W        W41100  27.456  33.616  11.119
70501W        W41101  39.010   4.451   0.436
70502W        W41102   7.830  39.246   0.098
70503W        W41103  32.904  29.002   4.339
70504W        W41104  41.843  20.662   2.198
70505W        W41105   0.737   7.399   4.892
70506W        W41106  13.393  30.083   4.861
70507W        W41107  24.195   1.727  13.681
70508W        W41108  22.943  38.264  14.338
70509W        W41109   2.849   3.321   3.284
70510W        W41110  44.824  11.681  14.155
70511W        W41111  22.128   7.120   4.638
70512W        W41112  43.830   5.645  12.884
70513W        W41113  37.924   5.228  11.635
70514W        W41114  17.590   6.436   4.104
70515W        W41115  19.134  14.729   4.414
70516W        W41116   3.711  17.594   2.428
70517W        W41117  13.265  15.812  11.943
70518W        W41118  39.956  43.724   0.196
70519W        W41119  13.369  44.302   2.442
70520W        W41120  17.603  20.895  11.608
70521W        W41121  11.905  35.579   0.825
70522W        W41122  20.469  29.522   1.858
70523W        W41123   8.668   9.396  13.497
70524W        W41124  21.279  17.132   1.841
70525W        W41125   4.457  31.972  14.192
70526W        W41126  25.092  15.202  12.288
70527W        W41127  35.819   5.909  14.898
70528W        W41128  39.216  18.645  13.900
70529W        W41129  35.620  44.424  14.857
70530W        W41130  41.295  11.480   1.387
70531W        W41131   5.822  12.825  11.040
70532W        W41132   9.332   2.124   0.600
70533W        W41133  33.487  14.019   3.497
70534W        W41134  29.411  28.918   1.786
70535W        W41135  22.818  34.354  14.001
70536W        W41136  39.011   5.399  14.050
70537W        W41137   3.667  17.157   3.681
70538W        W41138   9.706  20.044  11.649
70539W        W41139   0.829  21.287   1.353
70540W        W41140   4.051  11.168   3.900
70541W        W41141  41.087  38.653  14.078
70542W        W41142  25.080  44.413   9.936
70543W        W41143   7.766  40.014  10.627
70544W        W41144  38.373  33.178   0.380
70545W        W41145  31.947   0.810  10.727
70546W        W41146  40.527  14.604  13.121
70547W        W41147  18.254  24.546   0.946
70548W        W41148   2.801   1.625  11.004
70549W        W41149   7.431   9.623  11.100
70550W        W41150  44.290   5.766   0.420
70551W        W41151  33.018  31.429   4.523
70552W        W41152  12.227  32.346  11.938
70553W        W41153  42.912  10.951   2.693
70554W        W41154  10.152  17.944  12.002
70555W        W41155  40.576  41.439  10.748
70556W        W41156  15.392  16.965  13.968
70557W        W41157  34.512   7.876   0.818
70558W        W41158  32.473  44.833  12.516
70559W        W41159  13.474  13.354  13.255
70560W        W41160  22.932  13.830  14.939
70561W        W41161  44.448  43.447   1.319
70562W        W41162  28.062   7.602  12.764
70563W        W41163  32.492  31.229   3.276
70564W        W41164  13.034  26.301   2.700
70565W        W41165  23.952   3.261  10.151
70566W        W41166  28.890  36.408  13.588
70567W        W41167   1.139  10.173   2.853
70568W        W41168  12.626  10.695  10.914
70569W        W41169  26.152  33.623  14.840
70570W        W41170  42.987   6.958  11.973
70571W        W41171  34.989  11.787   3.129
70572W        W41172   1.607  39.064  11.959
70573W        W41173  33.443  24.792  12.267
70574W        W41174  24.698  39.862  11.441
70575W        W41175  19.969  33.365   1.676
70576W        W41176  35.509   7.360  13.385
70577W        W41177  18.813  33.449   0.840
70578W        W41178  30.343  41.841  14.774
70579W        W41179  38.077  18.547  10.563
70580W        W41180  16.191   9.140   0.865
70581W        W41181  15.747  31.665   4.297
70582W        W41182  15.881   1.834   0.446
70583W        W41183   2.719  17.359   4.700
70584W        W41184  34.270  33.537   0.442
70585W        W41185  33.331  41.709  13.050
70586W        W41186  23.092  35.456  11.669
70587W        W41187  12.606  37.114   1.842
70588W        W41188  35.106  29.244  11.268
70589W        W41189  25.549  44.692   3.261
70590W        W41190  16.505   0.365  12.009
70591W        W41191  13.684  12.353  11.125
70592W        W41192  31.591  11.804   1.940
70593W        W41193   3.180   9.719  14.415
70594W        W41194  38.061  32.065  11.202
70595W        W41195  17.790  28.541   1.744
70596W        W41196   1.480   9.230   0.329
70597W        W41197   1.173   7.279  12.177
70598W        W41198  16.345  24.172  11.662
70599W        W41199  31.338  41.399  12.628
70600W        W41200  20.992   2.558   4.570
70601W        W41201  19.526  25.938  11.509
70602W        W41202  39.488   0.699   2.879
70603W        W41203   8.655  23.650  14.493
70604W        W41204   0.435  36.899  11.545
70605W        W41205  27.100  28.937   1.787
70606W        W41206  21.245  36.507  12.648
70607W        W41207   8.258   3.382  13.453
70608W        W41208  21.025  24.404  11.112
70609W        W41209  31.404  31.890  14.345
70610W        W41210   0.788   8.694   1.274
70611W        W41211   7.816  29.637   3.962
70612W        W41212  26.169   4.846  11.318
70613W        W41213  13.896   3.754  10.650
70614W        W41214  39.851  16.637  14.540
70615W        W41215  10.781  39.504   4.158
70616W        W41216  42.347  38.432   0.502
70617W        W41217  25.169   6.382  12.614
70618W        W41218  20.774  27.583   2.279
70619W        W41219  22.081  34.734  11.960
70620W        W41220  28.758  31.484   4.301
70621W        W41221   4.356  22.017  13.940
70622W        W41222  11.267  16.808   0.488
70623W        W41223   1.902   4.884   1.305
70624W        W41224  25.601  27.715   0.471
70625W        W41225   1.548  31.647   4.146
70626W        W41226   8.916  13.173   1.281
70627W        W41227  29.457  14.619   4.438
70628W        W41228   1.018  38.724  13.809
70629W        W41229  23.087  25.885   0.282
70630W        W41230   4.317  41.342  13.785
70631W        W41231  20.171  16.589   2.834
70632W        W41232  39.386  20.679  11.172
70633W        W41233  39.373  39.077  11.474
70634W        W41234  16.739  20.086  10.596
70635W        W41235  31.450  34.124  10.808
70636W        W41236  25.001  21.045   4.012
70637W        W41237   7.087  37.800   3.985
70638W        W41238  31.520  10.359  10.631
70639W        W41239  10.780   6.227  12.101
70640W        W41240  17.647  19.304   2.266
70641W        W41241   7.599   6.418   3.481
70642W        W41242   3.640  16.336  12.896
70643W        W41243   1.861  38.067  10.506
70644W        W41244   8.356  27.245   4.541
70645W        W41245  33.187  35.784   1.722
70646W        W41246  42.246  14.851   0.618
70647W        W41247   1.438  38.352   1.314
70648W        W41248   3.465  16.316  13.409
70649W        W41249  13.839  11.308  11.098
70650W        W41250  22.549  19.286  11.074
70651W        W41251  29.610   2.938  14.612
70652W        W41252   7.781  36.890  14.714
70653W        W41253  12.170   7.655   3.164
70654W        W41254  23.616  41.311   2.632
70655W        W41255  38.285  37.799  14.457
70656W        W41256  32.959   3.956   4.189
70657W        W41257  16.777   8.186  11.979
70658W        W41258   8.777  35.348  14.367
70659W        W41259  27.024  37.052   1.674
70660W        W41260  21.586  28.244   0.305
70661W        W41261  24.057  41.784   3.781
70662W        W41262  39.847  35.887  12.439
70663W        W41263   8.258  23.787   1.739
70664W        W41264  38.460  27.933  14.395
70665W        W41265  10.104   5.246  10.937
70666W        W41266  43.794  34.972  14.812
70667W        W41267  18.715  13.676  13.991
70668W        W41268  44.914   3.027   3.275
70669W        W41269  25.776  38.805  11.440
70670W        W41270  31.540  21.463  10.880
70671W        W41271  34.599  24.740   1.232
70672W        W41272   4.944  20.137   1.815
70673W        W41273   1.345  11.274  13.568
70674W        W41274  39.996   9.854   4.246
70675W        W41275  27.990  39.591  11.999
70676W        W41276  16.282  27.698   0.494
70677W        W41277  16.640   8.368  13.829
70678W        W41278  40.782  37.539  11.277
70679W        W41279  29.530  21.233  14.613
70680W        W41280  34.080  27.642  13.957
70681W        W41281  22.353  13.567   4.171
70682W        W41282  38.134  27.535  14.330
70683W        W41283  38.637  19.276  13.947
70684W        W41284  13.447  41.741   3.658
70685W        W41285  14.232  27.392  11.661
70686W        W41286  26.082  37.443   0.845
70687W        W41287   1.498  15.733   0.499
70688W        W41288   5.573  21.166   2.837
70689W        W41289  24.280  27.355  11.637
70690W        W41290  30.021  32.871  11.126
70691W        W41291  11.927   1.955  12.096
70692W        W41292   0.216   8.017   1.037
70693W        W41293  12.781   8.835  12.646
70694W        W41294  40.267  33.608   0.366
70695W        W41295  34.629  41.143  13.092
70696W        W41296  27.890   4.278   3.911
70697W        W41297  13.755  35.367   0.404
70698W        W41298  26.602  40.481   2.481
70699W        W41299  10.651  15.596   1.423
70700W        W41300  31.950  44.017   0.486
70701W        W41301  22.699  42.914  10.137
70702W        W41302   0.353  17.289  10.619
70703W        W41303  40.491  17.398  13.921
70704W        W41304  18.647   2.932   2.194
70705W        W41305  30.113  12.174  14.470
70706W        W41306  25.720   0.396   1.730
70707W        W41307  25.059  41.074  11.618
70708W        W41308   1.467   1.296  14.026
70709W        W41309  22.982  19.687   2.901
70710W        W41310  21.915   6.225   2.308
70711W        W41311  35.901  13.602  13.940
70712W        W41312  19.036   0.823   0.891
70713W        W41313  31.198  26.038  14.735
70714W        W41314  10.565  13.825   2.874
70715W        W41315  40.178   9.821  12.549
70716W        W41316  11.266  42.588   0.435
70717W        W41317  23.011  41.917   1.408
70718W        W41318  30.596   6.588   3.754
70719W        W41319  35.142  42.995  13.102
70720W        W41320  24.004  31.752   2.280
70721W        W41321  36.964  10.256   0.359
70722W        W41322   0.882  29.014  10.760
70723W        W41323  15.234  37.276   2.833
70724W        W41324   8.737  31.446   4.767
70725W        W41325   5.413   4.198   4.376
70726W        W41326  12.614  22.056   1.027
70727W        W41327   1.870  39.230  12.372
70728W        W41328  41.551   7.406  14.095
70729W        W41329  33.885  16.211  12.965
70730W        W41330  19.276   1.721   4.509
70731W        W41331  10.035  12.338  13.888
70732W        W41332   9.719  39.632  10.626
70733W        W41333  41.579   6.846  12.871
70734W        W41334  37.063  12.742   0.651
70735W        W41335   0.584  29.509   0.958
70736W        W41336  37.301  38.781  13.353
70737W        W41337  42.221  21.641   1.775
70738W        W41338   6.526   0.738   4.678
70739W        W41339  33.614  22.031  14.863
70740W        W41340   4.253  16.967   1.936
70741W        W41341  26.952   1.830   2.260
70742W        W41342  13.566  35.860   0.305
70743W        W41343   5.254  25.443  10.414
70744W        W41344  12.089  16.738   2.509
70745W        W41345  39.815  20.206  11.894
70746W        W41346  24.462  26.602  13.548
70747W        W41347  25.922  26.924   4.162
70748W        W41348  17.230  21.313   4.826
70749W        W41349  31.669  39.056  12.381
70750W        W41350  34.326  43.855  11.505
70751W        W41351   6.782  38.943  10.747
70752W        W41352  31.628  37.902   0.128
70753W        W41353  18.786   6.463   5.026
70754W        W41354  34.147  44.073  11.094
70755W        W41355  38.392  25.371  12.971
70756W        W41356  24.129  31.459  13.320
70757W        W41357   5.734  30.287  13.540
70758W        W41358  29.994  37.047  11.994
70759W        W41359  19.584  33.060   2.620
70760W        W41360  23.789  13.320  14.806
70761W        W41361  44.915  26.846   4.053
70762W        W41362  29.382  36.408   0.864
70763W        W41363  23.210  34.793   3.498
70764W        W41364  21.555  36.883  14.359
70765W        W41365  20.868   0.809  14.739
70766W        W41366  33.879  27.547  11.115
70767W        W41367  27.760  22.457  14.909
70768W        W41368  32.222  40.839   3.973
70769W        W41369  38.906   9.276   2.187
70770W        W41370  19.628   2.701   3.560
70771W        W41371   9.721  39.932   2.237
70772W        W41372  40.324  11.133  13.425
70773W        W41373  31.386  39.618   1.013
70774W        W41374  33.570  36.125  12.509
70775W        W41375   1.254  40.831  12.582
70776W        W41376  16.352  34.075  11.846
70777W        W41377  40.720  39.020   1.959
70778W        W41378  19.847   0.872  14.299
70779W        W41379  19.076  35.007   3.860
70780W        W41380  18.467  15.210   1.230
70781W        W41381  24.326   5.447   1.767
70782W        W41382   5.942   5.082  14.050
70783W        W41383  25.603  37.754   4.951
70784W        W41384  21.466  31.088   4.604
70785W        W41385  21.234  16.168  10.325
70786W        W41386  26.501  43.359  12.848
70787W        W41387  18.695   9.188   0.216
70788W        W41388  38.881  19.512  14.473
70789W        W41389  38.085  17.336  12.494
70790W        W41390   8.870  24.559  14.191
70791W        W41391  13.930   5.279  10.838
70792W        W41392  12.827   2.885   1.944
70793W        W41393  32.145  16.622   4.577
70794W        W41394   2.471   0.098  13.428
70795W        W41395  34.906  10.363  14.845
70796W        W41396  41.156  30.874   0.822
70797W        W41397   2.481   3.302   2.596
70798W        W41398  23.041  17.977   4.756
70799W        W41399  43.840   3.209  11.221
70800W        W41400  42.471  27.315   1.552
70801W        W41401  44.522  37.825   1.324
70802W        W41402   5.460  38.167  12.131
70803W        W41403  25.796  14.074  13.898
70804W        W41404  39.908   7.800  14.274
70805W        W41405  44.864  41.779  13.021
70806W        W41406  11.658   2.732   0.201
70807W        W41407  33.992  41.628   0.241
70808W        W41408  31.291  33.141   1.293
70809W        W41409  21.476  26.344   3.735
70810W        W41410  24.144  26.079   4.514
70811W        W41411   9.867  20.922  12.341
70812W        W41412  10.871  20.150   4.891
70813W        W41413  44.354  20.521  14.901
70814W        W41414   1.892  38.157   0.225
70815W        W41415   4.609  42.740  10.803
70816W        W41416   8.601  14.297   5.163
70817W        W41417  32.068  20.813  11.386
70818W        W41418  15.663   1.291   3.568
70819W        W41419  38.835  10.309   4.070
70820W        W41420  36.327  14.261   3.179
70821W        W41421  16.682  20.309   2.658
70822W        W41422  26.903  11.735   0.309
70823W        W41423   6.238  23.615  13.656
70824W        W41424  38.543  43.559  13.831
70825W        W41425  25.969  12.536  12.358
70826W        W41426  32.310  10.588  14.504
70827W        W41427  13.116  20.747   1.575
70828W        W41428   8.267   2.264  10.451
70829W        W41429  24.528  11.560   0.347
70830W        W41430  39.353  43.036  14.523
70831W        W41431  33.541   9.353   2.880
70832W        W41432   1.417   1.539  10.610
70833W        W41433  38.025  19.569  11.929
70834W        W41434   9.808   4.250   2.238
70835W        W41435  10.791  31.915  12.421
70836W        W41436  33.163  13.773  12.150
70837W        W41437  37.398  15.267   0.401
70838W        W41438   6.697  11.754  13.520
70839W        W41439  16.095  44.312  13.462
70840W        W41440   8.130  25.237   1.949
70841W        W41441  33.480  27.115   3.479
70842W        W41442  40.106  35.571  12.103
70843W        W41443   0.875  26.746  12.069
70844W        W41444   0.462  36.463   0.385
70845W        W41445  23.759  33.948  13.971
70846W        W41446  10.798  39.492   1.939
70847W        W41447  20.529  21.680   2.772
70848W        W41448  40.642   8.502   2.279
70849W        W41449  41.100  20.280  14.713
70850W        W41450  12.729  18.081   2.408
70851W        W41451  36.033  34.380   2.765
70852W        W41452   0.848   0.718  11.201
70853W        W41453  30.567  11.274   4.493
70854W        W41454   5.168  26.027   0.935
70855W        W41455  16.979  13.298  12.066
70856W        W41456  30.372  22.805   3.824
70857W        W41457  35.206  20.333   3.159
70858W        W41458  41.330  13.226   2.154
70859W        W41459  12.815  22.111  14.088
70860W        W41460  42.879  25.221  11.378
70861W        W41461  15.607  18.939  13.360
70862W        W41462  31.755  44.153   3.221
70863W        W41463   3.400  38.037  11.069
70864W        W41464   1.343  20.305  14.294
70865W        W41465  25.694  32.080  13.023
70866W        W41466  31.405  19.340   0.954
70867W        W41467  11.381  35.061  13.325
70868W        W41468   5.300  41.181  12.997
70869W        W41469  37.503  24.496   3.768
70870W        W41470  12.040   6.792   2.145
70871W        W41471  14.869  38.326   1.864
70872W        W41472   8.441   2.945   0.329
70873W        W41473  17.639  36.856   3.569
70874W        W41474  34.801  29.071   1.770
70875W        W41475   7.142  29.646   1.270
70876W        W41476   6.341  33.891  13.186
70877W        W41477  43.556   3.666   0.900
70878W        W41478  34.394   3.369  14.913
70879W        W41479  28.464  29.506   0.675
70880W        W41480  33.440  22.695   2.335
70881W        W41481  16.488  31.929  11.569
70882W        W41482  13.697  26.409   0.751
70883W        W41483  40.963  12.415   4.642
70884W        W41484  20.741  24.209   3.841
70885W        W41485   4.878  30.546   5.072
70886W        W41486  25.177  30.835   3.882
70887W        W41487   9.497  17.730   4.169
70888W        W41488   6.752  10.341   1.719
70889W        W41489  36.450  14.893   0.774
70890W        W41490   6.866  25.536   3.336
70891W        W41491  24.332   2.781  12.725
70892W        W41492   9.417  40.823  12.985
70893W        W41493  14.369  16.416   3.455
70894W        W41494   8.899  12.760  12.493
70895W        W41495  32.662  33.623  12.701
70896W        W41496  37.040  31.676   1.989
70897W        W41497  38.352  32.403  13.132
70898W        W41498  20.370  43.972  10.436
70899W        W41499  39.632  10.786  11.688
70900W        W41500  43.050  28.290   5.092
70901W        W41501  37.934  31.179   4.142
70902W        W41502   7.428  34.302   2.358
70903W        W41503  16.180  41.084   2.733
70904W        W41504  29.978   8.211  13.920
70905W        W41505  42.407  42.931   4.572
70906W        W41506  22.491  27.120  12.429
70907W        W41507  44.771  29.873  13.974
70908W        W41508  17.192  30.534   4.697
70909W        W41509   7.357   6.160  10.387
70910W        W41510  43.035  17.197  13.076
70911W        W41511  27.692  10.826   1.933
70912W        W41512  22.069   9.430   4.536
70913W        W41513   0.801   1.259  14.392
70914W        W41514  38.010  33.610  10.708
70915W        W41515  15.897  32.471  10.240
70916W        W41516  28.185   8.232   2.002
70917W        W41517   6.920  31.565   3.663
70918W        W41518  37.429  38.247  13.421
70919W        W41519  27.166  40.040   1.849
70920W        W41520  38.058  40.819  12.214
70921W        W41521  17.150  28.958   0.010
70922W        W41522   3.484  18.289   1.790
70923W        W41523  17.357   2.394   4.862
70924W        W41524  12.689  20.786   2.797
70925W        W41525  22.305  19.478  10.273
70926W        W41526  10.545  35.998   3.275
70927W        W41527  11.884   4.205   3.333
70928W        W41528  15.168   4.914  11.230
70929W        W41529  29.878  44.950   4.703
70930W        W41530  38.607  25.598   4.292
70931W        W41531  15.231  19.114   1.175
70932W        W41532   5.808   7.555   0.314
70933W        W41533  26.512  32.653  14.960
70934W        W41534  20.517  34.943  13.491
70935W        W41535  41.419  23.546   4.591
70936W        W41536  32.808  34.110  11.477
70937W        W41537   6.634  11.445   3.708
70938W        W41538  30.024   2.446  10.988
70939W        W41539  10.607  31.100  11.838
70940W        W41540  15.229  17.725  10.734
70941W        W41541  13.591   9.278   2.878
70942W        W41542  42.006   3.453  11.617
70943W        W41543  40.302  30.722  12.057
70944W        W41544  38.641   1.552   2.263
70945W        W41545  25.002  21.113  13.074
70946W        W41546  28.547  38.885   2.824
70947W        W41547  27.509  24.151   1.939
70948W        W41548  25.079  39.860   2.642
70949W        W41549  36.066  39.435   4.701
70950W        W41550  19.680  30.355   0.803
70951W        W41551  30.936  17.951  11.522
70952W        W41552  18.782   1.342   3.651
70953W        W41553  43.488  34.411  11.700
70954W        W41554   8.882  39.821   1.467
70955W        W41555  28.945  11.701  13.811
70956W        W41556  34.002  37.804   3.622
70957W        W41557  38.327  44.397  13.586
70958W        W41558  34.507  24.002  12.073
70959W        W41559  22.764  22.719   0.062
70960W        W41560  16.803  39.535  11.175
70961W        W41561  18.550   0.244   2.297
70962W        W41562   5.641  18.780   2.892
70963W        W41563  16.379   8.432   2.927
70964W        W41564   6.233  39.386  10.685
70965W        W41565  35.658  29.152  12.362
70966W        W41566  40.437   6.399   3.562
70967W        W41567  17.821  34.565   2.802
70968W        W41568  30.387  12.380   1.403
70969W        W41569   4.511  13.677  12.308
70970W        W41570  28.419   3.261   2.147
70971W        W41571   0.804  13.267  12.065
70972W        W41572  13.582  31.739  12.561
70973W        W41573  24.746  40.403  14.313
70974W        W41574  25.104  13.600  11.708
70975W        W41575   0.055  22.215   3.162
70976W        W41576   8.767   0.924  13.999
70977W        W41577  31.112  13.280   0.470
70978W        W41578  20.504  43.479  11.516
70979W        W41579  40.400  37.145  12.461
70980W        W41580  40.857  29.680   1.778
70981W        W41581   8.669  32.367   4.556
70982W        W41582   9.916   2.306   0.838
70983W        W41583  35.800  12.935   1.770
70984W        W41584  36.302  38.811  10.562
70985W        W41585  24.904  23.044   0.787
70986W        W41586  26.063  16.549   2.042
70987W        W41587  27.414  12.100   3.816
70988W        W41588  12.700  16.784  14.926
70989W        W41589  11.659  42.229  12.671
70990W        W41590  29.381  17.582  14.992
70991W        W41591  42.103  20.530   3.587
70992W        W41592  12.951  25.044  13.987
70993W        W41593  43.761  18.555   1.896
70994W        W41594  12.590  35.089   3.682
70995W        W41595  17.656  32.787  10.678
70996W        W41596   8.890  34.003  14.835
70997W        W41597  44.602  29.107   0.078
70998W        W41598  15.437  39.760  11.077
70999W        W41599   2.400  42.465   4.413
71000W        W41600  22.765  31.415  11.395
71001W        W41601  24.355   2.988   2.372
71002W        W41602  27.376  30.287   5.204
71003W        W41603  33.230  42.917   1.936
71004W        W41604   4.475   2.371  12.929
71005W        W41605  22.707  26.711  14.517
71006W        W41606  34.841  39.434   4.201
71007W        W41607   4.884  35.009  14.259
71008W        W41608  11.767  41.261  14.091
71009W        W41609  28.563  22.033  13.349
71010W        W41610  37.889  29.942  11.600
71011W        W41611  19.526  29.497   0.988
71012W        W41612  43.468   3.842   3.009
71013W        W41613  18.963   2.209   3.509
71014W        W41614  44.450  27.869   0.693
71015W        W41615  19.011  16.025  12.019
71016W        W41616   5.602  44.646   0.457
71017W        W41617  26.305   0.343   0.817
71018W        W41618   9.106   2.412  13.451
71019W        W41619  40.322  22.582   3.533
71020W        W41620  33.922  13.208  14.635
71021W        W41621  23.612   6.219  14.472
71022W        W41622  14.684   5.864  11.142
71023W        W41623  22.282  21.751   3.428
71024W        W41624   6.340  32.593  14.248
71025W        W41625   0.598  14.194   2.209
71026W        W41626  43.532  43.007   0.468
71027W        W41627  24.717   4.550  11.155
71028W        W41628  14.553  36.441   0.828
71029W        W41629   8.199  20.801  12.301
71030W        W41630  30.376  27.733  14.414
71031W        W41631  40.860  13.231   2.337
71032W        W41632  16.227  43.572   2.804
71033W        W41633  34.913  39.315   2.681
71034W        W41634  29.442  20.180  12.000
71035W        W41635  15.560  34.381   3.681
71036W        W41636  42.918  39.053  13.985
71037W        W41637   3.011  33.678   0.341
71038W        W41638  35.095  22.819  12.320
71039W        W41639   7.136  24.628   0.765
71040W        W41640   9.653  23.063   4.615
71041W        W41641  17.667  30.102  11.954
71042W        W41642  24.601  33.679   1.263
71043W        W41643  39.591  43.555   1.437
71044W        W41644   0.571   5.505   2.189
71045W        W41645  11.715  34.062  11.652
71046W        W41646  25.561  22.542  11.714
71047W        W41647  32.173   2.459   0.210
71048W        W41648  14.876  43.440   1.233
71049W        W41649   2.765   7.669  14.789
71050W        W41650  30.920  19.570   0.976
71051W        W41651  31.850  33.365   1.986
71052W        W41652  43.036  28.573  13.015
71053W        W41653  12.068  22.589   4.634
71054W        W41654  34.083   8.721   2.700
71055W        W41655  16.632   5.993  14.803
71056W        W41656  14.648  42.187  12.075
71057W        W41657   4.942   0.128  11.097
71058W        W41658  19.938   6.696   1.998
71059W        W41659  30.283  42.434  13.117
71060W        W41660   2.961  37.029   3.187
71061W        W41661  23.704  25.998   2.756
71062W        W41662  32.234  31.201  12.786
71063W        W41663  12.889  44.440   3.341
71064W        W41664  37.970  43.517  14.439
71065W        W41665   3.253  31.087  10.398
71066W        W41666   4.136  18.568   3.931
71067W        W41667  17.537  21.407  11.633
71068W        W41668  33.754  26.145   1.777
71069W        W41669   5.147  44.162   1.813
71070W        W41670   7.757  11.634   3.200
71071W        W41671  32.718  23.545  12.504
71072W        W41672  27.059  26.592   0.264
71073W        W41673  36.592  37.068   1.958
71074W        W41674  29.643  31.035   1.917
71075W        W41675  12.725   2.756   0.483
71076W        W41676  10.966   8.573   0.151
71077W        W41677  23.550  31.479   0.589
71078W        W41678  26.046  22.754  11.615
71079W        W41679  43.304  23.495   4.663
71080W        W41680   8.208  13.357   1.822
71081W        W41681  13.686  24.647   2.724
71082W        W41682  13.314   7.681   2.758
71083W        W41683  31.360   2.822  13.123
71084W        W41684   1.753  21.832   1.541
71085W        W41685   5.140  11.154   4.641
71086W        W41686   6.098  17.323   0.913
71087W        W41687  13.331  41.880  11.790
71088W        W41688  44.984  23.452  11.931
71089W        W41689  25.334  29.538  13.959
71090W        W41690  17.244  18.584   4.346
71091W        W41691  33.255  20.934  12.071
71092W        W41692   4.238   7.767   4.458
71093W        W41693   2.874  32.555   2.778
71094W        W41694  36.995  41.629   0.101
71095W        W41695  38.997   8.823   3.478
71096W        W41696  38.516  16.076  12.510
71097W        W41697   4.331  10.801  11.522
71098W        W41698   7.854  16.248  14.512
71099W        W41699  13.844   1.472   4.084
71100W        W41700  41.739  11.474  11.158
71101W        W41701  26.749   9.193  13.084
71102W        W41702  23.546   2.461  14.028
71103W        W41703  19.624  41.317  11.564
71104W        W41704  16.241  36.094  14.774
71105W        W41705  22.580  35.569   2.814
71106W        W41706  44.201  42.362   3.860
71107W        W41707  11.206  14.667   0.410
71108W        W41708   8.753  24.033  12.852
71109W        W41709  36.856  31.997  13.150
71110W        W41710   3.708   4.848  13.369
71111W        W41711   7.960   8.724   0.812
71112W        W41712   7.305  25.310  12.907
71113W        W41713  40.947  22.301   3.823
71114W        W41714  27.691  31.970  13.520
71115W        W41715  12.635  23.152  12.168
71116W        W41716  27.980  33.390   1.986
71117W        W41717  28.222  29.373   2.970
71118W        W41718  19.034  21.182   0.242
71119W        W41719  42.897  27.406  10.725
71120W        W41720  23.962  12.338   2.329
71121W        W41721  19.051   6.188  13.911
71122W        W41722  39.061  31.931  10.026
71123W        W41723  22.290  24.106  13.136
71124W        W41724  18.603  14.749  10.874
71125W        W41725   2.905   5.956   3.806
71126W        W41726  29.025  37.582   0.509
71127W        W41727  36.562  16.210   4.721
71128W        W41728  27.971  26.002   2.289
71129W        W41729  44.880  29.916   3.349
71130W        W41730   6.147  20.261   0.359
71131W        W41731   9.863   7.629   3.643
71132W        W41732  22.400  22.135   1.897
71133W        W41733   8.545  16.111   4.404
71134W        W41734  34.845  36.414  13.136
71135W        W41735  14.383   1.876  13.453
71136W        W41736  22.923  22.068  11.707
71137W        W41737  18.675  24.158   3.655
71138W        W41738  25.795  38.507   0.778
71139W        W41739  19.042  34.345  14.565
71140W        W41740  40.530   1.654   2.222
71141W        W41741  30.768  32.196  12.316
71142W        W41742  27.036  40.119  11.952
71143W        W41743  11.794  44.398   3.115
71144W        W41744  12.292  35.085  11.434
71145W        W41745  24.252  21.208  13.482
71146W        W41746  17.450  40.998  12.182
71147W        W41747  23.535  18.500  10.609
71148W        W41748  12.839  27.037   0.373
71149W        W41749  35.534   0.205  11.663
71150W        W41750  17.297  40.493  12.379
71151W        W41751   5.433   1.678  11.201
71152W        W41752  10.519  28.074  11.121
71153W        W41753   9.344  42.001   2.879
71154W        W41754  35.963  33.904  14.231
71155W        W41755   0.888  29.680  13.236
71156W        W41756   3.749  25.173  14.049
71157W        W41757  37.800  41.288  11.513
71158W        W41758  19.639   1.318  14.090
71159W        W41759  17.643  13.053   4.745
71160W        W41760  44.520  23.588   3.673
71161W        W41761  42.834  30.329   2.457
71162W        W41762   6.554  28.456  11.577
71163W        W41763  22.497  37.544   4.518
71164W        W41764  17.202  13.168  11.458
71165W        W41765  11.368  16.725   3.403
71166W        W41766   3.295  11.360   1.286
71167W        W41767  13.269  17.849   1.781
71168W        W41768  13.394  24.163  14.324
71169W        W41769  37.085  13.536  14.401
71170W        W41770  29.540   7.677   1.711
71171W        W41771  39.920  31.110   4.772
71172W        W41772  27.616  22.573  11.217
71173W        W41773   1.411   4.829   1.809
71174W        W41774  17.655  18.150  11.080
71175W        W41775  13.179   3.766  11.485
71176W        W41776  35.307  18.157  11.275
71177W        W41777   7.799   9.752  12.384
71178W        W41778  13.817  15.331   0.357
71179W        W41779  16.858   3.213   2.857
71180W        W41780  30.772  38.017  14.515
71181W        W41781  42.246   3.002   3.202
71182W        W41782  14.474  13.005   1.817
71183W        W41783  33.489  34.612  12.964
71184W        W41784   1.323   4.872   4.830
71185W        W41785   1.283  35.485   0.434
71186W        W41786  24.600  41.372   1.641
71187W        W41787  39.208  31.853  13.954
71188W        W41788  41.529  24.223  13.049
71189W        W41789  13.628  38.353  11.935
71190W        W41790  33.005  41.227   1.303
71191W        W41791  36.570   6.177  12.220
71192W        W41792  29.988  37.486   0.921
71193W        W41793  12.707  12.385   2.372
71194W        W41794  27.042  44.846  14.815
71195W        W41795  12.131  14.807   2.163
71196W        W41796  27.467  35.373  11.864
71197W        W41797  35.413  33.471  12.438
71198W        W41798   1.854  17.614   0.776
71199W        W41799  29.732  30.568  10.288
71200W        W41800   6.887  29.160   1.458
71201W        W41801  27.208  39.507   1.149
71202W        W41802   7.400   7.418  10.698
71203W        W41803   0.765  30.662  14.810
71204W        W41804  28.121  43.531  10.893
71205W        W41805   1.291  12.195   4.204
71206W        W41806  30.652  10.153  14.867
71207W        W41807  31.880  31.981   4.299
71208W        W41808  35.541   5.970   0.344
71209W        W41809  27.249  15.772   2.482
71210W        W41810  13.441  35.298  11.054
71211W        W41811  32.628  21.209  11.279
71212W        W41812  34.283  43.959   1.903
71213W        W41813  10.229  14.424  14.440
71214W        W41814  28.082  34.972  13.700
71215W        W41815  20.535  37.330  12.491
71216W        W41816  19.702  38.275   4.220
71217W        W41817  42.848  12.326  12.352
71218W        W41818  25.970  21.950   2.845
71219W        W41819  39.800  30.211  10.996
71220W        W41820  11.584   4.942   3.563
71221W        W41821  34.003  20.077  10.815
71222W        W41822  20.529   1.469   2.668
71223W        W41823   5.995   5.370  11.946
71224W        W41824  18.105  16.346   3.384
71225W        W41825  17.181  36.843  11.432
71226W        W41826  41.113  38.614  12.125
71227W        W41827  21.094   0.801   0.382
71228W        W41828   5.142  34.345   1.010
71229W        W41829   5.486  37.555   4.155
71230W        W41830  35.354  28.306   3.299
71231W        W41831   4.558   9.596  14.183
71232W        W41832  20.392  39.869   4.932
71233W        W41833  20.225  17.689  13.801
71234W        W41834  25.184  28.578   3.647
71235W        W41835  35.845  36.885   4.305
71236W        W41836  10.797  27.376  13.038
71237W        W41837  44.329  39.223  14.534
71238W        W41838  35.428   4.003   1.339
71239W        W41839  22.312  43.267   1.533
71240W        W41840  35.288  14.608  11.450
71241W        W41841  10.519  19.249  11.004
71242W        W41842   5.305  22.077   2.396
71243W        W41843  30.513  21.520   4.159
71244W        W41844  33.851  18.503   4.338
71245W        W41845  14.644  24.763  11.621
71246W        W41846  44.948  23.082   2.800
71247W        W41847  14.818  12.305  12.561
71248W        W41848  13.683  34.099  13.089
71249W        W41849   0.449   1.213   3.712
71250W        W41850   1.999  11.878  12.051
71251W        W41851  32.920   8.909   4.617
71252W        W41852  27.181  31.876   2.052
71253W        W41853   3.600  34.608   4.610
71254W        W41854  22.601  14.693   3.755
71255W        W41855  26.079  27.142   1.319
71256W        W41856  39.511   9.644   4.379
71257W        W41857  25.413   9.445  10.236
71258W        W41858   6.300  20.777   4.061
71259W        W41859  43.558   2.915  10.277
71260W        W41860  37.310  34.059  13.805
71261W        W41861  30.468  29.952  10.618
71262W        W41862  12.152  44.714   2.852
71263W        W41863  15.532  39.283   2.217
71264W        W41864  44.785  34.227   3.117
71265W        W41865  23.306  25.145  12.034
71266W        W41866  37.183  36.292  11.615
71267W        W41867  22.738  22.051   4.522
71268W        W41868  25.538   6.832   4.502
71269W        W41869  39.771  44.968  13.271
71270W        W41870  37.379  34.115  12.351
71271W        W41871   4.730  36.640   2.654
71272W        W41872  19.436   5.363   0.746
71273W        W41873  42.011  20.314   2.683
71274W        W41874   7.803   9.315   3.839
71275W        W41875   8.809  41.321  11.062
71276W        W41876  43.046  40.774   0.314
71277W        W41877  40.540  16.762   2.786
71278W        W41878   9.171  25.776  14.375
71279W        W41879   5.777  15.113  12.911
71280W        W41880  14.284  25.290  13.776
71281W        W41881  12.186  21.974   2.423
71282W        W41882  17.130  19.818   1.877
71283W        W41883   9.634  43.303   1.235
71284W        W41884   7.911  37.186   3.175
71285W        W41885  28.825  27.204  13.836
71286W        W41886  35.456  43.938  14.702
71287W        W41887  22.604  17.232   0.862
71288W        W41888   0.887   6.889  12.975
71289W        W41889   8.921  19.047   0.379
71290W        W41890  38.378  29.663  12.976
71291W        W41891   7.470  43.839   1.203
71292W        W41892  27.944   1.068  11.206
71293W        W41893  20.643  40.466  14.482
71294W        W41894   3.404  22.365   0.050
71295W        W41895  18.552  28.062  12.875
71296W        W41896  36.561   6.566   3.759
71297W        W41897  30.651  29.252   1.925
71298W        W41898   5.797   3.120  12.868
71299W        W41899   3.214  37.112   2.342
71300W        W41900  25.115  10.885   3.473
71301W        W41901   4.392   8.981   2.422
71302W        W41902  39.965   7.463   2.787
71303W        W41903  21.953  41.048   4.128
71304W        W41904   2.746  29.971   3.731
71305W        W41905   0.366  16.190   3.128
71306W        W41906  44.342  41.798   3.998
71307W        W41907  32.874  15.806   4.858
71308W        W41908  11.784  40.994  13.333
71309W        W41909   0.181  21.787  13.747
71310W        W41910   1.240  13.815   3.714
71311W        W41911  18.781  22.178   3.812
71312W        W41912  41.441  27.270  14.004
71313W        W41913   7.766  26.947  14.958
71314W        W41914  23.914  22.621  11.089
71315W        W41915  36.804  29.604  14.436
71316W        W41916  10.604   2.357   5.302
71317W        W41917  30.378   3.270  14.226
71318W        W41918  26.665  29.106   0.359
71319W        W41919  33.607  24.455  11.938
71320W        W41920  39.947  29.538   1.469
71321W        W41921  19.758  29.932  10.769
71322W        W41922   4.275  30.456   3.657
71323W        W41923   5.296  14.359   4.552
71324W        W41924  32.179  15.093  13.944
71325W        W41925  42.693  29.364   2.225
71326W        W41926   8.296   9.362   3.669
71327W        W41927  35.108  24.755   1.401
71328W        W41928   5.473  28.890  13.421
71329W        W41929  36.072  26.224   0.460
71330W        W41930  19.536   7.901  10.628
71331W        W41931  28.133  21.270  11.093
71332W        W41932   1.137  43.304   2.870
71333W        W41933   5.345  31.154   2.818
71334W        W41934  43.511  10.389  12.368
71335W        W41935  25.138  30.741   0.340
71336W        W41936  40.831  27.709   2.830
71337W        W41937  32.627   9.834   2.667
71338W        W41938  39.106  25.516  14.381
71339W        W41939  22.660  32.526  13.581
71340W        W41940  28.833  43.422   2.039
71341W        W41941  34.107  15.175  12.476
71342W        W41942   5.191  37.836  12.522
71343W        W41943  30.701   0.889  11.349
71344W        W41944  21.692  28.501  13.235
71345W        W41945   3.240   6.824  13.379
71346W        W41946  28.987   7.177   1.016
71347W        W41947   5.681   2.858  13.305
71348W        W41948  28.523  28.707   3.745
71349W        W41949  19.817   1.356  13.608
71350W        W41950  27.170  24.638  11.654
71351W        W41951   5.613  31.123  10.754
71352W        W41952   2.273  20.015  14.536
71353W        W41953  22.069  32.370  11.214
71354W        W41954   4.436  11.217  14.699
71355W        W41955   2.277  25.433  14.497
71356W        W41956  43.133  31.100  13.394
71357W        W41957  25.026  15.240  14.577
71358W        W41958  15.958  22.690   0.948
71359W        W41959  23.599   3.966  11.592
71360W        W41960   7.452  36.572  13.418
71361W        W41961  32.891   1.922   2.775
71362W        W41962  24.715  20.135  12.987
71363W        W41963  19.564  15.798   4.196
71364W        W41964  33.947  25.249   0.378
71365W        W41965  21.143  35.377  13.833
71366W        W41966  31.349  13.574   1.320
71367W        W41967   8.327   1.039   2.639
71368W        W41968  32.471  25.353   3.305
71369W        W41969   2.954  42.275   3.293
71370W        W41970  19.287  22.570  11.529
71371W        W41971   2.430  18.571  14.015
71372W        W41972  44.703  10.094   1.326
71373W        W41973  40.764  19.367  13.314
71374W        W41974  23.718  21.184  12.429
71375W        W41975  22.474  27.246   0.516
71376W        W41976  28.419  30.732  12.097
71377W        W41977  21.154  34.491   4.752
71378W        W41978   3.348   5.182  14.771
71379W        W41979  17.437  36.484  13.432
71380W        W41980  10.635   7.310  11.492
71381W        W41981  14.560  32.941   2.221
71382W        W41982  37.328  14.930   2.465
71383W        W41983   4.223  43.743   4.624
71384W        W41984   6.922  44.198   0.439
71385W        W41985  44.313  25.258  10.634
71386W        W41986  26.902  40.500   0.662
71387W        W41987  37.131   8.271   2.153
71388W        W41988  13.323  27.174   0.686
71389W        W41989  18.128  14.375   0.508
71390W        W41990   5.946  28.226   0.124
71391W        W41991  23.780  40.572  13.080
71392W        W41992   8.622  14.180  14.504
71393W        W41993  22.078  20.788   3.388
71394W        W41994  28.743  22.162  12.349
71395W        W41995  20.762  26.965  11.982
71396W        W41996   0.966  20.056   2.907
71397W        W41997  18.190  23.558  13.882
71398W        W41998  37.080  37.935   0.310
71399W        W41999  21.286   0.840   1.437
71400W        W42000  42.593  23.611  11.426
71401W        W42001  33.004  34.775   1.929
71402W        W42002  14.767   7.259   4.601
71403W        W42003  22.506   2.411  11.122
71404W        W42004  33.565   7.764   3.787
71405W        W42005  15.762  19.219   1.863
71406W        W42006  44.814  37.548   3.204
71407W        W42007  18.138  12.061   2.829
71408W        W42008   3.272  27.820   2.329
71409W        W42009  39.042  20.810   3.837
71410W        W42010   7.324  26.058  11.519
71411W        W42011  43.773  11.968  14.879
71412W        W42012  31.929   8.563   0.308
71413W        W42013  41.031  11.174  12.892
71414W        W42014  32.424  43.260   4.064
71415W        W42015  15.212  29.240  13.094
71416W        W42016  44.104  34.107  12.872
71417W        W42017  11.503  19.805  12.539
71418W        W42018  12.336  44.638   4.146
71419W        W42019   2.001  22.221   3.575
71420W        W42020  26.696   8.455  10.671
71421W        W42021  23.250  37.404   0.522
71422W        W42022  10.742  21.035   0.701
71423W        W42023   1.225  31.404  11.094
71424W        W42024  13.282   4.168   2.815
71425W        W42025  43.725  38.515   2.235
71426W        W42026  11.647  20.011  12.060
71427W        W42027  18.900  42.748   1.478
71428W        W42028  22.235  10.954  11.179
71429W        W42029  42.493  17.842   2.962
71430W        W42030   2.312   4.056  11.945
71431W        W42031   5.723   4.250  11.523
71432W        W42032  36.009   3.620  14.436
71433W        W42033  30.709  38.406  10.607
71434W        W42034  40.383  44.537   4.571
71435W        W42035   5.435  37.971  13.248
71436W        W42036  12.343  35.376   4.151
71437W        W42037   7.972  27.924  13.312
71438W        W42038  12.178   8.146   0.790
71439W        W42039  37.645  23.975  11.546
71440W        W42040   9.683  43.961   0.932
71441W        W42041  25.304  26.175   3.664
71442W        W42042  22.993  32.012  10.654
71443W        W42043  21.561   9.403   4.619
71444W        W42044   9.613   5.609   1.923
71445W        W42045  17.178  21.499  14.347
71446W        W42046  37.111  24.135   2.862
71447W        W42047  39.524  17.115  11.948
71448W        W42048  38.727   5.686   1.089
71449W        W42049  19.167   5.445  14.334
71450W        W42050  40.883  21.568   4.134
71451W        W42051  24.538  22.159  12.573
71452W        W42052  23.123   1.028   1.340
71453W        W42053   1.214  21.003  14.721
71454W        W42054  32.886  30.026  11.527
71455W        W42055  16.616  16.267   2.285
71456W        W42056  25.329  17.782  10.694
71457W        W42057  12.591  24.575   1.789
71458W        W42058  31.959  39.944  12.501
71459W        W42059  43.959  43.700  11.920
71460W        W42060  31.969  19.584   0.713
71461W        W42061  10.040   0.829  14.458
71462W        W42062  16.389  14.402   0.487
71463W        W42063  18.627   5.536   0.183
71464W        W42064  43.948  40.518  12.487
71465W        W42065  17.860  26.872  13.213
71466W        W42066  32.606  23.183  14.856
71467W        W42067  17.259   7.149   3.611
71468W        W42068  19.358  19.126   3.635
71469W        W42069  29.914  27.600   0.817
71470W        W42070  44.505  37.556  11.192
71471W        W42071  20.188  44.952  10.852
71472W        W42072  11.381  35.844  12.527
71473W        W42073  35.437  43.780  10.662
71474W        W42074  24.407  19.679  12.916
71475W        W42075  34.228  43.098   1.784
71476W        W42076  15.282  35.394   1.364
71477W        W42077  33.860  35.289  13.977
71478W        W42078  27.058   2.828  11.707
71479W        W42079  26.765  39.409   3.419
71480W        W42080  35.289  16.863  11.397
71481W        W42081  15.549   3.645   4.772
71482W        W42082  20.203  36.114  11.792
71483W        W42083  35.526  27.530  12.559
71484W        W42084  18.468  26.975   2.266
71485W        W42085   9.393  26.021   0.028
71486W        W42086   3.474  21.752   0.924
71487W        W42087  14.652  44.329  11.614
71488W        W42088   3.322  27.710  12.636
71489W        W42089  12.093  41.845  14.868
71490W        W42090  39.175  31.052   0.188
71491W        W42091  33.038  29.690  13.269
71492W        W42092   4.796  33.760  11.544
71493W        W42093  44.553  29.473   3.678
71494W        W42094  36.422  39.830   0.825
71495W        W42095  11.264   2.816   0.838
71496W        W42096   0.951   4.345   4.561
71497W        W42097  31.644  21.491   0.585
71498W        W42098  42.251  31.407   1.359
71499W        W42099  22.022  23.570   0.912
71500W        W42100  13.464  21.766  12.990
71501W        W42101  36.567  43.558  11.582
71502W        W42102   3.344  26.142  11.573
71503W        W42103  24.319   5.609  13.815
71504W        W42104  33.075  31.538  13.037
71505W        W42105   5.954  21.153  13.460
71506W        W42106  23.897   2.278   3.612
71507W        W42107  18.724   3.075   4.935
71508W        W42108  17.461  33.566   0.326
71509W        W42109  38.533  18.769   0.380
71510W        W42110   0.914  36.925  11.981
71511W        W42111   2.300  13.565   2.343
71512W        W42112  24.389   7.763  12.668
71513W        W42113  26.041   1.552   0.403
71514W        W42114  23.471  42.358  11.223
71515W        W42115   3.220  28.235  11.728
71516W        W42116  25.170  44.102   4.878
71517W        W42117   7.434  42.820  11.777
71518W        W42118  12.219   0.551  14.015
71519W        W42119   4.702  30.592  10.264
71520W        W42120  43.420  12.172  11.242
71521W        W42121   6.811  37.468  14.163
71522W        W42122  43.219  17.123  11.539
71523W        W42123  25.027  19.192  11.217
71524W        W42124   1.905  42.875  14.716
71525W        W42125  42.836  10.895   0.502
71526W        W42126  16.023  18.395  14.900
71527W        W42127   0.501  27.446  12.347
71528W        W42128  39.547  32.156  10.035
71529W        W42129  17.735   9.236  14.499
71530W        W42130   0.987  10.053  14.823
71531W        W42131  34.968  13.628  13.928
71532W        W42132   0.508  23.077  11.620
71533W        W42133  24.547  43.030   3.419
71534W        W42134   1.203  24.146  12.087
71535W        W42135  10.209   8.493   0.288
71536W        W42136   8.100   2.924  11.392
71537W        W42137  32.668   7.372   1.177
71538W        W42138  33.153  39.528   9.901
71539W        W42139  22.543  41.380  13.451
71540W        W42140  38.065  32.793  13.914
71541W        W42141  28.995  22.794  13.550
71542W        W42142  30.876  27.632  14.331
71543W        W42143   0.374  11.239   0.804
71544W        W42144  21.474   9.615   4.110
71545W        W42145  32.936   8.321  14.785
71546W        W42146  28.715  41.852  11.925
71547W        W42147  41.428  15.620  13.584
71548W        W42148  29.922  34.105   2.600
71549W        W42149  42.530  37.548  14.627
71550W        W42150  36.002  14.459   4.777
71551W        W42151  44.734  18.132  11.605
71552W        W42152  18.717  29.898  11.140
71553W        W42153   7.955   0.006  13.822
71554W        W42154  44.660   2.678   0.475
71555W        W42155  10.284  31.622  14.980
71556W        W42156  22.187   7.767   3.232
71557W        W42157   3.711  43.888   4.536
71558W        W42158  10.182  17.192   3.624
71559W        W42159  41.950  44.022  14.931
71560W        W42160  38.620  22.790  14.518
71561W        W42161  42.131  34.472  12.575
71562W        W42162  39.490   9.465  12.513
71563W        W42163  34.100  12.054  11.049
71564W        W42164  43.989  31.412  13.563
71565W        W42165  16.633  16.527   1.835
71566W        W42166  19.756   2.325  11.664
71567W        W42167  18.015  27.714   4.423
71568W        W42168  22.321   0.061  12.931
71569W        W42169  37.136   5.739  10.458
71570W        W42170  36.288  42.903   1.716
71571W        W42171   7.889  21.521  11.155
71572W        W42172  33.839  26.237   0.603
71573W        W42173  43.331  13.843   0.961
71574W        W42174  36.230  27.926   1.218
71575W        W42175  21.490  25.539   1.826
71576W        W42176   1.235   1.858   1.627
71577W        W42177   2.244  40.059  11.276
71578W        W42178   4.594   3.154  11.890
71579W        W42179  38.617  28.790  11.340
71580W        W42180  22.087  17.901  13.288
71581W        W42181  21.680  37.447  13.563
71582W        W42182  17.474   0.974  12.522
71583W        W42183  43.240  22.854   2.586
71584W        W42184  24.768  22.793  13.362
71585W        W42185  20.495  28.970   1.923
71586W        W42186  42.861  44.375   3.192
71587W        W42187  16.971  26.770   0.033
71588W        W42188  17.291  15.025   3.606
71589W        W42189   1.771  44.659  10.494
71590W        W42190  22.554   6.137  11.534
71591W        W42191  33.660   2.862   1.892
71592W        W42192  34.169  33.093   2.160
71593W        W42193  33.929  36.231   4.531
71594W        W42194   1.402  26.418   1.710
71595W        W42195  11.236  30.451   1.156
71596W        W42196   8.775   7.004   0.949
71597W        W42197  27.160  21.422  11.045
71598W        W42198  15.852  28.081   2.334
71599W        W42199  33.925   9.406   4.623
71600W        W42200  44.919  21.966  12.062
71601W        W42201   6.413   5.672   3.305
71602W        W42202  24.782  42.061   2.875
71603W        W42203  17.468  17.622   2.071
71604W        W42204  44.483   7.678   3.871
71605W        W42205  42.787  17.428  13.511
71606W        W42206   5.929  27.755  14.905
71607W        W42207   4.067   8.249   0.851
71608W        W42208  39.307  26.977   0.365
71609W        W42209   7.689  30.430  13.674
71610W        W42210  16.870  38.816   1.319
71611W        W42211   6.860  37.334   4.424
71612W        W42212   1.043  23.205  10.977
71613W        W42213   2.995   3.475  12.857
71614W        W42214   3.776  28.913  11.417
71615W        W42215  29.192  15.829  12.108
71616W        W42216  10.735  34.425   0.786
71617W        W42217   4.534   9.590   5.271
71618W        W42218  18.210  24.973  13.939
71619W        W42219   5.785   1.937   4.554
71620W        W42220  28.100  40.525  11.650
71621W        W42221  39.910  20.685   4.093
71622W        W42222  25.663  28.198   4.168
71623W        W42223   7.711  36.704   3.145
71624W        W42224  11.650  41.912  13.598
71625W        W42225  30.893  33.433  11.410
71626W        W42226   1.848   6.282  14.358
71627W        W42227  28.711  25.687  11.521
71628W        W42228  20.012  13.722  10.754
71629W        W42229  18.986  11.919  11.283
71630W        W42230  30.139   3.040   3.428
71631W        W42231  26.467  38.514  14.399
71632W        W42232  31.714  26.996   3.758
71633W        W42233  23.201  14.285   1.286
71634W        W42234   4.374   0.051  13.532
71635W        W42235  43.977   9.277   1.949
71636W        W42236  21.137  26.737   3.277
71637W        W42237   3.210  28.786  12.445
71638W        W42238  32.629  37.646   2.294
71639W        W42239  14.264   5.966  11.905
71640W        W42240  41.029   0.542  14.423
71641W        W42241  32.615  15.802   0.783
71642W        W42242   6.688  26.427   4.137
71643W        W42243  25.954  12.908  14.194
71644W        W42244  34.969  23.141   2.391
71645W        W42245  31.467   0.243  11.171
71646W        W42246  20.578  15.167   1.201
71647W        W42247  24.643  13.115  10.981
71648W        W42248   4.023   4.439  13.391
71649W        W42249  43.233   8.858  12.566
71650W        W42250  29.484  15.654   4.372
71651W        W42251  19.855  42.006  11.754
71652W        W42252   4.523  23.789   4.167
71653W        W42253   2.769  41.581  14.792
71654W        W42254  27.441  10.194   2.749
71655W        W42255   6.118  31.815   5.165
71656W        W42256  19.758  22.207   2.644
71657W        W42257  34.932   4.803   3.836
71658W        W42258   8.399   4.724  11.170
71659W        W42259  24.598  40.423  11.195
71660W        W42260   6.057   1.331  11.667
71661W        W42261   9.443  20.500  11.604
71662W        W42262  24.225  35.435  13.349
71663W        W42263  39.854   5.946  14.976
71664W        W42264  10.488  32.059  13.553
71665W        W42265  17.828  22.228  12.942
71666W        W42266  15.635   9.742   0.500
71667W        W42267  43.410  39.228  14.882
71668W        W42268  32.080  14.640  10.701
71669W        W42269   5.693   4.200  13.834
71670W        W42270  14.602  41.287   2.816
71671W        W42271  13.898  14.414  14.034
71672W        W42272  29.055  41.694  11.146
71673W        W42273  20.318  17.193  13.938
71674W        W42274  29.951  29.688  12.187
71675W        W42275   4.318  22.551  12.054
71676W        W42276  34.805  44.792  13.687
71677W        W42277  44.906  37.532   4.100
71678W        W42278  28.253  20.800   1.216
71679W        W42279  33.857  22.098   4.065
71680W        W42280  24.220  28.890  13.490
71681W        W42281  25.033  10.329  14.812
71682W        W42282  10.728  32.489  11.541
71683W        W42283  20.799  23.095  11.902
71684W        W42284  11.602  29.264  14.355
71685W        W42285  40.489   4.025   1.274
71686W        W42286  26.262  33.547   2.715
71687W        W42287  20.650  37.064  10.489
71688W        W42288  42.357  36.325  14.596
71689W        W42289   1.780   8.660   3.295
71690W        W42290   9.185  25.131   0.460
71691W        W42291  12.607  17.633  13.955
71692W        W42292  15.489  11.327  12.063
71693W        W42293  39.508  26.576   1.814
71694W        W42294  33.430  11.426   1.942
71695W        W42295   8.284  13.196   0.446
71696W        W42296  24.494  30.973   0.372
71697W        W42297   9.580  28.214   3.641
71698W        W42298   5.870  43.517   4.149
71699W        W42299   0.983  33.610   1.016
71700W        W42300  44.788  11.482   1.374
71701W        W42301  35.367  10.471   2.356
71702W        W42302  30.722   5.264   4.656
71703W        W42303  39.506  43.702   2.890
71704W        W42304  11.019  40.708  14.354
71705W        W42305  40.496  26.362  14.159
71706W        W42306  35.901  25.453  11.145
71707W        W42307   2.014  21.680  12.555
71708W        W42308  18.049   8.140   1.785
71709W        W42309  33.100   8.793  11.174
71710W        W42310   1.917  15.653  14.785
71711W        W42311  38.599  44.312   2.036
71712W        W42312  18.215  37.650   2.120
71713W        W42313  41.796  31.913   0.765
71714W        W42314  25.630  34.427   2.138
71715W        W42315  36.039  25.640   4.073
71716W        W42316   5.880  41.816   1.848
71717W        W42317  31.155  21.314   1.356
71718W        W42318  13.440   0.190   2.899
71719W        W42319  30.244  26.695   2.335
71720W        W42320  28.951  28.229  13.793
71721W        W42321  29.715  41.985   3.103
71722W        W42322  20.531  20.037  10.458
71723W        W42323  32.460  36.121   1.234
71724W        W42324  21.140   9.875   3.163
71725W        W42325  37.851  34.897   0.522
71726W        W42326  24.893  42.841   2.698
71727W        W42327  24.513  34.479   3.449
71728W        W42328   0.950  36.908   4.385
71729W        W42329  33.673  32.102  10.751
71730W        W42330  35.527  27.003   2.152
71731W        W42331   8.640   7.038  12.457
71732W        W42332   2.468  36.856   3.318
71733W        W42333   8.956  21.663  11.117
71734W        W42334  40.045   9.345   2.228
71735W        W42335  28.554  37.166  13.665
71736W        W42336  19.823   8.239  13.524
71737W        W42337  22.795  10.607   4.641
71738W        W42338  23.752  28.191   2.169
71739W        W42339  34.715  38.220   4.642
71740W        W42340  28.915  28.674   3.160
71741W        W42341  19.325  15.247   4.654
71742W        W42342  20.189  23.467   4.560
71743W        W42343  22.046  44.313   3.180
71744W        W42344  15.667   3.923   4.347
71745W        W42345  26.018  42.236   2.191
71746W        W42346  14.500  11.710   4.549
71747W        W42347   3.417  31.145  14.334
71748W        W42348   1.397  43.685  11.917
71749W        W42349   2.819  23.234  12.113
71750W        W42350  24.956  42.290  13.108
71751W        W42351  27.903  34.452   1.240
71752W        W42352  43.180   1.166   0.838
71753W        W42353   4.867  24.892  13.157
71754W        W42354  25.426  32.038  10.688
71755W        W42355   8.789  29.827  11.098
71756W        W42356  22.548   0.996   4.524
71757W        W42357  11.182  10.885  11.395
71758W        W42358  41.963   3.174   2.753
71759W        W42359  17.047  23.462   0.509
71760W        W42360  40.069   9.651   0.990
71761W        W42361  37.763  30.649   2.856
71762W        W42362  40.896   7.472   0.833
71763W        W42363  35.174  14.785  14.331
71764W        W42364  40.283   1.884   4.710
71765W        W42365  36.891  37.255   0.890
71766W        W42366  17.611  30.149  12.820
71767W        W42367   9.381  37.098  14.363
71768W        W42368  38.441  40.252   2.505
71769W        W42369  26.555  35.559   1.172
71770W        W42370   4.210   4.660   1.831
71771W        W42371  29.151   6.383   1.875
71772W        W42372  25.871  11.290  12.060
71773W        W42373   8.601  38.881   2.275
71774W        W42374  10.829  22.155  12.069
71775W        W42375   7.233   9.168   1.965
71776W        W42376   6.757   7.257  11.173
71777W        W42377  22.989  40.291  11.407
71778W        W42378  35.539   4.256   2.235
71779W        W42379  42.974  41.468  12.979
71780W        W42380  40.098  32.413   0.846
71781W        W42381  32.513  43.448   1.680
71782W        W42382  21.998  41.551  14.175
71783W        W42383  24.637  25.471   2.149
71784W        W42384  34.503  30.068  14.293
71785W        W42385  17.745  16.090   0.648
71786W        W42386  12.912  35.382  12.024
71787W        W42387  30.984  25.029   0.765
71788W        W42388  36.331  17.960   1.402
71789W        W42389  44.223   4.701  11.988
71790W        W42390  43.981  34.783  14.339
71791W        W42391  19.595  23.831  12.081
71792W        W42392   2.316  39.400  11.560
71793W        W42393  40.429  12.556   0.392
71794W        W42394  37.288  25.614   2.331
71795W        W42395  18.694   6.775  12.347
71796W        W42396   7.145  43.438   0.936
71797W        W42397  28.110   3.078  12.538
71798W        W42398   1.461  24.212  14.839
71799W        W42399   0.423   7.296  14.258
71800W        W42400  24.038  43.143  14.309
71801W        W42401  32.033  42.743   0.287
71802W        W42402  38.426  31.119  11.362
71803W        W42403  25.700  11.722  14.799
71804W        W42404  34.042   1.888  13.360
71805W        W42405  25.112  27.054  11.119
71806W        W42406  21.344   9.149  11.890
71807W        W42407  27.956  24.842   0.265
71808W        W42408  21.540  18.254   4.982
71809W        W42409  16.375  13.897  11.575
71810W        W42410   5.700  15.816  14.596
71811W        W42411  44.095   7.306  10.995
71812W        W42412  43.305  14.037   4.557
71813W        W42413   6.175  18.681  12.544
71814W        W42414  41.424  39.386  10.416
71815W        W42415  27.351  28.901  14.809
71816W        W42416  30.155  31.883  10.669
71817W        W42417  33.834   0.580   3.848
71818W        W42418   2.564  16.347  10.426
71819W        W42419   1.314  27.259  11.453
71820W        W42420  13.583  37.656   0.483
71821W        W42421  37.638   9.844  12.017
71822W        W42422  40.417   2.457  12.598
71823W        W42423   9.655   4.059   1.760
71824W        W42424  22.132  31.075  14.548
71825W        W42425  11.736  16.048   3.146
71826W        W42426  14.013  28.590   1.923
71827W        W42427  23.634  26.889   1.804
71828W        W42428   3.765  30.230  14.582
71829W        W42429  28.063  39.636   1.663
71830W        W42430   9.660  12.111   3.964
71831W        W42431  43.358   0.984  14.877
71832W        W42432  18.763  44.192   3.714
71833W        W42433   0.585  39.348   1.854
71834W        W42434   1.404  27.876  14.723
71835W        W42435  27.839  42.816   1.972
71836W        W42436   6.975  43.145   3.840
71837W        W42437  36.882  29.206  14.853
71838W        W42438  39.545  12.073  12.843
71839W        W42439  16.848  42.470   2.993
71840W        W42440  27.182   3.689  12.126
71841W        W42441  18.486  22.260  12.411
71842W        W42442  39.642  37.505   2.729
71843W        W42443   7.261   1.209   1.888
71844W        W42444  42.966  33.712   1.957
71845W        W42445  40.054  41.276   0.352
71846W        W42446  11.037  11.345  11.634
71847W        W42447  32.670  39.622   2.874
71848W        W42448   7.397   3.753   3.506
71849W        W42449  17.596  34.881  10.371
71850W        W42450  22.642   8.659  12.973
71851W        W42451  43.827   7.728   0.986
71852W        W42452  22.548  17.175  13.386
71853W        W42453  29.942   0.447   2.507
71854W        W42454  37.795  30.027  13.968
71855W        W42455   7.894   3.940   2.962
71856W        W42456  43.017  38.538  11.627
71857W        W42457  29.191  19.375   5.151
71858W        W42458  40.324   3.322   2.641
71859W        W42459  10.088  20.381  10.434
71860W        W42460  31.537  17.480  11.558
71861W        W42461  16.956  11.845   2.755
71862W        W42462  26.110  33.672  11.588
71863W        W42463  21.011   0.157  10.362
71864W        W42464   9.879  42.804   4.125
71865W        W42465  18.575   8.242   4.447
71866W        W42466  12.157  20.988  11.310
71867W        W42467   0.717   6.672   3.688
71868W        W42468  41.206  26.227   0.680
71869W        W42469  37.387   5.272   4.785
71870W        W42470  41.128  29.459   4.756
71871W        W42471  11.277  20.174   4.574
71872W        W42472  44.858  35.395  11.432
71873W        W42473  26.239   5.243  11.628
71874W        W42474   1.291  34.773  12.814
71875W        W42475  37.073  40.970  14.499
71876W        W42476   7.977  44.957   3.368
71877W        W42477  39.036  31.532   2.864
71878W        W42478   2.861  27.585  10.911
71879W        W42479  19.798  41.477   0.197
71880W        W42480  12.251  25.278  10.570
71881W        W42481  39.806  35.804   1.247
71882W        W42482  23.794  28.487  14.442
71883W        W42483  20.176  18.652  13.869
71884W        W42484  23.349   4.537  11.166
71885W        W42485  11.905  17.663   0.222
71886W        W42486  18.596  11.812   2.892
71887W        W42487  14.673   5.944  14.860
71888W        W42488  36.658  10.643  13.009
71889W        W42489   3.163   0.481   1.425
71890W        W42490  42.752   2.951   3.252
71891W        W42491  22.156  29.759  11.551
71892W        W42492  44.837  34.160  13.560
71893W        W42493  18.648   6.180  11.507
71894W        W42494  41.392  40.318   1.009
71895W        W42495  38.331   5.394   1.822
71896W        W42496  21.577  42.347  11.932
71897W        W42497  30.422  25.574   0.015
71898W        W42498  31.137  15.761  10.755
71899W        W42499  18.770  31.902   1.845
71900W        W42500  44.534  14.248  11.688
71901W        W42501  19.839   8.843  11.454
71902W        W42502   5.805  28.404  14.257
71903W        W42503  21.792  31.974   2.100
71904W        W42504  30.433  40.532   3.542
71905W        W42505  19.228  19.876  13.507
71906W        W42506  21.812  20.227   1.159
71907W        W42507  14.686  38.425  13.416
71908W        W42508   1.813   9.310   0.717
71909W        W42509   1.295   8.411   3.352
71910W        W42510  23.024  27.205  12.481
71911W        W42511   6.484   6.205   2.210
71912W        W42512  12.560  10.734   1.419
71913W        W42513  28.921  37.044   3.386
71914W        W42514  42.542  33.666   2.268
71915W        W42515  10.065  18.528  11.151
71916W        W42516  38.008   3.454   4.804
71917W        W42517  16.773  33.990  12.128
71918W        W42518  40.265  16.495  11.028
71919W        W42519  40.577  41.357  10.239
71920W        W42520  36.539  28.165   2.941
71921W        W42521   3.447  14.832   1.387
71922W        W42522  10.674  44.673  13.570
71923W        W42523  26.168  14.182  12.864
71924W        W42524  30.844  33.453   4.799
71925W        W42525  43.621  26.149   0.850
71926W        W42526  31.920  26.945   0.883
71927W        W42527  23.254  27.179  14.902
71928W        W42528  15.145  41.113   2.871
71929W        W42529  42.726  37.839   1.290
71930W        W42530  24.648  16.333  14.422
71931W        W42531  39.428  24.416   4.487
71932W        W42532   8.378  31.428  11.562
71933W        W42533   3.771  31.805   3.689
71934W        W42534  42.760  28.910   1.968
71935W        W42535   9.637   0.950  14.138
71936W        W42536  40.051  22.992  12.835
71937W        W42537  18.727  31.667  14.793
71938W        W42538  23.982  23.637  14.078
71939W        W42539  32.528  11.481  13.740
71940W        W42540  37.566   6.485   3.337
71941W        W42541   5.174   6.918  13.835
71942W        W42542   4.385  21.984   2.336
71943W        W42543  41.602  25.625   2.866
71944W        W42544  31.474  43.821  11.147
71945W        W42545  31.161  40.754   2.539
71946W        W42546  33.350  34.288  10.759
71947W        W42547  22.493   1.955   2.578
71948W        W42548  31.660  31.497   3.188
71949W        W42549  33.812  25.055   2.167
71950W        W42550   6.463  29.156  10.633
71951W        W42551   6.479   3.440  13.771
71952W        W42552  42.603  15.986  14.364
71953W        W42553  10.876  20.025  10.592
71954W        W42554  31.146   9.197  14.957
71955W        W42555  42.887  17.857   3.717
71956W        W42556  12.352  28.031   4.059
71957W        W42557  22.258  15.843   0.797
71958W        W42558  19.893  14.347  14.896
71959W        W42559  42.968  27.204  13.281
71960W        W42560   1.875  13.448  12.018
71961W        W42561  35.392  41.288  14.369
71962W        W42562  12.217  19.041   0.292
71963W        W42563  27.286  31.837  13.832
71964W        W42564  40.289  40.004   1.784
71965W        W42565  15.318  43.424  12.575
71966W        W42566  35.383  18.077   0.053
71967W        W42567  23.012  40.877   2.600
71968W        W42568  17.084  21.857  13.052
71969W        W42569  24.934  37.890  10.759
71970W        W42570  23.274  37.858  14.268
71971W        W42571  20.277  29.091  10.907
71972W        W42572  23.015  18.547  10.577
71973W        W42573   4.115  33.861  10.229
71974W        W42574  20.512  16.218   1.724
71975W        W42575   7.826  28.212  12.931
71976W        W42576  35.727  19.710  13.288
71977W        W42577  32.041  41.536  14.465
71978W        W42578  28.919  41.048  12.906
71979W        W42579  40.279   2.902   4.690
71980W        W42580  19.971  22.103   4.933
71981W        W42581  33.892  15.530   1.836
71982W        W42582  38.342   6.697  10.735
71983W        W42583  38.660   6.802   2.658
71984W        W42584   4.165  12.263  11.573
71985W        W42585  26.229  15.118   2.690
71986W        W42586  15.371  18.518  11.561
71987W        W42587  42.530  26.977   4.370
71988W        W42588   7.926  21.330  10.369
71989W        W42589  44.984  29.612  14.397
71990W        W42590  33.073  44.425  13.888
71991W        W42591  31.230  27.969  14.506
71992W        W42592  14.142   1.325   3.617
71993W        W42593   1.891  25.623  12.132
71994W        W42594   1.091  20.230  14.904
71995W        W42595  41.921  36.676  12.093
71996W        W42596  29.567  14.523  14.490
71997W        W42597  31.989   0.576  14.360
71998W        W42598  26.218  18.225  14.800
71999W        W42599  28.139  36.106  14.885
72000W        W42600   9.250  43.250  13.865
72001W        W42601  36.603   7.110  12.071
72002W        W42602   7.116  16.096   1.420
72003W        W42603  42.366  39.338   3.666
72004W        W42604  36.473  26.242  12.925
72005W        W42605  30.724   5.109  13.050
72006W        W42606   1.203  41.327   0.414
72007W        W42607  40.142   7.924   4.262
72008W        W42608   3.433  34.401   4.160
72009W        W42609  44.932  26.253   3.220
72010W        W42610   2.886  36.325   3.921
72011W        W42611  27.549  38.785  11.123
72012W        W42612  26.783  19.636  12.549
72013W        W42613   3.355  30.118  11.917
72014W        W42614  32.667  13.811   4.516
72015W        W42615  28.050  20.851  11.848
72016W        W42616  14.777   7.908  12.509
72017W        W42617   4.593  12.311   0.741
72018W        W42618   6.937  17.169   4.047
72019W        W42619  38.546   0.261  13.757
72020W        W42620   2.529  22.504  13.411
72021W        W42621  32.310  14.609   3.940
72022W        W42622  39.060  30.995   1.484
72023W        W42623   9.780  17.381  11.647
72024W        W42624  13.296  23.264  14.441
72025W        W42625  35.089  11.808  12.648
72026W        W42626  18.652  19.306  14.665
72027W        W42627  35.648  26.575  12.256
72028W        W42628  20.876  35.446   1.430
72029W        W42629  27.580  25.414  14.318
72030W        W42630  43.070  40.259  12.684
72031W        W42631  20.674  11.434   0.355
72032W        W42632  20.617   4.720  10.945
72033W        W42633  31.117  11.148  10.577
72034W        W42634  34.835  27.759   3.775
72035W        W42635  39.033   9.756  14.470
72036W        W42636  38.843   0.395  14.599
72037W        W42637  39.004  41.071  14.419
72038W        W42638  41.198  39.231   2.826
72039W        W42639   8.903  29.163   1.277
72040W        W42640   6.161  32.075  12.449
72041W        W42641   8.251  32.492   0.962
72042W        W42642   1.700  40.024  14.023
72043W        W42643  14.637   2.280   2.207
72044W        W42644  32.192  20.496   0.884
72045W        W42645  18.151   8.677  14.769
72046W        W42646   6.247  20.717   3.566
72047W        W42647   4.917  28.711  11.866
72048W        W42648  26.616  30.379   2.176
72049W        W42649  20.137  23.036  13.387
72050W        W42650  22.520  17.863  12.113
72051W        W42651  27.567  19.832  13.700
72052W        W42652  32.733  33.363  13.161
72053W        W42653   4.241  21.655   0.517
72054W        W42654  33.458  22.395  14.503
72055W        W42655  16.661  32.813  11.092
72056W        W42656  34.241  23.043  13.454
72057W        W42657  22.782  33.133  11.145
72058W        W42658   2.318  25.054  12.056
72059W        W42659  40.378   4.523   1.340
72060W        W42660  12.275  26.155  14.158
72061W        W42661  32.455  43.955   0.819
72062W        W42662  17.677  18.342   3.609
72063W        W42663  27.631   0.497   0.780
72064W        W42664   1.231  21.025   2.721
72065W        W42665  14.471  43.918   1.723
72066W        W42666  23.141  32.053  14.938
72067W        W42667  16.313  42.443   0.715
72068W        W42668  44.780  43.638   3.271
72069W        W42669  27.105  11.367  11.137
72070W        W42670  26.068  38.492   1.313
72071W        W42671  35.855  22.062  13.148
72072W        W42672  39.567   2.946  14.624
72073W        W42673   2.492  25.509  12.592
72074W        W42674  29.424  15.148  12.936
72075W        W42675  37.017  31.164  11.228
72076W        W42676  43.511  15.623   5.007
72077W        W42677   7.967  33.323   3.406
72078W        W42678  40.486  44.514  13.359
72079W        W42679   3.326  22.969   1.385
72080W        W42680   2.416  31.673   1.110
72081W        W42681  27.977  34.741  12.955
72082W        W42682  11.348  16.283   4.848
72083W        W42683  24.518  21.169  13.956
72084W        W42684  13.775  31.662  11.598
72085W        W42685  34.938  30.968   0.798
72086W        W42686  35.080  25.496   4.217
72087W        W42687   7.885  19.307  12.976
72088W        W42688  18.876  14.280   1.275
72089W        W42689  21.640  19.176   4.407
72090W        W42690  43.983  10.820   4.167
72091W        W42691  22.162  17.803  11.075
72092W        W42692  21.593  31.923  10.777
72093W        W42693  26.443  18.389  11.549
72094W        W42694  15.282  19.625  10.579
72095W        W42695  32.669  29.944   3.224
72096W        W42696   3.647   4.270   0.403
72097W        W42697  15.689  16.528  13.111
72098W        W42698  44.229  16.834  11.490
72099W        W42699  33.101   5.548  14.971
72100W        W42700  25.755  36.520  13.455
72101W        W42701  14.143   0.869   4.740
72102W        W42702  24.795   1.234   5.253
72103W        W42703  26.117   3.265  14.650
72104W        W42704  42.520   5.443  12.974
72105W        W42705   2.332  22.419   2.450
72106W        W42706  27.478  31.935   0.094
72107W        W42707   6.889  33.488   0.660
72108W        W42708   3.407  15.020   2.661
72109W        W42709  41.239  31.443  14.998
72110W        W42710  34.934  20.752  13.590
72111W        W42711  19.622  40.521   3.482
72112W        W42712   8.959   7.394   3.611
72113W        W42713   1.197   9.669  14.535
72114W        W42714  44.403  44.760   1.642
72115W        W42715  29.008  37.793  13.523
72116W        W42716  38.894  39.279   5.044
72117W        W42717  38.052  15.287   4.109
72118W        W42718   6.721  12.064  14.831
72119W        W42719  13.442  20.306   0.946
72120W        W42720  40.113   6.992   4.528
72121W        W42721  21.112  36.812   4.109
72122W        W42722  27.918  35.445  13.013
72123W        W42723   7.395  28.053   1.809
72124W        W42724  19.009  38.187  13.432
72125W        W42725  18.679   5.089  14.939
72126W        W42726  15.706  22.079  13.303
72127W        W42727  29.272   2.598   2.691
72128W        W42728  42.999   1.700   1.375
72129W        W42729  41.625  14.270   2.830
72130W        W42730  26.686  20.554   2.691
72131W        W42731  41.601   3.370   0.672
72132W        W42732  30.262  13.012  11.253
72133W        W42733  15.693  27.504   3.463
72134W        W42734  15.887   4.191   0.018
72135W        W42735  43.566   9.904   2.335
72136W        W42736  18.282  35.625   3.179
72137W        W42737  17.867   4.682  10.267
72138W        W42738  12.343   1.397   0.363
72139W        W42739  29.172  40.139   0.143
72140W        W42740   6.930  16.351   0.935
72141W        W42741   6.963  18.790  11.080
72142W        W42742   6.804  30.206  14.729
72143W        W42743  40.020  44.146   3.740
72144W        W42744  23.575  12.486   4.922
72145W        W42745  44.049  35.752   3.604
72146W        W42746  24.188   8.482  13.301
72147W        W42747   3.290   7.779   3.566
72148W        W42748  37.367  26.818  14.044
72149W        W42749  23.086  11.805  10.771
72150W        W42750  30.664  23.034   4.225
72151W        W42751  16.612  41.372  12.343
72152W        W42752  29.026  13.705   0.801
72153W        W42753  24.012  30.718  13.007
72154W        W42754  37.132  44.065   5.054
72155W        W42755  33.379   1.281   1.479
72156W        W42756  28.440  37.373   0.029
72157W        W42757  12.413   8.857   3.658
72158W        W42758  23.697  15.881  11.886
72159W        W42759  43.969   8.823   0.824
72160W        W42760  43.774  41.528  12.546
72161W        W42761  40.596  10.797   3.235
72162W        W42762  35.875  16.365  11.638
72163W        W42763   1.520  16.722  11.953
72164W        W42764  36.414  40.904  11.557
72165W        W42765  37.305  17.622   0.870
72166W        W42766  43.376  19.045   3.589
72167W        W42767  16.247   9.859   4.461
72168W        W42768  14.816  41.473   1.251
72169W        W42769  40.583   7.139  11.969
72170W        W42770  19.324  44.562  13.240
72171W        W42771  26.471   2.357   1.804
72172W        W42772  15.189  24.891   1.005
72173W        W42773  17.827  18.997  14.514
72174W        W42774  25.283  38.821  11.320
72175W        W42775  42.787  37.946  14.878
72176W        W42776  42.293  20.216   0.490
72177W        W42777  17.149   0.597  12.432
72178W        W42778  22.132  12.157  13.530
72179W        W42779  22.638  22.691  10.643
72180W        W42780   0.353  19.030  13.874
72181W        W42781  17.790  30.701  14.450
72182W        W42782   8.449  40.018  11.181
72183W        W42783  24.753   3.506  14.662
72184W        W42784  11.664  34.974   4.202
72185W        W42785  28.927   8.885   3.541
72186W        W42786   8.306  26.184   0.367
72187W        W42787  12.760  42.778  12.627
72188W        W42788  12.726  22.887  11.708
72189W        W42789   6.627  34.881   2.908
72190W        W42790  21.410  22.440   4.156
72191W        W42791  13.182  32.709   2.671
72192W        W42792  17.116  40.920  11.779
72193W        W42793  40.987  19.691   4.558
72194W        W42794   8.001   1.541  10.689
72195W        W42795  18.460  23.084  12.203
72196W        W42796  14.366  38.593  12.441
72197W        W42797  17.638  24.926   1.474
72198W        W42798  10.588   3.595   0.512
72199W        W42799  21.531  10.136  14.763
72200W        W42800  23.629  18.797   0.313
72201W        W42801  39.620  42.587  10.318
72202W        W42802  35.377  20.029   2.352
72203W        W42803  35.993  33.873   2.565
72204W        W42804  25.471  32.165   4.136
72205W        W42805   0.011  27.548  12.115
72206W        W42806  36.435  36.825   2.418
72207W        W42807   3.208  13.228   3.252
72208W        W42808  16.061  31.167  14.012
72209W        W42809  37.870  36.954  13.473
72210W        W42810  35.793  17.797   2.191
72211W        W42811  15.141  19.256  12.686
72212W        W42812  12.962   0.328   2.814
72213W        W42813  40.315  42.378   3.239
72214W        W42814   0.485  27.253  13.538
72215W        W42815  28.076  33.104   0.852
72216W        W42816  12.652   5.498  13.036
72217W        W42817   4.573  36.184  14.572
72218W        W42818  35.005  33.445   2.676
72219W        W42819  10.392  14.049   2.441
72220W        W42820  44.765   8.161  11.822
72221W        W42821   0.326  40.078   2.896
72222W        W42822  36.708  28.253  11.500
72223W        W42823   8.820   9.433  14.002
72224W        W42824  27.552   4.793  10.606
72225W        W42825  17.169   4.866   1.250
72226W        W42826  19.984  15.827  11.445
72227W        W42827  17.099  32.565  13.334
72228W        W42828  16.090   1.073   0.740
72229W        W42829  10.343  17.473   4.078
72230W        W42830  37.073  28.931   1.292
72231W        W42831  34.540  35.389   4.602
72232W        W42832  38.698  38.382  11.552
72233W        W42833  18.735  15.761  11.140
72234W        W42834  31.684  12.296  11.993
72235W        W42835  22.707   7.790   3.638
72236W        W42836   8.962  19.700   0.843
72237W        W42837  38.888  18.946  12.166
72238W        W42838   5.764  22.811   1.068
72239W        W42839   7.384  31.537  13.636
72240W        W42840   7.301  36.983   0.065
72241W        W42841  14.264  28.427  11.556
72242W        W42842  13.236  19.135   4.517
72243W        W42843  22.042   8.737   2.191
72244W        W42844   9.603  26.659  12.059
72245W        W42845  26.665   3.559   0.975
72246W        W42846   7.301  20.813  12.495
72247W        W42847  11.281  38.584   0.763
72248W        W42848  28.013  29.997  10.661
72249W        W42849  33.697  18.159  10.250
72250W        W42850  10.999  40.248  12.506
72251W        W42851  39.522   4.878  12.419
72252W        W42852  25.045   9.764   2.040
72253W        W42853   4.849  13.314   4.173
72254W        W42854  28.605  10.110  11.086
72255W        W42855   3.774  10.231   2.345
72256W        W42856  24.632  30.958  11.613
72257W        W42857   1.721  30.911  13.276
72258W        W42858   6.809  23.726   3.629
72259W        W42859  27.753  27.586  13.371
72260W        W42860  43.918  28.593  11.667
72261W        W42861   2.759  32.697  12.422
72262W        W42862  26.469  44.266  10.896
72263W        W42863  39.817  17.591  11.588
72264W        W42864  44.056   2.393  12.919
72265W        W42865  33.155  41.227  13.084
72266W        W42866  17.381  41.817  11.410
72267W        W42867  18.016  23.218  10.720
72268W        W42868  33.243   5.746   9.956
72269W        W42869  28.968  27.153   4.628
72270W        W42870  43.793   4.930  13.415
72271W        W42871  15.732  18.685   4.158
72272W        W42872  34.414  11.136  11.219
72273W        W42873  30.515  37.579   2.423
72274W        W42874  19.042  42.258  13.618
72275W        W42875  33.892  24.667   1.792
72276W        W42876  10.132  40.713  12.170
72277W        W42877  21.844  37.052   2.284
72278W        W42878  11.650   0.984   0.001
72279W        W42879  38.872  38.063   1.023
72280W        W42880  29.537  35.312  11.013
72281W        W42881  37.313   4.610  14.022
72282W        W42882   0.503  43.319   3.709
72283W        W42883   4.955  10.270  11.518
72284W        W42884  32.625  14.122   3.181
72285W        W42885  32.586  14.057   2.204
72286W        W42886  43.889   1.981   2.211
72287W        W42887  10.161  35.035  11.741
72288W        W42888  27.519  16.808  12.442
72289W        W42889  12.743  22.685  12.539
72290W        W42890  31.105  10.961   0.074
72291W        W42891  44.025  16.757  12.402
72292W        W42892   0.345  40.304   1.298
72293W        W42893  38.905  38.895  11.347
72294W        W42894  20.091  32.457   3.680
72295W        W42895   2.759  14.917   5.029
72296W        W42896  24.662  43.174  14.076
72297W        W42897  34.653  35.961   3.016
72298W        W42898  21.266  18.544  12.384
72299W        W42899  34.560  44.288  13.685
72300W        W42900   1.064  13.341  11.595
72301W        W42901  14.456  21.660  12.820
72302W        W42902   5.160   5.421  10.775
72303W        W42903  17.628   6.019   2.371
72304W        W42904  42.139  29.148   0.922
72305W        W42905  12.237  22.685   2.205
72306W        W42906  42.406   4.182   0.238
72307W        W42907  11.106  28.988  12.446
72308W        W42908  43.273  17.323  11.072
72309W        W42909  15.604  34.514  13.002
72310W        W42910   6.420  42.694   2.717
72311W        W42911  36.431   2.671  14.573
72312W        W42912   2.870  39.531  13.376
72313W        W42913  27.677  14.218  13.246
72314W        W42914  13.292  11.317  14.847
72315W        W42915  31.596  30.134   1.984
72316W        W42916  43.447  15.696  13.867
72317W        W42917  44.324   6.139   1.684
72318W        W42918  40.309   0.498   4.677
72319W        W42919  36.987  21.130  12.181
72320W        W42920   8.764  36.754  10.978
72321W        W42921  44.957   3.534  11.802
72322W        W42922   0.257   7.353  11.901
72323W        W42923  44.310  10.258   0.339
72324W        W42924  29.922  20.113   1.758
72325W        W42925  42.867  43.317  14.212
72326W        W42926  15.632   2.193  11.159
72327W        W42927  40.624  44.754   2.446
72328W        W42928  15.325  21.712   2.396
72329W        W42929  29.013  39.829  12.186
72330W        W42930  24.288  14.761   4.222
72331W        W42931  23.782  41.922   0.938
72332W        W42932  31.860  44.526  12.060
72333W        W42933   4.267  25.493   2.292
72334W        W42934   9.897  39.281  11.009
72335W        W42935  25.605  18.627   4.960
72336W        W42936  32.135  19.990   1.430
72337W        W42937   2.458  26.107   0.811
72338W        W42938  24.594  26.142  11.846
72339W        W42939  35.031   7.482  13.527
72340W        W42940  35.162   7.302  11.566
72341W        W42941  38.331  10.357  11.648
72342W        W42942  36.872   6.765  14.984
72343W        W42943   3.559  11.236   3.789
72344W        W42944  23.994  40.889  12.606
72345W        W42945  10.896  23.800   3.677
72346W        W42946  25.885  22.720  10.614
72347W        W42947  41.129  14.061   1.930
72348W        W42948   9.955  37.534  13.156
72349W        W42949  30.166  23.076  13.451
72350W        W42950  11.821   6.807   0.066
72351W        W42951   9.745   8.249   4.176
72352W        W42952  34.029  39.432   1.214
72353W        W42953  18.699  35.417   1.761
72354W        W42954   0.212  39.249   3.939
72355W        W42955  24.217   7.331  14.709
72356W        W42956   3.987  31.362  13.034
72357W        W42957   9.793  29.539  12.094
72358W        W42958  23.456   7.478  14.457
72359W        W42959   3.617  24.647  14.711
72360W        W42960   7.859  35.598   3.824
72361W        W42961  44.112   1.686  13.391
72362W        W42962  19.165   9.491  13.019
72363W        W42963  31.388  20.613   0.549
72364W        W42964  11.907  24.462   0.310
72365W        W42965   7.804  33.435  12.017
72366W        W42966  44.689  22.738   2.475
72367W        W42967   5.797   8.962  12.048
72368W        W42968  26.590  33.919   2.553
72369W        W42969   5.270  27.473  13.395
72370W        W42970  20.792  39.103   3.453
72371W        W42971   0.837  42.920   3.567
72372W        W42972  17.608  23.309   0.849
72373W        W42973   4.865   6.457  12.037
72374W        W42974  19.933  29.492   3.245
72375W        W42975  36.643  44.903  14.976
72376W        W42976   3.152  36.789   3.788
72377W        W42977  43.343   0.008   1.852
72378W        W42978  14.554  23.185   2.215
72379W        W42979   0.359  10.115   4.241
72380W        W42980   2.687  12.548  12.573
72381W        W42981  38.807  39.070  12.254
72382W        W42982  44.841  30.325   2.262
72383W        W42983  35.841  26.609   2.158
72384W        W42984  22.177  36.046  14.192
72385W        W42985  30.417  43.795  12.638
72386W        W42986  35.401  14.087  10.751
72387W        W42987  12.159  29.096   0.449
72388W        W42988  29.537  17.652   0.904
72389W        W42989  15.803   4.380   4.127
72390W        W42990  35.818  23.247  12.915
72391W        W42991  35.157  33.936   2.646
72392W        W42992  11.696   2.792  12.285
72393W        W42993  18.302  21.337   3.935
72394W        W42994  17.622   9.047   4.760
72395W        W42995  33.427  15.380  11.558
72396W        W42996  12.638  34.139  12.603
72397W        W42997  24.132  37.084  11.656
72398W        W42998  39.424  33.118  11.583
72399W        W42999  25.974   0.290   4.524
72400W        W43000  27.542  35.900  11.732
72401W        W43001  26.561  16.838  10.795
72402W        W43002   5.449  13.789  14.909
72403W        W43003  32.058  31.622  13.045
72404W        W43004  34.675   9.787   1.938
72405W        W43005  21.034  15.052   2.435
72406W        W43006   9.788   2.674  14.981
72407W        W43007  14.182   5.010   1.320
72408W        W43008  39.846  19.464   2.692
72409W        W43009  21.981   2.984  11.605
72410W        W43010  22.226   1.769  11.272
72411W        W43011  24.118  19.101  13.111
72412W        W43012  33.463  14.582  14.276
72413W        W43013  16.138  35.687   5.130
72414W        W43014  44.571  40.983   4.964
72415W        W43015  11.348  33.311   1.529
72416W        W43016  38.775  31.662  13.807
72417W        W43017   5.033  43.796  13.874
72418W        W43018  30.802  36.504  12.221
72419W        W43019   0.638  37.943  11.164
72420W        W43020   8.284  29.521  11.914
72421W        W43021   4.274   0.487  13.784
72422W        W43022   0.728  12.382  10.802
72423W        W43023  37.932  41.084   2.781
72424W        W43024  23.473  30.864  12.931
72425W        W43025  14.237   8.795   2.646
72426W        W43026  27.337  38.180   0.721
72427W        W43027  14.783   6.867  13.120
72428W        W43028  21.759  39.956  10.734
72429W        W43029  12.319  35.956  13.358
72430W        W43030   7.754  44.567  13.673
72431W        W43031  14.524  12.582  12.898
72432W        W43032  12.874   1.804  13.423
72433W        W43033  20.363  19.318  11.626
72434W        W43034  29.423  28.927  12.478
72435W        W43035  39.336  34.647  10.758
72436W        W43036  40.930  41.731  14.073
72437W        W43037  27.086  26.270   1.032
72438W        W43038  11.770  13.622  13.952
72439W        W43039   9.645  42.790   0.361
72440W        W43040  25.525   4.341   4.526
72441W        W43041   6.145  35.234  11.814
72442W        W43042  15.773   7.347   2.143
72443W        W43043  16.070  40.377  11.633
72444W        W43044  10.716  40.341   4.631
72445W        W43045  37.728  44.980   3.290
72446W        W43046   8.898  25.611   3.553
72447W        W43047  24.649  13.727   1.909
72448W        W43048  43.082   8.932  12.058
72449W        W43049   1.974  33.884  14.823
72450W        W43050   2.038   8.976  13.089
72451W        W43051  24.631   0.468   0.330
72452W        W43052   4.836  27.330   1.327
72453W        W43053  36.588  36.348  14.498
72454W        W43054  12.499   6.317   0.799
72455W        W43055  23.948  32.356   2.004
72456W        W43056   9.290   8.809  13.360
72457W        W43057  25.511  26.781  14.889
72458W        W43058  25.980  18.789   1.726
72459W        W43059  39.284  12.119   4.012
72460W        W43060  13.864   1.787   3.621
72461W        W43061  24.139   1.209  10.561
72462W        W43062   7.991  36.132  13.492
72463W        W43063  29.858   7.683   1.102
72464W        W43064  23.955  14.726  11.162
72465W        W43065  18.585  28.835   0.431
72466W        W43066  15.170  25.436   4.815
72467W        W43067   9.434  18.139  12.332
72468W        W43068  40.489  18.823   1.673
72469W        W43069   1.199  27.664   0.730
72470W        W43070   6.795  11.366  13.161
72471W        W43071   5.987   8.344  13.274
72472W        W43072   6.219  15.049   3.834
72473W        W43073   0.871   3.346   2.615
72474W        W43074   5.284  19.809  11.603
72475W        W43075   3.872   6.975   3.832
72476W        W43076  43.702  39.016   2.779
72477W        W43077  19.051  34.078  13.846
72478W        W43078  13.243  27.309  12.909
72479W        W43079  30.977  43.660  11.347
72480W        W43080  32.346  20.174  12.049
72481W        W43081  19.701  10.729   4.187
72482W        W43082  14.782  37.800   0.939
72483W        W43083  12.309  26.626   0.974
72484W        W43084  26.955  11.776  13.953
72485W        W43085  14.690   4.184   3.276
72486W        W43086   0.601  11.866   1.276
72487W        W43087  21.824  17.175  10.890
72488W        W43088  39.295  11.763   0.499
72489W        W43089   8.092  41.964  12.064
72490W        W43090  13.045  25.620  13.996
72491W        W43091  32.591  17.812   4.557
72492W        W43092  31.074  28.625   2.167
72493W        W43093   4.765   6.151   0.860
72494W        W43094  14.199  39.905   9.925
72495W        W43095  25.616  14.292  14.801
72496W        W43096  35.484   6.253   4.345
72497W        W43097  16.366  19.587  13.546
72498W        W43098  40.944  34.037   3.132
72499W        W43099   8.846  10.683   0.788
72500W        W43100  38.369  41.993   0.065
72501W        W43101  26.571  35.695   2.234
72502W        W43102   5.337  35.308   0.790
72503W        W43103  37.022  19.780   0.247
72504W        W43104  30.069   4.315  14.955
72505W        W43105  10.443  12.742   1.789
72506W        W43106  26.557  16.508   2.219
72507W        W43107  31.218  32.841   2.976
72508W        W43108  28.709  40.216  14.118
72509W        W43109  36.876  24.951  12.085
72510W        W43110   3.270   1.989  11.571
72511W        W43111  37.211  22.011   1.672
72512W        W43112  27.465  20.789   4.186
72513W        W43113   7.806  38.763  14.906
72514W        W43114  19.405  12.790   1.340
72515W        W43115  11.986  14.883  11.604
72516W        W43116   0.702  10.609  14.417
72517W        W43117   8.714  38.458   4.133
72518W        W43118  29.809   1.766   1.787
72519W        W43119  39.915  10.670   4.609
72520W        W43120  37.621  11.570   1.868
72521W        W43121   9.682  32.594   0.018
72522W        W43122  23.939  44.722  14.409
72523W        W43123  20.761  27.504   4.530
72524W        W43124  14.899  19.854   2.247
72525W        W43125  10.852  14.580  13.986
72526W        W43126  12.132  37.586  11.655
72527W        W43127  19.688  20.673   3.734
72528W        W43128  41.069  22.359  13.354
72529W        W43129  36.735   9.671  12.798
72530W        W43130  30.638  19.511   3.636
72531W        W43131  13.160  38.813  10.545
72532W        W43132   5.346  12.050  12.126
72533W        W43133  28.850   7.664   1.200
72534W        W43134  22.929   0.237   3.397
72535W        W43135   1.167  21.252  11.384
72536W        W43136   8.897   7.609   1.131
72537W        W43137   7.675   5.387  14.362
72538W        W43138   3.322  25.475   4.545
72539W        W43139   9.550  35.539   4.609
72540W        W43140  26.006  12.842  11.951
72541W        W43141   5.699  26.748  12.761
72542W        W43142  25.765  29.788   0.797
72543W        W43143  24.955  21.781   2.720
72544W        W43144  27.516  11.399   1.229
72545W        W43145   8.952  12.362   2.790
72546W        W43146  12.453  16.898   1.652
72547W        W43147  17.786   3.980   3.118
72548W        W43148  10.175  25.761   1.836
72549W        W43149  24.212  15.754  12.062
72550W        W43150   8.335  28.574   3.361
72551W        W43151  30.599  16.628   3.707
72552W        W43152  14.845   3.682  10.112
72553W        W43153   4.366  40.476  11.524
72554W        W43154  40.768  10.900  13.605
72555W        W43155  22.451  25.892  11.493
72556W        W43156  15.489  17.259   2.786
72557W        W43157  15.548  13.116  14.947
72558W        W43158   8.446  19.809   2.863
72559W        W43159  36.840   1.791   3.187
72560W        W43160  25.615   5.928  14.721
72561W        W43161   4.714  10.908  14.014
72562W        W43162  10.908  34.225   4.649
72563W        W43163  11.133   5.845   3.723
72564W        W43164   9.426  30.336   1.954
72565W        W43165  11.011  25.183   1.406
72566W        W43166  21.208  34.467  14.453
72567W        W43167  34.683  34.396  11.011
72568W        W43168   9.208  35.028  10.673
72569W        W43169  15.593  31.514  14.171
72570W        W43170  27.452  25.125   2.645
72571W        W43171   2.874   8.079   4.695
72572W        W43172  21.963   9.165   1.727
72573W        W43173  22.980  18.740  14.579
72574W        W43174  21.008   6.226  13.797
72575W        W43175   8.812  32.133  13.582
72576W        W43176   8.700  11.188  13.167
72577W        W43177   9.696  19.634   1.527
72578W        W43178  37.079  24.739  13.486
72579W        W43179  42.832  32.138  12.649
72580W        W43180   0.029  20.131   1.610
72581W        W43181  43.810  26.711   0.468
72582W        W43182  21.395  42.034   5.101
72583W        W43183   4.207  25.449   2.796
72584W        W43184  28.178   6.786   3.841
72585W        W43185  40.906  26.179  14.420
72586W        W43186  43.950  42.039  10.527
72587W        W43187  42.832  20.453  13.293
72588W        W43188  43.925   4.436   3.370
72589W        W43189  23.457  27.824   3.178
72590W        W43190  31.285  23.711  12.013
72591W        W43191  12.113  38.536  10.455
72592W        W43192  31.849  42.576  12.052
72593W        W43193   6.320  31.570  13.570
72594W        W43194  13.537  12.960   3.478
72595W        W43195  23.798  43.655  14.837
72596W        W43196   7.958  13.155   2.331
72597W        W43197  40.394  11.297   1.845
72598W        W43198   5.951   3.854   2.316
72599W        W43199  19.784  22.740   1.908
72600W        W43200  41.747   5.439   1.704
72601W        W43201  22.994  40.341  11.936
72602W        W43202  28.427  29.662  11.607
72603W        W43203  26.395   2.328   5.125
72604W        W43204  38.065   2.290   2.832
72605W        W43205  44.959  37.984   2.201
72606W        W43206  44.745  23.451   3.151
72607W        W43207  40.348   8.850  12.816
72608W        W43208  35.440  29.858  10.586
72609W        W43209  28.459   9.819   4.125
72610W        W43210  40.309   8.134  14.720
72611W        W43211  37.557  36.769   0.428
72612W        W43212   8.386  37.204   3.438
72613W        W43213  40.918  11.286   2.158
72614W        W43214  27.709  19.818   1.214
72615W        W43215   3.825  40.974   4.382
72616W        W43216  22.080  17.188   4.765
72617W        W43217  12.524  23.418   2.039
72618W        W43218  34.271  16.331   2.165
72619W        W43219  14.614  27.205   2.819
72620W        W43220  37.022  22.227  12.594
72621W        W43221  30.644  20.807   3.768
72622W        W43222  21.614  20.728   1.152
72623W        W43223  30.834  36.939  12.580
72624W        W43224  36.385  15.524   3.549
72625W        W43225   5.448  17.148  11.091
72626W        W43226  13.206   4.549  13.556
72627W        W43227   8.329  28.498  12.776
72628W        W43228  21.493  33.330   1.735
72629W        W43229  21.820   5.822  13.563
72630W        W43230  16.298  11.559   3.312
72631W        W43231  11.734  15.193   0.936
72632W        W43232  13.431  29.335  13.980
72633W        W43233  15.271  27.472   0.995
72634W        W43234  33.039  30.380   2.317
72635W        W43235  19.823  37.098   3.179
72636W        W43236  20.475  44.795   3.860
72637W        W43237  35.748  15.666   4.660
72638W        W43238  36.522  38.524  14.787
72639W        W43239  33.409  21.301   1.404
72640W        W43240   3.760  17.497  10.723
72641W        W43241  12.123  35.091  12.910
72642W        W43242  44.289  21.141  13.062
72643W        W43243  18.211  24.947   4.297
72644W        W43244  28.679   6.769   1.261
72645W        W43245   3.927   9.884  12.624
72646W        W43246  37.624  33.586   0.657
72647W        W43247   9.155  38.195   3.715
72648W        W43248  36.529  12.728   4.487
72649W        W43249   5.795  30.091  12.665
72650W        W43250  21.638  30.159  13.924
72651W        W43251   7.909   0.357  14.826
72652W        W43252   2.541   2.333   4.577
72653W        W43253  17.883  26.100   1.707
72654W        W43254  27.591  39.499   2.315
72655W        W43255  15.134  29.602   0.120
72656W        W43256  33.634  23.393  12.572
72657W        W43257   3.846  37.425   1.621
72658W        W43258  11.636  37.604  14.195
72659W        W43259  27.124  37.474   2.728
72660W        W43260   6.498  33.247   0.903
72661W        W43261   3.387  13.790  11.580
72662W        W43262  26.473   1.299  11.127
72663W        W43263  41.038  29.373  14.837
72664W        W43264  30.938   5.828  11.782
72665W        W43265   0.514  35.369   1.728
72666W        W43266  31.032  14.185  13.072
72667W        W43267  44.022  29.580   1.844
72668W        W43268   4.579  25.105   4.125
72669W        W43269  23.242  15.141  11.091
72670W        W43270  39.767  27.236  10.668
72671W        W43271  29.487  37.051  12.657
72672W        W43272  20.033   5.288  10.781
72673W        W43273  14.627   8.678  14.281
72674W        W43274  22.977  44.503   1.346
72675W        W43275   6.985  42.756  11.113
72676W        W43276  41.534  24.484   2.772
72677W        W43277   3.731  30.991  14.730
72678W        W43278  15.296  39.471   2.947
72679W        W43279  43.945  43.722   4.093
72680W        W43280  17.192  17.678   1.471
72681W        W43281  29.467  28.984  10.476
72682W        W43282   9.481  44.451  12.477
72683W        W43283   5.558  23.362   1.795
72684W        W43284  43.805  31.971   4.693
72685W        W43285  13.068  32.440  13.868
72686W        W43286  43.621  35.153   1.127
72687W        W43287  34.669  21.013   2.821
72688W        W43288   3.256  15.592   1.810
72689W        W43289   3.191  31.515  12.068
72690W        W43290  18.202  22.289  10.558
72691W        W43291  22.434   1.241  14.411
72692W        W43292  11.792  18.844   1.359
72693W        W43293   2.236   1.871  13.570
72694W        W43294  39.939  26.005   3.238
72695W        W43295   4.353  14.223   0.794
72696W        W43296  26.584   7.824   0.526
72697W        W43297  31.869  38.316  11.427
72698W        W43298  27.019  38.595  11.058
72699W        W43299  14.987  33.934   3.265
72700W        W43300  41.506   5.785   4.572
72701W        W43301  34.732  18.855  11.614
72702W        W43302   8.804  14.700   3.816
72703W        W43303  20.731  24.007  14.770
72704W        W43304  42.373   7.379   2.004
72705W        W43305   9.288  39.120   4.192
72706W        W43306   5.070   7.964  11.072
72707W        W43307   1.753  24.610  14.740
72708W        W43308  15.316  20.062   1.414
72709W        W43309  12.736  21.110  13.602
72710W        W43310  26.357  34.539   1.267
72711W        W43311  26.473  19.129   1.346
72712W        W43312  19.137  44.334  12.021
72713W        W43313  14.697  32.129  10.006
72714W        W43314  39.774  37.399  14.489
72715W        W43315  29.411  21.576   3.730
72716W        W43316  23.611  43.714   3.785
72717W        W43317  39.568  41.132  13.327
72718W        W43318   3.272   8.740   3.864
72719W        W43319  33.566  13.086   0.307
72720W        W43320  26.864  17.380   3.204
72721W        W43321  42.321  24.711   4.256
72722W        W43322  11.401   2.856  14.763
72723W        W43323  20.941   1.958  14.716
72724W        W43324  40.074  21.497   3.098
72725W        W43325  43.007  16.297  14.256
72726W        W43326   9.938  39.060   2.423
72727W        W43327  15.998   3.459   3.017
72728W        W43328  27.113   7.251   4.197
72729W        W43329  10.573  21.723  11.554
72730W        W43330  14.143  24.288  13.888
72731W        W43331   3.191  15.220  13.891
72732W        W43332   9.280  16.285   2.257
72733W        W43333  32.353  36.485  11.736
72734W        W43334   0.893  11.101  11.120
72735W        W43335   1.620   6.388  13.879
72736W        W43336   2.785  36.047  10.612
72737W        W43337  19.727  36.147  13.907
72738W        W43338  41.025  42.121  10.730
72739W        W43339  24.569   8.146  11.482
72740W        W43340  39.886  32.619   3.823
72741W        W43341   0.968  32.033   0.041
72742W        W43342   6.718  16.385  12.497
72743W        W43343   6.724  23.405  14.281
72744W        W43344  32.704  39.536   0.836
72745W        W43345  14.815  29.016  12.472
72746W        W43346   4.410  16.334  14.958
72747W        W43347  11.389  26.205  14.961
72748W        W43348  40.222   1.251  14.823
72749W        W43349  20.134   9.506   0.439
72750W        W43350  19.254   0.380   2.671
72751W        W43351  23.661  15.561   0.421
72752W        W43352   5.796  28.355   4.326
72753W        W43353   7.239  42.055   0.927
72754W        W43354  29.992  36.554  13.905
72755W        W43355  40.063  18.153   1.912
72756W        W43356   4.523  11.837   1.471
72757W        W43357  10.772  20.208  14.245
72758W        W43358  10.730  35.261   3.714
72759W        W43359   4.348  15.919  13.666
72760W        W43360  31.168  39.750  14.241
72761W        W43361  43.302  35.068  12.437
72762W        W43362  27.142  12.627   0.289
72763W        W43363  44.567   9.447  13.968
72764W        W43364   6.647  17.195   2.716
72765W        W43365  34.406  31.694   0.383
72766W        W43366  36.735  17.715   2.847
72767W        W43367  15.332  43.929   4.552
72768W        W43368  11.802   6.262   2.051
72769W        W43369   1.498  19.221   3.760
72770W        W43370  17.147  28.423  10.559
72771W        W43371  24.438  38.538  14.331
72772W        W43372  14.043  28.207   3.623
72773W        W43373  14.122   4.243   2.858
72774W        W43374  29.949  16.759   2.945
72775W        W43375  44.515  37.079  11.923
72776W        W43376  17.380  15.810  12.871
72777W        W43377  23.001   6.835  13.064
72778W        W43378  38.989  27.968  12.095
72779W        W43379  40.908   6.528   4.685
72780W        W43380   4.629  40.683   0.463
72781W        W43381  21.219  44.431  12.361
72782W        W43382  24.742  16.327   1.838
72783W        W43383   8.814  29.728   2.322
72784W        W43384   2.918  15.658  12.974
72785W        W43385  32.507  40.443  13.145
72786W        W43386  15.124   6.135  10.551
72787W        W43387  44.331  41.403   1.270
72788W        W43388  33.158  18.603   1.685
72789W        W43389  29.413   0.765  10.493
72790W        W43390  11.130  29.972   2.724
72791W        W43391   3.078  26.847   1.176
72792W        W43392  34.881  43.517   3.374
72793W        W43393  35.836  29.005  13.046
72794W        W43394  40.078   4.568  13.534
72795W        W43395  38.157  42.573  10.403
72796W        W43396   1.771  10.722  12.482
72797W        W43397  19.242   2.288  12.190
72798W        W43398  15.692  29.620   0.398
72799W        W43399  18.294  44.464  10.228
72800W        W43400  13.609  19.208   2.386
72801W        W43401   2.761  31.142   4.577
72802W        W43402  41.050  15.098   3.356
72803W        W43403  33.053   9.466  12.864
72804W        W43404  38.368   2.480   3.706
72805W        W43405  12.005  22.537  11.919
72806W        W43406  14.680  37.931  13.510
72807W        W43407  39.788  11.599   0.486
72808W        W43408  20.498   1.873  10.704
72809W        W43409  11.269  23.678  14.194
72810W        W43410   3.442  31.157   4.169
72811W        W43411  25.241  12.270   1.467
72812W        W43412   1.822  31.651   2.840
72813W        W43413  29.979  20.804   2.137
72814W        W43414  40.755   5.995  11.738
72815W        W43415   2.761  33.167  11.553
72816W        W43416  18.996  12.744   0.406
72817W        W43417  32.974   9.918   0.513
72818W        W43418  10.360   0.718   2.768
72819W        W43419  30.951  15.123  12.919
72820W        W43420  31.326  21.279   0.199
72821W        W43421   6.923   5.725  11.027
72822W        W43422  34.844  32.091   2.708
72823W        W43423   3.311   7.894  14.443
72824W        W43424  27.666  36.974  11.082
72825W        W43425   7.910  33.561   2.947
72826W        W43426  19.538   2.997   1.164
72827W        W43427  31.203  28.592  14.347
72828W        W43428  38.596   8.760   3.166
72829W        W43429  44.038  16.707  13.719
72830W        W43430  42.017   7.714   2.181
72831W        W43431   2.214  20.162   1.442
72832W        W43432  24.579  23.710  12.534
72833W        W43433  24.684  40.093  13.864
72834W        W43434  44.004  26.024   1.297
72835W        W43435  36.996  34.921  14.932
72836W        W43436  11.259  12.686  10.718
72837W        W43437  38.406  38.433   4.444
72838W        W43438   4.908   8.434   3.892
72839W        W43439   2.858  43.952  12.020
72840W        W43440  42.026   7.102  12.886
72841W        W43441  34.126  19.097   0.206
72842W        W43442  30.983  21.060  12.303
72843W        W43443  26.719  29.158  10.553
72844W        W43444   0.909  12.896  14.383
72845W        W43445  31.408  20.063   1.905
72846W        W43446  11.392  29.279  13.442
72847W        W43447   8.007   6.394   2.169
72848W        W43448  34.922   7.477  14.988
72849W        W43449  34.430  24.499  10.722
72850W        W43450  34.825  20.099  13.007
72851W        W43451  22.256  12.911   3.601
72852W        W43452  44.541   7.734  14.411
72853W        W43453  26.625   3.248   4.089
72854W        W43454  14.823  11.777   2.284
72855W        W43455   7.046  28.706   3.681
72856W        W43456  13.338  29.140   5.150
72857W        W43457  21.710  26.713   4.971
72858W        W43458   9.276  27.177   2.907
72859W        W43459  37.753  13.849   3.730
72860W        W43460   5.233  15.161   2.152
72861W        W43461   8.625   9.837   2.084
72862W        W43462  20.148  36.320   1.313
72863W        W43463  29.570  35.615   4.329
72864W        W43464  32.172  36.984  10.419
72865W        W43465   8.660  18.383   0.905
72866W        W43466   0.457  19.803  14.427
72867W        W43467  26.483  25.036   4.104
72868W        W43468  25.141   1.724  14.426
72869W        W43469  32.732  41.672  10.434
72870W        W43470  23.689  21.240   4.517
72871W        W43471  40.808  24.918  12.026
72872W        W43472  27.008  18.093   0.248
72873W        W43473  36.205  36.960   4.641
72874W        W43474  17.854  36.885   1.200
72875W        W43475   4.337  41.539  14.955
72876W        W43476  19.521  30.493   3.150
72877W        W43477  33.508  24.190  13.345
72878W        W43478   6.950   9.900   1.541
72879W        W43479  19.293   4.789  10.714
72880W        W43480  26.266  15.515  12.057
72881W        W43481   1.334  34.653  13.786
72882W        W43482  19.579  40.648   1.432
72883W        W43483   3.305   1.246   1.844
72884W        W43484  15.192  36.310  11.817
72885W        W43485  11.757  16.709  10.370
72886W        W43486   2.983  35.044  14.517
72887W        W43487  17.555  21.095   0.013
72888W        W43488  24.426  28.416  11.163
72889W        W43489  34.133   8.169   1.452
72890W        W43490  38.536  24.373  12.883
72891W        W43491  40.645   2.669   2.323
72892W        W43492  30.619  27.902  11.571
72893W        W43493  27.040  33.921   2.253
72894W        W43494  30.391  31.406  14.291
72895W        W43495   3.701  31.343   5.486
72896W        W43496  35.911   9.369  14.995
72897W        W43497   6.105   6.364  14.381
72898W        W43498  24.777  32.133  12.425
72899W        W43499  44.013   3.333   0.906
72900W        W43500   4.763  19.349   3.637
72901W        W43501  38.481  27.926   2.127
72902W        W43502   2.792  32.940   2.239
72903W        W43503   0.990  28.093   1.817
72904W        W43504  18.522  24.592  11.218
72905W        W43505  36.122  31.992  11.678
72906W        W43506  41.024   1.888  11.367
72907W        W43507  23.943  13.030   1.328
72908W        W43508  38.403  21.192   4.440
72909W        W43509  42.898  30.405   3.823
72910W        W43510  42.299  28.907   1.457
72911W        W43511  15.511  18.030  11.524
72912W        W43512  44.764  43.080  13.486
72913W        W43513  18.328  21.181   3.421
72914W        W43514  43.112  39.754  12.516
72915W        W43515  38.046  41.504   0.290
72916W        W43516  29.482  36.469  12.369
72917W        W43517  41.854  11.523   1.727
72918W        W43518  38.771   8.441   4.111
72919W        W43519  35.099  32.177   1.208
72920W        W43520  17.034   3.677   2.598
72921W        W43521   1.670  29.910   1.300
72922W        W43522  27.546  20.176  12.036
72923W        W43523  11.856  37.015   3.676
72924W        W43524  29.250  14.732   3.968
72925W        W43525  24.972   7.187  14.469
72926W        W43526  44.982  15.356   2.746
72927W        W43527   6.776   8.257  13.622
72928W        W43528   7.225  40.001  12.635
72929W        W43529  43.516  28.645   2.603
72930W        W43530   6.188   9.844  13.839
72931W        W43531  25.012  37.844   0.603
72932W        W43532  31.949   1.965  10.614
72933W        W43533  22.985   9.321   1.731
72934W        W43534   2.796  36.070   4.363
72935W        W43535  25.799  30.031  11.523
72936W        W43536  16.464   0.223  13.844
72937W        W43537  16.688  14.594  13.385
72938W        W43538  10.592   0.746   2.311
72939W        W43539   9.717  41.296   1.427
72940W        W43540  21.592   9.198  14.347
72941W        W43541  34.920  43.934   3.665
72942W        W43542   3.691  32.634   4.770
72943W        W43543  15.719  37.892   1.879
72944W        W43544   8.358  40.637   4.390
72945W        W43545  27.162  42.743   1.351
72946W        W43546  27.620  19.162   2.258
72947W        W43547   7.421  19.174  11.152
72948W        W43548  28.192   8.511   2.886
72949W        W43549  13.890   3.884   1.302
72950W        W43550  10.290  29.826  13.791
72951W        W43551  33.070   7.669  12.521
72952W        W43552  33.422  31.152   3.390
72953W        W43553  43.843  42.748  13.049
72954W        W43554  27.620   7.170  13.132
72955W        W43555  37.379  26.911  11.252
72956W        W43556  35.477   3.275  11.516
72957W        W43557   9.587  13.342   0.876
72958W        W43558  14.258  19.469   4.555
72959W        W43559  27.423  44.584  13.041
72960W        W43560  31.918  17.450   1.395
72961W        W43561  29.687   2.817   4.554
72962W        W43562   0.207  10.165  11.866
72963W        W43563  35.370  21.593   1.821
72964W        W43564   1.857  15.297  11.923
72965W        W43565   3.681  32.126   2.782
72966W        W43566  24.171  21.668  10.590
72967W        W43567  34.335  19.089   3.669
72968W        W43568  33.134  40.709  13.056
72969W        W43569   7.158   6.294   4.723
72970W        W43570  42.761   0.652  10.525
72971W        W43571  15.927  28.680  13.782
72972W        W43572  10.269  30.253  14.106
72973W        W43573   1.197   4.294  13.764
72974W        W43574  32.633  37.894  11.800
72975W        W43575  15.007  13.868   1.699
72976W        W43576  40.063  44.073  10.507
72977W        W43577  33.641  31.952  12.907
72978W        W43578  38.003  12.340   3.733
72979W        W43579  22.746  33.962  10.915
72980W        W43580  14.845  24.662  14.748
72981W        W43581   2.539  33.366   2.051
72982W        W43582  36.161  15.467  13.719
72983W        W43583   6.288  35.083  14.443
72984W        W43584  32.419   6.384   1.229
72985W        W43585  41.501   1.932  14.048
72986W        W43586  16.099  37.542  11.929
72987W        W43587  14.004  26.464   3.512
72988W        W43588  44.232  35.914   2.133
72989W        W43589  16.739  43.547   0.002
72990W        W43590  12.131  30.894   2.251
72991W        W43591   8.433  40.542  11.260
72992W        W43592  33.032  42.299   0.266
72993W        W43593  13.440  22.609  13.428
72994W        W43594  27.546  21.182  13.215
72995W        W43595  30.723  29.653   3.641
72996W        W43596   9.347  18.341   3.762
72997W        W43597  43.086  12.000  12.052
72998W        W43598  32.332  34.319   0.927
72999W        W43599  16.190  17.519   0.841
73000W        W43600  41.661  27.930   2.108
73001W        W43601   8.891  32.209  10.743
73002W        W43602  31.488  26.664   0.920
73003W        W43603  44.950  32.891   4.591
73004W        W43604  25.556  17.172  11.176
73005W        W43605  20.854  23.235  14.214
73006W        W43606  12.144  24.752  13.478
73007W        W43607  15.551   0.711   1.796
73008W        W43608   4.955  14.877  11.481
73009W        W43609  25.560   8.800   2.727
73010W        W43610   2.641  26.132   4.543
73011W        W43611  21.035  24.256  10.490
73012W        W43612   2.727  11.622   2.717
73013W        W43613  16.714  30.115  12.374
73014W        W43614  23.764  18.658  11.033
73015W        W43615   2.250  36.858  11.578
73016W        W43616  19.717  35.852   0.885
73017W        W43617  24.479  39.387   3.297
73018W        W43618   6.799  18.303   0.275
73019W        W43619   4.948   2.753  10.737
73020W        W43620   4.779  14.172   3.723
73021W        W43621   1.046  41.946   2.700
73022W        W43622  13.136  32.179  11.988
73023W        W43623  38.997  23.246   0.214
73024W        W43624  40.387  18.232  11.763
73025W        W43625  23.558  41.404   4.157
73026W        W43626  33.479   6.173   0.476
73027W        W43627  13.689  18.550  13.988
73028W        W43628  42.519  16.336   3.255
73029W        W43629  16.147  32.932  10.219
73030W        W43630  41.029  30.519  10.766
73031W        W43631  41.581   3.661  13.426
73032W        W43632  37.068  12.298   3.721
73033W        W43633  18.922  41.900  11.727
73034W        W43634  22.569  18.063   1.481
73035W        W43635  10.888  29.465  12.476
73036W        W43636   5.430  32.795   3.502
73037W        W43637  10.602  38.131  11.057
73038W        W43638  42.325   6.024  12.138
73039W        W43639  16.049  31.668  13.935
73040W        W43640  22.606  38.427  13.481
73041W        W43641  21.132  36.510  11.507
73042W        W43642   2.237  40.025   3.334
73043W        W43643  21.174   3.937   4.775
73044W        W43644  39.525  14.759   2.268
73045W        W43645  28.246  12.141  14.389
73046W        W43646  30.889  12.298   3.222
73047W        W43647  19.152  12.135   2.300
73048W        W43648  21.253  14.126   4.383
73049W        W43649  21.505  14.143   2.712
73050W        W43650  41.409  33.326   3.140
73051W        W43651  23.352  39.026  13.552
73052W        W43652  23.207  36.412  13.280
73053W        W43653  33.711  27.351  13.788
73054W        W43654  34.312  28.722   0.916
73055W        W43655  31.112  15.395   4.072
73056W        W43656  44.299  39.295   4.179
73057W        W43657  29.575   9.360  14.799
73058W        W43658  36.427  36.974   1.467
73059W        W43659  44.718  21.445  12.890
73060W        W43660  27.603  36.975  13.350
73061W        W43661   9.273  31.843  13.455
73062W        W43662  26.926   7.627  10.849
73063W        W43663  22.216  30.608   1.721
73064W        W43664  23.697  26.594  14.396
73065W        W43665  38.572   1.344  12.740
73066W        W43666   7.296  44.536  11.106
73067W        W43667  13.341   7.363   3.199
73068W        W43668   0.318  21.613  12.020
73069W        W43669  33.151   5.394   0.912
73070W        W43670   3.242  35.651   5.275
73071W        W43671  14.734   2.575  11.869
73072W        W43672  34.881  24.169  11.755
73073W        W43673  33.992  21.185   3.773
73074W        W43674   4.024  32.774   1.883
73075W        W43675  41.375   5.706  14.541
73076W        W43676  15.171  11.478  14.111
73077W        W43677  26.158   2.983  12.331
73078W        W43678  41.524  32.404  12.479
73079W        W43679   9.734  35.696  14.358
73080W        W43680  43.803   0.910  12.500
73081W        W43681  14.261   3.379   4.068
73082W        W43682  39.727  27.619   4.866
73083W        W43683  12.147  27.671  10.693
73084W        W43684  35.824   9.737  11.676
73085W        W43685   5.194  42.215   1.240
73086W        W43686  12.523  28.659  11.516
73087W        W43687  31.570  34.417  10.398
73088W        W43688  43.321  20.847  10.707
73089W        W43689   7.890  36.112  10.597
73090W        W43690  10.661  10.750   2.738
73091W        W43691  33.609  26.097   0.099
73092W        W43692  24.881  22.206   3.580
73093W        W43693   1.810  16.877  13.335
73094W        W43694   1.021  40.582   1.535
73095W        W43695  23.664  21.613  10.577
73096W        W43696   2.908  14.800  14.877
73097W        W43697   7.242  42.427   1.861
73098W        W43698  29.690  26.074   0.380
73099W        W43699   8.768  44.959   0.379
73100W        W43700  36.083  36.929  14.706
73101W        W43701  26.592  11.232  10.935
73102W        W43702  23.146  29.055   3.255
73103W        W43703   1.453  15.452  14.651
73104W        W43704  34.667  29.899  11.124
73105W        W43705  35.304   3.888  14.055
73106W        W43706  35.107   1.047  11.552
73107W        W43707  41.943  10.193  12.479
73108W        W43708  28.471  43.503   2.394
73109W        W43709  10.453  15.135  13.213
73110W        W43710   9.861  30.981  14.516
73111W        W43711  32.972  31.893  13.894
73112W        W43712  36.578  16.719   4.569
73113W        W43713  24.136  38.966   0.837
73114W        W43714  35.463  12.754  11.143
73115W        W43715  18.161  44.608   4.970
73116W        W43716  21.296  11.377   4.622
73117W        W43717   4.642  29.638   3.689
73118W        W43718  16.629   3.894   2.306
73119W        W43719  38.418   9.387   0.898
73120W        W43720  28.362  22.687   0.530
73121W        W43721  43.847  36.461   4.139
73122W        W43722  38.621  15.264   3.030
73123W        W43723   3.173  14.257  10.665
73124W        W43724  10.688  17.601   3.700
73125W        W43725  26.036  19.123   3.381
73126W        W43726   8.636  44.404   0.037
73127W        W43727   9.368   8.398  12.239
73128W        W43728  14.311   5.708  13.448
73129W        W43729  43.242  14.994   0.346
73130W        W43730   6.644   1.526  12.561
73131W        W43731  30.711  35.402  11.616
73132W        W43732  42.024  38.624  11.418
73133W        W43733   3.337  42.101   4.182
73134W        W43734  43.852   9.664   4.297
73135W        W43735   3.279  15.210   0.487
73136W        W43736  42.186   0.916   0.763
73137W        W43737  24.682  11.472   5.075
73138W        W43738  38.318  44.331   3.015
73139W        W43739  12.062  38.252   3.304
73140W        W43740   4.797  11.672   3.759
73141W        W43741  35.136  18.080  12.102
73142W        W43742  44.291  10.873   3.742
73143W        W43743   2.147   1.462   5.457
73144W        W43744   0.775  15.909   2.812
73145W        W43745   9.732  28.447  13.991
73146W        W43746  18.316  43.851  13.352
73147W        W43747  22.619   4.248  11.700
73148W        W43748  13.690  41.941   1.166
73149W        W43749  24.301  13.559   0.165
73150W        W43750  26.614  25.472  11.806
73151W        W43751  21.879  19.264  12.436
73152W        W43752   8.755  22.720  14.011
73153W        W43753   5.395  27.537   1.363
73154W        W43754  43.907   0.305   0.271
73155W        W43755  29.625  18.759   1.772
73156W        W43756  30.110  38.428  12.985
73157W        W43757  17.796  42.423   4.338
73158W        W43758  29.208   6.289   4.175
73159W        W43759  28.897  25.493   4.667
73160W        W43760  11.439   0.234  13.379
73161W        W43761  13.635  26.736  12.129
73162W        W43762  10.197  31.447   1.488
73163W        W43763   0.698   8.555  11.160
73164W        W43764  37.986   7.323   4.143
73165W        W43765  31.585  17.709   2.150
73166W        W43766  28.484  12.371   2.864
73167W        W43767  32.923  12.563   0.902
73168W        W43768  18.676  41.337   3.409
73169W        W43769  27.370  12.836   4.746
73170W        W43770  40.361  33.684  14.207
73171W        W43771   3.141  25.508  14.268
73172W        W43772  43.295  13.084   0.291
73173W        W43773  31.557  33.934  14.360
73174W        W43774  23.915  41.519  10.895
73175W        W43775   0.289  40.660   4.363
73176W        W43776  13.199  32.209  14.871
73177W        W43777  21.773  38.487   0.502
73178W        W43778  34.492  19.981  12.055
73179W        W43779  33.883  27.910  10.747
73180W        W43780  27.556  25.758  11.497
73181W        W43781  11.874  10.762   3.506
73182W        W43782  43.236  14.046   1.429
73183W        W43783  16.138  41.891  14.307
73184W        W43784  37.854  27.100  14.246
73185W        W43785  26.697  39.487   4.154
73186W        W43786  23.094  15.808   4.181
73187W        W43787  10.181  34.854   4.081
73188W        W43788  14.375  22.524  13.521
73189W        W43789  22.467  14.400   0.766
73190W        W43790  21.790  20.993   2.420
73191W        W43791  44.181   3.446  13.468
73192W        W43792   3.206   5.911   1.405
73193W        W43793  17.117  26.466  13.337
73194W        W43794  40.433  40.620  14.300
73195W        W43795  17.709  18.789   4.441
73196W        W43796  42.879  41.331   3.224
73197W        W43797  19.979  22.166  10.535
73198W        W43798  39.360  30.365   3.873
73199W        W43799  16.075  42.741   1.219
73200W        W43800  20.637  27.675  12.445
73201W        W43801  41.933  19.840  13.531
73202W        W43802  35.665  16.646  12.872
73203W        W43803  42.426  22.721   4.041
73204W        W43804  38.841  34.390   3.166
73205W        W43805   4.043  16.100   2.717
73206W        W43806  44.034  42.482  11.682
73207W        W43807  29.609   9.013   4.112
73208W        W43808  38.507  39.990  11.578
73209W        W43809   9.282  37.403  12.026
73210W        W43810  12.243  24.948   3.774
73211W        W43811  31.632  22.396   3.535
73212W        W43812  26.643   0.953   4.524
73213W        W43813  22.975  15.723   3.683
73214W        W43814  22.701  29.634   1.263
73215W        W43815  15.802  44.608  13.808
73216W        W43816  25.718   0.488   3.597
73217W        W43817  42.132  23.677  10.643
73218W        W43818   8.669   5.254   1.760
73219W        W43819  30.671  14.314   3.339
73220W        W43820   2.464  25.117  14.846
73221W        W43821  22.513  31.647  12.616
73222W        W43822  19.844  44.230   0.338
73223W        W43823  17.652  42.217  12.688
73224W        W43824  13.868  11.626   2.704
73225W        W43825  42.058  44.931  13.957
73226W        W43826  23.605  37.325  11.712
73227W        W43827  43.435  27.463  13.498
73228W        W43828   0.828  31.803  13.417
73229W        W43829  17.104  36.016  14.057
73230W        W43830  34.014  40.313   1.174
73231W        W43831  38.360  29.725   1.223
73232W        W43832  23.822  39.736  10.454
73233W        W43833  22.724  16.693  14.423
73234W        W43834  41.342  24.301  13.947
73235W        W43835  12.717  16.541   3.393
73236W        W43836  10.430  30.658  13.838
73237W        W43837  42.422  24.986   5.092
73238W        W43838  43.234  12.189   0.267
73239W        W43839  32.754  36.081   1.671
73240W        W43840  15.384  20.993   4.237
73241W        W43841   4.905  26.005  13.625
73242W        W43842  16.934   8.760   4.276
73243W        W43843  28.522  21.090  10.817
73244W        W43844  39.350  23.285  13.335
73245W        W43845  24.503  35.918   4.354
73246W        W43846  40.023  26.581   4.384
73247W        W43847   3.414  31.493   1.289
73248W        W43848  44.831  35.898   4.430
73249W        W43849  21.506  43.804  13.776
73250W        W43850  35.160  29.690   0.248
73251W        W43851  19.231  41.913   0.050
73252W        W43852  40.502  40.242   5.352
73253W        W43853   0.568  39.356  11.985
73254W        W43854   1.409  29.012  10.691
73255W        W43855  25.919  21.043   3.627
73256W        W43856   4.734  18.332   2.212
73257W        W43857   7.517  11.280   4.055
73258W        W43858  35.051  32.024  11.692
73259W        W43859   8.908   0.425   1.777
73260W        W43860   3.479  37.524   2.573
73261W        W43861  38.503  43.229  11.549
73262W        W43862   9.418   4.221   1.335
73263W        W43863  17.091  31.125   2.813
73264W        W43864   2.271  22.871   4.660
73265W        W43865   8.130   7.693  11.174
73266W        W43866  22.075  32.059   3.900
73267W        W43867  18.060  23.037  14.931
73268W        W43868  34.296  21.803  13.834
73269W        W43869  14.264  34.408  14.195
73270W        W43870  43.483  38.953   0.319
73271W        W43871  44.679  26.485   4.934
73272W        W43872  15.405   0.482  12.318
73273W        W43873  24.194   9.376  14.801
73274W        W43874  39.789  11.781   2.420
73275W        W43875   0.226   9.814   3.830
73276W        W43876  28.455  19.035   0.595
73277W        W43877  20.489   2.719   4.574
73278W        W43878  22.210  20.726   1.590
73279W        W43879  43.499  16.067   0.399
73280W        W43880  37.941   1.467   0.548
73281W        W43881  12.845  26.515  12.574
73282W        W43882  19.251  18.640   4.562
73283W        W43883  38.898  12.545   2.758
73284W        W43884   6.323   1.707   4.201
73285W        W43885  41.477  32.641   1.934
73286W        W43886  30.959  43.442  10.483
73287W        W43887  41.398  26.010  12.370
73288W        W43888  16.221  43.417  10.944
73289W        W43889  30.376  12.173  11.523
73290W        W43890  25.088  38.040  13.066
73291W        W43891  24.672   9.912  14.339
73292W        W43892  27.014   2.807  11.198
73293W        W43893  36.219  24.685  11.470
73294W        W43894  41.788  32.965   4.263
73295W        W43895  22.278  36.326   0.880
73296W        W43896   1.514  20.086   4.176
73297W        W43897  24.788  15.105  13.605
73298W        W43898  42.953  44.874  12.783
73299W        W43899   3.825  43.980   1.289
73300W        W43900   9.657  31.114  11.874
73301W        W43901   9.338   4.307  14.495
73302W        W43902   4.289  27.102  11.225
73303W        W43903  40.021   9.008   2.615
73304W        W43904  35.819  21.703  13.885
73305W        W43905  13.643  16.578   2.856
73306W        W43906   2.765  41.577  14.247
73307W        W43907   5.695  43.542  13.812
73308W        W43908  39.677  21.374   3.413
73309W        W43909  21.083  30.533  12.898
73310W        W43910  14.877  41.947   3.753
73311W        W43911   1.458   7.194   4.301
73312W        W43912  33.581  21.885   1.293
73313W        W43913  10.304   7.041  14.137
73314W        W43914  14.150  15.251  11.551
73315W        W43915   5.844   4.615  13.083
73316W        W43916   9.790  38.289  12.366
73317W        W43917  30.044  18.369  14.298
73318W        W43918  35.431  14.369  13.564
73319W        W43919  33.075  27.692   0.432
73320W        W43920   3.693  15.822  12.037
73321W        W43921   8.151   8.268  13.487
73322W        W43922  22.099   1.019   4.270
73323W        W43923  36.563   3.483   3.318
73324W        W43924  17.829  22.835   0.351
73325W        W43925  20.511  24.564  14.016
73326W        W43926  11.728  22.852   1.365
73327W        W43927  33.194  15.973   3.053
73328W        W43928  25.394  29.641   4.535
73329W        W43929  27.973   3.268  14.577
73330W        W43930  26.439  42.294   2.981
73331W        W43931  21.049  25.310   4.358
73332W        W43932  14.723  22.386   1.613
73333W        W43933  19.860   2.917  12.387
73334W        W43934  12.349  41.396  14.938
73335W        W43935  16.554  25.047  10.721
73336W        W43936   9.445  22.081  14.762
73337W        W43937  41.444  31.900   1.404
73338W        W43938   3.196  24.400   1.553
73339W        W43939  27.999   0.775   4.556
73340W        W43940  44.073  22.227   4.082
73341W        W43941  10.307  19.247   2.278
73342W        W43942  13.852  11.364  13.578
73343W        W43943  22.662  18.778  12.301
73344W        W43944  23.597  14.702   0.917
73345W        W43945  43.324  30.557   2.397
73346W        W43946  12.517  28.106   3.586
73347W        W43947  11.345  13.002   1.799
73348W        W43948  19.999  24.216   3.337
73349W        W43949  29.936  35.591  10.591
73350W        W43950  16.166  23.509   0.955
73351W        W43951   3.213  24.659  13.489
73352W        W43952  19.789  35.966  12.050
73353W        W43953   7.149  29.977   5.038
73354W        W43954  22.377  12.275   4.669
73355W        W43955  31.079  40.802  11.561
73356W        W43956   8.408   5.072  12.116
73357W        W43957  40.130  37.447   4.507
73358W        W43958  36.909  28.995   2.407
73359W        W43959  20.061  25.301  12.006
73360W        W43960   5.869  44.960  12.574
73361W        W43961   9.019  32.876   2.981
73362W        W43962   3.776  22.521  11.465
73363W        W43963  20.230  26.941   2.811
73364W        W43964  35.449  41.904   3.186
73365W        W43965  30.944  32.637   3.351
73366W        W43966   6.881  10.840   1.422
73367W        W43967  44.322  24.019   2.768
73368W        W43968  31.240  29.124  14.395
73369W        W43969  26.979  26.924  10.930
73370W        W43970  42.257   0.420  13.842
73371W        W43971  40.464   0.019   0.326
73372W        W43972  34.816   4.932  10.213
73373W        W43973  10.416  27.252  12.172
73374W        W43974  34.565  13.853   2.743
73375W        W43975  25.634  35.314   4.520
73376W        W43976   3.467  26.044   0.370
73377W        W43977  21.093  19.089  14.798
73378W        W43978   6.736  17.264  11.624
73379W        W43979  10.307  27.471   1.413
73380W        W43980  27.487  38.884   1.433
73381W        W43981  14.290  37.013  12.895
73382W        W43982  13.747  23.516  11.632
73383W        W43983  11.053  39.541   1.017
73384W        W43984  15.859  44.506   4.109
73385W        W43985  30.692  17.553  11.231
73386W        W43986   8.136  31.442   3.081
73387W        W43987  15.365  14.572  13.976
73388W        W43988   9.675  43.987  12.466
73389W        W43989   2.812  28.120  12.131
73390W        W43990  18.783   1.889   4.507
73391W        W43991   2.490   2.006  11.122
73392W        W43992  29.928  42.541   2.795
73393W        W43993  23.352  34.963   0.775
73394W        W43994  22.237   2.215   0.420
73395W        W43995  21.426  32.324  12.907
73396W        W43996  20.015   0.905  11.132
73397W        W43997  17.629  20.264  11.141
73398W        W43998  22.261   4.652  11.547
73399W        W43999   4.252   6.936  13.930
73400W        W44000  11.736   0.368  11.588
73401W        W44001  16.355  39.303  13.731
73402W        W44002  31.769  33.404  12.133
73403W        W44003  37.113  39.728  12.960
73404W        W44004  36.783   6.934   1.452
73405W        W44005  11.402  31.421  11.470
73406W        W44006   2.917  13.700  11.784
73407W        W44007  14.342  21.177  10.554
73408W        W44008  39.903   0.829   2.149
73409W        W44009  29.597   1.055  13.757
73410W        W44010  10.747  40.916  14.784
73411W        W44011  20.214   6.919  13.968
73412W        W44012  41.059  24.480  12.921
73413W        W44013   0.823  21.748   3.344
73414W        W44014  38.932  12.026   2.724
73415W        W44015  39.468  37.013  14.278
73416W        W44016  21.168  11.450  12.630
73417W        W44017  35.556  37.012   2.091
73418W        W44018  14.264  11.315  11.693
73419W        W44019   9.849  39.807   3.407
73420W        W44020  40.345   7.586  13.842
73421W        W44021  14.801  44.846   5.140
73422W        W44022  21.381  14.678  14.569
73423W        W44023  39.004   8.908   1.331
73424W        W44024   1.254  41.788   2.249
73425W        W44025  21.775   7.783  13.687
73426W        W44026  31.360  20.228  11.956
73427W        W44027  20.273   3.809   3.839
73428W        W44028  42.556  43.082   3.230
73429W        W44029   6.645  41.368   0.173
73430W        W44030  40.317   6.351  11.327
73431W        W44031   6.348  23.157   0.442
73432W        W44032  36.412  25.334   5.135
73433W        W44033  36.067  39.954  14.196
73434W        W44034   0.990  13.736  13.793
73435W        W44035  35.169   2.295  14.914
73436W        W44036  43.946  28.414  13.180
73437W        W44037  38.066  37.441   2.813
73438W        W44038  33.420  41.249  11.578
73439W        W44039   0.745  29.878  11.042
73440W        W44040  23.226  26.293  11.924
73441W        W44041  12.162  40.686   3.543
73442W        W44042  31.998   9.225   4.380
73443W        W44043   1.054   8.301   1.053
73444W        W44044   6.736  39.583   1.222
73445W        W44045  29.690  11.372   2.675
73446W        W44046  43.368  40.220  11.384
73447W        W44047  19.091  11.171  10.681
73448W        W44048  35.360  27.958   1.451
73449W        W44049  20.058  29.234   1.807
73450W        W44050  17.861  16.708   1.331
73451W        W44051  21.396  39.505   1.733
73452W        W44052   5.886  19.490   4.185
73453W        W44053  41.162  10.214  11.095
73454W        W44054  33.843  33.625   1.945
73455W        W44055  30.507   7.662  13.471
73456W        W44056   8.222  35.936   4.630
73457W        W44057  32.251  38.173  12.513
73458W        W44058   4.806  39.766  11.636
73459W        W44059   4.433  35.292   1.853
73460W        W44060  33.375  22.201  13.346
73461W        W44061  14.069   4.185   0.202
73462W        W44062   5.671   5.223  11.588
73463W        W44063  19.738  41.569  11.998
73464W        W44064   1.752  17.323   2.905
73465W        W44065  41.945  32.658   1.662
73466W        W44066   4.013  30.461   3.194
73467W        W44067   5.334  33.291  10.849
73468W        W44068  43.361  43.662   2.306
73469W        W44069  39.480  15.134   0.906
73470W        W44070   9.175  41.623  14.512
73471W        W44071  17.649  39.541   4.942
73472W        W44072   9.701  14.887  11.187
73473W        W44073  39.874  33.298   2.323
73474W        W44074  35.724  14.402  14.001
73475W        W44075   8.687  36.440  11.550
73476W        W44076   0.338  15.492  14.487
73477W        W44077   0.238  12.675  11.593
73478W        W44078  38.789  44.948  12.131
73479W        W44079  33.887  29.997  10.607
73480W        W44080  33.396  21.329  11.758
73481W        W44081  38.065  42.491  11.452
73482W        W44082   1.280  37.351  12.465
73483W        W44083  27.978  26.495   1.160
73484W        W44084   5.269  38.246   2.330
73485W        W44085  17.726  20.815  10.265
73486W        W44086  30.201   5.101   4.708
73487W        W44087  10.963  19.654   1.851
73488W        W44088  28.085  23.532  14.016
73489W        W44089  22.944  41.843   4.607
73490W        W44090   7.806  25.274  10.615
73491W        W44091  41.405  42.233   2.374
73492W        W44092  28.952   7.801   3.285
73493W        W44093  37.395   6.198   2.880
73494W        W44094  19.082   8.252  11.445
73495W        W44095  22.588  11.961   0.265
73496W        W44096   3.729  21.732  13.034
73497W        W44097  34.494  36.961   4.526
73498W        W44098  14.108  40.761  10.325
73499W        W44099  22.227  11.298  11.964
73500W        W44100  11.757  40.072   3.007
73501W        W44101  20.242  30.943  14.098
73502W        W44102  42.716  39.797  10.261
73503W        W44103  27.563   3.211   0.846
73504W        W44104  44.380   5.714   3.664
73505W        W44105   5.169  12.663   0.425
73506W        W44106  19.378  38.881   0.317
73507W        W44107  35.964   2.763   1.742
73508W        W44108  44.684  13.388  11.166
73509W        W44109  31.945  28.997  10.478
73510W        W44110  15.820  37.393   3.786
73511W        W44111  13.808  14.151   3.618
73512W        W44112  36.437   6.604  14.788
73513W        W44113  40.677   3.013  13.768
73514W        W44114  14.625  43.065  12.924
73515W        W44115   5.362   0.850  10.926
73516W        W44116  35.473   7.357   3.806
73517W        W44117   5.305  36.685   3.386
73518W        W44118  40.501   3.473  10.742
73519W        W44119  16.101  13.448  11.527
73520W        W44120  22.831  24.505  12.503
73521W        W44121  21.111  37.077   2.152
73522W        W44122  17.351   1.647  11.651
73523W        W44123   8.976  10.254  10.751
73524W        W44124  28.964  42.034  11.509
73525W        W44125  42.727  31.073   1.781
73526W        W44126  25.656  31.068  11.059
73527W        W44127  33.564   5.684   1.804
73528W        W44128  30.465  26.567  14.994
73529W        W44129   3.662  32.977   4.390
73530W        W44130  33.436  19.570  13.968
73531W        W44131  33.884  20.724  14.541
73532W        W44132  34.028  24.955  14.959
73533W        W44133  36.528  17.638   0.030
73534W        W44134  32.393  40.532   0.375
73535W        W44135   5.145  41.473   1.649
73536W        W44136  20.536   7.466  11.948
73537W        W44137  38.846   4.236   4.553
73538W        W44138  38.963  38.397   3.746
73539W        W44139  36.262  26.884   1.203
73540W        W44140   9.740  29.639   0.963
73541W        W44141   2.783  39.108  10.668
73542W        W44142  41.971  29.894   3.828
73543W        W44143  37.347  22.525  14.841
73544W        W44144  18.042  42.386   1.349
73545W        W44145  24.730  35.451   4.754
73546W        W44146  15.943  17.202  12.456
73547W        W44147  32.907  18.656   0.230
73548W        W44148   3.242  18.395  12.972
73549W        W44149  26.585  11.025  13.378
73550W        W44150  30.965  10.882  14.581
73551W        W44151  10.137  30.130   4.731
73552W        W44152  30.451  42.037  10.961
73553W        W44153  13.556  31.154  14.862
73554W        W44154  19.648  13.692   1.901
73555W        W44155  40.493   0.513   0.265
73556W        W44156  26.676  37.352  12.954
73557W        W44157   0.538  18.044   1.718
73558W        W44158  18.165  44.692   0.352
73559W        W44159  19.383  32.168   2.874
73560W        W44160  16.815  11.424   4.188
73561W        W44161  33.626  28.476   1.954
73562W        W44162  21.603  34.752   4.626
73563W        W44163  24.165  44.496   1.261
73564W        W44164  33.443  30.390  12.383
73565W        W44165   7.488  24.238  13.608
73566W        W44166  24.477  17.951  10.686
73567W        W44167  17.840   7.331  11.378
73568W        W44168   5.896  24.293  14.344
73569W        W44169   9.850  17.363   4.252
73570W        W44170  37.893  42.684   0.862
73571W        W44171  35.971  19.455   1.708
73572W        W44172  23.687  34.768  11.595
73573W        W44173   5.639   6.952   0.006
73574W        W44174  17.034  11.209   4.605
73575W        W44175  35.123  38.155  11.530
73576W        W44176  31.035   3.371   1.232
73577W        W44177  44.788  43.443   2.765
73578W        W44178  17.064  28.220   3.720
73579W        W44179   3.306   9.930   0.911
73580W        W44180  26.523  40.039  12.928
73581W        W44181  21.708  10.432  11.099
73582W        W44182  22.019  21.227   0.374
73583W        W44183  40.491  29.051  13.326
73584W        W44184  44.501  23.760   2.330
73585W        W44185  14.602  22.671  11.244
73586W        W44186  27.556  11.235   0.723
73587W        W44187  14.756  22.735   4.703
73588W        W44188   3.227   9.430   0.775
73589W        W44189   5.866   0.752   1.684
73590W        W44190   5.908  31.416   4.071
73591W        W44191   5.991  29.487  13.219
73592W        W44192  37.406  11.781  13.648
73593W        W44193  38.866  32.353  12.069
73594W        W44194  41.558  16.214   0.956
73595W        W44195   2.958  12.806  12.188
73596W        W44196  29.660  19.966   4.660
73597W        W44197  11.632  32.621   3.784
73598W        W44198  25.003  35.860   3.724
73599W        W44199  22.779   8.543  13.786
73600W        W44200  10.246  27.835  14.270
73601W        W44201  40.342  28.006   0.454
73602W        W44202  26.523  19.600  10.305
73603W        W44203  18.652  18.044   1.201
73604W        W44204  32.540  42.977   1.885
73605W        W44205  30.039  39.026   3.684
73606W        W44206  42.080   7.617  11.338
73607W        W44207  10.589  27.887   3.652
73608W        W44208   9.857  25.249  14.756
73609W        W44209  28.522   9.150   1.253
73610W        W44210  24.038  40.397  12.462
73611W        W44211  36.683  22.507   0.682
73612W        W44212  44.956   1.882   3.081
73613W        W44213  44.514  39.152  11.257
73614W        W44214  18.836  36.851   2.900
73615W        W44215  13.890  19.282  11.615
73616W        W44216  43.117  21.066   0.214
73617W        W44217  41.671  44.825   3.853
73618W        W44218  17.664  10.631   1.953
73619W        W44219  23.723  13.656   1.920
73620W        W44220  34.966  28.969   2.702
73621W        W44221  10.230  15.225   4.624
73622W        W44222  25.190  23.229   1.413
73623W        W44223  38.668  32.999   2.386
73624W        W44224  26.189  18.870  10.984
73625W        W44225  30.036  44.662   4.313
73626W        W44226  16.760  16.644  14.876
73627W        W44227   9.865  44.539  10.822
73628W        W44228   3.829   5.291   2.507
73629W        W44229  33.128   4.799  13.791
73630W        W44230   6.236  42.702   0.210
73631W        W44231   5.420  33.420  13.334
73632W        W44232  17.936  35.940  11.640
73633W        W44233  33.538   9.946   4.313
73634W        W44234  21.553  43.650  14.992
73635W        W44235  33.051  22.741  14.493
73636W        W44236   6.043   1.933  10.278
73637W        W44237  40.876  38.351   2.771
73638W        W44238  20.779  36.657  14.643
73639W        W44239  17.100  34.735  11.944
73640W        W44240  26.497  27.639  12.543
73641W        W44241  20.486  18.152  11.506
73642W        W44242  31.691   1.861   1.765
73643W        W44243  18.129  23.069   2.346
73644W        W44244   6.815  19.886  13.556
73645W        W44245  25.230  24.016  10.639
73646W        W44246  21.724  43.108   3.791
73647W        W44247  42.945   5.225  14.053
73648W        W44248  24.306  12.689   1.130
73649W        W44249   1.232  43.997   0.238
73650W        W44250  21.089  13.808   2.647
73651W        W44251  13.358  21.206  10.686
73652W        W44252  30.968  22.785  11.735
73653W        W44253  12.218  17.097  10.500
73654W        W44254  22.610  15.664  10.957
73655W        W44255  31.086  32.640   2.193
73656W        W44256   6.379   6.882   2.053
73657W        W44257  40.460  12.886  14.946
73658W        W44258  27.204  15.113  10.638
73659W        W44259  10.138  33.134  11.487
73660W        W44260  33.608  26.998   3.971
73661W        W44261  21.153  19.295   1.668
73662W        W44262  33.596  34.884  11.382
73663W        W44263   8.632  30.985   4.163
73664W        W44264  37.807  40.723  14.088
73665W        W44265  19.729  24.455   4.129
73666W        W44266  33.422  37.130  12.728
73667W        W44267  39.031  14.088   1.808
73668W        W44268  21.725   5.931  14.104
73669W        W44269  11.584   5.621  13.504
73670W        W44270  17.270   8.308  13.674
73671W        W44271  39.808   3.740  10.188
73672W        W44272  19.880  40.287   1.651
73673W        W44273   0.396   2.995  10.552
73674W        W44274   5.738   6.853   1.251
73675W        W44275  23.039   1.855  11.654
73676W        W44276  13.225  22.900  14.064
73677W        W44277  11.352   7.989  10.540
73678W        W44278  35.863   7.144  11.954
73679W        W44279  23.627  19.513   1.455
73680W        W44280  11.281   2.460  13.898
73681W        W44281   2.390  23.778   2.071
73682W        W44282   1.590  43.217  11.987
73683W        W44283  16.820  31.057  11.139
73684W        W44284  28.555   4.725  10.618
73685W        W44285  11.386  15.097   3.289
73686W        W44286  12.057  44.960  12.675
73687W        W44287  21.335   1.070  10.312
73688W        W44288  30.452   6.763   4.245
73689W        W44289  12.289   6.674  12.515
73690W        W44290  38.123  18.698   1.830
73691W        W44291   4.069   8.287   2.655
73692W        W44292  29.501  28.207  13.784
73693W        W44293  31.939   4.907  12.283
73694W        W44294  36.692  25.498   1.127
73695W        W44295  26.984  34.667   2.777
73696W        W44296  10.872   0.704  13.856
73697W        W44297  25.010  22.257  10.103
73698W        W44298  30.040  25.155  10.739
73699W        W44299  15.815   3.856   0.397
73700W        W44300  32.625  24.469   2.420
73701W        W44301  24.023   3.755   2.885
73702W        W44302   4.392  15.764   0.915
73703W        W44303  30.544  34.619   4.384
73704W        W44304  37.623   7.170   1.197
73705W        W44305  15.132  33.476  13.465
73706W        W44306   6.221  17.610   0.498
73707W        W44307  16.251  29.386  10.346
73708W        W44308  15.647  40.782  10.953
73709W        W44309  22.317  22.553  13.514
73710W        W44310  42.584  43.026   0.530
73711W        W44311  27.470  17.531  14.919
73712W        W44312   4.884  35.644   2.745
73713W        W44313   5.674  10.115   4.023
73714W        W44314   6.357  29.212   2.423
73715W        W44315   5.861   1.701   1.935
73716W        W44316  43.992  17.667   4.026
73717W        W44317  23.548  37.945   4.894
73718W        W44318  15.373   7.998   4.834
73719W        W44319  27.098  19.384  11.950
73720W        W44320  17.203  20.779   4.940
73721W        W44321   9.554  15.782   3.255
73722W        W44322  39.298  32.599  10.723
73723W        W44323  38.221   7.267  14.851
73724W        W44324  36.338  44.765   3.959
73725W        W44325  44.396  17.061  13.447
73726W        W44326  25.201  37.946  12.568
73727W        W44327  20.159  40.860   0.813
73728W        W44328  13.127   6.925   3.463
73729W        W44329  17.074  16.875  13.531
73730W        W44330  44.740  32.116  13.355
73731W        W44331  38.769  35.925   3.295
73732W        W44332  39.225  15.276   1.341
73733W        W44333  36.718  13.494   3.193
73734W        W44334  31.551  12.215   1.241
73735W        W44335  43.224  29.735   3.114
73736W        W44336  28.696   3.280   1.708
73737W        W44337   0.789  36.759  13.571
73738W        W44338  28.942  42.111   2.557
73739W        W44339  33.758  26.860  14.053
73740W        W44340   1.499  19.070  14.018
73741W        W44341  16.041  37.788  11.120
73742W        W44342  28.845  22.577   4.002
73743W        W44343  39.802  43.739  10.829
73744W        W44344  27.905  37.976  10.503
73745W        W44345  42.328  31.634  14.878
73746W        W44346  16.330   3.331  14.960
73747W        W44347  12.059  25.571  12.499
73748W        W44348   0.361  17.342   0.311
73749W        W44349   9.559  11.336   3.521
73750W        W44350  16.800  17.807   4.374
73751W        W44351  19.055  36.236   0.715
73752W        W44352  30.061  30.512   0.733
73753W        W44353  37.349  26.553   3.738
73754W        W44354  20.202  21.226  13.135
73755W        W44355  40.102   9.860   2.846
73756W        W44356  36.446  30.207  13.041
73757W        W44357  19.193   5.813   0.757
73758W        W44358  35.498   4.990  11.587
73759W        W44359  27.440  11.159  14.408
73760W        W44360  33.378   3.857   1.239
73761W        W44361   6.272   2.976  13.143
73762W        W44362   8.367  34.854  10.547
73763W        W44363  16.192  38.481  10.716
73764W        W44364  12.650  17.213   0.550
73765W        W44365  44.294   0.760  12.346
73766W        W44366  16.931  37.956   0.402
73767W        W44367   6.341  16.827  11.094
73768W        W44368  32.848   8.873   1.309
73769W        W44369  19.700  12.140   3.780
73770W        W44370  19.965   9.812  11.952
73771W        W44371  10.484   0.159  13.382
73772W        W44372  28.690  32.567  11.617
73773W        W44373   2.932  21.761   4.277
73774W        W44374  10.235  40.101  11.640
73775W        W44375  38.794   6.670  11.967
73776W        W44376  34.167  39.608  14.434
73777W        W44377  16.958  39.839  13.410
73778W        W44378  32.993   0.915   3.733
73779W        W44379  35.556  28.989  10.628
73780W        W44380  38.996  38.416  12.069
73781W        W44381  31.654  15.767   2.337
73782W        W44382  38.822  33.502  12.044
73783W        W44383  13.064   5.375   4.255
73784W        W44384  43.255   6.712   1.314
73785W        W44385  33.076  30.027   0.395
73786W        W44386  41.561  42.933  14.400
73787W        W44387  28.088  15.629   3.308
73788W        W44388  39.897  11.213   1.718
73789W        W44389  40.035  39.271  13.351
73790W        W44390  19.719  34.861   0.791
73791W        W44391  42.150  23.537  12.412
73792W        W44392  21.520  29.016   4.123
73793W        W44393  10.339  10.133   3.268
73794W        W44394  42.948   7.466  11.920
73795W        W44395  35.950  39.423  14.357
73796W        W44396   6.917  15.852   2.957
73797W        W44397  42.312  36.910   1.832
73798W        W44398  19.694   8.831   1.219
73799W        W44399  13.291  43.404  12.365
73800W        W44400  14.718   8.105   2.304
73801W        W44401  29.736  21.614   0.702
73802W        W44402  26.163  20.610  14.715
73803W        W44403  14.905  30.485   1.712
73804W        W44404  40.753   8.799   4.625
73805W        W44405  44.290  34.669   2.672
73806W        W44406  29.749  14.611   0.017
73807W        W44407  32.878  27.178  12.787
73808W        W44408  14.567  12.837   5.323
73809W        W44409  38.798  38.443  10.308
73810W        W44410  34.376  20.307   2.237
73811W        W44411  33.458   3.540  13.426
73812W        W44412  12.328  38.555  12.448
73813W        W44413  10.335  12.438  14.313
73814W        W44414  41.007  10.207   1.367
73815W        W44415  25.734  31.653  14.403
73816W        W44416  28.003  29.401  11.296
73817W        W44417  12.849  11.104   0.531
73818W        W44418  41.056  44.366   2.797
73819W        W44419  32.785  29.218  12.180
73820W        W44420   6.010  35.641   4.942
73821W        W44421   5.263  30.537   2.598
73822W        W44422  24.938  39.252  13.724
73823W        W44423   2.893   7.845  12.465
73824W        W44424   6.280  32.680  11.598
73825W        W44425  11.754  21.932   0.441
73826W        W44426  19.586  29.644   1.504
73827W        W44427  31.106  23.196  11.367
73828W        W44428  31.680  24.074  14.474
73829W        W44429  21.194  21.717   0.255
73830W        W44430   4.911  30.039   4.917
73831W        W44431  14.615  21.179  13.289
73832W        W44432   0.027  20.233   4.724
73833W        W44433  12.691  33.678   1.169
73834W        W44434  43.081  32.779  10.708
73835W        W44435  36.533   4.722  10.689
73836W        W44436  40.445  11.692  12.046
73837W        W44437   2.090  13.836  11.648
73838W        W44438  44.151  26.160   0.802
73839W        W44439  25.163   6.443  11.713
73840W        W44440   8.494  16.378  12.481
73841W        W44441  43.035  21.050  11.106
73842W        W44442  35.403  16.057  10.810
73843W        W44443  18.011  21.459   1.850
73844W        W44444  24.482  26.608  11.609
73845W        W44445  17.081  39.589  10.749
73846W        W44446  28.306  36.059  12.675
73847W        W44447  31.838  10.287  11.976
73848W        W44448  14.507  25.640   3.265
73849W        W44449  21.743   5.287   4.280
73850W        W44450   5.422  16.037   4.606
73851W        W44451  33.077  21.130  10.946
73852W        W44452  44.769   6.773   4.139
73853W        W44453  41.279  27.056   0.225
73854W        W44454   3.455  30.506   3.216
73855W        W44455  32.092   7.072  13.937
73856W        W44456  22.057  39.754   0.562
73857W        W44457  28.303  15.954   0.735
73858W        W44458  29.112  24.513   4.830
73859W        W44459  25.425  41.852  11.408
73860W        W44460  37.606  37.021  12.542
73861W        W44461   9.819  12.154   0.433
73862W        W44462  17.735  15.519  14.935
73863W        W44463  14.487  19.617   1.340
73864W        W44464  18.594  41.450  13.660
73865W        W44465   4.284   6.853   1.953
73866W        W44466   4.688  13.332  14.778
73867W        W44467  38.084  11.413   1.609
73868W        W44468  33.651   6.196   1.756
73869W        W44469  13.071  32.453   3.954
73870W        W44470  11.910  30.062  11.069
73871W        W44471  26.529  20.295  11.995
73872W        W44472  10.481  29.412  11.600
73873W        W44473  13.310  12.290  10.593
73874W        W44474  25.728   5.889   3.208
73875W        W44475  21.547  22.107   1.217
73876W        W44476  38.685  40.224  10.242
73877W        W44477  25.971  13.617  10.703
73878W        W44478  23.288  10.319   1.621
73879W        W44479  10.778  20.082   0.242
73880W        W44480  15.708  28.602   1.888
73881W        W44481  41.319  41.992  13.405
73882W        W44482  31.497  37.440   4.762
73883W        W44483  10.920  39.442  10.646
73884W        W44484  37.529  15.253  13.196
73885W        W44485  13.114  17.617  13.856
73886W        W44486  37.780  27.630   9.854
73887W        W44487  29.674   3.738  13.983
73888W        W44488  15.688  17.765  14.311
73889W        W44489  36.506  26.063   0.272
73890W        W44490  15.543  30.975  11.579
73891W        W44491  42.939  16.854  14.330
73892W        W44492  41.568   3.494  12.895
73893W        W44493  11.362  43.294   3.249
73894W        W44494  15.647  29.629  11.034
73895W        W44495  18.776   4.831  14.503
73896W        W44496   4.297   5.485   2.769
73897W        W44497  26.219  24.928   0.952
73898W        W44498  41.290   2.618   4.572
73899W        W44499  17.663  31.084   3.079
73900W        W44500  38.957  26.632   0.836
73901W        W44501  35.404  10.832   0.856
73902W        W44502  13.726   9.233   0.482
73903W        W44503  11.888  14.260   0.191
73904W        W44504  35.589  44.022   0.676
73905W        W44505  32.532  30.716   4.598
73906W        W44506  32.304  12.607   2.353
73907W        W44507  33.905  24.282   2.781
73908W        W44508  29.242  12.167  10.672
73909W        W44509  10.255  23.987  11.019
73910W        W44510  18.979  10.571  14.644
73911W        W44511  31.580  12.781   4.179
73912W        W44512   8.024  16.273   3.808
73913W        W44513  24.545  31.650   0.972
73914W        W44514   9.019  27.457   3.326
73915W        W44515  26.111  12.672   3.865
73916W        W44516  18.771  36.083   4.134
73917W        W44517  24.467   5.459  11.174
73918W        W44518  22.735   1.295  14.836
73919W        W44519  29.208   6.774   1.280
73920W        W44520  29.018   0.699   2.287
73921W        W44521  27.203  24.649   3.283
73922W        W44522  15.285  35.641  14.784
73923W        W44523  28.561  21.819  13.837
73924W        W44524   2.678   1.295  12.911
73925W        W44525  42.603  10.988   0.979
73926W        W44526   3.859  34.497  12.570
73927W        W44527  33.521  22.492   1.811
73928W        W44528  15.980  26.053  10.255
73929W        W44529   8.797  35.102  10.375
73930W        W44530  19.512  22.677   2.760
73931W        W44531  27.528  15.232   3.697
73932W        W44532  23.535  26.699   2.678
73933W        W44533  28.245  42.174  13.089
73934W        W44534  10.911  18.088   3.678
73935W        W44535   5.898   7.270  11.160
73936W        W44536  25.223  13.689   0.573
73937W        W44537   9.715  15.077  10.715
73938W        W44538  14.324  21.073  11.513
73939W        W44539  36.290  39.498  14.718
73940W        W44540  39.467  29.165   1.896
73941W        W44541  43.562   8.729  12.145
73942W        W44542  33.170   1.510  11.599
73943W        W44543  16.727  34.535   2.172
73944W        W44544  12.153  27.040   2.371
73945W        W44545  20.747  34.813   2.834
73946W        W44546  23.221  33.856   1.373
73947W        W44547   0.686  39.036  14.786
73948W        W44548  15.600  10.053  11.406
73949W        W44549   4.460  14.472   4.043
73950W        W44550  34.599  17.158   1.701
73951W        W44551  29.825  40.661   2.709
73952W        W44552  21.217  21.722  13.363
73953W        W44553  26.652  13.549   0.330
73954W        W44554  15.901   4.863   3.863
73955W        W44555  33.413  42.841  11.355
73956W        W44556   7.235  29.508   0.784
73957W        W44557  18.766  16.297  11.164
73958W        W44558  42.244  43.428   3.725
73959W        W44559  41.110  14.492   4.974
73960W        W44560  31.996  35.687  13.998
73961W        W44561   4.949   0.646  12.078
73962W        W44562   9.835   1.705   4.812
73963W        W44563   5.050   7.660   5.134
73964W        W44564  42.770  15.358   4.630
73965W        W44565  22.025  30.380  14.897
73966W        W44566  17.188  23.203   3.858
73967W        W44567  27.094   6.320   0.794
73968W        W44568  32.092  37.696  12.633
73969W        W44569  15.442  19.825  13.285
73970W        W44570  16.412  26.273   4.149
73971W        W44571  43.948  11.677  13.037
73972W        W44572   8.543  14.189  10.721
73973W        W44573  24.262  28.725   0.453
73974W        W44574  43.106  40.458   2.184
73975W        W44575  44.251  14.515  10.071
73976W        W44576  42.468  32.599  14.062
73977W        W44577   2.103  33.183   9.589
73978W        W44578  39.748  15.665   2.750
73979W        W44579  11.656  39.729   4.998
73980W        W44580   5.268  40.088  11.896
73981W        W44581  29.477  21.677  11.584
73982W        W44582   0.437   9.419  12.611
73983W        W44583  12.401  24.494  11.067
73984W        W44584  15.601  36.138   4.725
73985W        W44585  37.440  20.559   4.413
73986W        W44586  16.718  17.501   1.372
73987W        W44587  21.670  33.104   0.771
73988W        W44588  10.860  11.910   1.294
73989W        W44589  33.598   6.400   4.068
73990W        W44590  39.119  31.158  10.914
73991W        W44591  16.813  39.760  12.896
73992W        W44592  14.215   4.718  14.401
73993W        W44593  12.594  38.789  13.406
73994W        W44594   8.540  10.440  11.633
73995W        W44595  35.618  42.866  10.567
73996W        W44596  13.084  21.107   4.474
73997W        W44597  27.372  42.658   1.833
73998W        W44598  29.995  30.550  14.740
73999W        W44599  30.216  38.866  12.459
74000W        W44600   4.773  19.975  10.550
74001W        W44601  23.123  35.260   4.958
74002W        W44602  28.423   6.774   1.731
74003W        W44603  13.076  33.566  11.993
74004W        W44604   1.422   4.592   3.543
74005W        W44605  35.987  26.204  11.602
74006W        W44606   9.594  37.357  11.339
74007W        W44607   4.285  43.043  12.879
74008W        W44608  34.584  10.604   4.777
74009W        W44609  14.178  32.495  14.999
74010W        W44610  34.546   2.434   3.257
74011W        W44611  17.739   7.904   2.208
74012W        W44612   2.919  24.064   4.515
74013W        W44613  20.126  30.095  14.098
74014W        W44614   1.915  31.947  12.236
74015W        W44615   9.133  32.717   1.023
74016W        W44616  43.628  21.464  12.069
74017W        W44617  15.307  11.609   3.218
74018W        W44618  10.262  34.137  14.880
74019W        W44619  24.220   4.446  11.096
74020W        W44620  12.759  43.207  12.315
74021W        W44621  24.502  39.389  14.017
74022W        W44622  43.012  22.160  11.670
74023W        W44623  25.576  40.118   3.772
74024W        W44624   7.130   4.800  11.228
74025W        W44625  25.561  14.250  10.943
74026W        W44626  36.557  32.863   0.973
74027W        W44627   8.129  15.454   3.427
74028W        W44628  36.623   8.147  12.869
74029W        W44629  21.682  43.302   4.317
74030W        W44630   4.292  38.639   1.411
74031W        W44631  20.940  23.516   0.446
74032W        W44632  23.497  24.679   0.407
74033W        W44633  12.485  21.588   0.296
74034W        W44634  39.498   3.477  11.588
74035W        W44635  15.724  35.571   1.996
74036W        W44636   6.403  36.279  13.004
74037W        W44637   7.236  10.314   0.616
74038W        W44638  16.669  42.898  13.969
74039W        W44639  35.885  28.742   0.226
74040W        W44640   3.145  26.622   4.184
74041W        W44641  20.983  40.257  13.670
74042W        W44642   7.792   3.853  12.506
74043W        W44643   4.975  29.904  13.888
74044W        W44644  39.306  35.410   4.279
74045W        W44645   1.081  34.781  13.279
74046W        W44646  40.084  24.933  10.715
74047W        W44647   2.336  36.649  14.789
74048W        W44648   7.203  22.503   1.898
74049W        W44649  43.062  43.989   1.107
74050W        W44650  36.825   6.242  14.826
74051W        W44651  34.182   9.112  14.834
74052W        W44652  16.110   4.827  13.865
74053W        W44653  44.605  15.638  12.021
74054W        W44654   1.856   6.356   2.625
74055W        W44655  37.313  20.091  14.952
74056W        W44656  12.859  37.386   2.907
74057W        W44657  36.130  39.462   0.633
74058W        W44658  23.510  27.536   0.960
74059W        W44659  40.863  27.193   2.810
74060W        W44660   3.773  37.087   2.623
74061W        W44661  41.763   6.628   1.362
74062W        W44662  23.525  33.538   2.768
74063W        W44663  26.592   7.904   3.833
74064W        W44664  16.161  44.079   4.111
74065W        W44665  15.012  16.771  11.583
74066W        W44666   1.193  26.523   2.641
74067W        W44667   6.988  11.848  13.103
74068W        W44668  15.205   6.558   1.440
74069W        W44669   9.562  19.096   4.336
74070W        W44670   3.643  34.603  14.954
74071W        W44671   1.831  41.322   3.441
74072W        W44672  31.991  25.093   1.491
74073W        W44673   8.142  41.212  12.583
74074W        W44674  27.119  11.448  13.063
74075W        W44675  31.163  37.255   1.226
74076W        W44676   6.973  12.371   1.187
74077W        W44677  27.868   3.695   0.902
74078W        W44678   5.520  13.570   3.618
74079W        W44679  44.051  43.261  12.973
74080W        W44680  17.195  40.804   4.570
74081W        W44681   1.383  18.690  10.686
74082W        W44682  20.232  16.604  11.124
74083W        W44683  11.749   1.280   4.673
74084W        W44684   5.865   9.648   3.722
74085W        W44685  29.552  44.949   1.672
74086W        W44686  13.603   2.017  10.465
74087W        W44687  28.095  38.360  14.127
74088W        W44688   5.683  29.761   2.673
74089W        W44689   9.801  31.394  12.299
74090W        W44690   0.403  31.621  13.015
74091W        W44691  25.119  34.867   3.669
74092W        W44692  43.477   0.427  12.666
74093W        W44693  39.722   4.200   4.219
74094W        W44694  27.887  37.380  11.281
74095W        W44695   7.687  42.519  13.446
74096W        W44696  33.509  10.659  11.037
74097W        W44697  39.985   4.131   0.448
74098W        W44698  26.058  12.724  13.233
74099W        W44699  30.262  33.428  12.073
74100W        W44700  21.159   3.882  13.068
74101W        W44701   7.381   0.986   3.689
74102W        W44702  12.207   6.227   3.063
74103W        W44703  16.098  35.848  12.970
74104W        W44704  21.873  30.898  14.985
74105W        W44705  24.500   4.715  13.812
74106W        W44706  22.069  10.107  14.917
74107W        W44707  19.771   7.760  11.528
74108W        W44708  14.854  27.799  10.612
74109W        W44709  19.629  10.409  13.990
74110W        W44710  36.054  11.060  10.893
74111W        W44711   7.685  33.957   4.300
74112W        W44712  27.724  34.017   4.326
74113W        W44713  44.700   5.051   3.156
74114W        W44714  36.892  20.190  13.535
74115W        W44715   8.009  24.228  12.601
74116W        W44716  14.218  19.965   3.853
74117W        W44717  33.114  19.168  14.033
74118W        W44718   9.922  36.191   4.950
74119W        W44719  41.992   3.669  14.017
74120W        W44720  16.681  39.680  13.852
74121W        W44721  19.723  20.237  12.442
74122W        W44722  11.432  37.431  14.634
74123W        W44723  42.703  34.409  13.052
74124W        W44724  39.890  27.660   4.366
74125W        W44725  28.593   1.661  14.379
74126W        W44726  29.208  17.160   1.752
74127W        W44727   0.440   1.032  14.929
74128W        W44728  11.696   1.308  11.468
74129W        W44729  43.368   3.644   5.003
74130W        W44730  39.315  15.689   2.404
74131W        W44731  20.289  23.715   5.030
74132W        W44732  40.334   8.228   1.619
74133W        W44733  14.528  30.406   1.304
74134W        W44734  26.940  16.061   0.771
74135W        W44735  33.479  39.950   9.806
74136W        W44736   1.955   5.646   3.859
74137W        W44737  34.236   1.017  11.326
74138W        W44738   2.001  38.665   0.353
74139W        W44739  17.998  26.588   3.195
74140W        W44740  13.790  20.193   4.046
74141W        W44741  25.276  29.404  10.328
74142W        W44742  27.741  33.922  11.987
74143W        W44743  29.640   1.390   4.870
74144W        W44744   7.506  40.516  14.826
74145W        W44745   3.287  29.741  10.576
74146W        W44746  26.008  19.193  13.481
74147W        W44747  18.988  19.314  11.583
74148W        W44748  16.602  35.402  12.538
74149W        W44749   3.715  27.707   4.489
74150W        W44750  22.087  13.231  13.042
74151W        W44751  30.938  28.129  10.637
74152W        W44752  43.824  34.406   2.754
74153W        W44753  32.772  11.962  11.088
74154W        W44754  34.423  20.085   1.766
74155W        W44755  43.816  25.569   2.901
74156W        W44756  39.887  16.646   0.564
74157W        W44757  28.820  19.137   3.706
74158W        W44758  14.970  37.322   0.845
74159W        W44759  27.490  11.834   2.395
74160W        W44760  27.477  43.511   4.042
74161W        W44761  33.064  19.785  14.779
74162W        W44762  30.099  18.295   3.149
74163W        W44763   2.445  30.398   3.654
74164W        W44764  38.989  37.400   0.357
74165W        W44765  29.536  39.417   1.298
74166W        W44766  19.202  38.413   4.162
74167W        W44767   9.744  44.252   4.079
74168W        W44768   8.896  30.517  14.707
74169W        W44769  10.228  35.124   3.625
74170W        W44770  19.983  39.383  12.575
74171W        W44771  34.172  27.267   3.185
74172W        W44772  24.340   4.619  12.957
74173W        W44773  32.821  29.631   0.190
74174W        W44774  10.287   7.442   0.350
74175W        W44775  37.341  42.411  12.631
74176W        W44776   8.886  39.484   3.377
74177W        W44777  21.052  42.796   4.219
74178W        W44778  12.889  31.556   0.989
74179W        W44779  27.964  39.370  11.513
74180W        W44780  31.140   6.256   0.825
74181W        W44781  41.366  32.222  12.955
74182W        W44782  25.027  15.803   2.678
74183W        W44783   6.662  35.413   2.184
74184W        W44784  27.217  22.517   0.763
74185W        W44785  44.268  37.008   0.302
74186W        W44786   3.259  30.117  12.829
74187W        W44787  24.724  10.879   3.807
74188W        W44788  37.831  23.971   3.238
74189W        W44789   4.209  42.490  14.937
74190W        W44790  18.953   4.328  14.686
74191W        W44791  36.994  17.762   1.798
74192W        W44792   7.672  38.676   3.155
74193W        W44793  22.672  30.447  11.324
74194W        W44794   0.497  16.353   2.655
74195W        W44795  32.530  13.276   4.659
74196W        W44796  30.136  28.892   0.430
74197W        W44797   5.480   9.957   3.578
74198W        W44798  24.270  42.247  14.830
74199W        W44799   6.985  21.184   1.893
74200W        W44800   1.175  10.678   1.701
74201W        W44801  28.748  31.957  13.233
74202W        W44802   5.767   8.609   2.609
74203W        W44803  20.268   5.816   3.767
74204W        W44804  27.362  25.887  14.310
74205W        W44805  18.733  22.565  10.854
74206W        W44806  43.903  10.573  14.439
74207W        W44807   2.104  20.999   3.381
74208W        W44808  28.475   1.772  11.608
74209W        W44809  37.006  33.513   4.112
74210W        W44810  10.440  21.508  14.037
74211W        W44811  19.824  42.787   3.649
74212W        W44812  15.114  24.338   3.645
74213W        W44813  30.147  30.167   3.380
74214W        W44814  26.451  15.296  11.611
74215W        W44815  20.173  30.458  12.452
74216W        W44816   4.171  43.409   0.961
74217W        W44817  11.246  28.130  11.171
74218W        W44818   0.405   6.753  13.076
74219W        W44819   6.796  25.715  12.512
74220W        W44820  41.869   5.882   0.681
74221W        W44821  29.174  22.617   3.064
74222W        W44822  19.553  11.494  13.480
74223W        W44823  23.676  14.090  11.160
74224W        W44824  19.936  43.160  12.474
74225W        W44825  18.318   1.227   0.374
74226W        W44826  44.985  21.343   2.373
74227W        W44827  43.026  21.737  11.962
74228W        W44828  10.247  26.736  13.073
74229W        W44829  37.290  11.224   1.035
74230W        W44830  15.241   8.907   4.507
74231W        W44831  44.895   7.536   1.658
74232W        W44832  35.542  36.232  11.154
74233W        W44833   8.421   9.357  12.608
74234W        W44834  16.338  44.298  12.441
74235W        W44835  36.457  28.047  13.732
74236W        W44836  44.807  42.369   2.782
74237W        W44837  44.537  41.588   0.008
74238W        W44838  43.789  39.937  13.352
74239W        W44839  39.493  34.015  12.421
74240W        W44840  25.264  23.740   0.198
74241W        W44841   3.534  14.876   3.692
74242W        W44842  20.222  41.424  14.477
74243W        W44843  38.586  27.822  11.803
74244W        W44844  27.340  44.293  14.354
74245W        W44845   1.442  41.336   4.736
74246W        W44846  15.732  37.596  13.884
74247W        W44847   2.225  20.138  14.044
74248W        W44848  15.626  25.608  11.630
74249W        W44849  31.916  18.081   0.558
74250W        W44850  31.399  29.454  13.440
74251W        W44851  35.312  33.301   4.226
74252W        W44852  30.523  41.547  14.372
74253W        W44853  23.175  27.690   3.599
74254W        W44854  19.958  25.119   3.334
74255W        W44855   9.863  18.051   1.782
74256W        W44856  41.857   0.897  11.995
74257W        W44857  16.769  20.781  13.967
74258W        W44858  10.337  23.294   9.881
74259W        W44859  27.941  37.088  10.636
74260W        W44860   4.702  40.794   0.985
74261W        W44861  14.608  25.118   4.204
74262W        W44862  16.523  12.495   0.200
74263W        W44863  27.987  38.837   0.691
74264W        W44864  22.271   7.635   1.438
74265W        W44865  25.178  25.067   0.146
74266W        W44866  35.572  40.242   3.744
74267W        W44867   9.164  38.059   2.329
74268W        W44868  33.990   3.368  12.095
74269W        W44869  13.952  23.665  12.077
74270W        W44870   6.810  19.252   1.578
74271W        W44871  24.397   3.899  13.434
74272W        W44872   9.310  40.602   1.254
74273W        W44873  42.909  12.203  11.072
74274W        W44874  35.618  21.639   0.038
74275W        W44875  15.023  13.180  10.969
74276W        W44876  32.019   0.038   0.283
74277W        W44877  15.035   5.295   1.416
74278W        W44878  40.137  32.637   2.759
74279W        W44879  26.605  15.122   4.132
74280W        W44880   7.486  43.315  14.472
74281W        W44881  20.982  28.172  10.715
74282W        W44882   9.712  13.532   2.484
74283W        W44883  17.818  31.534   2.866
74284W        W44884  35.892  44.586  11.181
74285W        W44885  42.421  36.097   0.671
74286W        W44886   0.459   7.865   3.680
74287W        W44887  43.023  20.077   2.762
74288W        W44888  21.799  43.853  14.212
74289W        W44889  24.014  19.846  10.682
74290W        W44890   3.693  32.987   2.774
74291W        W44891  26.899   8.823   5.099
74292W        W44892  40.893   9.611  12.971
74293W        W44893  26.137  41.397  11.196
74294W        W44894  12.156  27.388  12.878
74295W        W44895  19.174  34.041   5.611
74296W        W44896  20.103  21.648  10.504
74297W        W44897  39.205  27.223  10.773
74298W        W44898  38.814  36.101   2.300
74299W        W44899   1.746  21.347   3.192
74300W        W44900  13.088  34.466  14.935
74301W        W44901   6.658  20.685  13.986
74302W        W44902   0.075  34.187   2.673
74303W        W44903  18.747  32.544  14.433
74304W        W44904  13.951  37.051   1.846
74305W        W44905  42.552   5.618   2.521
74306W        W44906  42.790   6.949  13.308
74307W        W44907  28.171  34.789  11.725
74308W        W44908  35.919  21.751   1.002
74309W        W44909  35.491  34.381   3.307
74310W        W44910   4.479  35.318  14.062
74311W        W44911  26.086  34.025  12.989
74312W        W44912  15.772  31.640  14.636
74313W        W44913   6.959  22.667   2.786
74314W        W44914  14.559  18.226   4.565
74315W        W44915   0.788   1.644   1.766
74316W        W44916  43.297  30.080  12.367
74317W        W44917  25.200  30.157  14.231
74318W        W44918  40.297  35.651  11.502
74319W        W44919  23.113  39.603   1.479
74320W        W44920  21.196  23.491  13.277
74321W        W44921  33.339  11.096  14.769
74322W        W44922  25.581  36.439  12.511
74323W        W44923   4.332  41.556   3.386
74324W        W44924  12.579   9.658   4.746
74325W        W44925  16.269  39.070  10.887
74326W        W44926  26.501   9.190   4.787
74327W        W44927  27.426  10.120  10.950
74328W        W44928  12.620   1.300  14.021
74329W        W44929  44.360  17.193   2.388
74330W        W44930  15.294  19.216   3.264
74331W        W44931  30.693   0.880  14.376
74332W        W44932  27.634  31.984   2.290
74333W        W44933   2.375  39.814   1.190
74334W        W44934   3.447  21.328   1.773
74335W        W44935  40.867   8.261   1.235
74336W        W44936  20.970  31.686  13.482
74337W        W44937  39.416  25.427   2.870
74338W        W44938  23.045  13.126   3.262
74339W        W44939   1.262   4.302  10.911
74340W        W44940  41.466  41.995   4.166
74341W        W44941   6.711  32.465   1.910
74342W        W44942  38.164  13.150   0.031
74343W        W44943   2.058  29.540  14.302
74344W        W44944  40.551   6.600  12.489
74345W        W44945  44.354  33.458  13.698
74346W        W44946  12.555  22.777  11.231
74347W        W44947   8.847  22.954   2.669
74348W        W44948  14.821  24.319  13.496
74349W        W44949  17.156  35.059   3.709
74350W        W44950  29.049  36.928   4.327
74351W        W44951  20.545  35.549  14.206
74352W        W44952  31.689  23.541  12.296
74353W        W44953  37.425   4.708  12.865
74354W        W44954  40.544  32.156  10.348
74355W        W44955  18.644  12.754   2.631
74356W        W44956  22.179  36.649   2.305
74357W        W44957  13.263  21.469  11.875
74358W        W44958  40.057   6.422   1.721
74359W        W44959  25.560  14.330  10.391
74360W        W44960  37.061  12.556   3.233
74361W        W44961  26.396  37.918   4.339
74362W        W44962  22.778  11.808  11.191
74363W        W44963   9.230   6.414   2.821
74364W        W44964  22.144  42.495  14.945
74365W        W44965  29.207  32.799  14.917
74366W        W44966  40.445  19.776  13.382
74367W        W44967   4.330  22.725   1.251
74368W        W44968  38.292  37.061   3.755
74369W        W44969  42.979  12.435   3.813
74370W        W44970  40.377   6.753  14.530
74371W        W44971  36.094  38.889   1.455
74372W        W44972  38.385  12.762   2.654
74373W        W44973  42.315  14.812  14.970
74374W        W44974  30.540  34.933   0.641
74375W        W44975   5.801  40.713   0.929
74376W        W44976  16.861  41.198  12.765
74377W        W44977   0.690  31.381  11.957
74378W        W44978  36.101   3.606   3.075
74379W        W44979  17.641  40.531  14.426
74380W        W44980  13.940   8.161   3.391
74381W        W44981  33.180  14.227  11.470
74382W        W44982  35.143  11.223   0.254
74383W        W44983  34.393  15.235  14.364
74384W        W44984  30.525  39.753  12.446
74385W        W44985  35.742   5.406   2.157
74386W        W44986  18.208  12.215   0.948
74387W        W44987  17.786  19.503   5.009
74388W        W44988  14.922  13.870  13.352
74389W        W44989   1.603  14.297   2.418
74390W        W44990   7.138  39.215   3.690
74391W        W44991  43.507  39.927   4.556
74392W        W44992  33.374  31.612  12.621
74393W        W44993   5.845  27.977   3.982
74394W        W44994  21.077  11.364  11.620
74395W        W44995  40.879  10.978  14.130
74396W        W44996  30.623  12.731   3.168
74397W        W44997  16.491   6.756  12.098
74398W        W44998  16.792  27.783  10.270
74399W        W44999  22.057  22.179   0.050
74400W        W45000  16.515   2.858   4.684
74401W        W45001   7.000  30.071  11.979
74402W        W45002  43.756  30.722  14.866
74403W        W45003  43.930  18.835  14.437
74404W        W45004  31.595   6.490   0.802
74405W        W45005  22.589   1.402  12.930
74406W        W45006  32.484  18.561  10.573
74407W        W45007  35.128  22.937   3.808
74408W        W45008   4.101  38.462   0.388
74409W        W45009  24.032  27.956   4.444
74410W        W45010   2.979  20.069  11.444
74411W        W45011   1.438   3.835  11.107
74412W        W45012  20.477  27.127  12.929
74413W        W45013  10.660  27.636   2.699
74414W        W45014   5.407  42.944  10.844
74415W        W45015   3.886  44.277  13.483
74416W        W45016  17.162  17.302  10.262
74417W        W45017  44.740   5.159  10.710
74418W        W45018  20.833  22.615   3.348
74419W        W45019  26.619  37.553   4.081
74420W        W45020  19.218  15.141  13.005
74421W        W45021  19.126  43.508   1.384
74422W        W45022  32.531  14.285  14.642
74423W        W45023  16.696  18.196  11.041
74424W        W45024   4.776   0.845   5.037
74425W        W45025  33.610  12.159   3.100
74426W        W45026  33.411  33.897   1.878
74427W        W45027   4.930  42.416   4.396
74428W        W45028   9.552   6.313   4.119
74429W        W45029  15.318  10.156   0.970
74430W        W45030  17.300   8.272   0.905
74431W        W45031  19.729  16.627  14.439
74432W        W45032  32.436  38.614   1.884
74433W        W45033  32.767   3.284  11.353
74434W        W45034  38.818  26.911   1.255
74435W        W45035   4.895  21.868  14.153
74436W        W45036  34.604  26.952  14.587
74437W        W45037  19.315   3.466   3.775
74438W        W45038  30.775  25.534  11.320
74439W        W45039  10.766  18.662  12.109
74440W        W45040  21.326   5.621  10.912
74441W        W45041   8.081  31.835   2.749
74442W        W45042  27.425  41.442   3.183
74443W        W45043  29.105  24.190  12.606
74444W        W45044  19.581  28.104   0.047
74445W        W45045  44.404  18.530  11.877
74446W        W45046  14.624   1.980   1.790
74447W        W45047  32.961  34.560  10.583
74448W        W45048  20.289  17.360  12.441
74449W        W45049  23.841  12.757   0.900
74450W        W45050  30.918  23.180   1.405
74451W        W45051   4.440  21.436   0.948
74452W        W45052  44.767  26.895  13.972
74453W        W45053  35.807  20.239   2.116
74454W        W45054  31.445  13.873  12.368
74455W        W45055  27.530  25.979  11.971
74456W        W45056  38.951  28.624  14.704
74457W        W45057   2.186  12.110   1.620
74458W        W45058  44.809  42.069  10.601
74459W        W45059  24.008  27.616   1.370
74460W        W45060  10.201  14.170   0.999
74461W        W45061   3.578   3.300  10.360
74462W        W45062   0.987  22.007  14.557
74463W        W45063  34.384   0.809   3.169
74464W        W45064   2.001  27.493  11.077
74465W        W45065  24.513  12.039  13.783
74466W        W45066  23.985  25.713   0.887
74467W        W45067  37.859  41.809  11.627
74468W        W45068   4.530  29.491   4.303
74469W        W45069   9.805  10.814   2.336
74470W        W45070   4.770   2.814   1.420
74471W        W45071  13.555   4.727   3.821
74472W        W45072  39.398  44.761  13.556
74473W        W45073  39.937  42.315  13.539
74474W        W45074  23.072   4.904  10.420
74475W        W45075  31.157   4.209  14.852
74476W        W45076  29.203  17.176  13.547
74477W        W45077  35.414  36.438   3.172
74478W        W45078  17.094   0.409   3.248
74479W        W45079  36.079   2.263  13.973
74480W        W45080  21.501  24.537   3.398
74481W        W45081  20.760  12.961   2.847
74482W        W45082  20.238  30.716   1.868
74483W        W45083  32.098   8.806   0.841
74484W        W45084  12.160   3.279  12.420
74485W        W45085  24.559  40.170   5.149
74486W        W45086  31.434  38.941   3.679
74487W        W45087  16.825  30.668  12.446
74488W        W45088  14.657  12.715   4.502
74489W        W45089  21.151   1.343   1.437
74490W        W45090   2.231  21.688  12.078
74491W        W45091  18.318  19.832  13.490
74492W        W45092  38.712   3.821  11.137
74493W        W45093  19.821  37.403   3.797
74494W        W45094  19.567  44.693   3.117
74495W        W45095  29.651   0.764  11.858
74496W        W45096  26.763   9.363   0.494
74497W        W45097  26.559  17.357  14.487
74498W        W45098  12.719  35.626  13.323
74499W        W45099   7.807  43.435   0.249
74500W        W45100  35.651  18.700  12.475
74501W        W45101   2.847   9.104  14.912
74502W        W45102  40.783  20.581  12.956
74503W        W45103  41.983  32.339  11.116
74504W        W45104  33.865   7.734  12.094
74505W        W45105  40.422  14.829  14.486
74506W        W45106  29.173  24.692  10.687
74507W        W45107  35.068  16.634   0.295
74508W        W45108  37.531  30.718   2.335
74509W        W45109  30.993  43.194  14.909
74510W        W45110  29.267  27.049   3.132
74511W        W45111  36.619  32.114  14.530
74512W        W45112  18.573  17.472  11.194
74513W        W45113  37.355  14.846  10.600
74514W        W45114   9.138   1.835   0.033
74515W        W45115   0.752  40.568  12.418
74516W        W45116  17.216  16.142   4.331
74517W        W45117  15.328  29.899   0.672
74518W        W45118  11.240   6.840   4.621
74519W        W45119  27.098  36.395   4.958
74520W        W45120   6.744   9.863   2.392
74521W        W45121  25.220  28.441   0.529
74522W        W45122  39.987   1.674   0.460
74523W        W45123   8.438  10.610  14.826
74524W        W45124  36.127  21.565  10.972
74525W        W45125  28.729  13.331   4.686
74526W        W45126  22.973  13.037   0.461
74527W        W45127  26.910  35.365   2.406
74528W        W45128  22.656  12.886  14.607
74529W        W45129  37.846  43.303  11.102
74530W        W45130  28.391  24.747  11.229
74531W        W45131  34.870  24.748   1.882
74532W        W45132   6.735  13.621  10.568
74533W        W45133   3.454   2.333   0.309
74534W        W45134   3.432  29.543   5.160
74535W        W45135  23.583  11.837   4.230
74536W        W45136  33.358   3.425  13.920
74537W        W45137  24.776   9.596  12.599
74538W        W45138  37.536  19.801  12.928
74539W        W45139  41.575   1.241   0.301
74540W        W45140  25.920  13.092  13.614
74541W        W45141   8.242  40.367   2.451
74542W        W45142  21.543  19.681  12.480
74543W        W45143  32.825  24.528  14.825
74544W        W45144  23.691   3.780   2.442
74545W        W45145  26.128  17.904   1.483
74546W        W45146  34.154  43.431   4.594
74547W        W45147  32.479  17.315  11.410
74548W        W45148  14.619  22.676  12.022
74549W        W45149  40.777  32.964  10.773
74550W        W45150   1.639   4.091  13.973
74551W        W45151  38.635  11.142   4.993
74552W        W45152  10.848  43.417  10.750
74553W        W45153  14.305  38.009  11.656
74554W        W45154  20.425  35.070  14.398
74555W        W45155  26.972   7.837   1.745
74556W        W45156   8.888  32.879   0.097
74557W        W45157  40.502  14.894  11.576
74558W        W45158  28.163  44.809  11.649
74559W        W45159  15.383  14.222  13.325
74560W        W45160  29.142  17.770   3.597
74561W        W45161  35.388  13.416   2.764
74562W        W45162  44.482   3.207   2.332
74563W        W45163  20.728   3.642   4.760
74564W        W45164  30.463  33.574  11.139
74565W        W45165   3.291  25.109  12.183
74566W        W45166  26.730   8.447   0.889
74567W        W45167   4.259  25.746   3.223
74568W        W45168  39.273   1.317  14.469
74569W        W45169  31.422  34.890   0.905
74570W        W45170  23.233  11.733  14.768
74571W        W45171  15.227   2.945   1.233
74572W        W45172  30.860  19.899   1.372
74573W        W45173  35.364  33.353  10.665
74574W        W45174  16.887  30.397   2.197
74575W        W45175   8.652  15.055  12.486
74576W        W45176   8.710  15.691   3.695
74577W        W45177  13.867  14.657  13.297
74578W        W45178   7.650   6.239  13.339
74579W        W45179   1.824  30.528   4.110
74580W        W45180  33.958  34.071  14.368
74581W        W45181  35.073  28.058   2.873
74582W        W45182  15.076  34.085   2.244
74583W        W45183   0.954  31.502  12.415
74584W        W45184  22.071  13.317   1.745
74585W        W45185  24.552  20.541   2.254
74586W        W45186  17.992  33.347  12.623
74587W        W45187  30.775  26.657  14.370
74588W        W45188  32.297  11.805  13.395
74589W        W45189  25.161   4.774   1.803
74590W        W45190   2.489   6.546   1.397
74591W        W45191  34.892  42.171   1.842
74592W        W45192   3.343  41.686  14.721
74593W        W45193  17.215  29.988   0.966
74594W        W45194  17.441  28.552  13.437
74595W        W45195  21.267   6.307   0.796
74596W        W45196  43.809   6.883  14.610
74597W        W45197  35.570  36.858  14.728
74598W        W45198  32.196   5.837   1.186
74599W        W45199  42.634  30.838   2.696
74600W        W45200  31.466   2.264   2.420
74601W        W45201  37.625  12.718   3.717
74602W        W45202  41.356  33.119  11.081
74603W        W45203  27.680  35.609   2.778
74604W        W45204  30.315   2.356  12.417
74605W        W45205  22.663  40.651  10.347
74606W        W45206   8.057  20.134   0.979
74607W        W45207  17.754  41.540  13.453
74608W        W45208  42.388  21.622   2.830
74609W        W45209  24.765   5.852  14.698
74610W        W45210  42.289  33.120  14.413
74611W        W45211  12.462   5.567   2.411
74612W        W45212  35.806   8.676   2.192
74613W        W45213  44.302  21.626  13.253
74614W        W45214  21.100  37.632   2.736
74615W        W45215  13.215  34.578   2.195
74616W        W45216  41.887  18.554  11.627
74617W        W45217   3.485  31.904  13.925
74618W        W45218  11.671   6.318   1.551
74619W        W45219  38.380   5.984   3.639
74620W        W45220  22.516  43.410  13.276
74621W        W45221  21.989  36.926  12.581
74622W        W45222  36.486  40.963  13.740
74623W        W45223  19.379  20.238   1.347
74624W        W45224  18.305   5.601   0.716
74625W        W45225  34.116  43.398   3.656
74626W        W45226   2.017  25.290  11.710
74627W        W45227  31.632  10.664  11.038
74628W        W45228  37.292  31.948   1.489
74629W        W45229   9.632  41.779  13.462
74630W        W45230  44.469  20.636  12.289
74631W        W45231  22.729   3.498  10.536
74632W        W45232  39.367  17.360   1.879
74633W        W45233  32.340  30.675   2.283
74634W        W45234  43.447  24.969  12.968
74635W        W45235  30.473  14.540   0.516
74636W        W45236  17.179  19.459   3.207
74637W        W45237  15.478  43.801   2.687
74638W        W45238  24.544  43.169   2.410
74639W        W45239   9.776  16.860  13.387
74640W        W45240   5.407   9.100   3.258
74641W        W45241  27.745   8.419  14.315
74642W        W45242   2.039   3.259   2.278
74643W        W45243  18.478   1.300   4.672
74644W        W45244  35.005  33.302  12.132
74645W        W45245  37.590   8.849   3.337
74646W        W45246  29.117  14.907   4.895
74647W        W45247  31.393  20.264  13.433
74648W        W45248  19.147  39.259   1.138
74649W        W45249  39.373  33.899   0.495
74650W        W45250   5.754   3.813  11.262
74651W        W45251  31.102  29.830  11.953
74652W        W45252  33.411  13.540   2.318
74653W        W45253   1.872  26.384   3.839
74654W        W45254   2.767   3.763   1.456
74655W        W45255  22.082  37.802   3.717
74656W        W45256  18.259   4.631   1.206
74657W        W45257  29.666  12.865  12.083
74658W        W45258   2.214  16.027  12.681
74659W        W45259  14.044  19.614   0.436
74660W        W45260  32.583  37.375  12.045
74661W        W45261  44.372   1.938  11.249
74662W        W45262  27.675  19.728  14.208
74663W        W45263  10.328  33.091   3.156
74664W        W45264   9.250   7.074   4.485
74665W        W45265  10.598  40.973  12.058
74666W        W45266  33.833   8.133   0.705
74667W        W45267  14.670  18.511  13.947
74668W        W45268   0.902  16.996   4.565
74669W        W45269   7.218  29.991   3.217
74670W        W45270  42.268  26.626  12.992
74671W        W45271  36.157  32.425  12.387
74672W        W45272   5.568  18.132  10.985
74673W        W45273  41.411  28.625   0.945
74674W        W45274  15.435  33.281  11.543
74675W        W45275  13.192  38.462   4.574
74676W        W45276  34.066  17.183  11.148
74677W        W45277  33.421  35.020  13.830
74678W        W45278  26.789   7.988   4.311
74679W        W45279  33.070   6.166  13.477
74680W        W45280   0.395  10.260   2.192
74681W        W45281  30.595  23.488  10.656
74682W        W45282  10.048  27.675  14.703
74683W        W45283  34.523  35.378  11.478
74684W        W45284  35.231   0.915   0.311
74685W        W45285   1.372  33.845   2.684
74686W        W45286  42.266   3.317   1.377
74687W        W45287  10.131   3.532  14.853
74688W        W45288  26.175  35.424  13.525
74689W        W45289  43.194  31.116   4.572
74690W        W45290  37.965   5.912  13.297
74691W        W45291  22.775   7.426   2.313
74692W        W45292  21.430  14.619  11.067
74693W        W45293  14.909  22.175  12.120
74694W        W45294  12.063  32.569   3.451
74695W        W45295  25.081   5.390  13.993
74696W        W45296  34.610  10.170   0.332
74697W        W45297  31.377  37.919   2.323
74698W        W45298  42.880  42.088  11.996
74699W        W45299  13.755   7.110   1.448
74700W        W45300   7.926   1.034  10.624
74701W        W45301  12.574   4.985   0.761
74702W        W45302  28.963  14.161   0.225
74703W        W45303  23.844  24.219   3.335
74704W        W45304  33.091  31.889   4.809
74705W        W45305  38.432  41.786   2.332
74706W        W45306  11.149  41.314   4.094
74707W        W45307  37.846   8.846   2.883
74708W        W45308   7.066  19.083  13.915
74709W        W45309  25.581  24.959   2.128
74710W        W45310  44.939  36.476   2.669
74711W        W45311   0.056  28.974   1.356
74712W        W45312  42.314  44.764  11.587
74713W        W45313   5.345  34.659   4.096
74714W        W45314  25.269  30.468   1.938
74715W        W45315  37.230   5.825   2.553
74716W        W45316  35.609  15.865   2.165
74717W        W45317  39.249   5.187  13.598
74718W        W45318   5.819  37.363   1.387
74719W        W45319   4.994  42.837   5.145
74720W        W45320  43.968  21.888  12.161
74721W        W45321   6.613  35.401   0.786
74722W        W45322  25.022  35.152   3.237
74723W        W45323  41.716  12.637   0.757
74724W        W45324  26.700  25.775  13.824
74725W        W45325  19.689  31.909   3.409
74726W        W45326  17.834  25.493  11.924
74727W        W45327   5.183  40.479   4.896
74728W        W45328  25.911  29.867  12.854
74729W        W45329   9.381  24.221  11.213
74730W        W45330   1.479  30.630  12.879
74731W        W45331   8.923  20.619   1.142
74732W        W45332  18.098   2.150  12.414
74733W        W45333  21.738  12.080  12.004
74734W        W45334  31.689   7.726  14.251
74735W        W45335   2.522   1.547   0.924
74736W        W45336  20.562  35.901  13.338
74737W        W45337  19.155  24.775   2.605
74738W        W45338  33.911  40.936  12.124
74739W        W45339   9.605  16.076  11.673
74740W        W45340  26.700  13.587  13.846
74741W        W45341  14.119  30.698   4.838
74742W        W45342  42.833  43.122   2.805
74743W        W45343  25.950  15.345   1.511
74744W        W45344  17.154  22.980  14.002
74745W        W45345  28.442  35.038   9.870
74746W        W45346  21.915   1.481   4.152
74747W        W45347  32.083  16.046   1.881
74748W        W45348  40.579  12.824   1.220
74749W        W45349  16.012   0.211  12.108
74750W        W45350  39.294   0.016  12.096
74751W        W45351  38.884  37.781   2.914
74752W        W45352  39.182   9.362  10.415
74753W        W45353  27.841   3.215   4.130
74754W        W45354  18.599  34.555  14.343
74755W        W45355  38.849  13.524  14.815
74756W        W45356  13.270  28.120  14.996
74757W        W45357  29.426  36.025   4.601
74758W        W45358  29.506  12.325   2.676
74759W        W45359  38.700   2.480  11.073
74760W        W45360  42.463   4.910   1.853
74761W        W45361  17.366  10.832   4.450
74762W        W45362  13.785  33.133  10.499
74763W        W45363   0.722  35.420   3.227
74764W        W45364   9.808  20.686   4.456
74765W        W45365  37.732   2.255  11.038
74766W        W45366  43.487   6.700  13.471
74767W        W45367   1.227   8.405  13.800
74768W        W45368  35.883   8.752   1.245
74769W        W45369  31.394   4.377  11.143
74770W        W45370   6.208  24.215   0.779
74771W        W45371   1.347  42.913   3.236
74772W        W45372  11.036  33.744  11.105
74773W        W45373  32.942  11.415   2.854
74774W        W45374  37.979  23.628   3.584
74775W        W45375  42.153  36.394  12.486
74776W        W45376  18.490  32.605  14.941
74777W        W45377  10.180   5.814   2.130
74778W        W45378  30.292  30.032  13.020
74779W        W45379  28.913  13.152  11.636
74780W        W45380  10.277  15.508   1.086
74781W        W45381  35.393  16.671  13.337
74782W        W45382  31.969   9.076   0.390
74783W        W45383  25.003  34.889  14.484
74784W        W45384  10.682   1.179  13.983
74785W        W45385  43.743  33.577   2.815
74786W        W45386  11.900  14.390   3.683
74787W        W45387  36.575   7.937  12.349
74788W        W45388   5.452  20.028   3.705
74789W        W45389  16.172  39.976   1.238
74790W        W45390   4.171  33.059  13.400
74791W        W45391  23.465  37.581  12.158
74792W        W45392  29.990  38.730  11.577
74793W        W45393  38.607  33.847   0.890
74794W        W45394  37.297   9.172   4.253
74795W        W45395  13.636  37.443  12.099
74796W        W45396  14.887  17.654   4.488
74797W        W45397   8.349  16.248  11.973
74798W        W45398   2.768  28.067   1.146
74799W        W45399  38.338  31.923  12.975
74800W        W45400  19.633  12.374   1.533
74801W        W45401   9.312  31.371   1.779
74802W        W45402  33.998  21.110  13.374
74803W        W45403   2.788  12.106   1.351
74804W        W45404  24.611  11.603  11.116
74805W        W45405  32.829  44.343   3.241
74806W        W45406  17.829  44.373   3.424
74807W        W45407  18.332  17.204   4.855
74808W        W45408  34.583   9.317   0.063
74809W        W45409  28.609   3.519  11.950
74810W        W45410  15.817  18.075  11.964
74811W        W45411  21.103   3.915   0.079
74812W        W45412   8.688  22.110  11.256
74813W        W45413  40.403  14.994   3.658
74814W        W45414  10.387  38.893  14.054
74815W        W45415   3.156  38.803  14.956
74816W        W45416  29.886  12.181   2.378
74817W        W45417  37.258   1.857   4.242
74818W        W45418  10.899  26.000  10.505
74819W        W45419   5.735  25.675   1.790
74820W        W45420  27.966  14.656   0.889
74821W        W45421  25.656  24.708   4.074
74822W        W45422  22.197  38.565   4.139
74823W        W45423  16.309  17.930   4.167
74824W        W45424  20.575  28.649   4.308
74825W        W45425  35.620  17.217   0.347
74826W        W45426  41.406   6.460  13.788
74827W        W45427   7.876  33.412   3.951
74828W        W45428  21.547  37.458   2.915
74829W        W45429  18.952   5.904  14.330
74830W        W45430   3.444   9.891  14.858
74831W        W45431  18.672  12.631   3.514
74832W        W45432  23.881  19.686   1.016
74833W        W45433   6.284  11.660  10.669
74834W        W45434  21.315  34.844   1.638
74835W        W45435  40.396  41.594  11.653
74836W        W45436   9.318   0.468  10.800
74837W        W45437  35.431   9.751  13.044
74838W        W45438  37.851  23.926  14.883
74839W        W45439   9.252  42.015   0.288
74840W        W45440  27.759  18.096   1.866
74841W        W45441   7.371  20.667  13.373
74842W        W45442   1.887  13.642   1.334
74843W        W45443  44.118   5.666   4.170
74844W        W45444  31.951  12.230  14.697
74845W        W45445  28.169   4.715   3.862
74846W        W45446   8.724  36.552  13.886
74847W        W45447  27.742  41.821   3.347
74848W        W45448   2.737  14.892  12.592
74849W        W45449  17.160  20.219  10.889
74850W        W45450  30.476  15.114   2.147
74851W        W45451   3.234   4.702  12.483
74852W        W45452   2.210  16.243   2.182
74853W        W45453  38.803   5.564  11.131
74854W        W45454  34.194   4.913   1.387
74855W        W45455  39.870  24.692  14.085
74856W        W45456  38.363  11.410  13.390
74857W        W45457  35.932   2.592   0.315
74858W        W45458  37.255  33.162  11.231
74859W        W45459  40.281  35.587   2.744
74860W        W45460  26.804  19.706  11.254
74861W        W45461  25.647  16.878   0.848
74862W        W45462  23.673   0.362   3.213
74863W        W45463   5.906  19.503  11.377
74864W        W45464  34.817  23.257  14.088
74865W        W45465  13.397  32.023  11.570
74866W        W45466   0.163   3.423  14.470
74867W        W45467  25.456   6.967  14.448
74868W        W45468  32.597  23.169   4.462
74869W        W45469  11.324  30.969  14.055
74870W        W45470  40.307  34.527   3.609
74871W        W45471  17.785  37.601   0.753
74872W        W45472   2.539  23.023  13.441
74873W        W45473  12.782  21.526   1.983
74874W        W45474  22.498   2.530   3.219
74875W        W45475  30.466  36.130  13.007
74876W        W45476  21.760   6.009  14.632
74877W        W45477   2.639  41.327   0.689
74878W        W45478  36.422  39.440  13.797
74879W        W45479   1.490  25.926   1.688
74880W        W45480  40.831   1.896   2.558
74881W        W45481  11.801  20.658  11.468
74882W        W45482  28.435  41.213  13.091
74883W        W45483  40.379  35.974   0.247
74884W        W45484   8.332  13.428  14.484
74885W        W45485  14.136  12.625   1.632
74886W        W45486  39.651   3.252   1.947
74887W        W45487  29.635  17.140   0.972
74888W        W45488  19.262   3.675   4.546
74889W        W45489  38.475  29.440   4.298
74890W        W45490  20.015  17.224   0.909
74891W        W45491  16.822  41.438   0.402
74892W        W45492  23.596  43.443   3.339
74893W        W45493  44.788   3.489  11.198
74894W        W45494  26.882  39.885  10.707
74895W        W45495   9.757  27.082  13.805
74896W        W45496  14.573  23.920  11.302
74897W        W45497   4.872  26.149  11.625
74898W        W45498  20.749  44.067   1.943
74899W        W45499  13.814  33.263   2.639
74900W        W45500   0.175  30.914  12.033
74901W        W45501  24.071  34.486   2.705
74902W        W45502  22.723   0.595  10.751
74903W        W45503  32.024  29.550   2.742
74904W        W45504  19.855  13.249   0.154
74905W        W45505  20.816   2.813  14.359
74906W        W45506  13.941  15.409   3.105
74907W        W45507  18.726  18.686   4.643
74908W        W45508   2.396   4.380   4.139
74909W        W45509  39.001  28.639  10.672
74910W        W45510  36.775  10.900  11.222
74911W        W45511   3.844   8.879   0.352
74912W        W45512  35.366  25.731   1.329
74913W        W45513  19.379  35.581   1.195
74914W        W45514  12.691  10.173   3.229
74915W        W45515  25.389  22.642  10.763
74916W        W45516   0.258  28.235  14.442
74917W        W45517   6.794   5.641   4.092
74918W        W45518   6.921  40.800   2.458
74919W        W45519  38.463  14.101  10.374
74920W        W45520  34.346   1.188   1.433
74921W        W45521  35.160  12.648  11.552
74922W        W45522   2.495  18.055   4.150
74923W        W45523   6.677  40.808   3.343
74924W        W45524  29.196  26.182   1.879
74925W        W45525  37.736   0.944   1.384
74926W        W45526  19.724   7.401  12.275
74927W        W45527  20.498  24.060  10.478
74928W        W45528  35.825  37.628   0.964
74929W        W45529  39.002  11.082   1.788
74930W        W45530  27.113  16.257  13.311
74931W        W45531   9.643  25.880  13.655
74932W        W45532  22.988  43.730   3.213
74933W        W45533  28.167   5.462  13.203
74934W        W45534  37.491  19.914   3.766
74935W        W45535   2.252  39.802   2.407
74936W        W45536  29.664  16.611  13.065
74937W        W45537  38.457   5.198  11.176
74938W        W45538  13.642  28.171   3.923
74939W        W45539   6.601  17.151   3.645
74940W        W45540  43.215  28.634  14.958
74941W        W45541   3.598  11.384  11.513
74942W        W45542  26.915  28.710  12.944
74943W        W45543  40.008  24.663   3.806
74944W        W45544  12.374  41.446   1.498
74945W        W45545  28.544  31.696  14.143
74946W        W45546  24.635  21.706  11.778
74947W        W45547  19.758  10.268  14.481
74948W        W45548  12.409  12.587   0.184
74949W        W45549  32.508   5.523   3.726
74950W        W45550   7.203   3.353   2.666
74951W        W45551   1.418  13.827   1.244
74952W        W45552  25.788   0.821  12.564
74953W        W45553  43.580  37.472  10.979
74954W        W45554  15.199  28.462  11.661
74955W        W45555  23.437  17.692  13.509
74956W        W45556  24.704  33.158   2.599
74957W        W45557  19.248  28.171  13.392
74958W        W45558  10.639  25.533  10.485
74959W        W45559  17.720  43.019   0.358
74960W        W45560  13.346  33.331  10.277
74961W        W45561   4.507  10.604  13.328
74962W        W45562  21.133  31.474  11.655
74963W        W45563   6.403   2.061   0.191
74964W        W45564  42.493  10.661   1.918
74965W        W45565  12.199  30.556   3.271
74966W        W45566  44.800  40.261   0.856
74967W        W45567  10.445  12.304  11.293
74968W        W45568  14.162  36.986   3.383
74969W        W45569   8.401  33.704  12.038
74970W        W45570  16.263  37.151  14.572
74971W        W45571  30.920  17.725   0.995
74972W        W45572   0.296  22.194  12.381
74973W        W45573  35.130  23.813  12.543
74974W        W45574   7.660   3.208   0.219
74975W        W45575   1.252  35.669   4.116
74976W        W45576  39.621  24.573  12.407
74977W        W45577   5.327   6.655  12.108
74978W        W45578   5.215  31.377   1.839
74979W        W45579   5.862  23.340   4.528
74980W        W45580  23.992  17.035   3.578
74981W        W45581   6.354  34.944   0.783
74982W        W45582   2.215  22.651   3.776
74983W        W45583  18.803  36.038   2.905
74984W        W45584  26.387  42.412   2.491
74985W        W45585  31.526  40.961  13.924
74986W        W45586  12.605  34.608  14.834
74987W        W45587  11.584   2.257  13.533
74988W        W45588  13.105  27.900   0.524
74989W        W45589   5.748   3.800  11.763
74990W        W45590  27.525  21.106   4.983
74991W        W45591   6.245  35.175   2.719
74992W        W45592  14.584  17.550   0.993
74993W        W45593  37.812   5.289   4.495
74994W        W45594  21.665  36.376  11.627
74995W        W45595  18.805   0.986   0.428
74996W        W45596  24.545  15.539   2.699
74997W        W45597  40.254  30.392  11.206
74998W        W45598  29.457   3.318   2.269
74999W        W45599  42.354   2.345   0.963
75000W        W45600  38.784  38.151  12.466
75001W        W45601  13.097  11.241   2.540
75002W        W45602   7.247  29.954  11.533
75003W        W45603  11.449  42.393   5.066
75004W        W45604  33.087  13.856   3.194
75005W        W45605  17.188  14.908   5.247
75006W        W45606  42.852  24.897   1.876
75007W        W45607  14.359   2.484  14.736
75008W        W45608  29.257   2.220  11.657
75009W        W45609  37.583  36.089   1.763
75010W        W45610  31.000  31.222  12.562
75011W        W45611  41.606  30.539  10.754
75012W        W45612   9.350  10.297   1.907
75013W        W45613  35.482   6.933  13.770
75014W        W45614   6.344  27.226  10.619
75015W        W45615  11.036  37.212  14.889
75016W        W45616  20.999  32.640   0.459
75017W        W45617  39.256  39.016  14.506
75018W        W45618  36.999  44.588   3.639
75019W        W45619  16.892  37.455   4.951
75020W        W45620  27.452  15.927  11.559
75021W        W45621  12.127  26.098   4.575
75022W        W45622  33.389  44.557  10.638
75023W        W45623  35.074  36.039  13.444
75024W        W45624  19.567  37.411  11.099
75025W        W45625  26.616  28.140  13.878
75026W        W45626  16.830   5.202  14.034
75027W        W45627  32.631   6.822   0.411
75028W        W45628  40.075  26.015   3.736
75029W        W45629  20.703  40.131  12.444
75030W        W45630  42.891   9.430   1.434
75031W        W45631  12.069   5.932   2.363
75032W        W45632  31.078  15.514   0.033
75033W        W45633  28.043  34.831  10.743
75034W        W45634  23.003  27.057  11.544
75035W        W45635   5.881   2.424   0.895
75036W        W45636   6.962   1.232  12.850
75037W        W45637  21.907  32.514   3.773
75038W        W45638  28.583  17.212  14.872
75039W        W45639  34.637  25.751  11.132
75040W        W45640  24.662  30.438   1.235
75041W        W45641  42.585  40.311  14.452
75042W        W45642  10.234  40.791   0.491
75043W        W45643  10.196  37.389  11.854
75044W        W45644  31.536  14.300   2.308
75045W        W45645  12.619  13.669   2.608
75046W        W45646  32.128   6.756   2.082
75047W        W45647  24.748  20.185   0.846
75048W        W45648  38.512  25.772   3.154
75049W        W45649  31.432  25.973   2.220
75050W        W45650  25.534  37.837   1.470
75051W        W45651  15.604  11.866   2.872
75052W        W45652  20.593  33.766  11.294
75053W        W45653  20.711  12.840   0.995
75054W        W45654  28.774  31.518   0.007
75055W        W45655  15.100   7.145   1.105
75056W        W45656  17.732  44.992   0.355
75057W        W45657  22.727  10.569  14.336
75058W        W45658  14.082  17.888  11.983
75059W        W45659  11.367   0.047  10.595
75060W        W45660  31.798  17.069  13.132
75061W        W45661  13.868  20.561   4.821
75062W        W45662  38.924  31.107   0.711
75063W        W45663  13.668  27.499   4.670
75064W        W45664  37.614  20.592  13.473
75065W        W45665  34.041  30.678  12.151
75066W        W45666  18.492  35.997   0.941
75067W        W45667  33.071  42.503  14.805
75068W        W45668   6.546  39.899   0.860
75069W        W45669   4.518  40.437   2.387
75070W        W45670   7.952   8.166   4.721
75071W        W45671  18.128  25.434   4.152
75072W        W45672  14.891  26.929  12.053
75073W        W45673  14.024   7.708   2.213
75074W        W45674   3.531  42.951  13.945
75075W        W45675   0.852  16.525   4.356
75076W        W45676  27.277  18.621   1.265
75077W        W45677   0.417  24.673   1.810
75078W        W45678   8.170  19.051   2.338
75079W        W45679   8.164  23.063  11.048
75080W        W45680  30.155  13.433   5.143
75081W        W45681   9.140  21.591   1.310
75082W        W45682  22.581   0.291  11.713
75083W        W45683   9.758   8.467   1.337
75084W        W45684  15.956  19.844  13.325
75085W        W45685  38.485   6.852   0.922
75086W        W45686  25.170  23.112  13.495
75087W        W45687  26.022  39.374   3.726
75088W        W45688   0.623   9.729   0.027
75089W        W45689  23.753  11.605   3.241
75090W        W45690  29.620   4.790   3.870
75091W        W45691  38.773  15.782  14.354
75092W        W45692  25.457  26.790   0.681
75093W        W45693  43.916   8.399  12.389
75094W        W45694  13.781   8.140  14.175
75095W        W45695  29.385  35.195   1.855
75096W        W45696  14.246  40.534  14.862
75097W        W45697   7.870   2.766   2.370
75098W        W45698  16.874  19.642  13.389
75099W        W45699  11.727  29.957  10.609
75100W        W45700  26.780  15.301  10.362
75101W        W45701  19.101  18.563   2.369
75102W        W45702  18.104  22.612  12.218
75103W        W45703   9.365   2.505  13.008
75104W        W45704  12.260  19.368  12.168
75105W        W45705  28.958  20.090  12.126
75106W        W45706  33.622  28.387   4.570
75107W        W45707   7.749   8.309  10.701
75108W        W45708   8.349  43.828  10.730
75109W        W45709   9.783   3.436  12.572
75110W        W45710  24.062  44.705   0.289
75111W        W45711  24.032  11.360   1.730
75112W        W45712   4.333  40.805   4.413
75113W        W45713  14.168  35.630   1.735
75114W        W45714   5.249  16.768   0.830
75115W        W45715  26.068  12.236   4.662
75116W        W45716  39.101  37.954  11.048
75117W        W45717  17.357  15.394   4.567
75118W        W45718  27.545  39.070  14.983
75119W        W45719  15.245  11.949  13.751
75120W        W45720  37.927  23.524   1.885
75121W        W45721  23.546  29.958  11.595
75122W        W45722  40.272  28.209   2.338
75123W        W45723   6.378  31.862   2.377
75124W        W45724  27.224  32.946  13.362
75125W        W45725  27.262   3.336   0.220
75126W        W45726  10.169  13.626   2.258
75127W        W45727  15.309  21.792  13.961
75128W        W45728  37.958   1.208   1.856
75129W        W45729  21.080   9.429   5.035
75130W        W45730  16.651  41.282  14.824
75131W        W45731   8.199   1.196  11.935
75132W        W45732  41.995  14.556   2.041
75133W        W45733   7.556  19.619  11.870
75134W        W45734  19.847  25.256   1.337
75135W        W45735  35.048   3.327  14.083
75136W        W45736  30.415  38.757   4.990
75137W        W45737  34.468   0.274   1.912
75138W        W45738   3.300   8.130   0.292
75139W        W45739  22.244  20.302  13.404
75140W        W45740   9.254   2.142  11.701
75141W        W45741   8.654  43.239   4.041
75142W        W45742  13.864  15.334   4.483
75143W        W45743  44.233  20.461   1.839
75144W        W45744   4.293  33.053   5.716
75145W        W45745  12.248  22.790  14.964
75146W        W45746  26.188  41.428  13.464
75147W        W45747   7.183   8.206   2.601
75148W        W45748  15.204  29.517   2.776
75149W        W45749  34.464  30.168  12.909
75150W        W45750  18.474  15.409  12.454
75151W        W45751   0.473  16.721   0.327
75152W        W45752   7.922  40.402  11.266
75153W        W45753  40.898  39.806   4.590
75154W        W45754   3.254   2.780   3.851
75155W        W45755   9.330  19.317   1.345
75156W        W45756  40.350  33.739  12.989
75157W        W45757  30.599  24.544   2.242
75158W        W45758  40.417  23.416  11.086
75159W        W45759  23.796  38.568  11.256
75160W        W45760  19.664  30.444  13.464
75161W        W45761  32.734  43.660   4.197
75162W        W45762   6.302  18.522  10.635
75163W        W45763  19.013  44.226  13.017
75164W        W45764  34.320   5.373  13.518
75165W        W45765   9.870  26.720  14.826
75166W        W45766  37.403  29.681  13.924
75167W        W45767  24.483  36.056   1.888
75168W        W45768  34.727  17.557  12.419
75169W        W45769  19.126  18.304   0.858
75170W        W45770  42.935  29.512   1.777
75171W        W45771   1.241   3.884   1.311
75172W        W45772   9.320  42.507  14.555
75173W        W45773   4.036  35.497  10.715
75174W        W45774   1.233  28.288  11.712
75175W        W45775  16.979  20.701   1.274
75176W        W45776  15.853   7.103   3.239
75177W        W45777  19.801  32.421  14.917
75178W        W45778  11.994  12.915   2.438
75179W        W45779  10.966  24.401   3.029
75180W        W45780  14.721  21.779   0.794
75181W        W45781   4.550  35.155   0.453
75182W        W45782  29.582   5.251  14.546
75183W        W45783  13.634  21.156   4.598
75184W        W45784  39.866  34.530  10.677
75185W        W45785  29.910  11.348   3.146
75186W        W45786  37.812   1.939   4.736
75187W        W45787  26.806  17.793  14.394
75188W        W45788   9.666  26.529   0.265
75189W        W45789  33.633  32.076   1.526
75190W        W45790  36.413   9.282   4.044
75191W        W45791  37.856  36.995  10.461
75192W        W45792  41.993  30.383   3.678
75193W        W45793  14.562  34.957  10.359
75194W        W45794  26.284  29.757  11.097
75195W        W45795   7.515  31.078   5.082
75196W        W45796  29.692  32.747   3.793
75197W        W45797  19.525  17.290  13.453
75198W        W45798  39.886   8.186  12.492
75199W        W45799  17.436  34.595  10.776
75200W        W45800  38.031  11.731   3.443
75201W        W45801  44.439  24.174   1.897
75202W        W45802  37.448  11.255   3.269
75203W        W45803   7.379  29.656   2.364
75204W        W45804  41.338  26.220   1.170
75205W        W45805  23.687  42.012   2.988
75206W        W45806  33.525  18.582  12.397
75207W        W45807  23.183  44.137   0.130
75208W        W45808  44.327  33.183  11.319
75209W        W45809  36.666  42.033   1.292
75210W        W45810  32.398   3.242   1.962
75211W        W45811  15.638  44.997   2.348
75212W        W45812  41.010  37.623  12.162
75213W        W45813  18.572  20.194  14.494
75214W        W45814  12.231  37.335  12.096
75215W        W45815  18.130  31.380  14.718
75216W        W45816  29.089  31.534   3.241
75217W        W45817  10.920   7.635   3.841
75218W        W45818  44.256   8.727   0.387
75219W        W45819  38.266   9.441  12.523
75220W        W45820   1.441   1.674  11.949
75221W        W45821  37.345  13.547  11.874
75222W        W45822   9.919  33.513  13.313
75223W        W45823  24.441  22.872   4.233
75224W        W45824  31.107  27.709   3.328
75225W        W45825  18.311  32.944  12.519
75226W        W45826   6.432  41.057  14.470
75227W        W45827   8.824   7.942  10.622
75228W        W45828  15.602  16.626  12.081
75229W        W45829   3.782  32.362   1.702
75230W        W45830  10.738  11.949  11.738
75231W        W45831  38.428  36.646  12.429
75232W        W45832  35.458  25.543   3.710
75233W        W45833  32.528  11.530  14.261
75234W        W45834  36.601   9.856   3.695
75235W        W45835  26.697  29.983  10.931
75236W        W45836  42.129   1.058  11.591
75237W        W45837  10.446   0.623  11.402
75238W        W45838   9.286  42.463   0.567
75239W        W45839  22.215  13.856  14.426
75240W        W45840  28.824  27.222   4.137
75241W        W45841  12.227  29.203  12.431
75242W        W45842  11.406  42.308  11.785
75243W        W45843  26.895   8.500   4.374
75244W        W45844  38.067  26.544   3.336
75245W        W45845  20.045  31.381  14.990
75246W        W45846  40.052  14.535  11.552
75247W        W45847  34.292  26.951   4.557
75248W        W45848  28.656  19.231   4.547
75249W        W45849  30.730  28.539   2.966
75250W        W45850   5.740   0.346  14.912
75251W        W45851  29.209   3.739  11.531
75252W        W45852  18.639  31.373  11.273
75253W        W45853  16.169  22.003   0.452
75254W        W45854  31.941  19.063   3.633
75255W        W45855   9.559  36.882   0.974
75256W        W45856  15.402  35.427  12.069
75257W        W45857   4.252  32.427  13.952
75258W        W45858  31.414  16.783   2.767
75259W        W45859  38.454   8.339  13.842
75260W        W45860  27.173  11.230   0.303
75261W        W45861  28.663  10.409  11.997
75262W        W45862  42.812  23.974   1.978
75263W        W45863  20.248   8.609  12.710
75264W        W45864   4.364  23.153   2.406
75265W        W45865  30.161  17.129   0.822
75266W        W45866  27.150  14.271  13.218
75267W        W45867  10.289  27.002  14.927
75268W        W45868  32.068  21.880  13.941
75269W        W45869  35.175  44.798   5.085
75270W        W45870   4.010  12.670  14.533
75271W        W45871  20.402  28.267   3.073
75272W        W45872  33.260   5.231   3.168
75273W        W45873   6.263  27.042   1.035
75274W        W45874  15.383  14.036  11.553
75275W        W45875  37.824  40.390  11.482
75276W        W45876  14.687   3.808  11.889
75277W        W45877   3.840   3.294   2.025
75278W        W45878  14.039  39.164   3.117
75279W        W45879  25.418  28.334  10.960
75280W        W45880  28.949  32.639  10.307
75281W        W45881  29.367  34.665  11.967
75282W        W45882  34.366  10.702  10.970
75283W        W45883  42.075  11.857  11.139
75284W        W45884   3.232  42.085  14.004
75285W        W45885  28.444  27.385   0.650
75286W        W45886  32.892  36.551   0.888
75287W        W45887  27.889  17.044   0.593
75288W        W45888   8.576  31.705  11.169
75289W        W45889  27.137  25.422   1.436
75290W        W45890   4.693   3.888  12.906
75291W        W45891  13.560  38.255   1.371
75292W        W45892  44.115  44.382  13.551
75293W        W45893   9.403  41.096  10.560
75294W        W45894  10.604   8.933  11.842
75295W        W45895  43.459  32.092  11.127
75296W        W45896   0.187  40.983  13.955
75297W        W45897  39.821  38.160   1.284
75298W        W45898  10.900  20.282   3.094
75299W        W45899  19.716   2.527  13.230
75300W        W45900  41.818  19.574   3.669
75301W        W45901  18.219   9.020   0.159
75302W        W45902  43.566  19.280   2.463
75303W        W45903  17.675   0.286   2.429
75304W        W45904  33.630  36.787  13.152
75305W        W45905  30.637  31.543   5.154
75306W        W45906  16.020  23.117   3.257
75307W        W45907  20.062   5.318  12.256
75308W        W45908  34.470  18.056   2.963
75309W        W45909  19.661  19.739   4.051
75310W        W45910  40.848  19.602   2.099
75311W        W45911   8.793  18.682   4.989
75312W        W45912   6.618   4.825  11.527
75313W        W45913  32.045  20.051  14.328
75314W        W45914  20.361  38.059   0.362
75315W        W45915  38.384  14.754   4.707
75316W        W45916  36.122   0.519   3.787
75317W        W45917  13.776  13.433   3.513
75318W        W45918  16.015  29.894   0.047
75319W        W45919  12.841  37.560   1.913
75320W        W45920  44.700   5.222  13.813
75321W        W45921  42.166  23.471   2.246
75322W        W45922   6.986  28.168   1.368
75323W        W45923  36.487  33.150   0.347
75324W        W45924  25.563  13.365   0.802
75325W        W45925  41.829  23.229   4.522
75326W        W45926  17.051  34.801   0.598
75327W        W45927  10.262  12.365   2.712
75328W        W45928  19.283  44.693  10.688
75329W        W45929   9.629  21.976  11.619
75330W        W45930  12.552   1.450  12.574
75331W        W45931  13.627  10.214   2.773
75332W        W45932  21.654  12.084  13.298
75333W        W45933  11.176  44.589   3.725
75334W        W45934  11.132  30.524  12.819
75335W        W45935  25.939  17.382   2.285
75336W        W45936  24.505  20.500   3.164
75337W        W45937  29.068  10.736  11.195
75338W        W45938  11.326  36.866  11.925
75339W        W45939  38.591  34.670  11.141
75340W        W45940  42.011  23.166  10.655
75341W        W45941   0.342   7.911   2.326
75342W        W45942   6.277  34.393   1.275
75343W        W45943  44.351  22.693   4.683
75344W        W45944  19.218  31.903   0.525
75345W        W45945   5.178  30.399   1.608
75346W        W45946   3.600  26.632   1.993
75347W        W45947  41.946  20.995   3.210
75348W        W45948  20.277  31.711   5.052
75349W        W45949  19.119  41.442  13.392
75350W        W45950   5.174  40.334  12.325
75351W        W45951   9.341   4.528  12.108
75352W        W45952  30.332  32.861   4.129
75353W        W45953   8.731  30.110  12.965
75354W        W45954  11.162  34.877  11.513
75355W        W45955  35.963   9.176   4.313
75356W        W45956  21.311   7.315   0.351
75357W        W45957  40.304  33.450  11.161
75358W        W45958  37.031   8.035  12.049
75359W        W45959  22.205  27.000   3.845
75360W        W45960  10.449  18.581   3.644
75361W        W45961  38.280   4.961  12.620
75362W        W45962  41.300  17.788  11.611
75363W        W45963  29.974   4.193  14.450
75364W        W45964  27.604  22.061   1.491
75365W        W45965  10.669  32.495  13.323
75366W        W45966  11.981  40.741  14.381
75367W        W45967  20.525  16.102   1.208
75368W        W45968  44.901  14.664   3.256
75369W        W45969  11.868  44.814   2.456
75370W        W45970   5.532  20.358   4.094
75371W        W45971  36.123  10.587  13.921
75372W        W45972  17.581   1.989  10.986
75373W        W45973  39.080  23.937  10.763
75374W        W45974  31.491   9.550  11.658
75375W        W45975  23.778   9.348   2.823
75376W        W45976  10.877  42.434  13.561
75377W        W45977  18.339  44.462  14.906
75378W        W45978  39.932  42.256  12.048
75379W        W45979  21.415   4.725   0.455
75380W        W45980  10.841  39.413  12.109
75381W        W45981  25.553  37.335   3.295
75382W        W45982  40.507  12.614   3.665
75383W        W45983  35.427  10.666   0.351
75384W        W45984  19.549  32.691   0.309
75385W        W45985  16.188  19.172  12.816
75386W        W45986   0.795   1.838  13.092
75387W        W45987  16.416  18.699   4.743
75388W        W45988  37.522  27.036   2.659
75389W        W45989  33.306   9.202  12.477
75390W        W45990  34.956   7.991  13.492
75391W        W45991  35.021  41.817  11.104
75392W        W45992   3.658  33.130  12.415
75393W        W45993   4.740  41.324  10.674
75394W        W45994  32.386  21.540  10.675
75395W        W45995   3.233  34.732  12.058
75396W        W45996  30.778  25.517   0.981
75397W        W45997  14.214  11.648  13.869
75398W        W45998   1.656  10.345  12.129
75399W        W45999  30.331  25.235  11.158
75400W        W46000  44.008  44.674   3.846
75401W        W46001  36.694  28.004   5.100
75402W        W46002  30.971  10.949   4.608
75403W        W46003  43.924  43.797  14.196
75404W        W46004  23.264  32.953  14.948
75405W        W46005   8.218  34.373  10.351
75406W        W46006   4.640  44.297  13.093
75407W        W46007  32.587   8.145  14.366
75408W        W46008  36.508  10.695  11.669
75409W        W46009  14.415  14.776  11.615
75410W        W46010  35.553  13.601  10.720
75411W        W46011  15.394   9.431  11.981
75412W        W46012  43.442  13.806   4.110
75413W        W46013   8.872  40.924   0.566
75414W        W46014  33.084  29.210  13.436
75415W        W46015  27.685   6.510   2.785
75416W        W46016   2.367   7.163  13.834
75417W        W46017   6.873  31.681  12.605
75418W        W46018  20.530  29.932  11.435
75419W        W46019  24.753  38.335   2.707
75420W        W46020   9.958  29.758  13.354
75421W        W46021  39.875  12.250  14.781
75422W        W46022   9.308  16.626  10.719
75423W        W46023  33.651  42.705  11.771
75424W        W46024   9.778  11.936  13.047
75425W        W46025   2.183  22.339  11.711
75426W        W46026  16.827  11.378   3.279
75427W        W46027  17.907  11.533  13.927
75428W        W46028  18.624   5.828   1.964
75429W        W46029   6.184  43.544   0.737
75430W        W46030   8.103  26.730  10.556
75431W        W46031   2.231  16.187  12.187
75432W        W46032  26.319  10.344  12.636
75433W        W46033  10.318  32.884  13.404
75434W        W46034   1.973  42.536   2.247
75435W        W46035  42.820  44.964   2.188
75436W        W46036   3.865   6.308  14.521
75437W        W46037   5.158   7.303  13.005
75438W        W46038  35.935  23.908   0.944
75439W        W46039  42.543  18.262   0.406
75440W        W46040  12.107  13.215  13.918
75441W        W46041  33.784  11.359  14.855
75442W        W46042  42.350  40.763   3.632
75443W        W46043   9.895  10.286  11.171
75444W        W46044   5.742  21.528   4.493
75445W        W46045   1.071   8.269   0.031
75446W        W46046   0.715  21.809  13.810
75447W        W46047  18.723  42.581  13.855
75448W        W46048   4.539   7.355   1.081
75449W        W46049  21.555  22.282  13.460
75450W        W46050   1.799  42.439   2.731
75451W        W46051   7.776  17.275  11.469
75452W        W46052   8.269  44.895  11.212
75453W        W46053  13.951  16.851   0.483
75454W        W46054  39.546  13.199  14.558
75455W        W46055  41.045  22.131   0.760
75456W        W46056  44.673  20.092  11.893
75457W        W46057  31.457  26.362  10.944
75458W        W46058  11.447   2.120   2.856
75459W        W46059  31.608  31.819   1.378
75460W        W46060  30.499  38.099  13.604
75461W        W46061  24.010  27.940   0.280
75462W        W46062   8.358  41.974   1.703
75463W        W46063   5.801  42.859   0.455
75464W        W46064  28.779  18.127  11.150
75465W        W46065  15.664  26.557   4.117
75466W        W46066  28.300  23.185   0.364
75467W        W46067  19.622  17.626  12.591
75468W        W46068  13.821   7.245   2.296
75469W        W46069  20.399  20.708  13.377
75470W        W46070  14.509  18.657   4.283
75471W        W46071  43.028   6.296   4.666
75472W        W46072  42.888  15.746   1.386
75473W        W46073  43.014  42.479   1.825
75474W        W46074  31.418  42.642   1.495
75475W        W46075  40.180   1.748  13.489
75476W        W46076   6.718  37.842  11.132
75477W        W46077   3.712  18.819   3.776
75478W        W46078  16.378  36.589   4.523
75479W        W46079  34.484  42.035  12.832
75480W        W46080   5.933   1.263  12.990
75481W        W46081  26.781  38.731   3.777
75482W        W46082   0.988   2.948   0.444
75483W        W46083  29.482  23.397   1.755
75484W        W46084  38.857  42.759   4.958
75485W        W46085  39.909  25.988  14.279
75486W        W46086  20.558  12.176   3.423
75487W        W46087  24.357  17.154  14.081
75488W        W46088  18.025   2.235  12.931
75489W        W46089  21.711  32.435   2.388
75490W        W46090  26.692  19.986   3.726
75491W        W46091  29.651  19.575  14.385
75492W        W46092  23.918   3.533  14.381
75493W        W46093  35.545  21.689  11.446
75494W        W46094  32.486   3.258  13.707
75495W        W46095  12.133   3.025   2.204
75496W        W46096  42.710   9.365   3.664
75497W        W46097  36.088  41.208  13.988
75498W        W46098   2.045  43.097  12.318
75499W        W46099  36.410  42.912  13.337
75500W        W46100  13.198   4.568  10.678
75501W        W46101  36.839  26.646   3.677
75502W        W46102  25.389  27.177  12.090
75503W        W46103  42.709  28.176  11.095
75504W        W46104  38.879   0.540  14.096
75505W        W46105  22.081   8.431  11.951
75506W        W46106  42.952  18.250  10.247
75507W        W46107  34.103  13.288  11.686
75508W        W46108   8.454  36.832   2.645
75509W        W46109  27.615  10.748   0.900
75510W        W46110  28.476   6.141  11.890
75511W        W46111  41.787  19.794   0.072
75512W        W46112   2.314  20.201  12.108
75513W        W46113   3.756  34.220  10.141
75514W        W46114   0.525   4.248   3.667
75515W        W46115  36.575  16.683  10.675
75516W        W46116  24.493  36.362  11.972
75517W        W46117  13.288  39.362   2.010
75518W        W46118  10.125  16.641  11.119
75519W        W46119  26.043  20.703   0.223
75520W        W46120   5.413  20.020  11.134
75521W        W46121   2.397  18.612   1.946
75522W        W46122  32.520  11.877   1.705
75523W        W46123  36.481  22.530   4.174
75524W        W46124  25.761  19.981   0.413
75525W        W46125   3.167  13.056  13.348
75526W        W46126  18.177   7.511  13.431
75527W        W46127  42.574  12.609  14.337
75528W        W46128  31.653   7.191   2.870
75529W        W46129  11.886  43.735  12.381
75530W        W46130   7.225  10.776   2.320
75531W        W46131   7.727  40.331   2.318
75532W        W46132   2.797   6.832  11.409
75533W        W46133  38.699  12.593  10.493
75534W        W46134  26.263  19.066  12.246
75535W        W46135   2.999  36.789  14.746
75536W        W46136  30.113  15.601  12.267
75537W        W46137   1.648  11.864   2.312
75538W        W46138  15.552  35.911  11.702
75539W        W46139  21.488  28.167   2.199
75540W        W46140  37.608  15.582  11.853
75541W        W46141  12.249   6.458  12.999
75542W        W46142  25.242  43.078  11.566
75543W        W46143   5.621  36.563   0.246
75544W        W46144  15.588  26.735  14.905
75545W        W46145  14.146   3.766  12.969
75546W        W46146   4.943  28.312   3.590
75547W        W46147  14.725  40.782  11.969
75548W        W46148  36.380  29.696  13.017
75549W        W46149  13.788  25.339  14.451
75550W        W46150  17.835   5.798  13.616
75551W        W46151  32.210  32.045   0.361
75552W        W46152  24.128  35.440   2.610
75553W        W46153  44.764  21.462   1.418
75554W        W46154  20.692  14.097   0.337
75555W        W46155  44.972  12.065  11.190
75556W        W46156  11.958  19.803  11.112
75557W        W46157   4.829  39.248  14.361
75558W        W46158  44.529  42.888  14.917
75559W        W46159  39.486  24.595   3.624
75560W        W46160   2.775  27.530  10.407
75561W        W46161  21.564  37.994   3.711
75562W        W46162  40.613  20.070   4.595
75563W        W46163  20.813  21.717   3.222
75564W        W46164  44.894  35.503  13.815
75565W        W46165  25.949   4.775  13.950
75566W        W46166  32.164   2.385   3.430
75567W        W46167  42.672   7.726   0.924
75568W        W46168  24.763  30.254  13.434
75569W        W46169  34.570  28.678  14.964
75570W        W46170  34.415  22.581   3.494
75571W        W46171  34.578  28.151   4.614
75572W        W46172  20.277  20.994  14.079
75573W        W46173  43.852  41.926  14.519
75574W        W46174  26.465  12.549  11.065
75575W        W46175   9.494   9.611  14.954
75576W        W46176  33.003  32.400  14.036
75577W        W46177  17.335  42.407  14.003
75578W        W46178  42.578  41.330   0.792
75579W        W46179  38.751  43.409   3.730
75580W        W46180  42.866  29.884   3.887
75581W        W46181  38.444  24.958   2.793
75582W        W46182  11.680   3.511   3.843
75583W        W46183  10.194  40.147  12.131
75584W        W46184  10.867  10.802  12.452
75585W        W46185   1.995   3.212  11.579
75586W        W46186   9.424  29.570  10.748
75587W        W46187   8.855  27.341  14.434
75588W        W46188   5.922  36.052   3.400
75589W        W46189  22.698  40.735  12.115
75590W        W46190  37.604  25.645   4.207
75591W        W46191  35.423   0.175  10.801
75592W        W46192   0.698  31.971   4.084
75593W        W46193  33.962  24.156  10.744
75594W        W46194  40.924  38.884   4.181
75595W        W46195  22.176   1.814   0.744
75596W        W46196  42.242   2.221  13.490
75597W        W46197   4.013   5.234  13.641
75598W        W46198   1.249  34.051   3.158
75599W        W46199  16.184  37.931   4.471
75600W        W46200  10.290  21.377  10.811
75601W        W46201   3.704   1.296   1.254
75602W        W46202  15.945   7.865  14.919
75603W        W46203  16.021  24.445   4.069
75604W        W46204  20.839  42.769  14.877
75605W        W46205  38.823  34.290   4.719
75606W        W46206  15.577  44.075   4.076
75607W        W46207  21.575   0.073   3.874
75608W        W46208  29.492  19.508   4.496
75609W        W46209  41.743  39.935   3.640
75610W        W46210  17.108  29.118   1.962
75611W        W46211  13.039  27.644  13.242
75612W        W46212  37.405  36.385  13.826
75613W        W46213   3.559  31.642  14.399
75614W        W46214  13.123   0.939   2.438
75615W        W46215  13.161   9.971   3.818
75616W        W46216  17.322  15.423  12.032
75617W        W46217  34.920  44.380  11.474
75618W        W46218   9.248  40.470   3.857
75619W        W46219  10.106  37.404  11.352
75620W        W46220  36.487  31.810  14.935
75621W        W46221   0.273  31.005   2.628
75622W        W46222   3.283  42.669   4.229
75623W        W46223  35.023  30.583  14.987
75624W        W46224   3.937  18.334  14.392
75625W        W46225  38.926  29.396  14.033
75626W        W46226  10.316   0.829  12.818
75627W        W46227   4.916  11.388   4.177
75628W        W46228  37.570   0.180  11.019
75629W        W46229  31.954   8.320   0.972
75630W        W46230  41.266  26.888   2.877
75631W        W46231   6.285  21.937  11.283
75632W        W46232  35.737  17.145   1.265
75633W        W46233   3.322  32.562   4.161
75634W        W46234  37.326   9.790   1.589
75635W        W46235  26.223   9.108  13.975
75636W        W46236   2.292  17.542   2.838
75637W        W46237  15.820  36.985  10.812
75638W        W46238   5.391  37.954  14.287
75639W        W46239  27.130  44.837   4.479
75640W        W46240  38.053  25.992   3.290
75641W        W46241  38.403  18.680  12.187
75642W        W46242  23.404   6.895   1.289
75643W        W46243  35.919  33.517   2.147
75644W        W46244  28.107   3.587   0.404
75645W        W46245  15.048  33.322  10.646
75646W        W46246  29.081  10.874   4.148
75647W        W46247  25.345  23.410   2.363
75648W        W46248  40.859  11.670  12.804
75649W        W46249  26.581  37.181   4.850
75650W        W46250  29.162  10.262  11.987
75651W        W46251   4.384  27.019  10.374
75652W        W46252  19.961   3.205   0.967
75653W        W46253   8.471  12.194   4.425
75654W        W46254  21.885  11.555  12.586
75655W        W46255  27.215  35.084   1.087
75656W        W46256  12.902  15.025   0.382
75657W        W46257   5.897  32.161   2.300
75658W        W46258  27.910  28.076  12.490
75659W        W46259  16.596  35.554  11.623
75660W        W46260   2.423  12.279   2.592
75661W        W46261   2.089  19.172   0.800
75662W        W46262  40.790  28.133   4.968
75663W        W46263  39.804  34.044  10.798
75664W        W46264   6.937  19.580  13.956
75665W        W46265  38.956  21.223   3.565
75666W        W46266  25.241  24.411   4.168
75667W        W46267  16.833   6.192   4.577
75668W        W46268  25.561   0.883   1.731
75669W        W46269  28.901  14.147   2.115
75670W        W46270  17.062  14.817   3.180
75671W        W46271  11.051  39.456  13.950
75672W        W46272  15.354  35.864  13.438
75673W        W46273  42.732  33.939   3.559
75674W        W46274  28.596  29.680  14.309
75675W        W46275  16.644   8.711  11.316
75676W        W46276  11.570  20.756   1.440
75677W        W46277   6.398  33.811  14.003
75678W        W46278  13.718  43.272  13.905
75679W        W46279  29.917  38.895   1.194
75680W        W46280  34.567  15.729   0.475
75681W        W46281  22.522  12.269   0.924
75682W        W46282   8.191  35.392   0.753
75683W        W46283  11.260  41.859  14.516
75684W        W46284  22.585  29.958   3.290
75685W        W46285   3.677  24.737   2.258
75686W        W46286  21.058  30.920   4.156
75687W        W46287  42.997  34.849  12.033
75688W        W46288  24.421  38.981  12.427
75689W        W46289  42.512  24.249   3.145
75690W        W46290   7.338  41.452  12.107
75691W        W46291  16.780  12.353  14.763
75692W        W46292  12.935  35.935  11.397
75693W        W46293  28.306   5.327   3.182
75694W        W46294  26.158  21.748   0.336
75695W        W46295  34.934  41.276   0.794
75696W        W46296  27.053  24.602   4.589
75697W        W46297   6.277  32.573   4.354
75698W        W46298  38.655  21.274  14.431
75699W        W46299  24.360  21.088   0.840
75700W        W46300  13.778  18.500  11.248
75701W        W46301  34.481  39.143   4.673
75702W        W46302  22.256   8.408  11.051
75703W        W46303  44.058  15.364  14.354
75704W        W46304  35.893  41.642  11.619
75705W        W46305  39.815  31.642  11.637
75706W        W46306  32.180  22.168  11.144
75707W        W46307  23.706   6.364   0.360
75708W        W46308  32.897   1.955  11.547
75709W        W46309  37.380  41.618  12.855
75710W        W46310   6.152  27.316  11.097
75711W        W46311  10.903  21.321  11.536
75712W        W46312  20.639   8.719  14.747
75713W        W46313  32.462  25.546  11.644
75714W        W46314  17.813  25.139   0.500
75715W        W46315  23.354   2.419   5.086
75716W        W46316  15.086  27.711   1.436
75717W        W46317   3.819   5.751  12.347
75718W        W46318  40.816  15.294  11.698
75719W        W46319  16.382  20.550  13.523
75720W        W46320  13.599   2.314  13.471
75721W        W46321  39.131  35.567   2.171
75722W        W46322   2.440  36.189  12.004
75723W        W46323  11.856  35.783  14.028
75724W        W46324  38.610  12.349   1.497
75725W        W46325  32.214  38.797  14.959
75726W        W46326  35.349  36.870   4.196
75727W        W46327  21.652  20.012   2.140
75728W        W46328  14.564  14.570  12.926
75729W        W46329   2.055   5.111   2.680
75730W        W46330  25.555   4.687  10.727
75731W        W46331  22.354  34.134  13.841
75732W        W46332   0.353  12.635   1.755
75733W        W46333  13.129  41.929  12.287
75734W        W46334   3.660  21.206   4.688
75735W        W46335  42.270  26.451   0.836
75736W        W46336   8.864  18.302  13.014
75737W        W46337  19.799  42.613  11.167
75738W        W46338  39.547  44.562  11.981
75739W        W46339  17.203  42.177   2.731
75740W        W46340  41.589   6.751   2.772
75741W        W46341  22.474  16.874   2.175
75742W        W46342  18.564  22.383   3.365
75743W        W46343  24.638  33.465   3.852
75744W        W46344  16.242  21.225   1.630
75745W        W46345  14.910  21.430  12.929
75746W        W46346   0.531  41.502  13.525
75747W        W46347  16.094  33.368   2.755
75748W        W46348   8.397  35.615   3.655
75749W        W46349   2.983  41.864   2.923
75750W        W46350  27.682  42.865   1.469
75751W        W46351  37.002  12.277   4.586
75752W        W46352  31.853  14.320  12.445
75753W        W46353   3.651  42.945  11.104
75754W        W46354  28.143  14.854  14.782
75755W        W46355  22.128  11.110  13.876
75756W        W46356  22.224   9.217  10.311
75757W        W46357  39.371  21.991  10.576
75758W        W46358  13.141  28.063  11.631
75759W        W46359  24.898  35.528   4.262
75760W        W46360  38.354   5.071   2.304
75761W        W46361  11.432  44.303  12.582
75762W        W46362  43.333  16.992  13.443
75763W        W46363  22.091  40.316   0.370
75764W        W46364  29.257  29.898   0.688
75765W        W46365  38.945  23.553  12.525
75766W        W46366  18.342  13.763   0.982
75767W        W46367   0.938  27.238   3.383
75768W        W46368  16.079  22.391   1.841
75769W        W46369  12.766  38.521  14.182
75770W        W46370  26.544  31.886   4.928
75771W        W46371  18.120  25.455  12.355
75772W        W46372   2.838  42.735   3.511
75773W        W46373  33.492  14.603  11.979
75774W        W46374  29.513  16.830  12.598
75775W        W46375  21.740   0.210  14.799
75776W        W46376   8.764   6.232  14.477
75777W        W46377  31.474  32.388  13.462
75778W        W46378  37.592  31.983   4.027
75779W        W46379  37.334   2.318  11.350
75780W        W46380   3.284   7.663   2.297
75781W        W46381  14.099  26.557   2.321
75782W        W46382   0.016  31.986  11.143
75783W        W46383   6.952  35.365  12.870
75784W        W46384  42.417   7.751   3.071
75785W        W46385   7.805  15.687  13.597
75786W        W46386  36.574  35.902   0.814
75787W        W46387  18.108  17.575  14.672
75788W        W46388  35.451  36.212  14.769
75789W        W46389  25.041  37.992   4.677
75790W        W46390  36.126  14.611   2.748
75791W        W46391  18.269  16.751  12.770
75792W        W46392  43.973  15.234  12.546
75793W        W46393  35.692  28.775   4.091
75794W        W46394  30.570   2.716   5.016
75795W        W46395   8.185  39.285  14.733
75796W        W46396  21.755  15.560  11.998
75797W        W46397   1.775  22.024   4.488
75798W        W46398  17.025  38.024  11.632
75799W        W46399  31.580  34.160  13.884
75800W        W46400  34.886  22.689   2.612
75801W        W46401  11.736  32.613   4.701
75802W        W46402   8.961  44.518  12.535
75803W        W46403  35.892  34.567   2.300
75804W        W46404  10.127  21.185  12.702
75805W        W46405  11.189  32.562  13.431
75806W        W46406  28.681  15.651  13.015
75807W        W46407  43.198  21.594  14.417
75808W        W46408  35.930   8.886  13.425
75809W        W46409  12.960  25.176  11.070
75810W        W46410  10.365  22.748   2.776
75811W        W46411  29.063   7.482  11.255
75812W        W46412  34.849  15.235  14.648
75813W        W46413   4.100  27.930  12.440
75814W        W46414  39.040   7.181   2.411
75815W        W46415  29.761   4.906  11.259
75816W        W46416  29.587  39.362  11.781
75817W        W46417  26.254  25.133  13.429
75818W        W46418   0.977  42.479  13.943
75819W        W46419  15.941  29.704   3.222
75820W        W46420   9.207  14.799   4.120
75821W        W46421  23.792  35.190   4.267
75822W        W46422  19.072  40.465  10.663
75823W        W46423   5.170  39.576  11.962
75824W        W46424  31.666  11.613  11.692
75825W        W46425   2.446  23.787  13.890
75826W        W46426   1.489  13.147   2.620
75827W        W46427  15.456  37.464   3.272
75828W        W46428  36.967   6.229  10.517
75829W        W46429  29.039  31.131  11.669
75830W        W46430   8.886   0.310  12.139
75831W        W46431  40.219   3.351   0.794
75832W        W46432  34.485  41.560   4.935
75833W        W46433   5.321  24.528   2.260
75834W        W46434  27.913  40.072  13.381
75835W        W46435  39.592  43.064   1.256
75836W        W46436  15.114   6.926  14.797
75837W        W46437  19.451   4.733  11.724
75838W        W46438   1.207  24.271   1.641
75839W        W46439  37.596   5.900  10.626
75840W        W46440  36.805  33.610   3.146
75841W        W46441  40.679  25.439   0.935
75842W        W46442  28.678  35.902  13.514
75843W        W46443  39.595  28.365   2.274
75844W        W46444  17.332  16.914  12.197
75845W        W46445  24.149  21.018   0.360
75846W        W46446  25.637  24.921   3.151
75847W        W46447  31.335  10.979   0.541
75848W        W46448  37.211  18.259   3.081
75849W        W46449  15.076  15.308  13.481
75850W        W46450  14.833  25.177  13.790
75851W        W46451   0.746   7.377  13.105
75852W        W46452  31.678  23.048  14.550
75853W        W46453  42.566   5.367  14.808
75854W        W46454  18.705  20.804  13.904
75855W        W46455   6.264  42.197   3.992
75856W        W46456  29.006  25.155  13.119
75857W        W46457  33.386  32.040  14.768
75858W        W46458  17.638   0.726   2.170
75859W        W46459  41.236  36.854   2.836
75860W        W46460  10.612  16.610  13.905
75861W        W46461   2.941  44.861  13.426
75862W        W46462  37.037  24.743   3.607
75863W        W46463  24.442  39.176  12.924
75864W        W46464  22.084  19.859   1.853
75865W        W46465  36.923   3.526   0.251
75866W        W46466  13.708  44.781  12.121
75867W        W46467   5.386   0.859  10.418
75868W        W46468  23.087   2.435  14.312
75869W        W46469  14.613  15.654   2.748
75870W        W46470   1.629   6.291   4.618
75871W        W46471  30.772  27.652   1.297
75872W        W46472  32.369  44.958   0.682
75873W        W46473  24.943   4.179   1.854
75874W        W46474   2.386  32.006   0.709
75875W        W46475   2.284  28.333   0.233
75876W        W46476  29.389   5.464  12.535
75877W        W46477   1.954  17.638  11.983
75878W        W46478   1.725  18.578   0.196
75879W        W46479  16.212  22.446   2.720
75880W        W46480  25.630  35.811  11.119
75881W        W46481  13.891  23.640   3.781
75882W        W46482  39.802  44.950  12.765
75883W        W46483  12.140  40.970   2.112
75884W        W46484  33.875  21.040   1.366
75885W        W46485   9.262  40.321   3.360
75886W        W46486  31.342   8.928  13.920
75887W        W46487  30.410   4.215  13.451
75888W        W46488   9.011  17.042  10.679
75889W        W46489   8.750   3.827   0.998
75890W        W46490  29.050  28.651  10.476
75891W        W46491  43.974  15.216  13.447
75892W        W46492  19.268  14.034  10.829
75893W        W46493  24.182  27.514   2.272
75894W        W46494  12.588  13.366  10.214
75895W        W46495  17.391  12.803   2.637
75896W        W46496  26.158  22.462   4.321
75897W        W46497  25.698   7.801   0.351
75898W        W46498  44.617  30.235  12.017
75899W        W46499  38.924  30.171   0.709
75900W        W46500  41.146  22.140   0.233
75901W        W46501  33.706  42.995  12.775
75902W        W46502   0.471  30.405   1.775
75903W        W46503  19.594  41.822   3.623
75904W        W46504  10.773  17.115  11.519
75905W        W46505   2.805   4.845   2.296
75906W        W46506  22.531  16.845   4.520
75907W        W46507   0.948  17.993   0.433
75908W        W46508  40.049   6.187   0.403
75909W        W46509  13.964  27.067   4.565
75910W        W46510  11.941   5.425   2.349
75911W        W46511  25.102  17.868   1.324
75912W        W46512  28.644  23.497  12.524
75913W        W46513  34.880   2.984   0.778
75914W        W46514  16.030  23.204  14.691
75915W        W46515  34.973  24.357   1.058
75916W        W46516  16.356  25.631   1.395
75917W        W46517   5.159   0.592   2.233
75918W        W46518   1.746  24.984  13.823
75919W        W46519  37.848   1.944   0.235
75920W        W46520  20.596  13.454   1.147
75921W        W46521  19.394  20.686  12.490
75922W        W46522   4.696  19.735  13.047
75923W        W46523  12.844   5.049  13.540
75924W        W46524  10.812  24.911   0.575
75925W        W46525  26.095  27.534   2.799
75926W        W46526  40.221  15.562   0.706
75927W        W46527  25.189  15.629  10.622
75928W        W46528  42.955  43.844   3.218
75929W        W46529  16.981  10.427   1.662
75930W        W46530   1.540  28.623  11.027
75931W        W46531  39.327  43.247  12.511
75932W        W46532  12.814  38.708   3.653
75933W        W46533  33.314   6.715  12.522
75934W        W46534  40.885  25.651  11.135
75935W        W46535  28.248  36.877   2.188
75936W        W46536   2.146  21.178  11.000
75937W        W46537  10.724  19.185   1.954
75938W        W46538  17.839  26.591   1.855
75939W        W46539   9.394  14.644  14.470
75940W        W46540  10.273  33.045  13.916
75941W        W46541  18.652   3.504  12.531
75942W        W46542  30.610   4.769   3.513
75943W        W46543   5.083  40.563   0.680
75944W        W46544  21.238  44.101   1.794
75945W        W46545   4.215  27.597  10.562
75946W        W46546  30.901  35.770   2.712
75947W        W46547  23.371  17.557   4.719
75948W        W46548  36.835  36.270   3.280
75949W        W46549  39.869  32.050   4.474
75950W        W46550  37.564  39.457  12.291
75951W        W46551   3.693  31.355   1.735
75952W        W46552   9.730  40.927   0.442
75953W        W46553  16.209  24.919   4.008
75954W        W46554  19.294   9.901   1.036
75955W        W46555  20.707  14.264  12.931
75956W        W46556  31.836  22.185   2.656
75957W        W46557  11.664  21.142   4.624
75958W        W46558  15.697  32.950  11.107
75959W        W46559  36.357   9.371   1.777
75960W        W46560  44.097  35.454   1.878
75961W        W46561   1.468  33.875  14.858
75962W        W46562  13.312  12.395  11.504
75963W        W46563  24.108   1.244   3.269
75964W        W46564   7.821  38.131  11.138
75965W        W46565  13.590  36.393   3.355
75966W        W46566  17.356   5.778   0.352
75967W        W46567  16.544  31.049  10.658
75968W        W46568  41.315  34.674  10.775
75969W        W46569  27.998  24.912  10.281
75970W        W46570  14.332  44.699   3.294
75971W        W46571  42.324  25.848  11.888
75972W        W46572  37.962  14.514  13.029
75973W        W46573  35.328  38.457   3.807
75974W        W46574  23.757  24.217  14.585
75975W        W46575  26.969  18.284  13.475
75976W        W46576  23.717  39.131  11.985
75977W        W46577  19.551  21.250  10.964
75978W        W46578  30.095  34.387   4.311
75979W        W46579  16.979  15.293  12.386
75980W        W46580  11.786  27.037   0.876
75981W        W46581  26.065  32.028   2.921
75982W        W46582   7.228  22.911   0.487
75983W        W46583  38.152  41.724  13.847
75984W        W46584  37.367  30.956  10.882
75985W        W46585  24.145  22.473   4.113
75986W        W46586  13.697  30.331   2.915
75987W        W46587  22.248   1.980  12.874
75988W        W46588  10.729  23.163  13.871
75989W        W46589   3.254  40.839  14.441
75990W        W46590  16.180  36.368   3.118
75991W        W46591  17.229  41.531  12.922
75992W        W46592  15.301   8.928  11.078
75993W        W46593  20.172   4.371   1.680
75994W        W46594  21.120  18.606   2.387
75995W        W46595  19.952   4.389   2.702
75996W        W46596  19.857  22.550  11.123
75997W        W46597  16.743   4.166  12.960
75998W        W46598  41.355   3.779  10.864
75999W        W46599  43.711  34.015  13.947
76000W        W46600  42.297   3.339   2.392
76001W        W46601  37.032  43.204   3.214
76002W        W46602  40.550  24.709   3.889
76003W        W46603  17.252   7.904  13.346
76004W        W46604  34.499   5.469  11.260
76005W        W46605  37.886   1.550   3.488
76006W        W46606  31.803  21.602  12.369
76007W        W46607  39.608  31.614   1.440
76008W        W46608  35.160  15.870  10.398
76009W        W46609  12.107   6.108  11.140
76010W        W46610  17.569  26.646   1.373
76011W        W46611  24.662  15.388  11.477
76012W        W46612  36.465  42.709   0.253
76013W        W46613  27.792  43.780   1.081
76014W        W46614  44.124   8.246  10.696
76015W        W46615   2.828   8.709  11.146
76016W        W46616  11.599   5.927  11.260
76017W        W46617  14.185  30.673   0.355
76018W        W46618  35.891  10.983   1.923
76019W        W46619  33.564   7.571  14.936
76020W        W46620  14.711   6.631  11.506
76021W        W46621  23.220  26.258   2.782
76022W        W46622  43.440  25.675  14.545
76023W        W46623  17.795  43.461  12.322
76024W        W46624  22.107  11.154  14.972
76025W        W46625  11.424  10.158  13.829
76026W        W46626   5.426  34.919   5.030
76027W        W46627  38.785  28.361   3.848
76028W        W46628  25.085  23.630  11.026
76029W        W46629  18.044   0.902   2.515
76030W        W46630  37.940  27.071   4.827
76031W        W46631  31.080  42.409   4.104
76032W        W46632  12.287  44.359  14.501
76033W        W46633   3.060  10.203  13.511
76034W        W46634  18.560  44.779   4.597
76035W        W46635  27.179  11.423  12.150
76036W        W46636  24.466   1.612   1.901
76037W        W46637   4.891  17.802  14.426
76038W        W46638  34.644  33.874   2.699
76039W        W46639   8.190  10.189  14.596
76040W        W46640  19.590  22.154   0.269
76041W        W46641  35.252  26.394   3.713
76042W        W46642  25.787  28.916  14.485
76043W        W46643   1.285  17.011   0.355
76044W        W46644  44.517  33.481  14.315
76045W        W46645  31.434  43.172   3.247
76046W        W46646  37.344  37.932   4.591
76047W        W46647  23.160   5.009  12.004
76048W        W46648  27.048  14.320   3.772
76049W        W46649  24.426  30.550  14.090
76050W        W46650  37.004  13.376  12.784
76051W        W46651  16.587  19.998   3.933
76052W        W46652   4.287  41.345  11.852
76053W        W46653  37.483  24.771   3.322
76054W        W46654  34.390  16.915  11.539
76055W        W46655  25.165  17.303  12.489
76056W        W46656  31.818  43.170  10.647
76057W        W46657  27.593   7.466  11.626
76058W        W46658   2.290  42.297  14.247
76059W        W46659  32.237  24.121   0.786
76060W        W46660  12.766  22.055  14.610
76061W        W46661  16.390  27.140  12.126
76062W        W46662  27.489  27.382   3.676
76063W        W46663  32.355  29.719   1.430
76064W        W46664  29.075  12.249   3.543
76065W        W46665   8.648  19.322  11.219
76066W        W46666   8.851  27.599   1.180
76067W        W46667  11.353  37.443  13.113
76068W        W46668  19.008  21.170   4.830
76069W        W46669  26.129  28.971  11.588
76070W        W46670   9.369  28.471   4.452
76071W        W46671   2.053  35.284   0.477
76072W        W46672  21.024  28.016  12.557
76073W        W46673  40.405  11.815  14.050
76074W        W46674  23.040   8.630   0.042
76075W        W46675   9.534   6.659  14.439
76076W        W46676   1.880   7.387   2.360
76077W        W46677   4.405  11.499   4.070
76078W        W46678  12.192  33.607  13.054
76079W        W46679  16.598  18.731  11.004
76080W        W46680  34.008  28.136  13.409
76081W        W46681  31.062  11.032   2.778
76082W        W46682  34.610  34.569  14.073
76083W        W46683  40.032  10.345  10.532
76084W        W46684  27.270   4.599   3.696
76085W        W46685  29.665  42.447   0.446
76086W        W46686  18.527  17.205  12.053
76087W        W46687   8.367  41.525   0.406
76088W        W46688  41.988  22.633  12.155
76089W        W46689  43.470  15.697   4.106
76090W        W46690   3.750  34.623  12.056
76091W        W46691   1.761  27.209  10.721
76092W        W46692  40.340  38.463  14.834
76093W        W46693   0.395  39.395   3.434
76094W        W46694   3.416  24.988  12.661
76095W        W46695  37.026  37.933  11.628
76096W        W46696  24.153  12.201   4.556
76097W        W46697  44.730  33.114  13.874
76098W        W46698  42.880   4.218  14.961
76099W        W46699   1.718  40.239  10.623
76100W        W46700  32.963  36.982   2.166
76101W        W46701  36.906  29.597  12.531
76102W        W46702  37.815   8.908  10.507
76103W        W46703  42.526  25.440  13.823
76104W        W46704  10.021  29.618  14.202
76105W        W46705   4.881  38.342  11.239
76106W        W46706  42.460  18.121   4.387
76107W        W46707  10.151   0.346  14.239
76108W        W46708  26.578  29.815  14.841
76109W        W46709  29.080   8.134   0.507
76110W        W46710   4.468   2.080   4.176
76111W        W46711  11.452   2.434  12.566
76112W        W46712  38.417  18.980  11.087
76113W        W46713  35.332  16.734   4.152
76114W        W46714  41.731   3.121  12.009
76115W        W46715   4.578  44.748   3.684
76116W        W46716  11.877  19.277  14.918
76117W        W46717  20.260  10.333  14.494
76118W        W46718  18.397  38.522  11.322
76119W        W46719  25.287  23.641   3.687
76120W        W46720  26.025  31.370  14.876
76121W        W46721  36.589   7.789   3.381
76122W        W46722   3.810  31.819   0.367
76123W        W46723   7.777  17.087  12.667
76124W        W46724  35.235  29.725   5.228
76125W        W46725   1.712  28.705   2.916
76126W        W46726  10.082  12.849   4.298
76127W        W46727  14.887  36.108   2.199
76128W        W46728  15.301   8.582   0.958
76129W        W46729  22.635  44.136   2.396
76130W        W46730  42.095  14.219  12.517
76131W        W46731  31.337   8.679   2.761
76132W        W46732  25.370  28.101  11.407
76133W        W46733   9.771   5.899  12.971
76134W        W46734  44.266   4.365   2.993
76135W        W46735  44.964  15.243   3.660
76136W        W46736   5.007  18.111   2.590
76137W        W46737   7.165  43.820  11.605
76138W        W46738   5.165  39.462  13.051
76139W        W46739  42.575  32.455  13.043
76140W        W46740  13.279  20.935   2.701
76141W        W46741  43.182  39.113   2.818
76142W        W46742  13.412   1.156   5.079
76143W        W46743  12.301  29.208  10.625
76144W        W46744  19.777  43.571  13.967
76145W        W46745  19.320  38.522  11.340
76146W        W46746   1.159  14.231  13.976
76147W        W46747   1.879   3.777   2.477
76148W        W46748  35.400  42.737  13.469
76149W        W46749  26.638  10.469  14.796
76150W        W46750  32.324  21.192  11.688
76151W        W46751  26.424  22.038   0.674
76152W        W46752   7.320   0.793  13.767
76153W        W46753   6.800   8.601   0.371
76154W        W46754  43.108  16.733   2.781
76155W        W46755  29.317  39.412   1.780
76156W        W46756  17.853   7.991  12.565
76157W        W46757  17.037  12.680   0.264
76158W        W46758   4.084  13.562  11.100
76159W        W46759  15.332  43.941   3.624
76160W        W46760  27.458  29.511  12.831
76161W        W46761  28.516  36.047  14.472
76162W        W46762  29.036   0.401   1.713
76163W        W46763   0.733  14.104  12.925
76164W        W46764  39.066   2.450  13.926
76165W        W46765  39.886   3.283   4.757
76166W        W46766  36.989  15.200  12.388
76167W        W46767  42.049   5.171   1.372
76168W        W46768   4.514  42.395   4.090
76169W        W46769  38.323  18.771  11.639
76170W        W46770  22.174  20.744  14.932
76171W        W46771  13.605  16.938  12.465
76172W        W46772  35.961  18.923  14.837
76173W        W46773   9.290  18.494   2.759
76174W        W46774  39.322  13.723   3.720
76175W        W46775  34.844   2.155   0.907
76176W        W46776  14.708  40.199   5.433
76177W        W46777  11.482  11.197   0.751
76178W        W46778   0.881   8.151   3.500
76179W        W46779  31.612  26.272   1.230
76180W        W46780  15.539  27.589   1.677
76181W        W46781  14.722  18.341  10.412
76182W        W46782  33.138   9.408  12.026
76183W        W46783  29.750   2.412   2.893
76184W        W46784  18.628  22.643  14.451
76185W        W46785  12.729   0.436  14.244
76186W        W46786  28.326  36.564  11.472
76187W        W46787  20.039  42.917  10.834
76188W        W46788  43.048  40.756  10.481
76189W        W46789   0.872  10.229   4.152
76190W        W46790  31.599  19.121  11.221
76191W        W46791  27.494  44.288   1.832
76192W        W46792  36.900  15.054  10.875
76193W        W46793   7.189  25.328  11.995
76194W        W46794  11.194  20.676   1.787
76195W        W46795  37.435   0.634   0.084
76196W        W46796  43.928  39.968  14.754
76197W        W46797  40.001  15.068  11.494
76198W        W46798   6.186  27.017   0.538
76199W        W46799  15.293  23.005   4.550
76200W        W46800  14.614   7.311   1.848
76201W        W46801  28.487  17.757   0.125
76202W        W46802  39.541  25.194  14.873
76203W        W46803  33.468   4.753  12.484
76204W        W46804  40.709  24.554   3.296
76205W        W46805  17.695   5.077  14.037
76206W        W46806   8.967  25.241  14.952
76207W        W46807   2.856  18.167   0.164
76208W        W46808  25.563  34.586  14.948
76209W        W46809  21.174   9.631   2.686
76210W        W46810  33.654  35.954   2.705
76211W        W46811  22.305  17.089   2.732
76212W        W46812  17.214  31.470   0.989
76213W        W46813  41.269   6.737  10.071
76214W        W46814  28.753   7.939   2.077
76215W        W46815  39.747  43.274   3.807
76216W        W46816  19.215   4.026  11.260
76217W        W46817  21.264  23.268   3.605
76218W        W46818  35.346  18.289  12.516
76219W        W46819   6.425  20.857  11.580
76220W        W46820  19.285  44.211   2.252
76221W        W46821  33.436  12.407  12.531
76222W        W46822   4.497  27.058   3.779
76223W        W46823   4.226  14.738  14.537
76224W        W46824   2.912  33.056  12.847
76225W        W46825  32.576   7.622  14.218
76226W        W46826  44.862  44.579  11.803
76227W        W46827  31.379  43.509  10.190
76228W        W46828  32.404   6.225  13.943
76229W        W46829  40.852  10.786   2.245
76230W        W46830   8.827   8.091   3.225
76231W        W46831   9.111   8.461   3.531
76232W        W46832  15.684  18.542  12.720
76233W        W46833   4.518  31.078  13.503
76234W        W46834  27.450  39.920   1.393
76235W        W46835  24.514  38.832   3.760
76236W        W46836  18.683  25.011   0.768
76237W        W46837  10.644   2.140   2.197
76238W        W46838  12.616  25.665  14.345
76239W        W46839  41.050  30.172   0.283
76240W        W46840  16.857   1.846  14.391
76241W        W46841  25.447  30.496  10.725
76242W        W46842   4.908   2.282   3.370
76243W        W46843  35.092  12.110  13.070
76244W        W46844  15.912  37.324   1.847
76245W        W46845  24.057   5.778   4.273
76246W        W46846  38.437   2.762  12.791
76247W        W46847  32.618  25.067  14.721
76248W        W46848  21.334  42.846  14.821
76249W        W46849  34.429   6.721   0.498
76250W        W46850  34.646   5.175  14.390
76251W        W46851   1.308  17.270   4.347
76252W        W46852   7.262  27.675  12.615
76253W        W46853  21.206  19.281   1.101
76254W        W46854  34.907   4.730  12.396
76255W        W46855  32.451   0.370  13.256
76256W        W46856  29.409  25.388   4.662
76257W        W46857  34.692  28.286  14.195
76258W        W46858  38.077  36.080  14.961
76259W        W46859  39.397  21.687  12.971
76260W        W46860  34.684  25.743   0.689
76261W        W46861  14.079  28.489  12.440
76262W        W46862   4.790  12.349  14.876
76263W        W46863  35.089  33.033  14.082
76264W        W46864   4.243  39.048   3.586
76265W        W46865   0.887  35.642   2.790
76266W        W46866  44.170  27.547   0.990
76267W        W46867  34.330   0.375  11.610
76268W        W46868  14.017  23.697   2.784
76269W        W46869   9.800  43.968  11.666
76270W        W46870  26.053  26.698   2.262
76271W        W46871  12.117  15.660  12.639
76272W        W46872   2.576  39.899   3.722
76273W        W46873  14.731  17.472   1.873
76274W        W46874  11.127  21.683  13.417
76275W        W46875  10.275  29.606   2.724
76276W        W46876  33.805  37.031  10.907
76277W        W46877   5.785  30.646  13.899
76278W        W46878  44.349  32.016   1.446
76279W        W46879  44.797  31.105  14.707
76280W        W46880  17.566  11.703  14.304
76281W        W46881   7.154  35.999   0.490
76282W        W46882  27.240  35.823   4.892
76283W        W46883  31.830  36.400  11.585
76284W        W46884  22.917  36.611  13.695
76285W        W46885  40.373  30.667   2.719
76286W        W46886  24.486  28.639  12.303
76287W        W46887  29.919  12.691   0.240
76288W        W46888  27.056  38.008  13.637
76289W        W46889  23.845  34.943   0.955
76290W        W46890  42.282   4.469  13.819
76291W        W46891   5.062  29.699  11.063
76292W        W46892  18.243  33.642   3.519
76293W        W46893  10.281   7.916   4.544
76294W        W46894  18.245  35.975  14.219
76295W        W46895  38.330  16.611   0.409
76296W        W46896  37.744  22.185   4.274
76297W        W46897   7.318   1.280  13.890
76298W        W46898  30.494  41.464   1.666
76299W        W46899   9.665   9.363  10.733
76300W        W46900  24.458  15.685  14.804
76301W        W46901  14.843  11.790  10.409
76302W        W46902  28.196  41.654  13.237
76303W        W46903  37.572  32.362  14.424
76304W        W46904  26.669  20.151  13.898
76305W        W46905  39.548  26.993  14.884
76306W        W46906  31.894  28.268   4.003
76307W        W46907  13.312  12.290   4.073
76308W        W46908  20.708   4.873  13.791
76309W        W46909   7.392  13.987  13.884
76310W        W46910  17.564  42.912   3.099
76311W        W46911  26.517  28.168  12.540
76312W        W46912  31.272  13.672  12.799
76313W        W46913  44.207  29.968  11.127
76314W        W46914   7.865   0.679  11.478
76315W        W46915   3.533  13.725  12.576
76316W        W46916  10.850  22.803   1.484
76317W        W46917   1.421   7.282   3.774
76318W        W46918  17.366  38.428  14.281
76319W        W46919  24.601  28.100   4.282
76320W        W46920  42.519  40.585   4.091
76321W        W46921  16.649  44.236  14.248
76322W        W46922  13.854  28.580   4.678
76323W        W46923  26.703  39.230   0.554
76324W        W46924  40.752  15.559   0.282
76325W        W46925  11.931  42.364   2.368
76326W        W46926   4.893  35.142   2.797
76327W        W46927  18.030  29.762  13.985
76328W        W46928  25.986  16.849  13.973
76329W        W46929   7.465  22.019  14.875
76330W        W46930   6.193  28.864  12.061
76331W        W46931  32.319  39.226   5.080
76332W        W46932  16.058   2.886   4.966
76333W        W46933  25.962  26.989   2.688
76334W        W46934   4.462  24.748  10.736
76335W        W46935  41.241  16.442  11.229
76336W        W46936  11.807  21.219   1.408
76337W        W46937  12.117  11.179  13.048
76338W        W46938  37.065  13.334   4.708
76339W        W46939  36.360  32.768   2.335
76340W        W46940  28.566  24.689  13.878
76341W        W46941   3.912  16.786   1.041
76342W        W46942  38.077  39.336  14.456
76343W        W46943   2.240  32.594   3.565
76344W        W46944  19.972  17.569   4.393
76345W        W46945  26.738  20.499   2.162
76346W        W46946  42.394  23.249  10.305
76347W        W46947   2.354  18.021   1.267
76348W        W46948   5.349  37.974   4.441
76349W        W46949  18.681  13.534   0.026
76350W        W46950  20.639   5.829   0.027
76351W        W46951   2.386  21.125   9.958
76352W        W46952  23.265  38.510  11.254
76353W        W46953  33.513  11.161  11.864
76354W        W46954  10.943  18.640   2.729
76355W        W46955  16.333  18.729  12.606
76356W        W46956   6.192   3.423   0.282
76357W        W46957   5.928  41.331  13.881
76358W        W46958   1.761  13.828  11.222
76359W        W46959  44.052  20.527   4.117
76360W        W46960  23.018  28.925   4.249
76361W        W46961  23.677  32.274   3.341
76362W        W46962  29.773   3.771  11.732
76363W        W46963  41.573   6.646   0.293
76364W        W46964  37.975  35.599   3.177
76365W        W46965   0.682  39.333   0.985
76366W        W46966  43.992  26.997   3.842
76367W        W46967  34.908   7.280  14.003
76368W        W46968   3.237  32.711  13.097
76369W        W46969  20.824  15.133  13.384
76370W        W46970  44.853   9.521  10.779
76371W        W46971   4.922  24.214   2.161
76372W        W46972  14.828   3.021   1.859
76373W        W46973  21.605  32.948   4.989
76374W        W46974   6.916   2.682   3.233
76375W        W46975  33.192  34.198  13.404
76376W        W46976  38.800  30.703  13.518
76377W        W46977  28.205  33.951  10.522
76378W        W46978  18.983  39.039   2.219
76379W        W46979  44.341  22.000   1.017
76380W        W46980  33.519  35.385   4.435
76381W        W46981   5.372  21.327  13.964
76382W        W46982  16.204  41.592  13.885
76383W        W46983   9.780  36.851  13.550
76384W        W46984   3.996  31.342   0.340
76385W        W46985  36.491  32.107   1.878
76386W        W46986  44.274  26.047  11.638
76387W        W46987  36.870  21.753  12.934
76388W        W46988  41.343  43.358  10.749
76389W        W46989  38.797  40.794  13.125
76390W        W46990  14.048  36.582   0.859
76391W        W46991  31.112   9.916   3.679
76392W        W46992  31.647  23.478   2.748
76393W        W46993  35.366  28.099   0.256
76394W        W46994  34.053  31.499   2.220
76395W        W46995  12.728  39.848   1.240
76396W        W46996  41.946  25.682  14.869
76397W        W46997  35.437  16.323   1.945
76398W        W46998  22.182  15.748   0.278
76399W        W46999  31.404  33.874  12.651
76400W        W47000  18.815  12.700   4.782
76401W        W47001  22.817  28.672   3.587
76402W        W47002  38.509  33.152  11.148
76403W        W47003  34.086  35.510   0.822
76404W        W47004  42.800  29.971   1.984
76405W        W47005  23.722   1.832   3.852
76406W        W47006  22.002  35.395   0.686
76407W        W47007  39.466  11.624  11.917
76408W        W47008  20.594  15.812  10.697
76409W        W47009  16.277  29.478  13.883
76410W        W47010  40.535  18.571   0.213
76411W        W47011  41.048  40.287  10.700
76412W        W47012  15.682   0.549   3.323
76413W        W47013   1.740  38.712  12.325
76414W        W47014   6.337  21.686   2.864
76415W        W47015  22.169  38.726   0.284
76416W        W47016  37.002  24.953  13.953
76417W        W47017   2.887   8.322  12.986
76418W        W47018  10.341  25.266   1.831
76419W        W47019  29.090  26.975   2.653
76420W        W47020  11.567  12.325  13.838
76421W        W47021  28.170  22.258   4.702
76422W        W47022   3.697  24.332  10.793
76423W        W47023  28.614  32.157  10.833
76424W        W47024  22.468   3.184  14.205
76425W        W47025  43.942  30.958   0.745
76426W        W47026  37.513  39.627   3.704
76427W        W47027  28.709   1.964  11.176
76428W        W47028  30.913  41.412   2.652
76429W        W47029  44.358  24.690  10.620
76430W        W47030  43.324  41.806  12.104
76431W        W47031  25.101  21.125   4.555
76432W        W47032  34.206  32.730   1.793
76433W        W47033  20.220  27.788  12.171
76434W        W47034   0.511  38.817   4.132
76435W        W47035   1.795  21.645  14.194
76436W        W47036  25.376  13.959  11.463
76437W        W47037  35.155  32.944   2.790
76438W        W47038  41.221  15.829   3.553
76439W        W47039  17.531  25.880   2.623
76440W        W47040   0.365  34.126  12.073
76441W        W47041  44.952   3.400  12.332
76442W        W47042  41.506  40.029   1.453
76443W        W47043   6.081  21.922  12.955
76444W        W47044  15.111   3.346   2.664
76445W        W47045  19.249  23.958  11.466
76446W        W47046   4.139  44.418   2.279
76447W        W47047  24.003  15.899   1.359
76448W        W47048   0.775  31.239   3.816
76449W        W47049  23.577  33.110  12.435
76450W        W47050  25.760  17.084  13.398
76451W        W47051  42.537  25.660  14.313
76452W        W47052  26.419  43.435   3.987
76453W        W47053  12.730  20.083  13.897
76454W        W47054  32.235  31.473   1.791
76455W        W47055  26.972  36.012  14.515
76456W        W47056   1.238  28.783  13.941
76457W        W47057  18.577  40.109  11.967
76458W        W47058  40.431   2.803   1.645
76459W        W47059   7.886  43.148  14.812
76460W        W47060   6.829  11.594   3.275
76461W        W47061  36.366  31.460   1.276
76462W        W47062  34.113   6.074   2.751
76463W        W47063  44.872  36.973  14.615
76464W        W47064  32.286   2.910  11.098
76465W        W47065  15.292  31.944   3.851
76466W        W47066   1.366  33.316   2.693
76467W        W47067  42.759  25.965   0.463
76468W        W47068  24.513  28.647  10.698
76469W        W47069  33.526   9.295   1.510
76470W        W47070  17.661  21.963   4.136
76471W        W47071  12.740  19.081   1.882
76472W        W47072  30.928  39.052  12.070
76473W        W47073   9.888  21.163  14.561
76474W        W47074  28.832  41.408  10.750
76475W        W47075   6.611  15.410   3.836
76476W        W47076   8.752  32.341   3.592
76477W        W47077  15.818  27.418  13.419
76478W        W47078   8.389  37.007  13.623
76479W        W47079  14.048  32.188   1.895
76480W        W47080  11.323  32.939   0.661
76481W        W47081  29.753   5.307  12.150
76482W        W47082  38.059  18.292   2.173
76483W        W47083  36.152   4.250   0.865
76484W        W47084  36.003   4.038   2.171
76485W        W47085  29.868  19.611  13.713
76486W        W47086  13.029  13.220   4.952
76487W        W47087   3.271  14.197   4.772
76488W        W47088  17.353  32.486  12.374
76489W        W47089   8.633  44.594   2.676
76490W        W47090   0.283  32.908  10.336
76491W        W47091  31.081   9.374  13.948
76492W        W47092  36.795   9.171  13.472
76493W        W47093  22.975  21.936  13.047
76494W        W47094  37.675  34.546   1.442
76495W        W47095   2.198  23.725  12.997
76496W        W47096  12.192  32.675   0.908
76497W        W47097  11.407  34.776  11.065
76498W        W47098   0.178  13.744   0.359
76499W        W47099  33.633  38.544   3.221
76500W        W47100  10.907  37.557   4.688
76501W        W47101   3.219  10.377  11.106
76502W        W47102  36.107  21.651   2.391
76503W        W47103   6.162   9.457  13.495
76504W        W47104  12.909  20.622   4.287
76505W        W47105  19.744  27.507   3.712
76506W        W47106   6.208  41.137  14.995
76507W        W47107  23.038  36.988  14.576
76508W        W47108   0.775   7.674  12.331
76509W        W47109   8.276   3.508   2.184
76510W        W47110  40.522  15.620   5.001
76511W        W47111  23.028  31.064   4.550
76512W        W47112  24.721  17.773  14.492
76513W        W47113  24.024  44.011  11.907
76514W        W47114  13.876   7.643  13.960
76515W        W47115  39.883  40.256  12.032
76516W        W47116  11.023   4.128   2.734
76517W        W47117  17.035  26.286  12.047
76518W        W47118  40.546  15.031  13.415
76519W        W47119  41.234  36.552  11.610
76520W        W47120  41.751   2.331  13.558
76521W        W47121  41.486  32.884   0.934
76522W        W47122   8.953  38.615   1.914
76523W        W47123  40.732   5.032   1.183
76524W        W47124  19.380  18.694   2.784
76525W        W47125  31.465  39.731   3.229
76526W        W47126  11.101  31.512  14.311
76527W        W47127  32.565   1.028  14.880
76528W        W47128  10.866  21.639   1.885
76529W        W47129  19.010  13.685   0.416
76530W        W47130   3.310   4.988   2.027
76531W        W47131  38.570  20.893   1.783
76532W        W47132   4.253  10.096   1.605
76533W        W47133  18.096   0.740  12.870
76534W        W47134  23.637  11.061  14.525
76535W        W47135  31.570  32.523  12.394
76536W        W47136   8.799   6.194   0.381
76537W        W47137  19.706  28.425  13.847
76538W        W47138  16.140  16.634  12.871
76539W        W47139   5.489  41.769  12.128
76540W        W47140   1.026  30.660   1.719
76541W        W47141  14.545  15.566  13.076
76542W        W47142  29.485  19.659  11.749
76543W        W47143   0.789  11.356  11.570
76544W        W47144   8.311  33.112   3.725
76545W        W47145  12.622  40.674   4.612
76546W        W47146  25.774   8.588  12.368
76547W        W47147  29.176   7.189  12.927
76548W        W47148  21.010  22.160  13.589
76549W        W47149  42.809   2.007   3.622
76550W        W47150   8.116  41.195   1.323
76551W        W47151  34.329  19.756  14.389
76552W        W47152   5.314  34.649  13.387
76553W        W47153  15.071  44.931  14.311
76554W        W47154  18.733  12.128   3.736
76555W        W47155  42.398  30.573   2.310
76556W        W47156  42.882   5.718  11.454
76557W        W47157  29.618  14.422  13.924
76558W        W47158  39.306  32.726   3.073
76559W        W47159  18.558  20.973   0.237
76560W        W47160  41.871  11.681   3.573
76561W        W47161  10.931  43.218  13.278
76562W        W47162   5.805  14.428  14.590
76563W        W47163   3.746   0.373   2.288
76564W        W47164   5.278  12.748  12.308
76565W        W47165  15.646  30.535  13.805
76566W        W47166  21.116  24.883  11.583
76567W        W47167   1.504   2.181  11.915
76568W        W47168  25.680  11.633   4.096
76569W        W47169   7.788  30.588  13.209
76570W        W47170  31.642  34.936  10.390
76571W        W47171   6.668  41.537   4.611
76572W        W47172  44.473  23.717  11.661
76573W        W47173  22.736  19.549   4.231
76574W        W47174  11.060  10.819   4.586
76575W        W47175   9.215  36.558  12.572
76576W        W47176  11.758  17.552   1.600
76577W        W47177  36.930  37.553  13.054
76578W        W47178   2.117   9.775   1.672
76579W        W47179  17.002  38.819   2.461
76580W        W47180  30.074  33.354  14.958
76581W        W47181  17.998  15.794   4.157
76582W        W47182   8.457   1.425  14.524
76583W        W47183  36.352  17.060  12.977
76584W        W47184  14.622  26.701  14.912
76585W        W47185  16.866  19.300   1.147
76586W        W47186  38.534  24.381   4.569
76587W        W47187  24.803  22.546   2.202
76588W        W47188  44.419  13.705  14.394
76589W        W47189   4.925  44.744  12.988
76590W        W47190  28.261  44.958  14.337
76591W        W47191  19.989  11.217   1.575
76592W        W47192  15.885  16.048   0.962
76593W        W47193  34.808   2.996  14.891
76594W        W47194  32.591  22.644   1.750
76595W        W47195  11.714  16.652   1.389
76596W        W47196  26.603  32.870  14.428
76597W        W47197  14.443   7.609   5.070
76598W        W47198  14.779  24.187   4.221
76599W        W47199  33.936  19.979   1.460
76600W        W47200  25.044  40.615  12.582
76601W        W47201   3.417  22.228   3.363
76602W        W47202  15.809  16.842   4.530
76603W        W47203   4.896   4.700  12.376
76604W        W47204  24.549  44.958   3.155
76605W        W47205  37.966  32.677  12.939
76606W        W47206   8.688  12.829   3.380
76607W        W47207  31.402   6.080  12.508
76608W        W47208  39.437   3.153   1.460
76609W        W47209  37.862  41.294  13.941
76610W        W47210  32.113  29.276   4.193
76611W        W47211  30.760  34.910   1.937
76612W        W47212  21.252  21.766   3.677
76613W        W47213  20.757   4.649  14.265
76614W        W47214  30.591  10.488   3.204
76615W        W47215   4.689   7.187  13.800
76616W        W47216  10.803  12.225  14.434
76617W        W47217  28.682  28.707   0.043
76618W        W47218  41.887  20.719  12.361
76619W        W47219   0.951   5.826  13.524
76620W        W47220  12.283  24.688  12.680
76621W        W47221  16.867   3.101  13.922
76622W        W47222  10.815  38.349   3.454
76623W        W47223   9.550  15.849  11.097
76624W        W47224  36.931  12.974  12.480
76625W        W47225   4.289  23.307   4.215
76626W        W47226  15.996  41.593   3.115
76627W        W47227  16.118   1.786   4.099
76628W        W47228  14.324  41.002   4.422
76629W        W47229  43.608  37.410   3.195
76630W        W47230  42.081  27.608  11.084
76631W        W47231  23.262  18.031   4.223
76632W        W47232  35.206  41.385   3.523
76633W        W47233  38.540  12.673  14.303
76634W        W47234  15.156  32.943  12.605
76635W        W47235   7.090   3.665  14.777
76636W        W47236  21.202   4.926   0.889
76637W        W47237   9.646  39.708  11.126
76638W        W47238   3.417  27.114  14.687
76639W        W47239  37.770  25.122  11.170
76640W        W47240  38.895   2.598   3.305
76641W        W47241  27.583   7.663   3.975
76642W        W47242  11.602  14.208  10.162
76643W        W47243  29.958  44.591   0.887
76644W        W47244   1.290  20.144   1.737
76645W        W47245  33.092  28.586  13.958
76646W        W47246   0.088  13.137   2.103
76647W        W47247  38.249  10.166   2.529
76648W        W47248  38.025   2.200   2.327
76649W        W47249   4.948  39.195   4.916
76650W        W47250  33.222   4.273   3.342
76651W        W47251  24.489  43.697   5.097
76652W        W47252  34.930   4.243  13.920
76653W        W47253   3.658  38.270  12.398
76654W        W47254  37.933  23.468   4.426
76655W        W47255   7.904  11.156  12.490
76656W        W47256  26.490   8.724   1.708
76657W        W47257  20.043  40.365  13.574
76658W        W47258  32.554   8.849  11.900
76659W        W47259  17.295  11.163  12.601
76660W        W47260   1.891   9.702   4.233
76661W        W47261  40.416  40.123  14.458
76662W        W47262   1.472  30.438  12.372
76663W        W47263   3.757   2.775   3.823
76664W        W47264  43.733   9.437   3.817
76665W        W47265  18.867  38.660  11.187
76666W        W47266  14.598  33.627   2.654
76667W        W47267  37.943  14.333  11.624
76668W        W47268   3.030   0.883   3.608
76669W        W47269   1.531  22.832  11.169
76670W        W47270  17.269  26.436  14.173
76671W        W47271  38.115  16.821   0.860
76672W        W47272  16.334  32.713  12.417
76673W        W47273  41.094  30.114   1.647
76674W        W47274  15.672  14.237  12.009
76675W        W47275  26.941   5.490  13.048
76676W        W47276  32.862  18.484   3.209
76677W        W47277  23.962  41.980  14.492
76678W        W47278  42.924  41.275   0.355
76679W        W47279  24.403   3.327   0.591
76680W        W47280   5.204  32.136   0.781
76681W        W47281   5.129  26.555   0.943
76682W        W47282  26.454  18.664  14.924
76683W        W47283   2.383   2.047   0.919
76684W        W47284   9.347   1.712  12.488
76685W        W47285  25.007  22.704   3.744
76686W        W47286  17.576  42.274  14.961
76687W        W47287  14.232   7.630   4.130
76688W        W47288  15.329   2.729  11.183
76689W        W47289  18.289  13.143   2.636
76690W        W47290  17.709  44.295   4.949
76691W        W47291   1.260  22.416  14.387
76692W        W47292  38.400   2.796   3.311
76693W        W47293   9.119  16.155  13.720
76694W        W47294  23.215  21.666   1.793
76695W        W47295  20.265  22.671  11.532
76696W        W47296  43.519  37.642  12.820
76697W        W47297  44.858  19.024   4.209
76698W        W47298  27.204  33.391  12.433
76699W        W47299   6.193  44.339   4.537
76700W        W47300  24.257  29.358  14.371
76701W        W47301  14.419   4.391   4.240
76702W        W47302  10.603  38.539  13.717
76703W        W47303  34.044   8.425  12.020
76704W        W47304  13.588   6.863  14.376
76705W        W47305  28.104  13.174  13.553
76706W        W47306  38.740   2.378   1.394
76707W        W47307   4.000  29.077   4.465
76708W        W47308   5.977  13.895   2.426
76709W        W47309  32.246   2.241   1.174
76710W        W47310  41.317  21.639   0.101
76711W        W47311  38.529  11.127  13.847
76712W        W47312  23.132  12.349   3.587
76713W        W47313   3.790  44.800   0.176
76714W        W47314  10.834   4.260   2.262
76715W        W47315  42.364  39.781   2.946
76716W        W47316  10.706   0.801  12.482
76717W        W47317  14.701  31.682  10.785
76718W        W47318  37.627  11.724   5.114
76719W        W47319  12.461  11.378  14.275
76720W        W47320  32.907   8.402   3.746
76721W        W47321  20.118  27.118  13.997
76722W        W47322  38.810   6.911  10.550
76723W        W47323  44.396  37.593  12.181
76724W        W47324  11.627  10.934   1.189
76725W        W47325  44.371  37.508  11.685
76726W        W47326  28.217  39.653  13.365
76727W        W47327   8.160   6.002  11.896
76728W        W47328   6.637  29.236  14.698
76729W        W47329  22.514  39.955  11.165
76730W        W47330  39.313  40.567  11.571
76731W        W47331  41.785  36.991   0.847
76732W        W47332  12.807   9.378  10.855
76733W        W47333  24.623  32.688   4.225
76734W        W47334  25.388   0.048  11.945
76735W        W47335   6.396  17.706   1.859
76736W        W47336  18.264  15.100   3.755
76737W        W47337   1.323  36.092  13.478
76738W        W47338  13.206  32.693  12.005
76739W        W47339  36.837  30.865  13.992
76740W        W47340  40.024  10.894  12.641
76741W        W47341  16.435  25.958   4.603
76742W        W47342  29.815  44.919  14.378
76743W        W47343  30.207  43.443  12.288
76744W        W47344  35.257  33.718   0.158
76745W        W47345   8.265  12.218   0.151
76746W        W47346  20.718  40.043   3.097
76747W        W47347  23.648  16.267  11.536
76748W        W47348   3.368  34.773   5.035
76749W        W47349  22.765   9.438   3.999
76750W        W47350   8.229  15.227   3.901
76751W        W47351  27.729  43.442  14.779
76752W        W47352  24.581  31.627   4.201
76753W        W47353  19.196   8.128  10.965
76754W        W47354  42.005  24.274   3.194
76755W        W47355  31.350  44.767  11.941
76756W        W47356  36.050  20.758   4.322
76757W        W47357  28.539  15.100   3.709
76758W        W47358  28.414  42.373   4.349
76759W        W47359   8.352   3.686  14.870
76760W        W47360  35.037  27.064   3.356
76761W        W47361   9.812   3.495   4.329
76762W        W47362  34.847  17.178  13.026
76763W        W47363  18.586  21.989   1.191
76764W        W47364  35.778  10.645  11.156
76765W        W47365  36.264  37.914   3.121
76766W        W47366  44.850  17.783   3.732
76767W        W47367   8.841  16.245  12.874
76768W        W47368  33.903   7.729  13.378
76769W        W47369   3.870  32.143   4.702
76770W        W47370  38.780  30.194   2.497
76771W        W47371   5.993  33.102   0.859
76772W        W47372  26.195  24.029   4.913
76773W        W47373   8.713  23.164  14.310
76774W        W47374  10.246  44.366  13.030
76775W        W47375  23.203  44.558   2.709
76776W        W47376   1.305   2.865   1.334
76777W        W47377  37.550   2.846  12.112
76778W        W47378  31.345  44.910   3.087
76779W        W47379  13.910  40.431   1.745
76780W        W47380   1.975  29.610  11.137
76781W        W47381  20.203  29.427  14.757
76782W        W47382   0.950   1.302  13.896
76783W        W47383  29.434  12.098   0.174
76784W        W47384   1.731  23.467   4.369
76785W        W47385   6.170  41.870  12.710
76786W        W47386   7.966  22.041  14.735
76787W        W47387  29.064  25.396   2.350
76788W        W47388  36.896  40.960   2.778
76789W        W47389   3.461   4.644   3.523
76790W        W47390  28.147  10.339  11.115
76791W        W47391  14.321  10.826  11.469
76792W        W47392  26.729  39.957  14.407
76793W        W47393   1.407  40.289   4.801
76794W        W47394  43.718  39.676  13.798
76795W        W47395  37.944  23.161   2.867
76796W        W47396   9.646   4.223  13.493
76797W        W47397  32.537  34.521  14.585
76798W        W47398  19.110  29.434   1.726
76799W        W47399  13.199  10.826   3.666
76800W        W47400  17.572  14.674   2.202
76801W        W47401   0.788  26.101  14.483
76802W        W47402  42.346   4.017   4.045
76803W        W47403  26.500  24.184  12.550
76804W        W47404  24.990  28.967   4.426
76805W        W47405  33.043  13.357   3.128
76806W        W47406  37.265   3.914   3.609
76807W        W47407  10.860  40.358  10.276
76808W        W47408  39.924  43.985   3.172
76809W        W47409  12.626   4.694  14.895
76810W        W47410  42.816   5.653   0.891
76811W        W47411   2.723  34.527   0.300
76812W        W47412  23.559  24.651  12.936
76813W        W47413  30.716   3.424  10.411
76814W        W47414  13.591  35.388  14.541
76815W        W47415  18.301   7.407   4.447
76816W        W47416  20.735  22.525   4.652
76817W        W47417   5.119   6.380  12.947
76818W        W47418  40.299  41.024   1.744
76819W        W47419   0.800   7.271  10.698
76820W        W47420  43.246  18.379  13.095
76821W        W47421  44.543  26.091   1.873
76822W        W47422  41.953  10.051   1.882
76823W        W47423   8.438  35.945   1.345
76824W        W47424  25.438  14.934   3.246
76825W        W47425   7.262  38.529  13.861
76826W        W47426  12.359  31.531   2.875
76827W        W47427  33.891  21.754  14.187
76828W        W47428  43.062  17.379   3.686
76829W        W47429  33.876   0.922   4.878
76830W        W47430  34.353   7.997  13.249
76831W        W47431   5.244   5.187   3.180
76832W        W47432  27.243  15.544   4.225
76833W        W47433   8.199   5.313   4.856
76834W        W47434   3.680  39.011   4.457
76835W        W47435  30.478  44.367   1.108
76836W        W47436  22.564  21.078  11.287
76837W        W47437  27.014  21.585   1.231
76838W        W47438  28.541  27.702  11.603
76839W        W47439   6.371  14.828   3.237
76840W        W47440   7.808  19.598   9.745
76841W        W47441  43.870  27.426  14.263
76842W        W47442  23.378  25.880  14.538
76843W        W47443  10.435  39.219   1.651
76844W        W47444  20.062   9.115   5.065
76845W        W47445  32.102   7.333  13.492
76846W        W47446   7.899   9.270  12.545
76847W        W47447  44.455  15.173   3.624
76848W        W47448   9.119  38.553  12.923
76849W        W47449  12.355  21.003  10.829
76850W        W47450  28.974   5.620  14.941
76851W        W47451  19.523  29.475  13.338
76852W        W47452  16.724  29.270   5.002
76853W        W47453  43.261  15.162   4.794
76854W        W47454  37.502  34.323   3.265
76855W        W47455  44.230   4.451  14.256
76856W        W47456  12.306   6.414   3.973
76857W        W47457  20.215   3.227   1.402
76858W        W47458  23.906  37.035   0.065
76859W        W47459  43.949  43.431   2.221
76860W        W47460   5.284  37.609   3.645
76861W        W47461  44.369  29.429  11.200
76862W        W47462  29.140  35.865   4.129
76863W        W47463  17.789   8.278   3.563
76864W        W47464  30.489  38.274  12.659
76865W        W47465  32.639   7.714   4.230
76866W        W47466  19.259   4.938  14.315
76867W        W47467  43.058   0.544  14.800
76868W        W47468  15.563   7.296   1.285
76869W        W47469  37.866   5.291   2.444
76870W        W47470  15.234   9.674   3.606
76871W        W47471  34.552   1.345   3.360
76872W        W47472  41.388   2.729  10.160
76873W        W47473  18.918  16.037   2.173
76874W        W47474  11.910  11.628  10.860
76875W        W47475  30.594   9.627   1.810
76876W        W47476  33.525  12.402  14.718
76877W        W47477  29.159   7.890   4.688
76878W        W47478  21.207  28.061   1.218
76879W        W47479  30.105  38.985  13.123
76880W        W47480  17.180  42.420   1.718
76881W        W47481  31.732  27.628   0.433
76882W        W47482  27.441  29.643   4.242
76883W        W47483   0.444  14.657  14.954
76884W        W47484  41.602  25.645  14.031
76885W        W47485  15.298  11.837   4.185
76886W        W47486   8.191  14.070   0.532
76887W        W47487  24.768  24.612   4.080
76888W        W47488  18.711  20.698  14.822
76889W        W47489  31.385   8.503   2.243
76890W        W47490  16.556  38.263  11.668
76891W        W47491  13.681   5.815   2.586
76892W        W47492  12.976  39.902  11.967
76893W        W47493  33.501  18.720   1.302
76894W        W47494   0.224  12.539  13.917
76895W        W47495  39.878  27.511   0.718
76896W        W47496  41.426  33.751  12.765
76897W        W47497  13.257  41.245  10.301
76898W        W47498  18.140   7.218   3.346
76899W        W47499  17.617  35.513  11.659
76900W        W47500  43.552   5.741   1.643
76901W        W47501  41.847   4.182   3.853
76902W        W47502   3.767  39.902   4.724
76903W        W47503  26.947  11.111  14.272
76904W        W47504   0.264  42.404  14.667
76905W        W47505  25.364   8.373  12.606
76906W        W47506  35.038  34.103  10.792
76907W        W47507   0.482  23.134   1.178
76908W        W47508   2.607  26.041  13.940
76909W        W47509   0.737  29.055   3.790
76910W        W47510   2.484   3.400   0.749
76911W        W47511  34.568   3.528   4.194
76912W        W47512  22.928  10.249   3.084
76913W        W47513   9.174   4.773  14.698
76914W        W47514  24.599   8.255  10.982
76915W        W47515   4.860  23.685   2.304
76916W        W47516  30.943  43.533   1.337
76917W        W47517   0.309  36.439   0.865
76918W        W47518  23.937   8.264   2.261
76919W        W47519   3.248  16.156  12.454
76920W        W47520  20.645  23.046   4.592
76921W        W47521  37.518  26.602   0.807
76922W        W47522   7.708  34.133  13.483
76923W        W47523  32.986  37.846  13.061
76924W        W47524  21.606  38.089  11.221
76925W        W47525  14.935  24.667   4.020
76926W        W47526   4.267   6.339   1.802
76927W        W47527   1.695  13.820  12.825
76928W        W47528  27.570  31.939  12.668
76929W        W47529  31.896  43.927   1.724
76930W        W47530  11.586  15.189  13.368
76931W        W47531   3.086  41.191  14.771
76932W        W47532  41.827  34.646   2.799
76933W        W47533  43.646  17.651  11.163
76934W        W47534  18.833  11.978  13.762
76935W        W47535  24.521  25.081   4.216
76936W        W47536  17.456  44.679  14.780
76937W        W47537  44.786  21.570  13.447
76938W        W47538  35.379   2.766  10.606
76939W        W47539  31.092  42.079  12.974
76940W        W47540  42.359  27.724   0.588
76941W        W47541  28.724  23.487   0.234
76942W        W47542  38.236  15.407   0.901
76943W        W47543   2.710  18.701  14.445
76944W        W47544  39.048  12.420   1.250
76945W        W47545  42.875  42.341   3.322
76946W        W47546  36.873   0.778  12.561
76947W        W47547  40.851   4.323   1.671
76948W        W47548   5.797  23.436  13.474
76949W        W47549  35.334  31.971   0.824
76950W        W47550  13.970  17.235   5.027
76951W        W47551   9.969  24.205  11.841
76952W        W47552  34.050  16.565  14.178
76953W        W47553  14.287   3.130   5.104
76954W        W47554  34.056   2.900  10.665
76955W        W47555  39.759  36.406  12.527
76956W        W47556  34.037  23.734   3.724
76957W        W47557  17.845  36.872  11.989
76958W        W47558  23.026  10.242  14.963
76959W        W47559  42.860  13.851   2.686
76960W        W47560  11.213   3.452  11.957
76961W        W47561  40.880  12.666  14.733
76962W        W47562  40.889  12.765  12.967
76963W        W47563   6.840  33.959  12.969
76964W        W47564  24.009  28.801  14.994
76965W        W47565   4.679  14.383  12.561
76966W        W47566   2.746  10.917  12.822
76967W        W47567   1.757  24.498  13.396
76968W        W47568  43.441   9.933   3.688
76969W        W47569  42.850  23.175   4.732
76970W        W47570  37.472   4.488   4.240
76971W        W47571  36.035  23.635   4.566
76972W        W47572  29.688   4.987   0.320
76973W        W47573  44.989  44.528   3.155
76974W        W47574  11.207  10.643  10.439
76975W        W47575  25.234  23.545   0.722
76976W        W47576  13.747  14.237  13.577
76977W        W47577  19.578  39.953  11.072
76978W        W47578  37.547  40.521  11.947
76979W        W47579  40.236  21.045  10.283
76980W        W47580  16.960  26.915   0.815
76981W        W47581  28.854  25.710   1.098
76982W        W47582  11.594  16.766   2.687
76983W        W47583  10.613  24.763  10.519
76984W        W47584  14.385  26.154   3.349
76985W        W47585  19.901  39.589   0.349
76986W        W47586  44.501   8.098  13.830
76987W        W47587  18.593  16.022  13.937
76988W        W47588  26.602  19.290  11.964
76989W        W47589  12.552  33.308  10.787
76990W        W47590  42.403  36.959   0.942
76991W        W47591  20.082  41.384   0.911
76992W        W47592  34.496  10.128   4.551
76993W        W47593  14.628  16.056   0.343
76994W        W47594  20.723  24.599  10.721
76995W        W47595  19.698  31.508   1.989
76996W        W47596  14.731  23.755   4.628
76997W        W47597  27.673  26.104   3.167
76998W        W47598  44.312  35.540   4.849
76999W        W47599   1.242  34.388  11.083
77000W        W47600  24.125  29.269   3.930
77001W        W47601  20.730  23.603  12.079
77002W        W47602  27.416   3.746   2.667
77003W        W47603  25.578   2.628   3.214
77004W        W47604   9.884  22.059  11.158
77005W        W47605  41.138   3.372   1.617
77006W        W47606  41.929   1.185  14.073
77007W        W47607  41.677  24.847   4.027
77008W        W47608  42.029  11.264   4.076
77009W        W47609  26.228  29.299  12.002
77010W        W47610  22.078  24.018   1.168
77011W        W47611  28.200  20.333  14.384
77012W        W47612  13.283   6.010   2.934
77013W        W47613  25.905  38.048  11.616
77014W        W47614   0.991  40.608   2.061
77015W        W47615  37.925   8.937   4.443
77016W        W47616   0.502  27.087  11.887
77017W        W47617   3.444  31.669   4.121
77018W        W47618  37.496  39.396  12.807
77019W        W47619  16.138   5.186   0.803
77020W        W47620  35.470  23.981  12.168
77021W        W47621  16.092   9.630  14.849
77022W        W47622  11.157  43.890  11.217
77023W        W47623  36.849  22.482  13.458
77024W        W47624  26.921   5.528  14.980
77025W        W47625  19.586  30.092   1.838
77026W        W47626  34.563  20.594   0.727
77027W        W47627  37.472  30.235   2.983
77028W        W47628  37.455   0.927  14.049
77029W        W47629  12.673   7.335   5.050
77030W        W47630  39.020  16.195  12.577
77031W        W47631  11.911  29.726  11.632
77032W        W47632   4.406  43.921  14.734
77033W        W47633  16.429  40.279  12.067
77034W        W47634  44.477  10.424   2.107
77035W        W47635   6.889  12.121  10.793
77036W        W47636  26.064  22.955   2.715
77037W        W47637  23.333  15.016   2.716
77038W        W47638   8.833   8.610  12.385
77039W        W47639  43.345  26.609  12.992
77040W        W47640  19.144  43.988   4.818
77041W        W47641  28.091  19.206   9.817
77042W        W47642   2.508   2.036   4.128
77043W        W47643  11.694  16.175  13.438
77044W        W47644   4.234  21.491  12.001
77045W        W47645  28.948  41.939   3.768
77046W        W47646  44.108  35.991  11.897
77047W        W47647  25.060  10.664   1.677
77048W        W47648  32.657  13.808  13.376
77049W        W47649  12.690   7.066  14.139
77050W        W47650  26.588  17.479   4.638
77051W        W47651  42.962  10.825  13.499
77052W        W47652  43.456   0.684  10.359
77053W        W47653  19.220   1.058  11.730
77054W        W47654  25.488  31.050  14.356
77055W        W47655  15.590   8.635   3.283
77056W        W47656  14.054  14.851   2.323
77057W        W47657  20.012  23.733   1.681
77058W        W47658  21.137  21.312  12.941
77059W        W47659  33.984   6.737  13.321
77060W        W47660  21.161  35.516   4.568
77061W        W47661   1.922  35.200   1.868
77062W        W47662   9.831   2.078   1.336
77063W        W47663  12.358   3.166   1.751
77064W        W47664  18.420  38.857  13.068
77065W        W47665  19.451   6.360   3.000
77066W        W47666  43.225  33.571  14.905
77067W        W47667  10.910  29.890  10.783
77068W        W47668   5.749  41.252  10.581
77069W        W47669  19.988  38.549  11.240
77070W        W47670  29.641  28.445  11.164
77071W        W47671   1.814  36.248  14.517
77072W        W47672  19.482   8.072   4.123
77073W        W47673  14.872  12.730  11.603
77074W        W47674  12.311  20.717  14.781
77075W        W47675  40.832  14.124  12.553
77076W        W47676  31.498   5.897  11.235
77077W        W47677  36.660   8.299  13.368
77078W        W47678  11.255   2.961   3.158
77079W        W47679  41.702   7.892   0.766
77080W        W47680  43.889  42.091  14.020
77081W        W47681   1.198  15.898  14.528
77082W        W47682  43.407  14.126   2.876
77083W        W47683  20.639  15.739  12.467
77084W        W47684  42.959   5.797   2.259
77085W        W47685  42.041   0.985   3.248
77086W        W47686  21.030  41.804   4.270
77087W        W47687  24.723  33.588   0.763
77088W        W47688  35.902  14.547  14.971
77089W        W47689   1.394  25.596   2.449
77090W        W47690  14.192  23.593  12.938
77091W        W47691  30.454  26.213   2.812
77092W        W47692  39.593  27.159  11.144
77093W        W47693  18.491  29.440  11.123
77094W        W47694  30.015  36.930   3.299
77095W        W47695  19.250  24.225  11.911
77096W        W47696  21.501  33.949  13.397
77097W        W47697  31.300  16.888  14.817
77098W        W47698  21.775  35.358  10.797
77099W        W47699  44.110  35.876  13.718
77100W        W47700  42.736  33.490  14.777
77101W        W47701  33.165  23.345   4.598
77102W        W47702  31.012   5.151  11.644
77103W        W47703  44.036  42.459   3.376
77104W        W47704  20.123  26.498   0.427
77105W        W47705  31.956  43.362   4.283
77106W        W47706  26.135  28.683   4.689
77107W        W47707  17.260  37.534   3.707
77108W        W47708  34.106  11.582   1.305
77109W        W47709  41.290  21.252  10.288
77110W        W47710  41.473  29.006   2.228
77111W        W47711  24.356   2.830   0.391
77112W        W47712  20.501  42.799   1.776
77113W        W47713  19.585  19.066   0.070
77114W        W47714   9.342  27.410  10.708
77115W        W47715  21.583   2.783  12.871
77116W        W47716  30.365  42.282   2.776
77117W        W47717  10.523  35.410  14.854
77118W        W47718  42.090   3.775  11.210
77119W        W47719  16.279   4.370  12.064
77120W        W47720  15.837   5.625   3.059
77121W        W47721  14.122  12.095   2.705
77122W        W47722  23.630   2.324   1.457
77123W        W47723  14.772  11.804   9.905
77124W        W47724  33.964   7.217   4.417
77125W        W47725  30.281  40.579  14.558
77126W        W47726   7.511  13.419   5.021
77127W        W47727  12.823   7.128  10.770
77128W        W47728   5.754  42.103  11.829
77129W        W47729  33.811  15.359  11.156
77130W        W47730  23.319   6.815  11.604
77131W        W47731  43.736   5.276   1.783
77132W        W47732  23.960  33.140   3.185
77133W        W47733   7.126   2.480  12.564
77134W        W47734  17.166  19.617   3.700
77135W        W47735   1.364  15.424  13.236
77136W        W47736  37.442  34.159   2.730
77137W        W47737  29.409  23.256   2.635
77138W        W47738   0.919  22.951   0.942
77139W        W47739  41.311  26.921   4.635
77140W        W47740  23.475  26.966  12.439
77141W        W47741  28.365  12.920   4.613
77142W        W47742  30.897  44.558   5.293
77143W        W47743  15.831  15.848  11.571
77144W        W47744  36.589  37.442  14.774
77145W        W47745  44.720  16.712   1.793
77146W        W47746  25.577   9.990  10.255
77147W        W47747  34.664  27.430   1.663
77148W        W47748  16.657  11.200   2.383
77149W        W47749  21.029   0.050   0.831
77150W        W47750  30.017  36.807   4.274
77151W        W47751  40.716   3.134   4.585
77152W        W47752  33.908   8.261  13.333
77153W        W47753  37.532  15.761  14.924
77154W        W47754  42.759  27.168   2.990
77155W        W47755  42.281  12.611  11.636
77156W        W47756   8.621  41.600   5.085
77157W        W47757   7.702  36.715   4.741
77158W        W47758  25.418  18.635   0.864
77159W        W47759  11.350  36.977  14.014
77160W        W47760  17.566  43.748   0.932
77161W        W47761   3.195  22.203  12.736
77162W        W47762  26.970  38.873  12.537
77163W        W47763  22.999  40.224  10.417
77164W        W47764   7.751   7.826  10.885
77165W        W47765  29.192  28.055  12.118
77166W        W47766  32.426  10.642  13.999
77167W        W47767   0.481  37.608   2.298
77168W        W47768   6.361  33.507  14.963
77169W        W47769   4.019   2.961   0.030
77170W        W47770  23.008  38.750   1.853
77171W        W47771  24.045  30.754   0.397
77172W        W47772  33.327  27.609  11.435
77173W        W47773  28.641  14.121  11.319
77174W        W47774  32.065  23.052  11.053
77175W        W47775  13.658  12.813   1.530
77176W        W47776  44.510  24.532   2.760
77177W        W47777  22.652   5.049   5.077
77178W        W47778  40.322  10.587   2.316
77179W        W47779  29.994  20.786   4.180
77180W        W47780  38.511  36.425   3.192
77181W        W47781   3.880  19.729   0.228
77182W        W47782  35.377   9.095   3.430
77183W        W47783  32.025  28.174   3.155
77184W        W47784  33.960  30.622   5.037
77185W        W47785  36.130  13.313  12.906
77186W        W47786   9.765  42.502  14.272
77187W        W47787  21.663  43.759  11.817
77188W        W47788  40.753   4.093   2.596
77189W        W47789  23.680  22.232  12.381
77190W        W47790  37.016  10.132   3.698
77191W        W47791  11.465  44.285  12.065
77192W        W47792   0.963   9.292   3.170
77193W        W47793  22.089  31.872   1.510
77194W        W47794  31.393  15.734  13.850
77195W        W47795  20.746  39.926  10.754
77196W        W47796  32.459   3.481  10.990
77197W        W47797  44.940  38.243   0.728
77198W        W47798  42.722  14.722  14.323
77199W        W47799  43.445  24.076  13.241
77200W        W47800  39.971   4.706  14.340
77201W        W47801  30.074  43.160   0.830
77202W        W47802  29.653  16.300  13.480
77203W        W47803  32.642  30.396  11.218
77204W        W47804  15.905  15.694   2.343
77205W        W47805  17.138  20.338   1.954
77206W        W47806  14.557  17.223   4.552
77207W        W47807   7.580  41.091  10.836
77208W        W47808  30.050  40.186  12.469
77209W        W47809  30.051  11.215   3.632
77210W        W47810  19.688  38.202  11.518
77211W        W47811  36.864   5.907   4.304
77212W        W47812  34.026  36.808  14.810
77213W        W47813  29.431  29.966  10.759
77214W        W47814  30.158  11.250  14.001
77215W        W47815  20.888  22.369  12.715
77216W        W47816  28.016  31.202  14.932
77217W        W47817  30.534  38.829  12.889
77218W        W47818  30.641  26.460   4.577
77219W        W47819  14.184  37.696  13.431
77220W        W47820  40.396   9.597   4.010
77221W        W47821   3.461   8.172   1.352
77222W        W47822  38.522  21.728   4.639
77223W        W47823   2.687   9.599  14.459
77224W        W47824  12.717   1.319  14.520
77225W        W47825  43.633  25.270   0.882
77226W        W47826  44.474  38.562   2.860
77227W        W47827   4.354  35.294  12.574
77228W        W47828   0.748  36.327  13.904
77229W        W47829  32.270  31.381   2.821
77230W        W47830  13.459  36.894   1.789
77231W        W47831  39.391  43.788   1.010
77232W        W47832  22.289  20.265   0.291
77233W        W47833   5.393  13.253   4.172
77234W        W47834  27.376   3.198  11.959
77235W        W47835  14.212   3.761   0.520
77236W        W47836  21.337  41.394   2.796
77237W        W47837  23.267  23.737   3.787
77238W        W47838  19.811  41.191  10.619
77239W        W47839   9.441  23.721  11.191
77240W        W47840   3.487  12.720  14.914
77241W        W47841   1.859  22.161   2.660
77242W        W47842  32.069  23.184  14.855
77243W        W47843  16.555  42.932   1.216
77244W        W47844  16.579  11.635  11.090
77245W        W47845  18.814  37.836   3.755
77246W        W47846  19.543  23.478   3.152
77247W        W47847  44.904  38.313   3.679
77248W        W47848  14.630  33.999  14.295
77249W        W47849  37.126  23.627  13.837
77250W        W47850  39.242   6.279   3.404
77251W        W47851  13.728   3.739   4.787
77252W        W47852   1.497  15.703   2.364
77253W        W47853  32.317  16.557  14.778
77254W        W47854  39.924  39.912   0.790
77255W        W47855  34.225  25.719  10.809
77256W        W47856  34.113   3.189   0.310
77257W        W47857  18.214  40.498   4.749
77258W        W47858  40.372   9.702  13.021
77259W        W47859  11.678  17.725  11.181
77260W        W47860  34.353   5.773   0.529
77261W        W47861  18.181   0.665   4.145
77262W        W47862  33.265  32.868   2.367
77263W        W47863  18.990  30.074   1.466
77264W        W47864  31.718  42.533   3.790
77265W        W47865  32.767   6.354  12.222
77266W        W47866  23.173  38.108  11.582
77267W        W47867  29.830  43.209   1.300
77268W        W47868  17.302  36.553   1.264
77269W        W47869  42.238   2.990  11.609
77270W        W47870  25.510  38.532   2.209
77271W        W47871   4.737  19.858  14.474
77272W        W47872  15.695  12.797   3.379
77273W        W47873  34.042  41.817  10.751
77274W        W47874  31.048  28.901   2.687
77275W        W47875   8.291  18.203  10.628
77276W        W47876  43.835  34.104   4.512
77277W        W47877  24.841  21.267  11.188
77278W        W47878  27.642  28.557  13.408
77279W        W47879  13.765   5.003  14.321
77280W        W47880   0.910  20.049  12.559
77281W        W47881  15.732  41.640   3.564
77282W        W47882   9.130   7.243   1.405
77283W        W47883  31.544  13.815  13.222
77284W        W47884  18.537  43.823   4.102
77285W        W47885   7.611  11.262   1.406
77286W        W47886  27.840  17.465   3.170
77287W        W47887  30.398  26.656  12.452
77288W        W47888   2.342  38.519   3.826
77289W        W47889  26.494  41.778   3.592
77290W        W47890  40.777  33.030   4.708
77291W        W47891  20.970   5.993   3.225
77292W        W47892   1.481  18.921  11.152
77293W        W47893   6.615  28.941   1.051
77294W        W47894  22.452   1.235  11.494
77295W        W47895  22.151  37.165   4.540
77296W        W47896  42.117   6.954  10.195
77297W        W47897  27.435  22.302   2.967
77298W        W47898  16.396  43.909  10.056
77299W        W47899  13.937   4.832   5.125
77300W        W47900   5.711  32.349   1.841
77301W        W47901  19.304   9.366   1.904
77302W        W47902  18.631  41.150  12.124
77303W        W47903   6.328  20.971  11.061
77304W        W47904  30.458  25.340  13.526
77305W        W47905  17.077  32.594   2.734
77306W        W47906  17.694   6.125  12.335
77307W        W47907  24.531  34.978   4.657
77308W        W47908  27.403  11.919   1.192
77309W        W47909   7.223  16.270   2.456
77310W        W47910  11.276  36.882   2.279
77311W        W47911  14.980  28.437  14.156
77312W        W47912  41.788  32.523  10.677
77313W        W47913   9.902  31.120   3.588
77314W        W47914  35.207  40.060  12.967
77315W        W47915   8.473  12.818  13.230
77316W        W47916  33.406  22.163  10.627
77317W        W47917  36.838  32.973  12.626
77318W        W47918  29.525  16.600   2.253
77319W        W47919  10.850   8.351  13.555
77320W        W47920   5.905  32.548  12.440
77321W        W47921  22.557  26.459  12.977
77322W        W47922  26.987  18.155   4.461
77323W        W47923  10.199   5.659   3.236
77324W        W47924  17.780  15.764   1.943
77325W        W47925  41.884  27.495  10.629
77326W        W47926   8.758  18.790  11.236
77327W        W47927  28.872  28.094   4.544
77328W        W47928   5.724  23.262   1.307
77329W        W47929   9.858  15.690   1.871
77330W        W47930   4.225  14.770   0.933
77331W        W47931  39.634   9.001   2.949
77332W        W47932   9.561   9.059   0.030
77333W        W47933  26.024  20.401  11.996
77334W        W47934  31.485  16.237  13.962
77335W        W47935  12.637  42.824   2.004
77336W        W47936  42.972  40.969  14.819
77337W        W47937  34.383  21.457   3.633
77338W        W47938  11.119  17.134  13.379
77339W        W47939  30.472  14.630   2.329
77340W        W47940   5.874   9.741  12.513
77341W        W47941  25.241  11.945   1.880
77342W        W47942  10.648  12.297   1.532
77343W        W47943  23.967  37.463   4.532
77344W        W47944   1.164   4.667  14.469
77345W        W47945  17.652   4.332   0.980
77346W        W47946  41.919   9.236   0.346
77347W        W47947  26.190  34.060   0.145
77348W        W47948  23.439  42.014  14.499
77349W        W47949   6.321  19.301  11.621
77350W        W47950  25.320   8.731   0.851
77351W        W47951  25.078   1.306  10.901
77352W        W47952  29.931  35.098  10.768
77353W        W47953   9.770  44.371   2.249
77354W        W47954  17.550  13.711   2.668
77355W        W47955  24.579  31.133   3.273
77356W        W47956  38.557  20.848   3.646
77357W        W47957  34.627   1.439   4.707
77358W        W47958  31.891  39.721   0.368
77359W        W47959  34.505  13.613   1.416
77360W        W47960   7.588   8.504   2.830
77361W        W47961  11.271  24.876   1.861
77362W        W47962  20.724  25.782   1.267
77363W        W47963  35.092   8.494  13.528
77364W        W47964   7.779  13.566   3.221
77365W        W47965   9.201  27.267   3.769
77366W        W47966  25.520  28.991  11.608
77367W        W47967  19.434  35.646   5.062
77368W        W47968  38.743  13.582  13.492
77369W        W47969  34.225  11.600  11.219
77370W        W47970  29.247  23.741   4.395
77371W        W47971   1.318   4.694   0.827
77372W        W47972  44.260   6.088  10.640
77373W        W47973  37.001  30.885   0.879
77374W        W47974  13.424  31.566   3.872
77375W        W47975   4.409   6.025   3.716
77376W        W47976  16.343  18.317   3.235
77377W        W47977  14.139  13.058   5.096
77378W        W47978   0.546  12.541  14.337
77379W        W47979   5.930  13.342  11.032
77380W        W47980   1.330  43.011  12.898
77381W        W47981  24.012  43.746  12.340
77382W        W47982  25.500  29.010   3.690
77383W        W47983  41.695  30.991  14.319
77384W        W47984  40.487  11.298   0.790
77385W        W47985  32.944  15.061   1.343
77386W        W47986  27.541  34.011   2.368
77387W        W47987   8.785  40.320   1.369
77388W        W47988  30.337  29.648   4.016
77389W        W47989  22.526  17.866   4.674
77390W        W47990  25.684  34.095   0.056
77391W        W47991  34.518  25.643   4.440
77392W        W47992  17.710  23.296  12.882
77393W        W47993  35.044  21.678  14.982
77394W        W47994  23.128  43.210  11.272
77395W        W47995  20.634  12.280  13.994
77396W        W47996  27.567  33.576  13.966
77397W        W47997   0.397  23.532   2.479
77398W        W47998  32.598  15.407  13.025
77399W        W47999  17.224   3.944  13.864
77400W        W48000   1.568  24.104   4.703
77401W        W48001  23.965  39.504   3.281
77402W        W48002  16.046  39.552  14.099
77403W        W48003  30.906  20.179   1.815
77404W        W48004  40.364  30.912  12.799
77405W        W48005   2.762   7.741  10.919
77406W        W48006  17.322  42.428   3.177
77407W        W48007  24.196  14.038  10.218
77408W        W48008   5.807   5.741  13.448
77409W        W48009  24.297  13.150  14.813
77410W        W48010   0.807   5.788   4.766
77411W        W48011   9.680  11.966  14.036
77412W        W48012  24.039  42.707  12.003
77413W        W48013  13.239   6.216  14.024
77414W        W48014  18.671  38.338   0.724
77415W        W48015   3.594  13.189  14.680
77416W        W48016  36.592  44.523  12.477
77417W        W48017  40.122  19.081   4.001
77418W        W48018   9.864  38.568   1.626
77419W        W48019  18.789   9.678   0.481
77420W        W48020  10.084   5.522   5.404
77421W        W48021   5.764  22.484  11.952
77422W        W48022  28.884   9.830  14.521
77423W        W48023  25.895  34.443   0.387
77424W        W48024  14.017   9.072  13.997
77425W        W48025  39.494  17.836  13.374
77426W        W48026   6.008   9.650   2.802
77427W        W48027  35.345  23.464   2.252
77428W        W48028  32.631  37.813   4.479
77429W        W48029   8.116  37.652   3.135
77430W        W48030  29.261  41.582  10.309
77431W        W48031  33.499   9.694   4.783
77432W        W48032  32.047  28.460   2.703
77433W        W48033  10.445  22.558  13.140
77434W        W48034   4.971  29.684   4.105
77435W        W48035  42.578  42.788   1.826
77436W        W48036  16.834   6.263  14.405
77437W        W48037  39.007   6.656   3.682
77438W        W48038   7.889  35.222   0.351
77439W        W48039  17.628  40.788   0.441
77440W        W48040  25.600   8.680  13.705
77441W        W48041  11.370  24.541   2.695
77442W        W48042  37.364  37.137   3.140
77443W        W48043  41.775  26.189   2.480
77444W        W48044  32.934  17.590  14.831
77445W        W48045  17.563  33.055  13.569
77446W        W48046   2.437   6.618  10.097
77447W        W48047  37.577  44.986  14.290
77448W        W48048  29.050  27.469  14.248
77449W        W48049  40.059  27.704  10.697
77450W        W48050  39.588  21.935  11.052
77451W        W48051   0.427  14.676   2.369
77452W        W48052  17.146  28.945  13.523
77453W        W48053   3.687  36.631  10.254
77454W        W48054  43.743  15.223  13.954
77455W        W48055  27.940  35.961   1.209
77456W        W48056  19.596  38.319   0.080
77457W        W48057  14.971  27.348  11.176
77458W        W48058  20.247   4.375   4.490
77459W        W48059  16.514  44.752   0.070
77460W        W48060  11.219  12.519   2.785
77461W        W48061   3.966  34.765   3.008
77462W        W48062  19.319  43.745  13.791
77463W        W48063  44.393  39.807   4.298
77464W        W48064  41.554   7.056   1.129
77465W        W48065  22.643  43.230   3.717
77466W        W48066  28.538  35.400   0.727
77467W        W48067  25.737  36.495   0.930
77468W        W48068   3.167  36.335   1.989
77469W        W48069  19.022   4.453   3.813
77470W        W48070  27.487  32.369  14.823
77471W        W48071   3.362  19.539  11.232
77472W        W48072  33.514   0.035   2.667
77473W        W48073  19.536  43.480  14.913
77474W        W48074  19.685  27.162  12.528
77475W        W48075  18.609  15.161  10.558
77476W        W48076  11.477  19.588  13.030
77477W        W48077   3.840  37.669  11.084
77478W        W48078   7.894   4.951   3.163
77479W        W48079  41.277   5.375  12.158
77480W        W48080  30.167  20.084   4.538
77481W        W48081  13.987  33.611   1.734
77482W        W48082  28.846  22.374   1.263
77483W        W48083   6.410   4.891   3.750
77484W        W48084  25.903  27.716  11.372
77485W        W48085  40.056  33.608  10.600
77486W        W48086  44.925  19.832  14.475
77487W        W48087   3.294  36.367   0.211
77488W        W48088   8.731  27.248   4.143
77489W        W48089  24.129  10.608   1.219
77490W        W48090   9.291  16.974   4.575
77491W        W48091  42.826  31.866   2.200
77492W        W48092  31.687  41.466   0.890
77493W        W48093  24.019  39.363   0.468
77494W        W48094   9.711  25.998   2.886
77495W        W48095  28.960  35.566  13.030
77496W        W48096   0.456   7.799  14.059
77497W        W48097  29.541  44.845  11.809
77498W        W48098   1.186  16.325  14.866
77499W        W48099   8.371  34.017  13.959
77500W        W48100  25.311  34.541  12.549
77501W        W48101  19.638   0.869  13.813
77502W        W48102  42.732  31.031  12.415
77503W        W48103   5.522   5.857  13.020
77504W        W48104  32.897  38.931  14.455
77505W        W48105  10.568  39.006  11.960
77506W        W48106  17.656  19.594  12.379
77507W        W48107  42.920   7.905   3.181
77508W        W48108  30.521  36.667  11.107
77509W        W48109  26.249  20.971  13.877
77510W        W48110  17.055  22.494   0.940
77511W        W48111  29.696   3.244  12.112
77512W        W48112  22.647   0.474  11.252
77513W        W48113  32.532   4.386  14.548
77514W        W48114  42.391  31.828  10.822
77515W        W48115   8.589  38.336   2.845
77516W        W48116  13.155  21.321  12.358
77517W        W48117  29.163  40.298  14.602
77518W        W48118  43.326   7.795  10.743
77519W        W48119   0.048  41.950  14.824
77520W        W48120  31.560   7.617  10.453
77521W        W48121  42.927  22.588   1.765
77522W        W48122  13.177  24.965  12.466
77523W        W48123  10.897   0.187  13.708
77524W        W48124  29.705  34.017   3.409
77525W        W48125   1.269   9.162  12.709
77526W        W48126  18.824  23.627   3.694
77527W        W48127  26.610  41.274   3.635
77528W        W48128  34.154  44.523   2.468
77529W        W48129  22.486  27.670  14.521
77530W        W48130  41.590  27.484  12.141
77531W        W48131  36.443  21.246  14.307
77532W        W48132  33.413  23.521  12.098
77533W        W48133  34.613  25.173   1.749
77534W        W48134   8.186   9.798  12.711
77535W        W48135   2.215  29.937   3.672
77536W        W48136   6.205   7.103  11.864
77537W        W48137   5.415  18.129   2.931
77538W        W48138  40.772  17.739   3.072
77539W        W48139  16.554   4.505  11.101
77540W        W48140  24.974  18.533   1.904
77541W        W48141  44.400  35.073   5.137
77542W        W48142  39.171  18.134  14.865
77543W        W48143  19.118  13.768   4.279
77544W        W48144  40.869  33.952  12.383
77545W        W48145  11.415  34.043  12.086
77546W        W48146  36.502  11.653   5.056
77547W        W48147   2.018  26.194  11.541
77548W        W48148  25.030  16.847   0.405
77549W        W48149  44.994  29.453  14.925
77550W        W48150   3.021  42.355  12.535
77551W        W48151  14.597  26.740  12.970
77552W        W48152  27.608  38.474  10.690
77553W        W48153  21.279  10.584  14.779
77554W        W48154  16.655  15.031   4.905
77555W        W48155  26.081  10.598  14.944
77556W        W48156  25.041  24.160   3.031
77557W        W48157  21.372  25.230  11.898
77558W        W48158  20.329  40.843   3.161
77559W        W48159  41.331  27.908   0.410
77560W        W48160  28.398  31.551   4.684
77561W        W48161  10.158  26.531  13.556
77562W        W48162  14.629  23.502  13.911
77563W        W48163  44.404  18.759   4.132
77564W        W48164  41.973  22.510  14.483
77565W        W48165   4.014  36.030  12.034
77566W        W48166  26.491  39.165   3.789
77567W        W48167  23.153  30.620  10.546
77568W        W48168  42.295  39.606   0.945
77569W        W48169  23.768  31.567   2.832
77570W        W48170  12.996  42.945   1.319
77571W        W48171  33.704  40.358   4.994
77572W        W48172  22.228  14.351   1.364
77573W        W48173  17.082   1.223  11.608
77574W        W48174  43.926   5.096  11.603
77575W        W48175  39.797  12.774  13.860
77576W        W48176  28.003   1.922  10.508
77577W        W48177  44.435  11.136   4.477
77578W        W48178  12.815  17.242   2.963
77579W        W48179   6.105  31.236  14.941
77580W        W48180   3.911  37.548   4.234
77581W        W48181  27.571  21.701  11.192
77582W        W48182  39.516  16.178   3.548
77583W        W48183  10.845  29.982   2.268
77584W        W48184  44.423  16.629  10.728
77585W        W48185  27.674  38.765   2.843
77586W        W48186  27.499  31.471   2.237
77587W        W48187  10.644  26.225  10.881
77588W        W48188   4.529   3.896   0.529
77589W        W48189   4.176  32.424   3.950
77590W        W48190  44.214  13.064   0.419
77591W        W48191  23.118  40.902   1.227
77592W        W48192  29.755   7.105  14.404
77593W        W48193   7.196   0.732   3.254
77594W        W48194  31.625  43.775  12.034
77595W        W48195  25.671  12.313  13.095
77596W        W48196  41.859   7.206   2.229
77597W        W48197   2.249  37.796   0.358
77598W        W48198  35.518   2.988   4.271
77599W        W48199  35.494  12.098   4.775
77600W        W48200  44.792  14.283   1.953
77601W        W48201  44.826  10.111   3.733
77602W        W48202  22.871  44.727  13.871
77603W        W48203  16.706  22.665  14.989
77604W        W48204   1.788  25.597   4.058
77605W        W48205   7.840  34.307   1.281
77606W        W48206  10.709  24.645  14.841
77607W        W48207  28.910  23.319  12.101
77608W        W48208  14.580  37.577   1.384
77609W        W48209  24.405   6.922  12.056
77610W        W48210  43.424  18.773   3.159
77611W        W48211  20.681  36.596   3.362
77612W        W48212  12.386  14.212  13.913
77613W        W48213  16.193  16.868   3.154
77614W        W48214   9.094   5.888   2.809
77615W        W48215  13.444  20.680  11.591
77616W        W48216  13.566  37.098  11.703
77617W        W48217  10.098  30.500  13.011
77618W        W48218  43.890   1.420   3.594
77619W        W48219   6.744   1.207  14.375
77620W        W48220  15.840  40.522   0.321
77621W        W48221  36.512   5.942  13.622
77622W        W48222  17.304  16.233  12.482
77623W        W48223   4.757   6.434   4.510
77624W        W48224  39.472   3.426  11.018
77625W        W48225  16.361  41.884   4.938
77626W        W48226  30.514  19.058  14.751
77627W        W48227  41.808  17.530  11.550
77628W        W48228  12.586  22.320   2.346
77629W        W48229  26.357  33.482   4.952
77630W        W48230   2.910  34.474   1.366
77631W        W48231  27.165  23.456   0.522
77632W        W48232   5.297  41.349   2.643
77633W        W48233  37.392   7.885   0.436
77634W        W48234  34.453  15.026  13.878
77635W        W48235  23.435  14.639  11.173
77636W        W48236  33.042  44.984   4.138
77637W        W48237   3.408  20.032   0.865
77638W        W48238  17.374  36.157   2.609
77639W        W48239  41.895  34.379   4.645
77640W        W48240  27.408  37.949  11.588
77641W        W48241  26.925  38.559  11.909
77642W        W48242  30.842   9.796   3.266
77643W        W48243  13.712  27.715  10.571
77644W        W48244  37.853   4.778  14.750
77645W        W48245  40.389   3.093   2.167
77646W        W48246  35.409  13.102  12.116
77647W        W48247  12.045  39.992  12.417
77648W        W48248  23.471  17.162  14.314
77649W        W48249  12.220  13.105   0.070
77650W        W48250   5.326  28.349   0.425
77651W        W48251  15.187  38.510   2.839
77652W        W48252  26.154  15.807   1.367
77653W        W48253  11.511  36.046   4.572
77654W        W48254  19.041   0.971   4.064
77655W        W48255   8.167  36.141  14.368
77656W        W48256  29.130  14.863  11.504
77657W        W48257  44.892  28.388  11.703
77658W        W48258  39.261  28.194  13.787
77659W        W48259  18.028  33.493   4.510
77660W        W48260   9.213  35.518   0.922
77661W        W48261   0.285  41.395   2.630
77662W        W48262  35.519  10.594   4.018
77663W        W48263  34.060   2.947  11.559
77664W        W48264  31.414  27.999   1.311
77665W        W48265  34.139  16.683  11.922
77666W        W48266  11.753  30.553   1.202
77667W        W48267  18.067   1.058   3.677
77668W        W48268   7.994   4.394  11.013
77669W        W48269  35.323  17.177  14.896
77670W        W48270   4.738  22.982   1.431
77671W        W48271  43.024  30.192   4.719
77672W        W48272  35.431  10.208  11.131
77673W        W48273  13.668  34.326   0.561
77674W        W48274  14.072  26.202   5.067
77675W        W48275   8.750  32.200  14.101
77676W        W48276  28.460  22.516   3.653
77677W        W48277  26.225  36.327  14.992
77678W        W48278  31.010  16.619  13.333
77679W        W48279  31.380  37.308  10.672
77680W        W48280   0.747  32.658   3.737
77681W        W48281  30.219  33.908   4.105
77682W        W48282  26.557  40.317  12.493
77683W        W48283  41.802  11.105  11.522
77684W        W48284  30.556  14.007   0.532
77685W        W48285  32.014  25.436  11.474
77686W        W48286  16.008   8.830  14.120
77687W        W48287  14.830  37.988  11.512
77688W        W48288  14.066  20.104  14.500
77689W        W48289   7.713   9.765   2.501
77690W        W48290  27.292  35.118  14.711
77691W        W48291   7.575  12.784   0.167
77692W        W48292   5.507  25.230   3.994
77693W        W48293   3.037  14.708  12.169
77694W        W48294   0.425  12.067   0.336
77695W        W48295   9.811  33.905  14.740
77696W        W48296   4.895   0.472  12.576
77697W        W48297   8.995   9.786  10.979
77698W        W48298  29.168  25.039   1.357
77699W        W48299   5.387  32.534  13.358
77700W        W48300  14.532  28.567   1.854
77701W        W48301  14.877  16.477   4.179
77702W        W48302  40.253   0.429   0.733
77703W        W48303  13.215  26.807  12.811
77704W        W48304  13.413  23.889   3.876
77705W        W48305  13.203   9.386  13.466
77706W        W48306  25.954  36.582   1.417
77707W        W48307  44.354  38.196  13.629
77708W        W48308  18.166   5.308  10.579
77709W        W48309  31.121   7.745   0.463
77710W        W48310  21.010   4.388   2.713
77711W        W48311  27.723  40.608  13.966
77712W        W48312   4.047   2.539   0.837
77713W        W48313  43.054  18.779   2.207
77714W        W48314   9.107   6.848  11.576
77715W        W48315  38.090  14.769   0.842
77716W        W48316  26.294  10.190   5.067
77717W        W48317  31.053  21.816   2.224
77718W        W48318  32.157  31.715   3.194
77719W        W48319  20.732  33.907   1.844
77720W        W48320  35.489  14.112   3.857
77721W        W48321  39.015  15.202   4.292
77722W        W48322  42.359  16.369  12.090
77723W        W48323  20.136   9.304   1.913
77724W        W48324   2.209  34.530   0.683
77725W        W48325  39.092  33.524  11.612
77726W        W48326   7.888   3.611   3.360
77727W        W48327  25.726  21.205   0.938
77728W        W48328  39.550  18.811   1.826
77729W        W48329   1.958   6.463  10.683
77730W        W48330  37.648   1.902  11.405
77731W        W48331  40.833  11.779   3.894
77732W        W48332  26.800  38.122  14.300
77733W        W48333  17.780  22.933   3.635
77734W        W48334  36.625  22.586  12.601
77735W        W48335  39.489  18.724   0.767
77736W        W48336  41.843  31.991  10.725
77737W        W48337   5.647   0.391  11.580
77738W        W48338  21.549  38.847   0.793
77739W        W48339  39.994  28.610   4.875
77740W        W48340  32.835   9.434   1.792
77741W        W48341  32.193   3.720  13.458
77742W        W48342  34.583  33.460  10.392
77743W        W48343  38.427  39.506  13.480
77744W        W48344  39.894  30.706   4.451
77745W        W48345   8.213  42.750  13.420
77746W        W48346  38.328  11.303  11.544
77747W        W48347  10.656  18.595   2.263
77748W        W48348  19.361   1.393   2.418
77749W        W48349   7.444  32.643   1.586
77750W        W48350  44.407   3.401   1.860
77751W        W48351  18.709  17.722   3.770
77752W        W48352  33.505   7.755   0.917
77753W        W48353  15.808  11.700   3.330
77754W        W48354   3.312  42.895   4.696
77755W        W48355  16.808   2.085  13.905
77756W        W48356   1.550  23.933   4.200
77757W        W48357   1.901  10.231   1.681
77758W        W48358   7.658   4.831  12.457
77759W        W48359  31.990   4.139   0.195
77760W        W48360   9.222  25.871   2.757
77761W        W48361  23.891   5.358  12.504
77762W        W48362  29.245  21.638   0.891
77763W        W48363   8.557   2.250   4.937
77764W        W48364  43.554  20.005   3.660
77765W        W48365   4.797  32.009  11.045
77766W        W48366  42.070  38.092  11.350
77767W        W48367   9.715  37.559  11.785
77768W        W48368  42.033  42.900  13.123
77769W        W48369   9.954  43.757   2.889
77770W        W48370  37.977  12.252   1.222
77771W        W48371  12.481  38.056  12.499
77772W        W48372  17.828  38.455  12.031
77773W        W48373  42.920  35.826  14.528
77774W        W48374  36.513  18.150  14.946
77775W        W48375  41.367  19.117  14.405
77776W        W48376  41.156  25.277   2.212
77777W        W48377  18.854   1.476   2.245
77778W        W48378  38.363   4.918   3.261
77779W        W48379   4.464  43.851   0.228
77780W        W48380   4.807  16.331  11.453
77781W        W48381  24.662  27.502  14.886
77782W        W48382  41.491  23.654  14.716
77783W        W48383  28.728  12.204  11.519
77784W        W48384   6.340   2.238   0.814
77785W        W48385   7.166  23.815   0.877
77786W        W48386  27.590   8.833  13.560
77787W        W48387  39.328   0.263   1.442
77788W        W48388  38.797  44.999   4.088
77789W        W48389  32.356  26.114  13.856
77790W        W48390   0.956   0.921  12.152
77791W        W48391  42.973  30.235  10.580
77792W        W48392  31.575   5.770   3.303
77793W        W48393   3.403  35.862  12.505
77794W        W48394  25.891  19.753   1.819
77795W        W48395  14.582  16.764  13.636
77796W        W48396  25.009  17.617   4.904
77797W        W48397  37.017  42.155  13.466
77798W        W48398   1.113  44.276  10.240
77799W        W48399  29.971  18.502  14.798
77800W        W48400  22.462  40.159   2.467
77801W        W48401  28.738  27.601   2.254
77802W        W48402   9.198  29.502  12.699
77803W        W48403  38.011  16.531  11.007
77804W        W48404   1.300  44.513  11.589
77805W        W48405   5.107   7.416  10.473
77806W        W48406  34.836  20.307  14.950
77807W        W48407  44.803  31.319   0.193
77808W        W48408  38.938  44.672   0.846
77809W        W48409  19.224  33.576  13.912
77810W        W48410  16.200  35.411   2.184
77811W        W48411   6.547   8.687  11.096
77812W        W48412  41.891  28.080   2.548
77813W        W48413   7.478   1.334  12.896
77814W        W48414  16.514  42.990  10.973
77815W        W48415   7.630   1.869  10.596
77816W        W48416  31.249  38.384   3.756
77817W        W48417   1.933  26.645  14.206
77818W        W48418  23.083   6.693   4.612
77819W        W48419   9.629  22.327   0.177
77820W        W48420  14.871   7.937   3.666
77821W        W48421  32.913  17.065  11.590
77822W        W48422  30.089   2.019  14.330
77823W        W48423  43.923  18.388   0.728
77824W        W48424  37.847  18.754   2.272
77825W        W48425  24.238  25.117  10.761
77826W        W48426  30.069  44.002   2.333
77827W        W48427   0.823   8.192   4.817
77828W        W48428   6.766   6.694  10.926
77829W        W48429  41.913  28.259   1.159
77830W        W48430  21.498  11.862  10.085
77831W        W48431  24.926  35.996   2.854
77832W        W48432  41.909  15.338  14.318
77833W        W48433  11.805   4.839   1.264
77834W        W48434   5.973   3.825   4.544
77835W        W48435  33.854   2.700  12.735
77836W        W48436  20.011  14.427   4.438
77837W        W48437  39.866   9.925  13.825
77838W        W48438  19.477   2.275  13.613
77839W        W48439  26.626  35.665  11.060
77840W        W48440  36.248  18.584   3.207
77841W        W48441  11.226   1.899  12.774
77842W        W48442  32.987  11.591  13.954
77843W        W48443  33.753  17.407   4.914
77844W        W48444  19.348  28.151   4.768
77845W        W48445  28.452   1.315   2.688
77846W        W48446  43.462  12.582   1.674
77847W        W48447  10.989  30.036  14.284
77848W        W48448   7.281  30.829  10.997
77849W        W48449  29.090   1.815   2.394
77850W        W48450  11.478  25.205  13.669
77851W        W48451  42.092  23.091   4.108
77852W        W48452  19.348  35.389   2.059
77853W        W48453   6.734  12.388  13.067
77854W        W48454  35.696   3.913   1.777
77855W        W48455  22.075  23.000   2.616
77856W        W48456  24.889  27.613  11.609
77857W        W48457  15.212  18.698  11.097
77858W        W48458  33.584  36.468  10.344
77859W        W48459  23.024  39.964   4.052
77860W        W48460  30.066  13.157   2.135
77861W        W48461  42.052  27.143   4.517
77862W        W48462  25.122  44.484  13.615
77863W        W48463  35.594  10.271   2.758
77864W        W48464   5.003  21.024   5.014
77865W        W48465  23.282  37.514  14.735
77866W        W48466  12.913  20.703  12.322
77867W        W48467  30.904  14.324   3.810
77868W        W48468  28.462  23.560  12.033
77869W        W48469   3.354  21.927  13.586
77870W        W48470  13.686   4.215   2.201
77871W        W48471  21.234  21.684   2.279
77872W        W48472   6.194  13.500   2.146
77873W        W48473  28.761  44.490  14.853
77874W        W48474  38.568  43.857  14.766
77875W        W48475  14.624  35.059   1.367
77876W        W48476   2.696  12.045  10.722
77877W        W48477  37.181  26.612   3.255
77878W        W48478   3.784  22.378  10.618
77879W        W48479  39.588  14.825  13.135
77880W        W48480  23.616  36.807  13.856
77881W        W48481  21.666  31.620   4.560
77882W        W48482   9.950  13.842  12.888
77883W        W48483  10.808  41.419   1.091
77884W        W48484  28.541   0.210   4.297
77885W        W48485  45.000  38.220  11.809
77886W        W48486  26.970  32.663  11.137
77887W        W48487  26.937  35.985   3.367
77888W        W48488   0.855  17.104  12.784
77889W        W48489  24.960  43.837   0.714
77890W        W48490  41.744  17.754   1.393
77891W        W48491  30.647   9.318  14.235
77892W        W48492  40.575  24.109   1.931
77893W        W48493  27.614  13.918   0.501
77894W        W48494  36.836  17.621   4.755
77895W        W48495  21.944   1.123  14.355
77896W        W48496  19.122  19.322  14.364
77897W        W48497  14.664  14.759  13.415
77898W        W48498  16.259  30.009   1.053
77899W        W48499  39.458  42.655   1.914
77900W        W48500  15.912  34.505  13.990
77901W        W48501   6.226   0.854  13.928
77902W        W48502   4.808  11.903  13.961
77903W        W48503   2.012  32.979  14.257
77904W        W48504  31.969  44.819   2.696
77905W        W48505  33.995   0.352   1.491
77906W        W48506  16.692  36.115  10.365
77907W        W48507  40.752  35.602  13.146
77908W        W48508  44.893  38.296  12.816
77909W        W48509  22.331   1.961   1.206
77910W        W48510  44.815  22.677   3.900
77911W        W48511  18.002  30.936  13.357
77912W        W48512  23.629   8.194   0.932
77913W        W48513   1.216  38.423   4.223
77914W        W48514   0.984  37.150   2.792
77915W        W48515  39.869  30.735  11.141
77916W        W48516  13.693  28.934  11.146
77917W        W48517   4.027  24.636  12.976
77918W        W48518  41.228   7.964   0.966
77919W        W48519  17.955  25.965  13.552
77920W        W48520  26.185   6.654   2.482
77921W        W48521  25.643  27.135  12.546
77922W        W48522   6.790   6.632   1.897
77923W        W48523  41.580   8.449   2.276
77924W        W48524  27.950  12.578   2.306
77925W        W48525  42.328   5.195  12.516
77926W        W48526  23.949  22.646   2.633
77927W        W48527  28.452   2.338   1.819
77928W        W48528  17.192  18.287  14.454
77929W        W48529  28.739  19.691  14.387
77930W        W48530  16.246  36.459   0.343
77931W        W48531  38.365  22.445  14.808
77932W        W48532   4.463   2.876   0.835
77933W        W48533   8.766   2.934  11.937
77934W        W48534  42.587  28.222   0.934
77935W        W48535  39.122  11.307  11.163
77936W        W48536  42.519  10.392  11.308
77937W        W48537   4.288  12.776   1.656
77938W        W48538  40.294   8.235  11.226
77939W        W48539  25.797  43.949   3.620
77940W        W48540  28.139  36.342   1.960
77941W        W48541  23.869  18.049  11.968
77942W        W48542  21.087  26.154   4.561
77943W        W48543   0.108   5.483   4.793
77944W        W48544  33.610  28.017   1.033
77945W        W48545  41.872  10.564  12.857
77946W        W48546  30.936  37.338   4.744
77947W        W48547   2.303  38.858  10.650
77948W        W48548  42.590   0.305  14.845
77949W        W48549  16.096  34.382   2.957
77950W        W48550  27.960  40.547   4.564
77951W        W48551  15.629  27.015  12.632
77952W        W48552  27.932  26.522   3.576
77953W        W48553   5.091  32.798   2.627
77954W        W48554   1.522   3.259   4.617
77955W        W48555  38.268  43.111   3.641
77956W        W48556  30.373  20.259   2.678
77957W        W48557  16.728  17.164   0.022
77958W        W48558  42.802  32.622   2.754
77959W        W48559   7.925  17.176  13.147
77960W        W48560  17.979  14.782  12.948
77961W        W48561   5.924  34.427  13.889
77962W        W48562  18.643  25.428   4.032
77963W        W48563   6.829  42.635   3.783
77964W        W48564  14.448  17.157   3.625
77965W        W48565  16.632  17.322   2.378
77966W        W48566   8.802  10.397   3.642
77967W        W48567   2.439  18.042  14.879
77968W        W48568   1.792  24.398  13.882
77969W        W48569   6.700   7.733  14.418
77970W        W48570   1.680  40.754  12.026
77971W        W48571  20.778   7.785  13.980
77972W        W48572  40.046   3.706   1.235
77973W        W48573  37.625   2.142   2.637
77974W        W48574  17.180  19.478   4.502
77975W        W48575   4.346  32.442  12.533
77976W        W48576  35.485   1.292   3.865
77977W        W48577  35.542   8.980  14.235
77978W        W48578  32.978  12.269   2.282
77979W        W48579  26.931  38.746  14.306
77980W        W48580   1.897  11.332   1.055
77981W        W48581   6.043  15.403  11.164
77982W        W48582  39.406   1.549   4.590
77983W        W48583  11.667  25.683  12.149
77984W        W48584   1.123  26.247   3.594
77985W        W48585  35.877  25.713  11.594
77986W        W48586  10.713  17.618  11.617
77987W        W48587  21.196  24.491  13.454
77988W        W48588   5.776  40.894  13.643
77989W        W48589  23.592  20.132   4.917
77990W        W48590  44.810  25.966   2.787
77991W        W48591  22.802  31.757   9.751
77992W        W48592  36.145   8.088  12.043
77993W        W48593  32.086  35.625  10.622
77994W        W48594  36.667  32.409  11.136
77995W        W48595  44.214  13.309  10.916
77996W        W48596  41.018  34.609  11.219
77997W        W48597  38.480  10.110  13.948
77998W        W48598   1.570  34.764  11.248
77999W        W48599  29.033  40.968  13.802
78000W        W48600  13.637  12.882  11.109
78001W        W48601  26.690  19.608  10.783
78002W        W48602  41.844  21.039   0.533
78003W        W48603  24.719   9.174  13.910
78004W        W48604  24.955   6.548   4.118
78005W        W48605  21.273  29.686  10.914
78006W        W48606  30.927  11.214   0.724
78007W        W48607  22.341  11.338   1.809
78008W        W48608  34.340  17.181  13.031
78009W        W48609  10.833  40.089  11.064
78010W        W48610  18.262  10.226  13.453
78011W        W48611  36.549   4.983   3.371
78012W        W48612  16.199   7.004  11.411
78013W        W48613   4.456  21.820  14.489
78014W        W48614  39.762  38.903  12.153
78015W        W48615   4.281   2.618   1.345
78016W        W48616  39.270  22.491  11.588
78017W        W48617  27.867  41.031  11.427
78018W        W48618  33.899   0.140   0.322
78019W        W48619  34.101  31.506   4.535
78020W        W48620  23.642  22.509   4.118
78021W        W48621  16.288   4.361  13.106
78022W        W48622  13.180  41.111  11.098
78023W        W48623  12.586  20.240  13.391
78024W        W48624   9.357  34.278  14.849
78025W        W48625  36.307   6.955   1.249
78026W        W48626   2.219  22.988  12.348
78027W        W48627  18.724  12.077  12.489
78028W        W48628   8.007  13.411   4.282
78029W        W48629   3.764  34.080  11.961
78030W        W48630  10.064  29.551  12.896
78031W        W48631  43.986   3.409   0.020
78032W        W48632  23.905   2.530   3.143
78033W        W48633  35.488  10.360  13.779
78034W        W48634  35.857  12.341   3.244
78035W        W48635   2.695  16.242  12.448
78036W        W48636  40.207  21.762   4.876
78037W        W48637  41.103  29.043  11.997
78038W        W48638  38.707  36.931  14.772
78039W        W48639  40.490  40.330  14.931
78040W        W48640  40.372  37.677  11.015
78041W        W48641  35.075   5.640   3.821
78042W        W48642  17.625  23.641  13.743
78043W        W48643  37.592  25.277  13.138
78044W        W48644  20.229   1.730  12.875
78045W        W48645  41.701  25.570  13.177
78046W        W48646   2.951   6.310   2.862
78047W        W48647  23.118   2.738   1.007
78048W        W48648   2.970   3.390   2.416
78049W        W48649  18.089  25.590  14.834
78050W        W48650  24.088  32.131  14.959
78051W        W48651  20.037  25.267   4.100
78052W        W48652  44.776  13.221   3.097
78053W        W48653   1.732   4.936   3.172
78054W        W48654  40.981  30.020   2.776
78055W        W48655   3.420  44.260   1.782
78056W        W48656   4.229  21.535  14.123
78057W        W48657  41.310  36.451  14.246
78058W        W48658   5.939  37.072  10.597
78059W        W48659  13.483   4.405  11.081
78060W        W48660  34.048  17.272   2.572
78061W        W48661  15.240  13.380   0.362
78062W        W48662  36.460   4.881  13.002
78063W        W48663  29.235   1.349  11.361
78064W        W48664   2.946   3.408  11.480
78065W        W48665  27.517   2.678  11.864
78066W        W48666  41.719  27.025  10.789
78067W        W48667   0.857  20.620  11.573
78068W        W48668  35.030  13.345   2.218
78069W        W48669  33.286  42.971  14.850
78070W        W48670  39.832  33.620  11.069
78071W        W48671  19.634  34.477  14.468
78072W        W48672  29.621  41.627   3.474
78073W        W48673  44.004   1.498   1.303
78074W        W48674  17.821  25.578   2.264
78075W        W48675  18.192  21.812   0.367
78076W        W48676  19.773  21.556   4.605
78077W        W48677   3.817  29.517   4.277
78078W        W48678  41.389  43.240   0.755
78079W        W48679  14.134  27.121   0.764
78080W        W48680  39.412  16.995   3.827
78081W        W48681   4.182  39.555   1.511
78082W        W48682  22.263  10.693   3.355
78083W        W48683  21.077  23.728  10.521
78084W        W48684  19.542   5.676   2.198
78085W        W48685  10.020   6.804   4.857
78086W        W48686  42.714  31.293  10.165
78087W        W48687  27.193  20.009   1.289
78088W        W48688   3.255  15.075   0.969
78089W        W48689  14.515  17.261   1.418
78090W        W48690  35.827   4.614   4.725
78091W        W48691  14.747  41.020   3.679
78092W        W48692   4.656   0.238   3.796
78093W        W48693  39.993  29.486  13.927
78094W        W48694  37.807   0.490  11.676
78095W        W48695   6.780  27.076  12.012
78096W        W48696   8.205  23.191  12.836
78097W        W48697  26.497   7.888   2.002
78098W        W48698  12.834  16.621  12.856
78099W        W48699  42.252  43.951   3.519
78100W        W48700  11.727  39.012   4.099
78101W        W48701  18.508   7.229  12.591
78102W        W48702   8.782  43.050   1.241
78103W        W48703  32.038  40.830   9.866
78104W        W48704   6.515  13.109   4.154
78105W        W48705  33.900  17.552   1.300
78106W        W48706  11.882  32.440   0.258
78107W        W48707   9.314  20.180   3.422
78108W        W48708  33.132  19.692   3.570
78109W        W48709  21.743   4.582   5.020
78110W        W48710   2.882  17.165   0.552
78111W        W48711  14.381  34.407   2.223
78112W        W48712  18.998   7.683  13.888
78113W        W48713  43.353  22.393  14.955
78114W        W48714   6.916  10.611  13.793
78115W        W48715  13.198  34.955  11.364
78116W        W48716  34.558  36.279   1.797
78117W        W48717  23.775  31.658   4.591
78118W        W48718  14.938  20.374   2.131
78119W        W48719  28.634  20.844   0.834
78120W        W48720  23.467  43.933  13.517
78121W        W48721  28.597  40.586   3.256
78122W        W48722  31.146  34.092   3.263
78123W        W48723  44.903  27.754   4.214
78124W        W48724  33.828  31.671   4.980
78125W        W48725  30.684  27.809  11.064
78126W        W48726  19.270   0.639   1.333
78127W        W48727  39.564  25.636   0.330
78128W        W48728  32.575  29.431   3.234
78129W        W48729  18.123  15.354  10.447
78130W        W48730  30.828  42.598   2.317
78131W        W48731  13.797  36.857   3.001
78132W        W48732   2.269  37.326  10.688
78133W        W48733  23.776  14.745   4.116
78134W        W48734  27.028  43.084  12.386
78135W        W48735  41.857   1.020  10.717
78136W        W48736  39.418   7.211   4.139
78137W        W48737  20.590  43.817   3.232
78138W        W48738  26.848  28.047   1.218
78139W        W48739  30.844   3.336  14.398
78140W        W48740  17.874   9.388   0.974
78141W        W48741  36.650   6.443  14.335
78142W        W48742  40.981  33.564   3.341
78143W        W48743  38.249  34.015   4.201
78144W        W48744   5.785  10.605   0.328
78145W        W48745  27.059  11.048   0.782
78146W        W48746  15.313  15.244  14.391
78147W        W48747  33.766  26.456  11.148
78148W        W48748   7.766  20.008  12.408
78149W        W48749  21.964   2.955   1.221
78150W        W48750  20.485  24.015  12.877
78151W        W48751  11.277   1.869   1.659
78152W        W48752  17.136  44.922  13.259
78153W        W48753  21.048  17.996   3.693
78154W        W48754  22.125   2.676   0.221
78155W        W48755  41.470  41.883   0.413
78156W        W48756  21.069   1.709  14.228
78157W        W48757   2.493  21.188   2.282
78158W        W48758  16.576  13.864  13.945
78159W        W48759  13.591  26.759  13.539
78160W        W48760  29.895  28.160   3.261
78161W        W48761  28.624  15.546  11.201
78162W        W48762  10.206  10.860  13.072
78163W        W48763  20.128  29.579  10.936
78164W        W48764   4.007  15.058   1.840
78165W        W48765  17.727  10.086  11.455
78166W        W48766   5.212  11.066   1.299
78167W        W48767  13.088  40.535  12.582
78168W        W48768  25.199  16.596   1.758
78169W        W48769  33.994  40.460   3.282
78170W        W48770  43.496  31.142  12.908
78171W        W48771  18.020  42.900   1.708
78172W        W48772  40.237   7.277   3.711
78173W        W48773  43.417   7.410   1.970
78174W        W48774  12.609  10.205  11.163
78175W        W48775  36.902  30.406  12.383
78176W        W48776  40.156  32.814   2.264
78177W        W48777   2.258  14.387  10.818
78178W        W48778  10.508   8.267  14.455
78179W        W48779  15.833  44.070  13.836
78180W        W48780  31.076   5.374   3.566
78181W        W48781  40.923   2.780   0.844
78182W        W48782   3.665  41.400   1.841
78183W        W48783  33.574  23.068   0.895
78184W        W48784  13.367  24.384  13.677
78185W        W48785  27.178  35.975  13.132
78186W        W48786  26.196  17.762  13.076
78187W        W48787  36.038   5.247  14.135
78188W        W48788  31.005  24.751  14.769
78189W        W48789   6.383  33.101   3.042
78190W        W48790  42.428  19.946   2.216
78191W        W48791   5.987  19.775  13.306
78192W        W48792  31.056  36.444   4.226
78193W        W48793   6.152   5.774  11.598
78194W        W48794   4.282   3.530  11.078
78195W        W48795  41.810  33.557   1.543
78196W        W48796  37.543  41.877   3.179
78197W        W48797  44.351   9.735   0.370
78198W        W48798  12.297  20.198   1.816
78199W        W48799  19.462  42.532  13.726
78200W        W48800  22.068  16.098   4.446
78201W        W48801  17.544  44.024  14.420
78202W        W48802  10.363  39.253   2.159
78203W        W48803  42.386  24.279   2.636
78204W        W48804  11.527   2.615  14.319
78205W        W48805   7.230  15.104   2.681
78206W        W48806  33.818  41.422  12.337
78207W        W48807  37.544  28.773  13.182
78208W        W48808  19.159   8.876   1.903
78209W        W48809   0.421  38.512  12.065
78210W        W48810  10.605  28.742  13.965
78211W        W48811  13.821  25.498  14.976
78212W        W48812  33.518   6.904  11.527
78213W        W48813  18.220  22.723  13.230
78214W        W48814  22.371  23.498  12.423
78215W        W48815  12.213  15.295  11.373
78216W        W48816  26.570  32.501   3.600
78217W        W48817   0.007  42.263   1.494
78218W        W48818   9.979   0.850  10.631
78219W        W48819   8.956  18.377  12.201
78220W        W48820  16.717  34.961   0.948
78221W        W48821  25.264  28.702   1.854
78222W        W48822  24.144  39.862  11.694
78223W        W48823  12.529   6.799   2.293
78224W        W48824  41.962   6.991   0.411
78225W        W48825   7.502  33.524   3.311
78226W        W48826  44.987  25.628  11.148
78227W        W48827  37.989  36.159   4.184
78228W        W48828  43.489  28.660   1.725
78229W        W48829  33.843  12.699   2.009
78230W        W48830  23.203  10.173   3.520
78231W        W48831  36.660   3.517   1.880
78232W        W48832   2.197   0.820  14.270
78233W        W48833  21.016   3.226  13.419
78234W        W48834  36.372  36.566  10.659
78235W        W48835  40.114  22.066   0.053
78236W        W48836   2.196   4.937   0.889
78237W        W48837  20.722  21.564  13.129
78238W        W48838  23.529  13.331   3.297
78239W        W48839  14.686  24.431  11.221
78240W        W48840  40.514  24.764  10.946
78241W        W48841   6.146   6.762   2.514
78242W        W48842  41.693   2.933   4.530
78243W        W48843  14.760  38.826  14.505
78244W        W48844  17.332  26.523  12.394
78245W        W48845  38.025   7.603  11.765
78246W        W48846  35.594  31.529   1.845
78247W        W48847  22.638  27.501   0.974
78248W        W48848  42.930  39.042  11.152
78249W        W48849  16.833   7.922   1.386
78250W        W48850  40.592   9.131   0.507
78251W        W48851  12.075  44.763  13.571
78252W        W48852  22.768  25.968  12.558
78253W        W48853  28.770   9.172   0.313
78254W        W48854   7.935  21.527   2.843
78255W        W48855  39.300  43.867  10.736
78256W        W48856  15.586  44.747  14.751
78257W        W48857  11.793  10.718  13.212
78258W        W48858  17.681  11.672   3.238
78259W        W48859  43.288  34.476   3.308
78260W        W48860   8.067  21.727  12.032
78261W        W48861  39.051  19.555   4.471
78262W        W48862  38.150   1.971  14.281
78263W        W48863  40.699  37.800   1.954
78264W        W48864  40.409  27.582  11.927
78265W        W48865   5.223  35.851   0.836
78266W        W48866  41.239  43.809   4.604
78267W        W48867  39.203  31.851   4.613
78268W        W48868  25.247  25.349  13.361
78269W        W48869   6.186  27.498   0.796
78270W        W48870   8.872  18.171   2.856
78271W        W48871  41.621   3.848   2.340
78272W        W48872  42.924  15.483   3.252
78273W        W48873  23.046  10.879  10.759
78274W        W48874  40.635  32.320   0.921
78275W        W48875  21.578  38.566   3.550
78276W        W48876  13.106  18.544   3.053
78277W        W48877  42.585   1.421  12.097
78278W        W48878  32.449  18.835  11.489
78279W        W48879  44.228   4.357  12.415
78280W        W48880   0.309  17.522   3.668
78281W        W48881  25.744  36.795   0.491
78282W        W48882  31.953  38.947   0.477
78283W        W48883  11.687   0.712  11.149
78284W        W48884  18.746  35.423  14.032
78285W        W48885  28.118   6.276   3.666
78286W        W48886   5.152  10.039  14.898
78287W        W48887  34.760  26.122  13.382
78288W        W48888  26.906  39.901  13.285
78289W        W48889  13.847   6.771   1.855
78290W        W48890  39.972  37.845  10.672
78291W        W48891  15.325  25.072  11.436
78292W        W48892  43.675  18.210   1.134
78293W        W48893  26.428   0.493   2.168
78294W        W48894  37.977  23.652   2.775
78295W        W48895  18.465   5.281   2.816
78296W        W48896  39.480   6.338   0.724
78297W        W48897   4.780  40.521   4.543
78298W        W48898  26.711  21.065   0.922
78299W        W48899  42.387   7.989  13.953
78300W        W48900  41.283  22.946   1.664
78301W        W48901  18.585  17.215   3.161
78302W        W48902  13.520  27.654  13.458
78303W        W48903  25.227  17.188   4.533
78304W        W48904  12.074   9.663  10.771
78305W        W48905  34.989  26.048  14.919
78306W        W48906  37.310  16.092  13.040
78307W        W48907  32.207  39.543   0.730
78308W        W48908  36.572  44.442   4.299
78309W        W48909  13.252   6.412  12.557
78310W        W48910   3.905   4.890   2.196
78311W        W48911   1.946  43.821   0.833
78312W        W48912  33.669  18.209   2.673
78313W        W48913  29.285  40.317   1.841
78314W        W48914  44.038  33.949   0.661
78315W        W48915  15.271  13.124   4.185
78316W        W48916  18.139  26.486  12.029
78317W        W48917  25.461  41.775  14.424
78318W        W48918  35.848  12.284  12.433
78319W        W48919   5.197   4.850   4.774
78320W        W48920  24.664  13.629   3.860
78321W        W48921  28.472  23.537  14.436
78322W        W48922  17.619  22.029   0.392
78323W        W48923   2.941  18.733  13.932
78324W        W48924  43.482   6.214  10.276
78325W        W48925   6.222  37.281  11.451
78326W        W48926   5.217  20.579  13.550
78327W        W48927  32.814  38.228  12.631
78328W        W48928  27.190  43.770  11.123
78329W        W48929   1.105  22.160   3.197
78330W        W48930  11.457  24.653   0.465
78331W        W48931  32.773  20.669   2.833
78332W        W48932   8.234  39.624   4.683
78333W        W48933   3.059  30.445   4.436
78334W        W48934  43.918  25.009  12.400
78335W        W48935  11.088   5.207  10.713
78336W        W48936  13.129  26.500   3.582
78337W        W48937  33.640   5.043   0.546
78338W        W48938  34.302  18.560  11.965
78339W        W48939  30.378   4.944   2.535
78340W        W48940  26.206  17.915   2.855
78341W        W48941  28.020  31.899   4.639
78342W        W48942  10.506  11.909   2.705
78343W        W48943  21.028  26.012   5.108
78344W        W48944  17.629  33.678   1.234
78345W        W48945  33.515   1.730  13.364
78346W        W48946  30.150  14.775   1.819
78347W        W48947  34.933  11.862  13.502
78348W        W48948  31.803  21.082   0.264
78349W        W48949  38.169   6.324  13.526
78350W        W48950  26.240   3.472   0.686
78351W        W48951   6.820  35.041  14.363
78352W        W48952  27.612  30.113   1.749
78353W        W48953  10.759  14.815   4.455
78354W        W48954  25.219   0.403  11.044
78355W        W48955   2.303  40.128  12.202
78356W        W48956  33.021  14.162   0.771
78357W        W48957  32.155  21.820   4.241
78358W        W48958  34.943  44.180   4.123
78359W        W48959  19.411  23.520   0.893
78360W        W48960  33.142  42.558   3.179
78361W        W48961  16.829   7.944   3.699
78362W        W48962   7.451  22.644   2.326
78363W        W48963  31.779  29.804   5.161
78364W        W48964   0.619   7.814  10.470
78365W        W48965  13.808  41.878  11.573
78366W        W48966  42.564  23.741   3.968
78367W        W48967  38.228  27.242   4.412
78368W        W48968  27.417  14.202  14.753
78369W        W48969  12.792  18.298  14.878
78370W        W48970  44.668  26.423  14.152
78371W        W48971  12.831   3.436  13.885
78372W        W48972  11.904  28.339  12.976
78373W        W48973  11.762   5.861  10.391
78374W        W48974  16.530  10.231   0.469
78375W        W48975  22.751  12.657   4.516
78376W        W48976  44.545  30.552  12.544
78377W        W48977  39.312  32.498  11.627
78378W        W48978  31.578  13.340   2.460
78379W        W48979   7.723   7.840  11.473
78380W        W48980  12.783   5.244  14.020
78381W        W48981  22.598  43.931  11.648
78382W        W48982   5.819  18.095  11.426
78383W        W48983   9.265  26.588   2.896
78384W        W48984  28.068  28.508   3.546
78385W        W48985  18.678  40.769  11.165
78386W        W48986  23.498  18.284   0.325
78387W        W48987  26.163  42.498   3.875
78388W        W48988  28.435   5.680   4.885
78389W        W48989  15.193   1.396   4.145
78390W        W48990  18.849  34.068   1.390
78391W        W48991  39.099  11.126  14.957
78392W        W48992  14.263   0.677  10.083
78393W        W48993  12.812  42.313  12.403
78394W        W48994  40.078  40.284  12.930
78395W        W48995  21.184  18.371   0.487
78396W        W48996  27.423  26.694  11.655
78397W        W48997  39.648  22.000  14.865
78398W        W48998   4.100  23.562   1.646
78399W        W48999  15.769   3.972   1.949
78400W        W49000  38.264  43.615   3.680
78401W        W49001  15.704   8.136   1.652
78402W        W49002  31.603  28.523  10.940
78403W        W49003  20.149  17.141   3.254
78404W        W49004  14.606  41.843   1.842
78405W        W49005  22.086  25.547  14.087
78406W        W49006  20.796  31.327  13.831
78407W        W49007   1.796   1.488  12.298
78408W        W49008  44.871  29.774  12.111
78409W        W49009  34.612  43.256   2.412
78410W        W49010  24.278  27.128  13.643
78411W        W49011  18.170  41.698   4.247
78412W        W49012  38.651  23.460  12.961
78413W        W49013   6.792  40.537   0.297
78414W        W49014  33.515  29.027  13.815
78415W        W49015   9.762  32.397   1.283
78416W        W49016  12.387  40.128   1.682
78417W        W49017  40.521  23.884  11.540
78418W        W49018   6.858  15.855   3.962
78419W        W49019  24.727   0.217   0.814
78420W        W49020  21.078  10.191   0.768
78421W        W49021   1.962   9.950   3.776
78422W        W49022  44.199  35.965   2.658
78423W        W49023  32.620  23.091   2.575
78424W        W49024  40.406  35.988   2.425
78425W        W49025   8.186   0.462   2.487
78426W        W49026  40.054  28.490  12.178
78427W        W49027  39.241  28.270   1.567
78428W        W49028   5.828  11.272  13.371
78429W        W49029  11.391  17.072  13.816
78430W        W49030  41.066  34.489  13.462
78431W        W49031  10.045   2.202   4.587
78432W        W49032  14.729   7.346  13.286
78433W        W49033  31.292   2.034  14.887
78434W        W49034  19.293   1.287  12.172
78435W        W49035   6.286  27.865   2.597
78436W        W49036  44.990  22.043  14.150
78437W        W49037  30.089  25.671   3.331
78438W        W49038  11.901  11.406   0.521
78439W        W49039  20.175  18.796   2.241
78440W        W49040   7.703  44.429   3.559
78441W        W49041  39.479   7.773   2.901
78442W        W49042  30.222  20.540   4.798
78443W        W49043  33.418   5.217  10.098
78444W        W49044  27.518   7.816  12.003
78445W        W49045  18.528  30.184  14.666
78446W        W49046  19.691   5.006  10.478
78447W        W49047  30.642  39.971   1.829
78448W        W49048  33.977   7.747  14.648
78449W        W49049  38.046  11.440  11.131
78450W        W49050  22.106  42.743   3.280
78451W        W49051  18.410  36.114   3.237
78452W        W49052   3.141  39.308  12.982
78453W        W49053  29.703  38.895  14.030
78454W        W49054   1.546  11.665   1.286
78455W        W49055  34.066  39.656   3.081
78456W        W49056   5.513  39.072  11.107
78457W        W49057  39.489  10.891   1.918
78458W        W49058  12.733  20.739   3.329
78459W        W49059  43.550  34.543   1.969
78460W        W49060  43.306  35.625  11.131
78461W        W49061  13.394  40.321   2.784
78462W        W49062  38.057  25.416  12.549
78463W        W49063  30.451  15.079  11.147
78464W        W49064   7.734  33.126  13.304
78465W        W49065  27.425  14.642   2.133
78466W        W49066  25.133  30.677   2.932
78467W        W49067  30.852  24.995   2.333
78468W        W49068  42.374  19.562  13.428
78469W        W49069   7.391  44.944   0.290
78470W        W49070   8.310   4.283   0.032
78471W        W49071  36.508  23.184   0.908
78472W        W49072  33.136  19.605   4.436
78473W        W49073  11.786  16.876  12.163
78474W        W49074  27.695  15.940   3.139
78475W        W49075  25.855   7.623   2.201
78476W        W49076   0.673  21.776   2.319
78477W        W49077  25.542   2.888  12.815
78478W        W49078  13.730  34.483   0.056
78479W        W49079  41.807   8.820   2.019
78480W        W49080  19.060  24.985   1.217
78481W        W49081  33.871  21.239  11.569
78482W        W49082  37.983  21.610   1.329
78483W        W49083  13.785   1.287   4.603
78484W        W49084  17.948  34.825  13.434
78485W        W49085  37.487  13.752   0.358
78486W        W49086  27.541  21.565   2.269
78487W        W49087  24.665  31.674  14.565
78488W        W49088  16.668  29.128   0.449
78489W        W49089  42.572  13.212   2.298
78490W        W49090  20.055  40.130  11.075
78491W        W49091  31.340  41.755   5.079
78492W        W49092  19.783  35.984   4.156
78493W        W49093   6.770   5.269   2.706
78494W        W49094  41.537   0.805   2.665
78495W        W49095  29.080  21.144   4.403
78496W        W49096   5.898  34.316  14.781
78497W        W49097  23.996  33.771   2.817
78498W        W49098   9.112   2.255  14.713
78499W        W49099  20.273  27.767   4.537
78500W        W49100  42.261  32.317  10.689
78501W        W49101   9.217  24.070   1.395
78502W        W49102  36.862  30.536   4.592
78503W        W49103  37.502  35.380  11.661
78504W        W49104  11.403  40.405   1.711
78505W        W49105  44.167  32.192   0.891
78506W        W49106   2.238  30.922  13.335
78507W        W49107  29.934   8.885  12.388
78508W        W49108  14.632  19.094   4.075
78509W        W49109  41.575  17.086  14.282
78510W        W49110   7.179   2.548   2.288
78511W        W49111  29.383  32.726   1.970
78512W        W49112  43.460  19.662  11.159
78513W        W49113  44.941  35.472  10.507
78514W        W49114  11.663  23.825   3.341
78515W        W49115  28.443  33.537  10.278
78516W        W49116  32.600  16.724  12.058
78517W        W49117  11.884  10.307  12.921
78518W        W49118  34.836  29.529   1.015
78519W        W49119  11.468  36.998   0.034
78520W        W49120  14.248  34.358  13.661
78521W        W49121   5.487  28.601   1.808
78522W        W49122  17.766  15.242   3.669
78523W        W49123  11.729   7.420   3.362
78524W        W49124   8.234  18.090  13.911
78525W        W49125  13.302  36.937  13.780
78526W        W49126  12.865  29.994   4.701
78527W        W49127  36.962  21.672  10.335
78528W        W49128  25.227  15.715  14.575
78529W        W49129  31.671  41.926   4.644
78530W        W49130  39.525  35.820   1.694
78531W        W49131  37.679  16.663  14.000
78532W        W49132   3.739  15.117   4.533
78533W        W49133  42.326  10.397  11.781
78534W        W49134  22.700  34.365  11.617
78535W        W49135   2.803  37.381   1.769
78536W        W49136  29.307  19.156   0.250
78537W        W49137  26.679  10.327   0.301
78538W        W49138  42.403  19.841   3.093
78539W        W49139   6.834  38.024   0.385
78540W        W49140  26.955  17.857   2.990
78541W        W49141  36.841  15.265  13.934
78542W        W49142  22.954  18.547  13.642
78543W        W49143  20.014  42.977   1.866
78544W        W49144  33.570  23.609   3.900
78545W        W49145   2.472  36.350  13.846
78546W        W49146  33.479  28.078  12.844
78547W        W49147  21.012  36.235   1.269
78548W        W49148   6.262  10.255  11.182
78549W        W49149  15.529   3.588   2.831
78550W        W49150  25.531  10.941  11.881
78551W        W49151  40.339  38.242   1.277
78552W        W49152  25.502   5.203  12.094
78553W        W49153  43.844  42.858   3.628
78554W        W49154  15.365  19.736  12.786
78555W        W49155  44.949  35.441   2.182
78556W        W49156   6.883  34.056  10.519
78557W        W49157   1.473   8.681  12.597
78558W        W49158   4.214  19.166   1.839
78559W        W49159  29.494  32.330   4.109
78560W        W49160  15.075  42.364   0.403
78561W        W49161   8.810  43.730   4.110
78562W        W49162  29.875  17.778   1.406
78563W        W49163   1.023  37.213  14.071
78564W        W49164  30.305   8.087  12.557
78565W        W49165  30.044  11.642  12.084
78566W        W49166  21.952  30.454   0.837
78567W        W49167  19.461  33.281  11.165
78568W        W49168  19.319  15.339  14.150
78569W        W49169  22.317  36.452  14.449
78570W        W49170  35.941  14.367  13.529
78571W        W49171  14.097  25.519  13.294
78572W        W49172  26.077   1.230   1.404
78573W        W49173  44.516  12.631   0.365
78574W        W49174  26.039  38.867   3.615
78575W        W49175  41.519  10.174   3.547
78576W        W49176  26.060  11.308   1.310
78577W        W49177   2.187  43.350   1.489
78578W        W49178   6.639  43.883   1.761
78579W        W49179   5.480  38.692  12.014
78580W        W49180  29.431  15.282  13.876
78581W        W49181  26.969  23.176  11.598
78582W        W49182  39.647   5.932  10.178
78583W        W49183  23.058  43.508  14.517
78584W        W49184  36.560   4.447  12.540
78585W        W49185  44.272  20.998   5.035
78586W        W49186  12.645  33.062   0.546
78587W        W49187  23.690  41.430   1.663
78588W        W49188   0.457  36.543  13.154
78589W        W49189   6.715  35.590  11.585
78590W        W49190  27.744  14.742   4.959
78591W        W49191  28.099  37.888  13.942
78592W        W49192  38.630  19.579   4.046
78593W        W49193  23.157   5.603  11.165
78594W        W49194   0.059   1.373  11.169
78595W        W49195  26.075  35.122  10.655
78596W        W49196  19.806   5.765   3.555
78597W        W49197  23.912  43.103   4.144
78598W        W49198  14.353  23.087   1.720
78599W        W49199  34.162  13.280  14.180
78600W        W49200  16.247  26.079  11.077
78601W        W49201  25.006  26.524   0.784
78602W        W49202  43.321  15.480   1.246
78603W        W49203  31.017  17.442  11.634
78604W        W49204   1.435  29.525  12.437
78605W        W49205   2.799  42.057   3.749
78606W        W49206  33.407  27.382  10.988
78607W        W49207   3.909  17.191   0.138
78608W        W49208  40.450  20.964  11.639
78609W        W49209   3.318   4.002  12.162
78610W        W49210  44.987  18.102  12.946
78611W        W49211  38.505   4.221   0.352
78612W        W49212  16.324  31.164   3.336
78613W        W49213   3.876  31.448  10.314
78614W        W49214  18.043  19.824   1.523
78615W        W49215   4.702  39.269  10.830
78616W        W49216  41.467  15.271   0.902
78617W        W49217  25.896  37.665   4.544
78618W        W49218  36.614  19.107  11.481
78619W        W49219  22.920  28.697  11.641
78620W        W49220  14.559  36.294   2.586
78621W        W49221  33.507  39.965   4.395
78622W        W49222  22.610   6.169  14.672
78623W        W49223   3.431  10.694  14.439
78624W        W49224  35.195  44.281  12.368
78625W        W49225  12.831  16.522  11.094
78626W        W49226  13.065  25.958   0.295
78627W        W49227   5.304  11.521   3.845
78628W        W49228  13.673  25.727  10.596
78629W        W49229   9.923  30.492  13.818
78630W        W49230  20.095  26.140   0.993
78631W        W49231  34.904  22.125  11.373
78632W        W49232  25.075  10.972   1.254
78633W        W49233  23.949  27.943   9.777
78634W        W49234   4.242  10.806   0.476
78635W        W49235   7.824  27.784   4.031
78636W        W49236  21.731  17.470  12.119
78637W        W49237  26.651   6.484   3.620
78638W        W49238  16.757   6.365   1.918
78639W        W49239  36.167  34.943   5.010
78640W        W49240  37.604  29.815  13.467
78641W        W49241  18.642  40.399   1.568
78642W        W49242  41.251  23.835   1.235
78643W        W49243  16.427  19.351   0.345
78644W        W49244  37.964  13.509   0.351
78645W        W49245  25.871  42.241  12.121
78646W        W49246  44.788  24.975   2.902
78647W        W49247   9.908  24.232  11.331
78648W        W49248  32.522   0.921   4.880
78649W        W49249  18.133  36.798   0.756
78650W        W49250  28.522   2.936  14.741
78651W        W49251   5.360  34.834   1.017
78652W        W49252  40.612  26.281  13.655
78653W        W49253  42.106  19.326  12.077
78654W        W49254  34.524  44.275   4.588
78655W        W49255  41.624  10.470  14.792
78656W        W49256  25.637   2.797   4.628
78657W        W49257  30.814  17.021  13.037
78658W        W49258  10.222  29.465   0.152
78659W        W49259  41.350  18.191   0.755
78660W        W49260  42.507  17.239   3.039
78661W        W49261   1.074  36.405   4.556
78662W        W49262  35.631  43.504  14.949
78663W        W49263   3.869  20.103  13.590
78664W        W49264  12.085  12.831  14.376
78665W        W49265  18.004  26.470  12.909
78666W        W49266  13.640   3.851   0.280
78667W        W49267  37.781  11.771  13.997
78668W        W49268  27.449   9.604  11.109
78669W        W49269  13.267  11.724   0.822
78670W        W49270  32.999  31.347  14.826
78671W        W49271  23.693  18.561   2.393
78672W        W49272  34.560  27.072  11.541
78673W        W49273   2.396  17.791   4.649
78674W        W49274   4.783  44.271  14.779
78675W        W49275  25.683   4.821   0.495
78676W        W49276   1.299  18.671  11.572
78677W        W49277  44.916  20.599  12.595
78678W        W49278  26.200  43.491   4.868
78679W        W49279  43.204  38.116   2.737
78680W        W49280   0.494  22.662  13.275
78681W        W49281  30.191  21.563   3.278
78682W        W49282  34.668  28.211   4.111
78683W        W49283   6.769  44.857   2.151
78684W        W49284  20.664  17.127  11.653
78685W        W49285   2.252  36.081  13.400
78686W        W49286   9.436  21.178   0.038
78687W        W49287  44.979  10.897  13.410
78688W        W49288   9.582  26.155  10.934
78689W        W49289  16.822   2.783  14.395
78690W        W49290  40.303  21.567   2.632
78691W        W49291   8.513   8.323  14.383
78692W        W49292  19.651   9.321  13.041
78693W        W49293  18.698  30.556   0.463
78694W        W49294  42.742   1.012   2.169
78695W        W49295  10.169  13.126  12.636
78696W        W49296   8.452  40.089  14.484
78697W        W49297  34.234  38.330   1.963
78698W        W49298  26.012   6.451   0.259
78699W        W49299  14.686  36.628   0.317
78700W        W49300   4.933  15.742   3.762
78701W        W49301  22.179  28.881   1.748
78702W        W49302   6.917  21.519   0.976
78703W        W49303  18.777  38.459  13.038
78704W        W49304  33.918  43.997   3.690
78705W        W49305   5.127  27.801   4.958
78706W        W49306  26.526  24.030   1.945
78707W        W49307  40.776  14.114  11.087
78708W        W49308   0.172  17.747   4.518
78709W        W49309  31.873  11.141   4.676
78710W        W49310  14.400  15.135   1.840
78711W        W49311  42.859  41.016  13.247
78712W        W49312  21.710  44.024   1.298
78713W        W49313   6.905  38.853  12.064
78714W        W49314  25.667  13.756  11.083
78715W        W49315  21.483   7.101  12.124
78716W        W49316   5.260   0.769  14.126
78717W        W49317  17.893  36.965  10.588
78718W        W49318   3.432  18.951  13.474
78719W        W49319   0.944  28.679  14.340
78720W        W49320  32.402   5.136  14.493
78721W        W49321   9.346  43.762   2.075
78722W        W49322   5.193  14.670   0.961
78723W        W49323  29.618  40.109  14.887
78724W        W49324  17.153  22.743   2.912
78725W        W49325  23.543  44.912   0.343
78726W        W49326  36.359  13.200  11.590
78727W        W49327  14.434   8.366   1.336
78728W        W49328  16.599  41.763   0.032
78729W        W49329  15.667   0.473  13.608
78730W        W49330  39.496  22.022  11.566
78731W        W49331   2.951   6.395  10.566
78732W        W49332  18.579  42.314   2.742
78733W        W49333  33.182  28.995  14.496
78734W        W49334  38.554  33.590   2.739
78735W        W49335  14.675  11.593  11.298
78736W        W49336   5.267   3.435   3.820
78737W        W49337  34.831  34.757  12.010
78738W        W49338   3.729  23.989  13.530
78739W        W49339  27.627  37.487   4.145
78740W        W49340  29.529  39.351   3.094
78741W        W49341  12.050  23.821  12.556
78742W        W49342  15.176   5.877  10.993
78743W        W49343  16.394  32.902   5.486
78744W        W49344  36.807  22.624   2.641
78745W        W49345  28.803  33.548   1.559
78746W        W49346  30.927  33.811   2.885
78747W        W49347  36.069   4.348  14.840
78748W        W49348   0.701  20.532   0.859
78749W        W49349  23.693  22.761   2.171
78750W        W49350  34.367   8.313   2.806
78751W        W49351   0.312  42.996   4.248
78752W        W49352  43.367  22.151  13.796
78753W        W49353  32.645   7.464  14.719
78754W        W49354   3.469  21.107  11.147
78755W        W49355  12.736  29.496   0.951
78756W        W49356  16.691  30.348   3.787
78757W        W49357  18.761  17.203  11.599
78758W        W49358  38.782  11.886   0.395
78759W        W49359  17.277  30.058  10.839
78760W        W49360   3.276  31.964   1.453
78761W        W49361  44.998  42.627  14.281
78762W        W49362  12.899  33.539   3.004
78763W        W49363   4.806   5.174   3.449
78764W        W49364  36.845  19.268  14.333
78765W        W49365  43.408  21.568  11.611
78766W        W49366  44.904  24.535   0.761
78767W        W49367  42.072  40.753   1.446
78768W        W49368  39.532  14.764   2.795
78769W        W49369   9.977  27.657  12.905
78770W        W49370  38.375  16.277  10.479
78771W        W49371  23.523   7.009   4.582
78772W        W49372  16.092   0.587  13.923
78773W        W49373  19.531  16.752  12.374
78774W        W49374  38.962  33.919   2.848
78775W        W49375  38.249  31.586   2.367
78776W        W49376  44.950   1.391   4.843
78777W        W49377   3.944  13.749  13.531
78778W        W49378  16.184  36.018   0.889
78779W        W49379  19.598  39.067   3.686
78780W        W49380  36.779  18.060   5.266
78781W        W49381   8.799  37.846   3.890
78782W        W49382  18.843  30.567   2.952
78783W        W49383  31.800  22.716   2.747
78784W        W49384  34.883  34.538  10.032
78785W        W49385   5.936   0.490  12.584
78786W        W49386  29.195   7.314   3.349
78787W        W49387  37.325  10.014   0.656
78788W        W49388  21.526  20.629   3.269
78789W        W49389  14.877  32.605  11.253
78790W        W49390  35.914   7.889   1.373
78791W        W49391   9.992  33.019   1.817
78792W        W49392  38.934  41.073  12.675
78793W        W49393   5.824  16.710  10.923
78794W        W49394   1.801  24.094  13.058
78795W        W49395  17.206  41.336   2.238
78796W        W49396  36.079  31.946  12.642
78797W        W49397  32.485  12.720  12.652
78798W        W49398   1.034  21.760  12.517
78799W        W49399   9.240  14.337   0.844
78800W        W49400  32.531  21.606  14.085
78801W        W49401  40.286  18.991   0.377
78802W        W49402   7.732  37.774   4.568
78803W        W49403  36.769  44.923   4.234
78804W        W49404  24.250  21.259  12.558
78805W        W49405   6.633   8.894   2.689
78806W        W49406   5.010  25.107   3.858
78807W        W49407  30.441   3.457   3.249
78808W        W49408  22.780  13.627   1.320
78809W        W49409   1.979  29.545   3.935
78810W        W49410  16.574  11.394   3.725
78811W        W49411  26.735  43.084   3.742
78812W        W49412  44.251  33.106  14.100
78813W        W49413   3.897  40.273   1.157
78814W        W49414   3.230   6.824   2.788
78815W        W49415  27.052  40.277   4.367
78816W        W49416  30.401  38.885   1.350
78817W        W49417  34.730   8.237  10.656
78818W        W49418  11.569  31.420   1.442
78819W        W49419  39.773  18.896   1.258
78820W        W49420  23.004  12.283  11.065
78821W        W49421  24.736   1.096   4.007
78822W        W49422  21.086  13.146  13.994
78823W        W49423   8.491  32.809   0.615
78824W        W49424  32.194   4.505   4.172
78825W        W49425  10.422  16.209   2.679
78826W        W49426   6.137  32.399  12.015
78827W        W49427  40.376  32.431   3.722
78828W        W49428   3.169  26.111   1.415
78829W        W49429  18.127  25.059  12.032
78830W        W49430  38.918  35.986   0.951
78831W        W49431  20.995   9.849   4.107
78832W        W49432   4.808  18.693  10.188
78833W        W49433  20.259   1.992   3.262
78834W        W49434  26.531  35.210   2.088
78835W        W49435  26.003  20.155  11.477
78836W        W49436   0.779  42.005   1.417
78837W        W49437   5.428  26.063  13.058
78838W        W49438  23.694  28.173  10.681
78839W        W49439   4.624  43.435   3.758
78840W        W49440  10.993   4.705  12.653
78841W        W49441   6.654  30.878  14.075
78842W        W49442  42.982  15.132  11.192
78843W        W49443   5.386  31.596  10.695
78844W        W49444  12.438  22.641   2.751
78845W        W49445  37.146  30.434  11.513
78846W        W49446  11.700  29.506  14.849
78847W        W49447   5.887  44.839  13.085
78848W        W49448  28.021  21.155  12.564
78849W        W49449   6.433  38.005  11.988
78850W        W49450  25.436  18.544  12.838
78851W        W49451   2.431   8.673   3.600
78852W        W49452  38.965  25.256   5.233
78853W        W49453   2.000  23.398   2.262
78854W        W49454   2.043   6.974  10.759
78855W        W49455  34.522   9.704   0.866
78856W        W49456  26.109  43.017   3.898
78857W        W49457  14.317  32.798   5.249
78858W        W49458  21.142  26.594  12.095
78859W        W49459  28.629  44.739   0.298
78860W        W49460  44.229  25.038   1.646
78861W        W49461  28.023  21.497   3.563
78862W        W49462  40.658  22.631  14.327
78863W        W49463  32.328  43.145   2.312
78864W        W49464   0.510  16.617  12.055
78865W        W49465   0.413  26.010  11.877
78866W        W49466  19.307  20.003  14.018
78867W        W49467  32.295  32.912  14.501
78868W        W49468  35.495  38.092   0.143
78869W        W49469  24.651  28.673   2.720
78870W        W49470  28.406   7.063  13.513
78871W        W49471  12.180   3.725  10.611
78872W        W49472  27.998  16.710  11.407
78873W        W49473  24.601   7.674   2.260
78874W        W49474  40.349  16.738  14.451
78875W        W49475  18.770  15.615   1.437
78876W        W49476  41.924  26.490   0.270
78877W        W49477  26.753  37.651  12.070
78878W        W49478  38.069  29.132   2.000
78879W        W49479  38.084  12.334  14.232
78880W        W49480  33.905   0.984  14.516
78881W        W49481   4.861  42.287   3.171
78882W        W49482   2.896  17.177  10.544
78883W        W49483   7.412  42.472   2.622
78884W        W49484   8.453   5.791   0.326
78885W        W49485   4.351   5.897  12.600
78886W        W49486  42.078  27.475  11.940
78887W        W49487   2.517   8.212  13.313
78888W        W49488  28.338  26.006  14.449
78889W        W49489  17.175   9.274   0.828
78890W        W49490  24.608  14.095  12.171
78891W        W49491  28.080  10.374  12.442
78892W        W49492   1.489  21.835  14.599
78893W        W49493  28.604   0.344  13.166
78894W        W49494  27.749  23.098  13.341
78895W        W49495  14.238   7.104  10.915
78896W        W49496  41.458  16.352   4.863
78897W        W49497  22.268  12.765  10.570
78898W        W49498  31.408  26.154  13.698
78899W        W49499  17.695   7.633   2.866
78900W        W49500  27.069  42.512   0.263
78901W        W49501  42.255  39.061   4.171
78902W        W49502  16.357  11.873  12.586
78903W        W49503  15.192  18.688   2.869
78904W        W49504   5.632  17.245  12.458
78905W        W49505  42.495   6.653   2.922
78906W        W49506  30.219  28.109  11.841
78907W        W49507  25.095   3.851   0.363
78908W        W49508  41.739  33.053   0.356
78909W        W49509  31.954   6.268   1.429
78910W        W49510  13.861  26.016  11.436
78911W        W49511  44.552  11.737  12.110
78912W        W49512  30.809   5.234  12.426
78913W        W49513   0.693  32.992  10.048
78914W        W49514  18.286  21.240  14.384
78915W        W49515   9.665  16.244  10.733
78916W        W49516  24.189  40.794  12.137
78917W        W49517  16.846  25.540   4.534
78918W        W49518  27.436  23.075  11.227
78919W        W49519   9.697  14.371   4.129
78920W        W49520  42.085  30.030  10.790
78921W        W49521  28.492  19.671  10.655
78922W        W49522  25.221  40.190   0.791
78923W        W49523  14.119  16.748  13.875
78924W        W49524  35.053  30.408   0.820
78925W        W49525  31.957  28.188   2.240
78926W        W49526  36.945   6.509   2.145
78927W        W49527   9.459  38.998  13.003
78928W        W49528  39.767  22.286   1.353
78929W        W49529  43.749  28.982  10.594
78930W        W49530  19.763  15.153   3.866
78931W        W49531  28.281  22.809   4.640
78932W        W49532   4.587  19.808   0.763
78933W        W49533   6.076  28.601  11.568
78934W        W49534  21.142   1.169  14.988
78935W        W49535  23.556  37.043  14.303
78936W        W49536   3.086  29.409  14.281
78937W        W49537  10.576  37.529  14.045
78938W        W49538  13.176   6.874   4.468
78939W        W49539   8.486  30.856  13.312
78940W        W49540   8.371   8.205   2.335
78941W        W49541  19.785  41.492  12.893
78942W        W49542  14.297  17.093   0.942
78943W        W49543  21.294  35.366  13.037
78944W        W49544  29.677   5.319  13.039
78945W        W49545  17.228  30.889  10.236
78946W        W49546  34.032   1.900  12.496
78947W        W49547  40.627  22.070   0.156
78948W        W49548  18.614  30.062   1.810
78949W        W49549  18.668  43.709  12.520
78950W        W49550  19.743  21.970   1.207
78951W        W49551  21.815   9.771   3.679
78952W        W49552  29.337  26.901  11.573
78953W        W49553   8.225   0.338   3.896
78954W        W49554   6.291  14.492  11.620
78955W        W49555  38.384  32.198   3.041
78956W        W49556   9.443  38.341   1.841
78957W        W49557  17.547  30.390   1.037
78958W        W49558   1.274  12.333  11.704
78959W        W49559  19.169   2.195  14.486
78960W        W49560  19.677  33.504   1.173
78961W        W49561  36.736   2.256   0.896
78962W        W49562  29.164  10.994   2.270
78963W        W49563  30.098  17.392  14.220
78964W        W49564  42.726  25.395  13.299
78965W        W49565  21.980  39.502  14.701
78966W        W49566   7.850  40.019  11.929
78967W        W49567  14.832  42.033  11.348
78968W        W49568  26.626  26.489  14.373
78969W        W49569  20.141  18.111  11.135
78970W        W49570  40.902  26.151   4.713
78971W        W49571  32.746  30.492   1.918
78972W        W49572  22.793  11.328  10.657
78973W        W49573   8.551   7.490  11.474
78974W        W49574  30.228  43.875  14.882
78975W        W49575   7.630   3.498   2.921
78976W        W49576   1.392  33.548  12.324
78977W        W49577  12.562  44.276   1.850
78978W        W49578   4.201  17.644   4.195
78979W        W49579  25.980  44.410  10.991
78980W        W49580  23.769  43.655  12.776
78981W        W49581  28.060  43.863  14.790
78982W        W49582   4.571  20.154   2.373
78983W        W49583  33.971  21.729   0.935
78984W        W49584  27.392  42.275   1.435
78985W        W49585   8.457  24.124   0.849
78986W        W49586  25.406   0.354  14.808
78987W        W49587  34.942  43.027  13.560
78988W        W49588  29.386  39.501   5.088
78989W        W49589  11.124  15.802   1.342
78990W        W49590   7.309   4.263   3.621
78991W        W49591  23.655   1.411   2.476
78992W        W49592   1.469  30.115   2.518
78993W        W49593   7.386  43.334   3.480
78994W        W49594  41.731   2.852  10.549
78995W        W49595   8.613   1.373  10.843
78996W        W49596  21.290  23.896   0.506
78997W        W49597  31.425   2.708   0.864
78998W        W49598   7.930  18.574  13.839
78999W        W49599  25.057  27.718   3.559
79000W        W49600   8.211  15.117  13.969
79001W        W49601   7.729  35.585  11.304
79002W        W49602  40.010   4.145   3.795
79003W        W49603   4.615  33.593  14.543
79004W        W49604   1.726  37.878  13.589
79005W        W49605  27.615   9.629   3.147
79006W        W49606   7.675  24.015   2.214
79007W        W49607  15.230  16.710  12.910
79008W        W49608  28.436   1.976   2.197
79009W        W49609   4.466   1.910  11.524
79010W        W49610  13.690  18.557   0.892
79011W        W49611  27.438  29.570  11.922
79012W        W49612   1.452   8.480   3.824
79013W        W49613   5.332  15.541   1.278
79014W        W49614   4.083  32.444  12.065
79015W        W49615  44.336  41.774   1.965
79016W        W49616  38.968  39.937  11.280
79017W        W49617  35.113  23.021   1.901
79018W        W49618  35.525  10.619   1.888
79019W        W49619   7.267  18.151  14.348
79020W        W49620  20.046  12.721  12.519
79021W        W49621   0.948  37.897   3.154
79022W        W49622  23.737   6.514  11.688
79023W        W49623   6.964  21.166  12.098
79024W        W49624  19.124   5.913  12.899
79025W        W49625  34.678  21.700  13.505
79026W        W49626   9.643  21.001   2.773
79027W        W49627  12.024  17.688   4.377
79028W        W49628  22.893  34.026   3.201
79029W        W49629  36.881  17.832  14.304
79030W        W49630  22.668  10.281  13.080
79031W        W49631  20.116   3.014   4.294
79032W        W49632  19.146   1.449   3.232
79033W        W49633  38.333  27.217  11.196
79034W        W49634  11.082  26.105   3.384
79035W        W49635  19.602  35.897  14.351
79036W        W49636  29.661  22.080   2.355
79037W        W49637   2.659   9.357  12.383
79038W        W49638  25.518   9.274   2.545
79039W        W49639   6.943  38.715   4.024
79040W        W49640   1.887  18.682  12.387
79041W        W49641  26.012  31.209  11.413
79042W        W49642  13.869  18.544   1.811
79043W        W49643  40.184  31.380   2.039
79044W        W49644  39.426  27.495   2.258
79045W        W49645  24.275  35.160   0.028
79046W        W49646  38.118  17.209   3.917
79047W        W49647   6.118  29.770   0.888
79048W        W49648  16.137   4.311  14.579
79049W        W49649  19.301  31.146  14.423
79050W        W49650  42.015  38.996   2.428
79051W        W49651  11.638  38.406  12.177
79052W        W49652  42.933  43.749   1.530
79053W        W49653  14.487  40.958   3.229
79054W        W49654  17.468  24.645  14.304
79055W        W49655   5.400   7.219  11.281
79056W        W49656   7.181  13.261  13.178
79057W        W49657  14.774  29.165  14.950
79058W        W49658  11.250  30.515   1.665
79059W        W49659  27.879  40.602   0.367
79060W        W49660  37.097  33.408  10.739
79061W        W49661  10.324  43.341  10.724
79062W        W49662  35.650   7.319  12.907
79063W        W49663  39.887   9.433  11.179
79064W        W49664  23.636  30.887   3.286
79065W        W49665   6.912  20.765   4.689
79066W        W49666  25.466  29.643  12.987
79067W        W49667  41.923   4.263   1.376
79068W        W49668  38.015   6.292  12.439
79069W        W49669  15.330  34.348   3.223
79070W        W49670  11.436  44.749   4.539
79071W        W49671  44.369  42.943   2.401
79072W        W49672   0.419  35.357  14.954
79073W        W49673  36.458  36.903  11.373
79074W        W49674  26.566  21.755  12.525
79075W        W49675  27.822  19.244   3.619
79076W        W49676  40.279  25.903   2.833
79077W        W49677  22.273  41.832   3.684
79078W        W49678   5.192   3.709   2.451
79079W        W49679  30.013  35.783   4.099
79080W        W49680  33.346  35.559   1.285
79081W        W49681  23.433  17.302  12.925
79082W        W49682  37.585   2.866   1.401
79083W        W49683  26.147  18.640   4.151
79084W        W49684  29.391  12.651  13.953
79085W        W49685  39.098  25.656   4.307
79086W        W49686  36.481   6.912  12.534
79087W        W49687   7.950   0.081  12.430
79088W        W49688  31.119  28.228   3.317
79089W        W49689  26.146  28.430   4.215
79090W        W49690  35.553  38.463   3.305
79091W        W49691  33.072   4.807  10.207
79092W        W49692  12.521  23.689   0.667
79093W        W49693  24.724  11.757   2.221
79094W        W49694  22.227  28.028   1.199
79095W        W49695  43.764  26.148  11.662
79096W        W49696  17.740  24.962  11.297
79097W        W49697  26.293  29.733   5.116
79098W        W49698  28.612  15.307   2.697
79099W        W49699  36.126  43.768   3.419
79100W        W49700  38.346   3.575   2.215
79101W        W49701  25.944  37.259   2.647
79102W        W49702   2.030  39.398  11.013
79103W        W49703   0.672  16.795  14.298
79104W        W49704  38.402  36.248  14.339
79105W        W49705  43.283   1.865  13.651
79106W        W49706  14.089  41.440   2.800
79107W        W49707   8.870  41.815   1.578
79108W        W49708  17.237  17.313  11.263
79109W        W49709  40.472  14.662   1.682
79110W        W49710  43.458  17.883   5.082
79111W        W49711  24.485  12.241  12.860
79112W        W49712  21.357  37.778   4.984
79113W        W49713   3.058  13.340  14.500
79114W        W49714  26.618  23.725   3.385
79115W        W49715  18.555  18.229   3.720
79116W        W49716  39.418  30.486   4.380
79117W        W49717  33.661  18.631   2.993
79118W        W49718  22.657  30.584   4.514
79119W        W49719   4.952  13.705   0.020
79120W        W49720  22.139  16.331  11.180
79121W        W49721  12.864  25.880  13.061
79122W        W49722  13.694   4.010  12.868
79123W        W49723  24.255   9.793  11.696
79124W        W49724  26.126  44.117  11.911
79125W        W49725   2.214  35.657   2.267
79126W        W49726  37.990  14.623  14.417
79127W        W49727  28.700  33.548  11.162
79128W        W49728   3.494  21.283   3.367
79129W        W49729  40.307   1.210  11.839
79130W        W49730  41.219   7.806  13.419
79131W        W49731  36.327  32.526  14.367
79132W        W49732  32.879   7.520   0.196
79133W        W49733  36.463  42.478   1.464
79134W        W49734  36.891  40.043   0.860
79135W        W49735  39.444   5.331  12.154
79136W        W49736  25.089  35.251  10.810
79137W        W49737   7.829   8.394  14.779
79138W        W49738   1.440  26.005   0.748
79139W        W49739  22.466  18.486   0.655
79140W        W49740  41.380  19.502  11.640
79141W        W49741  19.038  43.871   0.259
79142W        W49742   3.170  11.711  11.586
79143W        W49743  35.486   5.783  12.095
79144W        W49744  41.944  28.688  14.748
79145W        W49745  35.271  39.688  10.408
79146W        W49746  41.491  33.836   3.014
79147W        W49747  38.288  43.531   2.784
79148W        W49748  30.107  42.083  12.178
79149W        W49749  13.467  15.698  11.493
79150W        W49750  19.624  35.813  12.970
79151W        W49751   7.378  37.474   4.286
79152W        W49752  14.244  30.439  13.358
79153W        W49753   4.496  18.277  13.124
79154W        W49754  21.347  19.597   4.767
79155W        W49755  38.452   7.788   2.790
79156W        W49756  21.536  28.550   0.765
79157W        W49757  30.206  24.061   0.895
79158W        W49758  37.850   0.954  14.998
79159W        W49759   2.431   8.099  12.111
79160W        W49760  14.287   2.452  11.581
79161W        W49761  10.717  32.070   2.153
79162W        W49762   0.902  15.111   0.844
79163W        W49763  18.091  37.519   0.143
79164W        W49764  20.736  31.569   1.727
79165W        W49765  43.977  40.736  12.955
79166W        W49766   6.198  41.963   2.226
79167W        W49767  31.480  15.357   1.638
79168W        W49768  10.595  33.499  14.415
79169W        W49769  29.039   5.704   3.897
79170W        W49770  32.693  27.625  12.997
79171W        W49771   5.748  26.014  11.223
79172W        W49772  14.091  11.242   2.286
79173W        W49773  19.584  28.667  12.480
79174W        W49774  20.236   0.147   5.849
79175W        W49775  10.378  22.660   1.270
79176W        W49776   4.944  37.401   5.030
79177W        W49777   1.301  23.252  12.039
79178W        W49778  25.958  25.624  10.705
79179W        W49779  11.891   2.164  10.981
79180W        W49780  34.311  30.551  10.928
79181W        W49781  23.154  30.235  11.354
79182W        W49782  35.105  15.045   2.300
79183W        W49783  44.844  36.908   3.775
79184W        W49784  14.617  31.947   5.281
79185W        W49785  32.789  10.764   0.293
79186W        W49786  13.234  43.705  12.799
79187W        W49787  22.541  42.960  14.324
79188W        W49788   2.839   3.895  14.973
79189W        W49789  43.395  27.050   4.584
79190W        W49790  27.972  17.019  12.334
79191W        W49791  44.376   2.761  11.575
79192W        W49792  13.106   6.748  11.581
79193W        W49793   0.382   7.774   0.067
79194W        W49794  31.295  36.959   4.885
79195W        W49795   2.715  18.926   2.665
79196W        W49796  18.521   6.470   0.758
79197W        W49797  29.859  19.295  12.968
79198W        W49798  26.894  18.426   2.333
79199W        W49799  32.279  16.915  13.149
79200W        W49800   0.070  41.309   3.769
79201W        W49801  25.313   5.554   3.209
79202W        W49802  24.936   7.482   4.254
79203W        W49803  44.910  16.033   4.152
79204W        W49804  37.377  33.398   0.226
79205W        W49805   2.664  24.950   2.703
79206W        W49806  43.597  42.209   1.134
79207W        W49807   7.826  26.519   0.249
79208W        W49808   4.838  41.578   2.758
79209W        W49809  43.314  36.432   3.104
79210W        W49810  17.912  14.898   4.064
79211W        W49811  12.485  14.832  11.600
79212W        W49812  12.300  22.055  14.353
79213W        W49813   0.921  40.952   3.759
79214W        W49814  40.420  21.664  13.356
79215W        W49815  27.244  13.588   3.279
79216W        W49816   4.359  15.511  13.327
79217W        W49817  15.846  36.033  12.554
79218W        W49818   0.229  31.517  14.976
79219W        W49819   7.513  12.369  12.199
79220W        W49820  15.358   3.916   3.187
79221W        W49821  41.064  33.072  12.166
79222W        W49822  42.342  17.560  12.851
79223W        W49823  40.452  11.184   4.418
79224W        W49824  33.514  34.927   0.326
79225W        W49825  38.250   5.905  13.841
79226W        W49826   7.224  38.526  12.295
79227W        W49827  31.248   5.429   4.547
79228W        W49828  28.676  16.111  11.209
79229W        W49829   1.339  37.528  12.943
79230W        W49830  43.997   1.594  14.730
79231W        W49831  11.511  15.502   5.099
79232W        W49832  15.165   9.698  10.699
79233W        W49833  36.310   1.181   0.279
79234W        W49834  30.372  35.017   2.254
79235W        W49835  38.032  37.581   1.422
79236W        W49836  31.743  37.364   9.701
79237W        W49837  16.705   7.859  13.844
79238W        W49838  32.567  44.429   2.806
79239W        W49839   2.259  36.365   2.696
79240W        W49840  13.405  19.639   2.197
79241W        W49841  37.383  13.725  12.896
79242W        W49842   5.217  10.798   2.743
79243W        W49843  31.629  32.973   1.636
79244W        W49844  11.636  37.097   4.973
79245W        W49845  10.387  41.664   2.400
79246W        W49846   3.644   8.254  12.299
79247W        W49847   0.685  32.344  13.427
79248W        W49848  38.424  13.596  13.896
79249W        W49849   6.194  16.747   1.753
79250W        W49850  22.124  22.087  13.359
79251W        W49851  22.722  20.601   1.879
79252W        W49852   5.214  43.290  12.580
79253W        W49853  12.591   3.990  11.134
79254W        W49854  29.090  21.589   4.154
79255W        W49855  15.500  19.583   1.182
79256W        W49856  19.249  32.315  14.651
79257W        W49857   4.529  44.667   4.564
79258W        W49858  44.484  26.955   3.729
79259W        W49859   9.848  35.427   1.732
79260W        W49860  27.206  19.566  10.938
79261W        W49861  23.286  23.223  13.927
79262W        W49862  19.664  20.643  12.046
79263W        W49863  13.264  24.685   0.633
79264W        W49864  16.845   8.427   3.521
79265W        W49865   4.226   2.485  14.879
79266W        W49866  41.296  15.805  14.053
79267W        W49867  18.076  29.960  14.466
79268W        W49868  35.131  25.039  14.916
79269W        W49869  12.873  15.284  10.785
79270W        W49870   1.834  34.108   2.691
79271W        W49871  17.017  36.722   5.547
79272W        W49872   8.136  38.437  11.417
79273W        W49873   7.745  14.577  10.905
79274W        W49874   8.262  13.614   0.774
79275W        W49875  32.026   7.352  14.382
79276W        W49876  14.392  41.137  14.013
79277W        W49877  29.785   9.352   1.703
79278W        W49878  12.130  37.644  12.544
79279W        W49879   2.327  40.378   3.777
79280W        W49880   5.962  20.851   2.394
79281W        W49881  38.291  19.496   1.984
79282W        W49882  20.092  41.784   1.969
79283W        W49883  40.913  24.715  13.384
79284W        W49884  10.803  20.120  11.092
79285W        W49885  20.160  44.957   0.549
79286W        W49886  34.883  22.259  13.384
79287W        W49887  16.482  10.208   2.283
79288W        W49888  37.815  23.567  11.048
79289W        W49889  42.399  39.362  11.473
79290W        W49890  25.744  31.930   0.623
79291W        W49891  28.183  26.536  13.437
79292W        W49892  30.060  11.382   1.841
79293W        W49893  11.656  13.209  12.237
79294W        W49894  14.124  22.516  12.544
79295W        W49895  40.297   7.695  11.185
79296W        W49896  39.035  40.853   2.941
79297W        W49897  34.162  30.060   0.282
79298W        W49898  38.780  32.570  11.620
79299W        W49899  34.818  17.041   1.245
79300W        W49900  31.376  27.177   4.692
79301W        W49901  33.864  20.480  14.065
79302W        W49902  32.616  23.538   2.888
79303W        W49903   1.344   5.334   1.660
79304W        W49904  19.582  29.977  14.888
79305W        W49905  40.551   6.698   0.958
79306W        W49906   8.604  24.529  12.805
79307W        W49907  24.769  28.859  11.095
79308W        W49908  41.436   4.429   3.649
79309W        W49909  26.753   7.209   0.364
79310W        W49910  14.205  18.460  10.421
79311W        W49911   2.993  29.602   0.772
79312W        W49912   0.375  33.894  11.596
79313W        W49913  16.243  22.333  12.593
79314W        W49914  34.895  25.117   3.250
79315W        W49915  21.582   3.960   1.027
79316W        W49916  11.538  13.781   2.844
79317W        W49917  33.772  36.804   3.668
79318W        W49918  21.220  19.196  11.651
79319W        W49919  13.339  26.892   0.267
79320W        W49920  41.407   8.287  13.453
79321W        W49921  16.606   5.690  10.521
79322W        W49922  42.298   2.404   4.742
79323W        W49923  28.497   4.920   1.961
79324W        W49924   8.922  26.532  11.002
79325W        W49925   5.835  27.014  14.484
79326W        W49926   0.251  41.511  10.894
79327W        W49927  22.102  11.215   0.493
79328W        W49928  14.571  11.832  12.545
79329W        W49929  16.255  11.709  12.119
79330W        W49930   1.347  13.158  14.314
79331W        W49931  40.040  16.610   4.100
79332W        W49932  18.196   3.453  11.173
79333W        W49933  34.437   6.919  11.371
79334W        W49934  14.751  11.687  14.406
79335W        W49935  19.805  35.957   2.524
79336W        W49936  36.019  32.600  14.792
79337W        W49937  13.240  29.059  10.949
79338W        W49938  36.657  33.001   1.920
79339W        W49939  38.444  41.343  10.699
79340W        W49940  34.579  27.269   4.236
79341W        W49941  28.643  44.276   0.795
79342W        W49942   8.939  17.645  14.964
79343W        W49943  26.741  11.671   1.765
79344W        W49944   9.267  28.419  13.711
79345W        W49945  27.740   0.631  14.515
79346W        W49946  25.513  21.808   3.400
79347W        W49947  28.500  32.394  13.349
79348W        W49948   2.726  40.161   1.530
79349W        W49949  29.645   7.395  14.831
79350W        W49950   6.133  18.935  13.743
79351W        W49951  35.947   3.714   1.352
79352W        W49952   7.903  33.478   4.458
79353W        W49953  42.492   4.930  12.927
79354W        W49954  36.164  25.527  11.965
79355W        W49955   5.136  32.994  12.567
79356W        W49956   6.443   3.292  14.275
79357W        W49957  12.603   4.793   3.717
79358W        W49958  14.783  25.123   4.706
79359W        W49959  30.014  42.459   0.031
79360W        W49960  39.379   9.359   0.892
79361W        W49961  28.177  18.589  14.843
79362W        W49962  16.179   6.914  13.043
79363W        W49963  38.065   3.499   2.678
79364W        W49964   3.715  44.947  13.874
79365W        W49965  44.567  27.117   3.256
79366W        W49966  11.879  42.394  11.951
79367W        W49967  22.108  10.877   2.681
79368W        W49968  40.169  39.082   3.803
79369W        W49969   7.613  18.742   0.287
79370W        W49970  22.165  39.310  10.687
79371W        W49971  21.800  40.247  13.958
79372W        W49972   2.976  28.583   3.873
79373W        W49973  38.515  42.184   4.842
79374W        W49974  37.229  17.231  13.570
79375W        W49975  22.487  30.492  11.807
79376W        W49976  15.889  41.607  13.404
79377W        W49977  39.996  19.507   3.189
79378W        W49978   5.151  41.131  14.319
79379W        W49979   2.658   6.922  12.604
79380W        W49980  23.347  27.890   1.991
79381W        W49981  43.041  20.130   1.850
79382W        W49982  43.305  11.940  13.493
79383W        W49983  22.693  38.347   1.733
79384W        W49984   7.214  16.227  12.473
79385W        W49985   4.879  35.546  11.727
79386W        W49986  10.615  15.275   2.814
79387W        W49987  13.941  44.038   4.137
79388W        W49988  25.215  41.851   2.642
79389W        W49989  10.694  19.607   2.311
79390W        W49990   6.884  28.868  13.348
79391W        W49991   8.356   0.332   4.389
79392W        W49992  35.638  18.038  13.508
79393W        W49993  26.512  20.980  11.559
79394W        W49994  36.988  19.004   4.602
79395W        W49995  30.122  44.201  12.479
79396W        W49996   8.789  22.621   0.451
79397W        W49997  17.270   9.112   3.868
79398W        W49998   0.721  33.023   3.380
79399W        W49999  32.123  13.062   1.255
79400W        W50000  26.466  16.629   1.713
79401W        W50001   4.948  40.227   4.135
79402W        W50002  21.982  36.955  11.074
79403W        W50003  40.481  23.112   0.985
79404W        W50004  30.410  23.941  12.248
79405W        W50005  37.587  13.731   3.218
79406W        W50006  16.287  25.912   0.918
79407W        W50007   1.232   3.151  12.700
79408W        W50008  11.259  15.644  12.119
79409W        W50009   3.123  25.981  14.002
79410W        W50010  26.105   7.803  13.553
79411W        W50011  19.344  32.562   4.227
79412W        W50012  18.279  35.315  14.826
79413W        W50013  36.116  39.871  10.765
79414W        W50014  27.050   4.282   2.632
79415W        W50015  23.689  41.511   0.643
79416W        W50016  44.079  29.510   2.721
79417W        W50017  13.561  20.714   1.862
79418W        W50018  41.932  42.240   0.330
79419W        W50019  20.474  41.391   1.909
79420W        W50020   8.214   1.899  14.435
79421W        W50021   4.748  44.392  11.701
79422W        W50022  36.598  23.254   4.132
79423W        W50023   8.195  15.242  13.031
79424W        W50024   8.317  14.564   1.387
79425W        W50025   5.503  14.369   3.251
79426W        W50026  15.712  40.708  11.469
79427W        W50027  31.596  32.805   1.046
79428W        W50028  20.029  38.662   0.946
79429W        W50029  24.525  19.071  14.433
79430W        W50030  19.623  29.892  11.258
79431W        W50031  18.321  31.376   4.235
79432W        W50032   8.626  37.327  11.571
79433W        W50033   1.269  38.802   3.339
79434W        W50034  19.192   3.946   0.865
79435W        W50035  19.548   3.751  14.924
79436W        W50036  42.169  24.447  12.471
79437W        W50037   0.361  23.099   3.566
79438W        W50038  34.478  23.736  12.883
79439W        W50039  32.990  29.086  13.945
79440W        W50040  34.362   0.939  14.291
79441W        W50041  13.525   2.155  11.510
79442W        W50042  32.631  22.008  12.077
79443W        W50043  11.841  41.072   3.362
79444W        W50044  28.000  36.900  13.885
79445W        W50045  31.577  31.611  13.881
79446W        W50046  24.221   8.797  13.726
79447W        W50047  24.420   9.220   4.528
79448W        W50048   5.815  19.942  13.792
79449W        W50049  21.998  25.346  10.360
79450W        W50050  21.147  11.530   0.915
79451W        W50051   5.298   7.117   3.224
79452W        W50052  39.089  40.597   4.194
79453W        W50053   0.760  22.239  13.522
79454W        W50054  40.534   1.015   2.894
79455W        W50055  26.122  24.677   3.292
79456W        W50056  23.100  20.948  10.633
79457W        W50057   0.307  10.991  14.426
79458W        W50058  40.840  33.947   0.687
79459W        W50059  37.431  40.160   3.818
79460W        W50060  34.599  31.956  11.001
79461W        W50061  23.956  27.278   0.958
79462W        W50062  10.909  20.822   2.867
79463W        W50063  20.140  11.265   1.080
79464W        W50064  28.991  10.891  12.584
79465W        W50065   4.224  28.500  12.579
79466W        W50066  13.325  18.881   1.768
79467W        W50067  10.382   5.300  14.288
79468W        W50068  17.627   7.878  12.998
79469W        W50069  31.045  18.473  11.608
79470W        W50070  43.455  16.338  14.929
79471W        W50071  20.240  23.448   3.616
79472W        W50072  21.216  28.519   4.555
79473W        W50073   0.481  13.300   3.632
79474W        W50074  18.569  11.302  10.578
79475W        W50075  10.148  18.848  10.747
79476W        W50076  12.869  41.705  11.917
79477W        W50077   7.099  44.860  12.160
79478W        W50078  30.350  44.889  14.379
79479W        W50079  39.282  35.059   4.675
79480W        W50080  10.152  11.838  13.843
79481W        W50081  14.116  43.127   0.075
79482W        W50082   3.459  17.546   1.734
79483W        W50083  28.607  42.432   2.227
79484W        W50084  33.681  30.612  14.844
79485W        W50085  32.641  41.421   3.402
79486W        W50086  42.636  20.571   3.617
79487W        W50087  44.450   4.764  13.881
79488W        W50088  29.363  15.358  12.039
79489W        W50089  38.847  15.710   3.207
79490W        W50090  14.189  18.778  13.902
79491W        W50091  37.538  20.082   4.658
79492W        W50092  24.484  41.656   1.214
79493W        W50093  29.503  15.101   4.250
79494W        W50094  43.331  43.543  11.707
79495W        W50095  44.378   5.344  14.612
79496W        W50096  31.105  19.759  13.213
79497W        W50097  27.742  32.258  13.077
79498W        W50098  37.831  34.295   3.670
79499W        W50099   2.194  43.586   4.217
79500W        W50100  30.185  27.414  10.754
79501W        W50101  22.708  34.936   5.028
79502W        W50102  31.448   4.793   3.380
79503W        W50103  36.168  18.075  11.947
79504W        W50104  26.649  14.643  13.996
79505W        W50105  11.991  39.973  13.398
79506W        W50106   1.705  37.075  10.918
79507W        W50107  44.843  25.001  14.991
79508W        W50108   2.023  37.952   4.086
79509W        W50109  22.919   0.433  13.391
79510W        W50110   5.066  35.274   0.352
79511W        W50111  10.787  36.312  12.876
79512W        W50112  28.148  37.386  13.904
79513W        W50113  29.692  30.268   3.162
79514W        W50114   6.471  28.851   2.825
79515W        W50115  22.500  43.517   3.274
79516W        W50116  37.094   1.343   3.156
79517W        W50117  32.852  32.613   0.430
79518W        W50118  30.687  14.437  10.475
79519W        W50119  21.682  37.345  12.554
79520W        W50120  40.217  19.792   1.516
79521W        W50121  30.368   7.362   0.736
79522W        W50122  28.397  30.284  10.947
79523W        W50123  41.768  34.558  14.927
79524W        W50124  43.979  33.554  14.037
79525W        W50125  21.961  30.182  10.864
79526W        W50126  40.432  31.412   0.798
79527W        W50127  26.844  15.276   2.698
79528W        W50128  13.069   8.587   2.590
79529W        W50129  39.952  19.966  13.308
79530W        W50130  39.428  22.634  13.847
79531W        W50131  19.147   3.951   3.658
79532W        W50132   0.419  21.007  11.019
79533W        W50133   0.282  11.850   3.624
79534W        W50134  21.280  12.178  11.384
79535W        W50135   1.721  18.056  14.466
79536W        W50136  35.520   5.669  11.078
79537W        W50137  13.793  15.857   3.291
79538W        W50138  40.505  35.107  10.700
79539W        W50139  10.227  32.728  11.130
79540W        W50140  22.053  40.634   1.199
79541W        W50141  10.882  36.540   2.292
79542W        W50142  42.835   8.895  12.940
79543W        W50143  10.178  20.699   2.362
79544W        W50144  11.581  42.935   0.722
79545W        W50145  16.062  44.260  10.301
79546W        W50146   6.432   5.599  11.131
79547W        W50147  10.132  16.366  13.906
79548W        W50148  11.650  41.422  12.425
79549W        W50149   7.398   9.852   3.809
79550W        W50150   1.737  17.326   3.753
79551W        W50151  27.115  22.082   0.491
79552W        W50152  34.857   6.764   4.679
79553W        W50153  42.403   0.372  14.350
79554W        W50154  36.985   4.995  13.584
79555W        W50155  25.999  43.382  14.663
79556W        W50156   1.980   4.327  11.584
79557W        W50157  19.180  40.500  13.367
79558W        W50158   7.962  15.299   1.791
79559W        W50159  36.846  33.383  13.441
79560W        W50160  39.093  44.314   4.564
79561W        W50161  20.914  39.627  11.160
79562W        W50162  41.468   7.258  13.165
79563W        W50163  28.505  29.458   3.395
79564W        W50164  12.451  20.646   4.561
79565W        W50165   7.368  35.028   3.614
79566W        W50166  35.552  44.674  14.297
79567W        W50167  42.110  25.053  10.796
79568W        W50168  42.327  13.363   4.734
79569W        W50169  16.201  27.747  13.476
79570W        W50170   0.891   1.496   1.267
79571W        W50171  15.869  14.042   4.070
79572W        W50172  15.070  18.323   3.650
79573W        W50173  42.006  32.388   0.683
79574W        W50174  25.175   8.420  13.972
79575W        W50175  37.928  38.340  14.333
79576W        W50176  31.512  12.704  12.448
79577W        W50177  27.088  25.465  13.569
79578W        W50178  44.517  14.156   1.199
79579W        W50179   1.912  29.583  12.919
79580W        W50180  14.172   1.344  13.402
79581W        W50181  15.623  37.796   2.370
79582W        W50182  20.431  18.121   2.139
79583W        W50183  19.782  27.191  11.629
79584W        W50184   7.126  27.192   4.397
79585W        W50185  40.825   0.535   4.592
79586W        W50186  20.557   2.867  10.393
79587W        W50187  33.733  17.553   0.369
79588W        W50188  29.558  17.004  11.689
79589W        W50189  37.994  22.457  12.431
79590W        W50190  26.131   2.729   1.967
79591W        W50191  28.557   5.436   2.082
79592W        W50192  10.250  37.884  13.550
79593W        W50193  15.295   2.743   3.816
79594W        W50194  42.004  17.689   2.422
79595W        W50195  29.533  23.744  13.682
79596W        W50196  27.984  40.668  11.086
79597W        W50197   1.099  24.036  10.761
79598W        W50198  33.363  32.633   0.357
79599W        W50199   6.011  10.564   2.853
79600W        W50200   2.036   9.383  10.895
79601W        W50201  32.920  41.287  13.549
79602W        W50202   2.247   3.407   1.756
79603W        W50203  33.129  35.562  11.522
79604W        W50204  18.217   0.211   0.270
79605W        W50205   3.758  28.003   0.009
79606W        W50206  33.142  32.581  13.567
79607W        W50207  34.792  21.674  12.518
79608W        W50208  36.829   5.414  11.139
79609W        W50209   0.022  26.509  11.686
79610W        W50210   9.347  38.573  12.481
79611W        W50211   9.140   1.938  13.286
79612W        W50212  25.642  37.611  14.592
79613W        W50213  20.495   7.649  13.547
79614W        W50214  25.444  28.057   3.713
79615W        W50215   0.209  24.317  12.908
79616W        W50216  10.130  36.120  10.063
79617W        W50217  11.774   9.629   1.763
79618W        W50218  13.889  27.452   1.558
79619W        W50219  22.426  21.651   4.641
79620W        W50220  21.405  20.815  13.456
79621W        W50221  19.278  37.316   1.345
79622W        W50222  33.193  13.134  13.892
79623W        W50223  24.428   6.563  14.739
79624W        W50224  24.289   7.869  12.141
79625W        W50225   9.564  16.224   0.175
79626W        W50226  14.679  37.019   4.320
79627W        W50227  14.747   6.464   3.654
79628W        W50228  31.366  14.106  11.003
79629W        W50229  25.525  21.082  13.986
79630W        W50230   0.717   4.443  13.538
79631W        W50231  41.542   3.536   4.584
79632W        W50232  28.708   5.151  10.381
79633W        W50233  14.533  25.179  12.432
79634W        W50234  35.782  23.410  11.046
79635W        W50235  20.378   7.331   0.035
79636W        W50236  16.822   1.843   3.358
79637W        W50237  42.349  34.811  14.918
79638W        W50238   5.484  19.419   2.958
79639W        W50239   4.447  12.258  11.134
79640W        W50240  13.812  31.578   4.671
79641W        W50241  13.056  16.667  11.591
79642W        W50242  31.577   0.969  11.908
79643W        W50243   6.663   9.892   4.066
79644W        W50244  24.804   7.778   3.102
79645W        W50245   6.787   7.959   4.162
79646W        W50246  25.691  29.370   2.623
79647W        W50247  40.930  39.418  10.725
79648W        W50248   8.651  25.806  11.605
79649W        W50249  27.446  32.554   4.204
79650W        W50250   6.673   3.514   4.035
79651W        W50251  21.697  27.922   1.385
79652W        W50252  43.481  13.216  13.993
79653W        W50253   0.931  24.860  13.554
79654W        W50254  42.058  18.603  12.454
79655W        W50255  29.251   2.632  12.630
79656W        W50256   6.943  27.048  12.979
79657W        W50257  13.176   9.220   2.138
79658W        W50258  12.631   3.449  12.554
79659W        W50259  36.440  10.082  13.033
79660W        W50260  18.820  29.608  10.725
79661W        W50261  30.203  34.105   1.223
79662W        W50262  34.119  24.258   1.992
79663W        W50263   3.769  19.340  11.511
79664W        W50264  13.741  39.431  10.393
79665W        W50265   7.187  41.605   4.639
79666W        W50266  25.076  35.528  13.841
79667W        W50267   1.766   7.036   1.034
79668W        W50268  14.080  33.878   1.294
79669W        W50269  15.702   9.287   0.728
79670W        W50270  10.949  25.987  13.538
79671W        W50271  26.179  33.033  13.109
79672W        W50272  30.591  18.356   1.906
79673W        W50273  32.147  39.083   0.936
79674W        W50274  11.279   4.375  14.176
79675W        W50275   3.355  22.051   3.859
79676W        W50276  41.278  37.328  10.579
79677W        W50277  20.907  33.089  13.301
79678W        W50278  17.690  20.722   0.873
79679W        W50279   3.416  18.485  12.505
79680W        W50280  30.821  26.046   0.932
79681W        W50281  33.375  15.650   4.105
79682W        W50282  22.251  11.641   0.014
79683W        W50283   5.810   2.665   0.460
79684W        W50284  34.885   1.825   4.449
79685W        W50285  27.934   1.366   3.686
79686W        W50286  16.033  20.624   0.425
79687W        W50287  10.645   0.277   2.084
79688W        W50288  24.486  20.146   1.303
79689W        W50289  18.302  25.617   3.691
79690W        W50290  25.686   4.799   1.815
79691W        W50291  12.222   4.096   4.639
79692W        W50292  35.646  17.151  13.485
79693W        W50293  22.224  27.249  12.873
79694W        W50294   2.247  33.381  13.997
79695W        W50295  29.028  13.774   3.621
79696W        W50296  43.484  18.133  11.005
79697W        W50297  33.866  13.251   1.135
79698W        W50298  25.147  17.651   2.838
79699W        W50299  12.307  26.020  12.304
79700W        W50300  34.879  23.549  14.736
79701W        W50301  20.101  42.912   0.367
79702W        W50302  29.413  39.009   4.868
79703W        W50303  23.237  11.129  14.842
79704W        W50304  31.102  14.701  12.069
79705W        W50305  17.795  33.408   3.599
79706W        W50306  13.263   3.926  11.010
79707W        W50307  30.024  39.816  13.767
79708W        W50308  15.781  43.740  11.952
79709W        W50309  31.716  27.837  14.402
79710W        W50310   1.312  30.534   3.880
79711W        W50311  18.182  26.261  11.561
79712W        W50312   2.310  20.560   2.615
79713W        W50313  11.292  22.292  11.097
79714W        W50314  16.632  25.178   1.473
79715W        W50315   6.449   3.619   1.797
79716W        W50316  16.158  33.484  14.773
79717W        W50317   7.504  28.277   1.352
79718W        W50318  36.652  32.494  12.454
79719W        W50319   6.291  31.170  13.012
79720W        W50320  10.779  12.624   3.509
79721W        W50321  44.788  44.644   4.433
79722W        W50322  33.574   5.769   2.631
79723W        W50323   2.443  37.593  11.175
79724W        W50324   9.446   9.378   2.463
79725W        W50325  10.279  22.958   0.201
79726W        W50326   7.292  13.741   4.158
79727W        W50327  20.492   3.498  12.564
79728W        W50328  34.628  35.821   2.526
79729W        W50329  44.382   7.678   0.321
79730W        W50330  29.471  44.590   2.660
79731W        W50331  24.257  11.633   3.104
79732W        W50332   8.778   0.249   3.174
79733W        W50333  10.372  37.492   1.404
79734W        W50334  42.532  28.049  14.781
79735W        W50335  10.482  44.361   3.033
79736W        W50336   5.819  12.576  12.954
79737W        W50337  26.315  26.629   0.954
79738W        W50338   3.994   2.886   1.691
79739W        W50339  15.694  36.603   0.427
79740W        W50340  31.126  33.066  12.028
79741W        W50341  39.350   7.750  12.877
79742W        W50342   0.117  23.160   4.857
79743W        W50343  25.884   3.225  14.146
79744W        W50344  30.022  41.456  12.264
79745W        W50345  27.883  29.747  12.959
79746W        W50346  12.843  24.516   2.708
79747W        W50347  35.091   8.948  14.488
79748W        W50348  36.631   9.328  11.878
79749W        W50349  20.548  12.796  12.411
79750W        W50350  16.588  35.637   3.441
79751W        W50351  22.700  22.196   0.152
79752W        W50352  41.162  37.091  12.894
79753W        W50353  35.645  23.531  11.513
79754W        W50354  41.210  19.635  14.448
79755W        W50355  24.089  29.043  13.987
79756W        W50356  42.466  27.947  13.972
79757W        W50357  25.922  44.858   2.808
79758W        W50358  27.987  31.166   1.208
79759W        W50359  35.790  30.790  11.990
79760W        W50360   5.963   5.716   3.052
79761W        W50361  38.113  20.358   2.793
79762W        W50362  18.196  31.462  10.959
79763W        W50363  17.298  35.553   1.349
79764W        W50364  29.636  12.337   1.044
79765W        W50365  15.639  24.903  11.053
79766W        W50366  33.091  19.782  13.238
79767W        W50367  19.852   0.380  12.069
79768W        W50368   6.297  17.785  12.894
79769W        W50369  35.097  16.334   0.790
79770W        W50370   3.180  19.546   1.303
79771W        W50371   6.319  23.113  12.927
79772W        W50372   8.842  35.962  11.517
79773W        W50373  27.934  38.843  10.459
79774W        W50374  10.675   0.788   0.264
79775W        W50375   9.610  15.008   3.877
79776W        W50376  20.748   3.294   0.145
79777W        W50377  13.911  38.020  14.361
79778W        W50378  10.440  25.090   4.322
79779W        W50379   5.674   9.665   3.207
79780W        W50380   0.944  11.090   3.560
79781W        W50381  17.895  31.129   4.083
79782W        W50382  44.321  21.815   2.012
79783W        W50383  42.509  34.869   1.259
79784W        W50384  10.117  37.090  14.904
79785W        W50385  20.735  39.016   4.414
79786W        W50386   1.293  22.527   0.540
79787W        W50387  37.340  11.401  11.625
79788W        W50388  30.542  26.990  11.700
79789W        W50389  22.740   0.970  13.186
79790W        W50390  41.025  18.155   1.801
79791W        W50391  31.860  10.361   1.580
79792W        W50392  43.683   4.938   2.268
79793W        W50393  14.320  39.856  13.362
79794W        W50394  12.075   1.889   2.121
79795W        W50395   7.293   5.510  13.425
79796W        W50396  29.425  30.523  12.979
79797W        W50397   4.597  42.886   2.440
79798W        W50398  29.091  26.247   4.283
79799W        W50399   9.266  39.518   1.299
79800W        W50400  20.792  44.543   1.747
79801W        W50401  25.227  23.016  11.165
79802W        W50402   7.501  29.869  12.600
79803W        W50403  14.349  44.747  13.920
79804W        W50404   1.998  10.691   3.342
79805W        W50405   5.943  29.471  11.364
79806W        W50406  12.379  27.440  12.013
79807W        W50407  26.614  12.167  14.066
79808W        W50408  17.628  15.075   0.739
79809W        W50409  10.873   0.378  12.229
79810W        W50410  37.931   3.764   4.092
79811W        W50411  24.171  24.446   3.691
79812W        W50412  18.180  22.538  12.728
79813W        W50413   5.300  16.242   3.290
79814W        W50414  43.960  31.927  11.057
79815W        W50415   8.324  11.780   0.420
79816W        W50416  42.606  31.339   2.701
79817W        W50417  35.191  15.564   2.285
79818W        W50418  15.755  41.316   4.387
79819W        W50419  25.703   2.899   3.723
79820W        W50420  41.278  17.647   5.439
79821W        W50421   1.030   0.257   2.186
79822W        W50422  15.712  40.375   1.297
79823W        W50423  28.175  37.503  10.344
79824W        W50424   7.597  21.336   3.691
79825W        W50425  35.075  13.550   1.361
79826W        W50426  36.537  12.595  11.861
79827W        W50427   7.469   0.498  13.295
79828W        W50428   9.245  24.005  13.003
79829W        W50429   1.511   2.964   0.416
79830W        W50430   4.006  20.196  11.307
79831W        W50431  32.634  14.652  10.658
79832W        W50432  18.655   3.685   3.731
79833W        W50433  26.171  33.626   4.448
79834W        W50434   4.905  39.807   3.145
79835W        W50435  30.102  10.732   4.105
79836W        W50436  30.361  14.249   4.686
79837W        W50437  22.224  16.850   1.735
79838W        W50438   4.437  25.127  14.844
79839W        W50439  20.705  12.866   4.303
79840W        W50440   2.489  13.863   0.090
79841W        W50441  13.056   5.483  13.376
79842W        W50442  17.986  21.000   4.176
79843W        W50443   6.648  43.559   3.700
79844W        W50444  36.145  16.824   2.274
79845W        W50445  32.560  42.515   0.495
79846W        W50446  44.216  44.526  14.580
79847W        W50447  27.215   2.808   4.771
79848W        W50448   1.999  26.123  12.514
79849W        W50449   9.688  11.383   0.843
79850W        W50450  35.145  21.815  13.349
79851W        W50451  10.178  36.349   1.268
79852W        W50452  39.042   9.654   4.573
79853W        W50453  44.483  38.567   9.920
79854W        W50454  11.276  13.122  11.885
79855W        W50455  11.477   3.705   1.895
79856W        W50456  29.503   3.496   2.841
79857W        W50457  17.303  18.175   1.315
79858W        W50458  11.357  26.141   2.518
79859W        W50459  15.861  28.578  10.556
79860W        W50460  27.025  39.547   0.191
79861W        W50461  33.267  44.381   4.831
79862W        W50462   7.456   8.262   3.639
79863W        W50463   2.285  33.564   1.080
79864W        W50464  28.197  38.039  12.911
79865W        W50465  20.703  11.436   2.776
79866W        W50466   1.886  40.960   0.533
79867W        W50467  13.666  13.135  10.652
79868W        W50468  38.280   1.338   4.145
79869W        W50469   0.548  34.985  11.064
79870W        W50470  15.896  11.112   4.155
79871W        W50471  35.157   0.486  12.194
79872W        W50472  37.096   3.804   1.865
79873W        W50473  22.517   1.797   0.319
79874W        W50474   1.976   9.944   2.834
79875W        W50475  28.104  40.808  13.057
79876W        W50476   9.858  38.263   3.637
79877W        W50477  13.602   5.280  10.428
79878W        W50478  26.305  30.569   1.812
79879W        W50479  26.102   1.936   2.658
79880W        W50480  35.902  15.885  10.797
79881W        W50481  36.219   0.889   1.470
79882W        W50482  30.498  25.274   1.477
79883W        W50483  15.811  13.524  12.348
79884W        W50484  40.760   9.433   1.738
79885W        W50485  39.765   1.945  14.849
79886W        W50486   1.143  13.143  11.088
79887W        W50487  20.765  30.583  11.222
79888W        W50488  12.891  29.939   0.170
79889W        W50489   8.436  33.966  12.977
79890W        W50490  11.869  19.490   3.652
79891W        W50491  35.502  14.231   0.901
79892W        W50492  43.213   2.652  12.819
79893W        W50493  17.373   0.747  11.064
79894W        W50494  16.654  22.568   2.377
79895W        W50495  42.479  10.621   0.207
79896W        W50496  19.156   5.780   4.133
79897W        W50497  18.363  35.546   1.169
79898W        W50498  35.466  44.916   0.583
79899W        W50499  19.969  18.522   3.047
79900W        W50500  42.473  14.171   2.632
79901W        W50501  43.267  22.616  14.071
79902W        W50502  22.253   7.478   0.467
79903W        W50503   4.041   8.835  12.655
79904W        W50504  40.073   6.379   2.740
79905W        W50505  21.971  19.051  11.160
79906W        W50506  35.591   0.508   2.791
79907W        W50507  15.336  36.613   3.551
79908W        W50508   9.106  13.734   3.095
79909W        W50509  10.153   8.711  11.934
79910W        W50510  28.158  11.814   2.761
79911W        W50511  42.992  44.762  10.932
79912W        W50512  19.498  39.096   2.301
79913W        W50513   6.396   9.024  13.672
79914W        W50514  25.153  13.787   1.985
79915W        W50515  17.770   7.782   3.746
79916W        W50516  35.722  31.160  11.061
79917W        W50517  41.815  14.750  14.784
79918W        W50518  31.609   0.032  10.725
79919W        W50519  29.321  23.027  12.141
79920W        W50520  34.271   5.318  14.716
79921W        W50521  22.533  31.572  13.497
79922W        W50522  37.116  12.829   3.668
79923W        W50523  33.272   8.390  10.883
79924W        W50524  37.786  28.555   0.209
79925W        W50525   5.786  28.548  12.030
79926W        W50526  39.304  14.626  13.858
79927W        W50527  18.303  24.583  12.137
79928W        W50528  43.928   5.371   0.403
79929W        W50529  33.581  11.757   4.551
79930W        W50530  25.358  26.969   3.674
79931W        W50531   1.287  40.559   3.775
79932W        W50532  24.257   0.698  13.491
79933W        W50533  18.037  19.627   4.201
79934W        W50534  36.750  30.769   2.978
79935W        W50535  28.546   7.401   0.867
79936W        W50536  20.515  33.520   0.883
79937W        W50537   7.717   6.633   1.768
79938W        W50538  27.982  20.739   4.199
79939W        W50539  37.966  23.150   0.427
79940W        W50540  30.047  12.389  10.636
79941W        W50541  36.136   5.232   3.116
79942W        W50542  44.324  20.198  14.115
79943W        W50543  26.513   8.927   2.190
79944W        W50544  33.920  18.935   1.532
79945W        W50545  42.254  24.710   3.323
79946W        W50546  25.633  18.201  12.484
79947W        W50547  30.128  36.532  12.986
79948W        W50548   6.809   8.342  13.117
79949W        W50549  16.262  37.350  10.951
79950W        W50550   1.311  34.108   2.256
79951W        W50551  18.695  29.569   2.024
79952W        W50552  32.412  10.973  12.476
79953W        W50553  15.196  24.418   2.734
79954W        W50554  16.229   4.368  14.052
79955W        W50555  17.136  36.068   0.013
79956W        W50556   8.986  27.602  11.945
79957W        W50557  21.157  32.971   2.724
79958W        W50558   9.090  13.313   0.804
79959W        W50559   0.774  17.201  10.891
79960W        W50560  30.572   3.187  12.513
79961W        W50561  39.232  37.616  13.491
79962W        W50562  14.569  44.255   4.507
79963W        W50563   4.935  26.055  14.567
79964W        W50564  24.221  20.839  11.558
79965W        W50565  31.041  27.506  11.703
79966W        W50566  21.366   2.299   2.265
79967W        W50567  29.369  34.509  10.611
79968W        W50568  39.880  11.352  13.639
79969W        W50569  21.490  36.164   1.473
79970W        W50570  34.176  20.745  12.117
79971W        W50571   1.321  43.526  12.827
79972W        W50572  25.690  20.158  13.666
79973W        W50573  13.086   3.809   4.911
79974W        W50574   6.925  29.387   2.399
79975W        W50575   5.568  15.973   3.657
79976W        W50576   7.263   4.848   1.797
79977W        W50577  37.595   1.420   3.080
79978W        W50578   7.507  34.421   4.908
79979W        W50579  32.002  40.389   2.174
79980W        W50580  35.074  17.543   3.586
79981W        W50581  13.023   0.028   1.852
79982W        W50582  30.513  41.872   3.812
79983W        W50583  44.016  16.265  10.690
79984W        W50584   1.371   5.284  11.129
79985W        W50585  35.900   4.245   1.385
79986W        W50586  27.069  15.126   3.158
79987W        W50587   8.878  17.910   0.899
79988W        W50588  41.938   6.860   3.150
79989W        W50589  10.120  16.226  14.783
79990W        W50590  14.036  12.961   3.624
79991W        W50591  30.054   1.453   0.942
79992W        W50592  39.685   8.718   4.583
79993W        W50593  43.591   0.525   2.555
79994W        W50594  31.221  14.744  13.968
79995W        W50595  33.052  15.059  12.516
79996W        W50596  13.190  25.230   5.085
79997W        W50597  24.966  41.417   4.281
79998W        W50598  34.631  16.480  14.998
79999W        W50599  31.932  22.796   0.824
80000W        W50600  36.387  15.826  11.558
80001W        W50601   8.748   2.232   2.372
80002W        W50602  30.581  31.507   4.187
80003W        W50603  38.164  36.934  13.916
80004W        W50604   7.356  14.939   3.173
80005W        W50605  43.970  18.498   3.984
80006W        W50606  26.981  38.534   1.481
80007W        W50607  36.544   3.552   3.863
80008W        W50608  35.973  40.025  11.538
80009W        W50609  19.510  17.193   0.809
80010W        W50610  40.543  31.680   2.853
80011W        W50611  10.433  24.431   3.081
80012W        W50612  13.032  11.083   3.013
80013W        W50613  10.100  28.099  10.779
80014W        W50614   4.398  11.201  13.715
80015W        W50615   7.364  26.216   4.166
80016W        W50616  26.502  34.082  13.921
80017W        W50617  17.694  33.856  13.730
80018W        W50618  14.239  22.588   4.669
80019W        W50619  28.864  13.786  12.695
80020W        W50620  42.789  10.696  11.654
80021W        W50621  22.597  27.730   4.687
80022W        W50622  15.337  32.214  11.933
80023W        W50623  18.778  19.154  12.023
80024W        W50624  32.811   2.034   4.132
80025W        W50625   3.944  29.909   0.450
80026W        W50626   2.771   0.491  13.289
80027W        W50627  43.898  44.536   1.394
80028W        W50628  30.019  24.214   4.390
80029W        W50629  13.146  11.647   2.200
80030W        W50630  36.909   3.999  14.758
80031W        W50631  35.372  22.249  13.087
80032W        W50632  20.029  23.961   4.626
80033W        W50633  28.679  26.727  13.422
80034W        W50634  37.998   5.228  14.549
80035W        W50635  12.610  13.321   3.719
80036W        W50636   2.916  27.616   1.746
80037W        W50637   1.521  37.572   2.754
80038W        W50638   0.720  19.451   1.824
80039W        W50639  19.763  27.512  12.913
80040W        W50640  23.637  40.937   4.392
80041W        W50641  21.479   3.209   2.193
80042W        W50642  15.289  38.010  14.761
80043W        W50643  38.576  22.676   0.201
80044W        W50644  21.125  43.983  14.069
80045W        W50645  31.599  26.900   3.260
80046W        W50646   1.246  30.235  13.142
80047W        W50647  17.178  14.102  11.269
80048W        W50648  14.292   3.552   1.357
80049W        W50649  13.909  17.403  12.083
80050W        W50650  22.428  15.378   2.191
80051W        W50651  42.700  43.613   2.830
80052W        W50652  43.966  23.683  12.829
80053W        W50653  17.620  26.404  13.261
80054W        W50654  31.953  36.571   2.554
80055W        W50655  14.303  10.900  12.443
80056W        W50656   2.960   9.183  12.763
80057W        W50657  13.649  24.235  12.858
80058W        W50658  11.153  39.495   4.584
80059W        W50659  14.282  28.859   4.221
80060W        W50660  36.569  30.423  11.253
80061W        W50661  26.910  26.593  11.650
80062W        W50662  19.604   5.643  12.924
80063W        W50663  21.094  39.054   3.845
80064W        W50664  32.954   3.905  14.793
80065W        W50665  19.745  43.342  13.041
80066W        W50666  25.213  44.502  10.439
80067W        W50667  20.117  13.118  13.508
80068W        W50668  15.739  24.170   1.166
80069W        W50669  16.681   5.862  11.019
80070W        W50670  35.706  44.925  13.866
80071W        W50671   5.932   7.379   3.870
80072W        W50672  31.393   0.506  12.556
80073W        W50673  10.964  19.036  12.395
80074W        W50674   2.731  40.887   1.417
80075W        W50675   1.501  21.234  11.778
80076W        W50676  29.447   6.352  11.145
80077W        W50677  37.912  17.814  11.430
80078W        W50678  33.529  12.323   1.750
80079W        W50679  34.856  16.563  11.562
80080W        W50680  35.368  37.368   1.158
80081W        W50681  17.660  43.827  11.670
80082W        W50682  36.589   4.915   1.423
80083W        W50683  12.157  26.472   1.438
80084W        W50684  10.732   4.956  11.560
80085W        W50685  26.025  35.946   4.217
80086W        W50686   7.150   0.476   4.559
80087W        W50687   7.416  19.161  14.892
80088W        W50688  30.069  18.551   0.836
80089W        W50689  19.833  36.456  13.498
80090W        W50690   2.396  26.430   1.830
80091W        W50691   2.359  15.173  11.156
80092W        W50692  31.494  35.706   4.489
80093W        W50693   2.209  43.727  13.822
80094W        W50694  34.469  26.180  14.789
80095W        W50695  13.131  27.069   2.654
80096W        W50696  30.505  33.418  14.488
80097W        W50697  34.018  34.040  10.387
80098W        W50698  36.623  26.509   3.223
80099W        W50699  26.027  39.299  10.776
80100W        W50700   4.503  30.432  11.601
80101W        W50701  22.939  16.661   3.802
80102W        W50702  16.698  17.813  12.602
80103W        W50703   8.687  25.961  14.429
80104W        W50704  24.458  12.373  11.917
80105W        W50705   7.288   0.939   2.323
80106W        W50706  44.834   7.657  12.512
80107W        W50707  36.593  10.447   1.850
80108W        W50708  39.267  43.822  11.285
80109W        W50709  14.668  29.321  13.999
80110W        W50710  23.479  14.760   4.846
80111W        W50711  36.061   2.189   4.345
80112W        W50712   4.319  33.931   2.917
80113W        W50713  38.525  20.813   0.382
80114W        W50714  15.707  29.374  13.017
80115W        W50715  11.578  24.215   4.165
80116W        W50716  23.701  41.462   1.152
80117W        W50717  25.325  16.419  11.099
80118W        W50718   1.165   4.475   0.353
80119W        W50719  35.541  35.234   4.504
80120W        W50720  15.664  30.246   0.443
80121W        W50721  34.080  33.531  10.525
80122W        W50722  22.163  11.573   2.227
80123W        W50723  21.782   0.329   2.631
80124W        W50724  34.242   6.855   3.561
80125W        W50725   4.708  31.708  11.454
80126W        W50726   3.796  14.267  13.599
80127W        W50727  11.236  40.041   0.267
80128W        W50728  29.479  27.080   4.485
80129W        W50729  42.773  39.541   2.717
80130W        W50730  26.121  44.381   4.693
80131W        W50731   1.726  27.068  11.225
80132W        W50732  23.738  34.823  13.459
80133W        W50733  27.498  38.659   0.882
80134W        W50734  28.599  39.562   3.227
80135W        W50735  29.004   3.636   2.688
80136W        W50736  37.347  23.956   0.290
80137W        W50737  22.590  27.766   0.528
80138W        W50738  41.676  35.165  11.511
80139W        W50739  17.785  26.998  14.535
80140W        W50740   7.363  34.686  11.713
80141W        W50741  17.188   2.231   0.567
80142W        W50742  11.574   3.097  14.076
80143W        W50743  32.411  28.857   4.183
80144W        W50744  35.723  26.531   4.507
80145W        W50745  29.461  34.445   0.973
80146W        W50746  18.903  26.446  12.423
80147W        W50747  17.074  41.961  13.905
80148W        W50748  28.589  29.623  12.536
80149W        W50749  44.332  43.067  10.075
80150W        W50750  41.300  14.265  11.082
80151W        W50751   6.959  21.036  13.788
80152W        W50752  37.030   5.933   0.396
80153W        W50753  40.727   6.649  11.977
80154W        W50754   2.191  44.866   3.679
80155W        W50755   9.781   6.659   0.412
80156W        W50756  13.271  38.812   0.350
80157W        W50757   0.825  20.044   3.399
80158W        W50758  14.657  17.013  11.281
80159W        W50759  28.966  28.484   3.646
80160W        W50760  35.663  31.065  11.552
80161W        W50761   7.179  22.442  14.839
80162W        W50762   5.208  36.635   3.890
80163W        W50763  28.414  32.937   4.049
80164W        W50764   7.702  16.708  10.610
80165W        W50765  30.939  39.278  14.597
80166W        W50766  37.418  38.473  14.285
80167W        W50767   2.705  12.337   0.870
80168W        W50768  12.098  44.845  14.449
80169W        W50769  25.734  26.081  12.597
80170W        W50770  28.438   4.797  11.100
80171W        W50771  29.074  29.875   2.688
80172W        W50772  20.229  39.994   0.459
80173W        W50773  26.645  28.399  12.083
80174W        W50774   3.416  35.848   0.395
80175W        W50775  16.053  10.328  11.516
80176W        W50776  11.716  42.469  10.981
80177W        W50777  41.254  38.087  13.005
80178W        W50778  18.657   3.486  13.445
80179W        W50779  27.876  27.436   2.492
80180W        W50780  20.274  38.355   1.368
80181W        W50781  35.325  17.634  14.295
80182W        W50782   7.150  32.566  12.865
80183W        W50783   1.957  41.430  12.471
80184W        W50784  41.869  23.537   0.417
80185W        W50785  19.903  28.521  10.731
80186W        W50786  18.560  39.831  11.046
80187W        W50787  12.907  31.545   4.090
80188W        W50788  35.559  17.703  13.076
80189W        W50789   8.940  33.631  12.084
80190W        W50790  14.515  34.215   3.551
80191W        W50791  34.331  40.162   4.872
80192W        W50792  37.222  30.900   5.173
80193W        W50793  26.651  28.705   1.944
80194W        W50794  15.792  23.061   2.236
80195W        W50795  11.260   4.665   3.943
80196W        W50796  22.103  14.786  11.601
80197W        W50797   0.940  15.656  13.960
80198W        W50798  12.207  26.536  11.152
80199W        W50799  10.874   0.828   2.751
80200W        W50800  42.111  33.626   1.951
80201W        W50801  22.544   2.814  14.910
80202W        W50802  42.903  32.876  13.942
80203W        W50803  33.025   2.200  14.951
80204W        W50804   8.201  25.207  13.112
80205W        W50805  34.491  32.625   1.377
80206W        W50806  31.607   6.994  11.530
80207W        W50807   1.519   1.626   2.388
80208W        W50808  12.263   7.967   3.659
80209W        W50809  19.965  27.315  10.295
80210W        W50810   6.882  27.461  10.278
80211W        W50811  43.757  22.591   2.339
80212W        W50812  27.677  13.268   4.670
80213W        W50813   9.874  36.825  14.486
80214W        W50814   4.676   1.085  11.102
80215W        W50815   5.753  17.732  14.845
80216W        W50816   4.329  29.523  12.421
80217W        W50817  28.244   8.200   3.864
80218W        W50818  38.751  35.458  14.185
80219W        W50819  34.111  28.739   0.419
80220W        W50820  13.615  16.722  10.674
80221W        W50821  22.394  31.581  11.747
80222W        W50822  28.794  26.393  12.116
80223W        W50823   1.973  31.123   4.934
80224W        W50824  31.675   7.926   4.129
80225W        W50825   1.190   1.046   0.343
80226W        W50826  41.712   9.247   1.713
80227W        W50827  16.509  35.484   0.970
80228W        W50828  15.665  42.378  11.835
80229W        W50829  15.644  12.097  11.588
80230W        W50830  37.854  23.407   1.360
80231W        W50831  19.357  35.137   4.922
80232W        W50832  38.960   0.097  12.613
80233W        W50833  22.710   5.633  11.576
80234W        W50834  15.718  22.985  11.941
80235W        W50835   2.155  31.962  14.211
80236W        W50836  39.346  30.587   1.313
80237W        W50837   1.239  12.269  10.808
80238W        W50838  32.913   9.952  12.811
80239W        W50839  40.128  25.727   4.165
80240W        W50840  15.703  13.743   0.911
80241W        W50841  24.744  12.160   1.879
80242W        W50842  32.813   9.092  12.525
80243W        W50843  20.018  18.735   3.514
80244W        W50844  14.118   8.700   1.651
80245W        W50845   9.822  11.830   3.258
80246W        W50846  33.757  14.872   2.335
80247W        W50847  33.035  19.673  12.262
80248W        W50848  14.335  21.367   3.869
80249W        W50849   9.811  38.353   3.123
80250W        W50850  31.376   0.709   2.403
80251W        W50851  11.914  20.182   2.216
80252W        W50852  27.997   8.439  10.133
80253W        W50853  17.742   4.165   4.150
80254W        W50854  33.084   1.340   4.653
80255W        W50855  12.067  10.185   4.305
80256W        W50856   0.495  21.419   5.108
80257W        W50857  44.306  37.550  14.452
80258W        W50858   0.780  19.914   3.887
80259W        W50859  27.647   8.447   2.768
80260W        W50860  19.122  15.064   3.656
80261W        W50861  13.335  30.585  12.853
80262W        W50862  22.728  18.144  13.896
80263W        W50863  38.844   1.515   0.474
80264W        W50864   6.798  22.439  12.765
80265W        W50865   3.189  22.011  14.733
80266W        W50866  44.855  44.512   2.655
80267W        W50867  24.771  36.423   0.612
80268W        W50868  25.072  27.162   4.708
80269W        W50869  16.146   5.866  10.681
80270W        W50870  22.759  34.150  14.786
80271W        W50871  38.026   4.023   1.824
80272W        W50872  42.351  12.763   2.151
80273W        W50873  41.950   0.392  12.119
80274W        W50874  44.022  31.479  13.075
80275W        W50875  42.392  32.749   1.017
80276W        W50876  17.866  31.077  11.026
80277W        W50877  43.979  11.134   3.227
80278W        W50878  23.722  23.993  13.559
80279W        W50879  44.031   6.791  12.102
80280W        W50880  40.856  22.466   2.422
80281W        W50881   1.278  11.361  11.320
80282W        W50882  39.602  27.050   0.824
80283W        W50883   5.719  11.377   5.106
80284W        W50884   5.214  44.426  14.514
80285W        W50885  21.796  14.084   1.363
80286W        W50886   6.704  28.598   1.415
80287W        W50887  26.903   4.837   4.517
80288W        W50888   3.202  24.166   3.241
80289W        W50889  29.225  34.296   4.191
80290W        W50890   2.977  16.900  14.137
80291W        W50891   3.565  32.999   1.877
80292W        W50892  24.946  30.490  14.914
80293W        W50893  22.303  32.055   1.998
80294W        W50894  31.501  14.369  13.768
80295W        W50895  14.215  42.830   4.941
80296W        W50896   8.148   5.761  14.002
80297W        W50897  44.563  38.006  14.485
80298W        W50898  29.028   3.274  13.303
80299W        W50899  44.923  21.357  10.393
80300W        W50900   6.099  23.015   2.685
80301W        W50901  19.244  13.012   5.025
80302W        W50902   1.863  16.940   4.816
80303W        W50903   2.449  17.583  11.093
80304W        W50904  13.548  36.022  13.675
80305W        W50905  30.238  40.333   0.305
80306W        W50906  34.877  10.922  13.489
80307W        W50907   4.424   3.812  10.450
80308W        W50908  36.751  31.171   3.319
80309W        W50909  40.119  12.358   4.261
80310W        W50910  18.971  19.283   0.942
80311W        W50911  12.181  32.683  13.503
80312W        W50912  25.764   7.602  12.603
80313W        W50913  15.795  35.559  13.989
80314W        W50914  23.480  25.574  12.953
80315W        W50915   1.491  30.921  14.865
80316W        W50916  38.022   3.711   3.170
80317W        W50917  19.664   5.851   2.663
80318W        W50918  14.597   5.723   2.293
80319W        W50919  11.452   2.639   2.766
80320W        W50920  19.737  26.685   3.113
80321W        W50921  25.576  20.449  11.493
80322W        W50922  30.611  24.610   0.058
80323W        W50923   9.624   2.428   2.849
80324W        W50924   3.521   4.484  12.117
80325W        W50925  39.545   1.200   3.707
80326W        W50926  12.758   0.536  11.526
80327W        W50927  41.215  15.786  10.349
80328W        W50928  12.816   1.784  14.311
80329W        W50929  22.539   0.728  13.605
80330W        W50930  30.994   1.278   4.992
80331W        W50931   0.886  33.246   2.436
80332W        W50932   1.423  24.825  10.523
80333W        W50933  18.160  34.453   2.392
80334W        W50934  41.571  17.605  14.366
80335W        W50935  18.195  37.842  12.772
80336W        W50936  42.419  19.161   3.283
80337W        W50937  22.107  14.508   3.846
80338W        W50938   0.706  43.559   2.784
80339W        W50939  39.050   4.757  14.465
80340W        W50940  39.085  13.474   1.214
80341W        W50941   6.677  37.585   3.646
80342W        W50942  25.236  21.129  12.183
80343W        W50943  26.058  28.445   0.191
80344W        W50944  32.931  20.274  12.913
80345W        W50945   2.809  19.827   3.189
80346W        W50946  16.892  21.605   0.584
80347W        W50947  36.197   1.057  13.450
80348W        W50948  25.433  17.078  11.666
80349W        W50949  29.660  10.212  13.390
80350W        W50950   2.979  28.634  12.897
80351W        W50951  41.588   6.443  10.475
80352W        W50952  43.494  38.831   1.350
80353W        W50953  16.570  30.869  13.892
80354W        W50954  35.160  16.778  12.879
80355W        W50955  10.708  31.804  10.957
80356W        W50956   7.852  20.845  13.259
80357W        W50957   0.797   1.858  10.702
80358W        W50958  14.297   5.810  12.392
80359W        W50959   5.907  32.527  13.343
80360W        W50960  36.484   8.650  10.253
80361W        W50961  32.956  19.749  12.758
80362W        W50962   7.671  34.825   1.244
80363W        W50963  31.695  20.138  10.515
80364W        W50964  41.080   7.459  12.135
80365W        W50965  20.547   5.405  11.512
80366W        W50966  21.011  20.719  14.345
80367W        W50967  27.698  28.553  12.470
80368W        W50968  21.023  33.552  14.962
80369W        W50969  44.295  38.017  10.424
80370W        W50970  37.619  37.298   0.405
80371W        W50971  16.575  41.478  11.378
80372W        W50972  20.686  39.798  11.592
80373W        W50973  17.009   1.198  12.493
80374W        W50974   2.713  13.296  11.057
80375W        W50975  33.378  38.593   3.723
80376W        W50976  21.686   5.857  12.991
80377W        W50977  17.239  30.165   1.869
80378W        W50978  44.851   5.911   4.652
80379W        W50979  40.360   9.764   3.293
80380W        W50980  38.337  10.600   1.182
80381W        W50981  13.039  10.314   4.638
80382W        W50982  21.997  11.778  13.044
80383W        W50983  28.796   9.801   2.798
80384W        W50984   4.878   7.964   4.723
80385W        W50985  20.418  29.398  11.338
80386W        W50986  29.567  21.288   2.919
80387W        W50987  28.909  15.633  10.377
80388W        W50988  17.502  39.731   1.406
80389W        W50989   0.356  39.853  14.827
80390W        W50990  10.084  24.299   1.732
80391W        W50991   3.739  32.855  11.532
80392W        W50992  41.859   4.500   2.857
80393W        W50993  14.549   5.439  12.106
80394W        W50994  14.812   3.608  11.047
80395W        W50995  40.405  17.191  10.280
80396W        W50996   7.134  12.707  13.437
80397W        W50997  22.201   6.911   1.867
80398W        W50998  22.608  44.302  12.029
80399W        W50999  15.724  38.395  12.381
80400W        W51000   4.440  16.556   4.118
80401W        W51001  25.058  30.378   4.368
80402W        W51002  17.108   4.123   2.297
80403W        W51003   0.846  25.961  11.618
80404W        W51004  39.533  41.062  14.330
80405W        W51005  22.619  20.464  13.100
80406W        W51006  12.714  35.468   3.328
80407W        W51007  19.049  13.798  10.432
80408W        W51008  17.067  26.469   1.460
80409W        W51009  18.659  12.000   2.188
80410W        W51010  10.439  16.424  12.012
80411W        W51011  44.859  41.504   0.397
80412W        W51012  11.415  32.184   0.412
80413W        W51013  30.094  18.583   2.686
80414W        W51014   8.310  19.500   3.267
80415W        W51015   8.948  32.901  12.881
80416W        W51016  14.437  41.299  13.199
80417W        W51017  14.127  14.934   3.176
80418W        W51018   6.381   1.982  12.559
80419W        W51019  19.272  30.775  13.413
80420W        W51020  34.669  22.115  10.928
80421W        W51021  26.478   6.247   0.478
80422W        W51022   9.864  20.626   3.898
80423W        W51023  31.229  42.105   5.474
80424W        W51024  37.848   4.598  11.118
80425W        W51025  35.108   7.189   2.313
80426W        W51026   0.338  26.167  12.363
80427W        W51027  28.193  29.952   3.345
80428W        W51028  30.210  17.780   4.031
80429W        W51029  23.752  35.764  12.436
80430W        W51030  10.690  32.452  10.608
80431W        W51031   2.455  11.362  13.885
80432W        W51032   1.402  30.066  14.433
80433W        W51033  42.882   1.720  13.360
80434W        W51034  10.885  23.657   2.886
80435W        W51035  32.167  16.042  13.486
80436W        W51036  29.172   3.006  10.948
80437W        W51037  14.031  38.547  12.874
80438W        W51038  14.251  21.795   1.384
80439W        W51039  12.314  34.103  13.031
80440W        W51040  25.655  24.984   4.581
80441W        W51041  20.079  11.842  12.214
80442W        W51042  25.983  40.324   2.718
80443W        W51043  12.125  21.213   4.936
80444W        W51044  28.001   2.962   2.166
80445W        W51045  44.249  10.763   2.870
80446W        W51046  25.120  32.517   4.007
80447W        W51047  34.448  22.008   2.666
80448W        W51048  28.804  39.889  11.718
80449W        W51049  23.739   6.953   0.426
80450W        W51050  32.471  44.921   4.720
80451W        W51051   7.714   4.612   1.763
80452W        W51052  17.724   9.565   4.633
80453W        W51053  17.608   5.195  10.814
80454W        W51054  19.149  31.140  10.668
80455W        W51055  44.322   3.165   4.510
80456W        W51056   4.277   8.789   3.865
80457W        W51057  37.838  25.143  14.925
80458W        W51058  24.043  26.266  10.243
80459W        W51059  43.938  21.539   2.877
80460W        W51060  22.539  37.068  13.411
80461W        W51061  11.278  40.407  13.093
80462W        W51062   0.315  12.778   0.694
80463W        W51063  35.149  10.342  14.300
80464W        W51064  36.084   6.225  12.566
80465W        W51065  13.140  29.988  13.433
80466W        W51066   5.852   9.200   4.877
80467W        W51067  11.765   8.746  10.824
80468W        W51068  12.609  42.807  13.654
80469W        W51069  11.113  18.698  14.903
80470W        W51070  31.460  11.268  11.390
80471W        W51071   1.438   3.912   2.211
80472W        W51072  33.135  41.908  10.662
80473W        W51073  37.355  22.548   3.355
80474W        W51074   1.334  11.224   4.393
80475W        W51075  38.353  36.504  14.801
80476W        W51076  21.132  43.564  11.122
80477W        W51077   3.761   6.161  12.006
80478W        W51078  35.243  23.796   2.659
80479W        W51079  18.147  17.992  10.966
80480W        W51080  39.423   1.007   0.925
80481W        W51081   2.818  15.190  10.927
80482W        W51082  13.553  18.784   3.188
80483W        W51083  37.875  25.919  13.440
80484W        W51084  23.159  30.041  12.344
80485W        W51085  42.932  22.232   3.255
80486W        W51086  19.563  40.461   2.442
80487W        W51087  15.359  27.875  14.298
80488W        W51088  29.646  16.711   3.792
80489W        W51089  35.107  33.010   1.750
80490W        W51090  29.208  29.200  11.667
80491W        W51091  35.116  37.662  13.837
80492W        W51092   1.910  16.081  13.895
80493W        W51093  38.536  20.612  12.619
80494W        W51094  34.441  15.138   4.763
80495W        W51095  44.312  21.405   1.689
80496W        W51096  30.404  18.159   2.757
80497W        W51097   9.765   8.846  14.076
80498W        W51098  26.300  38.964   2.482
80499W        W51099  30.538  40.125  14.472
80500W        W51100  22.433  30.457   3.199
80501W        W51101  33.058  38.403   0.244
80502W        W51102  31.908  12.282  11.079
80503W        W51103   0.326  40.025  13.044
80504W        W51104   1.383  15.951  13.930
80505W        W51105  36.375  36.419  11.159
80506W        W51106  11.209  42.067   0.466
80507W        W51107  32.505  28.141   2.787
80508W        W51108  41.281  34.440  14.836
80509W        W51109   9.224  41.990   3.743
80510W        W51110   4.906  17.144  12.002
80511W        W51111  35.138   8.728  14.009
80512W        W51112   6.792  12.561  14.848
80513W        W51113   8.641  24.291   4.763
80514W        W51114  29.052  38.959   1.732
80515W        W51115  19.783   9.927  10.712
80516W        W51116  15.882  28.128  10.312
80517W        W51117  16.887   0.667  11.217
80518W        W51118  15.268  20.002   1.922
80519W        W51119  16.111  43.376  12.155
80520W        W51120  17.077  18.852  11.170
80521W        W51121  23.532  27.091  14.310
80522W        W51122  14.632  34.797   1.898
80523W        W51123  24.000  33.888  14.425
80524W        W51124  28.225  31.063  13.391
80525W        W51125  35.025  27.585   3.133
80526W        W51126  32.094  43.784   3.137
80527W        W51127  29.134  33.125  12.114
80528W        W51128  36.481  44.033  14.905
80529W        W51129  31.564  36.459   3.403
80530W        W51130  11.496  28.925   4.579
80531W        W51131  38.465  38.288  14.349
80532W        W51132  17.359   1.205   1.892
80533W        W51133  23.188  43.780  14.095
80534W        W51134  42.458  13.285  13.917
80535W        W51135   4.931  33.413   1.435
80536W        W51136  38.894  21.668  11.223
80537W        W51137  28.189  17.091   3.203
80538W        W51138  12.823  39.519  10.349
80539W        W51139  33.640   4.320  11.737
80540W        W51140   0.741  13.787   4.611
80541W        W51141  37.546   9.312  12.991
80542W        W51142  31.849  29.717   1.223
80543W        W51143  24.591  24.790  13.786
80544W        W51144   2.829  40.055  11.458
80545W        W51145  39.772  38.069  14.947
80546W        W51146  30.866  18.199  14.460
80547W        W51147   2.786   6.979  13.574
80548W        W51148  24.457  27.713   4.635
80549W        W51149   6.919  28.140  14.046
80550W        W51150  17.959  37.385  12.868
80551W        W51151  17.905  35.701   4.074
80552W        W51152  31.363  31.486  11.144
80553W        W51153  15.809  25.203   2.701
80554W        W51154   2.067   2.580   2.978
80555W        W51155  18.307  13.243   1.140
80556W        W51156   1.918  21.485  11.630
80557W        W51157  39.079  17.343   1.407
80558W        W51158  25.196  40.835  14.940
80559W        W51159   3.800  41.448   4.625
80560W        W51160  44.985  20.019   0.869
80561W        W51161  23.644  44.662  14.903
80562W        W51162  42.777  30.349   0.010
80563W        W51163   0.405  21.216   0.247
80564W        W51164  44.956  23.200   4.368
80565W        W51165  28.348  40.062  11.584
80566W        W51166  36.879  23.692  14.411
80567W        W51167   6.641  21.824  13.428
80568W        W51168  26.570  18.160   4.110
80569W        W51169  38.517  36.037   1.868
80570W        W51170  28.136  12.613   4.225
80571W        W51171   4.994   5.107  12.076
80572W        W51172  11.156  16.534  12.650
80573W        W51173   9.921  39.546  12.012
80574W        W51174  32.369  42.448  12.048
80575W        W51175  15.199  17.536   0.365
80576W        W51176  32.954  38.171  12.111
80577W        W51177  18.618  28.559   4.333
80578W        W51178  37.850   2.996  12.658
80579W        W51179  37.255  41.943   2.743
80580W        W51180  29.540  44.305  10.734
80581W        W51181  36.437  34.498  13.935
80582W        W51182  37.278  40.837   0.337
80583W        W51183  26.006  31.536  12.186
80584W        W51184  36.986  40.959   0.736
80585W        W51185   6.636  27.907  14.515
80586W        W51186  37.928  33.146  11.430
80587W        W51187  20.130  24.512   2.930
80588W        W51188  35.932   5.865   1.890
80589W        W51189  17.736  29.974   4.106
80590W        W51190  39.594  29.045  11.073
80591W        W51191  28.036   5.914  14.919
80592W        W51192  21.485  41.704  12.539
80593W        W51193  34.962  30.651  13.558
80594W        W51194   0.945   3.238  13.802
80595W        W51195   0.904   8.390  13.375
80596W        W51196  23.968   6.813  12.306
80597W        W51197  26.123  15.705  10.917
80598W        W51198  37.107  35.797  10.711
80599W        W51199  16.355   7.407  13.036
80600W        W51200  14.662   9.704  11.772
80601W        W51201  16.527   9.444   0.036
80602W        W51202  35.431  21.046  12.642
80603W        W51203  25.311  30.065   0.766
80604W        W51204  23.020  35.473  12.669
80605W        W51205  36.084   7.810  11.610
80606W        W51206   5.430  44.403  10.687
80607W        W51207  31.623  29.907  12.553
80608W        W51208  11.454  15.780  11.597
80609W        W51209  11.933  31.952   0.434
80610W        W51210  10.312  11.790  12.019
80611W        W51211  30.677  13.669  14.510
80612W        W51212   2.159  18.712   0.495
80613W        W51213   9.351  15.807   1.943
80614W        W51214  28.994   4.249  13.471
80615W        W51215  36.947  30.675   1.746
80616W        W51216  12.268  43.771  13.524
80617W        W51217   4.380  11.228   0.215
80618W        W51218   1.424  25.362  10.579
80619W        W51219   5.986  13.236   4.122
80620W        W51220   1.285   4.757  11.123
80621W        W51221  20.207  24.165   1.958
80622W        W51222  27.372   5.130  14.338
80623W        W51223   9.452  19.575   4.109
80624W        W51224  16.863  25.322   2.746
80625W        W51225  37.486  30.105   3.508
80626W        W51226  39.532  16.244  12.480
80627W        W51227  38.043  43.407   3.235
80628W        W51228  11.913  21.064  14.997
80629W        W51229  10.895   4.155   1.404
80630W        W51230  23.098  16.404   1.954
80631W        W51231  18.075  21.560  10.746
80632W        W51232  34.795  28.643  13.445
80633W        W51233  23.050  28.023   2.396
80634W        W51234   3.412   5.422   1.241
80635W        W51235   3.033  41.876  12.765
80636W        W51236  27.094  17.242   3.655
80637W        W51237  18.042  15.524  12.204
80638W        W51238  36.580  19.764   0.514
80639W        W51239  40.826  34.487  12.561
80640W        W51240  27.149   9.743  14.578
80641W        W51241  39.367  10.353  12.530
80642W        W51242  36.164   3.418  13.175
80643W        W51243   7.188  24.764  11.127
80644W        W51244  37.307  10.296   3.181
80645W        W51245  22.534  18.140  13.404
80646W        W51246  40.048  26.734  12.441
80647W        W51247  25.633  10.209  13.964
80648W        W51248  14.595  35.914  14.544
80649W        W51249   5.201  21.768   1.246
80650W        W51250  13.541   4.680  12.525
80651W        W51251  11.743   8.624   1.664
80652W        W51252  28.369  44.506  14.526
80653W        W51253  31.459  26.679   2.794
80654W        W51254  19.749  44.393   0.842
80655W        W51255  41.975  15.269  12.211
80656W        W51256  21.901   8.356  12.422
80657W        W51257   3.008  21.017  14.836
80658W        W51258  25.537  39.026   9.937
80659W        W51259  14.859  35.234   5.416
80660W        W51260  26.155  13.959  11.084
80661W        W51261  15.063  19.071   1.877
80662W        W51262  26.958  39.798  11.555
80663W        W51263  22.553   7.848   0.244
80664W        W51264   2.267   9.721  13.625
80665W        W51265  19.288  31.268  13.149
80666W        W51266  15.870  29.330   4.069
80667W        W51267  44.455  24.573   1.574
80668W        W51268  34.672  33.062   2.776
80669W        W51269  28.586   8.565   1.140
80670W        W51270  31.997  44.751  14.837
80671W        W51271  31.850  39.607  12.894
80672W        W51272   8.402  31.924  13.264
80673W        W51273  10.088  13.277   0.803
80674W        W51274  31.111   1.803  12.311
80675W        W51275  31.354  18.389  14.523
80676W        W51276  36.963   5.559   1.883
80677W        W51277  15.746  43.435   1.671
80678W        W51278   0.834  27.992  11.686
80679W        W51279  12.209  26.279   3.128
80680W        W51280  12.960  36.734   1.835
80681W        W51281  43.875  25.163   3.224
80682W        W51282   5.680  36.258   2.883
80683W        W51283  39.933  36.535   2.866
80684W        W51284   7.710  40.114   1.851
80685W        W51285  24.246  41.920   2.213
80686W        W51286  23.104  40.018   3.529
80687W        W51287   0.401  28.242  10.474
80688W        W51288  11.928  43.241  12.530
80689W        W51289  10.006   6.857  14.532
80690W        W51290  16.339  15.708  13.054
80691W        W51291  31.526   3.676   1.900
80692W        W51292  44.020  16.657  11.051
80693W        W51293  10.090  43.053   1.136
80694W        W51294  28.548  29.584   1.183
80695W        W51295  15.704  41.623  14.473
80696W        W51296  42.961  34.976   3.723
80697W        W51297  14.548   4.819  13.970
80698W        W51298  21.070  25.664   4.733
80699W        W51299  32.445   0.245   4.272
80700W        W51300  25.421   3.810  13.396
80701W        W51301  27.480  19.077   0.256
80702W        W51302   7.928  40.692   1.106
80703W        W51303  24.194  43.981  13.961
80704W        W51304  10.621  12.298   4.150
80705W        W51305   0.178   9.806  14.728
80706W        W51306  21.685  23.277   2.848
80707W        W51307  19.683   7.796   4.569
80708W        W51308  21.798  41.824   0.926
80709W        W51309   3.896  15.165   1.327
80710W        W51310  12.348  13.103  11.183
80711W        W51311   9.737  35.303   0.864
80712W        W51312  43.748  17.069  11.612
80713W        W51313  11.175  25.032   0.236
80714W        W51314  14.652  20.460   0.356
80715W        W51315  25.300   4.865  11.596
80716W        W51316   3.958  30.011   4.442
80717W        W51317  19.924  28.476   3.070
80718W        W51318  26.503  19.060   2.600
80719W        W51319  24.096  42.302   2.842
80720W        W51320   1.723  16.191  10.966
80721W        W51321  35.155  11.647  14.911
80722W        W51322  25.810  22.773   4.090
80723W        W51323  12.837  24.184   3.725
80724W        W51324  39.847   2.361   0.737
80725W        W51325  24.030   6.922   5.014
80726W        W51326   8.444  26.209  13.085
80727W        W51327  36.923  18.537   4.382
80728W        W51328  17.252  23.715  11.609
80729W        W51329  42.823  35.355   0.414
80730W        W51330  22.949  21.885  14.813
80731W        W51331  33.322  44.878   4.602
80732W        W51332  27.864  31.433   0.770
80733W        W51333  21.021   6.800  12.149
80734W        W51334  36.767   1.803   4.146
80735W        W51335  18.556  43.861   0.425
80736W        W51336  42.492  21.905   0.956
80737W        W51337  32.050  43.276   0.455
80738W        W51338  26.622  10.171  13.938
80739W        W51339  28.102  27.240   2.932
80740W        W51340  41.786   9.164   3.795
80741W        W51341  42.781  35.107   2.222
80742W        W51342   6.672   1.199   2.343
80743W        W51343  24.192  43.137   0.368
80744W        W51344   3.224  44.036   3.755
80745W        W51345   3.867   4.731   2.685
80746W        W51346  40.619  43.252  12.445
80747W        W51347   6.117  39.541   4.468
80748W        W51348  12.312   0.190  13.062
80749W        W51349  29.073  10.807   0.876
80750W        W51350   1.343  26.707   0.428
80751W        W51351  31.400  18.856   1.136
80752W        W51352  33.899  37.074  11.433
80753W        W51353  43.776   7.116   4.898
80754W        W51354   1.847   9.168   3.284
80755W        W51355  21.321  33.047   0.359
80756W        W51356  33.940   5.116   4.763
80757W        W51357   0.557  20.932   1.690
80758W        W51358  32.248  34.239  13.846
80759W        W51359  22.397  31.409   0.911
80760W        W51360   9.923  23.647   1.241
80761W        W51361  40.858  10.318   2.916
80762W        W51362  32.573  33.847   3.745
80763W        W51363  19.061  19.627   4.359
80764W        W51364  29.602  16.186   1.931
80765W        W51365  10.379   1.744  14.410
80766W        W51366  11.891  27.671  14.396
80767W        W51367   3.729   8.040  14.986
80768W        W51368  27.698  39.599  13.341
80769W        W51369  32.255  13.545   1.494
80770W        W51370  42.289  10.429   3.901
80771W        W51371   3.434  23.485   2.271
80772W        W51372  10.764  23.680  13.985
80773W        W51373  34.952  18.275   0.338
80774W        W51374  13.352  31.974  10.660
80775W        W51375  33.123  21.022   1.747
80776W        W51376   0.372  28.553  13.634
80777W        W51377  14.297   0.457   4.236
80778W        W51378  27.451  15.734   5.081
80779W        W51379  31.937  36.685   0.710
80780W        W51380  36.079  41.061  12.846
80781W        W51381  16.177   2.341   0.918
80782W        W51382   4.866  13.168   3.135
80783W        W51383  27.480  42.965   1.010
80784W        W51384  43.827  15.670  10.442
80785W        W51385  20.502  18.177  12.425
80786W        W51386  14.593  34.510   2.738
80787W        W51387  43.736  44.911  11.502
80788W        W51388  11.627  37.781  12.623
80789W        W51389  43.012  44.725  10.405
80790W        W51390   1.837  24.353  12.604
80791W        W51391  12.760  27.300  14.023
80792W        W51392  26.646  43.222   0.267
80793W        W51393   0.243  29.126  12.829
80794W        W51394  34.909  29.097   3.644
80795W        W51395  35.185   3.515  14.549
80796W        W51396  15.543  30.140  14.597
80797W        W51397  40.448  40.547   3.674
80798W        W51398  19.703  36.182  11.569
80799W        W51399   5.326  38.125  14.848
80800W        W51400  24.007  12.134   5.047
80801W        W51401  10.570  11.853  13.503
80802W        W51402  18.054   0.849   0.761
80803W        W51403   1.046  42.162   4.109
80804W        W51404  36.127  18.783   4.033
80805W        W51405  41.810  38.341  10.505
80806W        W51406   1.780   9.780  10.668
80807W        W51407  17.165  13.445   1.757
80808W        W51408  39.378  20.689   1.476
80809W        W51409  31.178   3.779   4.600
80810W        W51410   6.977  34.595   0.460
80811W        W51411  10.362   0.568   0.651
80812W        W51412  22.228   6.192   1.484
80813W        W51413   6.698  12.884   3.680
80814W        W51414  19.108  43.320   2.409
80815W        W51415  22.693  33.491  12.129
80816W        W51416  37.313  34.595  12.564
80817W        W51417  27.964   1.065  13.299
80818W        W51418  29.019  13.609  12.225
80819W        W51419  41.985   5.984   3.292
80820W        W51420  33.593  29.114   4.160
80821W        W51421  39.909   0.860   4.597
80822W        W51422  44.482   1.927   0.427
80823W        W51423  38.040  25.787   2.769
80824W        W51424  29.598  30.926  12.370
80825W        W51425   5.119   0.347  11.554
80826W        W51426  44.386  40.238   2.921
80827W        W51427  20.200  43.798   3.617
80828W        W51428  17.029  18.059  11.542
80829W        W51429  20.093   3.483   3.181
80830W        W51430  11.400   3.749   0.850
80831W        W51431  21.185  24.469   3.810
80832W        W51432  23.537  25.961   0.944
80833W        W51433  42.818  44.553   2.702
80834W        W51434  38.245  12.146   0.578
80835W        W51435  22.200  26.993   1.463
80836W        W51436  44.446   0.840  13.406
80837W        W51437  24.389   6.733   3.265
80838W        W51438  12.852  36.532   0.156
80839W        W51439  43.101   4.949   0.729
80840W        W51440  36.295  30.025   2.293
80841W        W51441  20.773   3.751   3.842
80842W        W51442  40.862  36.569   3.610
80843W        W51443   4.341  20.573  13.916
80844W        W51444  20.279  43.480  13.851
80845W        W51445  21.065  14.549   2.247
80846W        W51446  34.444  33.880   4.279
80847W        W51447  31.142  15.098  10.572
80848W        W51448  40.722   8.758  11.417
80849W        W51449  43.425  18.613   4.645
80850W        W51450  11.868  25.842   3.846
80851W        W51451  41.462   4.817   2.759
80852W        W51452  25.783  18.635  14.155
80853W        W51453  23.661  43.054  11.953
80854W        W51454   9.248  41.837   0.774
80855W        W51455  38.928  38.554  14.338
80856W        W51456  21.542  40.031  12.972
80857W        W51457  39.569   3.891   1.117
80858W        W51458  36.986  23.650   4.811
80859W        W51459  39.290  30.143   3.376
80860W        W51460  10.343  15.605  13.999
80861W        W51461   9.853  16.339  13.471
80862W        W51462  35.912   7.596  13.632
80863W        W51463  16.236  23.413  13.884
80864W        W51464  15.976  10.371   2.270
80865W        W51465  44.014   4.356   0.598
80866W        W51466  26.506  12.800   1.073
80867W        W51467  19.244  36.074  11.155
80868W        W51468   0.040  27.168  11.126
80869W        W51469  20.817  40.773   2.171
80870W        W51470  34.649  17.908   0.101
80871W        W51471  44.951  29.763   3.852
80872W        W51472  14.046  28.195  14.533
80873W        W51473  21.195  12.545  11.905
80874W        W51474  25.689   2.743   0.728
80875W        W51475   2.536  29.974  13.989
80876W        W51476  40.883  18.366  11.200
80877W        W51477  12.877  43.928   0.049
80878W        W51478  28.034  35.476   4.612
80879W        W51479  18.881   1.412  11.252
80880W        W51480  15.641  12.793  12.011
80881W        W51481  35.151  34.406   1.485
80882W        W51482  25.073  37.771  14.702
80883W        W51483  39.203  11.686   5.430
80884W        W51484  26.202   6.308   3.876
80885W        W51485   9.328  38.577   2.277
80886W        W51486  26.716  24.523  12.896
80887W        W51487   7.656  41.998  13.370
80888W        W51488   4.211  36.738   0.354
80889W        W51489   3.159  36.016   3.592
80890W        W51490   8.392   5.588  12.089
80891W        W51491   9.361  10.231   0.432
80892W        W51492  23.614  26.001  12.112
80893W        W51493  26.711  44.433   2.924
80894W        W51494  12.478  12.401  14.325
80895W        W51495  44.288  37.400  13.159
80896W        W51496  33.534  14.855  13.814
80897W        W51497  31.035  43.807  10.850
80898W        W51498   2.766  30.850  11.142
80899W        W51499  26.620  11.514   2.298
80900W        W51500   3.414  32.562   2.677
80901W        W51501   3.139  14.635   1.753
80902W        W51502  11.071  19.881   3.457
80903W        W51503  41.609  20.005   0.945
80904W        W51504  13.692  34.314   3.534
80905W        W51505   2.297  24.721   2.392
80906W        W51506  24.061   5.484   0.062
80907W        W51507  16.879  37.118  13.861
80908W        W51508  26.652  18.663   3.310
80909W        W51509  43.907  22.555  12.636
80910W        W51510  11.178  13.162   3.795
80911W        W51511  32.808  26.652   1.401
80912W        W51512  17.835  27.570   0.393
80913W        W51513   5.514  27.542  11.961
80914W        W51514  24.449  40.575   4.093
80915W        W51515  17.829  16.820   2.924
80916W        W51516  19.635  22.709  14.012
80917W        W51517  37.754  12.840  13.834
80918W        W51518  18.428  21.558  11.150
80919W        W51519  37.288  37.198  10.296
80920W        W51520  40.061  14.668  12.382
80921W        W51521   5.627  32.587  13.812
80922W        W51522  20.579   0.223  10.642
80923W        W51523   6.369  11.592  13.873
80924W        W51524  29.177  29.910  11.974
80925W        W51525  42.365  29.736  12.972
80926W        W51526  41.402   6.874   3.257
80927W        W51527  25.755   5.458  13.373
80928W        W51528  36.449  13.881   2.361
80929W        W51529  15.573  13.268  13.693
80930W        W51530   1.470  13.337   3.570
80931W        W51531   9.455  37.331  10.635
80932W        W51532  31.886  24.503   0.901
80933W        W51533   4.328  40.576  12.397
80934W        W51534   8.221  24.401   4.146
80935W        W51535  20.951  19.943  13.486
80936W        W51536  27.357   1.781   1.881
80937W        W51537  32.206  43.253  11.024
80938W        W51538   7.012  18.858  12.885
80939W        W51539  32.992  16.794   2.090
80940W        W51540  32.079  34.308   2.277
80941W        W51541  16.061  33.180  12.386
80942W        W51542  34.503  26.246   0.504
80943W        W51543  40.794  20.783  11.083
80944W        W51544  24.680  33.130  12.416
80945W        W51545  13.542  11.184   2.836
80946W        W51546  43.374   0.371   3.734
80947W        W51547   5.666  11.109  14.013
80948W        W51548  12.965   4.365  11.102
80949W        W51549  28.518  28.686   2.783
80950W        W51550   1.283   5.450  12.526
80951W        W51551  24.682  17.565   1.310
80952W        W51552   1.830  13.304   3.170
80953W        W51553  24.800  43.420  12.698
80954W        W51554  34.113  15.824  11.157
80955W        W51555  11.808  34.503   4.381
80956W        W51556  15.624  42.658   3.701
80957W        W51557  28.996  15.514   3.409
80958W        W51558  15.095  37.746  13.259
80959W        W51559  34.436  10.071   2.384
80960W        W51560   8.316  37.107  12.695
80961W        W51561  27.734  35.319  12.489
80962W        W51562  31.012  44.761  11.483
80963W        W51563   5.749   1.058   0.647
80964W        W51564   3.391  22.967   2.361
80965W        W51565   1.659  37.909  12.772
80966W        W51566   7.774  42.615   1.137
80967W        W51567  39.138  34.060   3.980
80968W        W51568   7.834   2.440   4.614
80969W        W51569  25.121  13.875  13.054
80970W        W51570  14.833   8.339  11.460
80971W        W51571  38.273  36.090   2.885
80972W        W51572  34.006  25.673   1.876
80973W        W51573  38.544   4.725   0.266
80974W        W51574  19.111  16.151  13.932
80975W        W51575  42.618   4.938  14.489
80976W        W51576   7.112  42.162   2.338
80977W        W51577  14.383   4.305  11.563
80978W        W51578  43.602  13.602  14.308
80979W        W51579  12.474  41.947   3.381
80980W        W51580   2.384  38.845  13.868
80981W        W51581   0.722  23.106  13.393
80982W        W51582  35.501   9.334   0.710
80983W        W51583  17.806  19.194   4.036
80984W        W51584  21.239   2.447  11.694
80985W        W51585  41.936  18.444  10.117
80986W        W51586  36.796  24.419   0.774
80987W        W51587   7.176  42.185  13.497
80988W        W51588  34.887  43.011   1.439
80989W        W51589  28.198  26.988   0.881
80990W        W51590  23.402  42.249   0.828
80991W        W51591  16.551  34.847   0.473
80992W        W51592  11.925  39.935   1.467
80993W        W51593  12.137  14.914   3.779
80994W        W51594   0.444   6.709   1.387
80995W        W51595  38.415  26.572   3.734
80996W        W51596  28.601  23.148  13.510
80997W        W51597  30.750  33.475   0.338
80998W        W51598  23.013  44.745   1.824
80999W        W51599  15.877   2.752   0.920
81000W        W51600  12.861   8.642  14.474
81001W        W51601  10.772  35.672  11.605
81002W        W51602  26.185   1.744  11.080
81003W        W51603  42.569  11.920   0.677
81004W        W51604  34.058   4.331  12.035
81005W        W51605  22.619  33.719   4.853
81006W        W51606  20.967   2.984   3.319
81007W        W51607  40.980   0.445   3.703
81008W        W51608  15.812  24.657  10.618
81009W        W51609  40.291  21.689  12.387
81010W        W51610  21.555  30.728   4.203
81011W        W51611  18.334  11.300   0.543
81012W        W51612  37.753   3.250   0.731
81013W        W51613  12.767  26.001  12.550
81014W        W51614  30.083  37.655   1.959
81015W        W51615  41.936  15.080   3.333
81016W        W51616  10.854  42.815  11.411
81017W        W51617   5.776   2.984   4.121
81018W        W51618   5.400  22.337  11.062
81019W        W51619  38.301  20.255  12.929
81020W        W51620  10.210  26.871  11.279
81021W        W51621  20.303   3.650  13.049
81022W        W51622   2.961  36.108   3.143
81023W        W51623   2.789  19.198   3.916
81024W        W51624   4.063  28.528   0.615
81025W        W51625  19.890   6.122   0.420
81026W        W51626  20.582  16.325  13.026
81027W        W51627   2.894  32.392  11.169
81028W        W51628  37.008  12.006  12.782
81029W        W51629  24.620   9.049   3.246
81030W        W51630   7.713   5.768   0.926
81031W        W51631  16.397  11.065   3.266
81032W        W51632   4.317  19.885  13.393
81033W        W51633  16.362  29.037   2.710
81034W        W51634  44.730  29.187   0.964
81035W        W51635  21.148   6.784   4.726
81036W        W51636  35.921   8.229   0.739
81037W        W51637  28.179  22.203  10.119
81038W        W51638  15.914  23.239   2.758
81039W        W51639  12.168  41.467   1.980
81040W        W51640  13.223  40.481  13.093
81041W        W51641  40.563  41.128   0.729
81042W        W51642  15.307  24.819   3.694
81043W        W51643   9.186  28.541  12.792
81044W        W51644  42.034  38.940   3.725
81045W        W51645   0.697   9.153  14.349
81046W        W51646   7.216   7.320  13.957
81047W        W51647  29.980  14.083  12.027
81048W        W51648   2.679  34.084  13.563
81049W        W51649  35.210  27.400   1.748
81050W        W51650  30.538  21.356  13.854
81051W        W51651   6.701  21.231  14.207
81052W        W51652   1.437  24.024  12.590
81053W        W51653  25.022  34.731   1.057
81054W        W51654  19.853  30.726   2.754
81055W        W51655   2.515  32.900   9.811
81056W        W51656  20.348  36.009  14.363
81057W        W51657  35.057  42.908   2.872
81058W        W51658  28.139  28.982   1.196
81059W        W51659  28.637  37.819   0.259
81060W        W51660  21.672  35.425  13.911
81061W        W51661  27.392  22.767   4.316
81062W        W51662  29.098  22.537  10.438
81063W        W51663   5.925  21.723   2.532
81064W        W51664  26.568  38.555   2.652
81065W        W51665  36.475   4.855   1.954
81066W        W51666  13.821  37.103   4.699
81067W        W51667  14.257  21.506   0.914
81068W        W51668  18.640  22.514  10.355
81069W        W51669  30.609  24.723   2.719
81070W        W51670   1.014   5.288   2.066
81071W        W51671  33.110  16.704  11.021
81072W        W51672  42.583  37.965   3.605
81073W        W51673  17.818  35.501   3.354
81074W        W51674  18.578  18.128   1.707
81075W        W51675   9.497  16.395  12.446
81076W        W51676  24.066  29.906  11.008
81077W        W51677  24.597  25.082  13.343
81078W        W51678  14.328  32.368   2.297
81079W        W51679  21.031  41.830   3.177
81080W        W51680  38.352   8.725   4.221
81081W        W51681   4.165   2.496  13.349
81082W        W51682  36.229  35.984  11.583
81083W        W51683  19.132  41.858  14.257
81084W        W51684  10.302  26.080   4.134
81085W        W51685   2.402  36.755  12.855
81086W        W51686  10.080  37.225   5.216
81087W        W51687  12.092   1.265  14.870
81088W        W51688  30.975  37.379  14.391
81089W        W51689  33.255   2.758   2.199
81090W        W51690   6.760  10.304   4.476
81091W        W51691  40.939  31.340   0.823
81092W        W51692   7.435  11.008  11.175
81093W        W51693  39.990  23.993   4.989
81094W        W51694  20.483   4.908   3.250
81095W        W51695  18.273  34.998  11.625
81096W        W51696  33.206   6.770  14.764
81097W        W51697  14.075  13.055  13.770
81098W        W51698  10.619  21.098   1.197
81099W        W51699  44.499  38.121   1.987
81100W        W51700  30.095  21.788   1.167
81101W        W51701  21.298  33.995  13.866
81102W        W51702  11.787  38.883   1.382
81103W        W51703  39.074  31.788   1.753
81104W        W51704  37.278  27.430   4.390
81105W        W51705  24.946  40.039   3.138
81106W        W51706  42.085  42.065  12.653
81107W        W51707  23.409  41.374  13.846
81108W        W51708   7.013  39.192   2.867
81109W        W51709  12.168   1.856   0.231
81110W        W51710  20.746   8.239  11.689
81111W        W51711   5.607  21.214   3.629
81112W        W51712  40.750  15.901   3.686
81113W        W51713  24.282  42.002  12.929
81114W        W51714  41.547  27.154   1.450
81115W        W51715  40.823   2.370   0.460
81116W        W51716   2.280  26.558   0.932
81117W        W51717  40.097  40.529  12.436
81118W        W51718  40.571   3.615   9.879
81119W        W51719  25.395  25.684  11.548
81120W        W51720  19.163  32.585  10.739
81121W        W51721  16.634   1.180  14.976
81122W        W51722  11.257  36.614   0.327
81123W        W51723  21.434  38.913  13.993
81124W        W51724   5.122  10.450  10.218
81125W        W51725   8.467  42.993  14.804
81126W        W51726   8.330  39.363   2.086
81127W        W51727  33.581  40.865   1.722
81128W        W51728  16.207   8.209   0.882
81129W        W51729  30.217  43.962   3.622
81130W        W51730  35.513  27.199  13.571
81131W        W51731  15.936  44.748   4.566
81132W        W51732  37.371  26.991   4.105
81133W        W51733  13.585  32.271   2.758
81134W        W51734  36.849  21.769  14.561
81135W        W51735  23.225  37.701   2.395
81136W        W51736  21.042  43.527  13.809
81137W        W51737  37.926  18.011  11.903
81138W        W51738   8.435  11.602  12.960
81139W        W51739  29.163  31.478  12.049
81140W        W51740  18.806  27.442  13.583
81141W        W51741  32.562  17.690   1.727
81142W        W51742  34.943  29.730  14.360
81143W        W51743  38.591  24.950   3.710
81144W        W51744   5.949   8.274  14.773
81145W        W51745  26.414  27.138   0.885
81146W        W51746  11.645  33.382   3.380
81147W        W51747  16.745  30.042   1.776
81148W        W51748  15.800  21.509   5.007
81149W        W51749  34.578   9.377  14.529
81150W        W51750   1.559  11.694  13.771
81151W        W51751  37.515  27.020  13.108
81152W        W51752  23.566  32.043   2.857
81153W        W51753  18.715  28.154  14.123
81154W        W51754  37.336  13.075  13.600
81155W        W51755  16.189   0.014   2.948
81156W        W51756   1.713  43.883  10.805
81157W        W51757  44.428  13.289  12.154
81158W        W51758  37.093  32.776   1.052
81159W        W51759   1.509   7.926  12.098
81160W        W51760   3.219  30.135  14.758
81161W        W51761  33.495  19.145   5.072
81162W        W51762  27.009   0.669   3.708
81163W        W51763  40.013  40.023  12.470
81164W        W51764  10.989   3.948   1.873
81165W        W51765   0.916  43.722   0.878
81166W        W51766  20.793  11.212   3.672
81167W        W51767  42.320  38.415  10.574
81168W        W51768  21.284   3.792   3.844
81169W        W51769  12.616  43.404  14.288
81170W        W51770   2.040  30.916  11.233
81171W        W51771   0.360   3.488  12.683
81172W        W51772  24.650   2.044  14.367
81173W        W51773  43.302  15.199   2.867
81174W        W51774   2.886  10.583   3.537
81175W        W51775  38.451  27.610  10.832
81176W        W51776  37.142  20.986  11.705
81177W        W51777  33.613  14.933  11.621
81178W        W51778  42.443  38.861  13.826
81179W        W51779  38.019  13.773  14.781
81180W        W51780  27.292  16.245   3.804
81181W        W51781  31.501  14.138  12.806
81182W        W51782  14.233  34.759   4.694
81183W        W51783   5.536  12.192   3.700
81184W        W51784  27.092   8.146  12.050
81185W        W51785  23.674  33.072   0.822
81186W        W51786  39.344  36.477  14.432
81187W        W51787  39.261  11.217   2.791
81188W        W51788  16.500  16.541  12.118
81189W        W51789  22.135  43.393   3.622
81190W        W51790  32.909  32.954   1.205
81191W        W51791  39.188   3.069  11.702
81192W        W51792  21.230  26.111  13.364
81193W        W51793  24.793  34.469  12.564
81194W        W51794  37.590  19.198   2.318
81195W        W51795  33.412  23.557  11.163
81196W        W51796   4.824  34.817  14.720
81197W        W51797  44.719  39.642  11.274
81198W        W51798  26.760  15.568  12.053
81199W        W51799  12.366   9.255  10.630
81200W        W51800   2.208  16.762   1.794
81201W        W51801   2.777  14.558   0.831
81202W        W51802  14.888  12.895   2.986
81203W        W51803   6.808  30.438   0.999
81204W        W51804   7.961  34.408   2.259
81205W        W51805  13.497  41.200   3.250
81206W        W51806   7.512  27.853   3.629
81207W        W51807  20.705  21.037  13.050
81208W        W51808  30.509   4.173  12.408
81209W        W51809  12.622   1.299   3.122
81210W        W51810  14.490  36.024  13.092
81211W        W51811  22.371  10.806  14.654
81212W        W51812  32.622  32.853   3.704
81213W        W51813  29.405  30.914   3.828
81214W        W51814  16.074  36.936   0.530
81215W        W51815  29.138  11.673  12.033
81216W        W51816  36.999  36.796   4.062
81217W        W51817  14.828  22.608   2.917
81218W        W51818  17.730  44.863  12.564
81219W        W51819  25.703  34.480   4.839
81220W        W51820  28.533   1.010   0.020
81221W        W51821  24.446  34.137  11.567
81222W        W51822  42.530  42.066   4.142
81223W        W51823  36.503  15.786  14.979
81224W        W51824   5.200  14.676   1.955
81225W        W51825  21.185  41.959  12.179
81226W        W51826  31.703  21.787  14.617
81227W        W51827  10.983  16.697  13.102
81228W        W51828  43.767  19.743   0.454
81229W        W51829   4.724  10.445  11.093
81230W        W51830  10.959  33.640   1.314
81231W        W51831  24.664   2.797  10.709
81232W        W51832  25.960  10.526   2.762
81233W        W51833  32.515  13.356   1.936
81234W        W51834  16.994  44.760  11.152
81235W        W51835  27.524  19.450  13.338
81236W        W51836   4.303   3.658   1.330
81237W        W51837  32.754  16.296  10.983
81238W        W51838  20.619  41.557   0.304
81239W        W51839   5.369  40.966   4.733
81240W        W51840  29.418  23.998   3.164
81241W        W51841  16.083   8.785   3.143
81242W        W51842  27.948  33.459  10.438
81243W        W51843  39.970  31.524  13.327
81244W        W51844  20.060  22.362   1.166
81245W        W51845  15.296  15.882   3.314
81246W        W51846  38.199  36.991  14.846
81247W        W51847  41.959  26.680  12.505
81248W        W51848  27.487  44.915   2.717
81249W        W51849  32.395  41.019   0.201
81250W        W51850  40.268   9.214   1.777
81251W        W51851  12.941  29.215  11.660
81252W        W51852   4.788  18.557   2.744
81253W        W51853  22.727  17.363   2.858
81254W        W51854  32.117  21.803  12.755
81255W        W51855  43.836  30.155  14.886
81256W        W51856  44.947  42.620  12.686
81257W        W51857  13.318  27.978   1.751
81258W        W51858   1.537  18.800   4.817
81259W        W51859   6.938  20.189  12.056
81260W        W51860  37.849  24.453   0.001
81261W        W51861  10.298   9.072  10.677
81262W        W51862  32.434   8.053   2.773
81263W        W51863  29.167  33.949  12.220
81264W        W51864  44.438  15.234   2.728
81265W        W51865  15.749   8.377   3.705
81266W        W51866  14.070   7.129   4.197
81267W        W51867  39.250   4.799  11.461
81268W        W51868  11.919   8.872   4.197
81269W        W51869  34.302  27.569  10.698
81270W        W51870  14.654  16.961   1.862
81271W        W51871  19.202  10.664   0.506
81272W        W51872  17.814  29.488  14.386
81273W        W51873   9.633  35.875   1.875
81274W        W51874  23.972  40.820   4.783
81275W        W51875  13.749  35.578   1.354
81276W        W51876  24.689  35.867   0.495
81277W        W51877  30.633  26.323   2.328
81278W        W51878  15.730  33.525   1.234
81279W        W51879  28.081   0.765   0.909
81280W        W51880  42.411  43.525  13.553
81281W        W51881  29.218  21.017  12.134
81282W        W51882  11.669  31.609   2.287
81283W        W51883  17.276  43.488  11.180
81284W        W51884  24.137  33.653   3.310
81285W        W51885  13.780  22.177  11.144
81286W        W51886  14.244  21.170  12.851
81287W        W51887  37.868  43.230   0.772
81288W        W51888  40.488  39.783   4.270
81289W        W51889  39.341  24.078  12.998
81290W        W51890   6.165  32.462  10.308
81291W        W51891  22.511  20.118   1.883
81292W        W51892  43.794  22.664  14.924
81293W        W51893  28.448  38.489  13.021
81294W        W51894  10.264  38.253   2.405
81295W        W51895  17.523  20.540   1.365
81296W        W51896  42.399  22.433  14.791
81297W        W51897  38.983  27.472  12.037
81298W        W51898   5.405  15.520   3.848
81299W        W51899  26.730  40.024   0.875
81300W        W51900  38.415  41.024  14.732
81301W        W51901  35.375  12.892   2.814
81302W        W51902  31.151   3.293  10.147
81303W        W51903  28.171  31.037  12.460
81304W        W51904  19.184  32.074   1.574
81305W        W51905  23.262  18.658  11.047
81306W        W51906  14.858   7.769   1.889
81307W        W51907   9.598   7.009  12.497
81308W        W51908  42.353  41.033  12.510
81309W        W51909  13.138  24.944   2.392
81310W        W51910  29.116   4.424   0.978
81311W        W51911  39.865  34.025  11.777
81312W        W51912  36.309  28.605   0.492
81313W        W51913  43.952  24.781   4.562
81314W        W51914  26.206  30.731  11.169
81315W        W51915  37.999  12.541  12.923
81316W        W51916  35.463  27.529   4.603
81317W        W51917  20.807   6.681  14.433
81318W        W51918   1.921  12.955   0.871
81319W        W51919  30.896  19.039   3.662
81320W        W51920  19.243  24.643   1.747
81321W        W51921  31.189  16.594   3.670
81322W        W51922  44.877  24.073   0.965
81323W        W51923  40.750   4.635   2.642
81324W        W51924  28.664  11.997  13.056
81325W        W51925  19.002   6.223   4.365
81326W        W51926  21.999   7.949  12.082
81327W        W51927  27.536  26.004  10.624
81328W        W51928  22.519  35.105  14.472
81329W        W51929  20.023  15.587  12.944
81330W        W51930  39.827  40.744  12.850
81331W        W51931  39.517  14.661  10.621
81332W        W51932  21.030   2.118  11.367
81333W        W51933  28.792  13.762  14.371
81334W        W51934   1.257  14.724  13.063
81335W        W51935  20.544  24.183   0.987
81336W        W51936   4.934   0.898  10.686
81337W        W51937  42.358   0.027  13.529
81338W        W51938  26.626   3.110  13.854
81339W        W51939  11.269  42.248  10.895
81340W        W51940  29.963  35.664   3.546
81341W        W51941  29.899  35.168   3.562
81342W        W51942  31.444  34.665  13.955
81343W        W51943  32.583   5.847   4.244
81344W        W51944  22.791  36.306  10.395
81345W        W51945  35.483  23.771  13.518
81346W        W51946  18.298   0.661  10.881
81347W        W51947  26.272   9.917   4.621
81348W        W51948  13.566   9.663  13.103
81349W        W51949  39.404  35.171  11.596
81350W        W51950  30.563  34.578  12.867
81351W        W51951  34.435  38.312  10.966
81352W        W51952  31.405   2.389   1.427
81353W        W51953  27.067  43.186   4.551
81354W        W51954  22.328  37.360   3.590
81355W        W51955  15.287   6.795  12.938
81356W        W51956  22.089  37.410  10.328
81357W        W51957  38.375  42.378  12.754
81358W        W51958  13.879   1.482  11.954
81359W        W51959   8.905  13.309   2.244
81360W        W51960  38.766  42.172   0.848
81361W        W51961  18.759   0.415  10.705
81362W        W51962   0.975  32.575  13.055
81363W        W51963   8.512   8.731  11.953
81364W        W51964  37.519  18.855   4.063
81365W        W51965  37.227  15.256  14.865
81366W        W51966  42.318  31.998   3.245
81367W        W51967  16.239  41.545   3.608
81368W        W51968  36.949   3.290   4.138
81369W        W51969   9.181  29.113   3.302
81370W        W51970  13.041  43.204  11.888
81371W        W51971  31.180  15.662  13.102
81372W        W51972  41.028  20.174  12.496
81373W        W51973  34.605   4.397   3.827
81374W        W51974  39.958   7.724  12.295
81375W        W51975   9.765  33.735  14.258
81376W        W51976  41.414  28.593   1.472
81377W        W51977   5.873  22.705   2.330
81378W        W51978   5.020  31.483   3.243
81379W        W51979   1.301  41.269  11.202
81380W        W51980  44.074  33.678  11.450
81381W        W51981  41.288  37.341  14.551
81382W        W51982   8.292  37.898  11.255
81383W        W51983   6.767  22.467  12.259
81384W        W51984  24.632  31.582  13.259
81385W        W51985  12.808  27.164  11.130
81386W        W51986  27.006  38.260  11.481
81387W        W51987   1.256  12.180  14.021
81388W        W51988  16.469  11.968   2.719
81389W        W51989   3.814  27.700   0.993
81390W        W51990  42.784  28.449  12.415
81391W        W51991  18.133   8.094  13.887
81392W        W51992  13.812   5.336   1.976
81393W        W51993  12.025  44.929   1.829
81394W        W51994  10.953  18.861  13.537
81395W        W51995  40.662  38.372  13.951
81396W        W51996   1.839  13.963  12.072
81397W        W51997  16.096   7.857  12.932
81398W        W51998  14.116   3.269  12.779
81399W        W51999   5.928  11.855   5.076
81400W        W52000  24.052   7.999   3.609
81401W        W52001  31.537   2.774  12.648
81402W        W52002   7.133  40.988  12.308
81403W        W52003  36.349  21.153  13.495
81404W        W52004  31.158  23.017  14.490
81405W        W52005  19.175  20.507   3.681
81406W        W52006  25.655  15.885   4.081
81407W        W52007  19.283   3.385  10.705
81408W        W52008  37.840  35.577  14.028
81409W        W52009  20.480  24.362  11.111
81410W        W52010  32.638  35.068  13.354
81411W        W52011   9.107  10.796  10.942
81412W        W52012   7.644  12.656  13.447
81413W        W52013  22.981  39.499   2.421
81414W        W52014  17.021  43.884  14.332
81415W        W52015  33.471  27.541   2.752
81416W        W52016  27.770  26.576  11.188
81417W        W52017  17.271  21.871   3.289
81418W        W52018   4.182   1.316   4.052
81419W        W52019   1.215   5.008   3.287
81420W        W52020  28.625  10.176   1.243
81421W        W52021  24.935   6.240   2.625
81422W        W52022   8.348  29.094  14.006
81423W        W52023  15.018  25.647   3.160
81424W        W52024  26.102  11.800   4.351
81425W        W52025   8.082  31.564  11.163
81426W        W52026  32.612  31.522  11.492
81427W        W52027  19.809  43.049  14.023
81428W        W52028  40.058  30.824   1.447
81429W        W52029  15.279  41.532  14.203
81430W        W52030  23.103  33.548   3.099
81431W        W52031  40.747  25.982   0.770
81432W        W52032   6.750  19.229  10.910
81433W        W52033  21.619  23.596   4.161
81434W        W52034  12.329  38.389   3.764
81435W        W52035  11.141  29.323   0.371
81436W        W52036  27.083  26.615   3.759
81437W        W52037  25.580   6.145  11.525
81438W        W52038  26.897  25.664   1.839
81439W        W52039   8.449  18.412  12.059
81440W        W52040  30.443  27.917   0.397
81441W        W52041  38.912  15.709  11.879
81442W        W52042   0.862   8.318   3.017
81443W        W52043  12.262  20.738  13.007
81444W        W52044  32.692  26.469  12.468
81445W        W52045  37.518  28.726   3.362
81446W        W52046   6.655   2.956  13.911
81447W        W52047  37.921  24.402   1.258
81448W        W52048  43.003   3.913   1.749
81449W        W52049   6.975  30.926  13.648
81450W        W52050  24.153  26.907   5.010
81451W        W52051  17.677  27.903   0.025
81452W        W52052  34.433   1.142   2.793
81453W        W52053  15.558  28.390   1.428
81454W        W52054   0.271  23.738  12.951
81455W        W52055   3.005   2.937   4.265
81456W        W52056  25.528  22.761   1.345
81457W        W52057  34.825   8.736  13.161
81458W        W52058  35.385  12.786  14.968
81459W        W52059  30.157  14.132   1.802
81460W        W52060  27.286  43.432   2.285
81461W        W52061  14.149  42.589   0.231
81462W        W52062  34.071  33.519  13.271
81463W        W52063  15.155  10.101  11.694
81464W        W52064   2.923  34.792   1.902
81465W        W52065   0.276   6.406   1.794
81466W        W52066  36.564   5.494   3.178
81467W        W52067  25.278   7.795  11.876
81468W        W52068   2.673  36.889   0.660
81469W        W52069  20.403   7.232   9.855
81470W        W52070  27.123  39.047   0.321
81471W        W52071  23.172  36.830   4.569
81472W        W52072  16.508  26.370   3.296
81473W        W52073  14.210  41.744  10.318
81474W        W52074   0.275  13.892  12.909
81475W        W52075  36.984  23.111   2.750
81476W        W52076  14.742   9.657   0.227
81477W        W52077  28.130  28.259  12.906
81478W        W52078   3.666  25.229   1.909
81479W        W52079  42.043   1.464   2.357
81480W        W52080  16.609   3.973  12.493
81481W        W52081   1.825   2.221   1.586
81482W        W52082  29.482  26.554  13.824
81483W        W52083  20.077  21.837   1.914
81484W        W52084  17.209  13.472  12.995
81485W        W52085   1.241  28.409  14.754
81486W        W52086  31.352  10.399  11.859
81487W        W52087  16.987  23.586   1.495
81488W        W52088  32.448   8.307   0.219
81489W        W52089   9.499   6.827   4.895
81490W        W52090   4.169  14.249  10.520
81491W        W52091  15.810  11.748   2.390
81492W        W52092   5.116  38.282  13.959
81493W        W52093   0.574  20.332  14.794
81494W        W52094  10.207   4.230  11.305
81495W        W52095  31.120  22.452   1.600
81496W        W52096  40.094   7.823   4.770
81497W        W52097  13.672  32.476  14.758
81498W        W52098  39.749   6.900  12.175
81499W        W52099  28.077  38.991   3.645
81500W        W52100  23.072  13.985   3.588
81501W        W52101  37.905  28.966  12.501
81502W        W52102  16.763   4.185  12.053
81503W        W52103  21.264   1.960  11.857
81504W        W52104  38.533   5.679   0.219
81505W        W52105  22.636  28.266   2.807
81506W        W52106  20.790   9.281  12.919
81507W        W52107  39.508  37.989  14.447
81508W        W52108  18.715  32.176   1.373
81509W        W52109  43.421  19.762   4.133
81510W        W52110  17.937  23.225  14.419
81511W        W52111  28.140  13.167  12.362
81512W        W52112  16.538   4.638   1.642
81513W        W52113   8.591  28.961   0.898
81514W        W52114  10.179   9.804   9.945
81515W        W52115   2.183  14.356  10.313
81516W        W52116  40.305  33.907  10.927
81517W        W52117   7.885  22.714  13.615
81518W        W52118   5.964   8.880  13.412
81519W        W52119  32.531  33.901   1.793
81520W        W52120   3.833  39.566   2.564
81521W        W52121   8.790   3.225  14.549
81522W        W52122   4.331  44.511  14.520
81523W        W52123  27.982  31.798  12.927
81524W        W52124  34.254   5.836  13.833
81525W        W52125  26.424  13.425   2.930
81526W        W52126  36.811  26.904  10.550
81527W        W52127   1.963  26.546  12.835
81528W        W52128  43.071   0.516   4.665
81529W        W52129  42.586  16.282  13.931
81530W        W52130   9.253  27.631  14.282
81531W        W52131  44.459  29.991  11.571
81532W        W52132  36.423  33.562  14.403
81533W        W52133  39.396  24.545   2.217
81534W        W52134  29.507  37.386   1.226
81535W        W52135   4.968   7.889  11.947
81536W        W52136   6.831  13.092  13.965
81537W        W52137  38.876  10.258  13.565
81538W        W52138   6.336  25.518   3.483
81539W        W52139  24.701   3.974  14.315
81540W        W52140  44.870  18.289   3.740
81541W        W52141  28.482   7.718   3.069
81542W        W52142   0.947   5.654   3.923
81543W        W52143  33.178  33.501  10.336
81544W        W52144  38.373  27.956   3.165
81545W        W52145  33.559  25.417   2.452
81546W        W52146  33.889   2.027   0.929
81547W        W52147  16.179   9.344   4.444
81548W        W52148  32.216  28.000   0.876
81549W        W52149  39.915  38.816  14.279
81550W        W52150  15.279   1.223   2.709
81551W        W52151   9.824   3.243   3.878
81552W        W52152  17.287  38.860   0.046
81553W        W52153  18.154  34.361   0.282
81554W        W52154  26.582   8.728  12.380
81555W        W52155  39.716  31.802   3.229
81556W        W52156  38.483  29.328  14.450
81557W        W52157  31.486   9.734   0.887
81558W        W52158  27.440  29.925  14.918
81559W        W52159   0.569   3.434   3.145
81560W        W52160  26.374   8.860   0.758
81561W        W52161  13.347  17.302  12.908
81562W        W52162   9.231   7.919  14.341
81563W        W52163   5.145  37.549  13.493
81564W        W52164   0.990  22.225   2.148
81565W        W52165  24.737  25.235   2.591
81566W        W52166  23.938   5.700  10.740
81567W        W52167  27.757  18.223  11.181
81568W        W52168  12.058  30.637   3.778
81569W        W52169   8.277  25.195  14.518
81570W        W52170  33.125  27.991   0.885
81571W        W52171   3.207  14.663  12.650
81572W        W52172  25.587  24.721  14.388
81573W        W52173  40.825  32.087   2.605
81574W        W52174   1.304  33.837  13.192
81575W        W52175  31.950  34.697  13.862
81576W        W52176  35.826  42.952   4.000
81577W        W52177   9.111  24.485  12.918
81578W        W52178  16.894  19.249  12.184
81579W        W52179   2.433  27.232  13.863
81580W        W52180  21.021  42.191  13.161
81581W        W52181  19.135  38.504  13.867
81582W        W52182  27.159  37.855  11.138
81583W        W52183  12.242   3.309   2.643
81584W        W52184  43.208  29.242  14.919
81585W        W52185  17.472   5.395  11.847
81586W        W52186  41.045  20.175   2.878
81587W        W52187  38.822  20.028  12.667
81588W        W52188  29.071  10.161   3.686
81589W        W52189  32.744  25.721   2.714
81590W        W52190  43.691  16.852   0.762
81591W        W52191  32.555  22.833  13.594
81592W        W52192  29.187   3.175   4.961
81593W        W52193  39.664  42.947  13.016
81594W        W52194   9.626   9.850   1.803
81595W        W52195  38.621   5.809   2.665
81596W        W52196   4.971  23.973   1.427
81597W        W52197  16.311  41.063  13.026
81598W        W52198  38.978  32.200   3.595
81599W        W52199  32.172  11.806   0.815
81600W        W52200  29.729   6.395  12.622
81601W        W52201  30.101  30.845   2.629
81602W        W52202  10.279  24.943  14.782
81603W        W52203  28.889  36.479  13.091
81604W        W52204  29.009  32.311  14.946
81605W        W52205  29.775  29.490   3.207
81606W        W52206  32.181   4.107   3.162
81607W        W52207  34.888  17.889   2.706
81608W        W52208  16.124  27.622  12.971
81609W        W52209  34.401  34.201  13.117
81610W        W52210  36.834  16.065  10.730
81611W        W52211  38.852  10.305  12.501
81612W        W52212   7.704  35.403   2.412
81613W        W52213   9.176  20.063  11.613
81614W        W52214  24.002  14.435  13.501
81615W        W52215   8.847  21.987   3.076
81616W        W52216  23.142  14.199   4.428
81617W        W52217   0.421  11.931   4.712
81618W        W52218  17.028  31.744   1.421
81619W        W52219  35.545  34.333   1.132
81620W        W52220  27.175  23.935  10.430
81621W        W52221  10.908  29.930   3.803
81622W        W52222   0.327  32.133  13.055
81623W        W52223  42.416  12.286  13.949
81624W        W52224  22.384  32.052   3.469
81625W        W52225  15.372  29.537   4.059
81626W        W52226  29.658  32.075  14.913
81627W        W52227   6.917   0.973  11.649
81628W        W52228   0.957   2.514  14.986
81629W        W52229  42.391  29.085  13.538
81630W        W52230  17.870  10.804  13.914
81631W        W52231  39.957   5.642   0.404
81632W        W52232   8.793  34.831  14.433
81633W        W52233  33.940  42.319   4.621
81634W        W52234  10.932  16.661  11.397
81635W        W52235  32.993  20.183   2.961
81636W        W52236  23.599  17.053   4.727
81637W        W52237  18.135   0.163   4.268
81638W        W52238  16.071  28.745  12.066
81639W        W52239  32.851  28.032   1.868
81640W        W52240   6.247  14.125  13.279
81641W        W52241  19.221  27.671   3.716
81642W        W52242  32.504  32.610   1.279
81643W        W52243  24.731  38.274  11.952
81644W        W52244   7.875  23.573  11.975
81645W        W52245  10.301  43.310  11.978
81646W        W52246  35.480  26.211  14.818
81647W        W52247   2.979  19.122  11.191
81648W        W52248   7.712  14.319   2.797
81649W        W52249  40.682  34.066  14.357
81650W        W52250  43.409  17.606  14.326
81651W        W52251  26.897  42.927  12.880
81652W        W52252  20.238   6.873   3.033
81653W        W52253  16.691  23.461   1.884
81654W        W52254   8.483  24.156  12.425
81655W        W52255  24.210  21.453   0.059
81656W        W52256   9.763  32.178  10.630
81657W        W52257   5.643  41.023  12.615
81658W        W52258  36.987  38.528  14.563
81659W        W52259  26.550   9.187   3.095
81660W        W52260  23.342   5.158  14.467
81661W        W52261  15.077  25.952   1.723
81662W        W52262  42.251  20.684  14.789
81663W        W52263  36.070  16.835  10.710
81664W        W52264  17.372  27.755  11.559
81665W        W52265   4.711  11.874   0.082
81666W        W52266  32.970   9.420  13.386
81667W        W52267  25.655  43.369  12.301
81668W        W52268  31.095   8.913   2.118
81669W        W52269  22.914  13.044  13.499
81670W        W52270   2.885   0.691   1.881
81671W        W52271  38.594  17.184  10.972
81672W        W52272  34.680  25.497  13.189
81673W        W52273   8.274  44.646   4.894
81674W        W52274   9.780  42.964   2.215
81675W        W52275  23.508  25.658  14.085
81676W        W52276  16.762  16.198  13.419
81677W        W52277   0.183  11.336  14.055
81678W        W52278   6.216  27.462   2.929
81679W        W52279   5.376  41.385   0.674
81680W        W52280  27.539  26.450   0.842
81681W        W52281  33.593  38.124   3.646
81682W        W52282  14.437  29.464  11.644
81683W        W52283  17.679  19.300   4.539
81684W        W52284  11.926  14.763  12.481
81685W        W52285  25.946   3.403  11.990
81686W        W52286  12.091  41.236  14.511
81687W        W52287  22.442  36.580  11.960
81688W        W52288  40.989  37.100   0.405
81689W        W52289   1.943   7.309   2.872
81690W        W52290  34.114  32.202   0.061
81691W        W52291  44.072  22.577   0.352
81692W        W52292  26.502   4.286  12.004
81693W        W52293   9.400  25.006   1.714
81694W        W52294  18.830  25.868   0.378
81695W        W52295  20.498  35.883  10.908
81696W        W52296  18.630  18.644  12.396
81697W        W52297  22.803  18.099   3.310
81698W        W52298  14.822  17.257   3.197
81699W        W52299  23.664  27.564   3.738
81700W        W52300  44.781  35.892  10.751
81701W        W52301  27.994  26.563   0.649
81702W        W52302  13.741   3.009   0.835
81703W        W52303  37.320  41.382  11.629
81704W        W52304  40.039   2.784  12.589
81705W        W52305  12.708  18.521  11.037
81706W        W52306  11.089  30.963   4.178
81707W        W52307  41.480  19.029   3.229
81708W        W52308   0.745  23.932   3.168
81709W        W52309  11.204  44.997  12.386
81710W        W52310  26.598  35.618   0.283
81711W        W52311  17.967  42.392   3.818
81712W        W52312  34.395  44.836   1.613
81713W        W52313  25.535  41.587  13.934
81714W        W52314  13.888  20.488   2.231
81715W        W52315  15.680  17.575   0.164
81716W        W52316  18.381  11.296   4.169
81717W        W52317  31.018   6.863   2.882
81718W        W52318  36.842  11.195   0.310
81719W        W52319  29.758  24.641  14.706
81720W        W52320  19.532  40.539   1.932
81721W        W52321  17.820   6.783   1.391
81722W        W52322  12.100   2.958  14.069
81723W        W52323  19.608  25.846  14.918
81724W        W52324   6.841  36.089  14.643
81725W        W52325  22.008   1.761   0.258
81726W        W52326  22.280   0.736  11.551
81727W        W52327  42.381   5.732  13.394
81728W        W52328  30.391  26.551   3.693
81729W        W52329  37.469   6.080   0.839
81730W        W52330   5.243  26.107  11.130
81731W        W52331  12.402   5.271  14.383
81732W        W52332   3.256   9.578   5.003
81733W        W52333  32.771  16.300  14.948
81734W        W52334  35.874  15.202  11.140
81735W        W52335  36.400  34.519   0.926
81736W        W52336  30.530  26.281   1.299
81737W        W52337  22.374   4.446  13.809
81738W        W52338   6.674  32.923   1.272
81739W        W52339   5.259  36.817  11.604
81740W        W52340   5.767  10.798   2.029
81741W        W52341  12.290  20.194  11.258
81742W        W52342  32.425  35.670  11.000
81743W        W52343  19.056  34.868   0.002
81744W        W52344  40.367  25.644  10.925
81745W        W52345  29.231  22.607   4.357
81746W        W52346  43.701   1.777   1.765
81747W        W52347  27.251  23.046  14.260
81748W        W52348  32.481  17.311   2.798
81749W        W52349  21.779   0.500   0.283
81750W        W52350  39.976   1.611  11.697
81751W        W52351  34.789  37.353  14.555
81752W        W52352  28.376  16.776   1.612
81753W        W52353  21.053   5.898   4.215
81754W        W52354  11.086  14.696  12.934
81755W        W52355  13.196  18.123  12.001
81756W        W52356  18.073  23.974   2.401
81757W        W52357   9.346   8.198   2.406
81758W        W52358  25.958   6.114   1.770
81759W        W52359  37.612  25.742   3.284
81760W        W52360  35.522   4.898  13.562
81761W        W52361  39.510  15.605   1.925
81762W        W52362  32.860  44.732   0.756
81763W        W52363   6.323   5.126  10.949
81764W        W52364  39.933  40.247  13.448
81765W        W52365  36.619  12.651  12.877
81766W        W52366   1.060   5.117  14.746
81767W        W52367  43.900   6.944   3.065
81768W        W52368   7.660   0.951   3.269
81769W        W52369   9.397  25.524  14.772
81770W        W52370   3.485  34.861  11.652
81771W        W52371  24.737   7.171  13.322
81772W        W52372  27.397  13.299  10.604
81773W        W52373  10.729  10.656  11.964
81774W        W52374  41.244  22.509  11.490
81775W        W52375  14.070  11.928  12.475
81776W        W52376  44.385   2.652  12.459
81777W        W52377  35.380   2.074   0.936
81778W        W52378   6.433  13.159   1.827
81779W        W52379  13.551  43.858  11.626
81780W        W52380  22.704   9.937   3.612
81781W        W52381   7.832  16.117   2.235
81782W        W52382  29.926  10.117   2.776
81783W        W52383  26.242  13.375  14.536
81784W        W52384   5.353  24.615  11.030
81785W        W52385  17.657   1.006   4.906
81786W        W52386  30.136  28.462   1.723
81787W        W52387   3.337   5.418  10.675
81788W        W52388  27.308   0.365   1.862
81789W        W52389  30.619  14.776   4.526
81790W        W52390  33.176  40.597   0.680
81791W        W52391  21.973   1.169  12.583
81792W        W52392  23.571  36.492   3.759
81793W        W52393   6.326  32.134  14.500
81794W        W52394  24.080   4.407   1.679
81795W        W52395  42.267  15.695   0.953
81796W        W52396  20.273  13.116   2.752
81797W        W52397   6.348  24.432   2.727
81798W        W52398  31.864   0.307  12.616
81799W        W52399  17.171   3.895   3.226
81800W        W52400  37.828  32.207   1.055
81801W        W52401  20.484   3.878   4.339
81802W        W52402  31.846  37.430  10.902
81803W        W52403  32.896   6.469  11.693
81804W        W52404  31.580  37.744  13.924
81805W        W52405  44.604  27.334  10.348
81806W        W52406  38.948  12.230  10.771
81807W        W52407  29.617  26.183  12.011
81808W        W52408  36.085  28.466   4.510
81809W        W52409  34.938  13.277   3.680
81810W        W52410  11.890  32.909  12.994
81811W        W52411   7.269  27.049  13.415
81812W        W52412   7.757   0.829  14.036
81813W        W52413   8.464  11.030   4.085
81814W        W52414  25.108  34.673   2.397
81815W        W52415  39.897   0.445   3.118
81816W        W52416  12.655  10.233  13.578
81817W        W52417  19.979  22.611   3.746
81818W        W52418  13.058   0.781  13.626
81819W        W52419  12.389  36.502   4.758
81820W        W52420  26.181  32.455   3.228
81821W        W52421  10.771   8.442   0.967
81822W        W52422   8.293  38.560   1.211
81823W        W52423   8.596   9.440  11.809
81824W        W52424  10.686  14.338   2.768
81825W        W52425  40.796  17.127   1.967
81826W        W52426  32.039  42.582  14.374
81827W        W52427  19.752  44.854  10.045
81828W        W52428  29.876  12.252   4.516
81829W        W52429  39.419  24.064   1.279
81830W        W52430  28.515  25.642  14.768
81831W        W52431  21.819  30.940   2.245
81832W        W52432   3.926   3.722   1.741
81833W        W52433  31.660  20.297  14.964
81834W        W52434  15.974  38.598  14.948
81835W        W52435  21.511  25.034   1.760
81836W        W52436   1.370  36.018  12.468
81837W        W52437  25.957  18.195  10.633
81838W        W52438  29.462  16.158   2.491
81839W        W52439  12.320  25.999  14.656
81840W        W52440  13.380  33.643  14.623
81841W        W52441  17.327   1.230   0.298
81842W        W52442  17.720  40.089  11.844
81843W        W52443  41.021  14.958  12.498
81844W        W52444  15.067  35.020   1.654
81845W        W52445  10.066  24.978   1.061
81846W        W52446   4.400  42.330   2.843
81847W        W52447  34.042   5.469   1.858
81848W        W52448  12.393  12.228  12.436
81849W        W52449  24.879   3.356  14.099
81850W        W52450  39.664   0.786  11.116
81851W        W52451   2.770  32.550  12.919
81852W        W52452  16.241  38.513   2.224
81853W        W52453  24.905   2.894   0.394
81854W        W52454  14.738   6.345   0.820
81855W        W52455  12.862   4.315  14.275
81856W        W52456  37.853  33.545   2.343
81857W        W52457  20.591   5.158  14.391
81858W        W52458  43.846  16.551   0.361
81859W        W52459  41.046   3.806   3.288
81860W        W52460  19.089  12.537  14.474
81861W        W52461  18.445  40.188  14.932
81862W        W52462  30.041   3.401  10.920
81863W        W52463   4.921  31.760   2.265
81864W        W52464  21.460  17.175  11.273
81865W        W52465  27.685   4.832   1.883
81866W        W52466  21.120   1.700  12.433
81867W        W52467  40.310  34.536   1.254
81868W        W52468  19.767   9.869   1.251
81869W        W52469  18.102  37.060  13.367
81870W        W52470  15.196  19.646  12.314
81871W        W52471   1.024  10.817  14.055
81872W        W52472  32.014  41.714   2.305
81873W        W52473   3.853  23.182   2.260
81874W        W52474  34.649  29.992   1.884
81875W        W52475   1.466  39.675   1.700
81876W        W52476   0.349  31.956  13.544
81877W        W52477  31.816   3.523  10.233
81878W        W52478  43.208  37.775   5.034
81879W        W52479   9.260  42.262   3.313
81880W        W52480   1.066  28.087  13.414
81881W        W52481   0.316  22.839   4.007
81882W        W52482  36.018  13.400   1.589
81883W        W52483  43.573  24.695  11.994
81884W        W52484  41.630  19.163   0.660
81885W        W52485   4.604  15.000  14.794
81886W        W52486  18.990  33.620   4.193
81887W        W52487  34.101   9.944  11.140
81888W        W52488  34.536  20.795  12.560
81889W        W52489  17.010  29.515  11.668
81890W        W52490  11.438  22.749   2.845
81891W        W52491  34.410  23.035   0.804
81892W        W52492  16.617  36.652   3.202
81893W        W52493  12.044  41.835   4.247
81894W        W52494  22.133  23.896   3.585
81895W        W52495  35.750  22.977   4.860
81896W        W52496  20.349  35.430  10.647
81897W        W52497  42.211  25.381  12.096
81898W        W52498  10.716  36.698  13.575
81899W        W52499   3.383  15.230  14.392
81900W        W52500   5.205  24.682   3.648
81901W        W52501  25.704  33.360  14.892
81902W        W52502   8.380  21.030  13.993
81903W        W52503  43.985  16.144   3.663
81904W        W52504  21.739  10.980  11.087
81905W        W52505  28.223  36.165   0.799
81906W        W52506  19.255  28.314   5.613
81907W        W52507  37.614  29.526  11.465
81908W        W52508   4.186  26.005   2.322
81909W        W52509  16.307  33.964   3.271
81910W        W52510  31.389  17.655   0.726
81911W        W52511  17.815   6.626  14.100
81912W        W52512  28.705  42.980   1.257
81913W        W52513  37.019  18.088  13.850
81914W        W52514  24.147  37.678   3.170
81915W        W52515  13.833  11.334  14.098
81916W        W52516  22.075   2.892  12.972
81917W        W52517   2.798  32.888  13.355
81918W        W52518  43.190   0.193  11.134
81919W        W52519  35.330  44.453   3.234
81920W        W52520  32.133  28.114  14.336
81921W        W52521  11.526   1.036   4.127
81922W        W52522  26.043   0.280   1.242
81923W        W52523  27.737  41.595  13.483
81924W        W52524   3.458  17.129  14.040
81925W        W52525  32.572  30.186  12.068
81926W        W52526  15.125  21.058  12.644
81927W        W52527  43.254   2.808   3.195
81928W        W52528  35.118  36.464   2.737
81929W        W52529  15.607  26.116  13.929
81930W        W52530  22.168  11.373   2.683
81931W        W52531   1.420  27.298   3.079
81932W        W52532   3.658  30.141  10.497
81933W        W52533  37.309  39.209   2.139
81934W        W52534  30.862  13.891   4.180
81935W        W52535  32.102  42.341   4.065
81936W        W52536   8.835  15.756   0.687
81937W        W52537  27.449  44.240   3.375
81938W        W52538  35.676  40.109   2.409
81939W        W52539  33.437   2.289   0.244
81940W        W52540  12.273   2.491   3.254
81941W        W52541  41.659  39.922   2.400
81942W        W52542  26.915  32.186   3.821
81943W        W52543  27.513  10.356   3.765
81944W        W52544  38.067  18.365   4.510
81945W        W52545  38.822  34.438   1.133
81946W        W52546  39.357  34.235   2.799
81947W        W52547  14.590   0.489  13.010
81948W        W52548  40.924  36.618   2.149
81949W        W52549  36.580  37.824  11.404
81950W        W52550  32.319   5.411   4.202
81951W        W52551  17.587  41.219  13.105
81952W        W52552  24.025  43.214  11.637
81953W        W52553  33.636  31.166   3.865
81954W        W52554  20.046  43.418   2.208
81955W        W52555  43.782  38.550   0.463
81956W        W52556  31.874  42.668  11.539
81957W        W52557  12.107  24.178   2.330
81958W        W52558   8.355  28.186  14.086
81959W        W52559  26.801  19.054   3.598
81960W        W52560  30.192  38.364  13.951
81961W        W52561  20.191  19.358  13.013
81962W        W52562  34.365  42.545   0.465
81963W        W52563  18.617  10.013  10.068
81964W        W52564   6.780  23.579  10.810
81965W        W52565  22.179  37.897  12.630
81966W        W52566   9.695  10.921   4.436
81967W        W52567  11.772  36.678   2.210
81968W        W52568  28.953   3.887  10.695
81969W        W52569  18.326  20.329  13.406
81970W        W52570  41.510  25.748   3.912
81971W        W52571  40.938   4.707   3.570
81972W        W52572  37.219  44.826  13.941
81973W        W52573  31.934  16.738  11.530
81974W        W52574  18.311  31.994  12.103
81975W        W52575  41.825  21.610   2.113
81976W        W52576   0.168  44.487   4.111
81977W        W52577  39.550  42.298  12.386
81978W        W52578   6.009  31.417   3.487
81979W        W52579  42.945  12.762   3.405
81980W        W52580   9.287  18.058   0.162
81981W        W52581  40.245  20.365   3.341
81982W        W52582  18.780  28.952   4.044
81983W        W52583  14.664   9.658  10.765
81984W        W52584  12.714  23.102   3.849
81985W        W52585  44.487  11.267   3.117
81986W        W52586  34.910   6.834  11.554
81987W        W52587  26.039  40.078  14.476
81988W        W52588  13.941  34.622  10.946
81989W        W52589  40.360   7.592   0.900
81990W        W52590   1.832  30.128   2.874
81991W        W52591  25.529  13.947   4.532
81992W        W52592  38.785  10.871   3.752
81993W        W52593  42.749   0.454  11.027
81994W        W52594   7.846  18.307   0.053
81995W        W52595  10.789  25.394   0.390
81996W        W52596  15.355  40.081  14.442
81997W        W52597  17.890  17.547   3.578
81998W        W52598  33.403  16.812   2.980
81999W        W52599   7.381  31.221   3.709
82000W        W52600   7.418  27.082   0.342
82001W        W52601  42.748  12.785   0.780
82002W        W52602  39.372  17.365  12.438
82003W        W52603  37.422  17.098  14.129
82004W        W52604   5.479  41.984  13.355
82005W        W52605  30.381  19.695   2.363
82006W        W52606  19.714  43.013  12.007
82007W        W52607   9.318  26.490  10.671
82008W        W52608  35.657  42.510  13.864
82009W        W52609   2.731  15.639  11.157
82010W        W52610  32.585   5.674   2.785
82011W        W52611  23.557  26.502  12.640
82012W        W52612  18.257  33.126  13.019
82013W        W52613   7.778  20.325  13.284
82014W        W52614  40.105   6.143   3.272
82015W        W52615   9.648   3.777   0.727
82016W        W52616  26.438   9.179  13.506
82017W        W52617  14.112  41.432   4.622
82018W        W52618  32.851  29.865   1.391
82019W        W52619  28.377  32.071   0.283
82020W        W52620  41.347  11.791  11.927
82021W        W52621   6.270   0.418   5.018
82022W        W52622  15.819  18.753   0.544
82023W        W52623   3.909  26.146   3.304
82024W        W52624  30.949  30.991  11.944
82025W        W52625  38.999  21.541  11.696
82026W        W52626  23.981   4.757  10.700
82027W        W52627   6.265   9.156  11.954
82028W        W52628  13.061  13.932   1.305
82029W        W52629   3.752  16.506   1.845
82030W        W52630  17.132  39.341   3.699
82031W        W52631  27.298  17.634  14.425
82032W        W52632   8.045  44.205   0.840
82033W        W52633  17.297  18.997  12.400
82034W        W52634  15.736  16.209   0.394
82035W        W52635  41.658  15.687   2.729
82036W        W52636   7.230  37.524   4.774
82037W        W52637  32.843   7.675  12.045
82038W        W52638   4.751  17.515   0.728
82039W        W52639   2.889  27.163  12.644
82040W        W52640  30.636  41.868   2.584
82041W        W52641  28.633   9.856  11.532
82042W        W52642  12.789  26.761   3.859
82043W        W52643  18.650  26.241   4.445
82044W        W52644  21.827  13.162   3.823
82045W        W52645  30.201  35.477   1.352
82046W        W52646  32.830  44.861   3.185
82047W        W52647   2.429  35.370  12.975
82048W        W52648  33.098   8.978  13.002
82049W        W52649  32.182  33.724  13.022
82050W        W52650   2.423   8.178   0.425
82051W        W52651  37.282  26.550   0.341
82052W        W52652  14.256  42.763   0.862
82053W        W52653  10.340  33.561   3.681
82054W        W52654  33.493  31.197  10.680
82055W        W52655  10.139  39.509   1.339
82056W        W52656  35.578  37.321   4.251
82057W        W52657  16.154  32.910   1.262
82058W        W52658  23.411  22.106  11.554
82059W        W52659  39.010  20.289   2.164
82060W        W52660  16.554  33.324  14.477
82061W        W52661  25.191  44.763   1.166
82062W        W52662  39.679  42.807   4.501
82063W        W52663  33.768  11.150   4.930
82064W        W52664  15.355  17.666  11.932
82065W        W52665  24.079  19.500  14.341
82066W        W52666  22.318  18.181   5.074
82067W        W52667  33.255  38.919   2.104
82068W        W52668  18.334   5.411   1.933
82069W        W52669   5.788   7.181  14.419
82070W        W52670   5.228  41.105  10.568
82071W        W52671  42.279  22.568  13.938
82072W        W52672  31.879  19.204  12.159
82073W        W52673  37.981  31.695   1.144
82074W        W52674   8.556   8.769   2.163
82075W        W52675  30.688  21.190   1.576
82076W        W52676  19.996  15.268  12.541
82077W        W52677   1.845  42.881   0.682
82078W        W52678  32.990  42.326   0.789
82079W        W52679   7.823  12.172   1.400
82080W        W52680  37.450  37.038  14.368
82081W        W52681  38.419  13.158  13.580
82082W        W52682  19.641   6.469  10.353
82083W        W52683  32.424  19.336  12.377
82084W        W52684  38.019  11.621  14.438
82085W        W52685   8.820  17.795  13.941
82086W        W52686  20.267  15.186  13.140
82087W        W52687   4.843   3.726   3.680
82088W        W52688  41.285  21.644  14.576
82089W        W52689   3.575  21.143   1.289
82090W        W52690  19.924  22.642   2.393
82091W        W52691   7.457  24.666   3.208
82092W        W52692  34.491  35.968  12.382
82093W        W52693  17.802  19.132  12.197
82094W        W52694  13.181  26.167   1.199
82095W        W52695  18.479  29.699  11.590
82096W        W52696  44.388  33.895   3.046
82097W        W52697  28.521  38.052   3.390
82098W        W52698  35.950  25.988  11.157
82099W        W52699  13.180   0.453  14.506
82100W        W52700   8.271  24.644  12.409
82101W        W52701   7.902  27.925   1.347
82102W        W52702  40.449   6.947   3.382
82103W        W52703   1.231  31.163   1.407
82104W        W52704   6.156   2.889  14.149
82105W        W52705  38.358  18.086   4.175
82106W        W52706  24.437  25.492   0.777
82107W        W52707  10.353   5.421  13.784
82108W        W52708  31.612  23.012  12.966
82109W        W52709  15.415  42.480  11.402
82110W        W52710   6.133  24.240  14.819
82111W        W52711  14.834   2.173   2.866
82112W        W52712  34.184  37.994  11.556
82113W        W52713  21.237  25.445   3.300
82114W        W52714  14.881  20.996  10.341
82115W        W52715  17.872  35.334  13.148
82116W        W52716  18.096  31.790  12.515
82117W        W52717  21.773   8.935  11.669
82118W        W52718  24.277  11.695   4.132
82119W        W52719  33.604  29.132   2.404
82120W        W52720  40.450  44.005   2.979
82121W        W52721  10.819   5.946   1.715
82122W        W52722  10.180  35.590   0.762
82123W        W52723  13.648  29.170  10.661
82124W        W52724   5.812   0.478  12.079
82125W        W52725  10.689  26.999   1.915
82126W        W52726   0.837  21.281  10.964
82127W        W52727  16.952   3.294   3.815
82128W        W52728  10.562  24.843  12.109
82129W        W52729   1.592  41.945   2.798
82130W        W52730  33.509   7.651   4.702
82131W        W52731  26.218  37.940   4.833
82132W        W52732  10.929  19.628  10.971
82133W        W52733  32.867  24.036   2.217
82134W        W52734  44.449   9.025   0.920
82135W        W52735  24.022  42.611   4.184
82136W        W52736  32.964   8.951   1.805
82137W        W52737  19.261  10.217  14.385
82138W        W52738  22.504  21.960  11.369
82139W        W52739  25.191  18.702   1.355
82140W        W52740  38.513  20.341  10.624
82141W        W52741   5.890  13.640   0.780
82142W        W52742  41.897   8.918   3.367
82143W        W52743   0.582  14.999  11.628
82144W        W52744  16.304  32.595   3.205
82145W        W52745  18.191   2.945   2.434
82146W        W52746  29.906  19.560  11.441
82147W        W52747  19.556  36.330   0.805
82148W        W52748  42.918  21.947  11.212
82149W        W52749  30.486   4.751   1.098
82150W        W52750   8.100  38.921   2.278
82151W        W52751  31.433  19.067   3.774
82152W        W52752   3.372  27.635   4.117
82153W        W52753  12.096  23.699   2.129
82154W        W52754  34.177  33.060   2.669
82155W        W52755  34.747   8.780   5.037
82156W        W52756  17.349   1.535  13.576
82157W        W52757  20.960   8.999  11.563
82158W        W52758   9.769  32.638  10.388
82159W        W52759  29.150   4.353  10.531
82160W        W52760   6.330  13.621  11.939
82161W        W52761  29.033  37.899  14.928
82162W        W52762   8.920  17.019   1.350
82163W        W52763  36.954  38.699   3.352
82164W        W52764  34.598  12.050  12.890
82165W        W52765  24.261  31.541   2.688
82166W        W52766  12.338  36.233   1.424
82167W        W52767  18.500   9.810  14.565
82168W        W52768  41.250  40.713   1.885
82169W        W52769  41.973  33.731   5.263
82170W        W52770  11.726  27.262   2.038
82171W        W52771  12.549  22.515   1.658
82172W        W52772  31.538   0.354  13.593
82173W        W52773  21.711  13.669   3.815
82174W        W52774  37.814  26.000  11.393
82175W        W52775  22.697  18.132  14.832
82176W        W52776   6.440  38.058   3.529
82177W        W52777  24.698  16.049   4.625
82178W        W52778   7.741  44.119  10.315
82179W        W52779  33.885  37.447  10.632
82180W        W52780  14.822  15.197   2.968
82181W        W52781  13.763  33.228  11.015
82182W        W52782  29.921  24.140   3.380
82183W        W52783  38.104  20.622  12.355
82184W        W52784  10.942  27.757  13.928
82185W        W52785  17.650  26.082   2.168
82186W        W52786  28.924  42.394  14.075
82187W        W52787   8.091  36.444   4.497
82188W        W52788  43.067  21.043  14.264
82189W        W52789   1.850   3.579   1.489
82190W        W52790   5.709  11.215   1.276
82191W        W52791  14.879   0.227   4.827
82192W        W52792   3.916  34.966   3.649
82193W        W52793  10.247   4.991  11.831
82194W        W52794  44.291  17.682   2.603
82195W        W52795  42.645  13.036   4.961
82196W        W52796  11.666   6.707   0.557
82197W        W52797  15.375  35.383   2.363
82198W        W52798   3.391  38.538  14.561
82199W        W52799  29.557  33.695   1.734
82200W        W52800  43.822   5.318  13.879
82201W        W52801  39.577  12.642   2.258
82202W        W52802   1.295  42.226   4.909
82203W        W52803  38.061  39.037  11.142
82204W        W52804  29.573  18.554  14.469
82205W        W52805  33.171   7.264  12.017
82206W        W52806   9.992  18.956  12.582
82207W        W52807  34.036  31.116   4.864
82208W        W52808  24.144  37.080  12.605
82209W        W52809  44.050  40.908   4.896
82210W        W52810   7.631   0.847   1.021
82211W        W52811  17.579  20.081   1.825
82212W        W52812  13.679  35.053  14.982
82213W        W52813  41.367  37.467   2.302
82214W        W52814   5.149  22.570   4.618
82215W        W52815  12.077  32.977  14.953
82216W        W52816  16.756  34.462  13.804
82217W        W52817  28.067  19.583  13.766
82218W        W52818   0.861  16.210  12.049
82219W        W52819  15.098  28.607   2.643
82220W        W52820  39.695  36.294   4.357
82221W        W52821  11.358   9.349  14.756
82222W        W52822   9.713  33.105   4.831
82223W        W52823  12.243  41.033  13.563
82224W        W52824  40.524  42.583   0.468
82225W        W52825  44.196  30.486   0.065
82226W        W52826  25.455   4.595  13.800
82227W        W52827   8.100  35.732   2.311
82228W        W52828  17.243  18.581  12.680
82229W        W52829   1.018  19.547  13.700
82230W        W52830  12.725  32.829  10.718
82231W        W52831  35.647   3.193   3.801
82232W        W52832  19.839  34.534   4.182
82233W        W52833  18.550   6.917  14.441
82234W        W52834  25.173   7.811  10.446
82235W        W52835  27.913  34.420  12.111
82236W        W52836   6.780  38.416  13.982
82237W        W52837  34.166  10.758  11.487
82238W        W52838  19.320  23.507  13.879
82239W        W52839  24.685  10.844  12.136
82240W        W52840  40.581  20.579  13.849
82241W        W52841  24.607  39.525   4.165
82242W        W52842   0.871  14.499  10.508
82243W        W52843  11.438  14.595  12.488
82244W        W52844   2.384  37.491  13.472
82245W        W52845  19.464  17.602  14.466
82246W        W52846  38.064  34.593  11.170
82247W        W52847  40.934  17.674  14.020
82248W        W52848  44.868  29.626   4.341
82249W        W52849  41.895  36.566   3.634
82250W        W52850  33.560   1.318   4.958
82251W        W52851  43.556  35.865   3.726
82252W        W52852  40.844  16.345   2.707
82253W        W52853  41.561   8.686   4.173
82254W        W52854   8.092  14.861  12.707
82255W        W52855   5.776  23.624  10.813
82256W        W52856  38.816  31.847  14.317
82257W        W52857   1.484  14.805   0.247
82258W        W52858  36.120  22.763   2.210
82259W        W52859   8.857  36.286   4.112
82260W        W52860   2.984  39.941  12.427
82261W        W52861  10.895  20.453   3.652
82262W        W52862  21.158  42.307   3.017
82263W        W52863  12.767   3.652  14.964
82264W        W52864  42.725  22.681  12.058
82265W        W52865  19.499  10.219   4.345
82266W        W52866  24.371  41.286  12.089
82267W        W52867   3.698  41.028   3.176
82268W        W52868  23.750   6.260  11.232
82269W        W52869  24.590  26.873   0.730
82270W        W52870   3.551   5.908   4.646
82271W        W52871  31.532  13.194   4.470
82272W        W52872  25.010  11.734   0.417
82273W        W52873  24.028  34.298  14.788
82274W        W52874  11.090  16.295   3.358
82275W        W52875  38.573  44.860   2.135
82276W        W52876   8.919   2.904   2.685
82277W        W52877  42.979  10.636   0.939
82278W        W52878  37.002   3.707   3.185
82279W        W52879   2.023   4.484  12.104
82280W        W52880  42.485  11.774  13.952
82281W        W52881  18.828  39.572  12.443
82282W        W52882   3.441  38.931   1.355
82283W        W52883  20.219  31.178   3.083
82284W        W52884  43.347  23.113  13.824
82285W        W52885   1.755   7.235   0.035
82286W        W52886   7.108  13.832  14.888
82287W        W52887  13.110  12.121   3.056
82288W        W52888  21.070  17.427  11.576
82289W        W52889   8.959  21.125   4.149
82290W        W52890   4.169  27.400  12.520
82291W        W52891  20.063  41.271   3.205
82292W        W52892  24.482  31.110   1.752
82293W        W52893  44.834  33.537   0.755
82294W        W52894  19.971  11.448   3.258
82295W        W52895  43.489  29.966   2.193
82296W        W52896  17.026   4.812   0.415
82297W        W52897   1.434  42.038  14.699
82298W        W52898   9.773  37.372   0.360
82299W        W52899  29.949  22.680   4.217
82300W        W52900  34.645  20.269  11.617
82301W        W52901  16.639  35.420  13.417
82302W        W52902  10.262  34.254  10.447
82303W        W52903   0.002  13.756  14.280
82304W        W52904  40.774  40.868  11.401
82305W        W52905   3.746  44.716  10.763
82306W        W52906   9.013  23.933   4.638
82307W        W52907   0.277  16.991   3.601
82308W        W52908  26.219  34.605   4.153
82309W        W52909  15.481   1.109  14.520
82310W        W52910  19.734  40.277  11.470
82311W        W52911  12.870  15.904   0.988
82312W        W52912  41.800   1.733  12.019
82313W        W52913   2.526  40.504   0.005
82314W        W52914  12.153  41.872  11.520
82315W        W52915   0.489  44.088   4.657
82316W        W52916   2.765  42.953  14.360
82317W        W52917  27.827  36.036   2.251
82318W        W52918   6.759  18.370  14.304
82319W        W52919  30.055  34.436  12.820
82320W        W52920   0.139  11.393   3.890
82321W        W52921  18.478  18.094   3.189
82322W        W52922  20.863  11.888  14.265
82323W        W52923  28.147   2.222   1.431
82324W        W52924  43.850  25.024   1.278
82325W        W52925  17.838  27.936  11.754
82326W        W52926  27.500  37.807   1.456
82327W        W52927  43.246  21.820  12.426
82328W        W52928  22.736  27.233  11.155
82329W        W52929  39.862  10.336  13.400
82330W        W52930  24.081   5.881   2.891
82331W        W52931  40.584  16.685   1.708
82332W        W52932   1.303  13.358   2.151
82333W        W52933  26.259  31.674  14.485
82334W        W52934  40.472  15.476  10.754
82335W        W52935  38.326   8.813   2.746
82336W        W52936  26.971  42.419  12.985
82337W        W52937  36.892  17.612  10.799
82338W        W52938  23.028  25.740   4.538
82339W        W52939  18.075  23.598   3.096
82340W        W52940   1.991  40.313   1.963
82341W        W52941  12.251  30.969  11.073
82342W        W52942  35.652  41.120   2.830
82343W        W52943  34.001   6.313   1.350
82344W        W52944  38.821  29.068   4.318
82345W        W52945  30.013  41.456   3.794
82346W        W52946  40.774  21.163  10.267
82347W        W52947  12.367  42.215  12.658
82348W        W52948  40.736  29.762   3.429
82349W        W52949  13.611  14.737  13.749
82350W        W52950  33.341  44.032  10.735
82351W        W52951  18.451  23.575   4.037
82352W        W52952   2.967  16.627   3.641
82353W        W52953   9.303  26.097   4.691
82354W        W52954  37.100  12.400  13.126
82355W        W52955  43.783  38.931   1.880
82356W        W52956  22.119   8.843   3.129
82357W        W52957  10.091  38.966   1.342
82358W        W52958   2.488  10.686   4.249
82359W        W52959  28.041  21.199   4.538
82360W        W52960  11.707  29.993   4.372
82361W        W52961  31.034  24.260  11.717
82362W        W52962  27.961  11.744  12.968
82363W        W52963  28.520  26.491   0.812
82364W        W52964  32.601   0.678   1.896
82365W        W52965   0.839   8.779   0.765
82366W        W52966  29.519  13.782  12.123
82367W        W52967  42.401  42.848   2.760
82368W        W52968  41.020  31.597   1.256
82369W        W52969  20.883  42.901   2.296
82370W        W52970  15.569  33.975   2.414
82371W        W52971   7.700  39.528  10.905
82372W        W52972  44.475  25.621   4.632
82373W        W52973   7.339  19.025  14.354
82374W        W52974  21.757  32.132   1.200
82375W        W52975  14.435  27.900   2.334
82376W        W52976  18.458  27.084  14.014
82377W        W52977   6.383  37.604   0.896
82378W        W52978  44.493  12.674  13.492
82379W        W52979  34.945  30.424  11.633
82380W        W52980   5.976  27.581  11.715
82381W        W52981  43.466   9.424  14.427
82382W        W52982   9.349  39.746   9.976
82383W        W52983  21.295  42.290   3.517
82384W        W52984  18.176   8.391   4.169
82385W        W52985   8.448  19.008   0.063
82386W        W52986  23.995  25.190   0.931
82387W        W52987   7.174  11.705  10.662
82388W        W52988  41.332   4.725   0.421
82389W        W52989  26.481   8.244   4.640
82390W        W52990  44.938  36.317   4.699
82391W        W52991  42.594  30.676  12.761
82392W        W52992  24.677  27.039  13.353
82393W        W52993  40.350  21.600   0.152
82394W        W52994  42.974   4.167   2.291
82395W        W52995  13.259  32.340   0.405
82396W        W52996  26.138  26.496   3.937
82397W        W52997  41.911  12.242  10.841
82398W        W52998  11.397   5.673   0.779
82399W        W52999  24.110  37.209   1.280
82400W        W53000  38.513  18.089   1.188
82401W        W53001  39.214  42.909  10.291
82402W        W53002  25.980  27.954   1.853
82403W        W53003   7.838  38.660  11.046
82404W        W53004  27.133  17.778  11.216
82405W        W53005   8.775  13.145  14.414
82406W        W53006  40.790  19.822  11.098
82407W        W53007   9.188  11.630   0.439
82408W        W53008  14.621  28.470  13.308
82409W        W53009  11.147  25.170  12.842
82410W        W53010   3.361  16.537   4.785
82411W        W53011   2.390  25.562  12.026
82412W        W53012  23.507   7.653  13.125
82413W        W53013   3.157   7.268   0.899
82414W        W53014  21.479  44.843  14.467
82415W        W53015  16.003  28.141   1.173
82416W        W53016  38.339  32.915   1.436
82417W        W53017  26.639  44.482   4.686
82418W        W53018   0.828  25.691  12.074
82419W        W53019  20.743  27.251  10.727
82420W        W53020  39.419  16.808  12.365
82421W        W53021  30.238  31.188  13.482
82422W        W53022  37.410  27.344  14.060
82423W        W53023  31.144  12.360   0.430
82424W        W53024  24.619  43.349  13.603
82425W        W53025  24.610  41.361   2.159
82426W        W53026  42.787  43.296   0.122
82427W        W53027  44.746  43.216  11.478
82428W        W53028  16.533  37.819  14.473
82429W        W53029  11.695  16.008   2.195
82430W        W53030  20.201  20.508   3.536
82431W        W53031  15.620  24.318   3.677
82432W        W53032  18.018  20.606  11.607
82433W        W53033  10.312  36.904  13.951
82434W        W53034  32.077  14.647  13.509
82435W        W53035  23.398  29.175   0.847
82436W        W53036  13.978  20.136  13.063
82437W        W53037  19.639  44.004  14.843
82438W        W53038   9.000  10.434  12.533
82439W        W53039  26.142  13.232   1.497
82440W        W53040   0.175  12.124  12.680
82441W        W53041   7.486  38.493   1.716
82442W        W53042  19.949  39.914  12.826
82443W        W53043  27.756   7.197  12.608
82444W        W53044  13.609  41.623   2.780
82445W        W53045   3.263   1.227   3.088
82446W        W53046  19.286  20.502  11.094
82447W        W53047   9.750  12.839  12.790
82448W        W53048  13.298   8.350  14.354
82449W        W53049  14.880  42.465  12.482
82450W        W53050  43.312  42.441   0.757
82451W        W53051   1.276   5.729   0.729
82452W        W53052  21.182  32.626   4.822
82453W        W53053  16.827  32.039   1.859
82454W        W53054  41.474   9.347  13.443
82455W        W53055  10.089  14.698   3.147
82456W        W53056   1.016  15.827   1.340
82457W        W53057  29.021  39.458  13.906
82458W        W53058  32.577  39.214  14.927
82459W        W53059  30.163  42.315   3.248
82460W        W53060  20.761   4.927  11.405
82461W        W53061   2.827  19.370   0.504
82462W        W53062   9.219  26.155   3.189
82463W        W53063   9.071  22.703   0.895
82464W        W53064  38.542   3.691   3.197
82465W        W53065  42.329   1.743  14.385
82466W        W53066  28.712  28.376  11.157
82467W        W53067  24.947   6.708  13.510
82468W        W53068  12.143  13.878  11.603
82469W        W53069  35.525   0.703  11.512
82470W        W53070   9.325  29.059  12.968
82471W        W53071  37.903  30.328   3.718
82472W        W53072  26.707  39.416  14.227
82473W        W53073  23.764   0.838  13.477
82474W        W53074  40.541  35.529   2.227
82475W        W53075  12.518   6.272   3.487
82476W        W53076  14.268  33.343   1.376
82477W        W53077  33.925  42.494  12.136
82478W        W53078  19.141  24.140  12.798
82479W        W53079  41.729   6.076  12.882
82480W        W53080  28.985  35.579  12.109
82481W        W53081  33.565  12.113   4.923
82482W        W53082  10.594  33.540   0.393
82483W        W53083  41.294   6.809  13.352
82484W        W53084  36.543   7.382  14.263
82485W        W53085  16.779  40.034   4.251
82486W        W53086  23.393  33.390  10.516
82487W        W53087  14.403  41.966   3.971
82488W        W53088   7.002  22.602  11.237
82489W        W53089  23.589  32.874  13.966
82490W        W53090  23.318  10.618   3.260
82491W        W53091  18.186   1.459   3.347
82492W        W53092  27.616  26.394  13.065
82493W        W53093  39.835  25.603  14.900
82494W        W53094  14.935  27.727   2.287
82495W        W53095  27.512  36.119  13.799
82496W        W53096   4.161  36.130  14.254
82497W        W53097   7.327  26.331  12.761
82498W        W53098  41.127  19.252  10.367
82499W        W53099  25.575  41.809  10.594
82500W        W53100  31.493   4.708   1.655
82501W        W53101  14.691  15.556  13.984
82502W        W53102   9.172  27.589   2.563
82503W        W53103   8.437  21.166  11.233
82504W        W53104   1.943  20.065  11.624
82505W        W53105   2.329  31.459  14.196
82506W        W53106  22.089   8.519   2.674
82507W        W53107  20.611  21.654  11.724
82508W        W53108  39.853   4.391   5.496
82509W        W53109  26.319   3.301   2.688
82510W        W53110  21.777  32.043  14.420
82511W        W53111   3.081  30.430   0.725
82512W        W53112  40.428  21.486  10.515
82513W        W53113   1.942  19.559   3.344
82514W        W53114  35.117  24.531  13.154
82515W        W53115  24.608  19.218  13.928
82516W        W53116  42.309  28.389   1.454
82517W        W53117   7.793  36.867   1.845
82518W        W53118  34.278  33.949  11.689
82519W        W53119  38.381  31.056  14.829
82520W        W53120  31.834   3.237  14.293
82521W        W53121  12.761  40.304  12.974
82522W        W53122  35.592  17.354  12.605
82523W        W53123  21.758   8.944   3.491
82524W        W53124   1.505  36.686  14.842
82525W        W53125  10.267  34.613   4.528
82526W        W53126   2.243  10.673  11.441
82527W        W53127   6.828  27.083  10.655
82528W        W53128  41.894   2.176  12.645
82529W        W53129  31.380  13.334   1.943
82530W        W53130  12.748  44.741  10.887
82531W        W53131   7.748  24.229   3.233
82532W        W53132   3.263  41.265  10.925
82533W        W53133  22.848  24.874   1.741
82534W        W53134   0.335  21.841   4.154
82535W        W53135  17.483  13.835   1.872
82536W        W53136  16.200  22.209  10.427
82537W        W53137  35.437  30.431  10.613
82538W        W53138  30.410  31.185   2.850
82539W        W53139  35.342   1.398   0.435
82540W        W53140   1.503  38.845   1.209
82541W        W53141  25.791  23.463  13.142
82542W        W53142  37.819  14.994   5.114
82543W        W53143  38.124  44.912  14.062
82544W        W53144  19.062   7.191  12.511
82545W        W53145  32.921  26.765   0.492
82546W        W53146  24.153   6.789  11.038
82547W        W53147  18.130  27.054   0.466
82548W        W53148  19.682   5.950  14.941
82549W        W53149  30.663  26.061  14.953
82550W        W53150  34.129   9.421  12.004
82551W        W53151  18.291   0.472   2.693
82552W        W53152  29.589  26.155   2.653
82553W        W53153  39.319  30.113  11.724
82554W        W53154  15.714   8.208  12.873
82555W        W53155   3.883  13.814  12.144
82556W        W53156  31.018  44.755  12.355
82557W        W53157  14.578  21.776  11.165
82558W        W53158  12.088  35.362   4.892
82559W        W53159  22.583  14.366  12.651
82560W        W53160  37.304  13.832   1.413
82561W        W53161   0.477   1.191   1.327
82562W        W53162   9.092   3.718   3.168
82563W        W53163   7.436  16.193  10.634
82564W        W53164  33.868   1.975  14.281
82565W        W53165  29.456  37.896  13.751
82566W        W53166  41.999  38.882   0.312
82567W        W53167  35.132  33.678   0.675
82568W        W53168  36.127  23.879  14.921
82569W        W53169  13.057  28.044   5.076
82570W        W53170  31.907  17.171   3.573
82571W        W53171  37.925  42.933  10.728
82572W        W53172  21.197  29.069   4.669
82573W        W53173  43.387   3.228   3.550
82574W        W53174  19.856  35.142   2.692
82575W        W53175  41.302  20.730  14.517
82576W        W53176  26.721  26.550  11.177
82577W        W53177  33.924  34.278   4.115
82578W        W53178  40.979  40.418   3.763
82579W        W53179  37.064  26.441  10.635
82580W        W53180  14.675  44.360   5.006
82581W        W53181  29.871   8.367  12.491
82582W        W53182  37.868   6.239   1.124
82583W        W53183  16.047   7.251   4.229
82584W        W53184  12.931  19.147  10.600
82585W        W53185  11.781  32.640   2.921
82586W        W53186   6.666  19.624  14.770
82587W        W53187   4.370   2.146   1.670
82588W        W53188  15.261  29.729   1.550
82589W        W53189  16.306   0.671   3.686
82590W        W53190  32.552  21.910   0.215
82591W        W53191  32.006  43.478   1.453
82592W        W53192  38.009  44.031  11.621
82593W        W53193  28.482   6.284  14.415
82594W        W53194  31.386   2.848   4.443
82595W        W53195  33.181  41.572  13.945
82596W        W53196  36.319   2.899   1.375
82597W        W53197  13.619  12.395  11.983
82598W        W53198  38.355   4.408   1.777
82599W        W53199  18.221  18.089  14.899
82600W        W53200   8.277  40.947   3.116
82601W        W53201  26.393  35.286   3.250
82602W        W53202  23.003  42.066  13.399
82603W        W53203  17.523  23.060  10.640
82604W        W53204  25.156   6.337   1.245
82605W        W53205   4.797  11.788   2.685
82606W        W53206   8.268   8.083   3.924
82607W        W53207   5.764  37.283  14.863
82608W        W53208  17.276  12.614   1.365
82609W        W53209  12.344   4.968  13.380
82610W        W53210  15.780  39.876  11.479
82611W        W53211  40.863  16.563  13.942
82612W        W53212  38.928  34.970   3.706
82613W        W53213  34.485  43.381   1.430
82614W        W53214  29.982  23.549  13.453
82615W        W53215   4.690  24.205   1.048
82616W        W53216   4.504   1.579  10.082
82617W        W53217   4.452  14.260   4.963
82618W        W53218   8.938  15.407   0.309
82619W        W53219  32.427  22.542  10.617
82620W        W53220  37.573   8.395  12.842
82621W        W53221  38.604  13.584  12.634
82622W        W53222  37.981  44.623  12.473
82623W        W53223   8.810  40.898   3.283
82624W        W53224  33.472  32.669  12.981
82625W        W53225  39.354  40.357   0.457
82626W        W53226  13.680  10.138  14.263
82627W        W53227  15.522  40.870   1.259
82628W        W53228  21.203  13.655   3.133
82629W        W53229  44.310  39.650  11.606
82630W        W53230   0.271  40.001   0.823
82631W        W53231  11.174  20.420  13.087
82632W        W53232  18.296  42.488  10.909
82633W        W53233  10.612  42.803   1.298
82634W        W53234  36.908  17.665  13.473
82635W        W53235  30.142  44.873   3.812
82636W        W53236  41.335  36.822  12.468
82637W        W53237  13.281  43.329  13.147
82638W        W53238  42.292   6.929   2.189
82639W        W53239  33.613  40.093  13.020
82640W        W53240  40.817   8.564   3.707
82641W        W53241  28.964  18.693  12.123
82642W        W53242  39.611  31.272  10.633
82643W        W53243  42.397  12.373   4.647
82644W        W53244  44.904  26.508   4.470
82645W        W53245  17.705  18.658  12.411
82646W        W53246  31.632  13.143   1.443
82647W        W53247   3.798  33.181  14.183
82648W        W53248  41.140  43.764  13.759
82649W        W53249  39.412  25.036   3.293
82650W        W53250   1.317  35.059  11.573
82651W        W53251  33.547  40.526   2.459
82652W        W53252   2.286  22.941   1.450
82653W        W53253  14.098   6.758   0.910
82654W        W53254  29.524  34.414  12.899
82655W        W53255  26.648   8.864   0.298
82656W        W53256  31.413  29.520   2.411
82657W        W53257  11.831  14.364  12.034
82658W        W53258   7.377  35.628   2.746
82659W        W53259   6.580  36.644   2.854
82660W        W53260   9.423  33.396   1.439
82661W        W53261   2.021  44.278  14.877
82662W        W53262  24.523  40.938   1.397
82663W        W53263  15.372   8.145  13.279
82664W        W53264  43.885   4.830   4.531
82665W        W53265  18.977  31.193  13.554
82666W        W53266  42.407  30.852   3.187
82667W        W53267  19.258  21.242   3.345
82668W        W53268   4.330  26.964   0.830
82669W        W53269  28.412   9.748   2.147
82670W        W53270  27.698  32.836  14.728
82671W        W53271   2.725  19.435   0.014
82672W        W53272  30.666  34.590   2.389
82673W        W53273  20.624  44.861  12.466
82674W        W53274  12.823  28.724  14.045
82675W        W53275   7.375  29.130   2.243
82676W        W53276   4.785  20.490   2.797
82677W        W53277  20.734  22.662  10.796
82678W        W53278  32.579   6.036   3.740
82679W        W53279  16.375  15.626  14.953
82680W        W53280  13.895  23.569   0.230
82681W        W53281  42.359  17.576  13.859
82682W        W53282  22.289  14.754   4.269
82683W        W53283  28.514   4.681  13.175
82684W        W53284  24.679  29.546  12.639
82685W        W53285  16.135  19.526  11.135
82686W        W53286   2.086  34.625  12.425
82687W        W53287   0.955   4.778   2.091
82688W        W53288  38.082   3.389  14.399
82689W        W53289  13.859  42.428  12.306
82690W        W53290  41.884  33.461   4.408
82691W        W53291  11.839  13.263   1.144
82692W        W53292  15.720  27.725   4.773
82693W        W53293  26.049  25.642  12.565
82694W        W53294   2.696   3.434  10.481
82695W        W53295  20.516   8.054   3.051
82696W        W53296  25.241   5.150  14.431
82697W        W53297  17.227  32.407   4.051
82698W        W53298  15.196   6.470   0.145
82699W        W53299  23.890  24.577  13.338
82700W        W53300  26.141  21.141   1.689
82701W        W53301  34.601  29.990  13.399
82702W        W53302  13.161  36.542   1.361
82703W        W53303  44.051  37.827  13.418
82704W        W53304  44.342  15.776   0.525
82705W        W53305  30.548  43.953   0.382
82706W        W53306  33.909   4.385  12.522
82707W        W53307  28.464   7.672  12.368
82708W        W53308  18.280  17.176  12.491
82709W        W53309  11.254   0.473  11.438
82710W        W53310  32.046  34.571  13.366
82711W        W53311  29.074  39.843  14.250
82712W        W53312   9.901   9.276   4.402
82713W        W53313  18.615  25.686   5.342
82714W        W53314  27.524  36.620   0.178
82715W        W53315   8.657  11.391   2.599
82716W        W53316  20.006  18.881  11.683
82717W        W53317  41.613  27.637  13.143
82718W        W53318  26.689  24.363   0.966
82719W        W53319  22.549  42.828   1.394
82720W        W53320  14.298  41.576   0.081
82721W        W53321   5.409  13.320  14.038
82722W        W53322  27.488  10.866  13.602
82723W        W53323   1.384   8.139   2.350
82724W        W53324   0.969   1.256   3.736
82725W        W53325  35.577  18.125   1.010
82726W        W53326  11.682   2.589   2.263
82727W        W53327  18.009  12.755   0.442
82728W        W53328  23.122  20.785   1.106
82729W        W53329   8.297  18.780   2.772
82730W        W53330  31.120  30.302   5.057
82731W        W53331  36.648  36.463   1.375
82732W        W53332  36.980  44.027   0.046
82733W        W53333  34.624   8.723  13.940
82734W        W53334   5.650  42.499   1.192
82735W        W53335  32.840  16.422   1.314
82736W        W53336  18.200  33.707  12.299
82737W        W53337   1.471  43.680   2.160
82738W        W53338  11.294  18.697  11.984
82739W        W53339  17.464  29.863  12.387
82740W        W53340  16.840  41.039  13.952
82741W        W53341  34.082  30.583   2.344
82742W        W53342  34.124  24.035  12.613
82743W        W53343  42.077   9.099  11.162
82744W        W53344  13.235   3.261  10.169
82745W        W53345  18.304  44.398   3.601
82746W        W53346  20.796  25.601  11.596
82747W        W53347  13.266  30.358   2.133
82748W        W53348  13.640  18.193   0.506
82749W        W53349  35.306   7.202  14.746
82750W        W53350  16.702  41.886   3.608
82751W        W53351  19.470   4.951   1.788
82752W        W53352  17.429  21.127   3.985
82753W        W53353   8.698  15.080  10.747
82754W        W53354  13.530  43.849   3.143
82755W        W53355   5.917  34.707   4.745
82756W        W53356  19.404  44.328  14.506
82757W        W53357  23.954   7.134  10.722
82758W        W53358  20.997  34.944   0.320
82759W        W53359   7.033  20.443   0.282
82760W        W53360   7.239  40.251   3.647
82761W        W53361  30.770  36.904  14.304
82762W        W53362  22.205  44.319   0.339
82763W        W53363   1.818  37.370  13.539
82764W        W53364  38.435  42.741  12.404
82765W        W53365  25.234  39.684   0.742
82766W        W53366   3.803  12.141  13.919
82767W        W53367  30.197  34.346  11.329
82768W        W53368  36.376  16.333   0.815
82769W        W53369  10.058  32.401   0.383
82770W        W53370  38.062   2.862   1.211
82771W        W53371   9.303  30.738   0.954
82772W        W53372  28.045  26.062   2.815
82773W        W53373  25.971  23.251   4.067
82774W        W53374  41.602  23.771  11.638
82775W        W53375  22.444  18.816   1.632
82776W        W53376  40.283  31.716  14.905
82777W        W53377  19.218   4.506   1.741
82778W        W53378   5.053  27.591   1.780
82779W        W53379  25.180  25.555   0.435
82780W        W53380  38.482  23.464   3.644
82781W        W53381  23.634  22.623   1.677
82782W        W53382  22.900  16.607   4.825
82783W        W53383  16.314  26.571   2.631
82784W        W53384  40.210  15.753  13.769
82785W        W53385  42.009  37.338   2.718
82786W        W53386  32.605  39.981  12.939
82787W        W53387  37.932  27.997  14.478
82788W        W53388  18.704   9.680  12.877
82789W        W53389  41.029  16.285   0.828
82790W        W53390   9.178  19.302  14.674
82791W        W53391  38.704  15.862  13.425
82792W        W53392  32.693  41.756  10.946
82793W        W53393  24.589   9.736   4.581
82794W        W53394  41.243  20.595   3.303
82795W        W53395  22.120   0.834   3.397
82796W        W53396  28.460  44.933  14.843
82797W        W53397  31.893  30.468  10.688
82798W        W53398  44.041  41.399   0.820
82799W        W53399   6.500  18.099   4.110
82800W        W53400  12.200  27.949   2.363
82801W        W53401   5.175  13.689   3.969
82802W        W53402  38.012  39.013   1.401
82803W        W53403  12.920  33.452  14.830
82804W        W53404  28.486   4.013  12.158
82805W        W53405  30.676  13.111  11.562
82806W        W53406  31.187  10.422   3.682
82807W        W53407  15.106  27.006  14.905
82808W        W53408  34.866  15.571  10.711
82809W        W53409  32.570  37.912  10.791
82810W        W53410  24.762   0.835  13.445
82811W        W53411  13.547  23.086  11.415
82812W        W53412  25.716  42.828  11.558
82813W        W53413  11.248  16.115  11.918
82814W        W53414  33.507  15.683   0.272
82815W        W53415  28.121  16.802  13.281
82816W        W53416  23.196  37.992   0.699
82817W        W53417  33.551  14.539  10.277
82818W        W53418  26.698  36.694  11.133
82819W        W53419  26.016  28.584  13.698
82820W        W53420  16.277   7.845  11.637
82821W        W53421  39.764  13.029  11.408
82822W        W53422  19.308  27.040  14.397
82823W        W53423  10.524   0.729  14.272
82824W        W53424  38.930  36.300  13.686
82825W        W53425  33.517  37.484   0.537
82826W        W53426  26.474  32.369  11.975
82827W        W53427  15.241  12.843   0.275
82828W        W53428   8.071   4.896   1.492
82829W        W53429  11.970  11.294  12.545
82830W        W53430  35.366  25.776  11.683
82831W        W53431  37.605  16.647   0.803
82832W        W53432  35.854  36.403   3.647
82833W        W53433  17.732  14.724   3.574
82834W        W53434  42.526  32.551   0.564
82835W        W53435  14.184  12.733  12.125
82836W        W53436  16.044  26.157   3.525
82837W        W53437  13.703   8.283   1.476
82838W        W53438  42.434  23.894   0.775
82839W        W53439  28.067  28.509   3.024
82840W        W53440   0.897  12.573   2.431
82841W        W53441  17.550  22.491   4.182
82842W        W53442  26.092  33.333   1.700
82843W        W53443   6.162  10.392   4.032
82844W        W53444   5.992  38.261  11.156
82845W        W53445   5.930   2.638  12.902
82846W        W53446  28.424   6.365   2.344
82847W        W53447  12.837  24.694   3.649
82848W        W53448  28.159  15.065  12.187
82849W        W53449  43.402  28.180   2.762
82850W        W53450  17.963   9.699  14.524
82851W        W53451  40.390   8.264  13.391
82852W        W53452   4.429  12.274   0.257
82853W        W53453  18.158  21.443   4.437
82854W        W53454  20.007  35.023  13.323
82855W        W53455  31.937  10.136   4.011
82856W        W53456  35.579  25.685  14.710
82857W        W53457   1.457  12.600  13.223
82858W        W53458  40.095  24.487  10.945
82859W        W53459  28.573  38.368  11.751
82860W        W53460  22.804  34.415   0.281
82861W        W53461   5.272   0.907   0.466
82862W        W53462  23.770   3.978   3.819
82863W        W53463  37.996  24.537   4.534
82864W        W53464  17.557  29.749  14.755
82865W        W53465   7.328  22.071   2.167
82866W        W53466  40.407   8.037   1.147
82867W        W53467  37.541  21.010  12.091
82868W        W53468  24.971  12.266  14.802
82869W        W53469  25.760  21.077  12.026
82870W        W53470   0.525  14.833  10.758
82871W        W53471  21.934  41.045   3.584
82872W        W53472  19.922  15.658   2.168
82873W        W53473   7.135  25.669   2.892
82874W        W53474  30.628  34.459  10.750
82875W        W53475  27.029  17.131  13.838
82876W        W53476  24.729  31.466   2.896
82877W        W53477  33.963  44.444   1.436
82878W        W53478  24.084   3.220   0.181
82879W        W53479   0.122  37.055   1.226
82880W        W53480   6.212   3.871  10.991
82881W        W53481  21.687  17.569  11.564
82882W        W53482  20.043  25.986  11.415
82883W        W53483  26.585  17.321  12.493
82884W        W53484   2.359  42.049   0.565
82885W        W53485  20.592  19.256  14.722
82886W        W53486  34.055  25.961   1.405
82887W        W53487  23.802  17.809   0.303
82888W        W53488  44.269  27.150   1.293
82889W        W53489  32.635  10.766   3.606
82890W        W53490  24.064  41.436   3.395
82891W        W53491  42.625  22.736   0.350
82892W        W53492   1.744  11.567  10.810
82893W        W53493  25.240  12.947   2.097
82894W        W53494  38.021  26.540  10.171
82895W        W53495   5.408  37.030   1.379
82896W        W53496  41.278  28.914  14.980
82897W        W53497   6.249  13.797  14.314
82898W        W53498  19.342  30.893   0.330
82899W        W53499  29.930  17.843   2.208
82900W        W53500  14.251  10.809   0.190
82901W        W53501  27.598  25.783   0.284
82902W        W53502  24.981  24.472  10.680
82903W        W53503  43.478  40.637   3.264
82904W        W53504  22.549  25.459   2.745
82905W        W53505  32.380   9.342  11.650
82906W        W53506  43.511  30.369   2.852
82907W        W53507  43.521  34.863  12.025
82908W        W53508  41.383  10.960   4.828
82909W        W53509  43.098  14.119   3.302
82910W        W53510  43.655  24.970  13.488
82911W        W53511  29.125  28.059   4.061
82912W        W53512  25.905  17.609  13.493
82913W        W53513  19.526   7.702  14.034
82914W        W53514  33.666  13.682   0.900
82915W        W53515  10.230   2.711   3.190
82916W        W53516  37.779  13.320  11.674
82917W        W53517  28.062   8.420  12.163
82918W        W53518   6.627  22.653  10.867
82919W        W53519   3.302  30.493   1.651
82920W        W53520   4.988  16.622  13.499
82921W        W53521  36.517  11.201  11.599
82922W        W53522   5.188  36.907   1.835
82923W        W53523  20.058  40.741   0.299
82924W        W53524  44.783   8.143   5.005
82925W        W53525  23.935  38.293  10.802
82926W        W53526   7.166   5.609  12.612
82927W        W53527  28.391  19.550   2.329
82928W        W53528  29.904  26.513  14.382
82929W        W53529  10.276  10.694  11.690
82930W        W53530   4.624  25.106  12.580
82931W        W53531   9.762   5.204  12.117
82932W        W53532  10.270   3.729  11.208
82933W        W53533  41.098   3.908   2.256
82934W        W53534  37.863  13.204  13.489
82935W        W53535  29.098  20.597   2.677
82936W        W53536   7.401  19.214  12.144
82937W        W53537  25.321   5.462   0.728
82938W        W53538  33.035  32.850   4.003
82939W        W53539  12.005   4.790  13.830
82940W        W53540   8.469  17.162   1.164
82941W        W53541   9.383  44.663  13.896
82942W        W53542  40.293   9.775   1.872
82943W        W53543   6.644  22.939  12.096
82944W        W53544  29.254   0.944   0.481
82945W        W53545  19.822  12.763  10.667
82946W        W53546  41.576  32.628  14.476
82947W        W53547  33.454  37.249  14.622
82948W        W53548  25.610  39.254   4.873
82949W        W53549  29.045  43.764   4.925
82950W        W53550  15.590   0.871  13.086
82951W        W53551  12.396   3.991   3.323
82952W        W53552  32.500  20.638  14.098
82953W        W53553  33.747  35.184   3.606
82954W        W53554  38.480  37.423  13.069
82955W        W53555   7.616  29.043   1.790
82956W        W53556  44.358  10.915  10.803
82957W        W53557   1.338  24.591   3.446
82958W        W53558  19.164  38.690   1.868
82959W        W53559  25.271  25.189   1.289
82960W        W53560   4.819  23.736  10.712
82961W        W53561  33.576  10.750   3.181
82962W        W53562  25.088  13.299   1.271
82963W        W53563  14.607  31.113   0.891
82964W        W53564  19.158  12.274   1.329
82965W        W53565  15.294  24.142   4.087
82966W        W53566  32.066  36.725   1.211
82967W        W53567  24.778   9.290   3.689
82968W        W53568   7.076   3.925  14.329
82969W        W53569  27.578  15.412  14.372
82970W        W53570  40.213  15.662  11.159
82971W        W53571   3.885   5.664  11.848
82972W        W53572   4.724  42.868  13.095
82973W        W53573  27.129   8.701  10.502
82974W        W53574  15.983  34.910   1.360
82975W        W53575  35.644  16.558  12.060
82976W        W53576  17.852  15.974   0.144
82977W        W53577  24.041   4.973   3.071
82978W        W53578  42.350   0.814   1.258
82979W        W53579  41.765  31.807  14.300
82980W        W53580  41.048  32.635   3.681
82981W        W53581   9.010   5.851  12.125
82982W        W53582   6.180   0.291  14.055
82983W        W53583  16.979   0.224  13.904
82984W        W53584  23.552   2.955  10.303
82985W        W53585  43.704   7.609   4.169
82986W        W53586  44.675  12.591   3.890
82987W        W53587  26.975   9.408  11.014
82988W        W53588   3.759  10.899  11.446
82989W        W53589  12.992  22.662  12.089
82990W        W53590  12.064   8.401  11.113
82991W        W53591  27.145  18.769   3.180
82992W        W53592  41.688  39.725  10.860
82993W        W53593  16.252  34.042  14.858
82994W        W53594  14.230   8.332   2.318
82995W        W53595   9.618  40.132  10.809
82996W        W53596  14.272  18.230   4.116
82997W        W53597  39.683  12.111   0.364
82998W        W53598  31.521  35.137  11.144
82999W        W53599  41.319   5.164   1.761
83000W        W53600  14.201   1.722   1.718
83001W        W53601   9.350   1.564  13.563
83002W        W53602  17.697   2.202  14.835
83003W        W53603   0.444  10.295   1.675
83004W        W53604   6.092  43.909   1.877
83005W        W53605  18.131   5.326  13.475
83006W        W53606  29.636  27.754   2.441
83007W        W53607   3.896  14.086   0.540
83008W        W53608  40.801  33.278  11.183
83009W        W53609  29.495  15.352  11.102
83010W        W53610  14.413   4.834   2.315
83011W        W53611   5.328   8.610   2.351
83012W        W53612  18.464  29.249  10.607
83013W        W53613   2.239  41.762  11.175
83014W        W53614  22.706  27.504   4.242
83015W        W53615  37.670  21.168   2.087
83016W        W53616   0.032  28.591   1.820
83017W        W53617  36.151  43.126  10.393
83018W        W53618  31.070  19.312   5.040
83019W        W53619   2.956  38.560  13.713
83020W        W53620  14.535  27.396   2.318
83021W        W53621   6.555  37.399  12.411
83022W        W53622  36.398  11.671  12.925
83023W        W53623   7.776  24.153   0.318
83024W        W53624  38.561   1.369   3.730
83025W        W53625  10.549  11.256   2.704
83026W        W53626  24.168  25.780  12.453
83027W        W53627   7.308  35.533  13.603
83028W        W53628   1.352  28.347   2.864
83029W        W53629  22.547  24.012   0.971
83030W        W53630  10.034  44.986   4.240
83031W        W53631  35.942   4.938   2.176
83032W        W53632  14.482  20.171   2.299
83033W        W53633   1.392  41.015  10.720
83034W        W53634  11.369  26.016   3.805
83035W        W53635  18.649  36.134  14.505
83036W        W53636  39.798  43.857  12.596
83037W        W53637  19.251  28.987   4.346
83038W        W53638  24.828  34.415  14.576
83039W        W53639  39.827  41.501   3.186
83040W        W53640  10.164  37.908   1.139
83041W        W53641   3.481   4.265  14.833
83042W        W53642   9.919   9.281   2.610
83043W        W53643  15.151  21.575   4.316
83044W        W53644   9.889   5.557  14.882
83045W        W53645  35.669  39.422  13.467
83046W        W53646  37.173  22.657  13.927
83047W        W53647  40.368  18.342   1.225
83048W        W53648  43.770   6.314  12.350
83049W        W53649  16.055  25.925   4.008
83050W        W53650   3.770  15.531   1.765
83051W        W53651  41.287  20.976  11.544
83052W        W53652  32.506  21.260   1.416
83053W        W53653   7.456  42.861  14.738
83054W        W53654   9.866   6.835  12.919
83055W        W53655  42.599  15.028   1.684
83056W        W53656  42.513  14.203   4.154
83057W        W53657  31.896  29.581   2.170
83058W        W53658  40.724  19.713   1.579
83059W        W53659  20.286  18.276   1.666
83060W        W53660  13.130  39.089   3.284
83061W        W53661   0.656  12.830   3.742
83062W        W53662   8.644  15.261  14.457
83063W        W53663   6.916  30.412   4.798
83064W        W53664  35.421  42.408   1.187
83065W        W53665  13.630  10.307   1.590
83066W        W53666  22.556  19.653  10.693
83067W        W53667  21.070   2.249  10.868
83068W        W53668  41.455  18.656  12.261
83069W        W53669  18.985  24.621  10.458
83070W        W53670  37.099   1.963   3.780
83071W        W53671  42.996  16.509   3.220
83072W        W53672   5.410  13.737  11.867
83073W        W53673   7.870  20.999   0.029
83074W        W53674  42.476   4.694  13.389
83075W        W53675   4.209  42.832   2.796
83076W        W53676  29.091  19.252   2.385
83077W        W53677  17.163  10.872  10.982
83078W        W53678  43.918  40.080   4.215
83079W        W53679  19.371  33.803  11.134
83080W        W53680  33.357  34.480   0.016
83081W        W53681   4.773  31.151  12.597
83082W        W53682  33.839   2.688   3.338
83083W        W53683  39.840  27.039   4.572
83084W        W53684  27.097  15.400  13.757
83085W        W53685  40.500  25.495  12.530
83086W        W53686  28.563  35.852   3.725
83087W        W53687  10.199  35.550  12.901
83088W        W53688   4.173  31.557  13.981
83089W        W53689  37.878  14.848  11.749
83090W        W53690  29.011  20.140   0.690
83091W        W53691  26.118  15.841  12.439
83092W        W53692  16.167  18.269  13.310
83093W        W53693   8.361   0.425   3.406
83094W        W53694  26.518   3.486  10.161
83095W        W53695  32.649  24.127   1.759
83096W        W53696  24.338  36.415   4.214
83097W        W53697  25.616  26.963   2.201
83098W        W53698  35.840  10.205   1.772
83099W        W53699  34.424   9.286   3.858
83100W        W53700  11.302  44.936  14.032
83101W        W53701   3.702   3.486   3.342
83102W        W53702  37.003   1.458   0.538
83103W        W53703   0.478  21.977  10.923
83104W        W53704  33.181   0.446   1.028
83105W        W53705   9.367  31.554  11.199
83106W        W53706  11.714   9.688  11.913
83107W        W53707  19.528   1.793  14.315
83108W        W53708  33.267   6.343  12.078
83109W        W53709  25.542   0.212  13.846
83110W        W53710   3.452  36.112  12.049
83111W        W53711  19.262   1.166   3.629
83112W        W53712  16.744  29.771   5.081
83113W        W53713  26.416  32.061   5.414
83114W        W53714  23.918  41.399  11.829
83115W        W53715  34.386   9.879  14.428
83116W        W53716  31.056  10.639  10.550
83117W        W53717  29.955   7.903  11.837
83118W        W53718   3.438  26.610   0.364
83119W        W53719  30.677  43.974  13.899
83120W        W53720  35.778  33.442  10.979
83121W        W53721   1.234   1.769   4.605
83122W        W53722  38.050  41.013  10.841
83123W        W53723  25.344   5.205  11.174
83124W        W53724   1.710  21.171   2.679
83125W        W53725  11.860  11.847   1.233
83126W        W53726  21.649  40.045   0.405
83127W        W53727  36.146   1.314  12.058
83128W        W53728  19.028  43.394  12.006
83129W        W53729  29.760  14.056  14.319
83130W        W53730  17.647   2.977   0.405
83131W        W53731   9.634  21.171   4.628
83132W        W53732   6.759  28.025  10.689
83133W        W53733   5.414  12.032  14.481
83134W        W53734   2.912   8.131   3.288
83135W        W53735  36.064  21.980  12.692
83136W        W53736  43.329  37.166   2.825
83137W        W53737  37.890   7.640   2.733
83138W        W53738  35.565  25.557  10.731
83139W        W53739   5.590   1.408   4.607
83140W        W53740  11.804   0.302  14.206
83141W        W53741  42.046  11.855   3.109
83142W        W53742  39.839   8.878   4.130
83143W        W53743  23.236   5.808  12.921
83144W        W53744   8.681  12.922  13.898
83145W        W53745  31.894  36.409   4.103
83146W        W53746   9.311  15.071   4.547
83147W        W53747  38.355   3.453   4.019
83148W        W53748  28.186  34.191  14.406
83149W        W53749  26.110  10.004  14.024
83150W        W53750  10.685  43.814  11.036
83151W        W53751  15.650  19.724   1.682
83152W        W53752  18.160  15.120  11.431
83153W        W53753  44.423  22.299  11.398
83154W        W53754  24.058   2.160   4.105
83155W        W53755  31.385  41.849  11.426
83156W        W53756  15.539  16.180  10.621
83157W        W53757  32.593   8.948   2.639
83158W        W53758  37.862   1.327  14.573
83159W        W53759  44.231  25.550   1.848
83160W        W53760  33.636  38.970   4.031
83161W        W53761  13.168  36.676   4.074
83162W        W53762  14.903  20.777   1.612
83163W        W53763  35.317  44.230  14.297
83164W        W53764  40.953  36.132   3.857
83165W        W53765   5.733   1.970  13.372
83166W        W53766  34.664  44.398   0.750
83167W        W53767   4.254  30.150   2.762
83168W        W53768  24.962  10.292   2.029
83169W        W53769  12.563  34.896   4.157
83170W        W53770  24.670  26.183   4.571
83171W        W53771  23.219  37.971  12.973
83172W        W53772  27.456  24.007   3.264
83173W        W53773   1.275  23.497   4.110
83174W        W53774  29.338  35.318   3.412
83175W        W53775  21.530  11.880  12.431
83176W        W53776  22.951  34.345  11.179
83177W        W53777  27.680  27.220  10.780
83178W        W53778  43.017   3.277   4.850
83179W        W53779  39.878  20.239   3.793
83180W        W53780   7.843   7.846  10.390
83181W        W53781   6.670  24.200  14.797
83182W        W53782  34.167  34.003  14.824
83183W        W53783  23.601  35.212   2.048
83184W        W53784  27.524  20.218   0.004
83185W        W53785  37.523  38.962  11.508
83186W        W53786   8.195  23.297   2.488
83187W        W53787  33.310  39.513   4.187
83188W        W53788  36.819  25.050   1.414
83189W        W53789  44.848  39.892  14.899
83190W        W53790  40.469   6.667   4.323
83191W        W53791  27.030  10.835  12.807
83192W        W53792  34.762  40.034   0.004
83193W        W53793  28.542  41.789   1.461
83194W        W53794  25.180   0.527  10.055
83195W        W53795  14.525   4.709   3.785
83196W        W53796  19.188  13.097   3.114
83197W        W53797   3.711  12.078   4.892
83198W        W53798  42.500  23.814  14.842
83199W        W53799   8.350  43.902  11.659
83200W        W53800  26.086  44.253   0.193
83201W        W53801  19.365  25.261  11.174
83202W        W53802   4.388  16.235   4.536
83203W        W53803   1.933   4.899  10.437
83204W        W53804   9.636   8.484  14.957
83205W        W53805  21.693  17.346   4.370
83206W        W53806  11.205  40.505  11.684
83207W        W53807  14.913   3.340  12.004
83208W        W53808  16.459  41.820   4.040
83209W        W53809   8.629  19.442   0.532
83210W        W53810  16.779  21.306  13.935
83211W        W53811  34.567  44.350   1.678
83212W        W53812  38.912  19.678   3.628
83213W        W53813   0.946  30.367  11.053
83214W        W53814  36.368  18.506  12.968
83215W        W53815   4.785  25.855   3.176
83216W        W53816  42.819  15.600  11.430
83217W        W53817  19.289  43.525  13.297
83218W        W53818  19.324  41.247   2.857
83219W        W53819  43.550  22.563   0.414
83220W        W53820  40.371  13.324  14.562
83221W        W53821  14.573  41.533   3.706
83222W        W53822  32.842  14.406  14.243
83223W        W53823  37.443  22.067   0.681
83224W        W53824  39.462  26.162   1.494
83225W        W53825  40.145  25.192   3.804
83226W        W53826  25.959  35.568   3.280
83227W        W53827  39.377  19.291   0.028
83228W        W53828   1.231   0.929   4.847
83229W        W53829  39.620  36.287  11.191
83230W        W53830  37.002   6.334  13.010
83231W        W53831  24.769  16.774   0.870
83232W        W53832  41.843  43.576  11.487
83233W        W53833  43.394  18.401   5.109
83234W        W53834   7.927  21.755   3.744
83235W        W53835  20.591   2.183   4.514
83236W        W53836  30.576  16.532  13.050
83237W        W53837   8.660  21.018   1.381
83238W        W53838  24.064  20.795  12.496
83239W        W53839  20.409  20.836  12.444
83240W        W53840  40.498  26.034  12.217
83241W        W53841  33.541  35.572   3.944
83242W        W53842   3.036  23.713  12.040
83243W        W53843  42.366  20.027  10.699
83244W        W53844  12.542  37.570  13.794
83245W        W53845  36.520   8.253   3.160
83246W        W53846  34.878  17.573  13.382
83247W        W53847  26.155  18.189   1.919
83248W        W53848   3.237  16.545   1.821
83249W        W53849   8.462  30.552   1.789
83250W        W53850  19.655   2.714   2.060
83251W        W53851  30.114  41.132  12.961
83252W        W53852  21.661  21.947  14.287
83253W        W53853   0.846  21.096   0.794
83254W        W53854  29.593  31.078  13.772
83255W        W53855   6.558  36.231   3.913
83256W        W53856  13.869  14.934   4.023
83257W        W53857  23.513  43.385   4.291
83258W        W53858  19.134  34.499   0.411
83259W        W53859  29.415  28.128   1.288
83260W        W53860  10.374  41.965  11.335
83261W        W53861   6.036   3.849   0.611
83262W        W53862  37.587  30.357  12.781
83263W        W53863  14.334  25.536  12.066
83264W        W53864  28.742  23.041  14.435
83265W        W53865   6.789  29.863  14.335
83266W        W53866  38.506  26.392  12.935
83267W        W53867  12.505  12.846   2.468
83268W        W53868   0.851   1.799   0.821
83269W        W53869  12.369   0.078   4.470
83270W        W53870  38.283  30.655   2.778
83271W        W53871  34.839  34.998   0.807
83272W        W53872  25.176  20.071   0.484
83273W        W53873   0.722   2.289  12.396
83274W        W53874  29.539  38.358  11.885
83275W        W53875  27.881  39.973  12.886
83276W        W53876  25.504  36.173  14.323
83277W        W53877   7.379  25.831  12.875
83278W        W53878   4.515  28.226   0.533
83279W        W53879  29.083   3.710  14.599
83280W        W53880  25.778  10.053   1.286
83281W        W53881  18.792  32.588   4.193
83282W        W53882  18.265  24.592  14.744
83283W        W53883  22.387  22.737   5.153
83284W        W53884  15.643  15.542  12.845
83285W        W53885  17.802  42.352  10.988
83286W        W53886   7.090  28.218   3.188
83287W        W53887  27.197  16.594  11.613
83288W        W53888   2.724  20.522  11.415
83289W        W53889  34.454  16.191   2.622
83290W        W53890   6.949  14.133   3.305
83291W        W53891  30.401   5.204   4.242
83292W        W53892  41.373   2.265  14.435
83293W        W53893  41.364  43.416  11.641
83294W        W53894  31.500  32.465  12.928
83295W        W53895  42.086  31.057  12.898
83296W        W53896   4.616  11.192   4.525
83297W        W53897  26.227  21.284   3.289
83298W        W53898  21.786  12.266   1.383
83299W        W53899  36.054  27.498  14.978
83300W        W53900  38.469  37.300   4.184
83301W        W53901  39.722  17.117   2.862
83302W        W53902  44.580  41.489  11.512
83303W        W53903  30.319  31.955  12.465
83304W        W53904   8.290  31.020  13.766
83305W        W53905  41.257  37.387  13.324
83306W        W53906   8.042  23.342  11.526
83307W        W53907  44.472   3.746  11.701
83308W        W53908   9.824  14.570  10.768
83309W        W53909  28.109  15.658   1.879
83310W        W53910  40.658  14.997  12.120
83311W        W53911  43.387  34.306  10.159
83312W        W53912  29.059  20.762  13.410
83313W        W53913  33.921  38.928  10.553
83314W        W53914  39.295  25.661  14.863
83315W        W53915  15.016  18.492   1.929
83316W        W53916  27.181  41.769  14.864
83317W        W53917  26.573  16.954   4.611
83318W        W53918  24.748   9.661  10.519
83319W        W53919   8.919  31.979  13.088
83320W        W53920   0.839  32.908   1.429
83321W        W53921   3.908  34.000  12.456
83322W        W53922  20.516  14.059   1.728
83323W        W53923  19.593  11.601   3.818
83324W        W53924  25.487   9.551  13.027
83325W        W53925  27.006   4.178  11.826
83326W        W53926  43.240  12.603   4.239
83327W        W53927  30.674  35.953   0.842
83328W        W53928  36.174  42.357   3.387
83329W        W53929   9.786  25.716  11.092
83330W        W53930  30.062   1.485  11.533
83331W        W53931  27.161  20.145   0.747
83332W        W53932   6.547  25.248  12.450
83333W        W53933   5.452  27.167  14.773
83334W        W53934   8.706  19.233   2.766
83335W        W53935   6.896  19.354  13.486
83336W        W53936   5.928  11.384   0.843
83337W        W53937   7.961  14.085  13.923
83338W        W53938  38.162  22.014   0.030
83339W        W53939  36.922  27.544   3.089
83340W        W53940  30.514   7.093   4.645
83341W        W53941  44.272  11.270  12.832
83342W        W53942  20.363  22.431  11.085
83343W        W53943  16.175   0.221  11.219
83344W        W53944  30.467  13.629   0.910
83345W        W53945  39.333  43.369  11.580
83346W        W53946  17.857  29.067   4.544
83347W        W53947  34.565  28.578  10.474
83348W        W53948  35.233  29.374  10.455
83349W        W53949  14.736   2.275  11.462
83350W        W53950  29.008  29.112  10.692
83351W        W53951  39.102   1.861   0.774
83352W        W53952  33.157  36.538  11.870
83353W        W53953  32.993  11.262  13.553
83354W        W53954   0.761  13.625   0.040
83355W        W53955   8.697  24.398   3.854
83356W        W53956  41.815  32.943   3.083
83357W        W53957   8.932  26.706  11.480
83358W        W53958  27.009   3.903   2.965
83359W        W53959  10.902  16.759  10.561
83360W        W53960  16.218  11.259  11.095
83361W        W53961   3.676   9.828  14.378
83362W        W53962  12.903  20.989  14.975
83363W        W53963  29.638  25.432   3.385
83364W        W53964  40.971  14.566  12.823
83365W        W53965  20.331  43.269   1.293
83366W        W53966   6.941  39.882  12.124
83367W        W53967   2.366  30.482   0.163
83368W        W53968  44.437   5.834  13.382
83369W        W53969   4.308   6.390  11.346
83370W        W53970  44.465  25.516   3.677
83371W        W53971  37.931  26.129  14.800
83372W        W53972  44.810  12.213   0.370
83373W        W53973  32.071   2.883   3.267
83374W        W53974   1.245  21.670  11.983
83375W        W53975   1.741   2.579   1.185
83376W        W53976  37.885   7.855   1.285
83377W        W53977  43.982  14.665  14.726
83378W        W53978   9.311   5.496   0.765
83379W        W53979  24.629   1.000   1.241
83380W        W53980   2.440  32.454   1.491
83381W        W53981   4.273  22.595  10.638
83382W        W53982  29.095  33.039  12.612
83383W        W53983  30.021   3.429  11.432
83384W        W53984  41.091  44.965   3.182
83385W        W53985  24.486  34.480   4.472
83386W        W53986  20.276  34.118   3.173
83387W        W53987   6.721  24.489  12.058
83388W        W53988  21.188   2.667  12.577
83389W        W53989   8.901  40.838  11.189
83390W        W53990  36.093  42.957   4.530
83391W        W53991  15.743   3.694  12.001
83392W        W53992  14.062  21.762  11.079
83393W        W53993  10.685  16.099   3.111
83394W        W53994   4.376   1.360   3.557
83395W        W53995   3.137  27.555   0.375
83396W        W53996  40.582   7.801   1.882
83397W        W53997  40.081  20.132   0.844
83398W        W53998  35.026  34.939   0.295
83399W        W53999  21.249  20.780   1.918
83400W        W54000  17.235  28.661   3.533
83401W        W54001  27.197   8.887  13.217
83402W        W54002  19.639  40.476   5.059
83403W        W54003  30.503   6.947  11.058
83404W        W54004  37.161  44.966  11.248
83405W        W54005  41.248  12.606   2.937
83406W        W54006  28.410  27.911  13.730
83407W        W54007  12.558  17.843  14.448
83408W        W54008   2.997   7.347  12.572
83409W        W54009  19.052   7.868  12.920
83410W        W54010  20.132  13.969  12.515
83411W        W54011  35.295  31.647  12.509
83412W        W54012   5.936  11.243  14.436
83413W        W54013  28.481  15.640  14.818
83414W        W54014  24.798  40.898  14.623
83415W        W54015  41.864   8.796   1.067
83416W        W54016  10.861  24.775   3.358
83417W        W54017  16.543   8.944  14.861
83418W        W54018  18.097   3.485  14.836
83419W        W54019  24.233  31.949   5.098
83420W        W54020   5.293   3.141   4.240
83421W        W54021   1.852  43.010  13.293
83422W        W54022  36.849  34.901   2.580
83423W        W54023   0.443  25.405  10.973
83424W        W54024   1.135  11.590   3.599
83425W        W54025  29.652   3.997   2.898
83426W        W54026  12.427  23.645  13.403
83427W        W54027  40.505  24.654   1.337
83428W        W54028   8.427  26.118   3.759
83429W        W54029  34.000  19.773   4.005
83430W        W54030  32.477   4.000   0.008
83431W        W54031  17.312  22.781  13.303
83432W        W54032   3.963  31.180  12.540
83433W        W54033   6.811  44.399  12.360
83434W        W54034  36.986  13.849  12.555
83435W        W54035   6.452  11.545   0.841
83436W        W54036  20.561  38.489   0.954
83437W        W54037  29.006  25.192  10.773
83438W        W54038  16.070  20.820  10.704
83439W        W54039   3.790  37.903  10.605
83440W        W54040  31.664  17.830  11.179
83441W        W54041  23.121  25.272  13.380
83442W        W54042  33.611  29.929   3.698
83443W        W54043  33.284  29.400   1.072
83444W        W54044   1.274  22.137   0.002
83445W        W54045  16.727  17.243  12.622
83446W        W54046  40.298  17.964   4.435
83447W        W54047  24.495   4.579  12.040
83448W        W54048  40.772   4.846   1.668
83449W        W54049  37.937  27.903  13.564
83450W        W54050  23.658   3.297   4.343
83451W        W54051  31.078   6.393   3.735
83452W        W54052  42.591   8.422   1.361
83453W        W54053  44.124   4.326   1.104
83454W        W54054  36.619  21.150  11.824
83455W        W54055   5.134  28.923  14.261
83456W        W54056  36.436  34.336   3.319
83457W        W54057  36.153  23.694  12.883
83458W        W54058   1.827  27.691   4.190
83459W        W54059  37.447  16.578   4.405
83460W        W54060  15.930  25.046   4.486
83461W        W54061  12.763  11.404   3.307
83462W        W54062  34.299   2.528   1.325
83463W        W54063   1.692  29.095  12.602
83464W        W54064   7.630  27.170   0.896
83465W        W54065  36.377  40.736   3.575
83466W        W54066  40.827  37.158   0.917
83467W        W54067  41.927  22.490   0.004
83468W        W54068  10.849  27.094   3.254
83469W        W54069  10.216  25.041   0.280
83470W        W54070   4.934  44.812   3.297
83471W        W54071   5.208  39.988   1.341
83472W        W54072  29.643  43.473   4.713
83473W        W54073  20.348  29.624   3.703
83474W        W54074  33.908  31.624  14.385
83475W        W54075  15.599  24.665   4.656
83476W        W54076   5.106  32.456  12.051
83477W        W54077  11.572  31.582   0.579
83478W        W54078  29.308  36.448  11.828
83479W        W54079  35.624   8.828   0.799
83480W        W54080  16.114  12.650   1.719
83481W        W54081  15.835  12.008  12.461
83482W        W54082  21.927  31.958   4.958
83483W        W54083  34.519   3.877   2.099
83484W        W54084  29.518  13.955  10.761
83485W        W54085  42.433  30.505   1.345
83486W        W54086  15.401  20.883   1.445
83487W        W54087  19.310  27.753  12.496
83488W        W54088   8.495   8.469   0.752
83489W        W54089  31.493  16.477  11.413
83490W        W54090  41.765  18.644   2.305
83491W        W54091  13.578  31.933  14.633
83492W        W54092  36.545  38.368   3.213
83493W        W54093  32.480   3.781  10.549
83494W        W54094  36.936  20.214  14.047
83495W        W54095  23.432  36.599  11.135
83496W        W54096  23.868  27.509   0.494
83497W        W54097   4.489  12.934  14.483
83498W        W54098  17.351  22.710  11.462
83499W        W54099  27.354  24.488  14.517
83500W        W54100   1.360   0.828   1.330
83501W        W54101  29.101  29.155  11.181
83502W        W54102  13.302  21.278  12.862
83503W        W54103  37.280  22.211  13.042
83504W        W54104   5.831   3.014   2.244
83505W        W54105  22.506  18.611  10.649
83506W        W54106  38.825  41.763  13.295
83507W        W54107  17.635  38.079   0.930
83508W        W54108  33.126  28.964  12.992
83509W        W54109  21.069  25.821  11.207
83510W        W54110   7.229  38.572  12.794
83511W        W54111  21.292   1.599  14.733
83512W        W54112   1.063  31.062  12.740
83513W        W54113   3.910  22.132   2.206
83514W        W54114  13.732  30.896  14.468
83515W        W54115  29.971   0.363   3.843
83516W        W54116  23.660  10.312   0.303
83517W        W54117   1.362  17.993   1.239
83518W        W54118  13.812  29.957  13.821
83519W        W54119  23.614  30.124  11.130
83520W        W54120  12.679  41.858   1.267
83521W        W54121  14.264   0.016   4.604
83522W        W54122  43.348  43.047   3.581
83523W        W54123  41.551  39.871  12.427
83524W        W54124  24.786   1.421   1.496
83525W        W54125  15.192  18.126   1.595
83526W        W54126   6.327  34.824  14.915
83527W        W54127  38.667  38.433  13.888
83528W        W54128  23.152   6.500  14.402
83529W        W54129  28.597   7.889  13.340
83530W        W54130  34.664  14.137   0.273
83531W        W54131  29.266  40.885  12.528
83532W        W54132  15.077  22.443  12.552
83533W        W54133  41.695   6.417   3.177
83534W        W54134  41.390  23.722   0.328
83535W        W54135   1.789  41.860   0.027
83536W        W54136  12.573  36.729  12.565
83537W        W54137  27.960  43.537   0.235
83538W        W54138   6.303  28.147   4.179
83539W        W54139  16.094  39.246   0.240
83540W        W54140  34.676  12.166   4.116
83541W        W54141   4.404  28.015  12.853
83542W        W54142  18.101   0.559   1.653
83543W        W54143  12.602   8.368   3.579
83544W        W54144  34.383  11.792   4.336
83545W        W54145  28.974  36.041  11.831
83546W        W54146   2.829  40.883   0.894
83547W        W54147   9.056  12.994   2.633
83548W        W54148  11.014   5.828  11.151
83549W        W54149   9.768  24.131   1.328
83550W        W54150  29.667  30.202   0.834
83551W        W54151  41.522  27.684   1.420
83552W        W54152  19.612  16.993   3.192
83553W        W54153  30.325  18.195   4.765
83554W        W54154  16.999  25.471  14.881
83555W        W54155   1.708  26.597  14.679
83556W        W54156  38.283  33.719  13.760
83557W        W54157  27.559  15.399   3.198
83558W        W54158  13.179  14.193   2.029
83559W        W54159   8.139   5.356   0.379
83560W        W54160  35.300  22.674  13.381
83561W        W54161   3.671  13.020   1.287
83562W        W54162  35.841  24.952  13.152
83563W        W54163  15.050  32.630   2.663
83564W        W54164   9.627  18.249   3.263
83565W        W54165  32.111  25.934  11.642
83566W        W54166   3.355  11.585  14.468
83567W        W54167  20.652  28.743   1.229
83568W        W54168  37.865  17.620  10.406
83569W        W54169  20.839  43.540   2.832
83570W        W54170   7.222   5.328   3.627
83571W        W54171  41.933  18.077   3.712
83572W        W54172  11.287  11.777  11.416
83573W        W54173  31.680  20.502  13.073
83574W        W54174  40.427   3.418  12.085
83575W        W54175   8.613   5.802  14.776
83576W        W54176  28.035  39.420   4.765
83577W        W54177  33.378  21.461   1.930
83578W        W54178  14.746  39.527   4.165
83579W        W54179  25.585  18.681  11.799
83580W        W54180  19.138  20.696  12.002
83581W        W54181  16.030  24.101   4.902
83582W        W54182  20.744  14.647  11.580
83583W        W54183  17.184  29.503   5.172
83584W        W54184  17.113  15.398  11.260
83585W        W54185  30.552   8.168  13.434
83586W        W54186  11.709  16.509   2.227
83587W        W54187  20.461   0.955  13.296
83588W        W54188  19.834   1.718   3.111
83589W        W54189  19.622  10.309   3.850
83590W        W54190   0.983  24.227   0.757
83591W        W54191  16.368   3.192   2.787
83592W        W54192   5.614  26.519  11.325
83593W        W54193  37.625  18.512  10.275
83594W        W54194  43.300  27.235  11.541
83595W        W54195  37.433  13.288   5.100
83596W        W54196  19.087  37.827  12.908
83597W        W54197  24.949  15.165  10.632
83598W        W54198  21.678   6.121   2.764
83599W        W54199   0.857  10.295   3.288
83600W        W54200  17.600  17.586   3.150
83601W        W54201  13.250  15.020  14.020
83602W        W54202  41.868   6.404   1.849
83603W        W54203  23.662  40.253  13.493
83604W        W54204  11.083  27.941   0.411
83605W        W54205  28.967  30.859   2.698
83606W        W54206  21.521  14.834   2.313
83607W        W54207  27.578   4.344   2.047
83608W        W54208  21.546  32.074  12.162
83609W        W54209  37.055   6.255  12.501
83610W        W54210  13.617   1.823   0.425
83611W        W54211   0.032  18.220  12.028
83612W        W54212   9.341  27.831  12.264
83613W        W54213  43.475  14.297  11.818
83614W        W54214  28.606  29.966  12.971
83615W        W54215  44.485  15.178  12.552
83616W        W54216  36.606  40.405  14.980
83617W        W54217   7.829  13.846   3.696
83618W        W54218   0.266  12.749   4.521
83619W        W54219  17.359  28.712  13.927
83620W        W54220  30.449  16.047  12.933
83621W        W54221  32.119  43.014  11.962
83622W        W54222  22.669   1.267  11.973
83623W        W54223  43.337  32.204   3.314
83624W        W54224   5.531   4.486  10.751
83625W        W54225  36.058  14.211   2.231
83626W        W54226   1.103  11.265  12.717
83627W        W54227  41.753  38.047  12.870
83628W        W54228  41.375  40.816   2.821
83629W        W54229  33.378  42.864  13.595
83630W        W54230   0.167  31.061  13.378
83631W        W54231  37.952  28.970  11.478
83632W        W54232   6.039  15.339  13.355
83633W        W54233  20.343  24.035   2.915
83634W        W54234   9.253  28.711   2.542
83635W        W54235  44.319   9.239  11.478
83636W        W54236  10.751  41.586   5.137
83637W        W54237  12.829   2.317   4.090
83638W        W54238   1.036  22.663  13.388
83639W        W54239   9.616  25.540   4.283
83640W        W54240   2.281  23.399   1.724
83641W        W54241   0.432  10.158  10.461
83642W        W54242  22.592  38.953  11.717
83643W        W54243   6.947  26.761   1.213
83644W        W54244   0.462  25.686  13.436
83645W        W54245   0.417  42.718   3.807
83646W        W54246  14.269  11.436  14.355
83647W        W54247  39.820  14.823  14.040
83648W        W54248  31.979  33.136   0.765
83649W        W54249  13.535  28.399   1.970
83650W        W54250   3.764   7.636  13.730
83651W        W54251  40.981  39.503   2.068
83652W        W54252   6.813  36.564  14.949
83653W        W54253  44.131  18.545  14.795
83654W        W54254  20.787   9.915   0.201
83655W        W54255  28.809  41.466   4.602
83656W        W54256  11.433  42.029   3.402
83657W        W54257  32.077   8.738   1.805
83658W        W54258  22.571  28.005   4.158
83659W        W54259  19.131   8.382   1.004
83660W        W54260  14.216  40.024   0.243
83661W        W54261  14.231  27.592   1.940
83662W        W54262   4.836  43.244   3.294
83663W        W54263   8.118   3.114  13.047
83664W        W54264  43.421  13.421  13.481
83665W        W54265  18.713   0.365  13.353
83666W        W54266  24.202  28.561  14.121
83667W        W54267   3.353  25.541  13.417
83668W        W54268  26.039  42.091   2.704
83669W        W54269  34.267  22.443   3.961
83670W        W54270   0.199   0.123  13.540
83671W        W54271   2.242   1.521   4.084
83672W        W54272  12.473  35.116   0.522
83673W        W54273  41.861  26.901  13.437
83674W        W54274  19.343  29.901  14.429
83675W        W54275   4.432  17.361   4.599
83676W        W54276  31.964  24.626  13.629
83677W        W54277  43.808  14.481  14.284
83678W        W54278   8.800   8.781   4.243
83679W        W54279  34.497  18.818   4.972
83680W        W54280  41.533  29.522  14.784
83681W        W54281  17.537  10.873   1.477
83682W        W54282  21.553  37.104   3.306
83683W        W54283   0.875   0.488  12.972
83684W        W54284  24.495   0.283  14.823
83685W        W54285  35.159  29.742  11.236
83686W        W54286  20.983  33.483  10.723
83687W        W54287   1.811  14.662   2.715
83688W        W54288  22.038  24.444   0.391
83689W        W54289  44.370  17.801   3.094
83690W        W54290  25.999  37.087   1.579
83691W        W54291  39.047   9.598  14.991
83692W        W54292  32.533  41.935  11.920
83693W        W54293  41.222  30.404   4.245
83694W        W54294  44.765  32.343   1.419
83695W        W54295   3.375  20.706  14.608
83696W        W54296  16.346   8.640   0.645
83697W        W54297  32.905  13.917   3.652
83698W        W54298  29.659  15.270   2.334
83699W        W54299  37.474  15.307   2.803
83700W        W54300  18.164  42.316   0.481
83701W        W54301  21.316  25.030  13.519
83702W        W54302   7.854  21.819   4.659
83703W        W54303  36.413  41.102   3.929
83704W        W54304  37.357  15.367  10.611
83705W        W54305  27.041  17.203   4.646
83706W        W54306  42.867   3.280   2.847
83707W        W54307  27.153  24.539  15.000
83708W        W54308  21.985   4.451   3.696
83709W        W54309  39.343  11.116  12.964
83710W        W54310  38.961   6.452   1.753
83711W        W54311   0.105  19.505   4.989
83712W        W54312  43.202  15.949   2.327
83713W        W54313  16.238  32.876  13.365
83714W        W54314  10.073  31.548   2.859
83715W        W54315   3.430  27.140   3.768
83716W        W54316  21.510  27.107  13.128
83717W        W54317  25.429  40.629   3.758
83718W        W54318  18.104  21.610  12.668
83719W        W54319  10.315  38.750   2.303
83720W        W54320  18.468  27.201  12.116
83721W        W54321   7.286   0.315  10.654
83722W        W54322  24.239   9.580   2.082
83723W        W54323   7.236  42.363   3.101
83724W        W54324  33.602  25.210   0.842
83725W        W54325   2.190  14.735   1.382
83726W        W54326  32.366   1.986  11.448
83727W        W54327  31.406  31.298   1.384
83728W        W54328  25.600  30.898  11.555
83729W        W54329  22.764  31.159  14.772
83730W        W54330  20.746   6.301   4.281
83731W        W54331  29.496   5.143   4.229
83732W        W54332   3.702  41.362   0.412
83733W        W54333   3.322  39.423  11.617
83734W        W54334  23.630   4.777  13.530
83735W        W54335  40.020  23.458  14.898
83736W        W54336  44.310  28.873   0.942
83737W        W54337  14.638  11.470  12.918
83738W        W54338  25.608  19.325   3.648
83739W        W54339  11.647  43.027  10.207
83740W        W54340  18.178  18.670   0.889
83741W        W54341  28.839   3.237   3.080
83742W        W54342  37.299   8.832  12.924
83743W        W54343  26.975   8.309  13.483
83744W        W54344  35.973  26.597  13.939
83745W        W54345   7.159  36.686  12.448
83746W        W54346  33.893  10.231  14.826
83747W        W54347  34.886  31.975  13.003
83748W        W54348  38.214   3.226  11.599
83749W        W54349  21.798  34.990   1.478
83750W        W54350  16.124  29.054  11.194
83751W        W54351   9.441  34.553   0.287
83752W        W54352  30.604  31.858  11.959
83753W        W54353   8.261  17.757  12.587
83754W        W54354  42.124  25.194   4.210
83755W        W54355   0.307   1.731  13.588
83756W        W54356  13.073  24.114  14.912
83757W        W54357  23.043  26.440  13.861
83758W        W54358  14.413   1.429   0.501
83759W        W54359  23.749  29.018  11.064
83760W        W54360  40.790  23.483  11.998
83761W        W54361  28.248  13.321   4.872
83762W        W54362   7.832  37.961  12.958
83763W        W54363  23.907   0.281  13.538
83764W        W54364  33.443   4.926  11.984
83765W        W54365   3.640  14.297   2.248
83766W        W54366  28.122   3.613  12.530
83767W        W54367  23.453  44.490  11.611
83768W        W54368  10.054  38.798   5.048
83769W        W54369  22.328   6.952   0.395
83770W        W54370  37.082  17.389   2.588
83771W        W54371  22.128  42.921   0.231
83772W        W54372   4.466  28.234  11.072
83773W        W54373   2.792  18.691   4.078
83774W        W54374   2.924  37.116  12.065
83775W        W54375  28.001  36.395  13.945
83776W        W54376  27.026  35.238   3.546
83777W        W54377  28.515   1.985   0.178
83778W        W54378   1.422  31.894   2.603
83779W        W54379  44.027  31.914   3.713
83780W        W54380  36.388  26.239  14.810
83781W        W54381   0.164  26.555  12.680
83782W        W54382  14.380  10.442  12.195
83783W        W54383  28.008  25.989   1.340
83784W        W54384  13.282   6.898  11.120
83785W        W54385  32.148  20.795  10.858
83786W        W54386   0.934   9.145   3.673
83787W        W54387   8.332  13.564   2.288
83788W        W54388  12.052   5.844   0.257
83789W        W54389   2.763  33.218  12.375
83790W        W54390  43.265  32.116   2.346
83791W        W54391  33.953  33.070  13.491
83792W        W54392  22.699  13.125   1.981
83793W        W54393   3.755  29.253  13.106
83794W        W54394  15.745  30.662  12.443
83795W        W54395   5.978  26.662  11.910
83796W        W54396  20.042  16.257   1.390
83797W        W54397  33.964  25.749   4.502
83798W        W54398  26.204  18.576   0.362
83799W        W54399   0.920  30.161   1.816
83800W        W54400  23.761  42.587  11.577
83801W        W54401  15.016   3.822  14.814
83802W        W54402  33.945  11.343   1.803
83803W        W54403  15.028  30.938  11.475
83804W        W54404  22.170  23.150   3.104
83805W        W54405  10.960   0.306  13.215
83806W        W54406  14.098  17.477   4.542
83807W        W54407   4.380  37.217   4.918
83808W        W54408  17.004  19.367  14.383
83809W        W54409  43.622   1.512  13.437
83810W        W54410   9.581  29.510  13.057
83811W        W54411   5.709  15.261  11.536
83812W        W54412  25.245   0.849  12.508
83813W        W54413  12.580  37.714   3.831
83814W        W54414  19.760  39.028  11.147
83815W        W54415  17.731  16.489   0.291
83816W        W54416  42.871   6.655  11.573
83817W        W54417   6.307  43.877   0.350
83818W        W54418  36.506  21.908   4.569
83819W        W54419  42.563  18.587  11.434
83820W        W54420  43.761   8.867  12.611
83821W        W54421  18.535  40.910   4.729
83822W        W54422  31.260  43.985  11.596
83823W        W54423  44.264  39.117  11.713
83824W        W54424  28.560  31.149   2.895
83825W        W54425  22.684  12.147  12.756
83826W        W54426   1.492  18.140   4.270
83827W        W54427  11.604  43.597   2.405
83828W        W54428  38.842  11.516   2.726
83829W        W54429  18.739  11.436  13.035
83830W        W54430  25.122   8.700  14.417
83831W        W54431  27.182  10.466   4.591
83832W        W54432  30.143  24.502   1.615
83833W        W54433  28.074  32.547   0.069
83834W        W54434  18.660  28.949  10.162
83835W        W54435  11.655  11.838  14.440
83836W        W54436   2.345   4.665  12.546
83837W        W54437  28.492  25.737   0.315
83838W        W54438  39.803  40.806   1.199
83839W        W54439  32.351  19.644  11.129
83840W        W54440  30.515   2.775   1.472
83841W        W54441  23.168  42.239  10.727
83842W        W54442  36.369  11.182   3.278
83843W        W54443   2.215  16.423  13.038
83844W        W54444  32.153  40.045  11.629
83845W        W54445  30.515  41.757   2.104
83846W        W54446  41.602  40.210  10.689
83847W        W54447  14.074  34.206  12.588
83848W        W54448  27.521  19.200  14.309
83849W        W54449  43.742  13.309   0.414
83850W        W54450   7.815  43.806  10.766
83851W        W54451  11.270  44.523  10.677
83852W        W54452  30.607  33.780   1.229
83853W        W54453  43.541   2.245  12.799
83854W        W54454  32.523  39.857  14.287
83855W        W54455   3.325  24.524  12.383
83856W        W54456  30.545  13.219  13.445
83857W        W54457  29.397   0.325  11.637
83858W        W54458  35.675  19.506  11.396
83859W        W54459  10.404  23.065  12.027
83860W        W54460  17.679  14.425  10.613
83861W        W54461  13.673  40.976  10.189
83862W        W54462  34.726  29.169  11.964
83863W        W54463  31.328  37.493  12.040
83864W        W54464  39.426   6.851  12.594
83865W        W54465  26.501  19.840   4.916
83866W        W54466   7.067  35.089  11.504
83867W        W54467  39.929  26.574  11.491
83868W        W54468  19.669  21.033   9.921
83869W        W54469  19.945  34.366  10.579
83870W        W54470  33.488  14.666   3.347
83871W        W54471  36.665  20.851  12.479
83872W        W54472  39.863   7.303  14.874
83873W        W54473  37.133  41.251   2.007
83874W        W54474  39.888  31.880  12.981
83875W        W54475   4.340  13.504   0.862
83876W        W54476  25.957  15.717   3.697
83877W        W54477  24.692  30.496   0.376
83878W        W54478  25.301  32.157  14.304
83879W        W54479   4.779  43.155  14.482
83880W        W54480  12.616  37.581  14.303
83881W        W54481  18.010  15.877   1.043
83882W        W54482  41.833   8.765   0.549
83883W        W54483  32.940  10.348   4.843
83884W        W54484  23.859  35.066  12.072
83885W        W54485   4.910  41.221   1.222
83886W        W54486  23.548  39.977   2.139
83887W        W54487  28.607  35.922  11.052
83888W        W54488  32.985  22.470   4.100
83889W        W54489  35.580  18.211   4.649
83890W        W54490  25.230   8.828   3.185
83891W        W54491   4.677   8.500  14.034
83892W        W54492  43.814   8.434  11.708
83893W        W54493  15.098  36.647  12.709
83894W        W54494   4.211  28.633   1.848
83895W        W54495  44.289  32.486   3.673
83896W        W54496  41.624  42.279   4.583
83897W        W54497  32.809  35.693   4.443
83898W        W54498   2.748  16.204  11.033
83899W        W54499  28.049  38.976  10.954
83900W        W54500  30.366  37.951   3.145
83901W        W54501  44.095   3.207  10.772
83902W        W54502  28.699  44.909  12.921
83903W        W54503  16.273   4.149   1.880
83904W        W54504  13.775  13.466  11.934
83905W        W54505  43.821   3.029   3.712
83906W        W54506   3.702   0.010  12.451
83907W        W54507  38.593  12.084  12.049
83908W        W54508   4.903  31.513  10.975
83909W        W54509  13.086  18.068  12.580
83910W        W54510  22.119  36.366   0.370
83911W        W54511  38.852  37.352   0.882
83912W        W54512  28.185   0.072  13.007
83913W        W54513  11.834  13.789   2.419
83914W        W54514  23.091  15.900   2.775
83915W        W54515  19.960  12.152   4.238
83916W        W54516  28.510  24.348  12.811
83917W        W54517  21.748  17.493   0.414
83918W        W54518  30.204  16.212   3.603
83919W        W54519  18.154   8.643   1.813
83920W        W54520  11.491  32.245  10.429
83921W        W54521  38.663   1.817  11.571
83922W        W54522  26.644  17.198   2.006
83923W        W54523  32.987  14.617   1.049
83924W        W54524  11.862  39.404   3.706
83925W        W54525   8.800  18.678   4.075
83926W        W54526  43.269  32.105  14.976
83927W        W54527  34.835  33.916  12.954
83928W        W54528  39.703  14.562   4.176
83929W        W54529   4.918  21.967  14.672
83930W        W54530  12.823  42.439   1.020
83931W        W54531   0.268  36.875   1.694
83932W        W54532  10.879  15.977   0.187
83933W        W54533  37.154  40.481   0.863
83934W        W54534   7.720  10.082   4.653
83935W        W54535  29.550   7.710   5.003
83936W        W54536  30.152  43.965  10.838
83937W        W54537   5.889  33.005  10.698
83938W        W54538   4.911   1.884  12.302
83939W        W54539  42.211  34.328  14.901
83940W        W54540  35.518  30.845   3.598
83941W        W54541   8.305  39.266   2.599
83942W        W54542  22.786  25.429   3.246
83943W        W54543  25.696   8.266   1.844
83944W        W54544   2.996  28.590  12.004
83945W        W54545  16.476  39.949  13.266
83946W        W54546  17.172   7.592   1.643
83947W        W54547  15.113  33.593   2.635
83948W        W54548   9.460  15.630  13.080
83949W        W54549  39.421  25.851   1.906
83950W        W54550  16.651  38.637   4.036
83951W        W54551  31.084  31.581   4.357
83952W        W54552  28.932  21.514  14.010
83953W        W54553  38.272   6.466   3.785
83954W        W54554  14.960   5.912   1.959
83955W        W54555  27.773   3.178   0.372
83956W        W54556  38.852  23.610   4.451
83957W        W54557  35.890  10.113   1.256
83958W        W54558  25.550   8.447  13.232
83959W        W54559   4.350  13.956   4.002
83960W        W54560   1.988  36.482   1.379
83961W        W54561  34.601  31.756   1.720
83962W        W54562  31.315  41.402  11.709
83963W        W54563  17.357  27.486  12.541
83964W        W54564  39.432  43.564  14.520
83965W        W54565  36.302   7.823   2.925
83966W        W54566  38.613   2.943   2.670
83967W        W54567  36.967   1.450  11.149
83968W        W54568  35.456   8.679   3.685
83969W        W54569  34.534  38.889  14.028
83970W        W54570  19.736   1.148   3.348
83971W        W54571  41.273  32.157   1.808
83972W        W54572  16.741  28.574   3.326
83973W        W54573  35.982  32.118  14.971
83974W        W54574  19.313  42.988   4.658
83975W        W54575  37.602   2.414  12.783
83976W        W54576  16.982   4.132   3.677
83977W        W54577  43.417  44.247   0.842
83978W        W54578  22.710  25.966  10.639
83979W        W54579  40.888   6.385   3.822
83980W        W54580   0.320  28.177   3.896
83981W        W54581  39.950   9.415  13.910
83982W        W54582  13.939  39.902   1.666
83983W        W54583  21.150  36.788  13.978
83984W        W54584  37.648  21.949   3.706
83985W        W54585  36.684   9.624  14.811
83986W        W54586  14.749  18.291   2.308
83987W        W54587  37.734  15.275  14.976
83988W        W54588  41.590  15.913   0.499
83989W        W54589   2.886  33.959  13.111
83990W        W54590  32.378  14.359  10.999
83991W        W54591  28.548   3.963  11.640
83992W        W54592  18.184   5.257  14.003
83993W        W54593   9.326   8.815  10.673
83994W        W54594  37.280   5.013   2.331
83995W        W54595  17.175  17.779  14.436
83996W        W54596   7.909  11.549  14.726
83997W        W54597  13.105  38.591   0.825
83998W        W54598  29.879  29.395   3.742
83999W        W54599  37.351  26.455  11.449
84000W        W54600   6.919   0.242   3.877
84001W        W54601  21.386  17.722   2.200
84002W        W54602  35.975   5.679  14.447
84003W        W54603  19.529  10.449  13.042
84004W        W54604  18.993  13.711  14.527
84005W        W54605  25.158  41.534   4.781
84006W        W54606  35.344   7.937  14.419
84007W        W54607  22.618   2.940   2.519
84008W        W54608  28.676  18.579   1.701
84009W        W54609  34.126  42.510  11.637
84010W        W54610  20.796  41.436  10.806
84011W        W54611  33.310  43.683  11.566
84012W        W54612  10.638   1.820  14.912
84013W        W54613   8.167  34.044  11.116
84014W        W54614  16.797  43.710   1.393
84015W        W54615  16.709   1.059   2.201
84016W        W54616   8.708  15.321  13.936
84017W        W54617  16.973  18.136  14.918
84018W        W54618  38.986  10.461  14.576
84019W        W54619   4.664  26.502  11.164
84020W        W54620  11.949  36.192   2.228
84021W        W54621   6.154  40.127  10.802
84022W        W54622  23.663   0.130   2.244
84023W        W54623  34.441  40.473  11.185
84024W        W54624  30.042  27.501  13.684
84025W        W54625   9.247  14.173   4.941
84026W        W54626   4.223   7.873  12.927
84027W        W54627   6.478  19.979  12.050
84028W        W54628  43.237  41.847  13.445
84029W        W54629   1.281   5.798   2.828
84030W        W54630   1.427  17.763   3.143
84031W        W54631  26.125  39.324  14.689
84032W        W54632   9.875   1.056   2.853
84033W        W54633  13.002  32.138  10.320
84034W        W54634   9.289  22.230  11.940
84035W        W54635   7.359  22.787  13.564
84036W        W54636   4.478   2.155  12.005
84037W        W54637   3.369  16.130  13.899
84038W        W54638  22.176  14.115   2.203
84039W        W54639  22.078  15.576   4.551
84040W        W54640  34.079  37.383  12.815
84041W        W54641  28.581   3.282  12.402
84042W        W54642  38.789  35.053   0.910
84043W        W54643  11.751  40.597  12.999
84044W        W54644  15.666   9.337  14.722
84045W        W54645   0.751   3.195   5.053
84046W        W54646   6.684   7.364   3.354
84047W        W54647  34.628  18.092  10.709
84048W        W54648  37.035  18.228   2.140
84049W        W54649  25.916  27.766  13.370
84050W        W54650  13.157  13.384  11.665
84051W        W54651  40.861   5.986   2.848
84052W        W54652  25.138  40.771  13.975
84053W        W54653  11.678  12.246   3.192
84054W        W54654  34.045  26.693  14.495
84055W        W54655   5.400  12.823   0.857
84056W        W54656  38.851  20.726  11.348
84057W        W54657  29.685  18.242   1.707
84058W        W54658  39.998  24.565   1.330
84059W        W54659  22.317  22.726   3.362
84060W        W54660   7.924  31.849   3.854
84061W        W54661  33.345  13.905   3.964
84062W        W54662  32.053  40.923   3.497
84063W        W54663  13.461  40.334   3.556
84064W        W54664  21.990  33.487   1.802
84065W        W54665  27.463  28.151   4.296
84066W        W54666  27.317  35.052  12.284
84067W        W54667  27.624  34.092   1.476
84068W        W54668  19.615  22.977   1.441
84069W        W54669  36.032  30.727  11.101
84070W        W54670  37.413   6.465   1.863
84071W        W54671   9.607   2.778   3.232
84072W        W54672  41.902  35.354  13.837
84073W        W54673   2.238   2.517   1.056
84074W        W54674   1.956  13.372  11.496
84075W        W54675  15.429   8.631  10.657
84076W        W54676  31.687  42.363   1.869
84077W        W54677  14.207  43.232  10.702
84078W        W54678  13.575   5.703   1.102
84079W        W54679  23.831  22.011  13.246
84080W        W54680  24.533  34.064  12.436
84081W        W54681   2.638  39.227  12.895
84082W        W54682  12.763  41.540   3.263
84083W        W54683  35.147  10.745  13.930
84084W        W54684  21.632  26.571   3.271
84085W        W54685   2.464  44.865   0.392
84086W        W54686  25.481  36.108  10.734
84087W        W54687   8.780  12.758  11.870
84088W        W54688  37.769   4.932  12.507
84089W        W54689   4.282  18.613   1.469
84090W        W54690  16.080  42.463   3.859
84091W        W54691  20.667  37.895  13.476
84092W        W54692   9.408  21.371   1.800
84093W        W54693  42.894  36.520   2.174
84094W        W54694  39.592  25.163  13.971
84095W        W54695  44.983  12.814  13.353
84096W        W54696  21.236  18.585  13.744
84097W        W54697  35.088  34.947   1.313
84098W        W54698  12.692   9.766   1.302
84099W        W54699  41.148  13.739  11.137
84100W        W54700  13.722  44.305   0.257
84101W        W54701  17.250  41.720  13.475
84102W        W54702  31.450  14.837  13.502
84103W        W54703   5.670  37.768  14.988
84104W        W54704  32.827  39.079   5.025
84105W        W54705   1.890   3.534  11.989
84106W        W54706  31.547  26.686   1.924
84107W        W54707   3.220  17.043   4.675
84108W        W54708  38.302  13.156   0.985
84109W        W54709   5.622  42.561   2.316
84110W        W54710  29.017  23.977   4.823
84111W        W54711  38.747  17.740   2.339
84112W        W54712  12.466  11.163  12.637
84113W        W54713  10.132  29.577  10.320
84114W        W54714   5.293  37.557  12.971
84115W        W54715  18.872  34.992   4.831
84116W        W54716  24.502   4.303   2.368
84117W        W54717  28.466  41.523  14.860
84118W        W54718  27.442  32.933  12.508
84119W        W54719  12.345  19.273   3.643
84120W        W54720  13.799  31.441   0.513
84121W        W54721  15.205  26.868   1.838
84122W        W54722  13.511  11.440   5.143
84123W        W54723  37.879  29.577   1.350
84124W        W54724  21.213  10.908   1.551
84125W        W54725  26.543  32.808  10.618
84126W        W54726  32.655   3.787   4.918
84127W        W54727  22.210   6.160   3.212
84128W        W54728  25.689  43.365   4.767
84129W        W54729  32.480  18.439  13.171
84130W        W54730  19.702  11.645   4.345
84131W        W54731  41.061  44.573   4.564
84132W        W54732  36.470  13.682   4.733
84133W        W54733   8.931  39.489  12.666
84134W        W54734  38.843  44.919   1.674
84135W        W54735  27.882  41.370   2.947
84136W        W54736  10.163  42.642  10.230
84137W        W54737  16.739  42.074   2.207
84138W        W54738   8.434   6.347   1.864
84139W        W54739   5.427   8.066   3.252
84140W        W54740  20.760  26.035  12.122
84141W        W54741  19.995  17.548   0.177
84142W        W54742  31.553  44.111   3.713
84143W        W54743  34.443  23.545   4.506
84144W        W54744  23.138  35.309   3.603
84145W        W54745  39.896  22.205  10.734
84146W        W54746  29.589  37.604   1.704
84147W        W54747  41.804   5.277   2.215
84148W        W54748  13.168  42.766   0.834
84149W        W54749   0.051  16.822   2.731
84150W        W54750   8.751  28.383  14.453
84151W        W54751  43.943  12.660  11.945
84152W        W54752   2.246   4.955   3.237
84153W        W54753   9.802  36.684   1.404
84154W        W54754  16.049  26.310   4.516
84155W        W54755  27.126  19.729   2.366
84156W        W54756  21.786  20.562  11.178
84157W        W54757  43.506  12.623   0.242
84158W        W54758  36.138  24.699  13.886
84159W        W54759   5.868  31.140  11.210
84160W        W54760  38.366   4.808   4.140
84161W        W54761  32.412  38.919   2.356
84162W        W54762  17.430  27.603   1.698
84163W        W54763  29.704  37.850  11.199
84164W        W54764  18.626  13.096  10.726
84165W        W54765  12.662   3.847   4.614
84166W        W54766  38.118   7.393   1.191
84167W        W54767  10.321  39.947   1.640
84168W        W54768  43.804  40.532   4.023
84169W        W54769  19.746  24.612   4.616
84170W        W54770  40.716  38.185   4.588
84171W        W54771  13.248  26.611   0.914
84172W        W54772  14.856  10.155  13.567
84173W        W54773  24.667  35.021  13.027
84174W        W54774  29.490  41.286   1.963
84175W        W54775  16.780  19.160   4.606
84176W        W54776  40.936  35.027   1.402
84177W        W54777  23.978  20.516   0.551
84178W        W54778  30.602  31.186   3.713
84179W        W54779   4.514   8.594  14.513
84180W        W54780  39.549  26.405   4.530
84181W        W54781  44.743  18.618   2.841
84182W        W54782  36.906  16.838  11.028
84183W        W54783  43.437  33.466  13.166
84184W        W54784  21.244  12.271  10.413
84185W        W54785   6.387  33.673   1.823
84186W        W54786  10.678   4.171  11.932
84187W        W54787  42.357  33.403   2.707
84188W        W54788  14.826  10.742   2.653
84189W        W54789  30.435  23.598   0.751
84190W        W54790  19.087  22.397   0.892
84191W        W54791   9.291  43.501   4.728
84192W        W54792  15.565  11.872   1.183
84193W        W54793  11.121  17.745   0.895
84194W        W54794  11.109  13.730   1.379
84195W        W54795  34.827  10.920  10.963
84196W        W54796  20.584  36.765   0.892
84197W        W54797  23.084  32.617   0.308
84198W        W54798  25.702  23.256   1.396
84199W        W54799  28.417   0.819   1.368
84200W        W54800  29.461  43.950   4.646
84201W        W54801  38.406  18.097  14.341
84202W        W54802  43.266  38.893   1.842
84203W        W54803  17.601  14.613  11.950
84204W        W54804  13.892  23.389  12.510
84205W        W54805  43.997  39.998   4.713
84206W        W54806  38.082  41.512   3.639
84207W        W54807  32.034  12.745  11.911
84208W        W54808  14.732  34.878  14.801
84209W        W54809  29.635  44.511   4.026
84210W        W54810  29.662  15.271  13.413
84211W        W54811   9.004  10.266  11.815
84212W        W54812   3.428   6.994  14.286
84213W        W54813  29.754   1.042   0.454
84214W        W54814  28.144   7.210  13.091
84215W        W54815   6.746  18.987  11.897
84216W        W54816  23.926  30.551  14.919
84217W        W54817  39.723   2.903   3.372
84218W        W54818  16.578   0.961  12.710
84219W        W54819  14.397  18.862  12.950
84220W        W54820   8.596  34.832  12.395
84221W        W54821  23.601   0.085  10.595
84222W        W54822   0.174  20.885  10.576
84223W        W54823  17.772  35.348  14.806
84224W        W54824  22.635  32.249   0.836
84225W        W54825  19.192  29.407  14.452
84226W        W54826   1.506  38.845   2.138
84227W        W54827  34.872  19.624  13.234
84228W        W54828  14.473  40.151   3.677
84229W        W54829  33.077  29.907   4.906
84230W        W54830  26.196  28.001   0.987
84231W        W54831  40.017  44.543   2.871
84232W        W54832  31.977  35.608   2.702
84233W        W54833  21.074  38.061   0.886
84234W        W54834   6.201   0.936   0.862
84235W        W54835  41.746  15.711   0.957
84236W        W54836  34.844  37.732  11.445
84237W        W54837  28.224  32.932   3.184
84238W        W54838  27.255   8.287   0.049
84239W        W54839  31.076  19.509   4.545
84240W        W54840  16.529  18.056   2.823
84241W        W54841  30.403  33.200  14.032
84242W        W54842  15.597  15.035  14.017
84243W        W54843   2.267   8.890   3.144
84244W        W54844   5.454   4.976  10.630
84245W        W54845   6.923  43.548   4.149
84246W        W54846  41.067   9.629  13.451
84247W        W54847  13.415   6.267  10.298
84248W        W54848   5.136  25.239  12.634
84249W        W54849  23.907  41.448  13.897
84250W        W54850  37.416  22.499  11.503
84251W        W54851   5.814  42.533   3.904
84252W        W54852  17.715  18.276   4.119
84253W        W54853  15.348  25.666  13.894
84254W        W54854  41.733  12.168   3.377
84255W        W54855   6.864  32.108   2.269
84256W        W54856   2.983  13.229  13.994
84257W        W54857   2.987  28.979  13.455
84258W        W54858  38.479  25.136   5.159
84259W        W54859  18.542  42.272   1.359
84260W        W54860  33.513  34.300  14.523
84261W        W54861   9.029   8.640  10.288
84262W        W54862  36.260  27.211   0.805
84263W        W54863  44.844  12.927  14.823
84264W        W54864   4.928   0.033  13.434
84265W        W54865   7.743  15.300   0.418
84266W        W54866  43.469  12.818   3.265
84267W        W54867  37.915  40.834  11.717
84268W        W54868   1.210  18.202   3.844
84269W        W54869   0.075   6.306   0.392
84270W        W54870   3.308  40.145   3.999
84271W        W54871  24.505  31.272  13.652
84272W        W54872  41.927  35.624   3.215
84273W        W54873   8.841  21.334  13.868
84274W        W54874   2.870  29.448  10.388
84275W        W54875  23.325   8.190  11.966
84276W        W54876  15.372  17.113  14.447
84277W        W54877  27.086  11.647   2.685
84278W        W54878  24.496   2.415   4.862
84279W        W54879  13.756  22.634  11.649
84280W        W54880  21.126  31.735  12.131
84281W        W54881  41.074  33.413  10.757
84282W        W54882  13.557  40.503   2.320
84283W        W54883  13.351   6.291  11.666
84284W        W54884   0.311   3.040   2.287
84285W        W54885   3.209  36.004   1.565
84286W        W54886   1.729   5.270   3.565
84287W        W54887  16.345  38.594   1.699
84288W        W54888  19.812  24.125   2.855
84289W        W54889   1.994   1.981   4.159
84290W        W54890  24.566  21.575   2.245
84291W        W54891  30.173   9.457   3.511
84292W        W54892  36.456   8.137   0.784
84293W        W54893   8.795  41.970  12.534
84294W        W54894   1.426  23.285   2.741
84295W        W54895  17.513  24.281  13.937
84296W        W54896  28.604  43.916   4.700
84297W        W54897   6.680  31.645  14.808
84298W        W54898   1.763  12.817   2.949
84299W        W54899  22.459  27.022   4.286
84300W        W54900   1.316  21.660  12.948
84301W        W54901  11.163  16.356   1.330
84302W        W54902   7.776   5.215   3.623
84303W        W54903  32.024  17.562   4.660
84304W        W54904  36.444   7.919   0.301
84305W        W54905  42.419  26.213  12.222
84306W        W54906  41.440  43.662  11.177
84307W        W54907  23.773  15.264  13.423
84308W        W54908   0.817  32.886   4.852
84309W        W54909  11.388  26.277  13.937
84310W        W54910   0.760  31.845  14.378
84311W        W54911  40.385  33.703  13.524
84312W        W54912  39.945  34.103   3.632
84313W        W54913  38.353  20.556  14.931
84314W        W54914  22.577  11.359  13.825
84315W        W54915  44.494   3.611   0.937
84316W        W54916  32.338  37.517  11.620
84317W        W54917   8.229  11.886   4.793
84318W        W54918  15.097  29.243   1.448
84319W        W54919   7.314  31.469   4.146
84320W        W54920  23.140   9.437  12.995
84321W        W54921  16.870   2.411  10.635
84322W        W54922  15.739  38.419  10.430
84323W        W54923  15.181  44.258  13.121
84324W        W54924   7.020  21.160  14.716
84325W        W54925  11.079  38.863   1.157
84326W        W54926  26.612  35.897  13.422
84327W        W54927   1.986  15.117  14.802
84328W        W54928  10.036  34.077   3.779
84329W        W54929  38.403  44.658   1.678
84330W        W54930  44.785   0.231   4.102
84331W        W54931  37.048  24.779   2.157
84332W        W54932   2.787   3.420   4.160
84333W        W54933  30.117  23.591   4.592
84334W        W54934  33.388  36.805   2.400
84335W        W54935  38.108  40.869  13.701
84336W        W54936  35.903  34.537  13.041
84337W        W54937  28.480  13.931  14.926
84338W        W54938  26.228  39.069   1.997
84339W        W54939  25.577  10.046  12.896
84340W        W54940  38.270  28.774   0.243
84341W        W54941  22.682  39.402   2.830
84342W        W54942  20.491  30.073  12.542
84343W        W54943  22.686   0.954   0.555
84344W        W54944   3.420   9.729   2.510
84345W        W54945   8.498  13.373   4.484
84346W        W54946  16.982  37.929  13.364
84347W        W54947  11.892   0.424   1.822
84348W        W54948  39.462  41.574  11.659
84349W        W54949  41.810  26.257   4.406
84350W        W54950   0.977  37.649   3.597
84351W        W54951   6.347  28.057  11.274
84352W        W54952   1.485  35.931   3.169
84353W        W54953  28.417   1.511   0.927
84354W        W54954  30.049  37.074  13.856
84355W        W54955  28.640  44.041  12.912
84356W        W54956  28.214  13.133  12.888
84357W        W54957  38.419  25.966  14.105
84358W        W54958  10.077  18.195  14.265
84359W        W54959  39.072  33.136   3.302
84360W        W54960  35.940  24.099  11.975
84361W        W54961   6.486  16.317   1.784
84362W        W54962  23.977  12.089   4.011
84363W        W54963  32.450   7.579  11.147
84364W        W54964  26.771  42.731  13.369
84365W        W54965  10.684   1.836  11.180
84366W        W54966  42.373  40.900   0.983
84367W        W54967   4.338  16.331   3.644
84368W        W54968   5.740  25.994   3.185
84369W        W54969  36.956   0.077  11.706
84370W        W54970  25.949  42.891  14.850
84371W        W54971  22.301   8.750  13.936
84372W        W54972  18.991  39.556  13.417
84373W        W54973  21.406  44.836   1.679
84374W        W54974   3.789  44.559   4.178
84375W        W54975  21.450  32.120   2.729
84376W        W54976  14.825  15.666  10.276
84377W        W54977  10.195  30.292   0.623
84378W        W54978   0.969  20.581  14.511
84379W        W54979  23.212   7.593   3.690
84380W        W54980   7.314  17.120   0.368
84381W        W54981   8.710  16.326   4.839
84382W        W54982  32.207   2.433  10.656
84383W        W54983  23.985  10.173  13.868
84384W        W54984  32.725  11.831   2.184
84385W        W54985  17.010  39.980  11.067
84386W        W54986  33.031  27.939   4.679
84387W        W54987  11.402  25.135  10.791
84388W        W54988  16.633   9.137  13.389
84389W        W54989   6.352  25.720  12.262
84390W        W54990  28.955   3.905  11.948
84391W        W54991   5.807   8.421  12.187
84392W        W54992  15.641  30.038  13.616
84393W        W54993  20.101  14.364  12.169
84394W        W54994  12.170  10.233   1.354
84395W        W54995   2.297  11.807   2.449
84396W        W54996  33.597  40.968  12.997
84397W        W54997  42.945  22.261  13.127
84398W        W54998  18.561  14.801  13.790
84399W        W54999  41.954  31.845   2.262
84400W        W55000  31.465   0.032   1.673
84401W        W55001  13.742  10.097   2.075
84402W        W55002   7.747   6.053  13.845
84403W        W55003   3.902  40.998  10.229
84404W        W55004  40.790   9.934   1.761
84405W        W55005  44.263  16.125  12.976
84406W        W55006   5.737  30.432  14.350
84407W        W55007  33.949  19.579  12.801
84408W        W55008  37.005  36.044  11.140
84409W        W55009   7.237  42.897   3.152
84410W        W55010  36.543  31.967  12.417
84411W        W55011   1.448  29.301  14.915
84412W        W55012   0.773  36.194   0.983
84413W        W55013  42.281  36.327  11.583
84414W        W55014  39.384  12.295   2.694
84415W        W55015  15.779  10.316   4.700
84416W        W55016  18.595  35.078   4.040
84417W        W55017   7.304   8.144   3.144
84418W        W55018   2.447  17.173  12.662
84419W        W55019  33.082  11.880   4.496
84420W        W55020   8.842   0.870  11.492
84421W        W55021  22.500   9.481   5.437
84422W        W55022   2.309  26.392   2.706
84423W        W55023  10.426   1.729  10.757
84424W        W55024  23.780   1.907  11.164
84425W        W55025  16.686  44.694  12.641
84426W        W55026  10.901  42.254   1.202
84427W        W55027  29.617   1.272  11.679
84428W        W55028  22.262  38.124   1.069
84429W        W55029  30.981  29.524  10.323
84430W        W55030  37.826   9.444  14.323
84431W        W55031  32.409  30.551  14.421
84432W        W55032  32.723   7.037  12.995
84433W        W55033   6.363  23.808   1.034
84434W        W55034   9.865  33.478   2.935
84435W        W55035  34.295  28.573  13.296
84436W        W55036  38.864  40.345   0.769
84437W        W55037  24.194  33.534   0.980
84438W        W55038  37.877  25.050  13.935
84439W        W55039   8.734  20.704   4.371
84440W        W55040   3.742  38.305   3.655
84441W        W55041   4.992  16.186   1.181
84442W        W55042   5.820  29.612   4.721
84443W        W55043  16.752  30.472  11.945
84444W        W55044   2.155  10.857  14.905
84445W        W55045  38.828  23.121  10.703
84446W        W55046  18.613  35.899  12.415
84447W        W55047  33.612  14.836  10.727
84448W        W55048  41.980  33.933  11.903
84449W        W55049  24.065   5.152  13.795
84450W        W55050  43.702  41.419   2.637
84451W        W55051  28.451  33.198   1.198
84452W        W55052   9.778  31.747  10.945
84453W        W55053  38.367   2.556  14.909
84454W        W55054   0.225   4.315  12.431
84455W        W55055  40.084  33.127   1.852
84456W        W55056  16.015  12.645  14.124
84457W        W55057  42.508   9.352   2.313
84458W        W55058   0.778  39.425  14.358
84459W        W55059  13.817   3.423   4.360
84460W        W55060  24.541  16.361  11.478
84461W        W55061  36.714  16.684  12.883
84462W        W55062  20.732  25.897  13.489
84463W        W55063   8.167   9.540   4.146
84464W        W55064  42.798  20.134   0.426
84465W        W55065  37.336   8.483   0.415
84466W        W55066  43.959   6.455  13.381
84467W        W55067  26.599   1.528  11.578
84468W        W55068  40.601   0.971  11.462
84469W        W55069  24.559   7.730  11.172
84470W        W55070   2.452  24.788   0.721
84471W        W55071   7.094  32.189  14.019
84472W        W55072  18.520  37.487   5.083
84473W        W55073  36.397  27.550   2.346
84474W        W55074  28.791   2.682  11.047
84475W        W55075  14.337  22.245   0.310
84476W        W55076  24.759  26.964  14.340
84477W        W55077  28.395  42.767   4.732
84478W        W55078   0.020  12.395   3.527
84479W        W55079  18.759  27.450  11.641
84480W        W55080  29.900  33.028  13.993
84481W        W55081  17.896  41.378  10.790
84482W        W55082  33.549  30.542   2.327
84483W        W55083   6.834   9.578   1.905
84484W        W55084  29.123  35.999  13.824
84485W        W55085   2.403  19.934   4.887
84486W        W55086  21.261  33.092  14.833
84487W        W55087  33.312  23.683   3.034
84488W        W55088  23.320   4.814  11.580
84489W        W55089  23.385  35.888  13.401
84490W        W55090  26.018  10.306  13.053
84491W        W55091  41.473  32.952  14.913
84492W        W55092  43.696  21.834  10.754
84493W        W55093  43.764  19.926  11.984
84494W        W55094  22.455  31.581   3.246
84495W        W55095   3.685  30.186   2.870
84496W        W55096   1.790  36.579  11.650
84497W        W55097  11.873  43.497  10.262
84498W        W55098  33.669  42.424  13.571
84499W        W55099  24.546   2.316   4.327
84500W        W55100   5.608   7.783   3.999
84501W        W55101  40.062  42.811   1.195
84502W        W55102  16.018   5.836   3.611
84503W        W55103  11.627  22.210  13.706
84504W        W55104  44.193  39.713  14.396
84505W        W55105   2.279  26.882   4.118
84506W        W55106  20.688   0.000   0.438
84507W        W55107  17.197  24.570   3.179
84508W        W55108   8.705  38.669  10.857
84509W        W55109  37.914   9.690   3.418
84510W        W55110  12.419  29.691  11.594
84511W        W55111   8.967   6.378   4.895
84512W        W55112   9.808  36.561   2.319
84513W        W55113  39.823  10.338  11.518
84514W        W55114  11.247  35.107  10.666
84515W        W55115  37.327  34.466   0.014
84516W        W55116  19.030   0.707  13.007
84517W        W55117  36.852  23.248  13.147
84518W        W55118  33.526  41.940  13.465
84519W        W55119   8.125  29.620   0.253
84520W        W55120  20.761   3.376  12.974
84521W        W55121  28.657  16.190  11.727
84522W        W55122   4.484   5.228   4.212
84523W        W55123   3.793  34.622   1.027
84524W        W55124  40.568  28.037  12.696
84525W        W55125  17.012  35.757   0.984
84526W        W55126  12.866   3.698   1.432
84527W        W55127  33.947  23.721   4.641
84528W        W55128  17.855  26.587  12.438
84529W        W55129  37.927  21.518   0.800
84530W        W55130  30.439  15.648   2.784
84531W        W55131  34.910  31.389   0.350
84532W        W55132  14.759  19.849   1.750
84533W        W55133  43.231  41.099   3.801
84534W        W55134   4.344  38.892  14.149
84535W        W55135   6.511   2.312   1.318
84536W        W55136  25.941   1.491   3.775
84537W        W55137   7.542  43.836   3.510
84538W        W55138  24.764  19.545   3.377
84539W        W55139  25.786  42.251   0.470
84540W        W55140   2.011  38.340  11.050
84541W        W55141  18.639   5.790   2.853
84542W        W55142   4.957  42.153  14.439
84543W        W55143  41.183  17.976  14.366
84544W        W55144  13.103  28.613  10.601
84545W        W55145   4.740   5.116  11.641
84546W        W55146   8.711  33.089  13.534
84547W        W55147   3.674  16.802   4.468
84548W        W55148  33.705   6.401   0.937
84549W        W55149   9.625  37.403   0.883
84550W        W55150  41.535   2.921  11.024
84551W        W55151  31.574  16.084   4.627
84552W        W55152  12.685   6.333   4.859
84553W        W55153  44.416  21.629   3.715
84554W        W55154  26.551  17.814  12.654
84555W        W55155   8.162  21.771   4.196
84556W        W55156  15.732  14.162   1.265
84557W        W55157  22.664  38.781   4.070
84558W        W55158  35.796   1.163   0.330
84559W        W55159   8.306  43.301   1.261
84560W        W55160  25.920  16.469  12.032
84561W        W55161  44.253   6.585  13.871
84562W        W55162  26.455  29.820  11.997
84563W        W55163  17.081   1.418   4.942
84564W        W55164  29.409  30.417   4.555
84565W        W55165  23.930  13.816  14.883
84566W        W55166  28.410  34.032  12.804
84567W        W55167  21.849  13.598  14.169
84568W        W55168   5.380  33.216   9.802
84569W        W55169  27.807  15.081  11.307
84570W        W55170  27.416   2.837  10.393
84571W        W55171  33.525  11.365   9.997
84572W        W55172  38.308  14.524   3.322
84573W        W55173  33.701   2.720   4.172
84574W        W55174   9.305   6.427   0.290
84575W        W55175  19.115  31.384  12.641
84576W        W55176   3.606   8.226  12.820
84577W        W55177   4.953   8.412   0.958
84578W        W55178  36.577  36.631   2.878
84579W        W55179  38.072  18.053   2.670
84580W        W55180  32.946  21.161  12.437
84581W        W55181  10.438  42.130  14.444
84582W        W55182   7.697  39.743  12.359
84583W        W55183  14.721  37.063   4.917
84584W        W55184  14.656  33.678  11.217
84585W        W55185  12.579  33.864   2.324
84586W        W55186  12.071  22.688  10.582
84587W        W55187  42.783  12.644  13.850
84588W        W55188  30.049  41.984   2.110
84589W        W55189   0.449  27.608  11.846
84590W        W55190  11.635  24.136   2.929
84591W        W55191   5.292   9.603   2.382
84592W        W55192  31.909   9.178   1.211
84593W        W55193  44.690   1.854   3.582
84594W        W55194  20.808  12.201   3.867
84595W        W55195   3.464   1.435  11.516
84596W        W55196   8.883  37.892  14.339
84597W        W55197  18.743  16.521  13.972
84598W        W55198  27.432   7.164  14.364
84599W        W55199  40.191  14.662   0.752
84600W        W55200  14.091  32.411   4.227
84601W        W55201  28.579  31.627   2.665
84602W        W55202  33.522  20.086   4.480
84603W        W55203   7.664  44.801   1.816
84604W        W55204  11.790  28.228   4.987
84605W        W55205  21.986  41.885  12.484
84606W        W55206  16.659  39.547   2.891
84607W        W55207   3.898   4.192   2.674
84608W        W55208   5.632   5.349   0.756
84609W        W55209   2.781   9.911   3.737
84610W        W55210  42.467  39.516  14.542
84611W        W55211  26.196  22.043   4.630
84612W        W55212  32.376  35.924   4.618
84613W        W55213  27.086   2.584  10.737
84614W        W55214  22.309  13.838   1.318
84615W        W55215   2.570  15.029   4.572
84616W        W55216   9.275  41.622   1.316
84617W        W55217   9.356  27.173  14.479
84618W        W55218  36.091  40.374  13.268
84619W        W55219  17.594  14.719  13.884
84620W        W55220  36.282  21.184  12.494
84621W        W55221  34.950  15.582   4.050
84622W        W55222  39.870  25.259   4.238
84623W        W55223  28.662  24.318  11.401
84624W        W55224  22.494   4.718   3.205
84625W        W55225  11.889   3.938   1.671
84626W        W55226   2.283  37.296   3.140
84627W        W55227   0.945  28.952   0.956
84628W        W55228   4.789  32.450   2.882
84629W        W55229  23.131  19.129   2.198
84630W        W55230  42.167  38.863   0.807
84631W        W55231  14.790  14.060   1.287
84632W        W55232  28.810  21.704  14.980
84633W        W55233  41.482  41.810   2.651
84634W        W55234  28.866   1.208  14.341
84635W        W55235   1.411   5.774  11.628
84636W        W55236  10.580   8.755  14.275
84637W        W55237  33.688   0.200  14.250
84638W        W55238  24.567  32.290  13.809
84639W        W55239  26.185  38.804  14.838
84640W        W55240  11.759  30.589   5.133
84641W        W55241  28.866   9.571   2.352
84642W        W55242  28.903  39.386  11.633
84643W        W55243  11.723  23.795  12.974
84644W        W55244  17.091  20.130  13.328
84645W        W55245   0.975  28.014  14.939
84646W        W55246  37.067  31.154  13.638
84647W        W55247  36.553   5.479   1.251
84648W        W55248  34.579  36.861   3.130
84649W        W55249   2.256  12.898   0.287
84650W        W55250  28.442  13.787   4.827
84651W        W55251   4.684  10.513   0.297
84652W        W55252  17.143   7.960  14.602
84653W        W55253  27.700  22.830  14.573
84654W        W55254   3.992   6.534  13.715
84655W        W55255   6.586  17.231   0.874
84656W        W55256  14.919  15.821   2.328
84657W        W55257  17.230   5.755   1.180
84658W        W55258  14.340  27.274   0.308
84659W        W55259  32.549  38.874  10.852
84660W        W55260   1.042  40.135   1.861
84661W        W55261  28.050  35.587   3.679
84662W        W55262  20.006  31.699  12.522
84663W        W55263  13.042  26.915  13.787
84664W        W55264  11.729  27.784  12.525
84665W        W55265  37.588  39.536   0.759
84666W        W55266  15.733  41.288  10.800
84667W        W55267  10.910  28.150   3.330
84668W        W55268   1.486  44.984  11.602
84669W        W55269   9.648   1.725  11.099
84670W        W55270  36.194  19.758  13.523
84671W        W55271  26.227   2.266  12.932
84672W        W55272  21.465  11.768  11.691
84673W        W55273  18.077   9.303  12.935
84674W        W55274   2.525  16.788   3.255
84675W        W55275  26.220  41.313   0.242
84676W        W55276   3.134   6.179  13.979
84677W        W55277  36.522   2.165   0.417
84678W        W55278  30.914  12.366  11.195
84679W        W55279   3.878  24.001   2.676
84680W        W55280   4.709  35.053  12.872
84681W        W55281  37.600  32.268   3.590
84682W        W55282  36.422  32.692  11.990
84683W        W55283  15.610   5.317  13.471
84684W        W55284   8.690  19.171  14.321
84685W        W55285  30.816  15.670   3.769
84686W        W55286   5.280  18.791   0.053
84687W        W55287  35.976  38.561  12.109
84688W        W55288   6.780  13.856   3.707
84689W        W55289   9.884  15.844   5.148
84690W        W55290   9.415  22.768  13.433
84691W        W55291  14.189   6.221   2.521
84692W        W55292  30.593  13.875  14.018
84693W        W55293  26.256  39.824  14.867
84694W        W55294   9.229  34.575   4.587
84695W        W55295  28.505  37.622   4.227
84696W        W55296  35.519  21.807   1.346
84697W        W55297  43.509  17.775   3.431
84698W        W55298  18.561  15.093   3.146
84699W        W55299  29.247  12.847   2.764
84700W        W55300   3.241  42.177  14.875
84701W        W55301  25.734  18.333   1.651
84702W        W55302  26.910  42.463  12.045
84703W        W55303  34.139  28.531   3.693
84704W        W55304  31.578  28.006  14.908
84705W        W55305  19.499  43.932   0.915
84706W        W55306  22.178  38.392   2.839
84707W        W55307   7.330  31.711   1.285
84708W        W55308  33.535  38.873  10.882
84709W        W55309  26.069   9.439   1.293
84710W        W55310   9.179   8.319  10.751
84711W        W55311  20.307   8.424  11.835
84712W        W55312  14.937  18.532   0.292
84713W        W55313  38.764  36.773  13.568
84714W        W55314  11.753  27.743   4.076
84715W        W55315   4.774  12.932  14.017
84716W        W55316  35.475   3.412  11.016
84717W        W55317  23.480  31.016   1.799
84718W        W55318   9.798  31.687  10.444
84719W        W55319  32.880  32.820   4.518
84720W        W55320  24.534  11.804  10.650
84721W        W55321  27.096   6.346   4.403
84722W        W55322  13.330   0.320  10.959
84723W        W55323  32.155   9.342   3.324
84724W        W55324  27.015  11.704   4.253
84725W        W55325  27.495  37.441  10.888
84726W        W55326  14.664  15.709  12.122
84727W        W55327   2.336   7.429   3.221
84728W        W55328  44.739   4.653  12.095
84729W        W55329  22.325  34.322   1.192
84730W        W55330  15.659  17.644   4.091
84731W        W55331  36.981  33.370   2.725
84732W        W55332  16.699  10.048  12.434
84733W        W55333   8.828   6.711  11.168
84734W        W55334  19.413  31.124  11.898
84735W        W55335  40.433  36.950   4.145
84736W        W55336   9.440  26.295   2.502
84737W        W55337   3.408   4.944   2.528
84738W        W55338  21.630  40.358  10.241
84739W        W55339  42.117   4.751   0.999
84740W        W55340  37.932  36.331  11.146
84741W        W55341  11.745  34.469   4.884
84742W        W55342  21.304  16.105   0.533
84743W        W55343  39.313  31.938  14.450
84744W        W55344  24.515   2.375   1.326
84745W        W55345   3.223   5.933   2.405
84746W        W55346  23.477  33.990  12.586
84747W        W55347  27.066  42.204   2.714
84748W        W55348   9.212  23.229   2.018
84749W        W55349  27.027  24.896   1.371
84750W        W55350   2.889  44.861  12.090
84751W        W55351  37.982   3.306  10.074
84752W        W55352  23.780  24.151  14.055
84753W        W55353  37.374  17.859   4.302
84754W        W55354   1.240  37.406   3.155
84755W        W55355  37.338  20.073  11.832
84756W        W55356  37.075  37.565  14.950
84757W        W55357  11.654  13.735   1.410
84758W        W55358  13.214  25.678   3.175
84759W        W55359  32.033  43.077   1.806
84760W        W55360  12.832  25.663  12.162
84761W        W55361  33.136  21.531   4.091
84762W        W55362  22.361   9.734  10.400
84763W        W55363   5.392  30.612  14.899
84764W        W55364  39.131  43.777   3.788
84765W        W55365  15.362   2.097   2.783
84766W        W55366  17.164  14.645  13.615
84767W        W55367  26.106  16.372   4.773
84768W        W55368  35.969  25.645  12.800
84769W        W55369  29.396  11.839  14.017
84770W        W55370  12.671  37.654  11.876
84771W        W55371   4.980  36.368   1.752
84772W        W55372  13.756  22.550   2.273
84773W        W55373  23.008  37.490  12.975
84774W        W55374  29.149  37.286   2.995
84775W        W55375  10.166   3.858   1.568
84776W        W55376   2.865  35.978   2.214
84777W        W55377   2.774  31.171  14.015
84778W        W55378  31.510  41.530   2.374
84779W        W55379   3.961  38.639  13.357
84780W        W55380   3.198  16.635  13.072
84781W        W55381  19.178  24.446  12.378
84782W        W55382  38.188  30.701   0.293
84783W        W55383   4.393  34.909   2.773
84784W        W55384  12.266  36.352   3.738
84785W        W55385  35.155  16.746  11.968
84786W        W55386  12.258   4.935   3.137
84787W        W55387  29.637  23.716  11.582
84788W        W55388   3.939  36.333   0.209
84789W        W55389  38.932  22.071  11.686
84790W        W55390   0.008   8.650  12.335
84791W        W55391  18.608  32.710  11.127
84792W        W55392  44.756  22.112   2.758
84793W        W55393   9.578  41.946  11.044
84794W        W55394   4.695  42.592  10.255
84795W        W55395  20.638  26.079  13.997
84796W        W55396   9.663  17.115   1.762
84797W        W55397  28.552  37.304   2.195
84798W        W55398  33.023  44.527   4.391
84799W        W55399  34.986  20.159  12.022
84800W        W55400  27.233  41.579  14.377
84801W        W55401   5.675  42.471  13.867
84802W        W55402  32.364   5.111   3.412
84803W        W55403  11.297  20.020   0.334
84804W        W55404  37.482   7.514   0.838
84805W        W55405  20.566  10.766   1.732
84806W        W55406  27.461   3.283   3.779
84807W        W55407  36.734  37.112   3.719
84808W        W55408  30.075  21.774   1.678
84809W        W55409  28.231  20.682   4.665
84810W        W55410  32.642  43.665   1.225
84811W        W55411   8.731  31.005   3.590
84812W        W55412   0.923  10.359  13.801
84813W        W55413  31.624   4.456  11.584
84814W        W55414  43.496  13.692   3.585
84815W        W55415  19.987   7.253   2.787
84816W        W55416  21.652  13.831   0.924
84817W        W55417   7.615  37.139  10.367
84818W        W55418  11.065  21.617  14.296
84819W        W55419   2.965  23.484   2.074
84820W        W55420  19.633  16.062   1.967
84821W        W55421  40.748   0.256  14.102
84822W        W55422   9.317  43.329  12.924
84823W        W55423  35.948  38.931   1.949
84824W        W55424  33.983  35.318   4.045
84825W        W55425  12.738  19.356  13.444
84826W        W55426  30.579  33.029  12.001
84827W        W55427   8.577  25.630  14.032
84828W        W55428   8.349  20.990   2.228
84829W        W55429  42.807  22.224   4.555
84830W        W55430  34.517   6.431   4.455
84831W        W55431  31.018  37.904  11.178
84832W        W55432  19.768  21.491   1.429
84833W        W55433  14.843  12.281   1.169
84834W        W55434  27.894  12.725  12.538
84835W        W55435  39.892  43.262  11.865
84836W        W55436  29.408   5.760  12.968
84837W        W55437  41.243  11.707  13.540
84838W        W55438  35.660  41.510   4.571
84839W        W55439   8.836  36.601   0.929
84840W        W55440  17.453  33.716  14.458
84841W        W55441   6.220   8.840   4.978
84842W        W55442  35.365   3.295   2.423
84843W        W55443  10.788  20.645  12.420
84844W        W55444  10.324  26.637  10.791
84845W        W55445  18.650  13.771   3.605
84846W        W55446  38.307  17.193  13.820
84847W        W55447   9.947  41.356  13.559
84848W        W55448   2.930   2.399   0.272
84849W        W55449  32.655  33.605   4.206
84850W        W55450  43.966  12.162  11.946
84851W        W55451   4.960  16.566   4.212
84852W        W55452  35.359  42.016   2.662
84853W        W55453  29.683   0.886  14.238
84854W        W55454  19.298  42.758  12.775
84855W        W55455   7.954  39.519   2.862
84856W        W55456  33.906  16.764  10.862
84857W        W55457  14.349   3.385  14.165
84858W        W55458  13.938  22.748  13.367
84859W        W55459  24.581  16.605   0.388
84860W        W55460  18.075  15.554  14.158
84861W        W55461  34.944  40.764   0.738
84862W        W55462   7.847  39.892  13.890
84863W        W55463  32.460   9.279   0.337
84864W        W55464   0.123   3.708   1.632
84865W        W55465  34.946  22.246  14.471
84866W        W55466  42.398   2.042   2.920
84867W        W55467  38.630  41.958  12.612
84868W        W55468  43.436  40.591  12.916
84869W        W55469  33.789  13.643   2.733
84870W        W55470  44.710  17.237   2.775
84871W        W55471  11.625   7.769   2.952
84872W        W55472  37.599  16.219  11.078
84873W        W55473  24.227  23.543   0.887
84874W        W55474  28.507   3.681  10.527
84875W        W55475  11.957  28.985  14.090
84876W        W55476  29.122  22.497   4.868
84877W        W55477  10.633  16.879   4.461
84878W        W55478  40.853  25.483  12.937
84879W        W55479  34.847   6.288  14.080
84880W        W55480  34.364  34.436  10.579
84881W        W55481  14.317   6.616  11.157
84882W        W55482  15.563  11.287   3.796
84883W        W55483  29.136  16.161  12.527
84884W        W55484  39.968  11.845   4.368
84885W        W55485  25.733  13.640   2.395
84886W        W55486  21.120  37.099   4.565
84887W        W55487  12.720  32.244   3.322
84888W        W55488  24.183   8.766   2.308
84889W        W55489   9.277  10.729  11.877
84890W        W55490  39.458  25.908  13.098
84891W        W55491  27.012  40.121  12.806
84892W        W55492  30.820  30.411  13.973
84893W        W55493  31.609  30.988  12.517
84894W        W55494  15.182  18.039   0.207
84895W        W55495  32.737   4.193   1.747
84896W        W55496   9.419   0.463   1.817
84897W        W55497  44.052  29.492  13.411
84898W        W55498  44.220  28.070   0.277
84899W        W55499  37.118  14.797   1.845
84900W        W55500  39.615  16.137  14.353
84901W        W55501  37.544  32.103  13.478
84902W        W55502  18.261  36.404   3.664
84903W        W55503  39.602   9.880   2.907
84904W        W55504  14.440  23.768  11.938
84905W        W55505   5.333   3.992   2.856
84906W        W55506  39.243  44.457  14.329
84907W        W55507  37.614  42.456   0.382
84908W        W55508  14.903  39.707  11.148
84909W        W55509  32.106  17.274   4.041
84910W        W55510  35.000   8.759  12.315
84911W        W55511   2.676   4.298  13.844
84912W        W55512  14.779  19.161  13.942
84913W        W55513  36.088  22.821  13.013
84914W        W55514  31.631  33.867   1.902
84915W        W55515  31.642  43.427   1.848
84916W        W55516  32.941  13.428  14.244
84917W        W55517  27.861  30.904   0.781
84918W        W55518   6.679  19.261   4.717
84919W        W55519   8.764   5.909   4.571
84920W        W55520  27.968  17.858   3.593
84921W        W55521  14.781   8.763  11.731
84922W        W55522  24.439  32.509   1.990
84923W        W55523  39.043   6.815  14.107
84924W        W55524  22.025  42.553   2.797
84925W        W55525  44.392  30.341   4.946
84926W        W55526  44.242  31.464   3.583
84927W        W55527  30.989   6.160  10.764
84928W        W55528  12.187   5.740   3.797
84929W        W55529  13.151   3.125   3.152
84930W        W55530  10.655   7.737   1.978
84931W        W55531  41.281  13.170  13.013
84932W        W55532  13.008   5.771  13.806
84933W        W55533  43.845   3.267  12.955
84934W        W55534  39.711   4.621   3.737
84935W        W55535   2.165  35.485   4.190
84936W        W55536  19.152  44.486   1.524
84937W        W55537  29.071   6.584  12.114
84938W        W55538  40.941   7.437   1.723
84939W        W55539   3.503  10.168  10.726
84940W        W55540  44.290  44.020   4.371
84941W        W55541  27.527  33.434  12.037
84942W        W55542  20.202  22.808   0.958
84943W        W55543   9.250  10.389   0.935
84944W        W55544  38.282  44.861  12.112
84945W        W55545  43.726  37.955   1.578
84946W        W55546  20.488  38.499   4.546
84947W        W55547  39.172  14.832  14.877
84948W        W55548  42.955  23.760  14.011
84949W        W55549   3.860  31.014  10.568
84950W        W55550   3.219  35.536   2.322
84951W        W55551  26.177   0.319  10.446
84952W        W55552  36.464  21.997  14.891
84953W        W55553   7.580   9.300  14.403
84954W        W55554  12.605  21.910   4.139
84955W        W55555   2.468  10.613  11.934
84956W        W55556   6.406  43.826   4.661
84957W        W55557  31.143  25.435   2.287
84958W        W55558   4.933  19.300   2.328
84959W        W55559  24.738  26.073  14.904
84960W        W55560  21.181  16.593   9.871
84961W        W55561  39.611  17.902   0.025
84962W        W55562  32.172  20.240  10.736
84963W        W55563  13.595  17.758   4.513
84964W        W55564  10.866  22.103  14.346
84965W        W55565  38.675  22.798   1.784
84966W        W55566  36.465  18.770   0.329
84967W        W55567  33.589  17.090  13.492
84968W        W55568  37.987  13.328   3.711
84969W        W55569   7.343  11.329  12.053
84970W        W55570  40.579  35.541  12.370
84971W        W55571  32.848  30.131   2.751
84972W        W55572  25.627   0.690   4.413
84973W        W55573   3.236  10.873  11.187
84974W        W55574  42.863  43.804   2.380
84975W        W55575  10.324   2.330   3.578
84976W        W55576  28.335  40.443   3.794
84977W        W55577   6.473   5.562  12.032
84978W        W55578  15.241   8.144   2.427
84979W        W55579  41.903  13.881   1.345
84980W        W55580  27.638   0.037  12.303
84981W        W55581  29.702   1.588  11.157
84982W        W55582  13.292  39.006  13.858
84983W        W55583  13.255  39.503   2.505
84984W        W55584  25.566  34.993  10.612
84985W        W55585  10.805  39.500  12.624
84986W        W55586  24.002  35.754   0.641
84987W        W55587  33.256  11.527  14.392
84988W        W55588   1.794   5.896  13.994
84989W        W55589  10.751  16.658   3.173
84990W        W55590   2.480   3.352  12.937
84991W        W55591  19.129   8.457  11.929
84992W        W55592  15.189  43.966  14.391
84993W        W55593  21.587   5.871  10.573
84994W        W55594   7.139  37.453  14.890
84995W        W55595  12.247   5.278  12.403
84996W        W55596   7.668  37.085   2.316
84997W        W55597  33.570  30.661   0.459
84998W        W55598  36.550   0.658   0.536
84999W        W55599  44.693   5.974  11.690
85000W        W55600   3.260  15.110   4.291
85001W        W55601  24.868  27.997   4.765
85002W        W55602  26.810  33.004  11.478
85003W        W55603  34.381  40.527   1.976
85004W        W55604  26.392  10.266  14.389
85005W        W55605  27.137  25.496   4.167
85006W        W55606   2.084  38.892   4.112
85007W        W55607  25.055  17.320   0.220
85008W        W55608   3.898  24.714  11.106
85009W        W55609  26.018  37.602   0.314
85010W        W55610  38.607  10.099   1.627
85011W        W55611   5.462  33.922  12.579
85012W        W55612  38.776  29.609   1.526
85013W        W55613  33.714  39.826   2.747
85014W        W55614  43.400  28.585   4.555
85015W        W55615  44.925  14.184  13.549
85016W        W55616  10.289  28.981   0.379
85017W        W55617  33.764  25.150  12.045
85018W        W55618  29.379  44.779  10.858
85019W        W55619   6.295   9.556   0.361
85020W        W55620  13.250  38.411   3.667
85021W        W55621   4.625  22.284  14.328
85022W        W55622  43.850  38.928  14.858
85023W        W55623  10.955  12.648   1.774
85024W        W55624  14.432  19.961  12.170
85025W        W55625   6.504  41.464  11.041
85026W        W55626   6.152   8.789   1.425
85027W        W55627  44.579  28.607  13.982
85028W        W55628  26.982  37.390  11.019
85029W        W55629  42.814  34.456  14.011
85030W        W55630  12.580  30.144   1.951
85031W        W55631  11.741  20.663   2.361
85032W        W55632  25.947  39.999   3.110
85033W        W55633  10.685  38.519  12.738
85034W        W55634  23.345   9.866   0.144
85035W        W55635  17.722  33.640  14.885
85036W        W55636  39.085  32.602  14.909
85037W        W55637  22.655   3.951   4.881
85038W        W55638  40.220  43.871   0.837
85039W        W55639  38.327  42.255  12.260
85040W        W55640  13.739   5.229   1.465
85041W        W55641  26.825  32.428   2.581
85042W        W55642  14.345  25.166  11.558
85043W        W55643   5.878  31.912  14.387
85044W        W55644  17.253  42.772   0.350
85045W        W55645   1.459  15.102  11.596
85046W        W55646   3.919  25.462   3.793
85047W        W55647  21.523  30.386  13.115
85048W        W55648  16.652  32.932  14.030
85049W        W55649  17.219   7.384   1.157
85050W        W55650  27.949  30.143   3.768
85051W        W55651  40.809  17.314   4.694
85052W        W55652  35.488  28.897   2.330
85053W        W55653  32.307  41.304   5.603
85054W        W55654  19.443  28.528   2.895
85055W        W55655  27.481  13.721  10.865
85056W        W55656  10.121  30.907   4.021
85057W        W55657  28.038  18.644  10.273
85058W        W55658  31.048   5.250   2.211
85059W        W55659  39.798  20.726  14.858
85060W        W55660  15.420  37.462   2.002
85061W        W55661  11.445  11.777  14.906
85062W        W55662  14.857  41.561  14.506
85063W        W55663   5.476   3.802   4.704
85064W        W55664  43.768  12.874   0.692
85065W        W55665  20.470  26.036  11.697
85066W        W55666   6.906  44.719   0.391
85067W        W55667   3.467  18.786   4.658
85068W        W55668  43.245  26.133   2.427
85069W        W55669  15.094  10.475   1.339
85070W        W55670  44.301  11.804   1.854
85071W        W55671  44.857  23.058  14.888
85072W        W55672  16.325   5.815   0.182
85073W        W55673  21.750  32.337  14.863
85074W        W55674   2.275  38.492   1.616
85075W        W55675   8.859  26.001   4.951
85076W        W55676  19.306   3.454   2.921
85077W        W55677  16.688  33.471  11.991
85078W        W55678  20.664   4.800  14.745
85079W        W55679  15.154   1.685   4.575
85080W        W55680  11.345  15.809   0.850
85081W        W55681  12.261  10.827  13.442
85082W        W55682  38.060  14.321   4.645
85083W        W55683  33.641   0.261   1.141
85084W        W55684  43.363  28.901  14.540
85085W        W55685  37.840  39.735  14.077
85086W        W55686  44.320  30.913  14.783
85087W        W55687  33.429   0.411  13.825
85088W        W55688  20.120  14.816  10.665
85089W        W55689  42.946  11.144  10.669
85090W        W55690  11.543  17.608  13.910
85091W        W55691  23.038  23.593  14.193
85092W        W55692  40.840  33.639   2.074
85093W        W55693   2.854  43.991  13.781
85094W        W55694  27.661  44.412   2.700
85095W        W55695   2.247   2.478   4.185
85096W        W55696  43.263   2.875  10.705
85097W        W55697  27.846  38.338   0.571
85098W        W55698  34.985   7.067  12.011
85099W        W55699   4.866  30.117  13.422
85100W        W55700  22.105  44.792   3.376
85101W        W55701  18.673  16.776   2.380
85102W        W55702  35.143   5.271  14.477
85103W        W55703  26.150   3.161   1.651
85104W        W55704  40.950  42.125   4.273
85105W        W55705   2.530  38.819   4.380
85106W        W55706  21.289  16.417   4.185
85107W        W55707  24.282   2.788   5.227
85108W        W55708  17.493   1.198  11.280
85109W        W55709   3.652  13.209  12.501
85110W        W55710  44.376  12.143  13.408
85111W        W55711  15.599  31.365  13.140
85112W        W55712  22.745  13.876  12.546
85113W        W55713  44.330  17.979   4.762
85114W        W55714  19.340  10.539  11.858
85115W        W55715  14.225  19.830  14.971
85116W        W55716   0.982  13.811  14.302
85117W        W55717   1.291  10.885  13.223
85118W        W55718  38.821  40.476  11.187
85119W        W55719  37.787  11.787   1.388
85120W        W55720   2.683  21.516  13.864
85121W        W55721   2.297  24.907  10.474
85122W        W55722   7.615  15.063   0.864
85123W        W55723   9.136   7.768  11.928
85124W        W55724  36.851  44.596  11.523
85125W        W55725  21.727  16.800   3.257
85126W        W55726  14.295  42.351   2.672
85127W        W55727   7.856   2.882  10.932
85128W        W55728  39.857  37.740   2.292
85129W        W55729  17.489  29.409   2.181
85130W        W55730  27.967   1.844   2.386
85131W        W55731  21.295  25.970   0.403
85132W        W55732  17.036  37.778   4.111
85133W        W55733  26.753  18.075  13.911
85134W        W55734  15.261  12.663   2.683
85135W        W55735   7.170   1.751   4.116
85136W        W55736   6.323  33.006   4.655
85137W        W55737  23.243  33.927  11.018
85138W        W55738  32.618   1.169  12.579
85139W        W55739  29.373  29.321   3.527
85140W        W55740  32.881  16.544  11.453
85141W        W55741  17.253   3.420  13.868
85142W        W55742  43.073  21.986   2.811
85143W        W55743  38.353  26.063  13.579
85144W        W55744  40.063  10.506   3.432
85145W        W55745  43.831   2.923   4.605
85146W        W55746  35.977  32.220   1.730
85147W        W55747  20.095  35.542  12.000
85148W        W55748  39.021   0.371  13.095
85149W        W55749  41.014  29.545   3.840
85150W        W55750   0.932  21.044  14.276
85151W        W55751  34.576  42.236   0.076
85152W        W55752  40.755  43.163  12.959
85153W        W55753  38.936  43.816   2.288
85154W        W55754  34.828  24.077  13.081
85155W        W55755   8.948  29.956  12.527
85156W        W55756  41.117  31.011  12.037
85157W        W55757  35.018  14.253  11.721
85158W        W55758  11.157  26.722  12.895
85159W        W55759  24.681   4.631   4.208
85160W        W55760  20.243  43.482  10.648
85161W        W55761  11.937   6.918  11.161
85162W        W55762   4.990  40.215   2.482
85163W        W55763  39.736   6.221   1.258
85164W        W55764  16.633  35.476   5.009
85165W        W55765  22.774  26.292   5.108
85166W        W55766   7.796  33.081   4.842
85167W        W55767  27.099  27.392   4.049
85168W        W55768  27.540  40.300  12.137
85169W        W55769  31.558  30.553  12.853
85170W        W55770   0.385  35.627   1.284
85171W        W55771  22.553  26.467  12.449
85172W        W55772  28.772  28.890   2.247
85173W        W55773  22.528  28.120   2.328
85174W        W55774  37.005  25.200   4.668
85175W        W55775  16.175   5.286  12.145
85176W        W55776  36.595  25.453  11.620
85177W        W55777  19.153  33.683   3.210
85178W        W55778  42.802  16.034  11.173
85179W        W55779  15.711  40.264   0.775
85180W        W55780  31.580  10.117   3.636
85181W        W55781  24.096  33.371  13.591
85182W        W55782  31.888  24.994   3.868
85183W        W55783  14.209  44.228  12.486
85184W        W55784  13.898  37.035   3.878
85185W        W55785  32.992  43.412  10.605
85186W        W55786  34.030  33.568  14.509
85187W        W55787  35.445  28.588   0.426
85188W        W55788  38.873   7.034  13.335
85189W        W55789  38.092  41.331   2.240
85190W        W55790  20.277  15.618   3.070
85191W        W55791  21.067  40.120  11.135
85192W        W55792  34.314   3.922  14.241
85193W        W55793  43.295  31.581   2.336
85194W        W55794   3.392  32.013  13.424
85195W        W55795  17.308  23.973  11.153
85196W        W55796  25.477  41.481   1.270
85197W        W55797  26.560  10.854   0.161
85198W        W55798  43.811  27.236   4.830
85199W        W55799  11.259  17.480  12.427
85200W        W55800   1.939  34.155   1.847
85201W        W55801   0.078  35.058  13.601
85202W        W55802  44.660   4.379   3.900
85203W        W55803  30.456  22.651  13.534
85204W        W55804   6.421  28.158   1.358
85205W        W55805  38.890  43.639  11.614
85206W        W55806  18.567  23.265   0.067
85207W        W55807  23.044  19.447  12.845
85208W        W55808  31.428  44.887  14.488
85209W        W55809   0.010  23.229  14.156
85210W        W55810  24.700  14.408  11.497
85211W        W55811  38.327  21.714   1.717
85212W        W55812  19.532  25.626   1.646
85213W        W55813  17.038   6.812  11.958
85214W        W55814   2.338   8.942  11.219
85215W        W55815   4.396  15.832   0.072
85216W        W55816  38.917  39.294   1.801
85217W        W55817  13.651  44.981   0.682
85218W        W55818  27.737  14.834   4.455
85219W        W55819  23.897  11.913   2.064
85220W        W55820   9.261  13.876   1.684
85221W        W55821   3.709  31.463  12.127
85222W        W55822   7.766  12.561  10.516
85223W        W55823  16.281  31.841   0.794
85224W        W55824  18.738  32.937  12.827
85225W        W55825  44.421  14.372   4.046
85226W        W55826  12.820  34.657   3.543
85227W        W55827  27.017  36.580  14.430
85228W        W55828   3.298  31.132   2.033
85229W        W55829  30.381  42.957  12.383
85230W        W55830  17.536  32.010  11.619
85231W        W55831  30.205  28.635   3.224
85232W        W55832  23.206   5.201   0.994
85233W        W55833  41.420  24.967   4.487
85234W        W55834   8.404  12.094  10.685
85235W        W55835  14.327  15.762  12.494
85236W        W55836  29.138  38.208  12.550
85237W        W55837  40.566  33.473  10.739
85238W        W55838  40.864  38.226  14.399
85239W        W55839  11.745  33.481   2.221
85240W        W55840  20.259  38.994  13.380
85241W        W55841  22.596  14.892   2.354
85242W        W55842  23.707   2.740   1.763
85243W        W55843   7.299   8.216  13.864
85244W        W55844  11.825   4.232  12.433
85245W        W55845  42.277  37.957   4.610
85246W        W55846  44.919   5.497   3.289
85247W        W55847   3.658  14.600   1.828
85248W        W55848  28.785  22.085  14.234
85249W        W55849   7.970  24.639   0.344
85250W        W55850   0.291   3.167  13.083
85251W        W55851  26.976  12.391   3.872
85252W        W55852  11.636  40.307   1.244
85253W        W55853   0.192  16.745  14.469
85254W        W55854  30.178  12.105  11.040
85255W        W55855  26.155   5.432  14.333
85256W        W55856  26.707  44.005  13.537
85257W        W55857   9.539  17.100   0.871
85258W        W55858  21.278  25.658  14.384
85259W        W55859  21.964   7.895   0.463
85260W        W55860   4.207  14.449  12.761
85261W        W55861  32.090   8.816  14.352
85262W        W55862  25.141   8.653  13.494
85263W        W55863  33.137  23.106   2.354
85264W        W55864  11.543  26.218  12.863
85265W        W55865   1.383  11.749   4.498
85266W        W55866   9.886  10.869   3.681
85267W        W55867  22.074  16.322   0.859
85268W        W55868  25.699  31.452   1.754
85269W        W55869  24.031   2.530   1.191
85270W        W55870   4.104  22.710   2.261
85271W        W55871  17.649   4.244  10.496
85272W        W55872   6.542  10.155   1.283
85273W        W55873   1.413  28.215   2.361
85274W        W55874   7.562  16.104   4.026
85275W        W55875  21.370  20.346  14.339
85276W        W55876  27.014  18.251  14.364
85277W        W55877   4.481  22.992   3.265
85278W        W55878  35.988  30.683   1.804
85279W        W55879   8.882  15.301   3.065
85280W        W55880  32.229  26.593  10.975
85281W        W55881  32.949   1.013  14.360
85282W        W55882  12.688  23.614   1.548
85283W        W55883  28.410  43.577  14.388
85284W        W55884   7.109   2.464  14.710
85285W        W55885  22.969  20.686  13.407
85286W        W55886  29.010  19.117   4.179
85287W        W55887  17.736  42.452   1.755
85288W        W55888  24.389   7.403   1.864
85289W        W55889  31.419  14.052  14.434
85290W        W55890  41.559  12.624  14.389
85291W        W55891  38.627  19.844  10.743
85292W        W55892  21.583  11.792   0.666
85293W        W55893  18.622  27.196   2.720
85294W        W55894  11.922  26.076  13.274
85295W        W55895  16.416  14.750  14.862
85296W        W55896  44.465   1.533  14.020
85297W        W55897  34.455  16.341   3.661
85298W        W55898  35.356   0.380   0.289
85299W        W55899   7.613  26.613   5.043
85300W        W55900  39.965  13.223   2.131
85301W        W55901  12.632  37.416   5.070
85302W        W55902  13.626  38.835  12.157
85303W        W55903  41.281  29.110   3.764
85304W        W55904  12.336  39.638  13.609
85305W        W55905  16.766  33.952  13.980
85306W        W55906   4.185   2.434  12.476
85307W        W55907  25.999   2.871   2.858
85308W        W55908  23.115  44.556  14.794
85309W        W55909  29.380  32.993   0.427
85310W        W55910  12.856  23.495   1.037
85311W        W55911  10.254  36.794  10.131
85312W        W55912  12.846  37.876  13.477
85313W        W55913   1.896  41.206  12.031
85314W        W55914  21.785  34.345  12.636
85315W        W55915  34.836  37.269  11.635
85316W        W55916  13.074   7.108  11.965
85317W        W55917  11.848   2.964  14.529
85318W        W55918   8.181  13.037   2.762
85319W        W55919  35.603  24.008  10.690
85320W        W55920  39.104   9.938   2.828
85321W        W55921  10.011  10.578   1.221
85322W        W55922  13.311  17.776   3.712
85323W        W55923  30.608  12.118   3.624
85324W        W55924  13.615   9.761   4.634
85325W        W55925  28.521  39.252   5.439
85326W        W55926  13.302  36.039   0.732
85327W        W55927  14.293  11.408  13.331
85328W        W55928  25.175  44.393  12.627
85329W        W55929  23.742  33.594  12.374
85330W        W55930  43.939  26.619  10.393
85331W        W55931  32.145   9.794   2.284
85332W        W55932  15.327  24.532  12.523
85333W        W55933  40.289  36.593  12.483
85334W        W55934  16.772  13.695  11.850
85335W        W55935   3.161  18.523  13.470
85336W        W55936  33.529  26.096   9.994
85337W        W55937  34.560  41.326   1.332
85338W        W55938   7.333  42.873  14.244
85339W        W55939  24.762   2.984  13.611
85340W        W55940   2.035  20.152  14.974
85341W        W55941   7.162  30.392  14.416
85342W        W55942  42.977  11.752   0.369
85343W        W55943   2.819   7.714  11.967
85344W        W55944  40.229   2.330  11.275
85345W        W55945  23.472  10.657  11.648
85346W        W55946  25.688  11.245  13.569
85347W        W55947  33.589  27.734  12.421
85348W        W55948  32.689  15.280   4.309
85349W        W55949  11.175  36.493  13.804
85350W        W55950  11.169  35.473   1.105
85351W        W55951   6.806  19.454   3.902
85352W        W55952  40.836  32.456  10.646
85353W        W55953   9.769  27.894   3.283
85354W        W55954  23.005  14.356   3.930
85355W        W55955  21.787  13.636  12.064
85356W        W55956  43.376   7.315   1.038
85357W        W55957  15.152  11.720   2.676
85358W        W55958  12.706  42.319   1.964
85359W        W55959   1.369  32.951  12.985
85360W        W55960  15.309   9.900  13.526
85361W        W55961  27.115  37.143  13.580
85362W        W55962  30.185   4.791   3.807
85363W        W55963   3.836  23.089   1.551
85364W        W55964   1.397  32.523   4.317
85365W        W55965   0.743   5.487   1.683
85366W        W55966  16.136  28.498  11.189
85367W        W55967  33.605  42.922  12.253
85368W        W55968  35.594  10.726   3.525
85369W        W55969  37.533  17.527  11.197
85370W        W55970  21.543  10.485   3.697
85371W        W55971  19.698  21.157   0.829
85372W        W55972   1.059   9.820   3.304
85373W        W55973  33.041  18.634   4.606
85374W        W55974  14.913  12.747   4.047
85375W        W55975  19.213   2.001   1.822
85376W        W55976   5.229  19.762   4.653
85377W        W55977   2.835   3.645   2.857
85378W        W55978  41.924   7.726  13.955
85379W        W55979   3.691   1.384   4.279
85380W        W55980  38.851  40.731  14.824
85381W        W55981  43.732  18.707   2.749
85382W        W55982   6.387  33.192  10.639
85383W        W55983  34.840   0.985   4.509
85384W        W55984  14.587  40.264  12.675
85385W        W55985  28.124  19.116   2.310
85386W        W55986  32.189  19.867   4.543
85387W        W55987  36.826  36.678  11.635
85388W        W55988  12.043  40.048   4.304
85389W        W55989   8.744  44.696  11.154
85390W        W55990  23.772  31.107  13.251
85391W        W55991   1.430   6.445  13.396
85392W        W55992  43.584  41.573  11.733
85393W        W55993  13.687  27.449   3.244
85394W        W55994   6.457   4.246  10.755
85395W        W55995  27.171  43.833  14.278
85396W        W55996  11.604  33.382   0.636
85397W        W55997   8.735  15.763   2.750
85398W        W55998  31.250  14.551  14.644
85399W        W55999  14.535  37.254  14.461
85400W        W56000   2.344   8.885  14.942
85401W        W56001  17.606  28.264   2.763
85402W        W56002  38.109  34.910   4.073
85403W        W56003  40.442  30.796   3.217
85404W        W56004  37.932  31.059  11.197
85405W        W56005  44.037  39.011   3.770
85406W        W56006  14.843  32.570   1.676
85407W        W56007   1.259  18.613   2.926
85408W        W56008  30.032  25.036  11.577
85409W        W56009  44.470  32.596   0.736
85410W        W56010   3.368  20.765   4.772
85411W        W56011   1.382  18.331   3.377
85412W        W56012  29.861   0.288  11.873
85413W        W56013   6.902   6.740  11.407
85414W        W56014   5.411  19.627   1.040
85415W        W56015  17.168  19.053   2.349
85416W        W56016  30.937  26.458   1.683
85417W        W56017  31.428  12.776  11.133
85418W        W56018  30.076  13.019   0.979
85419W        W56019  39.490  31.461  14.117
85420W        W56020   5.153  19.393   4.258
85421W        W56021  36.979  29.477   4.683
85422W        W56022  33.932   4.999  11.738
85423W        W56023  25.216  19.440  13.831
85424W        W56024   3.122  22.002  11.074
85425W        W56025   5.126   2.757   2.698
85426W        W56026  38.547  40.327  13.042
85427W        W56027  36.996  20.656  13.808
85428W        W56028  28.953  15.580  13.987
85429W        W56029  40.791  20.456   2.082
85430W        W56030  28.927   4.266   3.687
85431W        W56031  10.159  24.408  14.010
85432W        W56032  13.899  29.880   2.787
85433W        W56033  24.787  36.430  14.357
85434W        W56034  38.095   7.123   2.095
85435W        W56035  28.089  28.994   1.713
85436W        W56036  36.456   3.696   2.699
85437W        W56037  31.980  32.146  13.131
85438W        W56038   7.853   7.870  14.789
85439W        W56039  40.921  43.494   4.936
85440W        W56040  18.546   0.208  11.109
85441W        W56041   2.048  24.146   2.731
85442W        W56042  38.912  33.092  14.827
85443W        W56043  37.447  16.036   4.278
85444W        W56044   2.573  34.551  14.786
85445W        W56045  30.090  41.389   0.719
85446W        W56046   3.845  14.015   3.718
85447W        W56047  18.668  23.162   0.570
85448W        W56048  38.010  38.873  11.640
85449W        W56049  10.713  35.416  13.029
85450W        W56050  32.075  21.467   1.214
85451W        W56051  24.221   4.897  14.287
85452W        W56052  39.522  43.505  12.100
85453W        W56053  13.546  25.088   0.352
85454W        W56054   9.774  19.112   1.548
85455W        W56055  38.790  37.538  11.043
85456W        W56056  14.845   9.583   1.969
85457W        W56057  28.975  19.289  12.827
85458W        W56058  28.613   0.914   4.131
85459W        W56059  40.106  13.738   4.178
85460W        W56060  22.233  41.509  14.618
85461W        W56061  15.021   9.886   4.892
85462W        W56062  41.433  25.477  12.429
85463W        W56063  34.363  18.432   4.309
85464W        W56064   8.179  41.235  11.654
85465W        W56065   0.764   6.683  11.586
85466W        W56066   5.526   3.964   0.603
85467W        W56067  14.214   7.771   0.386
85468W        W56068  40.326  25.067  10.269
85469W        W56069  11.033  17.289   1.152
85470W        W56070  38.387  35.742  14.389
85471W        W56071   2.396  35.506   1.806
85472W        W56072  10.789   6.713  10.374
85473W        W56073  43.420  29.099  11.925
85474W        W56074  37.007  29.326  13.915
85475W        W56075  43.343  24.352   0.715
85476W        W56076  26.981  29.487   0.543
85477W        W56077  19.831  35.309   5.152
85478W        W56078  33.900  24.092   0.384
85479W        W56079  32.335  10.247   4.331
85480W        W56080  36.887  34.274  12.499
85481W        W56081  26.178  43.229   2.295
85482W        W56082  12.676  21.938  12.608
85483W        W56083  15.747  29.132   1.896
85484W        W56084  32.401  27.055  13.916
85485W        W56085  26.183  26.186   4.699
85486W        W56086  36.426  29.112   0.543
85487W        W56087  33.927  40.104  12.605
85488W        W56088  41.917  36.227  12.911
85489W        W56089  33.052  32.376   2.358
85490W        W56090  29.611  40.540   2.229
85491W        W56091  13.820  13.295  12.437
85492W        W56092   8.600  34.437   1.060
85493W        W56093  42.835  29.084   1.493
85494W        W56094  43.043  39.949   0.000
85495W        W56095  10.776   2.931   0.992
85496W        W56096  32.622  19.000  13.967
85497W        W56097  14.197  29.545   4.736
85498W        W56098  27.410  14.496   4.168
85499W        W56099  33.654  29.012  12.246
85500W        W56100   6.028  43.744   3.276
85501W        W56101   6.183   3.880  10.479
85502W        W56102  33.580  19.778  11.678
85503W        W56103  44.064  25.574  13.363
85504W        W56104  22.081  16.778  10.656
85505W        W56105  25.986  21.407   2.851
85506W        W56106   3.850   0.637   3.269
85507W        W56107   2.798   9.659   4.717
85508W        W56108  43.489  40.292   2.849
85509W        W56109   5.771  39.421   4.850
85510W        W56110   2.386   7.305  11.566
85511W        W56111  25.796   5.672   0.683
85512W        W56112  21.182   0.842  14.321
85513W        W56113  40.735  22.797   3.736
85514W        W56114  31.069  36.642   2.220
85515W        W56115  41.456   1.925  12.961
85516W        W56116  29.655  17.527   1.835
85517W        W56117  42.301  38.950  11.800
85518W        W56118  17.763  33.003   1.855
85519W        W56119  17.299  31.391   3.228
85520W        W56120  40.030  15.109   0.954
85521W        W56121   6.462  39.150  12.043
85522W        W56122  15.188  40.426  14.875
85523W        W56123   7.697   6.464  10.651
85524W        W56124   0.826  32.909   4.346
85525W        W56125  22.943   9.259   3.049
85526W        W56126  27.739  41.486  14.318
85527W        W56127  44.813   0.975  13.071
85528W        W56128  11.507  12.104   2.709
85529W        W56129   9.739  22.761  14.219
85530W        W56130  28.348  16.763   0.875
85531W        W56131  23.165  40.800   0.140
85532W        W56132   4.357  16.855   3.684
85533W        W56133  27.480  17.148  13.566
85534W        W56134  44.743  35.604   3.188
85535W        W56135   9.260  28.523  14.213
85536W        W56136  16.727  23.700   4.680
85537W        W56137  15.513  27.002   0.959
85538W        W56138  34.770  41.699   1.667
85539W        W56139  17.196  43.738   3.231
85540W        W56140  20.510  44.267  11.527
85541W        W56141  11.383  14.712   1.303
85542W        W56142  23.028  15.601  11.231
85543W        W56143  32.064   5.578   3.410
85544W        W56144  13.031   7.615  12.000
85545W        W56145  10.098  26.736  12.153
85546W        W56146  13.556  21.170   3.635
85547W        W56147  24.043  26.803  13.307
85548W        W56148   3.218  33.977   3.673
85549W        W56149  29.567  42.506  13.343
85550W        W56150  40.911  30.187   1.174
85551W        W56151  34.021  28.175  13.939
85552W        W56152  10.542  22.945  14.708
85553W        W56153   5.209  36.369   2.586
85554W        W56154  41.996  13.644  11.990
85555W        W56155  23.993  32.868  13.333
85556W        W56156   7.676  29.854   0.127
85557W        W56157  10.843   2.226  12.934
85558W        W56158   6.123  26.623  13.027
85559W        W56159  22.646   0.216  12.200
85560W        W56160   8.796   4.447   3.269
85561W        W56161  39.500  38.366  11.973
85562W        W56162   7.831   3.143  14.342
85563W        W56163  39.385  43.179  14.007
85564W        W56164  41.902   0.914   2.319
85565W        W56165  42.200   8.574   5.130
85566W        W56166  36.585  35.635  10.720
85567W        W56167  31.748  40.712  13.540
85568W        W56168  34.037   9.015   3.656
85569W        W56169  16.032  20.017  11.101
85570W        W56170  29.620  29.308  13.515
85571W        W56171  13.091  29.179  14.343
85572W        W56172  37.826  10.201  11.619
85573W        W56173   3.033  40.412  11.055
85574W        W56174  11.082  19.228   0.764
85575W        W56175  13.647  12.557  12.926
85576W        W56176  31.145  34.556  10.690
85577W        W56177  10.311  35.826  13.323
85578W        W56178   8.021  38.461   3.473
85579W        W56179  21.306  23.079  14.560
85580W        W56180   7.912  31.851   0.260
85581W        W56181  15.525   3.952  11.595
85582W        W56182  25.412  18.097   2.724
85583W        W56183  16.786  43.795  12.508
85584W        W56184  26.033   8.996   4.647
85585W        W56185   5.303  39.457   3.679
85586W        W56186  35.903  25.779  12.323
85587W        W56187  11.991   1.401   1.997
85588W        W56188  34.599   8.083   2.288
85589W        W56189  39.228  36.919   1.807
85590W        W56190  17.699  18.957   4.973
85591W        W56191   0.324  26.011  14.264
85592W        W56192  40.510  13.743  11.778
85593W        W56193  26.081  27.848  10.795
85594W        W56194  42.798  42.273   0.561
85595W        W56195  36.155   7.303  11.567
85596W        W56196  20.114  21.599  11.989
85597W        W56197   7.226  44.798  10.679
85598W        W56198  20.221  40.013   2.920
85599W        W56199  22.751  21.164  10.288
85600W        W56200   8.283  32.987  13.800
85601W        W56201  18.504  21.298   4.844
85602W        W56202  38.475  36.203  12.160
85603W        W56203  30.652  37.080   0.293
85604W        W56204  15.859  23.582   2.378
85605W        W56205  26.742  26.403  13.042
85606W        W56206  41.087  41.346   3.802
85607W        W56207  36.096  12.858   0.412
85608W        W56208  26.950  17.496  14.819
85609W        W56209  22.541   7.180   2.850
85610W        W56210  17.703   9.785   1.823
85611W        W56211   2.008  32.441   3.095
85612W        W56212   9.803   0.321   3.206
85613W        W56213   0.328   2.487   3.158
85614W        W56214  16.265   9.797   1.838
85615W        W56215  43.830  12.679  14.809
85616W        W56216  14.050   0.503  12.086
85617W        W56217  40.378  16.448  14.885
85618W        W56218  24.149  26.456   4.147
85619W        W56219  25.159  21.600   0.288
85620W        W56220  38.607  32.049  13.421
85621W        W56221  38.904   7.627  12.521
85622W        W56222   5.749  25.428  12.025
85623W        W56223  23.277   7.230  10.056
85624W        W56224   0.639  14.154  14.926
85625W        W56225  31.535  44.276   0.355
85626W        W56226  36.539   1.793   9.657
85627W        W56227  41.976  26.188  11.951
85628W        W56228  33.901   4.859   2.335
85629W        W56229  22.781  23.879   4.667
85630W        W56230  40.958  18.668   4.118
85631W        W56231   5.932  25.876  12.484
85632W        W56232  35.997   2.898  13.258
85633W        W56233   7.759   1.466  11.907
85634W        W56234  43.337  40.606   3.804
85635W        W56235  14.889  30.077   0.934
85636W        W56236   6.244  35.009  10.522
85637W        W56237  10.887  28.917   3.829
85638W        W56238  10.105   3.519   0.716
85639W        W56239   6.163  22.544   1.942
85640W        W56240  39.867  35.972  13.345
85641W        W56241   8.291  28.214  14.612
85642W        W56242  30.431  12.078  12.873
85643W        W56243  13.304  12.861   1.906
85644W        W56244  20.342  36.522   0.500
85645W        W56245  21.614  16.755  11.557
85646W        W56246  14.194  35.488   0.699
85647W        W56247  15.112  24.090   1.393
85648W        W56248  15.785  44.075   4.954
85649W        W56249  27.194  30.072   3.321
85650W        W56250  30.129  21.149  11.210
85651W        W56251   8.903  31.007   1.680
85652W        W56252  15.612  21.260  14.301
85653W        W56253  26.462  38.977  13.440
85654W        W56254  29.472  36.932  12.158
85655W        W56255  21.101  30.529  10.381
85656W        W56256  21.262  12.317   1.366
85657W        W56257   4.837  29.416  12.370
85658W        W56258  32.358  42.936  12.410
85659W        W56259  43.972  34.541  12.445
85660W        W56260  34.627  32.295  13.336
85661W        W56261  21.116   8.815  10.218
85662W        W56262  31.605  42.824  13.029
85663W        W56263  40.492  16.664  10.168
85664W        W56264  42.805  44.950   4.646
85665W        W56265  18.623  21.627  14.385
85666W        W56266  34.868  19.221   2.958
85667W        W56267   6.370   3.177   1.298
85668W        W56268  37.118   6.584  14.563
85669W        W56269  24.040   8.349  12.795
85670W        W56270  35.101  30.670  13.052
85671W        W56271  44.481  40.842   1.343
85672W        W56272  32.474  11.679   4.779
85673W        W56273  32.989  17.124   0.057
85674W        W56274  38.139  20.097   2.325
85675W        W56275  21.175  36.084   2.703
85676W        W56276   6.958  15.194   4.738
85677W        W56277  16.298  33.018   9.733
85678W        W56278  34.502  42.060  10.609
85679W        W56279  31.728  38.155   3.668
85680W        W56280  19.279  39.071   4.519
85681W        W56281  22.238  27.531   1.335
85682W        W56282  26.740  37.133   4.335
85683W        W56283  28.914  39.276   5.049
85684W        W56284   9.808  19.258  13.910
85685W        W56285  16.025  10.600   3.298
85686W        W56286  30.056   3.293  13.378
85687W        W56287  31.032  16.101  13.711
85688W        W56288  32.505  10.479  12.627
85689W        W56289  25.366   2.105  10.817
85690W        W56290  10.083  28.738  13.253
85691W        W56291  33.042  37.651  12.052
85692W        W56292  29.553  12.854   0.902
85693W        W56293  36.075   3.338  13.998
85694W        W56294   2.151  42.662  12.023
85695W        W56295  18.643  43.025   5.177
85696W        W56296  28.263   0.856   2.785
85697W        W56297   2.950  43.813  12.822
85698W        W56298  17.241  41.737   1.265
85699W        W56299  21.500  41.309   4.163
85700W        W56300  44.422  28.580  11.607
85701W        W56301   2.964   7.961  13.383
85702W        W56302   5.431  40.391   2.897
85703W        W56303  13.071  13.073  13.545
85704W        W56304   7.742   6.402  12.531
85705W        W56305   3.471   1.223  14.371
85706W        W56306   2.965  21.635   0.917
85707W        W56307  31.648  23.149   3.860
85708W        W56308  10.292  12.256   0.714
85709W        W56309  14.935  33.809  10.799
85710W        W56310  40.375   1.472   0.897
85711W        W56311  39.776   7.916  11.872
85712W        W56312  10.387  29.478  13.371
85713W        W56313   9.234  28.181   0.003
85714W        W56314   4.709  33.284   3.259
85715W        W56315   0.844  15.542  12.561
85716W        W56316  14.752   3.554   1.801
85717W        W56317  37.089  28.570   4.569
85718W        W56318   3.841  41.464  13.045
85719W        W56319  29.793  29.937  12.975
85720W        W56320  25.166   5.749   1.347
85721W        W56321  19.741  28.170  12.361
85722W        W56322   6.636  38.510   0.480
85723W        W56323  27.127  22.657  13.928
85724W        W56324  30.083  28.878   3.670
85725W        W56325   8.145   4.913   3.904
85726W        W56326  18.472   7.170   2.725
85727W        W56327   1.178  30.074   4.569
85728W        W56328  40.453   2.798   5.204
85729W        W56329   1.907   3.550  11.179
85730W        W56330  31.444  25.327  10.657
85731W        W56331  40.909  30.419   0.714
85732W        W56332  33.020  21.882   0.775
85733W        W56333   2.413   2.215   3.072
85734W        W56334  12.196  16.581  10.605
85735W        W56335  24.441   7.367   4.357
85736W        W56336  31.536  10.173  14.543
85737W        W56337  16.687   8.703   2.605
85738W        W56338  23.472  25.160  12.512
85739W        W56339  33.018  10.633   2.127
85740W        W56340  36.566   5.391  12.888
85741W        W56341   1.831  36.130   3.731
85742W        W56342  38.337  41.868  11.354
85743W        W56343  23.374  12.297   1.396
85744W        W56344  42.837   9.092   4.761
85745W        W56345   9.808  25.476   3.805
85746W        W56346  16.229  38.271  11.199
85747W        W56347   4.253  18.683   3.451
85748W        W56348  31.637   4.849  11.078
85749W        W56349   7.319   3.343   4.766
85750W        W56350   3.924  26.241   1.960
85751W        W56351  27.528  23.826   0.409
85752W        W56352  40.547  31.298  13.089
85753W        W56353   4.149   9.111   1.886
85754W        W56354  33.167  14.062  10.589
85755W        W56355  14.310  34.134   0.872
85756W        W56356   3.507  14.797  14.023
85757W        W56357   5.784  23.592   3.557
85758W        W56358  27.820   5.990   2.765
85759W        W56359   6.759  30.742  14.576
85760W        W56360   7.455  20.114  14.728
85761W        W56361  29.712   9.436  11.177
85762W        W56362  32.748  11.246   1.457
85763W        W56363  34.038  43.937   4.547
85764W        W56364  44.782   7.052   1.720
85765W        W56365  10.129  19.185   1.184
85766W        W56366  28.079   7.357  11.543
85767W        W56367   6.703   3.217  12.925
85768W        W56368  42.747  15.773   0.009
85769W        W56369  32.454   2.967   0.066
85770W        W56370  22.137   9.624   1.881
85771W        W56371  17.215  44.892  14.316
85772W        W56372  42.479  39.023  10.641
85773W        W56373  42.987   7.986  11.912
85774W        W56374  41.122  19.594  10.763
85775W        W56375  25.155  11.823   3.657
85776W        W56376  36.460  39.444   2.279
85777W        W56377  43.520  13.778  11.109
85778W        W56378  23.395   2.825   4.751
85779W        W56379  16.035  26.960   0.946
85780W        W56380  25.508  43.131  14.062
85781W        W56381  36.319  17.733   0.934
85782W        W56382  11.374  37.565  11.233
85783W        W56383   7.711  23.565   4.021
85784W        W56384  28.472  19.812   1.876
85785W        W56385  18.168  10.995  14.330
85786W        W56386  33.809  42.968  15.000
85787W        W56387  38.735  30.586   1.460
85788W        W56388  38.122  32.603   0.879
85789W        W56389  34.435  26.946   1.402
85790W        W56390  26.559  22.748  12.969
85791W        W56391  21.063  37.741  10.466
85792W        W56392  40.942  35.531   1.314
85793W        W56393  26.777  10.376  10.288
85794W        W56394   7.333  15.780  11.213
85795W        W56395   0.967   2.369   2.303
85796W        W56396  40.804   7.670  12.511
85797W        W56397  25.951  22.560  12.086
85798W        W56398  25.626  30.503   2.819
85799W        W56399  12.655   6.176  10.522
85800W        W56400  44.025   8.939   3.761
85801W        W56401   4.886  15.293   3.981
85802W        W56402  35.121   3.261   5.060
85803W        W56403  35.995  27.786  13.871
85804W        W56404  44.507  36.643  10.683
85805W        W56405  16.639  28.883  14.973
85806W        W56406   1.849  20.416  12.057
85807W        W56407  26.945  12.367  11.159
85808W        W56408  44.264  33.531  10.966
85809W        W56409  20.164  43.021  13.660
85810W        W56410   8.661  36.075   3.690
85811W        W56411  39.806  34.464   1.340
85812W        W56412  42.774   2.410   4.959
85813W        W56413  41.535   8.780  11.874
85814W        W56414   1.503  13.587   1.714
85815W        W56415   8.314  12.929  14.468
85816W        W56416  21.188  30.864  14.493
85817W        W56417  40.091  29.374  12.021
85818W        W56418  27.784   6.987   0.351
85819W        W56419   6.930  11.044  12.184
85820W        W56420  27.232  39.351  12.447
85821W        W56421  22.288   9.146   0.691
85822W        W56422   8.899   5.886  12.737
85823W        W56423  34.490   0.311   1.377
85824W        W56424  20.545   5.925  13.882
85825W        W56425   4.329  31.917  12.038
85826W        W56426  29.113   6.181   3.688
85827W        W56427  36.587  22.410  10.643
85828W        W56428  29.979  19.112  13.545
85829W        W56429  34.604  20.476  12.141
85830W        W56430  29.484  11.885   1.355
85831W        W56431   4.342  30.864   3.325
85832W        W56432  44.165  35.286  10.931
85833W        W56433  31.002  37.426   3.264
85834W        W56434  37.311  21.032   2.833
85835W        W56435   7.414   5.029   2.387
85836W        W56436  19.088   4.896   4.615
85837W        W56437  24.100  10.281  14.935
85838W        W56438  35.017   8.242  12.048
85839W        W56439  14.769  17.525  13.004
85840W        W56440  27.992  23.738  12.133
85841W        W56441   3.808  23.167  14.868
85842W        W56442  34.132   1.415  12.623
85843W        W56443  18.754  14.261  11.727
85844W        W56444  21.289  33.985   4.895
85845W        W56445  30.972  27.446  12.208
85846W        W56446  43.466  37.034  13.466
85847W        W56447   1.253  23.704  11.111
85848W        W56448  34.411  44.360  11.499
85849W        W56449   6.673  33.682  12.025
85850W        W56450   6.518  17.572  12.472
85851W        W56451  16.619   9.993  13.876
85852W        W56452   6.144   0.456   3.025
85853W        W56453  44.289  27.564  13.385
85854W        W56454  12.318   9.551   2.231
85855W        W56455  42.349  43.271   1.881
85856W        W56456  10.879  28.672   3.361
85857W        W56457   8.174   9.742   2.730
85858W        W56458  23.498   8.875  14.258
85859W        W56459   1.343   1.371  12.526
85860W        W56460  34.696  13.209  10.663
85861W        W56461  24.985   3.337  13.150
85862W        W56462  15.601  14.748  14.440
85863W        W56463  37.974  26.489  11.195
85864W        W56464   4.664  15.824   1.342
85865W        W56465  31.489   8.819  11.032
85866W        W56466  35.590  43.043   4.472
85867W        W56467  16.489  16.404   4.510
85868W        W56468  25.598  31.185   2.201
85869W        W56469  14.845  38.336   0.912
85870W        W56470  37.444  28.388  11.151
85871W        W56471  22.689  13.447   2.377
85872W        W56472  40.766  13.469   2.793
85873W        W56473  23.275   6.460  11.189
85874W        W56474  15.993  32.501   5.056
85875W        W56475  13.292  14.216   3.451
85876W        W56476  33.858   1.464   1.710
85877W        W56477  37.280  15.663   3.118
85878W        W56478  17.816  42.244  14.082
85879W        W56479   0.362   4.310   1.653
85880W        W56480  19.316  38.737  14.310
85881W        W56481  21.105  37.809  12.907
85882W        W56482  23.266  26.133   4.833
85883W        W56483  24.027  16.961  14.881
85884W        W56484  17.126  18.599  13.170
85885W        W56485  31.686  34.577   3.755
85886W        W56486  39.552  31.422   1.931
85887W        W56487  22.224  27.225  11.126
85888W        W56488  21.176   3.467   4.585
85889W        W56489   8.398  30.900  11.502
85890W        W56490  19.091   7.575   2.367
85891W        W56491  37.022   1.429  10.651
85892W        W56492  37.060  25.501   2.806
85893W        W56493  22.146  24.074   2.632
85894W        W56494  27.652  28.212   2.905
85895W        W56495  29.511  22.206  11.517
85896W        W56496  37.087  39.537  10.542
85897W        W56497  32.110  30.214  12.420
85898W        W56498   1.673   1.051   0.540
85899W        W56499  31.029  25.211  12.561
85900W        W56500  29.028  32.960  11.138
85901W        W56501  29.285  20.813   4.731
85902W        W56502  16.029  16.032  14.961
85903W        W56503  22.191   2.617  12.527
85904W        W56504  25.617  42.807  14.442
85905W        W56505  12.015  24.285   1.490
85906W        W56506  26.432  10.059  11.659
85907W        W56507  35.103  36.104  11.405
85908W        W56508  41.168   1.410  13.442
85909W        W56509  36.840  38.370   3.732
85910W        W56510  13.261  16.184  11.445
85911W        W56511  28.424  32.464   4.239
85912W        W56512  31.431  35.780   2.679
85913W        W56513  19.789  44.792  10.577
85914W        W56514  19.470  10.697  14.510
85915W        W56515  25.940   8.618  14.869
85916W        W56516  19.784   9.418  10.668
85917W        W56517  26.168  36.106  11.492
85918W        W56518  24.000  33.886  13.494
85919W        W56519  17.554  32.385  13.740
85920W        W56520  18.310  30.640   1.289
85921W        W56521  22.828   5.558  13.315
85922W        W56522  18.966  41.323  13.992
85923W        W56523  43.502   4.618   0.585
85924W        W56524  35.958  21.476   1.454
85925W        W56525  10.236   7.573  13.983
85926W        W56526  27.997   4.305  14.850
85927W        W56527  20.009  41.400  12.404
85928W        W56528  38.957  44.889  14.331
85929W        W56529  32.001  11.654   4.570
85930W        W56530   5.514  33.527   4.021
85931W        W56531  22.645   5.372   1.718
85932W        W56532  29.024  15.845   2.378
85933W        W56533  10.444  42.310  12.129
85934W        W56534   1.181  10.633   0.335
85935W        W56535  11.636  15.886   4.582
85936W        W56536  15.953  34.854  14.368
85937W        W56537   1.324  26.371  10.709
85938W        W56538  38.024  26.664  12.089
85939W        W56539  25.964  14.143  10.643
85940W        W56540   6.188  43.463   2.092
85941W        W56541   4.844  16.487   3.103
85942W        W56542  44.864  34.984   4.963
85943W        W56543   0.999  12.665  12.931
85944W        W56544  41.375  31.141  11.061
85945W        W56545   2.782  44.281  11.615
85946W        W56546  19.398  29.151  12.462
85947W        W56547  34.391  29.000   3.675
85948W        W56548  12.849  43.893  10.546
85949W        W56549  15.744  44.627  10.573
85950W        W56550   5.490  35.353  13.052
85951W        W56551  35.305   0.051   4.512
85952W        W56552  21.514   5.232   3.796
85953W        W56553  28.792  42.393  14.968
85954W        W56554  39.265  17.739   2.230
85955W        W56555   5.442  31.304  10.272
85956W        W56556   5.774  27.490   3.194
85957W        W56557  16.976   8.688  14.062
85958W        W56558  41.880  42.035  11.709
85959W        W56559  18.744  33.483   2.902
85960W        W56560  10.525  27.168  11.035
85961W        W56561  26.714  21.968  11.606
85962W        W56562   0.521   0.690   3.829
85963W        W56563  34.617   6.238  12.393
85964W        W56564  40.285  44.454  14.274
85965W        W56565   7.296  29.228   3.652
85966W        W56566  12.844  34.582   1.231
85967W        W56567  25.718  12.540  11.625
85968W        W56568   8.451  20.018  12.016
85969W        W56569  35.237   3.875   4.192
85970W        W56570  38.786   1.062   1.455
85971W        W56571  21.362   0.555  10.402
85972W        W56572   2.278  39.604   1.644
85973W        W56573  19.270  18.365   4.126
85974W        W56574  41.211   2.920  10.642
85975W        W56575  26.539  39.718   0.430
85976W        W56576  21.673  13.606  11.185
85977W        W56577  41.979  23.758  13.906
85978W        W56578  36.313  27.518   3.686
85979W        W56579   5.355   4.658  14.433
85980W        W56580  24.342  11.803   1.787
85981W        W56581  27.570  11.333  13.399
85982W        W56582   0.397  39.460  12.491
85983W        W56583  36.463  33.940  12.458
85984W        W56584   1.765   7.890   1.238
85985W        W56585  25.155   4.990  12.918
85986W        W56586  10.268  44.347  14.413
85987W        W56587  41.392  43.601   0.299
85988W        W56588  35.854  31.440   1.403
85989W        W56589   6.860  25.826   0.503
85990W        W56590  29.511  36.279   2.300
85991W        W56591  13.256  13.302   2.402
85992W        W56592  17.375  29.283   2.847
85993W        W56593  35.861  27.642   2.779
85994W        W56594  20.296   7.539  14.434
85995W        W56595  10.815  28.059   0.872
85996W        W56596  23.521   5.852   0.323
85997W        W56597  27.946   0.436  12.050
85998W        W56598  36.432  35.103   2.856
85999W        W56599   5.643  28.245   3.053
86000W        W56600  36.008  13.826  12.891
86001W        W56601  29.285   7.358  14.407
86002W        W56602  24.333  40.926   2.334
86003W        W56603  40.813  37.940  10.929
86004W        W56604  24.063  27.022   4.143
86005W        W56605   7.069  24.123  13.297
86006W        W56606  15.549   3.429   0.439
86007W        W56607  37.052  28.947  14.441
86008W        W56608  34.107  26.793  11.342
86009W        W56609   9.340  44.592   2.009
86010W        W56610  41.858   9.126  14.185
86011W        W56611   3.044   3.252   3.761
86012W        W56612   7.891  43.766   4.101
86013W        W56613   2.373  17.227   2.439
86014W        W56614   2.765   2.353   1.161
86015W        W56615  27.189   1.671  12.812
86016W        W56616   8.572  33.161   1.477
86017W        W56617  33.769   5.730  12.959
86018W        W56618  42.818   8.009  12.400
86019W        W56619   7.231   4.119   0.044
86020W        W56620   3.412   5.412   0.721
86021W        W56621  12.752  31.505  12.093
86022W        W56622  29.551  26.439  12.451
86023W        W56623  36.481  22.405   4.672
86024W        W56624   3.919  13.246  12.936
86025W        W56625  38.966   4.739   3.188
86026W        W56626  26.343   4.128   1.701
86027W        W56627  39.872  44.418  11.616
86028W        W56628  13.981  40.087   2.647
86029W        W56629  17.631  38.906   1.755
86030W        W56630   6.360  15.443  10.742
86031W        W56631  20.980   0.401  13.000
86032W        W56632  21.809  41.028  10.695
86033W        W56633  16.619  38.080   1.909
86034W        W56634   6.736  25.551  11.992
86035W        W56635  42.323  17.648   4.585
86036W        W56636   8.384  14.160  11.527
86037W        W56637  41.360  24.968  11.170
86038W        W56638   5.666  27.322  10.971
86039W        W56639  38.459   9.574  12.063
86040W        W56640  33.315  17.469   3.735
86041W        W56641  38.577  16.984  13.419
86042W        W56642  27.098  18.765  11.160
86043W        W56643  22.001  10.817  13.140
86044W        W56644  36.273  32.102  14.068
86045W        W56645   7.813   1.368  10.234
86046W        W56646  32.974  13.047   0.725
86047W        W56647  18.331   2.184   4.513
86048W        W56648   6.674   9.631  12.976
86049W        W56649  24.477  14.036   0.035
86050W        W56650   9.942  13.020  14.934
86051W        W56651  41.964  32.590   0.216
86052W        W56652  15.079  17.333  12.632
86053W        W56653  24.544  15.356  14.400
86054W        W56654  28.589  31.535   3.807
86055W        W56655  21.032  14.613  14.961
86056W        W56656   2.935  18.089  13.267
86057W        W56657  33.663   1.760   2.301
86058W        W56658   3.711   4.403   2.227
86059W        W56659   5.398  33.863   0.382
86060W        W56660  25.105  27.772  14.880
86061W        W56661  35.926  21.358  11.486
86062W        W56662  36.464   2.675  13.079
86063W        W56663  24.021  38.901  12.757
86064W        W56664   9.739  15.535   9.740
86065W        W56665  23.646  43.373  12.369
86066W        W56666   3.707   9.875  12.176
86067W        W56667   0.097   3.143  11.436
86068W        W56668  31.694   3.965   2.840
86069W        W56669  23.700  29.666   2.810
86070W        W56670  38.539  29.650  13.481
86071W        W56671  30.562   6.492  12.069
86072W        W56672  32.358  40.171  14.650
86073W        W56673  23.948  27.616  14.489
86074W        W56674  26.613   1.392   3.193
86075W        W56675  34.060  41.453   2.115
86076W        W56676  40.327   8.780   0.206
86077W        W56677   7.740   9.797   1.949
86078W        W56678  12.677  39.319  13.364
86079W        W56679  34.003  36.021  10.769
86080W        W56680   4.589  26.648   1.730
86081W        W56681  34.904  20.222   4.129
86082W        W56682   2.895   5.437  14.790
86083W        W56683   0.759  41.903  11.946
86084W        W56684  14.244  27.833   1.491
86085W        W56685  32.500  38.094   2.620
86086W        W56686  14.345  26.765   1.874
86087W        W56687   5.866  44.717   2.708
86088W        W56688  19.652  14.129  14.483
86089W        W56689  23.130  17.124   0.775
86090W        W56690  19.538   4.660   3.010
86091W        W56691  38.080   8.147  13.506
86092W        W56692   6.441  10.698   4.626
86093W        W56693  31.071  32.900  11.102
86094W        W56694  34.833   0.207   0.227
86095W        W56695  32.477  23.973  11.541
86096W        W56696  15.610   7.391  14.319
86097W        W56697  39.937  41.452  11.522
86098W        W56698  20.954  22.033   0.813
86099W        W56699  39.047  27.154   0.805
86100W        W56700   3.652  36.854  12.343
86101W        W56701  24.821  19.972  14.531
86102W        W56702  31.149  14.393   4.264
86103W        W56703  29.017   4.625   2.595
86104W        W56704   6.347  31.638   0.721
86105W        W56705   1.951  19.327   2.337
86106W        W56706  27.644  14.510   2.587
86107W        W56707  38.603  11.704  10.646
86108W        W56708   3.969  41.638   2.580
86109W        W56709  20.976  14.252   2.900
86110W        W56710  32.798  16.254   2.869
86111W        W56711  18.733   2.510   1.891
86112W        W56712  15.101  30.735  13.852
86113W        W56713  24.976   0.496  11.525
86114W        W56714  17.445  30.872   0.741
86115W        W56715   4.407  21.044  10.197
86116W        W56716  17.641  19.796   0.831
86117W        W56717  38.351  29.200   3.824
86118W        W56718   1.386  28.271   3.690
86119W        W56719  28.675   9.627   0.522
86120W        W56720   8.795   0.576   1.292
86121W        W56721  10.034   9.124   3.106
86122W        W56722  23.076  21.836   4.146
86123W        W56723  22.567  16.635  10.661
86124W        W56724   1.955   0.281   1.776
86125W        W56725  33.555  14.187   3.017
86126W        W56726  19.397  31.876   4.658
86127W        W56727  40.340   1.953   2.822
86128W        W56728   8.748  41.853   3.609
86129W        W56729  19.025  11.422  13.608
86130W        W56730  23.596  38.952  13.075
86131W        W56731   5.634  27.091  13.556
86132W        W56732  28.675   4.737   0.309
86133W        W56733   2.482  35.185  14.529
86134W        W56734  21.499  27.724   3.993
86135W        W56735  44.771  10.646  14.519
86136W        W56736  39.805  41.488  12.380
86137W        W56737  30.992   2.903  14.891
86138W        W56738  15.314  11.400   0.907
86139W        W56739  42.422  26.519   2.303
86140W        W56740  22.213  14.238   4.323
86141W        W56741  24.023   5.649  11.611
86142W        W56742   8.229  25.160   0.493
86143W        W56743  42.658  40.270   5.120
86144W        W56744  43.913  39.595   4.360
86145W        W56745   7.281  41.464   4.166
86146W        W56746  20.541   4.155   3.528
86147W        W56747  35.049  18.703   3.078
86148W        W56748  44.886  44.977   2.939
86149W        W56749  28.892  14.034  11.775
86150W        W56750  41.777  17.603  10.706
86151W        W56751  31.686   1.578  10.809
86152W        W56752   4.376  43.228   1.927
86153W        W56753  19.074  42.995   4.172
86154W        W56754  32.476  11.472   4.278
86155W        W56755  15.127  33.928  14.082
86156W        W56756   8.286  18.256  12.543
86157W        W56757  24.168   9.163  10.682
86158W        W56758  11.727  22.028  13.246
86159W        W56759  19.181  19.639   2.769
86160W        W56760   9.039  29.917   2.739
86161W        W56761  37.869  36.441  13.617
86162W        W56762  37.017  15.162  11.363
86163W        W56763  30.825  25.203  13.023
86164W        W56764  23.825   9.721  14.524
86165W        W56765  19.785  42.808   0.965
86166W        W56766  34.012  39.481   3.562
86167W        W56767  43.232  29.025   2.861
86168W        W56768  15.648  38.659   2.669
86169W        W56769  13.566  34.104   9.693
86170W        W56770  16.737  24.216   1.005
86171W        W56771  12.248   7.918   0.207
86172W        W56772   5.144  43.500   3.655
86173W        W56773  14.698  44.746   4.643
86174W        W56774  29.447  22.767  13.919
86175W        W56775  40.262  30.233  11.935
86176W        W56776  16.558  33.030   0.950
86177W        W56777  23.263  12.448  12.028
86178W        W56778  18.054   3.910  12.335
86179W        W56779  39.344  40.077  14.430
86180W        W56780  36.616   8.190   2.109
86181W        W56781  36.571  13.888   2.904
86182W        W56782  44.942  25.143  10.939
86183W        W56783   8.628  12.568  10.645
86184W        W56784   8.106  10.654  14.344
86185W        W56785   7.294  12.387  14.433
86186W        W56786  42.015   5.385  11.612
86187W        W56787  34.326  34.700   1.677
86188W        W56788  14.603  14.229  14.606
86189W        W56789  42.050  15.850   4.253
86190W        W56790  31.882   3.420   3.892
86191W        W56791  19.473  40.065   3.279
86192W        W56792  17.059  11.838  11.060
86193W        W56793  15.329  13.425  10.629
86194W        W56794  26.605  41.323   4.523
86195W        W56795  42.954  38.376  12.525
86196W        W56796   9.597  12.986  14.067
86197W        W56797  38.492  42.114   1.282
86198W        W56798  43.213  24.657   2.366
86199W        W56799  44.587  38.407   4.227
86200W        W56800  20.763  30.115  13.002
86201W        W56801   9.806  43.808  14.880
86202W        W56802  28.172   8.637   0.796
86203W        W56803  27.685  44.389  13.467
86204W        W56804  16.279  27.776  11.628
86205W        W56805  20.838  43.424   0.385
86206W        W56806  13.829  43.977   5.163
86207W        W56807  27.016  32.636   1.147
86208W        W56808  15.934  19.981  12.801
86209W        W56809  20.806  40.552  11.271
86210W        W56810  33.990  18.591   0.332
86211W        W56811  31.089  16.094   3.711
86212W        W56812  33.987  26.225   2.248
86213W        W56813  21.649  21.285  10.740
86214W        W56814   9.899   1.993   2.905
86215W        W56815  37.271  41.766   1.867
86216W        W56816   7.507  31.164  13.316
86217W        W56817  25.168   6.441  13.122
86218W        W56818  27.723  19.353   4.496
86219W        W56819   4.725  33.100   0.291
86220W        W56820  42.020  28.189  14.796
86221W        W56821   4.606  29.055   0.901
86222W        W56822  43.530  22.629  10.278
86223W        W56823  24.580  38.124   0.484
86224W        W56824  18.769  25.447   4.904
86225W        W56825  26.851  30.712  11.500
86226W        W56826  21.140  32.657  14.559
86227W        W56827   9.964  19.451   1.930
86228W        W56828   3.946  11.321   3.428
86229W        W56829  23.519   6.303   4.105
86230W        W56830  38.849   0.262  10.632
86231W        W56831   8.299  11.147  14.802
86232W        W56832  41.296  35.382   2.852
86233W        W56833  43.339  14.946   1.160
86234W        W56834   6.865  23.073  10.658
86235W        W56835  42.521   0.753   1.768
86236W        W56836  27.615  17.952   3.211
86237W        W56837  21.293  40.584  11.094
86238W        W56838  15.820  32.645  13.114
86239W        W56839  13.142  15.752   2.467
86240W        W56840  21.694  11.430  13.893
86241W        W56841  14.769  44.975  12.064
86242W        W56842   4.253  36.853   2.762
86243W        W56843   0.854  33.914   4.552
86244W        W56844  33.486   7.418  10.579
86245W        W56845  44.549  42.523  14.546
86246W        W56846  44.354   9.743  11.637
86247W        W56847  22.490  12.955   2.410
86248W        W56848  44.493  33.869  10.208
86249W        W56849  34.994  26.878  12.812
86250W        W56850  33.297   3.610  14.475
86251W        W56851  36.518  17.303   2.485
86252W        W56852   6.286  18.515  12.052
86253W        W56853  11.843  42.712   4.924
86254W        W56854  22.089  35.735  12.010
86255W        W56855   8.223  39.041   0.361
86256W        W56856  26.099  13.472  11.211
86257W        W56857   2.284  13.213  13.866
86258W        W56858  30.511  15.549  14.369
86259W        W56859  27.525  28.500   1.062
86260W        W56860  44.958  29.897   0.266
86261W        W56861  27.555  43.878  13.464
86262W        W56862   6.666  21.286  11.702
86263W        W56863  13.238  43.296  14.616
86264W        W56864  26.095  10.828  13.449
86265W        W56865  26.422  27.613  13.449
86266W        W56866   1.862  28.647  12.412
86267W        W56867  25.816  10.097   2.271
86268W        W56868  43.956  31.009  13.886
86269W        W56869  38.564  34.342  12.030
86270W        W56870  29.600  13.397  13.827
86271W        W56871  16.713  32.307  13.076
86272W        W56872  21.668  20.076   1.624
86273W        W56873  22.966  25.251   4.330
86274W        W56874  43.340  12.889  14.803
86275W        W56875  40.215  22.882  11.659
86276W        W56876   0.949  42.381  11.857
86277W        W56877  16.768  18.542  14.320
86278W        W56878  36.011   6.925  11.021
86279W        W56879  18.673  16.850  13.546
86280W        W56880  37.011  20.100   3.701
86281W        W56881  10.351  18.897  12.998
86282W        W56882  40.902  31.787  12.275
86283W        W56883  10.596  38.840   1.319
86284W        W56884   1.211  37.544   0.814
86285W        W56885  39.679  21.859  13.587
86286W        W56886  39.162   6.037  10.314
86287W        W56887  28.536  29.295  10.653
86288W        W56888  38.277   7.506  14.007
86289W        W56889  29.865  23.236   2.854
86290W        W56890  36.116  25.483   3.114
86291W        W56891   8.593  20.123  14.429
86292W        W56892   6.313  22.461  12.988
86293W        W56893  26.163  27.893   3.246
86294W        W56894  11.540  22.556   4.530
86295W        W56895  41.615  33.437  12.330
86296W        W56896  28.597  17.773   4.713
86297W        W56897  27.602  16.155   1.333
86298W        W56898  41.969  17.257  12.036
86299W        W56899  36.097  34.909  13.842
86300W        W56900  15.723  20.775   1.862
86301W        W56901  30.222   4.554  11.343
86302W        W56902  26.644  17.834  11.053
86303W        W56903  35.324  28.610  13.439
86304W        W56904  17.558  34.617  12.086
86305W        W56905  44.588  18.504   2.207
86306W        W56906  33.801  10.149   3.777
86307W        W56907  25.136  12.348   3.704
86308W        W56908  20.797  23.462   1.269
86309W        W56909  11.815  42.914   4.428
86310W        W56910  32.267  39.153  10.435
86311W        W56911  19.192  13.370   4.649
86312W        W56912  44.045  26.892  12.959
86313W        W56913  33.315   0.588  10.734
86314W        W56914  40.978  31.220   3.251
86315W        W56915   6.207  13.344   4.574
86316W        W56916  28.394  41.491   4.289
86317W        W56917  42.269   3.803  12.008
86318W        W56918  19.034  12.019  14.350
86319W        W56919   0.630   4.424   0.355
86320W        W56920   5.573  19.530   3.794
86321W        W56921   4.870  37.810  11.570
86322W        W56922   9.260   3.704   1.758
86323W        W56923  43.990  18.688  11.065
86324W        W56924  15.115  23.075   0.967
86325W        W56925  23.458  25.536   2.786
86326W        W56926  29.408   6.731   0.322
86327W        W56927  32.098   6.758   1.549
86328W        W56928   3.345  16.860   0.393
86329W        W56929  21.203  24.064   1.709
86330W        W56930  16.683  31.305   0.237
86331W        W56931   3.263  44.558   2.754
86332W        W56932  35.838  43.101   1.370
86333W        W56933  31.313  19.664   1.338
86334W        W56934  37.119   3.259   1.897
86335W        W56935  28.488  10.515  10.158
86336W        W56936  19.245  33.990   1.757
86337W        W56937  27.214  15.218  12.815
86338W        W56938   4.370  15.445   1.807
86339W        W56939  42.884  11.889  12.579
86340W        W56940  15.069  10.115   2.299
86341W        W56941   5.399  43.735   4.053
86342W        W56942  33.547  38.952  13.670
86343W        W56943  20.423  39.968  11.986
86344W        W56944   5.261  24.458   0.779
86345W        W56945  15.269  12.113   4.689
86346W        W56946   0.677  16.746  10.666
86347W        W56947  42.510  15.731   0.490
86348W        W56948   0.414   4.854  13.325
86349W        W56949  44.263  11.389  11.000
86350W        W56950  27.612  13.733  13.430
86351W        W56951   7.777  41.241  10.345
86352W        W56952  26.559  16.393  14.949
86353W        W56953  21.361  42.320   4.054
86354W        W56954  41.576  19.435  10.578
86355W        W56955  39.892  33.475  14.354
86356W        W56956  18.403  37.380  12.585
86357W        W56957  23.561  24.618   3.145
86358W        W56958  23.286  16.158   0.596
86359W        W56959  16.775  44.697  14.531
86360W        W56960  31.858   1.282  14.858
86361W        W56961  17.107  31.185   0.504
86362W        W56962  24.015  15.187   0.264
86363W        W56963  21.652   0.048   3.356
86364W        W56964   5.643  14.090  12.435
86365W        W56965  17.773   6.110  11.410
86366W        W56966  20.162  37.607  11.525
86367W        W56967  28.552  18.072   1.492
86368W        W56968  10.080  30.936   2.242
86369W        W56969   8.335  23.018   1.335
86370W        W56970  38.815  31.447  11.664
86371W        W56971  28.241  29.698   3.800
86372W        W56972  32.467  15.714   4.548
86373W        W56973  17.826  16.189  11.115
86374W        W56974  41.482   9.440  13.954
86375W        W56975  29.626  32.150   5.024
86376W        W56976  41.702  22.037   1.404
86377W        W56977   9.623  10.776   1.831
86378W        W56978  12.364  24.174  10.688
86379W        W56979   6.626   9.422   2.791
86380W        W56980  44.454  11.453   0.984
86381W        W56981  32.669  36.134  14.092
86382W        W56982  12.121  34.438  13.514
86383W        W56983  43.995  29.875   0.884
86384W        W56984  31.622  29.635  13.889
86385W        W56985  36.766  30.285   2.729
86386W        W56986  11.150   5.792   2.562
86387W        W56987  22.741  38.040   3.550
86388W        W56988  37.364  19.105   1.836
86389W        W56989  26.008  10.264   3.228
86390W        W56990  34.389  37.958   4.296
86391W        W56991  37.866   6.756   2.355
86392W        W56992  26.211  14.106   0.785
86393W        W56993  19.601  31.573   1.332
86394W        W56994  13.619  40.490  12.494
86395W        W56995  18.511  28.055   0.023
86396W        W56996  41.429  21.804  13.006
86397W        W56997  39.967  30.007   1.804
86398W        W56998  25.658  10.794   0.198
86399W        W56999  18.114  10.679  14.757
86400W        W57000   9.296   8.634   4.342
86401W        W57001  24.201  12.418  12.373
86402W        W57002  25.045   0.349  13.098
86403W        W57003   2.808  24.882   3.265
86404W        W57004  21.047  35.907   1.710
86405W        W57005   6.836  44.787   1.070
86406W        W57006  15.896   1.408  14.516
86407W        W57007   9.825   8.874  10.697
86408W        W57008  22.915   8.447   2.293
86409W        W57009   1.965  11.204   3.292
86410W        W57010   7.763   4.752   4.218
86411W        W57011  39.305   1.872  12.618
86412W        W57012  22.651  12.818  11.050
86413W        W57013   8.304   5.175   2.927
86414W        W57014  15.276  39.028   2.680
86415W        W57015  20.010  10.148  14.944
86416W        W57016  26.914   6.707   3.214
86417W        W57017  13.974  40.282   3.597
86418W        W57018   7.395  31.833   4.508
86419W        W57019  23.496  21.662  12.640
86420W        W57020  13.303  38.454  11.541
86421W        W57021  22.384   8.357   2.269
86422W        W57022  39.693  12.710  14.634
86423W        W57023   0.478  13.135   1.758
86424W        W57024   6.793   7.599  11.562
86425W        W57025   0.270   7.858   2.849
86426W        W57026  31.845  32.555   2.611
86427W        W57027  25.126   3.599   2.461
86428W        W57028  33.724  35.406  13.123
86429W        W57029  19.034   9.535  12.060
86430W        W57030  17.989  36.460   1.711
86431W        W57031  15.887  28.976  11.660
86432W        W57032  14.928   9.925  14.816
86433W        W57033  23.485  27.838   4.570
86434W        W57034  14.639  12.488  12.043
86435W        W57035  40.246  30.700   0.973
86436W        W57036  33.916  16.689  11.421
86437W        W57037   8.987  26.063  11.901
86438W        W57038  11.806   9.506   2.643
86439W        W57039  19.003  35.479   4.107
86440W        W57040  13.804  36.895  12.132
86441W        W57041  43.839  18.940  13.607
86442W        W57042  20.771   7.898  14.551
86443W        W57043  11.791  37.317   0.264
86444W        W57044  10.573  41.090  11.007
86445W        W57045  12.976  21.123   0.836
86446W        W57046  18.393  30.988  10.980
86447W        W57047  40.537  34.827  11.149
86448W        W57048  31.055  43.925  10.326
86449W        W57049   6.867  35.800   1.889
86450W        W57050  40.924  32.108   1.384
86451W        W57051   9.748  44.746   3.895
86452W        W57052  39.971  30.910  13.620
86453W        W57053  39.044  41.732  14.931
86454W        W57054  24.698  29.492   0.289
86455W        W57055   2.377  31.664  10.262
86456W        W57056   8.266  16.561   4.696
86457W        W57057  40.842  38.448  12.572
86458W        W57058  28.058  35.749  11.779
86459W        W57059  39.050   1.289   3.656
86460W        W57060  10.597  34.473  13.422
86461W        W57061   7.857  16.853   1.899
86462W        W57062  15.387  24.535   1.349
86463W        W57063  29.977   0.998   1.343
86464W        W57064  11.109   3.858  13.440
86465W        W57065  24.980  43.971   3.245
86466W        W57066  17.592  15.049  14.734
86467W        W57067   1.411  15.142   1.010
86468W        W57068   7.922  33.945  13.019
86469W        W57069  10.340  14.661   0.939
86470W        W57070  35.540  21.911   0.487
86471W        W57071   3.752  26.383   2.853
86472W        W57072  38.498  11.578   3.632
86473W        W57073  33.524  21.432   2.871
86474W        W57074  10.282  38.134  14.406
86475W        W57075  37.612  21.512   0.369
86476W        W57076  36.841  15.715   1.724
86477W        W57077  18.931  32.678  13.234
86478W        W57078  38.078  42.511   2.572
86479W        W57079  41.310   1.402  14.246
86480W        W57080  18.610  35.855  13.401
86481W        W57081  12.979  34.494  14.426
86482W        W57082  31.816  39.414   2.982
86483W        W57083   0.867  25.408  13.588
86484W        W57084  16.574  22.557   1.848
86485W        W57085   1.946  40.345  13.704
86486W        W57086  27.631  25.911  12.860
86487W        W57087  19.127   8.141  14.088
86488W        W57088  43.528  28.454  12.906
86489W        W57089  41.236  28.490  13.353
86490W        W57090   6.444  37.949   1.276
86491W        W57091  36.060  22.102  12.193
86492W        W57092   4.322  23.220  14.723
86493W        W57093  11.874  34.579  11.610
86494W        W57094  43.878  18.528   3.219
86495W        W57095  25.675  21.623  11.312
86496W        W57096  43.171  15.101  13.142
86497W        W57097  35.128  43.221   4.343
86498W        W57098   0.750   3.778  12.901
86499W        W57099  40.129   6.348  13.312
86500W        W57100  24.471  35.038  14.453
86501W        W57101   9.699  39.319  14.321
86502W        W57102  37.010  13.379  13.907
86503W        W57103  34.223  36.561  13.516
86504W        W57104  23.110  17.696   0.864
86505W        W57105  33.485  23.916  14.354
86506W        W57106   6.822  43.014  14.454
86507W        W57107   8.265  22.319   0.800
86508W        W57108   7.810  31.457  14.264
86509W        W57109  41.767  30.033   0.846
86510W        W57110   2.468   0.874   1.637
86511W        W57111  38.453   9.718   3.252
86512W        W57112  26.911  35.577  13.010
86513W        W57113   0.763   3.058   1.980
86514W        W57114  21.026  22.458   5.072
86515W        W57115  39.951  11.561  12.039
86516W        W57116   9.575  23.724  14.593
86517W        W57117  28.704  16.339   3.169
86518W        W57118  34.021  35.367  10.629
86519W        W57119  21.430  36.793  11.834
86520W        W57120  37.947   4.287   4.258
86521W        W57121   3.165  23.086   3.200
86522W        W57122  29.600   0.401  14.380
86523W        W57123  15.279  17.012  11.920
86524W        W57124  22.853  21.234   1.016
86525W        W57125  12.727  35.962   3.143
86526W        W57126   7.945   2.861   0.454
86527W        W57127  28.648  44.830  13.915
86528W        W57128  17.725   0.028  14.433
86529W        W57129  41.450  18.272   3.667
86530W        W57130  28.603  44.176   4.206
86531W        W57131  25.623   5.081   0.962
86532W        W57132  24.965   8.845  13.053
86533W        W57133  27.266  25.184  12.516
86534W        W57134  22.181  24.026  14.028
86535W        W57135   3.716  10.729  13.678
86536W        W57136  41.814  44.541  12.956
86537W        W57137   6.190  30.506   1.659
86538W        W57138  14.815  19.416  11.189
86539W        W57139  11.270  23.092  13.936
86540W        W57140  22.031  33.015  12.447
86541W        W57141  32.936  27.291  11.208
86542W        W57142  35.929  28.075   4.217
86543W        W57143   2.470   7.411   1.738
86544W        W57144  14.212  24.409   0.320
86545W        W57145   6.279  17.036   2.197
86546W        W57146   0.422   4.481   4.489
86547W        W57147  24.029  18.667  12.855
86548W        W57148  24.463  41.047   4.859
86549W        W57149  12.577   5.450   3.054
86550W        W57150  10.671   4.439  11.480
86551W        W57151  10.292  32.423   2.420
86552W        W57152  11.205  43.262  11.988
86553W        W57153  11.289  37.326  13.628
86554W        W57154  33.487  35.098  12.762
86555W        W57155  40.564  21.609  11.964
86556W        W57156  13.714  37.641  10.718
86557W        W57157  20.818  40.350   0.916
86558W        W57158  25.224  19.087   4.462
86559W        W57159   7.147  11.738   2.370
86560W        W57160  43.853  41.266  12.057
86561W        W57161  21.560  36.141  13.534
86562W        W57162   7.781  32.599   4.636
86563W        W57163  37.935  12.173   2.564
86564W        W57164  29.014  41.359  12.519
86565W        W57165  22.778  39.051   3.197
86566W        W57166  32.895  13.015   3.855
86567W        W57167   6.590  16.881  12.570
86568W        W57168   7.966  27.794  11.532
86569W        W57169   4.780  20.550   1.502
86570W        W57170  23.744  12.273  10.626
86571W        W57171  37.309  11.626   1.357
86572W        W57172  22.528   5.909   4.769
86573W        W57173  31.702  44.563   4.294
86574W        W57174  31.865  20.101  13.407
86575W        W57175  23.755  30.625  12.549
86576W        W57176   6.720  21.574  14.584
86577W        W57177  33.206  32.147  10.996
86578W        W57178   6.272  10.897   0.194
86579W        W57179   6.270   7.705   4.099
86580W        W57180  41.922  37.033  11.182
86581W        W57181  37.360  25.584   4.650
86582W        W57182  20.956  18.130   2.206
86583W        W57183  20.650   7.147  12.335
86584W        W57184  43.638  38.092  12.099
86585W        W57185   4.243  22.264  11.557
86586W        W57186  36.433  34.650  10.637
86587W        W57187   8.265   5.634   4.433
86588W        W57188  44.817  40.163   2.621
86589W        W57189  39.961  34.875  13.626
86590W        W57190  44.259  27.836  14.328
86591W        W57191  13.779  31.080  13.994
86592W        W57192  16.847  25.097  14.250
86593W        W57193  21.282  22.886   1.835
86594W        W57194  33.570  42.477  14.998
86595W        W57195  20.051  34.090   2.689
86596W        W57196  22.036  21.874  11.619
86597W        W57197  12.906  16.593   2.347
86598W        W57198  16.838  43.777   4.802
86599W        W57199  32.596  42.024   0.292
86600W        W57200  29.650   0.784  12.381
86601W        W57201  21.607  20.471  13.862
86602W        W57202   4.465  30.074  13.818
86603W        W57203   7.899  17.796   1.021
86604W        W57204  24.159  16.092  14.660
86605W        W57205  21.734   2.804  14.459
86606W        W57206   4.836  23.603   2.837
86607W        W57207   9.248   5.015   0.895
86608W        W57208  23.641  25.694   0.503
86609W        W57209   7.697  37.885   2.736
86610W        W57210   6.428   2.855  14.623
86611W        W57211  15.193  30.644   3.615
86612W        W57212   1.469  17.373  12.580
86613W        W57213  13.102  17.024  12.538
86614W        W57214  25.156  18.627   4.688
86615W        W57215   4.948  37.930  10.550
86616W        W57216  42.767  10.724  14.308
86617W        W57217   4.893  26.232   4.137
86618W        W57218  33.921   2.550   0.946
86619W        W57219  26.807  34.850  11.177
86620W        W57220  17.055  39.295   2.292
86621W        W57221  21.282  44.648  11.347
86622W        W57222  24.503  14.613   4.696
86623W        W57223   8.734  16.648  10.855
86624W        W57224   6.781   1.464   4.236
86625W        W57225   9.745  15.230   0.919
86626W        W57226  25.639  20.080  11.889
86627W        W57227  15.273  27.478  11.579
86628W        W57228  37.801  26.098  10.371
86629W        W57229  20.879  37.949   0.393
86630W        W57230  43.972   6.477  10.890
86631W        W57231  19.138  39.580  11.490
86632W        W57232  19.793  23.725   1.197
86633W        W57233  32.995  25.517   1.681
86634W        W57234   8.726  34.523  14.874
86635W        W57235   8.869  10.280   0.266
86636W        W57236  43.651  30.393  14.481
86637W        W57237  13.704  32.661  12.848
86638W        W57238  29.811  21.379   1.935
86639W        W57239   0.796   8.917  13.365
86640W        W57240  13.342  18.245  10.736
86641W        W57241  12.490  24.473   4.463
86642W        W57242  36.830  32.979   2.421
86643W        W57243  39.480  14.321  12.928
86644W        W57244  21.988  34.622  14.934
86645W        W57245   8.457   6.613   2.313
86646W        W57246  43.355  26.909   0.298
86647W        W57247  36.478  22.900  10.541
86648W        W57248  13.648  21.480   1.947
86649W        W57249  17.662  16.678  10.835
86650W        W57250  14.390  14.111   2.786
86651W        W57251  30.463   6.202   0.037
86652W        W57252  44.977  24.615  13.877
86653W        W57253   0.018   6.351   3.214
86654W        W57254  16.107  41.582  12.478
86655W        W57255   6.862  34.985   2.474
86656W        W57256  42.823  13.320   3.760
86657W        W57257  18.238  32.441   2.267
86658W        W57258  16.484  10.336  12.039
86659W        W57259  44.206  21.050   2.669
86660W        W57260  36.788   6.639  12.207
86661W        W57261  26.928   6.459  14.342
86662W        W57262  15.761  13.656  12.830
86663W        W57263  23.211  17.257   2.216
86664W        W57264  33.594   0.774   1.281
86665W        W57265  22.676  41.860  11.039
86666W        W57266  18.184   8.819   3.148
86667W        W57267  13.617  13.164  11.543
86668W        W57268  34.570  43.414  13.909
86669W        W57269  20.771  11.187  13.127
86670W        W57270  30.172   2.969   4.790
86671W        W57271  40.785  31.391  11.396
86672W        W57272   7.771  36.130   2.325
86673W        W57273   4.721  27.470   2.450
86674W        W57274  19.125   7.301  11.038
86675W        W57275  39.867   7.837  13.752
86676W        W57276   2.340  40.747   4.784
86677W        W57277  18.929  42.021  12.448
86678W        W57278  20.894  31.158   2.459
86679W        W57279   1.682  40.230   4.334
86680W        W57280  28.036   2.412   3.727
86681W        W57281  16.092  24.063   2.449
86682W        W57282   4.230   9.863  10.570
86683W        W57283  27.063  37.337   4.659
86684W        W57284  18.846   0.110  11.520
86685W        W57285  21.110  22.543   2.827
86686W        W57286  20.724  25.121   4.726
86687W        W57287  25.911   2.390  10.634
86688W        W57288  35.459  33.325   3.731
86689W        W57289  13.537   4.160  10.631
86690W        W57290  30.720  13.590   2.770
86691W        W57291  38.789  15.945   4.025
86692W        W57292  21.095  20.580   2.903
86693W        W57293  22.740   8.955   3.742
86694W        W57294  30.558  26.114  12.338
86695W        W57295  43.076  19.998  11.155
86696W        W57296  39.004  12.931  14.249
86697W        W57297  26.233  32.736  14.060
86698W        W57298   9.271  24.589  13.407
86699W        W57299  21.379  24.754   0.907
86700W        W57300  19.988  41.883  14.526
86701W        W57301  41.904  41.462  12.800
86702W        W57302  11.744   1.996  12.758
86703W        W57303  22.763  10.345   4.189
86704W        W57304  39.310  34.147  10.656
86705W        W57305  12.351  13.347  10.716
86706W        W57306   1.247  32.933   4.055
86707W        W57307  17.578  22.784  14.299
86708W        W57308  34.020  28.410  10.604
86709W        W57309   8.740  31.691  13.937
86710W        W57310  41.945  41.784   3.434
86711W        W57311  33.978  27.574  14.993
86712W        W57312   7.941   2.896  14.925
86713W        W57313  21.240  13.068  14.920
86714W        W57314   0.505   4.046  14.238
86715W        W57315  19.132   7.678   3.931
86716W        W57316  24.924  38.295   0.942
86717W        W57317  35.863   2.444  13.493
86718W        W57318  17.587   0.217   3.342
86719W        W57319  29.546  19.144   1.406
86720W        W57320  44.966   0.799  11.512
86721W        W57321  15.407  15.072   3.553
86722W        W57322   7.640  21.995  11.112
86723W        W57323   9.204  41.115  14.406
86724W        W57324  19.749  30.866  11.428
86725W        W57325  10.206  19.593   3.731
86726W        W57326  35.120  18.042  13.461
86727W        W57327  20.743  19.251   2.731
86728W        W57328  27.962  20.487  14.878
86729W        W57329  37.370   3.702   4.934
86730W        W57330  21.606  32.582  13.345
86731W        W57331  36.991  27.062  12.562
86732W        W57332  30.599  34.933   3.180
86733W        W57333  36.086  15.276  12.477
86734W        W57334  28.189   0.576   4.119
86735W        W57335   3.903   3.638   2.701
86736W        W57336   5.386   2.687  11.018
86737W        W57337  20.829  33.872  12.072
86738W        W57338   7.797  24.076   1.721
86739W        W57339   5.836   2.933   4.658
86740W        W57340  31.922  39.119  13.056
86741W        W57341  20.129   4.893   4.597
86742W        W57342   8.456   0.610   2.922
86743W        W57343   6.442  27.702  10.431
86744W        W57344  40.949  11.708  13.979
86745W        W57345  36.259  38.916  12.696
86746W        W57346  14.359   1.337  12.009
86747W        W57347  34.878   1.016   3.145
86748W        W57348  26.190  40.214   2.245
86749W        W57349  34.365   4.651  12.530
86750W        W57350  40.919   3.925  10.590
86751W        W57351  11.158  21.597   3.277
86752W        W57352  39.896  21.806   1.380
86753W        W57353  21.596  33.202  10.524
86754W        W57354  11.509  32.382   1.172
86755W        W57355  41.123  22.086  11.223
86756W        W57356  15.526  26.257   2.277
86757W        W57357  10.307  24.690   4.641
86758W        W57358  22.765  25.475   1.415
86759W        W57359  17.888  11.132   4.186
86760W        W57360  21.003  22.077   4.653
86761W        W57361  21.065  37.539   0.878
86762W        W57362  14.216  28.910   2.274
86763W        W57363  44.912  34.999   4.410
86764W        W57364  44.240  39.947   3.318
86765W        W57365   7.824  19.799  14.408
86766W        W57366  11.639   8.639   0.749
86767W        W57367  29.650  26.738  12.023
86768W        W57368  36.949  27.949  12.445
86769W        W57369   8.761  31.197  13.627
86770W        W57370  10.190   1.885   1.003
86771W        W57371  31.726  13.702  11.986
86772W        W57372  17.585  14.948   4.450
86773W        W57373   0.669   1.528   4.176
86774W        W57374  37.193  22.484   0.810
86775W        W57375  10.244  17.196   4.526
86776W        W57376  16.561  10.107  13.343
86777W        W57377  27.748  22.621  11.712
86778W        W57378  16.489   6.663  13.527
86779W        W57379  42.259  36.508   4.545
86780W        W57380  28.394  27.134  12.472
86781W        W57381  38.040   9.804   2.896
86782W        W57382  42.227   4.666   2.277
86783W        W57383   7.820   5.529  10.963
86784W        W57384   4.482   1.723  13.939
86785W        W57385  11.291  38.181  10.580
86786W        W57386  13.602  27.097   2.870
86787W        W57387  29.751  44.165   2.693
86788W        W57388   7.699  22.620   0.570
86789W        W57389  39.420  36.332  13.900
86790W        W57390   8.266  24.485  10.980
86791W        W57391  29.010   5.109  13.816
86792W        W57392  34.004  29.560   3.874
86793W        W57393   6.022  11.746   1.732
86794W        W57394  33.795   4.061   0.939
86795W        W57395  26.203  18.172   0.690
86796W        W57396   4.175  28.298   0.149
86797W        W57397  29.917   1.307  14.408
86798W        W57398  17.329  21.359   3.143
86799W        W57399  36.424  31.935  11.058
86800W        W57400  35.917  44.910   3.683
86801W        W57401  22.573  21.546  11.088
86802W        W57402  37.382  25.571   3.750
86803W        W57403  20.610  26.456  14.849
86804W        W57404   5.748   3.183   0.433
86805W        W57405  22.579  28.253   0.269
86806W        W57406  30.907  27.231   4.931
86807W        W57407  30.524  10.594  14.587
86808W        W57408   4.645  28.936   9.884
86809W        W57409  30.560  14.078  14.836
86810W        W57410  25.162  43.828   2.727
86811W        W57411   6.617  29.406  14.199
86812W        W57412  36.042  42.884  10.854
86813W        W57413   8.702  28.084  14.929
86814W        W57414  14.768  26.386  10.969
86815W        W57415  20.192   2.875   2.844
86816W        W57416  18.678  41.437  13.140
86817W        W57417   8.753  21.317   2.283
86818W        W57418  35.735  17.103   4.115
86819W        W57419   4.817   5.884  11.126
86820W        W57420  32.395  27.413  11.484
86821W        W57421  26.618  21.309  14.039
86822W        W57422  37.893   6.814  12.996
86823W        W57423   2.198  37.130  11.146
86824W        W57424  10.555   5.261   4.151
86825W        W57425  34.622   1.260  12.642
86826W        W57426  39.993  17.156  13.265
86827W        W57427  38.341  25.365  14.884
86828W        W57428  40.525  29.500  14.055
86829W        W57429   2.384   0.600   1.100
86830W        W57430  29.930  35.985   0.597
86831W        W57431  40.001  35.912   4.116
86832W        W57432  22.147  36.610  11.539
86833W        W57433   0.966  13.786   1.470
86834W        W57434  33.153  44.313   1.729
86835W        W57435   0.442  22.642  11.936
86836W        W57436  24.072  12.760   2.630
86837W        W57437  12.825  34.720   0.739
86838W        W57438   2.882  41.275   4.188
86839W        W57439  18.680  37.334   4.575
86840W        W57440  11.812  32.523  10.122
86841W        W57441  28.622  22.753  11.581
86842W        W57442  39.999  34.610   4.420
86843W        W57443   3.488  43.696  14.970
86844W        W57444  37.607  28.910   1.844
86845W        W57445  25.611  30.678  12.942
86846W        W57446   7.961  26.742   2.809
86847W        W57447  37.448  38.445  10.736
86848W        W57448   2.070  15.804   4.296
86849W        W57449  20.275  15.713   2.567
86850W        W57450  10.326  43.949   1.644
86851W        W57451  24.133  17.672  13.886
86852W        W57452   4.352  35.668  14.424
86853W        W57453  35.828  30.474  11.543
86854W        W57454  23.742  37.440   1.803
86855W        W57455   6.284  13.773   1.709
86856W        W57456  17.944  39.994   0.087
86857W        W57457   0.228   5.949  10.916
86858W        W57458  12.620  44.505   2.787
86859W        W57459  33.066  10.737   0.719
86860W        W57460  38.538  43.493  11.997
86861W        W57461   5.874   0.897   2.888
86862W        W57462  44.750   9.595  14.431
86863W        W57463  16.108  13.824  13.632
86864W        W57464   6.976   3.773  12.992
86865W        W57465  12.404  23.069  12.645
86866W        W57466   3.475  11.538  10.693
86867W        W57467  22.830  41.017   2.138
86868W        W57468  13.848   2.377   2.784
86869W        W57469   4.797   6.947   4.510
86870W        W57470  14.267  13.196   5.593
86871W        W57471  12.747  29.837   3.224
86872W        W57472  16.812  44.338   2.573
86873W        W57473  44.139  25.864  10.740
86874W        W57474   9.487  36.429  12.152
86875W        W57475  44.324  22.513   2.801
86876W        W57476  14.206   6.430  14.043
86877W        W57477  20.289  21.683   0.260
86878W        W57478  12.605  30.464   4.563
86879W        W57479  42.956  29.444   2.721
86880W        W57480   0.248  12.294  14.885
86881W        W57481  17.662  27.126   1.906
86882W        W57482   5.979  31.180  13.422
86883W        W57483  44.764  25.682   0.622
86884W        W57484  41.537  39.074   3.690
86885W        W57485   9.367   1.811   1.372
86886W        W57486  41.051  19.356  11.204
86887W        W57487  22.440  21.760  14.765
86888W        W57488  33.986  44.263  14.966
86889W        W57489  32.157   3.383  11.957
86890W        W57490  36.935   5.830  12.874
86891W        W57491   0.733   3.824   3.892
86892W        W57492   0.116  25.653   3.109
86893W        W57493  43.892  41.083   0.204
86894W        W57494  36.084  43.125   2.710
86895W        W57495  20.697   9.619   3.176
86896W        W57496   2.248  43.220  12.961
86897W        W57497  30.415  13.303   2.483
86898W        W57498  41.840   7.209   4.766
86899W        W57499   7.222  41.979  13.976
86900W        W57500   8.356   5.568   0.812
86901W        W57501  44.836  11.139   0.730
86902W        W57502  14.542   0.929  11.222
86903W        W57503  44.428  38.132   3.798
86904W        W57504  28.951  37.749  12.439
86905W        W57505   1.374  13.202   4.088
86906W        W57506  23.413  42.017  12.584
86907W        W57507  24.493  29.682   2.418
86908W        W57508  10.315   9.803  13.880
86909W        W57509  32.353  29.197   1.440
86910W        W57510  31.047  21.836   1.309
86911W        W57511  28.493  17.750  10.997
86912W        W57512  32.659   9.337   3.417
86913W        W57513  28.106   0.811  14.835
86914W        W57514  43.944  28.558   2.920
86915W        W57515  26.451  16.137   0.488
86916W        W57516  29.397  44.724  11.350
86917W        W57517  36.035   9.749  12.156
86918W        W57518  20.067   1.829   0.852
86919W        W57519   9.357  24.277   2.200
86920W        W57520  20.035  27.439   3.281
86921W        W57521  32.144   8.411  11.228
86922W        W57522   0.253  25.595   1.750
86923W        W57523  43.213   9.898  11.159
86924W        W57524  15.366  14.345   0.285
86925W        W57525  43.042  19.540  10.880
86926W        W57526   2.156  27.157  11.496
86927W        W57527  11.549  35.388  10.353
86928W        W57528  27.444  28.350   2.348
86929W        W57529  13.236  14.377   1.553
86930W        W57530  42.488  12.343  13.001
86931W        W57531  19.705  29.769  14.086
86932W        W57532  16.219   7.453  14.256
86933W        W57533  12.557  25.964   0.341
86934W        W57534  33.042   9.389   2.710
86935W        W57535  34.637  33.852   4.785
86936W        W57536  25.455  29.388   0.748
86937W        W57537  13.639  16.786  14.072
86938W        W57538  17.168  33.227   1.265
86939W        W57539  15.717  21.262   1.687
86940W        W57540   0.254  42.589   4.566
86941W        W57541  16.557  43.847   0.954
86942W        W57542  25.913  23.769  13.645
86943W        W57543   3.830  28.873   2.452
86944W        W57544  37.319   3.890   0.099
86945W        W57545  29.476   8.609   5.025
86946W        W57546  15.182  29.163   3.777
86947W        W57547  38.544  34.022   1.369
86948W        W57548  38.684  13.140   0.100
86949W        W57549  37.210  24.094   4.182
86950W        W57550  24.704  10.147  10.789
86951W        W57551  34.567   8.620  10.347
86952W        W57552   8.640  11.969   1.758
86953W        W57553   7.620  15.923  12.560
86954W        W57554  16.772  43.451   0.513
86955W        W57555   6.732   0.787  13.008
86956W        W57556  28.673   5.673  10.547
86957W        W57557  22.855  29.945  14.415
86958W        W57558  41.042   5.650   3.221
86959W        W57559  23.466  34.102   2.334
86960W        W57560   3.438  29.716  11.071
86961W        W57561  39.828  13.549  10.590
86962W        W57562  37.400   2.764  13.585
86963W        W57563  16.626   6.869   1.686
86964W        W57564   9.430   4.271  10.878
86965W        W57565  39.776  40.827   1.739
86966W        W57566   5.803  16.317   3.195
86967W        W57567  41.871  22.799   4.781
86968W        W57568  30.419  30.564   1.453
86969W        W57569  15.174  12.202   3.750
86970W        W57570  13.611  38.956   1.857
86971W        W57571  22.173   2.423   3.719
86972W        W57572  19.265   2.443  11.698
86973W        W57573  13.759  13.894  14.008
86974W        W57574  12.153  43.501   0.404
86975W        W57575  18.974  33.632  13.458
86976W        W57576  38.111  21.083   0.553
86977W        W57577  19.133  37.024  13.126
86978W        W57578  24.199  24.671   1.702
86979W        W57579  18.838  11.566  14.060
86980W        W57580  21.324  40.233  10.704
86981W        W57581  43.530  30.891   2.747
86982W        W57582   4.396   8.755   4.383
86983W        W57583  40.761  17.253   2.852
86984W        W57584  39.829   8.315   3.256
86985W        W57585  10.903  16.379   1.789
86986W        W57586  28.846  15.708   4.851
86987W        W57587  23.011   9.665   1.354
86988W        W57588  17.299  43.862  10.756
86989W        W57589  16.477  32.206  12.566
86990W        W57590   8.987   4.529   1.412
86991W        W57591  18.682  28.715   5.348
86992W        W57592  28.157  38.387   4.594
86993W        W57593  22.375  39.579   3.252
86994W        W57594  13.398   8.291  13.263
86995W        W57595  43.257  35.901   4.634
86996W        W57596  27.031  30.613  12.975
86997W        W57597  31.162  40.371  12.385
86998W        W57598  25.810  18.536   2.158
86999W        W57599  17.052   2.893  10.646
87000W        W57600  28.650  41.036   0.045
87001W        W57601  16.670  16.698  11.115
87002W        W57602  43.527  16.122  12.550
87003W        W57603  17.748  44.779  13.882
87004W        W57604  13.908   9.605  12.124
87005W        W57605  15.408  12.095   3.312
87006W        W57606  31.497  16.586   1.256
87007W        W57607  15.071  33.417   3.156
87008W        W57608   0.280  43.463  12.401
87009W        W57609  24.500  30.547  13.087
87010W        W57610  39.613  42.812  12.518
87011W        W57611  23.655   6.006  11.691
87012W        W57612  42.729  36.535   0.967
87013W        W57613  29.478  23.430  12.750
87014W        W57614  18.232  14.250  12.952
87015W        W57615  24.687  12.858   4.822
87016W        W57616  36.560  32.348   1.138
87017W        W57617  28.947  26.651  10.425
87018W        W57618  39.947   2.284   4.694
87019W        W57619  38.567  41.361   3.692
87020W        W57620  29.153   6.981  11.209
87021W        W57621   2.945  14.225   3.756
87022W        W57622  33.590  36.715   1.938
87023W        W57623  35.819  27.540  12.049
87024W        W57624   2.913  15.815  14.946
87025W        W57625  26.278  35.917  11.957
87026W        W57626   1.015  17.713   2.299
87027W        W57627  11.762  10.838  12.722
87028W        W57628   1.763   1.308   1.812
87029W        W57629  23.065  13.018  14.317
87030W        W57630  23.587  35.460   4.714
87031W        W57631  39.245  14.310   2.282
87032W        W57632  42.922   9.916  10.739
87033W        W57633  31.505  30.000   3.361
87034W        W57634  37.363  26.715  12.684
87035W        W57635  14.655   0.966   4.778
87036W        W57636   3.218  19.348  10.779
87037W        W57637  41.597  19.977  14.582
87038W        W57638  39.381   3.949  12.281
87039W        W57639  26.089   9.220   2.110
87040W        W57640  23.258  15.256  12.014
87041W        W57641  35.521  32.456   1.379
87042W        W57642  16.848  44.245   0.796
87043W        W57643  15.623   9.840  10.935
87044W        W57644  30.635  27.030   3.702
87045W        W57645  10.805   3.622  10.509
87046W        W57646  36.282  27.706   4.176
87047W        W57647  44.403  23.681  14.487
87048W        W57648   7.966  35.735   0.423
87049W        W57649  14.750   3.392  11.513
87050W        W57650   4.614   9.307  12.398
87051W        W57651  43.007   0.308  12.498
87052W        W57652  23.705  35.641   2.325
87053W        W57653   9.799  10.778  11.525
87054W        W57654  14.904  44.472   2.318
87055W        W57655  26.535  37.865   1.387
87056W        W57656  10.289  11.860  12.974
87057W        W57657  34.458   4.996  11.097
87058W        W57658   3.714   4.104  14.034
87059W        W57659  22.143  20.149  12.363
87060W        W57660  31.552   7.171   4.613
87061W        W57661  39.491  40.559  14.323
87062W        W57662  13.088   5.952   4.384
87063W        W57663  16.520  21.537   1.973
87064W        W57664  39.469  16.638   2.779
87065W        W57665  39.479  20.403   0.548
87066W        W57666  36.014   3.041   2.184
87067W        W57667   3.297  37.599  14.097
87068W        W57668  34.504  28.669   2.245
87069W        W57669  24.284  19.129   4.839
87070W        W57670  36.432  40.131   1.640
87071W        W57671  22.498  29.155   2.695
87072W        W57672   7.649  31.826  11.202
87073W        W57673  10.763  24.074   0.346
87074W        W57674  34.029  18.469  11.489
87075W        W57675   8.563  15.769  10.646
87076W        W57676   5.453  32.012   3.199
87077W        W57677  28.170  22.570  14.630
87078W        W57678  31.591   5.260   3.563
87079W        W57679  22.759  16.030   1.884
87080W        W57680  28.347  44.429   1.789
87081W        W57681  32.872  40.374   0.308
87082W        W57682  22.726  21.955   0.615
87083W        W57683   0.735  43.168  12.449
87084W        W57684  21.244  26.652   1.744
87085W        W57685  21.869  22.556  12.566
87086W        W57686  16.417  22.530  11.681
87087W        W57687  33.988  33.199  10.920
87088W        W57688  26.201   7.213   4.108
87089W        W57689   3.858  39.478  10.457
87090W        W57690  29.763   4.511   2.123
87091W        W57691  33.826  34.880   0.764
87092W        W57692  34.822  38.468  11.955
87093W        W57693  40.942  14.883   2.889
87094W        W57694  19.318  42.436   2.745
87095W        W57695  31.598  38.443  13.169
87096W        W57696  14.341  11.237  11.177
87097W        W57697  39.535  41.839  12.109
87098W        W57698  10.723   8.136   3.839
87099W        W57699   2.371  35.048  12.562
87100W        W57700  37.530  23.480  11.520
87101W        W57701  36.165  19.283   3.199
87102W        W57702  21.731   4.864  12.663
87103W        W57703   7.583  35.115  11.520
87104W        W57704  13.036  23.591   4.597
87105W        W57705  20.405  20.511   1.131
87106W        W57706   6.006  10.811   4.330
87107W        W57707  25.518  26.928   4.507
87108W        W57708  22.641  20.737   0.847
87109W        W57709  37.819  15.539   0.410
87110W        W57710  18.349  32.916   4.100
87111W        W57711  15.575   6.804  13.454
87112W        W57712   6.008  29.561  10.867
87113W        W57713  36.843  33.979   3.511
87114W        W57714  37.521  37.496  11.601
87115W        W57715   3.527  37.916   4.252
87116W        W57716  33.652  22.039  11.053
87117W        W57717  17.184  13.376   0.435
87118W        W57718   6.612  21.029   3.726
87119W        W57719  22.520  36.357  13.934
87120W        W57720  24.026  11.719   0.401
87121W        W57721  34.817  39.347  12.068
87122W        W57722  24.647   1.515  13.474
87123W        W57723  21.100   1.739  10.988
87124W        W57724  28.267  34.059  13.400
87125W        W57725   0.633  42.597   2.423
87126W        W57726  10.878   3.172  12.210
87127W        W57727  37.380  26.041  10.672
87128W        W57728  31.899  41.877   1.823
87129W        W57729  44.225  16.558  14.205
87130W        W57730  17.249  31.117   4.745
87131W        W57731   4.365  31.007  12.899
87132W        W57732  17.299  24.080   2.883
87133W        W57733  11.299   0.589   3.905
87134W        W57734  34.100   0.296  13.326
87135W        W57735  26.244  22.129  12.206
87136W        W57736  22.950   2.710  10.933
87137W        W57737   9.714  41.943   0.562
87138W        W57738  37.498  26.090   2.311
87139W        W57739  32.582  21.066  10.790
87140W        W57740  38.071  27.464  13.819
87141W        W57741  30.388  33.159  12.502
87142W        W57742   7.407  40.112  12.160
87143W        W57743  37.939  18.527  11.955
87144W        W57744  16.300  11.566   2.417
87145W        W57745  22.786  41.662  13.088
87146W        W57746  44.308   1.164   3.316
87147W        W57747  41.183  37.181  11.098
87148W        W57748   0.752  26.005   0.079
87149W        W57749  34.826  18.256  11.153
87150W        W57750   4.744   4.743   4.532
87151W        W57751   8.092  25.808  13.951
87152W        W57752   5.732  13.142   0.035
87153W        W57753  43.244  21.756   3.248
87154W        W57754   7.430   3.502  12.461
87155W        W57755  39.578   6.840  14.982
87156W        W57756  35.498  33.312   2.391
87157W        W57757  28.016  10.840   3.176
87158W        W57758  19.605  20.775  14.610
87159W        W57759  39.271  42.260  10.582
87160W        W57760  14.340  39.476  13.000
87161W        W57761  28.402  21.134   3.577
87162W        W57762  43.926  12.679   4.609
87163W        W57763  10.597  14.250   3.796
87164W        W57764  21.691   3.479   3.740
87165W        W57765   3.804  25.622   0.842
87166W        W57766  22.704  44.787  11.905
87167W        W57767  10.845  12.796  12.089
87168W        W57768  32.263   8.138  13.965
87169W        W57769   4.471  20.728  10.631
87170W        W57770  15.121   2.953  12.913
87171W        W57771  37.071  11.964   4.145
87172W        W57772   9.263  21.931   3.808
87173W        W57773  29.780  33.169   3.468
87174W        W57774   4.275   0.831   4.888
87175W        W57775  32.569  31.591  10.545
87176W        W57776  42.964  30.075   3.420
87177W        W57777  13.237   1.543   3.353
87178W        W57778  24.594   2.752   2.809
87179W        W57779  36.631  27.255   2.712
87180W        W57780  24.963  36.222   0.188
87181W        W57781  36.833  35.329  12.511
87182W        W57782  25.581  35.148   3.647
87183W        W57783   1.975  44.989  13.412
87184W        W57784  28.279  20.769  12.303
87185W        W57785  15.792  16.910  14.792
87186W        W57786   9.480   9.804   3.723
87187W        W57787   7.364  36.332  14.276
87188W        W57788  19.187  19.343   1.824
87189W        W57789   2.068  41.722  12.082
87190W        W57790   5.199  25.687  11.406
87191W        W57791  34.447  29.585  14.492
87192W        W57792  24.646  27.388   3.461
87193W        W57793   2.374  38.887  11.535
87194W        W57794  21.703   9.225   5.090
87195W        W57795  31.827  22.100   4.557
87196W        W57796  29.978  43.473   3.622
87197W        W57797  28.578   8.963   0.763
87198W        W57798  31.013  26.514  10.677
87199W        W57799  42.272  39.026  11.110
87200W        W57800  14.559  16.563  14.100
87201W        W57801   2.157  37.280   4.146
87202W        W57802  19.936  29.772   2.790
87203W        W57803  24.315  15.314  11.838
87204W        W57804  16.484   2.248  13.015
87205W        W57805  42.319  13.259   3.754
87206W        W57806   2.845  43.090   4.707
87207W        W57807  36.699  25.084   1.934
87208W        W57808  43.852  23.121  11.389
87209W        W57809  19.221  27.125  13.477
87210W        W57810  16.375   0.177   3.802
87211W        W57811  39.144  10.726   2.955
87212W        W57812  41.962  39.453  14.715
87213W        W57813   4.865  33.329  11.117
87214W        W57814  43.825   2.366  11.194
87215W        W57815   2.814  27.754   0.734
87216W        W57816  34.884  43.025  14.559
87217W        W57817  28.331  36.165  10.359
87218W        W57818  26.981  32.727  12.582
87219W        W57819  32.883  24.635   1.772
87220W        W57820   1.061  18.180  13.784
87221W        W57821  12.280  26.249  13.655
87222W        W57822   9.045  19.573  13.430
87223W        W57823  24.960  11.583   4.639
87224W        W57824  17.791   7.253   3.720
87225W        W57825  21.524  24.522  14.520
87226W        W57826  42.282  37.518   3.112
87227W        W57827  29.416  34.950   2.357
87228W        W57828  21.484  16.772   2.766
87229W        W57829  44.892  20.139  12.373
87230W        W57830  25.134  40.497   3.329
87231W        W57831   3.919  42.907  14.838
87232W        W57832   7.742   6.256   0.232
87233W        W57833  24.620  33.402  14.859
87234W        W57834  17.704  11.603   4.123
87235W        W57835   7.827  34.467  11.121
87236W        W57836  34.981  33.701  13.802
87237W        W57837  42.487  15.327  10.502
87238W        W57838  16.835  20.323   3.570
87239W        W57839   5.718   0.165   0.400
87240W        W57840  29.686   5.903  11.139
87241W        W57841  41.974  12.231   1.488
87242W        W57842  42.058  43.502  13.991
87243W        W57843  41.488  11.829   2.026
87244W        W57844  25.182  13.071   3.385
87245W        W57845  18.611   3.094  12.107
87246W        W57846   4.356  39.201  12.619
87247W        W57847  21.069  27.214  13.357
87248W        W57848  44.519  26.140   4.508
87249W        W57849  30.150  22.738   2.140
87250W        W57850   1.721  18.717  12.868
87251W        W57851  11.757  40.296  12.063
87252W        W57852  30.674  10.661   0.062
87253W        W57853  33.921  35.132  12.332
87254W        W57854  11.588  38.415   0.335
87255W        W57855  44.400  35.878  14.807
87256W        W57856  10.322  40.997  12.544
87257W        W57857  38.277  31.663  12.526
87258W        W57858  32.222   1.293   2.688
87259W        W57859  14.386  21.318  13.724
87260W        W57860  33.038  21.784   2.155
87261W        W57861   0.881  44.130   3.921
87262W        W57862  29.160   7.681   2.657
87263W        W57863  13.295   7.479  12.449
87264W        W57864  11.717  24.477  14.274
87265W        W57865  26.649  16.489  11.172
87266W        W57866  44.369  33.900   4.485
87267W        W57867  31.125  44.674  13.551
87268W        W57868  37.498  12.311   3.421
87269W        W57869   3.824  23.578  10.081
87270W        W57870   3.758  12.338   4.319
87271W        W57871   7.546  33.363  11.236
87272W        W57872   3.999  25.675  14.016
87273W        W57873  36.523   1.984  14.926
87274W        W57874   7.643  19.276   0.986
87275W        W57875  19.645  41.811   4.525
87276W        W57876   6.730  25.110   4.198
87277W        W57877   6.903   0.984   4.389
87278W        W57878  24.039  32.412  12.355
87279W        W57879  44.186  28.373   2.126
87280W        W57880   1.684  21.071   4.111
87281W        W57881  10.251  20.826   0.789
87282W        W57882  28.554   8.752  10.508
87283W        W57883  31.965  44.247   0.015
87284W        W57884  21.944  11.788   1.418
87285W        W57885  28.944  31.613  13.546
87286W        W57886  43.562  39.969  12.602
87287W        W57887  14.661  10.419   2.207
87288W        W57888  32.677   9.418  11.204
87289W        W57889  38.533   8.822  13.599
87290W        W57890   3.932  29.744  13.157
87291W        W57891  34.661  15.698  14.417
87292W        W57892   6.495  43.033   3.658
87293W        W57893  27.386  28.517  12.879
87294W        W57894   7.289  32.611   1.056
87295W        W57895  20.763  38.351  12.567
87296W        W57896  25.631  33.996   4.046
87297W        W57897   7.920  28.462  13.463
87298W        W57898   8.285  36.219   2.384
87299W        W57899  44.419  26.042  14.530
87300W        W57900  33.709  10.418  10.278
87301W        W57901   7.680  28.930  13.626
87302W        W57902  10.441  30.624  12.068
87303W        W57903  25.145  12.392  11.029
87304W        W57904  35.545  26.011   2.345
87305W        W57905  18.554  13.093  12.554
87306W        W57906  40.107  25.193   2.220
87307W        W57907  38.516   9.148   0.415
87308W        W57908  31.340  43.077  11.362
87309W        W57909  10.054   8.918   0.028
87310W        W57910  18.491  43.727   3.583
87311W        W57911  31.206  31.674  11.617
87312W        W57912   5.319  43.672   1.724
87313W        W57913  38.844   0.742   4.975
87314W        W57914  18.860  29.643  14.147
87315W        W57915  36.298  43.732  12.012
87316W        W57916  25.158  27.688   1.304
87317W        W57917  14.095   6.212   4.246
87318W        W57918   8.600  13.769   2.923
87319W        W57919   8.358   6.243  13.994
87320W        W57920   1.338  29.819  14.885
87321W        W57921  40.939  21.220   3.611
87322W        W57922  19.735  26.262   0.201
87323W        W57923  41.292  10.355  13.533
87324W        W57924  24.073  29.359  10.109
87325W        W57925   6.423   6.120  11.904
87326W        W57926   5.737  39.085  14.507
87327W        W57927  41.126  16.243  14.293
87328W        W57928  31.424  20.896   4.891
87329W        W57929   8.377   0.132   0.028
87330W        W57930  20.667  24.677   3.049
87331W        W57931  17.965  20.835  14.295
87332W        W57932   3.001  40.223  14.697
87333W        W57933  21.041  34.900  13.344
87334W        W57934  12.718  38.260  11.072
87335W        W57935  10.257  28.264  13.110
87336W        W57936  12.452  35.504  11.097
87337W        W57937  27.510  41.383  11.281
87338W        W57938  15.529   0.766   2.667
87339W        W57939  29.885  16.149  11.661
87340W        W57940  16.475  24.458   3.026
87341W        W57941  42.827  16.786   1.301
87342W        W57942  17.962  33.500   0.316
87343W        W57943  29.850   2.809  13.449
87344W        W57944  43.899  22.580   1.811
87345W        W57945   8.378  36.434  10.630
87346W        W57946  19.528  22.515  13.056
87347W        W57947  32.223  14.300  11.481
87348W        W57948  44.939   3.989   0.791
87349W        W57949   8.850   0.225   2.279
87350W        W57950  22.465  40.896  13.276
87351W        W57951  41.890  39.923  11.996
87352W        W57952  39.764  35.501   2.794
87353W        W57953  37.359  35.933   1.274
87354W        W57954  13.274  32.714  13.490
87355W        W57955   1.408  41.096  14.837
87356W        W57956  13.282  32.781  11.153
87357W        W57957  43.067  23.655   2.320
87358W        W57958  27.705  32.036  14.059
87359W        W57959  34.034  11.986   4.652
87360W        W57960   8.129  42.244  13.366
87361W        W57961   6.278  13.633  10.226
87362W        W57962   2.453   0.828  10.661
87363W        W57963  43.538   6.614  10.643
87364W        W57964  43.256  24.130   2.260
87365W        W57965  15.610  23.797   4.854
87366W        W57966   9.351   5.778   1.516
87367W        W57967  44.460   1.905   1.421
87368W        W57968  24.586   0.492  14.347
87369W        W57969  26.422  10.274   2.819
87370W        W57970  37.621  26.994   2.165
87371W        W57971  37.485   4.162  13.840
87372W        W57972  22.056  18.007   3.772
87373W        W57973  35.770  18.187  13.026
87374W        W57974  11.747  31.995  12.871
87375W        W57975  17.131  40.979  13.154
87376W        W57976  16.040  42.405  14.415
87377W        W57977  41.232  38.036   1.433
87378W        W57978  38.478  33.519   3.615
87379W        W57979   0.381  17.259  13.411
87380W        W57980  32.726  43.353  11.062
87381W        W57981  13.554  41.409  11.672
87382W        W57982   7.981   7.384  13.446
87383W        W57983   9.804  17.173  12.923
87384W        W57984  35.583  15.731  14.467
87385W        W57985  11.861  44.725   0.798
87386W        W57986   4.160   9.896  11.396
87387W        W57987  32.914   1.004   0.254
87388W        W57988  25.771  34.929   2.853
87389W        W57989  34.707  24.491   3.708
87390W        W57990  43.795  39.301   4.823
87391W        W57991   9.756   4.180   0.280
87392W        W57992   2.282  13.549   2.865
87393W        W57993  16.062  31.468   1.109
87394W        W57994  15.181  34.020  11.990
87395W        W57995  35.484   2.934   3.374
87396W        W57996  25.435  43.301   1.799
87397W        W57997  10.899  31.041   3.695
87398W        W57998   5.364  34.552   2.281
87399W        W57999  18.161   1.763   0.460
87400W        W58000  36.573  19.033  13.921
87401W        W58001  14.847  18.336  11.898
87402W        W58002  27.190  14.660  14.743
87403W        W58003  18.456   2.228   1.177
87404W        W58004  38.287  16.271   2.787
87405W        W58005  30.655  32.097  13.325
87406W        W58006  21.001  24.371   3.350
87407W        W58007   7.806  22.081  14.245
87408W        W58008   3.458  26.443  14.495
87409W        W58009  34.584  33.017  12.166
87410W        W58010   9.970  39.598  13.496
87411W        W58011  44.935  10.067  12.985
87412W        W58012   5.343  20.132   0.288
87413W        W58013  18.249  41.795   0.458
87414W        W58014  38.930   0.062   1.187
87415W        W58015   1.369   2.452  13.329
87416W        W58016  38.424  13.315   0.498
87417W        W58017  36.538  14.678   4.090
87418W        W58018  14.777  33.288   4.566
87419W        W58019   0.443  32.561   1.289
87420W        W58020   3.680  18.479   2.778
87421W        W58021  42.567  40.504  13.471
87422W        W58022  26.049  18.667   4.660
87423W        W58023  12.783   0.949   0.783
87424W        W58024   0.621  39.508   4.842
87425W        W58025  31.055   1.942  13.326
87426W        W58026  33.221   1.887  10.217
87427W        W58027   9.803   7.489  13.014
87428W        W58028  37.561  26.506   4.202
87429W        W58029  38.964  35.534  12.683
87430W        W58030  17.592   4.697  14.415
87431W        W58031  38.837  33.363   0.251
87432W        W58032  18.077  27.097  14.959
87433W        W58033  25.259  36.493   4.372
87434W        W58034  13.763  21.213  14.551
87435W        W58035  18.832   9.693   0.992
87436W        W58036   6.454  34.831  12.625
87437W        W58037  24.466  20.175  14.847
87438W        W58038  26.482  42.292   3.489
87439W        W58039   1.146   2.228   0.864
87440W        W58040  11.444  18.542   2.778
87441W        W58041  23.125  31.311   4.077
87442W        W58042  28.164  17.686  12.863
87443W        W58043  34.930  16.623  14.268
87444W        W58044   3.152  43.218   0.294
87445W        W58045  31.118  22.070   0.754
87446W        W58046   1.192   2.775   3.751
87447W        W58047  29.629  31.543   1.821
87448W        W58048  16.963   3.912   1.245
87449W        W58049  33.575   0.410  12.025
87450W        W58050  21.252  16.926   4.113
87451W        W58051  43.822  34.433  10.867
87452W        W58052  19.532  41.067   1.740
87453W        W58053  39.272  35.590   4.800
87454W        W58054   6.381  21.337   3.254
87455W        W58055  34.493  24.124  14.036
87456W        W58056   2.176  39.292  14.089
87457W        W58057  25.959  13.800  12.547
87458W        W58058  38.746  15.203   2.152
87459W        W58059  16.919  24.617  11.620
87460W        W58060  27.666  36.802  12.006
87461W        W58061  30.575  16.310  13.540
87462W        W58062  27.932  29.738  13.958
87463W        W58063  16.367  19.846   3.509
87464W        W58064  32.563  35.367  10.602
87465W        W58065   0.239  30.099  13.816
87466W        W58066  40.983   7.982  10.600
87467W        W58067  27.768  40.808   0.835
87468W        W58068  42.737  21.452   4.188
87469W        W58069   8.778  39.520  10.558
87470W        W58070  21.193  17.672   2.704
87471W        W58071  18.844   3.052  14.396
87472W        W58072  16.165   3.812  14.832
87473W        W58073   8.839  41.638   1.014
87474W        W58074   6.691  10.377  14.206
87475W        W58075  21.004  13.820  14.498
87476W        W58076  42.491  26.455  10.715
87477W        W58077  40.764  27.567   1.839
87478W        W58078  43.840  22.828  10.635
87479W        W58079   3.569  17.028  10.536
87480W        W58080  12.842   5.288   1.643
87481W        W58081  37.889  28.683   2.221
87482W        W58082   2.780  37.398   0.785
87483W        W58083  30.165  24.587  12.898
87484W        W58084  22.943  44.360  11.616
87485W        W58085  20.493  43.997   0.876
87486W        W58086  13.631  44.316   2.879
87487W        W58087  26.487  19.009   0.435
87488W        W58088   1.671  33.019   3.728
87489W        W58089  30.546   4.205   2.201
87490W        W58090  34.602   1.292   0.981
87491W        W58091  36.848  40.978   3.678
87492W        W58092  33.554   6.456  13.399
87493W        W58093  40.410  26.905   4.523
87494W        W58094  11.606  33.289  10.548
87495W        W58095  33.412   5.924  11.781
87496W        W58096  20.760  21.632   0.514
87497W        W58097   3.667  27.504  11.856
87498W        W58098   4.260  22.703   2.829
87499W        W58099  34.293  16.142  14.754
87500W        W58100  44.330  33.026   0.981
87501W        W58101  20.610  26.722   0.390
87502W        W58102   5.891  12.349   3.316
87503W        W58103  28.266   8.167   1.035
87504W        W58104   8.377   4.923   0.268
87505W        W58105   6.417  39.088  13.497
87506W        W58106  44.259   7.475   0.786
87507W        W58107  19.742  33.721  13.808
87508W        W58108   8.208  36.404  13.894
87509W        W58109  10.624   2.315   2.679
87510W        W58110  30.489   1.279   2.291
87511W        W58111  42.800  32.371  12.163
87512W        W58112  43.409  26.718  13.846
87513W        W58113  18.886  19.778  14.257
87514W        W58114  30.124   7.814   2.642
87515W        W58115   8.196  20.301  10.678
87516W        W58116  44.815  24.967   1.492
87517W        W58117  11.920  23.816   9.572
87518W        W58118  11.085   4.731   0.918
87519W        W58119  24.738  36.663  12.319
87520W        W58120  15.705   9.981  10.062
87521W        W58121  29.944  13.517   0.890
87522W        W58122   0.328  40.427   3.306
87523W        W58123  38.973  33.628   3.740
87524W        W58124   0.810   3.872   2.388
87525W        W58125   7.131  36.096   3.575
87526W        W58126  29.192   9.852  10.719
87527W        W58127   3.534   0.978   3.488
87528W        W58128   1.122  12.174   4.714
87529W        W58129  19.373  18.003  13.856
87530W        W58130  19.042  40.324  11.936
87531W        W58131  30.157  33.647   2.629
87532W        W58132  26.644   3.261   1.409
87533W        W58133  32.687  35.039   3.196
87534W        W58134  39.355  16.639  14.422
87535W        W58135  22.232  26.022  14.198
87536W        W58136   5.996   6.297  11.682
87537W        W58137  22.134  12.075   2.273
87538W        W58138  30.074  27.444   1.778
87539W        W58139  21.596  21.546  11.181
87540W        W58140  35.902   6.680   1.390
87541W        W58141   8.112   4.732   2.725
87542W        W58142  24.738   4.826   1.492
87543W        W58143  35.893  22.928  12.524
87544W        W58144  42.258  34.079   3.756
87545W        W58145  42.315  21.907  12.239
87546W        W58146  34.586  33.137   0.482
87547W        W58147  29.199  30.765   1.893
87548W        W58148  17.643  22.268   2.313
87549W        W58149  24.919  23.090   2.298
87550W        W58150   9.260  37.631   3.286
87551W        W58151   5.337   7.737   1.144
87552W        W58152  17.408  12.694  13.765
87553W        W58153  23.475  14.791   1.416
87554W        W58154  22.348   1.405   1.200
87555W        W58155  41.445  44.108   0.473
87556W        W58156  25.475   5.905  13.331
87557W        W58157  22.567  19.641   1.693
87558W        W58158  26.933  37.186  12.493
87559W        W58159  17.240  32.434  10.585
87560W        W58160  41.000  21.656   1.020
87561W        W58161  18.534  38.771   0.954
87562W        W58162  43.520  39.740  14.986
87563W        W58163  20.275  29.407  10.471
87564W        W58164  13.611   3.233   1.295
87565W        W58165  19.268  22.064  12.860
87566W        W58166  26.182  43.484   0.135
87567W        W58167  19.157   6.178  13.405
87568W        W58168  25.609  13.524   0.254
87569W        W58169  26.880   1.524   1.816
87570W        W58170  15.535  33.170   3.306
87571W        W58171  31.706   7.492  11.608
87572W        W58172  27.138  38.831   1.890
87573W        W58173  13.648  39.150   2.327
87574W        W58174   7.222  43.416   1.947
87575W        W58175   9.247   3.209  14.808
87576W        W58176   8.981  38.977   3.169
87577W        W58177  16.617  20.992  11.668
87578W        W58178  22.838   9.144   0.045
87579W        W58179  33.036   0.360  13.393
87580W        W58180  17.324   4.182  10.899
87581W        W58181   5.405  32.767   2.041
87582W        W58182  42.332  37.631   0.658
87583W        W58183  28.706  44.684   4.274
87584W        W58184  31.969  16.904   1.399
87585W        W58185  41.477  25.785   0.585
87586W        W58186  13.572  20.434  12.905
87587W        W58187   7.159  21.255  11.618
87588W        W58188   1.230   5.252  13.400
87589W        W58189  18.421  30.035   4.635
87590W        W58190  10.904  12.850   0.871
87591W        W58191  32.702  20.589  12.039
87592W        W58192  34.602  26.499  12.549
87593W        W58193  11.415  10.237   0.397
87594W        W58194  36.901   4.621   5.064
87595W        W58195  11.872  44.953  10.720
87596W        W58196  16.107  40.905   9.773
87597W        W58197  42.300  42.411  12.160
87598W        W58198   2.220  10.767   4.687
87599W        W58199  10.887  44.265   0.742
87600W        W58200  35.968   8.627  10.446
87601W        W58201  18.986  36.820  13.612
87602W        W58202   6.831  42.328  12.275
87603W        W58203  40.036  43.181   4.670
87604W        W58204  31.119  36.149  12.018
87605W        W58205  33.155  41.296   2.177
87606W        W58206  20.659  24.910  14.995
87607W        W58207  42.781  28.679   0.720
87608W        W58208   0.404  31.558   4.635
87609W        W58209   8.589  15.275   2.631
87610W        W58210  36.642  27.478  12.369
87611W        W58211   2.976  31.573  12.968
87612W        W58212  14.551   1.360   2.380
87613W        W58213  44.480  20.035   3.579
87614W        W58214   2.832   4.696   1.795
87615W        W58215  34.456  28.121  12.039
87616W        W58216  21.188  27.542   1.342
87617W        W58217  19.980  44.439   4.685
87618W        W58218  11.116  42.686   1.389
87619W        W58219   7.490  40.015   4.016
87620W        W58220  17.110  23.765  10.732
87621W        W58221  15.440  33.017  14.983
87622W        W58222  28.894  43.006  13.052
87623W        W58223  11.307  40.067  11.943
87624W        W58224  24.600  39.572   2.415
87625W        W58225  11.356   7.359   3.730
87626W        W58226   9.770  26.161  12.898
87627W        W58227  19.791  22.260  14.257
87628W        W58228  42.843   8.675   2.781
87629W        W58229  16.994  41.707  11.088
87630W        W58230  12.957  21.176   3.022
87631W        W58231  16.112  41.886   0.788
87632W        W58232  29.720   7.122   0.254
87633W        W58233  35.746   5.834   4.201
87634W        W58234  15.235  12.931  13.517
87635W        W58235  28.499  25.961   0.798
87636W        W58236  26.583   3.018   1.971
87637W        W58237  43.989  39.423   1.935
87638W        W58238   3.314   3.753  14.806
87639W        W58239  43.292  17.517   1.533
87640W        W58240   2.013  11.884  14.400
87641W        W58241  44.334  44.716   0.055
87642W        W58242  44.413  19.598   1.614
87643W        W58243  20.371  15.171  11.535
87644W        W58244   0.877   3.516   1.667
87645W        W58245  25.028  10.030   2.470
87646W        W58246  27.110  28.672   4.527
87647W        W58247  15.690  25.238  12.852
87648W        W58248  26.175   4.266  12.455
87649W        W58249  23.145  15.288   4.104
87650W        W58250  37.161  34.056  14.736
87651W        W58251  22.249  35.613   2.155
87652W        W58252  39.986   7.893   1.788
87653W        W58253  17.033  42.214   1.265
87654W        W58254  12.268  27.667  12.466
87655W        W58255  18.737  22.471   1.325
87656W        W58256  12.876  26.991   4.595
87657W        W58257  24.684  30.536  12.570
87658W        W58258  35.390  20.469   2.684
87659W        W58259   2.473  16.279  13.556
87660W        W58260  14.993  12.487   5.453
87661W        W58261   8.688  39.229  10.982
87662W        W58262  34.778  24.001   2.787
87663W        W58263  43.355  38.481   4.844
87664W        W58264  31.674  38.883   0.928
87665W        W58265   4.414   4.534   3.685
87666W        W58266  32.060  15.577  13.277
87667W        W58267   2.685  32.020  12.910
87668W        W58268  18.881   6.954  13.389
87669W        W58269  37.148  27.404   2.659
87670W        W58270  13.119  35.639  13.632
87671W        W58271  34.268  32.015  13.587
87672W        W58272  41.128  18.991   1.506
87673W        W58273  36.973  34.104  12.005
87674W        W58274  12.050   7.670   1.604
87675W        W58275  44.494  15.792  13.780
87676W        W58276   1.660  32.927   1.060
87677W        W58277  32.019  41.026  12.011
87678W        W58278   9.886   2.358   3.287
87679W        W58279  32.516  32.242  14.932
87680W        W58280  19.597  23.493  12.956
87681W        W58281   1.764  23.514   0.473
87682W        W58282  22.119   2.351   1.821
87683W        W58283  25.926   2.484   1.571
87684W        W58284  37.455  32.647   4.529
87685W        W58285  33.884  32.347   1.886
87686W        W58286  30.969  44.985   2.174
87687W        W58287  32.137  20.314  11.605
87688W        W58288   7.396  40.281  13.956
87689W        W58289  38.929  26.142   2.460
87690W        W58290  24.584  31.932   0.034
87691W        W58291  23.450  19.256  12.521
87692W        W58292   0.396   8.055   4.178
87693W        W58293  32.899  18.523   1.171
87694W        W58294  30.714  21.595   0.929
87695W        W58295   7.701  31.807   0.931
87696W        W58296  40.831  24.244  10.473
87697W        W58297   7.381  37.109   3.175
87698W        W58298  34.875  39.124   1.015
87699W        W58299  30.255  25.043   3.233
87700W        W58300  33.265  23.254   5.197
87701W        W58301  37.147  34.947  12.933
87702W        W58302  32.163  26.591  13.904
87703W        W58303   4.436  24.538  13.936
87704W        W58304  27.756  44.407  10.585
87705W        W58305  28.663  22.317   0.761
87706W        W58306  25.900   3.633  14.929
87707W        W58307  22.283  20.636  11.950
87708W        W58308  39.471   0.023   1.878
87709W        W58309  24.911  13.297  13.463
87710W        W58310  24.931  35.820  12.464
87711W        W58311   2.480  27.690   3.129
87712W        W58312  29.488   8.479   2.735
87713W        W58313  15.853  33.995   1.944
87714W        W58314  41.236  28.415   4.924
87715W        W58315  18.327  44.340  11.092
87716W        W58316  39.984   7.383   4.176
87717W        W58317  24.689  34.102  11.035
87718W        W58318  40.948  41.211  11.035
87719W        W58319   0.353  36.593  12.650
87720W        W58320  19.206  40.265   1.334
87721W        W58321   1.199  39.548   0.901
87722W        W58322   7.686  19.863  13.890
87723W        W58323  31.100  11.651  10.490
87724W        W58324  26.292   2.832   2.439
87725W        W58325  18.299   5.716  13.768
87726W        W58326  41.270  31.396  13.521
87727W        W58327  24.919  14.211   1.758
87728W        W58328  36.416  10.190   4.500
87729W        W58329  28.953   1.753   4.226
87730W        W58330  14.648  42.010   1.323
87731W        W58331  30.116   8.112  11.154
87732W        W58332  11.293  36.355  12.001
87733W        W58333  42.848  13.367   4.639
87734W        W58334   3.002  23.098  10.769
87735W        W58335  27.429  16.206   2.180
87736W        W58336  17.401  36.789   4.293
87737W        W58337  39.121   8.392  10.705
87738W        W58338  36.466   1.499  10.692
87739W        W58339  39.549  24.527  14.479
87740W        W58340  42.322  25.689   0.251
87741W        W58341  38.033  37.865   3.423
87742W        W58342  40.296  32.042   5.100
87743W        W58343  44.960   7.891  14.745
87744W        W58344  31.378  11.153   4.901
87745W        W58345   2.372  13.845   1.412
87746W        W58346  21.996  41.373   0.689
87747W        W58347  16.067   8.175   0.345
87748W        W58348  21.282  28.760  12.536
87749W        W58349  33.160  17.688   1.744
87750W        W58350  43.142  23.109   4.317
87751W        W58351   2.276  41.007  12.378
87752W        W58352   9.703   0.060  13.063
87753W        W58353  37.281  38.915  12.857
87754W        W58354  29.452  41.411  11.321
87755W        W58355  14.126  28.636   2.801
87756W        W58356  34.608  33.055   1.847
87757W        W58357   3.934  39.991  10.610
87758W        W58358  18.109   9.101   3.560
87759W        W58359  19.705   6.186  11.389
87760W        W58360  31.696  44.015   1.267
87761W        W58361  28.712  28.293  13.325
87762W        W58362  28.962  43.438   3.600
87763W        W58363  21.430  15.746  13.000
87764W        W58364   6.717  13.883  14.531
87765W        W58365  29.096   4.220  14.537
87766W        W58366  23.296  17.167  12.436
87767W        W58367  20.593  32.413  14.543
87768W        W58368   8.227  11.868   3.360
87769W        W58369   7.408  31.389   0.860
87770W        W58370  18.557  30.716  11.376
87771W        W58371  15.520   3.260   2.361
87772W        W58372  30.000   7.144  13.051
87773W        W58373   3.772  23.955   4.554
87774W        W58374  31.841  27.032   4.529
87775W        W58375  27.427  43.224   3.199
87776W        W58376   0.345  15.562   0.005
87777W        W58377  16.002   7.676  12.042
87778W        W58378  21.571  29.020   3.596
87779W        W58379  31.125  27.197   3.258
87780W        W58380   0.391   4.620  12.852
87781W        W58381  36.349  21.460   4.744
87782W        W58382  36.872  41.041  12.459
87783W        W58383  13.324  10.330   3.397
87784W        W58384  26.086  12.188  10.944
87785W        W58385  24.462  11.847  13.303
87786W        W58386   1.501  20.060  12.943
87787W        W58387  26.580   7.766  14.551
87788W        W58388  12.804  23.581   4.133
87789W        W58389   8.147   5.964   4.042
87790W        W58390  28.006   4.213  11.504
87791W        W58391  30.530   6.266  14.533
87792W        W58392  29.982  28.911  14.933
87793W        W58393   9.602   3.914  14.275
87794W        W58394  19.292  38.288  13.006
87795W        W58395   7.221   1.283  14.920
87796W        W58396   0.492  13.936   1.345
87797W        W58397  26.470  41.888  14.295
87798W        W58398  35.367  44.169  11.756
87799W        W58399  16.044  15.580   9.967
87800W        W58400   1.691  19.894  12.051
87801W        W58401  42.033  18.988   0.948
87802W        W58402  16.885   5.062   2.904
87803W        W58403  37.263  27.366  11.034
87804W        W58404  26.377  14.648   4.160
87805W        W58405  23.576   2.319   0.933
87806W        W58406  18.850   5.247   4.933
87807W        W58407  12.439   2.279   0.374
87808W        W58408   2.036   5.890  13.542
87809W        W58409  30.169   6.442   4.542
87810W        W58410   3.941  10.297  10.498
87811W        W58411  24.813  42.481   1.080
87812W        W58412  43.857  16.731   4.486
87813W        W58413   6.940   3.267   2.238
87814W        W58414  24.740  40.133   4.121
87815W        W58415  12.883  24.238  14.410
87816W        W58416   3.328  13.598  14.874
87817W        W58417   3.623  14.639   4.743
87818W        W58418  38.846   1.326  14.766
87819W        W58419  43.746  33.973   0.239
87820W        W58420  28.269   4.088   2.542
87821W        W58421  36.647  42.255  11.856
87822W        W58422  20.112  32.166   3.238
87823W        W58423  15.188  42.455   1.618
87824W        W58424  23.537  21.379   9.931
87825W        W58425  13.605  30.201  12.308
87826W        W58426  28.706  41.195   5.120
87827W        W58427  20.609  25.559   4.473
87828W        W58428  31.558  22.154  12.054
87829W        W58429  44.414  30.197   0.900
87830W        W58430  31.063  37.398   3.775
87831W        W58431  42.884  18.750  13.066
87832W        W58432  15.288  26.169   0.250
87833W        W58433  11.016  30.576   0.708
87834W        W58434  17.080  28.194  11.517
87835W        W58435  14.181  11.229  10.697
87836W        W58436  38.764  41.018   1.452
87837W        W58437  10.536  42.347  10.448
87838W        W58438  13.282  26.069   2.307
87839W        W58439  42.382  36.328  14.054
87840W        W58440   5.102  26.963  13.429
87841W        W58441   0.799  12.072   4.319
87842W        W58442  11.207  40.576   4.562
87843W        W58443  39.869   0.825  13.057
87844W        W58444  16.298  39.149   3.020
87845W        W58445  43.266  27.385   0.496
87846W        W58446  33.986  12.626   2.873
87847W        W58447  15.621  39.412  13.427
87848W        W58448  38.917  38.939   2.189
87849W        W58449  18.269  40.744   2.250
87850W        W58450   0.789  29.398   0.280
87851W        W58451  32.639  10.325   1.303
87852W        W58452  18.190  13.710  10.649
87853W        W58453  22.153  32.531  13.417
87854W        W58454  11.135  12.286   4.317
87855W        W58455  21.324   0.346  14.471
87856W        W58456  11.285  40.811   4.102
87857W        W58457  27.586  31.565   3.710
87858W        W58458  19.804  32.352   4.144
87859W        W58459  20.727  40.964   2.824
87860W        W58460  20.331   2.156   2.282
87861W        W58461  13.899  17.743   0.342
87862W        W58462  19.287  15.596   1.308
87863W        W58463  24.950  39.955   0.364
87864W        W58464  18.916  18.810  10.853
87865W        W58465  35.639   6.111  14.454
87866W        W58466  10.769   1.869   1.759
87867W        W58467  10.315  42.978  14.222
87868W        W58468  12.129   7.504  11.978
87869W        W58469   3.330  20.302  10.513
87870W        W58470  30.776  25.652  12.644
87871W        W58471  42.459   6.756  13.871
87872W        W58472  36.904  11.570  13.015
87873W        W58473  11.885   6.313   2.667
87874W        W58474  25.229   1.210   4.040
87875W        W58475  16.634  18.992  10.558
87876W        W58476  21.551  25.168   4.227
87877W        W58477  31.104  43.298   3.661
87878W        W58478  16.933  35.525   0.177
87879W        W58479  12.127  30.169  13.470
87880W        W58480  26.537  44.366   1.852
87881W        W58481  40.334  38.945  13.103
87882W        W58482  34.630  29.373  14.067
87883W        W58483  43.504  20.794   4.044
87884W        W58484  27.506  19.815   1.678
87885W        W58485  36.408   8.215   1.629
87886W        W58486  37.897  14.183  13.919
87887W        W58487  11.841  21.163  13.132
87888W        W58488  20.737   2.195   3.343
87889W        W58489   3.842  14.306   0.074
87890W        W58490  40.808  35.921   4.908
87891W        W58491  40.719  40.282  13.599
87892W        W58492  43.661   7.867  13.598
87893W        W58493  13.794  12.639  11.554
87894W        W58494  15.592   6.672   4.724
87895W        W58495  26.520  18.492   4.478
87896W        W58496  16.337  22.732   4.648
87897W        W58497   4.086   6.039  14.922
87898W        W58498  38.857  12.778   3.279
87899W        W58499  20.520  40.913   3.668
87900W        W58500  36.585  37.225  13.278
87901W        W58501  27.576  37.497  14.605
87902W        W58502  38.584  17.367   3.669
87903W        W58503   6.057   0.302   1.972
87904W        W58504  12.370   5.435   1.020
87905W        W58505  24.241  13.321  11.255
87906W        W58506  25.764  29.511   1.234
87907W        W58507  41.012   4.466  11.472
87908W        W58508  20.589  44.769  13.488
87909W        W58509  35.827  12.638  14.217
87910W        W58510  12.764   9.356  11.369
87911W        W58511  19.322  11.137   2.194
87912W        W58512  17.330  14.352   1.893
87913W        W58513  44.790  27.641   2.431
87914W        W58514  35.766  28.115   1.126
87915W        W58515   3.560  11.284   0.848
87916W        W58516  15.067  42.763  13.103
87917W        W58517  32.586  22.967  14.374
87918W        W58518  39.005  17.053  11.255
87919W        W58519  19.369  37.383  12.013
87920W        W58520  32.290  43.963  12.815
87921W        W58521  21.343  10.642   0.690
87922W        W58522  21.230   7.125  14.281
87923W        W58523  36.328  38.056   4.704
87924W        W58524  25.143   9.722  14.397
87925W        W58525  29.520  28.503  10.667
87926W        W58526  30.131  10.286  14.926
87927W        W58527  41.505  30.118   1.308
87928W        W58528  39.720  38.783   4.548
87929W        W58529  31.077  39.795   3.603
87930W        W58530  13.757  40.510  11.243
87931W        W58531  32.062  29.690  12.372
87932W        W58532   0.293  35.097  14.482
87933W        W58533  38.970  37.044  12.382
87934W        W58534   6.305  37.396   5.223
87935W        W58535  12.462  40.375  12.529
87936W        W58536  18.488  11.762   0.356
87937W        W58537  13.734   5.218   4.693
87938W        W58538  17.246  21.210  13.709
87939W        W58539  27.680  34.810  14.964
87940W        W58540  36.120   0.949   0.714
87941W        W58541  11.182  32.554  12.870
87942W        W58542  22.991   5.488  14.250
87943W        W58543  20.602  14.365   4.938
87944W        W58544  20.836  38.615  10.879
87945W        W58545  27.169   5.129  12.083
87946W        W58546  28.511  33.073   1.703
87947W        W58547  19.870  19.339   4.381
87948W        W58548  20.735  29.701   1.425
87949W        W58549  43.572   7.558   0.568
87950W        W58550   3.465  33.668   4.890
87951W        W58551   9.868  10.889   0.745
87952W        W58552  13.325  26.486   4.588
87953W        W58553   9.438   4.772   1.381
87954W        W58554   8.875   2.990  12.583
87955W        W58555  25.022   6.859   4.535
87956W        W58556  38.359  23.937   3.778
87957W        W58557   8.405  33.503   3.172
87958W        W58558  34.484   2.306   1.768
87959W        W58559   4.901  37.198   1.323
87960W        W58560  27.078  31.048  10.750
87961W        W58561  25.541  37.015   1.861
87962W        W58562  19.010  20.177  11.374
87963W        W58563  32.626  33.291  12.009
87964W        W58564   8.399  30.486  10.548
87965W        W58565  33.240  24.383   0.867
87966W        W58566  19.284   9.246  12.519
87967W        W58567   7.323  31.578  12.018
87968W        W58568  38.833  32.575  13.328
87969W        W58569  19.334  43.265  13.998
87970W        W58570   5.713  23.352   2.756
87971W        W58571  27.205  19.813  12.300
87972W        W58572  11.313  30.593   3.228
87973W        W58573   9.602  18.691  11.083
87974W        W58574  39.347  30.895   1.974
87975W        W58575  28.459  17.959  14.175
87976W        W58576   0.206  35.369   5.074
87977W        W58577  20.859   0.283  14.877
87978W        W58578  22.995  16.233  14.515
87979W        W58579  35.367  39.096   2.611
87980W        W58580  39.962  27.625  11.627
87981W        W58581  26.176  14.863   0.328
87982W        W58582  35.558   3.915  14.506
87983W        W58583  18.088  12.240  11.839
87984W        W58584   2.999  15.764   2.248
87985W        W58585  38.357  18.412  13.924
87986W        W58586   4.141  37.045   0.760
87987W        W58587  41.078  30.387  13.966
87988W        W58588  19.492  17.102  14.328
87989W        W58589  21.186  33.846  12.979
87990W        W58590  30.487  41.415   3.542
87991W        W58591  11.703  10.602  14.515
87992W        W58592  19.462  30.098  12.619
87993W        W58593   9.770   1.302  13.791
87994W        W58594  20.002  13.753  14.394
87995W        W58595   2.170  19.101  11.621
87996W        W58596  39.349   0.210   2.754
87997W        W58597  16.879  14.202  13.646
87998W        W58598   9.184  34.482  11.648
87999W        W58599  11.470  16.765  12.996
88000W        W58600  28.322  40.552   2.398
88001W        W58601  31.555  16.649  11.916
88002W        W58602  28.785  12.155  14.373
88003W        W58603  12.752  15.757   3.844
88004W        W58604   0.878   1.738  14.578
88005W        W58605   3.655  25.236  11.815
88006W        W58606   9.003  43.995   3.708
88007W        W58607  28.665  25.407  12.844
88008W        W58608  28.966  16.344   2.319
88009W        W58609   0.199  30.503   3.536
88010W        W58610  37.086  33.122  13.957
88011W        W58611  25.560  33.529   3.842
88012W        W58612  24.539  35.507  13.773
88013W        W58613  35.348   7.655   2.103
88014W        W58614  40.161  24.229   2.623
88015W        W58615  30.679   9.343  11.113
88016W        W58616  43.196   4.401   1.868
88017W        W58617  27.106  16.697  13.558
88018W        W58618  11.423  16.159  14.463
88019W        W58619  27.549  22.919   2.448
88020W        W58620   4.354  37.038   3.425
88021W        W58621   3.273  40.401   5.011
88022W        W58622  30.959  30.902  13.884
88023W        W58623  38.970  15.683  10.850
88024W        W58624  35.503  20.762  11.987
88025W        W58625  37.019   0.430   0.535
88026W        W58626  40.444  13.359  10.691
88027W        W58627   4.822  22.469  14.793
88028W        W58628  22.220  34.370  14.542
88029W        W58629  30.855  41.316   1.287
88030W        W58630   2.188  22.487  12.569
88031W        W58631  30.966  26.539   1.168
88032W        W58632  40.528  14.320  10.691
88033W        W58633  41.827  41.254  11.410
88034W        W58634  12.107  12.347   4.633
88035W        W58635  25.017   4.390   4.640
88036W        W58636  30.938  33.363  13.244
88037W        W58637   4.579  20.985   0.762
88038W        W58638  28.989  17.796   0.299
88039W        W58639   2.289  16.355  11.692
88040W        W58640  10.309  30.223   0.104
88041W        W58641  15.552  10.905   4.981
88042W        W58642  11.933  20.211  11.656
88043W        W58643  30.572   3.551  13.785
88044W        W58644  25.170  40.719   0.779
88045W        W58645  33.401  32.524  10.581
88046W        W58646   0.862  24.016   3.666
88047W        W58647  42.153  12.273  12.055
88048W        W58648   5.317  29.746   0.921
88049W        W58649  26.971  32.088  13.516
88050W        W58650  28.928   6.932  14.424
88051W        W58651   5.011  44.508  12.542
88052W        W58652  44.334  13.778  11.978
88053W        W58653  32.453  28.114   0.177
88054W        W58654  43.891  16.004  11.627
88055W        W58655   6.465   1.263  13.070
88056W        W58656  36.504  30.050   3.990
88057W        W58657   5.360  26.982  11.198
88058W        W58658  30.956   8.287  10.500
88059W        W58659  33.954  19.609   0.164
88060W        W58660   7.792  32.643  14.980
88061W        W58661  26.763   0.320  13.578
88062W        W58662   1.430  27.161   4.514
88063W        W58663  16.046  13.186   3.703
88064W        W58664  44.269  43.739   1.723
88065W        W58665  18.009  15.903   2.397
88066W        W58666  41.771  38.071   3.756
88067W        W58667  40.309  16.375  13.108
88068W        W58668  17.151   8.998  11.626
88069W        W58669   7.967  37.444   3.627
88070W        W58670   6.386  12.115  10.937
88071W        W58671  26.610  20.587  10.630
88072W        W58672  10.867  29.147  11.998
88073W        W58673  22.988  32.039  12.054
88074W        W58674   2.244  12.727   2.776
88075W        W58675  42.479  12.134   1.507
88076W        W58676  19.357  20.962  11.612
88077W        W58677   1.983   1.321  14.747
88078W        W58678  12.817  36.386   4.321
88079W        W58679  37.025  27.974  13.542
88080W        W58680  13.802  20.673   0.850
88081W        W58681  41.857  43.537   4.736
88082W        W58682  40.871   9.161   1.305
88083W        W58683  11.256  41.032   0.503
88084W        W58684  34.060  35.603  11.550
88085W        W58685  39.967  16.091  14.926
88086W        W58686  13.045   2.850  11.445
88087W        W58687  44.406  36.489   0.408
88088W        W58688   5.223  31.403  12.288
88089W        W58689  36.315  10.702  11.175
88090W        W58690  25.853  34.847  11.036
88091W        W58691  38.440   3.926  13.802
88092W        W58692  20.739  36.663  12.728
88093W        W58693   9.248  38.761   0.983
88094W        W58694   1.772  38.380  14.439
88095W        W58695  42.575   5.736   1.906
88096W        W58696  35.589  39.402  12.572
88097W        W58697  37.861   9.091   1.752
88098W        W58698  29.110  44.236   2.236
88099W        W58699  21.750  19.865  13.911
88100W        W58700  33.373  10.315  10.674
88101W        W58701  29.668  18.054   3.281
88102W        W58702  23.137  21.299   4.171
88103W        W58703   1.342  40.830  14.364
88104W        W58704   7.772  16.561   0.914
88105W        W58705  30.325  26.196  11.320
88106W        W58706  43.789   0.816   0.359
88107W        W58707   2.282  13.166  11.826
88108W        W58708  37.541  25.081  10.671
88109W        W58709  26.501   7.848   1.500
88110W        W58710  33.574  10.627   3.757
88111W        W58711  10.772  20.635   4.124
88112W        W58712  20.596  42.468   2.328
88113W        W58713  28.988  17.307  10.562
88114W        W58714  11.856  17.988  11.651
88115W        W58715  14.267  13.397   3.338
88116W        W58716   0.026  11.548  12.161
88117W        W58717  11.868  28.948  10.305
88118W        W58718  10.800  14.315  11.684
88119W        W58719  42.050  41.082  10.597
88120W        W58720  22.671  40.241   1.800
88121W        W58721  18.761  19.719  10.840
88122W        W58722  13.829   8.411   4.748
88123W        W58723  14.128   6.314  13.530
88124W        W58724   4.365  37.883  11.604
88125W        W58725   1.324  34.573   3.204
88126W        W58726   3.638   9.383  12.005
88127W        W58727  26.368   8.148   2.774
88128W        W58728  36.873  26.040  14.839
88129W        W58729  44.777  39.795  13.830
88130W        W58730  30.212  13.488  14.432
88131W        W58731  35.542  44.925  11.229
88132W        W58732  44.453  35.046   4.139
88133W        W58733  13.783  39.967   4.008
88134W        W58734  23.732  36.283  12.437
88135W        W58735  26.249  24.052  10.644
88136W        W58736   6.640  27.231   2.251
88137W        W58737  28.798  29.612   4.685
88138W        W58738  28.027  19.818  10.491
88139W        W58739   3.995  26.490  14.418
88140W        W58740  21.716  22.025   4.102
88141W        W58741  40.592  32.040  12.639
88142W        W58742  44.296   0.033   4.147
88143W        W58743  21.677   7.650   3.871
88144W        W58744   3.274  35.343   2.808
88145W        W58745  35.908   3.339   2.619
88146W        W58746   4.192  15.619  11.954
88147W        W58747   7.848  29.001  14.145
88148W        W58748  33.997   6.423  10.297
88149W        W58749  39.509  42.265  11.067
88150W        W58750  41.635  31.146   2.638
88151W        W58751  27.953  13.635  11.057
88152W        W58752  14.254  25.958   2.838
88153W        W58753  20.791  39.503  12.990
88154W        W58754  32.098   0.306   2.531
88155W        W58755   0.361  17.092  11.927
88156W        W58756   9.679  24.162  13.260
88157W        W58757  38.857  39.867   0.619
88158W        W58758  33.773   2.651   1.428
88159W        W58759  21.438  42.032   4.546
88160W        W58760  14.695   1.449  13.407
88161W        W58761   0.518  35.885  13.747
88162W        W58762  43.438  12.541   4.712
88163W        W58763  40.824  23.195  12.426
88164W        W58764  36.599  34.996  13.917
88165W        W58765  38.605  16.914   0.737
88166W        W58766  13.260  23.048  14.940
88167W        W58767  37.887  37.429  12.703
88168W        W58768  19.120   4.770  14.893
88169W        W58769  29.054  13.887   4.119
88170W        W58770  23.003   9.791   4.825
88171W        W58771  35.971  14.030   0.874
88172W        W58772   3.711   5.224  11.636
88173W        W58773  20.479   3.232  13.381
88174W        W58774  39.989  42.356  14.138
88175W        W58775  39.419  11.510   3.200
88176W        W58776  17.666  39.882  14.628
88177W        W58777  26.548  31.904   1.440
88178W        W58778   7.837  30.832   0.460
88179W        W58779  32.128  37.570   1.275
88180W        W58780   2.985   6.965   0.490
88181W        W58781  12.710  32.603   2.384
88182W        W58782  27.509  15.812  12.430
88183W        W58783  18.283  28.406   1.652
88184W        W58784  11.087  32.426  11.159
88185W        W58785  19.040  16.089   1.319
88186W        W58786  12.767  26.929   3.364
88187W        W58787  32.885  15.341   3.801
88188W        W58788   4.426   9.293  10.727
88189W        W58789  33.017  28.717   2.631
88190W        W58790  37.713  22.062   1.521
88191W        W58791  29.445  20.756  11.172
88192W        W58792  17.359   4.719   0.797
88193W        W58793  39.727   7.224   3.707
88194W        W58794  13.285  15.629   0.966
88195W        W58795  37.994  11.168  13.682
88196W        W58796  27.101  19.722   3.393
88197W        W58797  31.974   2.167  11.094
88198W        W58798   2.996  18.070   1.821
88199W        W58799  16.095  41.844   0.262
88200W        W58800  13.286  14.319   1.038
88201W        W58801  29.559  31.573  13.930
88202W        W58802  14.639   1.249   0.938
88203W        W58803  35.964  12.185   4.593
88204W        W58804  27.764  24.046  13.313
88205W        W58805   1.708  28.215   4.181
88206W        W58806  42.995  27.138   3.489
88207W        W58807   3.227   9.799  10.945
88208W        W58808   8.099  43.022  11.279
88209W        W58809  37.801  29.005   4.062
88210W        W58810  16.102  36.313   1.717
88211W        W58811  19.658  37.385   4.806
88212W        W58812  40.995  44.596  13.520
88213W        W58813  16.539  15.524   5.005
88214W        W58814  22.441  36.633   1.299
88215W        W58815  27.654  26.934  13.101
88216W        W58816  30.453  18.563   0.001
88217W        W58817   0.775  44.015  14.913
88218W        W58818  14.661  21.183   2.610
88219W        W58819   9.171  32.569   3.395
88220W        W58820   0.538  37.396   3.657
88221W        W58821  32.644  16.373  12.595
88222W        W58822  19.545  44.472   1.848
88223W        W58823   5.811   0.933   3.802
88224W        W58824   3.261  29.617   2.406
88225W        W58825  33.133   8.384  12.072
88226W        W58826  35.432  31.781   2.261
88227W        W58827  31.601  12.110  14.320
88228W        W58828  27.910  39.928  10.654
88229W        W58829  23.105  28.859  14.886
88230W        W58830  44.299  18.565  13.432
88231W        W58831  39.839  22.773   3.600
88232W        W58832   3.773  22.944   2.732
88233W        W58833  19.020  21.058   2.245
88234W        W58834   0.948  14.388  11.515
88235W        W58835  34.173   9.238   2.738
88236W        W58836  12.588  40.184   0.373
88237W        W58837  10.384   7.356  12.204
88238W        W58838  28.905  19.515  13.298
88239W        W58839   3.992  35.345   4.901
88240W        W58840   4.765  16.954  13.838
88241W        W58841  33.823  17.817   0.849
88242W        W58842  24.225  38.463  12.583
88243W        W58843  42.749   0.796   0.107
88244W        W58844  23.614  37.859  11.757
88245W        W58845  42.107  18.630   3.264
88246W        W58846  17.780   2.779   4.239
88247W        W58847  15.323  11.783   2.185
88248W        W58848  15.617  21.256   1.154
88249W        W58849  31.942   4.665  13.343
88250W        W58850   3.958  27.997   0.501
88251W        W58851   6.679  27.916  13.647
88252W        W58852  18.449  20.887  11.662
88253W        W58853  34.906  35.906   0.468
88254W        W58854  44.807  44.964   2.419
88255W        W58855  32.906  12.628   0.362
88256W        W58856  21.099  24.308   2.137
88257W        W58857  19.019  30.921   2.188
88258W        W58858  38.074  32.604  11.108
88259W        W58859  28.090  34.003  12.386
88260W        W58860  23.782   3.691   3.396
88261W        W58861  28.567  29.725  13.451
88262W        W58862   3.962   7.994  13.353
88263W        W58863  12.644   1.726  14.999
88264W        W58864  20.201  22.490  14.821
88265W        W58865   4.409  36.131   0.148
88266W        W58866  21.557  42.809   4.189
88267W        W58867  21.558  39.961   1.418
88268W        W58868   1.306  16.385  12.265
88269W        W58869  42.255  13.651   0.235
88270W        W58870  38.533   4.652   9.932
88271W        W58871  30.396  18.608   1.234
88272W        W58872  12.847  43.697  12.436
88273W        W58873   5.471  20.439   1.013
88274W        W58874  21.460   1.706   4.302
88275W        W58875   0.700  42.837  10.286
88276W        W58876  21.153   0.923   4.917
88277W        W58877  34.281  38.651   4.593
88278W        W58878  16.256  37.594  14.858
88279W        W58879  42.344  30.449   0.387
88280W        W58880   0.948  27.051   4.368
88281W        W58881  19.151  32.832   2.442
88282W        W58882   4.860  39.725   4.918
88283W        W58883  38.133  42.505   3.073
88284W        W58884  37.001  11.909  11.447
88285W        W58885  32.809  22.556  12.053
88286W        W58886  32.272  30.579  11.568
88287W        W58887  23.582  31.011  14.217
88288W        W58888  20.773  38.085  10.753
88289W        W58889  13.562  35.984  14.803
88290W        W58890  15.600   0.360  14.131
88291W        W58891   4.145  33.056   1.237
88292W        W58892  43.413   6.534  11.591
88293W        W58893   0.713  20.054  10.668
88294W        W58894  16.082  29.182   1.294
88295W        W58895  39.450   3.530   2.786
88296W        W58896  27.180  19.518  13.847
88297W        W58897   0.366  34.431  14.834
88298W        W58898  37.544   9.709   4.268
88299W        W58899  21.051  31.869  10.780
88300W        W58900   0.777  30.172   0.085
88301W        W58901  11.553  19.735   3.326
88302W        W58902  23.038  20.919   0.594
88303W        W58903  11.779  39.233  12.898
88304W        W58904   5.796  38.819  12.959
88305W        W58905   5.322  27.103  12.148
88306W        W58906  43.775   3.432  13.947
88307W        W58907  27.704  34.538   2.296
88308W        W58908  31.217   0.491  12.072
88309W        W58909  28.848  36.056   1.458
88310W        W58910  34.153   4.361   3.517
88311W        W58911  23.730   5.827  14.820
88312W        W58912   1.856   2.856  14.806
88313W        W58913  33.508  39.356  10.710
88314W        W58914  30.496  32.612   0.465
88315W        W58915  24.280  38.469   1.812
88316W        W58916  30.186  37.773  12.500
88317W        W58917  31.350  29.713  10.657
88318W        W58918   0.864  30.122  11.485
88319W        W58919  16.761  23.500   2.414
88320W        W58920  28.906  34.319  10.693
88321W        W58921  12.201  24.134  13.550
88322W        W58922  20.962  12.550   2.339
88323W        W58923  18.132   1.921   2.523
88324W        W58924  16.173  19.756   0.566
88325W        W58925  25.947  32.936  10.480
88326W        W58926  16.860   4.879  13.462
88327W        W58927  22.175  43.335  14.242
88328W        W58928  40.404  34.975  13.921
88329W        W58929  44.075   5.455   4.654
88330W        W58930  16.267   1.967   3.234
88331W        W58931  22.583   2.234  13.513
88332W        W58932  18.121  27.535   3.530
88333W        W58933  15.589  13.766   2.852
88334W        W58934  27.986   5.415  12.718
88335W        W58935   6.323  22.213   3.181
88336W        W58936   9.203  24.717  12.117
88337W        W58937  29.123  27.612   4.318
88338W        W58938  33.168  44.278   2.252
88339W        W58939  32.078  16.434   0.558
88340W        W58940  36.588   3.383  14.134
88341W        W58941  42.913  36.673  12.954
88342W        W58942   6.930   8.309   4.535
88343W        W58943  25.201   7.358   0.476
88344W        W58944  27.410  11.433   5.006
88345W        W58945  31.470  29.698   2.922
88346W        W58946   2.041  29.272  10.760
88347W        W58947  35.146   9.142  11.960
88348W        W58948  29.621  25.620   2.626
88349W        W58949  37.569  25.802  13.863
88350W        W58950  33.387  20.647  14.283
88351W        W58951  39.134   6.959   2.848
88352W        W58952   1.268   7.215  13.012
88353W        W58953  17.381  35.878   4.053
88354W        W58954  39.914  12.845  12.945
88355W        W58955  29.435  29.555  11.109
88356W        W58956  27.211  21.159   0.978
88357W        W58957  44.484  21.867  12.356
88358W        W58958  20.945  14.076  13.920
88359W        W58959   3.034  44.500   4.645
88360W        W58960  21.088  30.082  14.853
88361W        W58961  18.517  35.934   3.707
88362W        W58962  31.865  23.086  12.070
88363W        W58963   0.889  18.280  11.209
88364W        W58964  22.227  22.885  14.363
88365W        W58965  14.563  20.996  12.021
88366W        W58966   2.372  26.620   4.617
88367W        W58967  18.598   9.654   1.442
88368W        W58968   6.238  41.391   0.484
88369W        W58969  31.827  22.656  12.403
88370W        W58970   8.328   3.749  13.986
88371W        W58971   0.942  29.200  13.936
88372W        W58972  17.660  40.753  11.076
88373W        W58973  14.577  25.957   1.951
88374W        W58974   3.402  34.036  13.138
88375W        W58975  26.611  19.516   3.508
88376W        W58976  29.415   1.214  12.677
88377W        W58977  36.378   4.310  12.059
88378W        W58978  32.591  40.549  14.905
88379W        W58979  29.153  25.644   3.363
88380W        W58980   7.410  17.820   2.785
88381W        W58981   7.651  38.552  14.425
88382W        W58982   9.241  28.351   0.668
88383W        W58983  17.505  22.036  12.559
88384W        W58984  35.641  20.009   0.459
88385W        W58985  21.613   7.007   0.017
88386W        W58986   4.873  31.168  14.457
88387W        W58987  20.531   9.914  14.562
88388W        W58988  34.050  21.494   3.112
88389W        W58989  31.445  20.058  12.956
88390W        W58990   7.623  38.431   0.293
88391W        W58991  35.567  33.181   1.886
88392W        W58992  35.825  36.990  12.407
88393W        W58993  33.049   2.384   2.882
88394W        W58994  17.021  35.782   1.769
88395W        W58995  34.860  29.391   0.522
88396W        W58996  20.003  24.730  12.864
88397W        W58997  35.377  27.668  14.988
88398W        W58998   5.752  34.136   3.439
88399W        W58999   3.957  16.179  13.388
88400W        W59000  20.316  32.453   0.825
88401W        W59001  22.138  40.268  10.966
88402W        W59002   6.140  33.940   3.142
88403W        W59003  25.146  17.130   0.810
88404W        W59004  22.985  13.544  13.466
88405W        W59005  17.819  32.179   1.548
88406W        W59006  18.157   1.911  11.967
88407W        W59007  25.989   2.184  12.492
88408W        W59008  32.848  26.768   2.764
88409W        W59009  22.407  22.543  12.605
88410W        W59010  16.818  41.445  13.240
88411W        W59011  41.242  23.635  10.856
88412W        W59012   6.733  35.278   3.989
88413W        W59013   5.424  23.930   3.760
88414W        W59014  31.638  21.286  14.764
88415W        W59015  30.015  17.206   2.724
88416W        W59016   2.243   1.721  11.542
88417W        W59017  39.440  30.181  12.688
88418W        W59018  27.554  29.489   0.876
88419W        W59019  26.067  44.539  13.636
88420W        W59020  27.035   3.074   1.699
88421W        W59021  17.729  10.796   0.993
88422W        W59022  11.395   7.719  14.844
88423W        W59023   3.548  12.169  12.430
88424W        W59024  31.657  31.999  12.336
88425W        W59025  44.702  40.462   3.697
88426W        W59026  31.645  26.942  13.142
88427W        W59027  35.105  41.637  13.249
88428W        W59028  32.331   8.866   1.311
88429W        W59029  15.550  20.558   2.730
88430W        W59030  44.850  41.256  12.820
88431W        W59031  31.156  33.871   4.110
88432W        W59032   7.872  44.859  12.899
88433W        W59033  15.690  11.456   5.086
88434W        W59034  25.988  28.983  14.959
88435W        W59035   5.850  38.010  13.542
88436W        W59036  26.489  33.290   4.219
88437W        W59037  35.013  30.932  12.510
88438W        W59038  13.328  16.335   1.713
88439W        W59039  13.875  12.361  13.399
88440W        W59040  20.232  10.100   1.275
88441W        W59041  12.881  37.416   9.754
88442W        W59042  34.510  26.137   2.289
88443W        W59043  30.578   9.722   3.704
88444W        W59044  36.810  21.780   1.897
88445W        W59045  13.836  25.009   0.780
88446W        W59046  37.541  33.265   4.725
88447W        W59047  39.220   2.649  14.897
88448W        W59048  12.834   2.527  13.836
88449W        W59049  24.525  24.221  10.683
88450W        W59050  31.418  27.969   2.378
88451W        W59051  14.349  15.938  13.374
88452W        W59052   7.954   1.239   2.927
88453W        W59053  32.422  44.136   3.708
88454W        W59054   0.492   5.186  11.276
88455W        W59055   0.676  30.185   4.643
88456W        W59056  37.040  40.701  12.007
88457W        W59057  20.621   2.691   3.624
88458W        W59058  20.680  17.587   3.774
88459W        W59059  36.901  32.832  12.110
88460W        W59060  23.038   4.029  14.406
88461W        W59061  22.651  12.879  12.432
88462W        W59062   2.992   4.683   2.745
88463W        W59063  29.066   5.518  11.116
88464W        W59064  24.792  43.799   3.691
88465W        W59065  27.039  29.908   0.268
88466W        W59066  17.555  33.340   3.122
88467W        W59067  19.508  13.120  11.434
88468W        W59068  23.967  42.724  13.502
88469W        W59069  27.341  23.262   3.452
88470W        W59070  18.322  36.482  12.794
88471W        W59071  26.133  42.949  14.360
88472W        W59072  37.479  41.101  12.864
88473W        W59073  44.899  40.657   4.726
88474W        W59074  16.493  44.027  13.290
88475W        W59075   2.930  25.962  13.536
88476W        W59076  29.622  32.592  11.504
88477W        W59077  19.169  31.441   2.241
88478W        W59078  14.765  26.067  11.772
88479W        W59079  20.797   7.208   0.363
88480W        W59080  39.354  22.113  13.901
88481W        W59081  16.582  18.466  10.576
88482W        W59082   5.471   6.342   1.182
88483W        W59083  19.119  27.925   3.257
88484W        W59084   7.103  32.099  10.618
88485W        W59085  10.563   5.241  10.665
88486W        W59086   5.420   8.380   3.733
88487W        W59087  44.518  37.371   3.656
88488W        W59088   6.408  35.652   2.641
88489W        W59089   5.322  15.561  14.335
88490W        W59090   8.134   9.325  10.674
88491W        W59091   6.459  27.096   3.189
88492W        W59092   4.892  11.293  11.976
88493W        W59093  25.305  23.150  14.538
88494W        W59094  23.510   9.681  12.170
88495W        W59095  27.885  32.006   3.691
88496W        W59096  44.979   5.701   1.575
88497W        W59097  25.168  23.665   1.920
88498W        W59098  28.592  21.711  12.110
88499W        W59099  40.640   3.714   2.980
88500W        W59100  25.156   4.497  12.548
88501W        W59101  39.934  42.059   2.252
88502W        W59102   2.996  15.872   4.859
88503W        W59103  11.246  14.469  14.547
88504W        W59104  43.458  27.673  14.020
88505W        W59105  13.741   0.054  11.682
88506W        W59106  44.625   1.149  11.417
88507W        W59107  43.367  35.362  11.577
88508W        W59108  14.753   3.781   1.291
88509W        W59109  18.538  31.175   0.005
88510W        W59110  10.877  18.232   1.950
88511W        W59111  42.351  18.700   0.628
88512W        W59112  12.580  23.089   2.458
88513W        W59113  22.723  10.798  12.951
88514W        W59114  39.585   4.297   9.847
88515W        W59115  38.064  20.747   1.838
88516W        W59116  36.614  24.573  10.530
88517W        W59117   4.731  23.559  11.192
88518W        W59118  36.899  10.973   3.934
88519W        W59119  44.058  42.790  14.772
88520W        W59120   5.795  13.648   1.846
88521W        W59121   0.548  43.963   3.128
88522W        W59122  37.313  32.885   0.292
88523W        W59123   9.170  36.825  14.763
88524W        W59124   8.973  32.081   0.441
88525W        W59125  11.502  31.515   4.194
88526W        W59126  35.434  42.536   2.757
88527W        W59127  11.134  44.307   2.875
88528W        W59128   8.322   1.357  13.528
88529W        W59129   4.513  26.677  13.404
88530W        W59130  30.780  32.861  13.896
88531W        W59131  13.542   3.886   3.643
88532W        W59132  11.435  41.045  12.971
88533W        W59133   7.339   7.879  12.514
88534W        W59134  35.780  39.310  11.170
88535W        W59135  36.674  39.678  11.213
88536W        W59136   5.581   1.454  13.387
88537W        W59137  21.536  42.022  11.181
88538W        W59138  39.340  10.148  14.800
88539W        W59139  30.455  14.503  14.544
88540W        W59140  18.548  17.111  13.014
88541W        W59141  29.554  14.819  12.432
88542W        W59142  40.306  13.806  14.225
88543W        W59143  23.665  39.045   3.307
88544W        W59144  33.072  17.185  14.533
88545W        W59145  43.124  29.702  14.578
88546W        W59146   8.361   6.490  11.582
88547W        W59147  29.883  30.635   4.503
88548W        W59148   8.153  32.132  11.916
88549W        W59149   9.125  24.669   3.944
88550W        W59150  39.884  29.519   1.981
88551W        W59151  33.621  20.238  14.499
88552W        W59152   4.227  35.456  14.895
88553W        W59153  33.249   2.661   1.216
88554W        W59154  15.772  16.035   4.094
88555W        W59155  43.885  27.679  11.534
88556W        W59156  11.304   8.253  14.845
88557W        W59157  33.684   6.374  12.407
88558W        W59158   2.530  16.738  13.916
88559W        W59159  34.096  12.920  13.807
88560W        W59160  41.686   1.701   4.833
88561W        W59161   5.228  10.765   3.273
88562W        W59162   7.852  42.797  13.040
88563W        W59163  26.720  11.311  13.859
88564W        W59164  38.159  36.580   1.237
88565W        W59165   7.621   6.941   3.364
88566W        W59166  40.902  21.350  13.425
88567W        W59167   9.168  20.972   0.465
88568W        W59168   3.812  39.341  11.775
88569W        W59169  37.123  27.200  11.577
88570W        W59170   7.020  17.033   1.747
88571W        W59171  38.801  43.768   1.763
88572W        W59172  27.696  34.310  13.409
88573W        W59173  17.153  42.796  13.721
88574W        W59174  23.963  15.628   0.005
88575W        W59175  29.601  27.410  14.240
88576W        W59176  19.488  40.059  11.935
88577W        W59177  11.312  20.559   4.235
88578W        W59178  22.190  34.014   4.897
88579W        W59179  29.519   5.113   1.544
88580W        W59180  32.007  12.760  12.861
88581W        W59181  25.513  29.504  11.660
88582W        W59182   1.919  20.914  11.878
88583W        W59183  26.090  42.069  12.559
88584W        W59184  29.299  27.099  13.969
88585W        W59185  10.210   8.269  11.628
88586W        W59186   8.214  33.661   2.145
88587W        W59187  38.935  10.798   0.977
88588W        W59188   5.425  15.105  10.573
88589W        W59189  39.929  42.873  10.663
88590W        W59190  43.001  18.883   4.413
88591W        W59191  40.080  15.676   4.157
88592W        W59192   5.298  16.255   0.782
88593W        W59193  28.236  42.033   1.150
88594W        W59194  35.470  31.402  14.766
88595W        W59195  15.226  38.232  13.461
88596W        W59196   2.496  10.144  10.596
88597W        W59197  43.565  10.851  11.206
88598W        W59198  37.651  26.524  13.085
88599W        W59199  21.726  34.505  14.469
88600W        W59200  21.511  10.721  13.382
88601W        W59201  43.533   0.018  13.025
88602W        W59202  30.481  14.272   1.005
88603W        W59203   7.703   2.641  14.533
88604W        W59204  44.948   7.256  10.952
88605W        W59205  43.034  25.541   1.310
88606W        W59206  27.539  16.640  14.832
88607W        W59207  18.006  11.788  13.496
88608W        W59208  43.928  13.705   5.023
88609W        W59209  10.698  36.411  14.590
88610W        W59210  36.452  11.863   1.234
88611W        W59211  27.150   5.755  10.778
88612W        W59212   4.712  31.696   3.749
88613W        W59213  24.105  39.467  14.970
88614W        W59214  44.328  30.162  13.913
88615W        W59215  11.116   8.883  11.982
88616W        W59216  34.342  13.734   2.245
88617W        W59217  28.367  10.362  10.654
88618W        W59218   9.913  35.563   3.635
88619W        W59219  40.275  11.606  14.513
88620W        W59220  31.562  37.036  14.713
88621W        W59221  39.909   5.308  13.357
88622W        W59222   8.937  42.235   4.323
88623W        W59223  19.764  36.548   3.746
88624W        W59224  13.246  37.959   1.768
88625W        W59225  18.669  20.261  12.606
88626W        W59226  43.707  14.988  14.421
88627W        W59227  39.933  31.848   2.105
88628W        W59228   5.483  38.424  11.217
88629W        W59229  39.753  21.577   1.811
88630W        W59230  17.195  36.269  12.591
88631W        W59231  41.240  22.857  11.106
88632W        W59232   0.238  30.208  14.954
88633W        W59233  34.333   0.447   0.370
88634W        W59234  25.019  32.708   3.415
88635W        W59235  31.286  42.695   3.298
88636W        W59236   2.766  12.739  13.452
88637W        W59237  35.455  17.604   0.893
88638W        W59238  30.459  13.379  13.971
88639W        W59239  11.341  17.781  12.846
88640W        W59240  28.952  43.251  13.520
88641W        W59241  37.742  30.571  12.111
88642W        W59242  24.918  27.495   0.330
88643W        W59243   3.173  11.176  13.444
88644W        W59244   7.951  29.979  13.612
88645W        W59245   6.439  34.439   2.235
88646W        W59246  24.898  12.673   2.395
88647W        W59247  31.450  23.597  13.214
88648W        W59248  16.783  21.521   4.103
88649W        W59249  44.304  40.663   3.995
88650W        W59250  34.973  37.948   1.787
88651W        W59251  14.141  17.680  12.455
88652W        W59252  36.425  13.667   0.421
88653W        W59253  28.026  38.269   4.115
88654W        W59254  11.039  21.389   0.923
88655W        W59255   0.599  23.683  12.168
88656W        W59256   6.351  43.188   2.814
88657W        W59257   9.048  15.008  14.260
88658W        W59258  36.950  25.232   2.364
88659W        W59259   7.711  29.524  12.210
88660W        W59260  30.456   3.446   4.214
88661W        W59261  12.241  35.828  10.645
88662W        W59262  18.198  44.199   2.171
88663W        W59263  25.555  23.190   2.801
88664W        W59264  44.487  16.240   1.891
88665W        W59265   0.363   4.788  13.845
88666W        W59266  13.222  22.031  14.868
88667W        W59267  31.951  35.361   1.281
88668W        W59268  22.407  41.020   1.270
88669W        W59269  28.124   5.481   4.513
88670W        W59270  14.662   0.322   0.935
88671W        W59271  43.878  33.049  12.506
88672W        W59272  10.700  17.686   1.198
88673W        W59273  26.007  22.967  13.026
88674W        W59274  36.447   0.245   4.827
88675W        W59275  36.563  12.268  10.772
88676W        W59276  25.146   0.009   3.269
88677W        W59277  15.197   9.620   2.373
88678W        W59278  21.856  27.673  13.852
88679W        W59279   1.177   4.362  10.410
88680W        W59280  12.789  26.280  13.489
88681W        W59281  39.044   5.562   2.857
88682W        W59282  24.801  34.924  11.079
88683W        W59283   2.125   8.326  12.514
88684W        W59284  26.596   2.745   1.413
88685W        W59285  32.719  15.570   1.312
88686W        W59286  16.658   1.604  13.992
88687W        W59287  29.413  44.263   1.792
88688W        W59288  30.429   8.703   1.759
88689W        W59289  12.303  26.396   0.507
88690W        W59290  23.241  32.478  10.696
88691W        W59291  19.128  25.066   4.648
88692W        W59292   5.330  10.698  14.032
88693W        W59293  21.908  15.247  11.473
88694W        W59294  41.473  43.461   4.314
88695W        W59295  21.042  37.050  14.402
88696W        W59296  23.220  33.552  12.332
88697W        W59297   6.773   9.394  14.963
88698W        W59298  36.168   2.415  12.500
88699W        W59299  20.289   0.534  13.544
88700W        W59300  12.120  18.796  14.832
88701W        W59301  30.427   4.678  12.324
88702W        W59302  28.494  17.178   4.375
88703W        W59303  27.417   6.161   2.481
88704W        W59304  22.516  17.750   3.107
88705W        W59305  38.059  22.113  14.538
88706W        W59306   5.151   9.716   0.304
88707W        W59307  39.395  37.311  12.526
88708W        W59308  19.934   5.348   0.879
88709W        W59309  36.652  14.820  11.409
88710W        W59310  19.718  14.240  12.633
88711W        W59311  30.539  28.836  13.404
88712W        W59312   6.356  38.932  10.454
88713W        W59313  39.712  26.478  11.943
88714W        W59314   2.544   1.336   4.674
88715W        W59315  37.902   3.348   3.730
88716W        W59316  27.567  27.966  13.028
88717W        W59317   6.683  43.383   4.568
88718W        W59318  18.795  42.321   4.156
88719W        W59319  33.680  24.475   2.246
88720W        W59320  13.391  16.074  12.415
88721W        W59321  13.356  33.585  12.452
88722W        W59322  42.012  13.116  11.901
88723W        W59323  33.950  39.072   0.277
88724W        W59324  14.787  15.958   4.142
88725W        W59325   7.576   8.855   2.402
88726W        W59326  26.519  33.802   4.084
88727W        W59327   6.047  28.579   1.815
88728W        W59328  43.924  35.584  12.287
88729W        W59329   2.729  30.129  14.999
88730W        W59330  27.496  26.716   1.312
88731W        W59331   0.510  26.034   1.639
88732W        W59332  42.474  17.518   2.565
88733W        W59333  41.915  38.221   3.006
88734W        W59334  15.614  25.673   4.886
88735W        W59335  38.371  44.512  13.069
88736W        W59336   2.728  43.416   1.478
88737W        W59337  19.814  26.619   2.618
88738W        W59338   0.881  22.221  11.123
88739W        W59339   5.675  39.974  13.731
88740W        W59340  23.601   4.719  12.037
88741W        W59341  29.994   0.471   1.494
88742W        W59342  36.190  11.648  14.818
88743W        W59343   3.314  18.125  14.931
88744W        W59344  11.647   1.509  13.044
88745W        W59345  31.888  23.165  12.576
88746W        W59346   0.720  16.257   1.328
88747W        W59347  14.691  16.189   3.140
88748W        W59348  42.875  25.724   3.683
88749W        W59349   0.741   0.065   3.013
88750W        W59350  40.602   0.970  10.959
88751W        W59351  43.053  29.605  11.653
88752W        W59352  31.650  23.179  13.449
88753W        W59353  19.368  39.494   1.961
88754W        W59354   5.596   5.701  11.898
88755W        W59355   4.192  35.350  11.197
88756W        W59356  28.799  44.816  14.419
88757W        W59357   0.499  22.100   0.368
88758W        W59358   0.789   5.970   4.280
88759W        W59359   7.218  38.493  13.339
88760W        W59360   5.388  26.173   2.842
88761W        W59361   6.315   5.375   0.043
88762W        W59362   9.248   8.255  11.261
88763W        W59363  17.282  40.161  14.375
88764W        W59364  13.314  33.534   1.085
88765W        W59365  12.786  31.522  14.511
88766W        W59366  35.941  24.961   0.887
88767W        W59367   7.774   9.345  12.036
88768W        W59368  22.466   6.604   9.920
88769W        W59369  13.545  19.198   2.889
88770W        W59370  13.750  22.606  12.898
88771W        W59371  20.553  31.964   2.038
88772W        W59372  20.284  35.439  12.475
88773W        W59373  30.324  11.102  11.220
88774W        W59374   7.911  36.428   2.739
88775W        W59375  44.987  12.740   3.148
88776W        W59376  23.518  25.699  14.998
88777W        W59377  41.200  25.646  13.304
88778W        W59378  41.568  21.131   1.464
88779W        W59379  41.982  32.782  14.183
88780W        W59380  38.578   0.111  12.989
88781W        W59381   5.438  25.503  14.373
88782W        W59382   0.039   2.273  12.944
88783W        W59383  14.132  44.568   9.509
88784W        W59384  32.563   3.477  13.185
88785W        W59385  41.926  31.461  10.758
88786W        W59386  44.656   6.933   2.202
88787W        W59387  36.643  31.779  10.209
88788W        W59388  18.288  29.895   2.151
88789W        W59389   7.765  20.541   4.196
88790W        W59390  18.794  12.955   3.909
88791W        W59391  27.295  23.797  12.514
88792W        W59392  39.527  20.200   1.596
88793W        W59393   4.578  25.155  11.500
88794W        W59394  29.731   7.654  14.402
88795W        W59395  10.859  25.285   0.923
88796W        W59396  14.059  25.949  11.937
88797W        W59397  36.029  22.566   1.332
88798W        W59398  11.698  18.523  10.753
88799W        W59399  13.403  22.535   2.694
88800W        W59400   8.388  27.177  10.652
88801W        W59401  30.844  31.064   4.148
88802W        W59402   1.314  12.568   1.767
88803W        W59403   8.863   0.024  12.590
88804W        W59404  21.402   1.253   2.377
88805W        W59405  16.650  44.673   1.666
88806W        W59406  31.895  26.351   2.780
88807W        W59407  25.672  44.475   0.990
88808W        W59408  36.455   2.582   3.644
88809W        W59409  20.705  15.063  11.917
88810W        W59410  12.094  33.012   4.244
88811W        W59411   4.330  38.557  11.456
88812W        W59412  38.843  35.447   3.521
88813W        W59413  10.628  31.489   3.609
88814W        W59414  15.677  13.089   2.347
88815W        W59415  19.263  13.641  14.066
88816W        W59416  24.710  40.862  12.100
88817W        W59417  31.608  18.528   0.708
88818W        W59418  10.565  38.774   3.684
88819W        W59419  14.719  40.899   1.869
88820W        W59420  38.963  37.392   1.838
88821W        W59421  16.224  18.208  13.826
88822W        W59422  16.679   3.974  11.159
88823W        W59423   0.855  31.306   2.793
88824W        W59424  14.455   1.482  11.197
88825W        W59425  18.098  27.588  12.091
88826W        W59426  26.704  26.661   4.127
88827W        W59427  31.557  29.143  13.987
88828W        W59428  11.604  30.165  13.411
88829W        W59429  21.623  42.950   3.264
88830W        W59430  43.349  26.399   3.245
88831W        W59431  20.473   1.330   4.348
88832W        W59432  37.559  38.026   3.245
88833W        W59433  31.989  33.976   4.913
88834W        W59434  28.016  24.135  14.864
88835W        W59435  31.148  17.272   1.035
88836W        W59436  25.922  14.243  11.892
88837W        W59437   1.933  22.640  13.758
88838W        W59438  34.418  34.318   2.432
88839W        W59439   2.997  23.284  13.436
88840W        W59440  21.045   2.645  11.201
88841W        W59441   4.811   2.349  11.514
88842W        W59442  16.011  44.203  12.008
88843W        W59443   0.177  27.296   4.090
88844W        W59444  31.404  18.054  12.910
88845W        W59445  15.730  14.536   1.635
88846W        W59446   9.949  11.151   0.281
88847W        W59447  15.904  20.511  11.085
88848W        W59448   7.253   1.243   4.107
88849W        W59449  28.086  14.700   2.385
88850W        W59450  12.144  13.579  14.846
88851W        W59451  20.156  30.561   0.904
88852W        W59452  20.831  34.831   4.141
88853W        W59453  36.678  31.444   4.135
88854W        W59454  44.829   7.642   3.072
88855W        W59455  22.405   7.127   9.870
88856W        W59456  36.643  32.103   2.801
88857W        W59457  20.557  11.670  13.330
88858W        W59458  36.093  21.070  13.949
88859W        W59459  37.952  35.206   0.923
88860W        W59460   5.318   3.323  14.537
88861W        W59461  43.185  14.864  13.606
88862W        W59462   9.927  10.293  11.686
88863W        W59463   5.105  20.210   1.284
88864W        W59464  43.500  24.008   3.176
88865W        W59465  12.861  10.430   3.652
88866W        W59466   6.866  41.469  12.390
88867W        W59467  21.226   4.431   4.242
88868W        W59468  17.569  29.212  14.750
88869W        W59469   9.193  43.915   1.073
88870W        W59470  27.014  22.532   4.061
88871W        W59471   6.311  25.646  13.255
88872W        W59472  19.272  29.344  10.697
88873W        W59473  17.869  20.625  12.536
88874W        W59474  35.864   6.220  14.003
88875W        W59475  31.737  42.170  11.148
88876W        W59476   7.755  36.049   9.997
88877W        W59477  13.052  42.251  14.543
88878W        W59478   6.578  38.968   2.699
88879W        W59479   6.329  19.364   3.247
88880W        W59480   3.307  33.071   4.010
88881W        W59481  16.223   0.298  13.406
88882W        W59482  22.314  28.665   3.738
88883W        W59483  41.108  20.156   0.885
88884W        W59484  11.360  25.116  14.176
88885W        W59485  17.302  25.970   0.824
88886W        W59486  22.246  35.539  13.017
88887W        W59487  10.366  23.695   4.664
88888W        W59488  41.770  11.413   2.233
88889W        W59489  40.026  20.153   2.856
88890W        W59490   6.464  26.540  11.827
88891W        W59491  11.956  11.411  14.335
88892W        W59492  38.044  32.193   4.186
88893W        W59493  20.697  33.277  11.509
88894W        W59494  38.903  42.968  12.443
88895W        W59495  15.546  24.596   4.119
88896W        W59496  27.554  18.628  12.848
88897W        W59497  13.072  14.830  10.624
88898W        W59498  32.630   9.169  12.998
88899W        W59499  23.548  36.842  12.473
88900W        W59500  22.425  11.670  11.550
88901W        W59501  37.825  41.073   1.625
88902W        W59502  43.425  25.730   3.892
88903W        W59503  35.283   3.317   0.772
88904W        W59504  35.079  29.936  12.529
88905W        W59505   2.475  20.612   1.607
88906W        W59506   3.283  44.131  11.612
88907W        W59507  37.944  21.613  13.842
88908W        W59508  31.369  21.467  11.642
88909W        W59509  43.663  33.919  13.017
88910W        W59510  13.115  31.922  12.433
88911W        W59511   9.376  23.523   4.610
88912W        W59512  20.490   4.885   0.218
88913W        W59513  31.958  28.441   0.756
88914W        W59514  28.894  23.200   1.236
88915W        W59515  14.119  17.273   2.693
88916W        W59516  15.133  15.926  12.086
88917W        W59517  39.421  27.161  12.034
88918W        W59518  44.378  13.193  12.641
88919W        W59519  37.002   8.809  12.408
88920W        W59520   4.745   1.772   3.592
88921W        W59521   4.018  16.300   0.861
88922W        W59522  26.405  34.514   3.315
88923W        W59523   6.281  10.413  13.040
88924W        W59524  23.090  21.044   0.068
88925W        W59525  14.650   4.883  11.985
88926W        W59526  19.777  34.767  11.688
88927W        W59527  17.215  34.661   2.229
88928W        W59528  29.868  14.804   1.361
88929W        W59529   0.825   0.724   0.099
88930W        W59530  43.842  31.240  14.863
88931W        W59531  30.242  36.068   3.740
88932W        W59532   2.651  10.183   2.828
88933W        W59533   2.818  26.240  10.929
88934W        W59534  10.700  34.172   2.834
88935W        W59535  20.612  36.452   0.077
88936W        W59536  37.063   9.490  13.866
88937W        W59537  15.156  18.253  13.866
88938W        W59538   1.907  29.762  10.624
88939W        W59539  23.623  40.101  12.561
88940W        W59540   5.318  16.258  14.858
88941W        W59541  13.418  21.348   0.700
88942W        W59542   4.591   4.289   0.907
88943W        W59543  26.336   7.895   5.107
88944W        W59544  11.418  32.888  11.048
88945W        W59545  17.764  31.706  12.920
88946W        W59546  39.827  30.449   1.173
88947W        W59547  23.289  13.155  14.766
88948W        W59548  27.743   8.262   1.720
88949W        W59549  13.514  22.621  11.189
88950W        W59550  24.766   6.331  11.419
88951W        W59551  15.283  23.485  12.486
88952W        W59552  36.069  33.054  13.919
88953W        W59553  25.417  18.637  12.299
88954W        W59554  18.512  38.945   0.474
88955W        W59555  40.792  16.768   4.558
88956W        W59556  36.874  23.113  13.929
88957W        W59557   5.845   3.288  10.652
88958W        W59558  13.171   7.495   0.363
88959W        W59559  13.445  18.744  14.406
88960W        W59560  21.683  22.132   3.212
88961W        W59561  13.749  12.095  11.553
88962W        W59562  13.390  40.978  14.900
88963W        W59563  21.953  17.669  10.629
88964W        W59564  35.935   3.097   3.095
88965W        W59565   2.001   4.198   2.736
88966W        W59566  44.325  38.979  10.393
88967W        W59567  23.489   6.626   0.756
88968W        W59568  30.691  33.642  11.879
88969W        W59569  27.412  29.407  14.870
88970W        W59570  31.935  28.002   4.480
88971W        W59571  36.381   6.742  10.716
88972W        W59572  13.139  12.837   0.851
88973W        W59573  12.899  12.025   4.262
88974W        W59574  36.824   6.761  13.680
88975W        W59575  14.032  30.410   1.434
88976W        W59576  25.450   9.298  14.346
88977W        W59577  21.529   4.145  12.802
88978W        W59578  14.848  30.022   1.450
88979W        W59579  11.039  38.994   3.714
88980W        W59580  33.343   8.814   1.426
88981W        W59581  28.395  11.162   1.324
88982W        W59582  11.428  43.365  13.376
88983W        W59583  24.785  22.480   4.184
88984W        W59584  29.529  28.640  14.940
88985W        W59585  42.918  35.713   3.354
88986W        W59586  29.848   0.930   4.597
88987W        W59587  38.796   2.937   1.906
88988W        W59588  20.161   8.919   3.244
88989W        W59589   8.632   8.841   4.749
88990W        W59590  22.694  42.459  12.477
88991W        W59591  27.956   5.502  12.171
88992W        W59592   8.999  43.690  12.026
88993W        W59593  23.805  14.312   5.056
88994W        W59594  22.552   4.713  11.134
88995W        W59595  22.798  29.122   1.103
88996W        W59596  44.978  10.991  14.840
88997W        W59597  36.599  18.988   3.215
88998W        W59598  18.081  41.467   3.564
88999W        W59599   2.983  11.456  12.998
89000W        W59600  32.914  14.789   3.571
89001W        W59601  30.875   1.202  14.004
89002W        W59602  18.222  42.850   2.181
89003W        W59603  37.951   1.784  11.006
89004W        W59604  44.429  43.904  12.010
89005W        W59605  29.186  26.461  11.357
89006W        W59606   3.573   6.911  12.076
89007W        W59607  12.569   0.013   2.686
89008W        W59608  22.342  39.573  12.900
89009W        W59609  19.738  17.111  10.685
89010W        W59610  26.696   0.389  14.541
89011W        W59611  24.645   8.822   2.784
89012W        W59612  19.095  43.522  11.514
89013W        W59613  13.670  21.694   0.998
89014W        W59614  40.493   8.623  14.742
89015W        W59615  42.844   6.867   4.106
89016W        W59616  38.903  38.787  13.055
89017W        W59617  26.553  27.879  12.091
89018W        W59618   7.544  11.936  14.770
89019W        W59619   5.629   2.847   2.685
89020W        W59620   1.939  32.919   3.295
89021W        W59621   2.538   0.383   4.538
89022W        W59622  13.941   3.154  11.035
89023W        W59623  16.794   9.886   0.180
89024W        W59624  25.226   5.487  13.066
89025W        W59625  19.595  24.987  10.665
89026W        W59626  10.687  21.007   3.756
89027W        W59627  40.058  21.336   0.519
89028W        W59628  43.349  12.184  14.311
89029W        W59629  35.917   4.485   1.951
89030W        W59630  23.721  19.310   0.648
89031W        W59631  11.476  41.760  12.766
89032W        W59632  15.387  43.347   0.280
89033W        W59633  10.606  30.747   4.346
89034W        W59634  23.004  26.118   4.152
89035W        W59635  26.604  16.810  12.497
89036W        W59636   4.997  12.127   3.029
89037W        W59637  44.829  12.417   4.427
89038W        W59638   1.218   6.844   4.005
89039W        W59639   3.828   6.330   4.477
89040W        W59640   5.375   3.421   1.218
89041W        W59641  29.927  13.187   2.647
89042W        W59642  36.635  44.966   3.568
89043W        W59643  13.867   1.825  14.331
89044W        W59644   7.430  38.551   0.776
89045W        W59645   8.985   5.045   1.391
89046W        W59646  23.602  17.186   1.471
89047W        W59647  15.402  29.004   2.797
89048W        W59648  21.013  44.255  11.554
89049W        W59649  39.284  34.427   2.326
89050W        W59650  31.163  37.665   0.290
89051W        W59651  10.302  32.848   0.293
89052W        W59652  38.145  19.990  14.506
89053W        W59653  28.586  14.821   1.755
89054W        W59654  33.123   4.962   0.562
89055W        W59655  39.515  23.177   3.349
89056W        W59656  15.635  11.585  11.513
89057W        W59657  32.508  15.297   1.708
89058W        W59658  10.291  34.660   2.220
89059W        W59659  39.283  22.055   3.419
89060W        W59660   3.937   6.134   0.419
89061W        W59661  24.238  42.284  12.385
89062W        W59662  24.273  22.556  10.167
89063W        W59663  22.431  33.423  10.102
89064W        W59664  23.526  42.762   0.988
89065W        W59665  13.802   4.351  13.853
89066W        W59666  21.573  23.624  12.931
89067W        W59667  16.278  13.343   1.341
89068W        W59668  21.141  33.118  14.319
89069W        W59669  23.590  23.808  14.905
89070W        W59670  44.316   7.459  12.602
89071W        W59671   5.926  27.066   4.020
89072W        W59672  33.302  15.119   0.902
89073W        W59673   5.310  34.789   0.481
89074W        W59674  17.298  39.462   0.999
89075W        W59675  29.666   6.769   2.740
89076W        W59676  35.046  26.012  11.307
89077W        W59677  21.996  14.413   1.826
89078W        W59678  26.531   8.350   3.561
89079W        W59679  30.946  25.911   2.441
89080W        W59680  33.095  37.422  10.248
89081W        W59681  12.388  24.586   0.487
89082W        W59682  11.200  34.805   0.909
89083W        W59683  17.587   8.941   3.105
89084W        W59684  16.003  28.215  13.561
89085W        W59685   7.418  35.862   3.203
89086W        W59686  30.072  22.269   0.948
89087W        W59687   0.011  23.134   0.839
89088W        W59688   4.001  40.780   3.504
89089W        W59689  28.919   6.931  13.524
89090W        W59690   0.042  43.867   0.540
89091W        W59691  39.890  15.598   4.630
89092W        W59692  13.656  13.854   3.218
89093W        W59693  39.532   1.528   1.867
89094W        W59694  32.828  17.313   2.004
89095W        W59695  29.714  24.066   0.371
89096W        W59696   8.179  27.557   0.319
89097W        W59697  26.685  18.116   1.583
89098W        W59698  18.257  33.758   2.996
89099W        W59699  26.969  33.493  13.270
89100W        W59700   1.855  31.159  12.108
89101W        W59701   4.302   7.812   0.970
89102W        W59702  30.717  35.171   5.086
89103W        W59703  35.980   7.827   3.905
89104W        W59704  42.866  20.427   4.051
89105W        W59705  11.267  28.902  11.572
89106W        W59706  21.561  14.645   0.500
89107W        W59707   4.567  13.518  10.932
89108W        W59708  36.126   7.232  12.758
89109W        W59709  33.123  41.283   0.240
89110W        W59710   2.653  22.502   4.719
89111W        W59711  23.270   1.416  13.324
89112W        W59712  13.087   6.454   4.198
89113W        W59713  13.705  40.217   1.316
89114W        W59714  35.252  29.048   4.034
89115W        W59715   5.677   7.488  13.072
89116W        W59716   9.758   1.420  13.282
89117W        W59717  11.306   6.435  11.970
89118W        W59718  11.657  32.007  11.804
89119W        W59719  42.324  38.517  14.438
89120W        W59720  10.090  29.143  14.341
89121W        W59721  14.127  37.448   4.189
89122W        W59722  31.068   8.171  11.197
89123W        W59723  30.054  41.897   3.525
89124W        W59724  22.364   5.705   1.353
89125W        W59725  27.946  27.540   3.402
89126W        W59726   1.481   4.197   2.639
89127W        W59727  32.691  11.343  12.725
89128W        W59728  41.039   3.836   0.401
89129W        W59729   9.841  22.769   2.659
89130W        W59730  21.376  29.549   3.959
89131W        W59731  24.950  38.495   3.765
89132W        W59732  29.877  43.039  12.426
89133W        W59733  14.728   3.504   4.250
89134W        W59734  30.544  36.370   2.357
89135W        W59735  43.419  44.996  14.503
89136W        W59736  11.042  25.490  14.322
89137W        W59737  23.186  11.871   0.845
89138W        W59738  33.563  16.600  14.391
89139W        W59739  34.567  43.370  13.401
89140W        W59740  39.467  44.861  14.575
89141W        W59741  16.654  43.273  12.988
89142W        W59742   6.234  28.151  10.774
89143W        W59743  24.055  28.785  12.557
89144W        W59744  30.100  13.393  12.643
89145W        W59745  24.593  25.050   1.825
89146W        W59746  30.984   9.421   3.622
89147W        W59747  30.923  13.154  13.954
89148W        W59748  37.073  34.076  11.037
89149W        W59749  35.647   4.760  10.663
89150W        W59750  11.730  33.633   3.815
89151W        W59751  15.220  28.710   3.164
89152W        W59752  18.209  11.200  12.583
89153W        W59753   5.141  25.690  14.861
89154W        W59754  29.897  23.781  11.084
89155W        W59755   1.259  26.841  10.476
89156W        W59756  24.501  14.542  11.969
89157W        W59757  36.924   4.468   2.724
89158W        W59758  25.402  25.498   1.751
89159W        W59759  40.955   9.355   4.104
89160W        W59760  14.762   4.256   3.786
89161W        W59761  21.763   9.661  14.872
89162W        W59762  14.806  11.297   0.905
89163W        W59763   9.170  29.475   3.970
89164W        W59764  37.441  18.701  11.191
89165W        W59765  11.268   2.778   3.641
89166W        W59766  43.400  36.378   3.600
89167W        W59767   7.065  10.290   2.144
89168W        W59768  24.102  38.986  14.331
89169W        W59769  35.528  27.498  14.035
89170W        W59770  16.025  35.420   1.194
89171W        W59771  16.865  32.207  14.455
89172W        W59772  13.787  44.716  10.629
89173W        W59773  41.239  41.972  14.447
89174W        W59774  18.633  24.914   4.033
89175W        W59775   1.910   4.057  11.120
89176W        W59776  38.597   8.357  10.585
89177W        W59777  24.604  44.292   3.606
89178W        W59778  12.012   9.442  13.034
89179W        W59779   0.910  15.224   4.559
89180W        W59780  37.145   5.912   4.731
89181W        W59781   0.863  19.092   2.608
89182W        W59782  19.325  37.870  11.200
89183W        W59783   5.634   1.284   1.493
89184W        W59784   5.123   3.172   0.035
89185W        W59785  24.193  34.651   0.142
89186W        W59786   2.808  28.678   3.368
89187W        W59787  13.904  22.258   3.619
89188W        W59788  30.450  31.764   1.971
89189W        W59789  14.622  40.461   3.254
89190W        W59790  42.987  20.144   4.480
89191W        W59791  17.447  29.585  12.823
89192W        W59792  36.332  43.389   1.900
89193W        W59793  31.016   7.870   4.597
89194W        W59794  22.220   4.218   4.139
89195W        W59795  10.734  22.586   0.020
89196W        W59796   6.313  24.548   4.571
89197W        W59797   2.882  28.593   2.866
89198W        W59798  36.301  42.466   0.951
89199W        W59799  19.598  21.283   4.162
89200W        W59800  24.564   8.239  12.523
89201W        W59801  26.089  43.953  10.735
89202W        W59802  38.454  36.029   0.737
89203W        W59803  20.375  18.967   1.315
89204W        W59804  30.486   8.888  10.829
89205W        W59805  18.136   3.697   4.472
89206W        W59806  21.192  27.054  12.305
89207W        W59807  41.944  32.853   2.142
89208W        W59808  41.235  29.917  14.877
89209W        W59809  18.962  41.338  12.558
89210W        W59810  30.100   9.766   1.818
89211W        W59811  27.709  29.927  12.488
89212W        W59812  37.056  42.738   1.849
89213W        W59813   4.297   0.500   4.045
89214W        W59814  28.173  44.018   3.924
89215W        W59815   6.548  43.646  12.022
89216W        W59816  36.687   9.135  13.984
89217W        W59817  33.646  35.130   1.274
89218W        W59818   7.987   1.459  12.777
89219W        W59819   2.319  24.716   3.330
89220W        W59820  11.768  23.973  11.675
89221W        W59821  25.180  36.179  11.155
89222W        W59822  22.384  14.229  10.543
89223W        W59823  26.921  27.158   2.169
89224W        W59824   0.269  14.090   4.910
89225W        W59825  33.732  22.653  14.126
89226W        W59826  26.218   4.695   2.720
89227W        W59827  42.521  40.913   4.484
89228W        W59828   1.727   5.377  11.684
89229W        W59829  24.736   3.848   2.241
89230W        W59830  43.275   9.600   2.691
89231W        W59831  24.614  17.369   3.257
89232W        W59832  35.233  32.111  14.370
89233W        W59833  26.011  34.049  14.598
89234W        W59834  13.074  14.616   3.692
89235W        W59835  12.873  35.382   0.311
89236W        W59836   5.164   1.685  12.982
89237W        W59837  23.527  24.938  13.371
89238W        W59838  34.406  17.144   3.127
89239W        W59839  29.506  11.399   1.536
89240W        W59840  28.494   3.074  11.217
89241W        W59841  27.071  11.412  11.655
89242W        W59842  41.468  40.869   2.327
89243W        W59843  17.060  36.418  10.584
89244W        W59844  16.550   6.726   2.683
89245W        W59845  30.612  29.116  13.848
89246W        W59846   0.157   2.223   4.270
89247W        W59847  32.004   5.425  12.266
89248W        W59848  38.383   3.928   4.261
89249W        W59849  33.374  27.034  12.876
89250W        W59850   8.553  40.875  12.534
89251W        W59851  29.016  15.174  11.088
89252W        W59852  18.201  24.087   3.832
89253W        W59853  42.374  29.146   3.248
89254W        W59854   0.820  23.873   1.601
89255W        W59855  25.538  37.855   2.053
89256W        W59856  40.392   8.725   5.018
89257W        W59857   5.671  12.576  13.801
89258W        W59858   8.840   4.901   0.065
89259W        W59859   8.335  12.499   4.013
89260W        W59860  30.098  10.865   1.835
89261W        W59861   9.584   8.365   1.881
89262W        W59862  37.981  15.913   3.805
89263W        W59863  38.919  30.440   3.623
89264W        W59864   0.769  24.876   0.081
89265W        W59865  19.694  29.049   4.647
89266W        W59866   4.727   2.702   3.607
89267W        W59867  18.076  39.279   3.625
89268W        W59868   9.162  30.996  14.947
89269W        W59869  15.264   6.169   4.178
89270W        W59870  34.384   9.871  10.704
89271W        W59871  34.247  42.382   1.235
89272W        W59872   7.917   3.871   0.048
89273W        W59873  36.746   8.371  14.553
89274W        W59874  10.468  25.613   1.029
89275W        W59875  32.010   0.632   4.977
89276W        W59876  38.329   8.338   3.389
89277W        W59877  16.509  34.203  13.414
89278W        W59878  20.065  17.093  12.022
89279W        W59879  21.822  20.027   4.151
89280W        W59880  20.502  32.937  13.786
89281W        W59881  29.543  31.931  10.794
89282W        W59882  23.151   7.575   2.669
89283W        W59883  43.263  34.869  11.579
89284W        W59884  41.287  42.927   2.024
89285W        W59885  32.721  19.516  13.948
89286W        W59886  13.860  31.643   0.983
89287W        W59887  32.160  15.114  13.035
89288W        W59888   3.204  17.628  12.971
89289W        W59889  13.352  33.457   2.323
89290W        W59890  13.691  27.219   3.679
89291W        W59891  44.176  34.205  10.562
89292W        W59892   0.849  16.971   0.656
89293W        W59893   2.060  34.990   4.065
89294W        W59894  17.787  41.820  11.040
89295W        W59895  29.214  23.288   0.294
89296W        W59896   3.691  38.973  12.132
89297W        W59897  39.418  18.131   3.138
89298W        W59898   2.760  42.009  10.910
89299W        W59899  18.677  30.970   4.659
89300W        W59900  36.370  38.638   1.872
89301W        W59901  33.059   7.362   1.534
89302W        W59902  20.528   5.282  11.010
89303W        W59903  12.284  34.681   0.735
89304W        W59904  12.959  10.598   3.148
89305W        W59905  12.186   8.305   4.769
89306W        W59906  43.952  35.935   4.098
89307W        W59907  21.251  33.563   0.452
89308W        W59908  28.073  12.392   0.901
89309W        W59909   4.299  32.010  11.518
89310W        W59910  21.613  36.320  10.791
89311W        W59911  43.878   8.305   0.829
89312W        W59912   6.697  15.850  11.487
89313W        W59913  41.358  36.492   1.517
89314W        W59914   5.594   7.868   0.688
89315W        W59915   7.170  38.074  12.537
89316W        W59916  22.569  13.194   3.883
89317W        W59917  34.425   6.111  12.857
89318W        W59918  15.735   5.220  11.894
89319W        W59919   1.427   9.447   3.354
89320W        W59920  31.886   4.336  12.002
89321W        W59921  21.679  37.901   2.326
89322W        W59922  37.308   7.188  11.073
89323W        W59923  10.761  25.149  14.926
89324W        W59924  41.528  43.724  12.025
89325W        W59925   3.283   4.999   1.513
89326W        W59926  14.843  21.488  10.465
89327W        W59927  28.020  33.847  13.988
89328W        W59928   1.413   8.913   4.531
89329W        W59929   2.919   1.002  13.600
89330W        W59930  16.479  21.360  12.001
89331W        W59931  24.185   5.937   1.710
89332W        W59932  35.977   3.300   1.702
89333W        W59933  43.487  23.429   0.922
89334W        W59934  25.960  21.063  14.786
89335W        W59935  24.632  37.163  12.415
89336W        W59936   0.393   7.430   2.572
89337W        W59937  30.147  19.554   0.476
89338W        W59938   5.863  31.512  10.502
89339W        W59939  24.094  32.819  10.783
89340W        W59940  36.055  42.662  14.923
89341W        W59941  44.311  40.507  11.161
89342W        W59942  30.848  11.110   1.235
89343W        W59943  24.609  32.157  13.288
89344W        W59944  38.654   7.927   4.067
89345W        W59945  27.071  32.368   3.379
89346W        W59946  35.594  11.869   4.168
89347W        W59947  19.641  15.294  11.205
89348W        W59948  19.214  28.423  11.586
89349W        W59949  30.359  21.080  14.273
89350W        W59950  30.556  12.765   4.457
89351W        W59951  30.163   0.167   4.276
89352W        W59952  38.997   1.188  10.618
89353W        W59953  37.525   8.481  10.525
89354W        W59954   5.628  30.794  13.450
89355W        W59955  30.905  27.173   4.171
89356W        W59956  29.758  26.575   0.277
89357W        W59957  35.923  33.008   2.201
89358W        W59958  34.129   0.761   1.219
89359W        W59959  41.559  22.491  11.886
89360W        W59960  14.605  26.555  13.460
89361W        W59961  19.630  36.327  13.022
89362W        W59962   3.196  26.944   2.040
89363W        W59963   4.015  43.976  11.189
89364W        W59964  31.780   3.520  11.454
89365W        W59965  18.672  27.818   1.383
89366W        W59966  18.184  29.192  13.480
89367W        W59967  35.861   5.595   4.644
89368W        W59968  16.266  40.935   0.711
89369W        W59969  18.491  41.930   1.799
89370W        W59970   7.074   2.527  13.418
89371W        W59971  42.786  29.344  12.832
89372W        W59972  23.268  15.815  12.178
89373W        W59973  38.505  15.974   3.594
89374W        W59974  30.715   5.736   0.296
89375W        W59975   8.633  24.807  14.966
89376W        W59976  12.377  35.806  14.159
89377W        W59977  21.830  32.945  11.972
89378W        W59978  13.810   0.360  13.444
89379W        W59979   1.363  37.032   2.025
89380W        W59980   4.646   7.308  14.784
89381W        W59981   2.702   2.470  10.956
89382W        W59982  30.373  34.114  13.105
89383W        W59983  25.927  19.690   2.721
89384W        W59984   6.220   1.041  11.290
89385W        W59985   1.712  20.088  13.424
89386W        W59986  34.009  21.062  10.610
89387W        W59987  10.286   1.459   4.337
89388W        W59988  34.411   0.055  13.965
89389W        W59989  13.886   4.876   2.296
89390W        W59990  24.787  26.916   3.548
89391W        W59991  14.363   9.706   2.726
89392W        W59992   8.786  39.925  13.286
89393W        W59993  30.553  29.589  12.940
89394W        W59994   8.482  32.189   2.677
89395W        W59995  31.081  15.527  12.606
89396W        W59996   5.630  31.168  13.825
89397W        W59997  39.099  28.480  14.217
89398W        W59998  34.119  32.233   1.421
89399W        W59999  16.078  15.760  12.613
89400W        W60000  39.318  39.601  11.537
89401W        W60001  19.626  42.193  14.316
89402W        W60002  23.018   9.537   0.370
89403W        W60003   0.915  26.985  11.615
89404W        W60004  35.527  23.042  10.785
89405W        W60005  21.106  29.488  14.334
89406W        W60006  22.429  27.254   2.530
89407W        W60007  19.726   0.605   0.261
89408W        W60008   8.922   1.361  14.816
89409W        W60009   5.220  35.495   3.210
89410W        W60010  24.061   4.215  10.678
89411W        W60011   6.392  23.498   1.447
89412W        W60012  19.784  30.463   4.628
89413W        W60013   0.012  14.294   4.488
89414W        W60014  14.930  34.950  14.317
89415W        W60015  24.982  22.067  11.619
89416W        W60016  26.827  21.588  14.823
89417W        W60017  30.611   4.925  11.910
89418W        W60018  21.199  40.389   4.594
89419W        W60019  36.091  15.966  13.815
89420W        W60020  20.129  44.543  13.393
89421W        W60021  31.061  19.657  14.534
89422W        W60022  27.092   6.415   4.901
89423W        W60023  32.156  12.250  13.669
89424W        W60024  12.548  41.856   1.781
89425W        W60025  24.313  16.557  11.039
89426W        W60026   4.513  35.820   2.358
89427W        W60027  11.376   5.825  14.409
89428W        W60028  28.929  29.088   1.795
89429W        W60029   9.792  18.700  13.022
89430W        W60030  40.786  32.139   0.446
89431W        W60031  21.674   5.179   0.341
89432W        W60032  28.348  38.479   5.093
89433W        W60033   4.850  16.751  10.564
89434W        W60034   2.642  43.812   4.267
89435W        W60035  39.434  44.630   4.870
89436W        W60036  10.224  16.405   0.859
89437W        W60037  15.701  19.264  11.292
89438W        W60038  13.994  43.049  11.817
89439W        W60039  44.368  30.539  11.604
89440W        W60040   7.896  17.680   4.777
89441W        W60041  12.296  24.195  14.382
89442W        W60042  36.120  12.066  13.115
89443W        W60043  40.488  22.484   4.994
89444W        W60044  13.202  21.620   3.183
89445W        W60045  20.114  30.254   2.861
89446W        W60046  44.872  28.909   0.466
89447W        W60047  29.845  14.143   4.688
89448W        W60048  28.527  39.680  11.196
89449W        W60049  31.183  31.051   0.308
89450W        W60050   0.959  25.283   1.340
89451W        W60051  42.459  18.353   2.906
89452W        W60052  25.246  20.287   0.938
89453W        W60053  38.021  30.920   0.740
89454W        W60054  32.235  15.609   1.146
89455W        W60055  18.009   0.423   1.094
89456W        W60056   1.273  15.557   2.810
89457W        W60057  40.470  23.583   2.139
89458W        W60058  12.705  16.636  10.581
89459W        W60059   7.237  39.435   1.201
89460W        W60060   3.495  35.580  13.853
89461W        W60061  34.116  34.391  12.382
89462W        W60062  34.924  33.611  10.770
89463W        W60063  18.601  26.705  12.121
89464W        W60064  13.297  35.430   1.554
89465W        W60065  25.677   8.868  11.932
89466W        W60066  23.702  17.988  11.471
89467W        W60067  23.274   6.635  13.911
89468W        W60068   3.386  35.522   4.359
89469W        W60069  33.871  37.324  13.876
89470W        W60070  21.170  30.966  13.846
89471W        W60071  25.530  24.418   2.214
89472W        W60072  40.894  36.067   3.341
89473W        W60073  39.840   0.043   2.788
89474W        W60074  42.819   8.429   4.065
89475W        W60075  21.559  25.367  12.391
89476W        W60076   1.720  43.424  14.570
89477W        W60077  11.110  38.058   1.457
89478W        W60078  26.121  25.630  13.333
89479W        W60079  36.179  34.478   0.456
89480W        W60080  31.454   6.534   2.213
89481W        W60081  17.206  13.890   0.277
89482W        W60082   7.193  28.022  13.600
89483W        W60083  12.253  41.515  13.883
89484W        W60084  20.520  14.258  11.887
89485W        W60085  32.135  34.840   2.280
89486W        W60086  11.729   6.302   0.200
89487W        W60087  33.934  30.775   1.467
89488W        W60088  32.864   0.153   2.209
89489W        W60089   5.458  38.666  14.789
89490W        W60090  29.392  32.199   0.331
89491W        W60091  11.083  33.420   0.536
89492W        W60092  18.347   1.855  12.773
89493W        W60093  20.285  41.432  10.669
89494W        W60094  15.114  29.048  13.977
89495W        W60095   3.110  21.260   3.041
89496W        W60096  33.608  41.513   0.961
89497W        W60097   5.673  10.736  11.971
89498W        W60098   4.233  37.501  12.035
89499W        W60099  30.147  42.444  14.507
89500W        W60100  35.009   6.972   0.880
89501W        W60101   5.117  14.112  12.485
89502W        W60102  24.683   1.937   0.787
89503W        W60103   9.577  31.122  13.641
89504W        W60104  44.887  40.170  11.984
89505W        W60105   4.466   3.309   2.687
89506W        W60106  23.851  22.434  12.935
89507W        W60107  26.980  42.980  10.254
89508W        W60108  42.762  21.681  12.439
89509W        W60109  27.479   0.925   2.342
89510W        W60110  21.242  34.451   0.357
89511W        W60111   0.897   9.342  12.409
89512W        W60112  36.314   3.224   0.913
89513W        W60113  18.033  12.174  13.163
89514W        W60114  12.192  20.362  12.641
89515W        W60115  42.049  39.558  14.224
89516W        W60116   0.937  25.401  10.766
89517W        W60117  36.424  39.025  14.890
89518W        W60118  33.946  31.535   3.638
89519W        W60119  39.919  10.239   1.918
89520W        W60120  36.983  23.633   2.886
89521W        W60121  43.884  37.440  11.894
89522W        W60122  42.175   9.183   1.959
89523W        W60123  16.426  16.797   0.244
89524W        W60124  17.586  37.025  13.499
89525W        W60125  38.643  32.128  11.139
89526W        W60126  37.800  34.527  10.733
89527W        W60127   3.833   5.706   2.828
89528W        W60128   7.757   1.323   4.566
89529W        W60129  12.382  23.580  11.992
89530W        W60130  13.336  25.446   2.325
89531W        W60131  35.772  31.948   0.574
89532W        W60132  15.994  42.861   0.724
89533W        W60133  12.064  42.953  13.826
89534W        W60134  27.758  26.043   3.676
89535W        W60135  10.536  22.421   4.585
89536W        W60136  44.489  42.836  12.805
89537W        W60137   4.515  19.517   1.556
89538W        W60138  24.436   8.157   3.190
89539W        W60139  30.956  25.767   3.397
89540W        W60140  34.636  33.454   0.915
89541W        W60141  31.501  31.394   4.576
89542W        W60142  36.424   3.975  12.724
89543W        W60143  33.814   1.802   3.256
89544W        W60144  38.530  43.551  12.955
89545W        W60145   9.286  18.809   1.215
89546W        W60146  44.944  10.612   2.272
89547W        W60147  15.665  33.406  14.322
89548W        W60148  19.632  15.577   1.721
89549W        W60149   2.966   6.459   3.952
89550W        W60150  26.445  19.150  14.371
89551W        W60151  27.889  19.718   3.381
89552W        W60152  43.293  33.915  12.417
89553W        W60153  15.590   4.476   2.867
89554W        W60154  43.394  24.844   0.796
89555W        W60155  35.879  35.013  11.595
89556W        W60156  25.285   7.310   4.580
89557W        W60157   5.403  29.956   4.050
89558W        W60158  22.240  18.736  12.681
89559W        W60159  34.117  20.267  11.655
89560W        W60160  39.172  44.253  12.120
89561W        W60161  44.734  12.847  12.461
89562W        W60162  40.499  36.850  14.484
89563W        W60163  21.597  10.780   2.809
89564W        W60164  35.900   1.042  11.666
89565W        W60165   3.030  23.074   3.772
89566W        W60166  26.923  44.804  12.407
89567W        W60167  42.354  38.536  14.952
89568W        W60168  31.097   4.244   1.385
89569W        W60169  28.114  12.684   3.206
89570W        W60170  30.174  10.807   0.030
89571W        W60171  13.401  14.300  13.957
89572W        W60172   3.840   3.380   0.316
89573W        W60173   9.151  16.490  14.727
89574W        W60174  15.096  26.122  13.901
89575W        W60175  12.153  12.055  12.017
89576W        W60176  43.208  13.786  11.580
89577W        W60177   9.247  15.780  11.995
89578W        W60178  21.233  43.697   3.747
89579W        W60179  40.837  43.129  10.784
89580W        W60180  36.373  34.113   1.798
89581W        W60181   5.391  22.431   3.630
89582W        W60182   1.211  37.675   4.224
89583W        W60183  24.677  32.186   4.172
89584W        W60184  21.049  15.519  14.451
89585W        W60185  10.799  36.488   0.595
89586W        W60186  30.402   9.678  14.986
89587W        W60187  44.452  27.176  13.073
89588W        W60188  18.979  10.630   2.291
89589W        W60189   2.253   2.322   2.560
89590W        W60190   8.891  30.786  11.334
89591W        W60191  38.294   1.915   3.081
89592W        W60192  34.302  24.493  14.318
89593W        W60193  21.511  44.163  14.973
89594W        W60194   5.746  38.499   0.755
89595W        W60195   1.945   1.010   4.193
89596W        W60196  25.541  14.106  13.416
89597W        W60197   9.127  40.413  10.637
89598W        W60198   6.811   0.503  11.902
89599W        W60199   7.961  12.163   4.441
89600W        W60200   6.896   5.844   2.203
89601W        W60201   8.126  14.599   0.038
89602W        W60202  17.744  14.606  14.979
89603W        W60203  39.864  28.578  13.019
89604W        W60204  39.449  39.897   1.599
89605W        W60205  24.296  32.401  11.505
89606W        W60206  31.790  11.144  13.142
89607W        W60207  17.714  18.247  13.526
89608W        W60208  21.321  15.636   5.102
89609W        W60209  19.802  42.753  13.418
89610W        W60210  39.513   5.799  12.387
89611W        W60211  39.609  37.499   4.536
89612W        W60212  35.427  34.760  11.457
89613W        W60213  22.798  41.943   0.929
89614W        W60214  27.216   0.325  10.677
89615W        W60215  18.673  28.270  10.707
89616W        W60216  10.335   8.405   4.676
89617W        W60217  40.987  18.075   5.358
89618W        W60218  25.151  18.058   3.185
89619W        W60219  10.540   7.292  14.817
89620W        W60220   8.162  29.558  13.374
89621W        W60221  31.946  41.487   4.562
89622W        W60222  11.636  29.947   2.868
89623W        W60223  34.938   7.428   2.892
89624W        W60224  44.839  21.063   0.040
89625W        W60225  19.025  19.303  12.445
89626W        W60226  25.287   3.201  10.379
89627W        W60227  17.358  33.037   2.647
89628W        W60228   3.447  30.514   4.832
89629W        W60229  26.702  29.231   2.695
89630W        W60230  18.792  27.294   1.392
89631W        W60231  16.163  20.729   0.922
89632W        W60232   6.485  32.013  12.840
89633W        W60233  29.996  10.303  10.928
89634W        W60234   4.580  28.248  13.694
89635W        W60235  19.626   9.658   2.210
89636W        W60236   1.816   1.001   5.070
89637W        W60237  35.506  13.615   3.706
89638W        W60238  43.810  18.861   0.539
89639W        W60239   7.629  19.851   3.765
89640W        W60240  13.657  16.707   4.632
89641W        W60241   5.366   8.583   3.264
89642W        W60242   9.229  11.726   1.354
89643W        W60243  20.525   1.701   3.601
89644W        W60244   4.198  22.780  11.605
89645W        W60245  41.962  25.645   3.670
89646W        W60246   3.015  42.999  13.915
89647W        W60247  31.334  23.634  11.128
89648W        W60248  15.863   2.847   1.423
89649W        W60249  28.611   3.805  12.624
89650W        W60250  35.165  32.621  12.450
89651W        W60251   8.897  41.795  11.675
89652W        W60252  21.988  44.859   2.444
89653W        W60253  31.990  12.107   2.690
89654W        W60254   4.688  16.756  13.005
89655W        W60255  44.952  38.238   4.604
89656W        W60256   7.067  41.875  11.902
89657W        W60257  31.963  22.581  10.868
89658W        W60258  35.517   3.462   1.511
89659W        W60259  33.632  19.702   3.629
89660W        W60260  11.686  34.141   3.600
89661W        W60261  29.457   2.692   2.021
89662W        W60262   6.233   7.756  13.976
89663W        W60263  24.430  31.469   0.498
89664W        W60264  15.838  44.777   1.327
89665W        W60265  35.310  23.663   1.373
89666W        W60266   7.575  18.958  13.841
89667W        W60267   0.371  44.822  12.994
89668W        W60268   0.497  11.257   4.227
89669W        W60269  10.913  18.288  12.413
89670W        W60270  16.151  30.447   4.551
89671W        W60271   1.679  20.837   1.343
89672W        W60272  31.969   1.889  14.125
89673W        W60273  12.993  10.353  12.170
89674W        W60274  18.341  20.187   1.266
89675W        W60275  11.229   9.760   3.433
89676W        W60276  42.830  38.803   4.205
89677W        W60277  17.270   3.536  13.353
89678W        W60278  15.273  20.699   4.640
89679W        W60279  21.500  26.660  13.972
89680W        W60280  11.659   7.865   1.312
89681W        W60281   7.686  22.888   5.077
89682W        W60282  30.883  12.072   2.226
89683W        W60283  23.371  32.085   4.568
89684W        W60284  34.672  25.465  10.695
89685W        W60285  15.540  25.641   2.627
89686W        W60286   0.917  27.249  12.130
89687W        W60287  28.789  40.272  12.960
89688W        W60288  44.797  16.758   0.001
89689W        W60289  41.906  31.634  12.499
89690W        W60290  43.701  41.113  11.541
89691W        W60291  28.275  40.796  14.794
89692W        W60292   2.443  16.216  14.588
89693W        W60293   0.848   0.657  11.702
89694W        W60294  33.418   9.715   2.304
89695W        W60295   7.008  36.009   4.050
89696W        W60296  13.332   4.343  14.052
89697W        W60297  32.967  37.442   4.629
89698W        W60298  36.005   5.762  12.884
89699W        W60299  21.176  23.951   3.091
89700W        W60300  15.574  40.271  11.726
89701W        W60301   7.607  14.664  14.976
89702W        W60302  27.007  37.528   3.228
89703W        W60303  15.445   2.868   4.332
89704W        W60304  36.972  22.742  11.873
89705W        W60305  23.677  22.628   3.189
89706W        W60306  38.085  37.724  13.615
89707W        W60307  36.337  11.248   1.051
89708W        W60308  39.223  21.049  13.757
89709W        W60309  14.980  32.516   3.667
89710W        W60310   8.124  21.637  13.388
89711W        W60311   8.220  32.512   4.367
89712W        W60312  17.770   8.933   1.641
89713W        W60313  41.719  31.388  13.156
89714W        W60314  14.390  15.395   4.439
89715W        W60315   7.784  42.993   3.438
89716W        W60316   8.482  39.263  12.541
89717W        W60317   6.922  38.843  14.853
89718W        W60318  21.642  23.239   0.896
89719W        W60319  28.147  15.913   3.750
89720W        W60320  16.884  18.835  11.865
89721W        W60321   2.367  43.461   3.334
89722W        W60322  35.989  25.213   4.840
89723W        W60323  21.733  18.760  12.526
89724W        W60324  35.070   5.860  13.351
89725W        W60325  33.548  26.081   4.429
89726W        W60326  21.019   5.283  13.920
89727W        W60327  21.277  25.758   4.282
89728W        W60328   4.200  38.963   4.522
89729W        W60329  16.273  10.380   4.502
89730W        W60330  36.032  12.176   4.087
89731W        W60331   5.616   4.776   0.416
89732W        W60332   3.742  42.286  14.917
89733W        W60333  13.702  35.018  12.112
89734W        W60334  34.722  11.606  11.106
89735W        W60335  18.708  24.941   4.926
89736W        W60336  37.139   1.725   0.962
89737W        W60337  30.723  44.542  11.086
89738W        W60338  20.282  22.245  12.844
89739W        W60339  25.971  17.121  11.453
89740W        W60340  19.311  34.592   4.228
89741W        W60341  30.940  16.272  14.693
89742W        W60342  17.102  39.921   1.669
89743W        W60343  20.052  30.438  11.474
89744W        W60344  23.491  19.981  12.019
89745W        W60345  26.565  28.672  12.530
89746W        W60346   0.989  25.210   0.424
89747W        W60347  22.600  20.693  10.506
89748W        W60348  27.025   4.780  10.582
89749W        W60349  20.030  15.307   3.405
89750W        W60350   3.319  25.076  10.765
89751W        W60351  34.910  40.535  12.934
89752W        W60352  18.584   5.495   1.148
89753W        W60353  43.574   2.372   3.183
89754W        W60354  37.354  36.311   5.005
89755W        W60355  42.467   7.389   1.496
89756W        W60356  14.191  31.018   4.216
89757W        W60357  23.427  28.436   4.700
89758W        W60358   7.868   8.427   2.382
89759W        W60359  31.575  32.328   2.174
89760W        W60360  32.813  30.867   2.310
89761W        W60361  32.189  13.765   1.983
89762W        W60362   5.704  12.402  12.051
89763W        W60363  13.600   5.959   4.199
89764W        W60364  44.825  19.534  12.641
89765W        W60365   9.185   8.807   2.136
89766W        W60366  19.076  12.173  10.801
89767W        W60367  25.540  32.600  10.910
89768W        W60368  38.224   4.962   4.611
89769W        W60369  25.320  17.628  11.185
89770W        W60370  41.098  40.498   1.402
89771W        W60371   9.306  21.794   0.846
89772W        W60372  12.098  18.317   2.241
89773W        W60373  28.682   1.057   3.656
89774W        W60374  39.611  34.419  11.136
89775W        W60375  32.876  21.063   0.337
89776W        W60376  38.858   1.404  11.061
89777W        W60377   4.195  41.792   4.694
89778W        W60378  37.218  29.931   2.035
89779W        W60379  34.793  24.826  14.594
89780W        W60380  32.223   8.889   3.578
89781W        W60381  38.539   9.096  11.051
89782W        W60382  41.389  15.934   4.457
89783W        W60383  21.755  17.182   2.880
89784W        W60384  25.116   8.260  11.023
89785W        W60385   5.310   5.782   0.477
89786W        W60386  25.184  30.034  10.718
89787W        W60387   0.455  28.659  14.135
89788W        W60388  29.991   5.677  14.564
89789W        W60389  40.900  38.523   3.301
89790W        W60390  12.210  32.710  14.065
89791W        W60391  14.992   0.722   5.055
89792W        W60392  39.362  43.828   0.017
89793W        W60393   5.510  38.391   4.718
89794W        W60394  24.101  30.481   1.343
89795W        W60395  18.106  13.287  12.445
89796W        W60396  38.105  41.347  12.984
89797W        W60397  21.517  32.151   4.675
89798W        W60398   5.975   2.888   0.031
89799W        W60399  14.163  31.177  14.348
89800W        W60400  20.653  27.267  14.241
89801W        W60401   0.343   8.592   0.427
89802W        W60402  16.805   2.312   3.147
89803W        W60403  28.561  28.656  14.176
89804W        W60404   5.668  24.528  14.766
89805W        W60405   7.446   0.531  12.472
89806W        W60406   9.915  13.328   4.472
89807W        W60407  26.287  43.591  13.846
89808W        W60408  15.253  15.342  12.550
89809W        W60409   4.142  16.486  12.995
89810W        W60410   0.164  38.957  14.799
89811W        W60411  10.759  13.646   2.396
89812W        W60412  14.221  12.206   4.543
89813W        W60413  16.278  37.340  12.852
89814W        W60414  30.803  41.981   9.701
89815W        W60415  41.352  19.565   0.845
89816W        W60416  27.632  25.415   0.822
89817W        W60417  35.860  11.796   2.112
89818W        W60418  12.560  29.604   1.437
89819W        W60419  20.586  43.664   4.554
89820W        W60420  28.170  42.066  11.207
89821W        W60421  33.122   3.653   5.099
89822W        W60422  43.790  40.536   1.060
89823W        W60423   5.067   1.328  13.377
89824W        W60424   4.871  31.458   2.715
89825W        W60425  38.843   9.370  11.360
89826W        W60426  25.057  39.321   2.673
89827W        W60427  17.235  23.973   4.202
89828W        W60428  37.873  28.135  10.971
89829W        W60429  33.574  35.394   0.836
89830W        W60430  39.477   7.786   0.898
89831W        W60431  34.451  36.264  11.969
89832W        W60432   5.869  37.035   3.225
89833W        W60433  44.711  18.797  13.106
89834W        W60434  39.281  24.183  12.490
89835W        W60435  37.378  12.935  10.341
89836W        W60436  18.818  29.556  11.946
89837W        W60437  14.274  22.726   0.014
89838W        W60438  22.605  39.410  12.448
89839W        W60439  19.146  27.422   3.257
89840W        W60440  42.760  22.142  12.144
89841W        W60441  33.403  18.993  12.915
89842W        W60442   5.885  39.849   4.118
89843W        W60443  30.133   2.876   3.931
89844W        W60444  28.030  17.210   4.117
89845W        W60445   9.698  30.778   4.309
89846W        W60446  39.060  35.666   0.009
89847W        W60447  27.484   3.787   2.158
89848W        W60448  25.956   9.333   0.815
89849W        W60449   0.797  32.908  10.932
89850W        W60450  18.067  29.723  11.278
89851W        W60451  11.753  41.582   0.903
89852W        W60452   7.444  39.724  11.304
89853W        W60453  29.697  42.979   3.481
89854W        W60454  33.892  22.031   4.566
89855W        W60455  16.324   5.863   4.063
89856W        W60456  29.016   2.789  13.092
89857W        W60457  28.790  41.275  10.262
89858W        W60458  14.933  32.952   1.350
89859W        W60459  31.528  24.472  11.768
89860W        W60460  37.821   5.807  12.260
89861W        W60461  15.991   5.491   0.415
89862W        W60462  42.476  43.243  11.558
89863W        W60463  30.225   6.195   2.623
89864W        W60464   2.893  14.819   2.605
89865W        W60465  26.033  18.059  11.634
89866W        W60466  43.438  31.090   0.861
89867W        W60467   2.502  31.205   4.140
89868W        W60468   2.286  27.178   2.278
89869W        W60469   1.316  10.310   3.871
89870W        W60470   0.313  36.921   3.574
89871W        W60471   1.456  29.955  13.520
89872W        W60472  16.532  31.146   4.225
89873W        W60473   3.266  16.680  11.714
89874W        W60474   9.823   2.183  10.981
89875W        W60475  28.247   8.884   4.499
89876W        W60476   4.870  37.907   0.012
89877W        W60477  20.022   0.062   4.201
89878W        W60478  10.182  26.426  14.056
89879W        W60479  37.106  44.540   0.396
89880W        W60480   1.690  29.238   2.147
89881W        W60481  11.974  38.115  12.425
89882W        W60482   6.887  33.362   1.642
89883W        W60483  10.882  42.931  10.551
89884W        W60484   4.504   9.612   1.771
89885W        W60485  22.617  28.228  10.032
89886W        W60486  38.894  16.207   2.256
89887W        W60487  32.309  40.824   2.182
89888W        W60488  19.203  33.337  14.390
89889W        W60489  13.275  40.258   4.050
89890W        W60490  15.254   8.623  11.568
89891W        W60491  43.483  11.804  13.988
89892W        W60492  21.574  27.746  12.511
89893W        W60493  17.514  22.701  13.783
89894W        W60494   9.642   1.687  14.884
89895W        W60495  20.484  17.344  13.005
89896W        W60496  16.720   3.699   3.000
89897W        W60497  28.161  40.918  13.867
89898W        W60498  25.486  24.003   4.390
89899W        W60499  37.044  11.805  14.592
89900W        W60500   5.224  42.067  10.707
89901W        W60501  19.883  38.038  13.800
89902W        W60502  35.492  40.379  11.251
89903W        W60503  43.750  41.356   4.183
89904W        W60504  23.982   4.655  13.908
89905W        W60505   0.452  28.571   2.152
89906W        W60506  31.467  17.564  10.781
89907W        W60507  43.366  25.188  12.126
89908W        W60508  36.663  24.781  13.012
89909W        W60509  22.762  14.243   9.801
89910W        W60510  10.614  13.175  12.898
89911W        W60511  22.009  43.759   0.793
89912W        W60512   0.195  25.431   0.802
89913W        W60513  16.309  29.514  12.455
89914W        W60514  28.156  14.076   4.448
89915W        W60515   0.964  44.291   4.669
89916W        W60516   3.858  26.733   0.672
89917W        W60517  18.797  25.573  10.176
89918W        W60518   5.229  20.629   0.123
89919W        W60519   9.296   3.997  12.007
89920W        W60520   1.902  38.520   3.506
89921W        W60521   0.769   9.966   1.015
89922W        W60522  18.616  37.960  13.029
89923W        W60523  25.056  34.268  10.700
89924W        W60524  22.418  24.706  14.448
89925W        W60525  12.292  27.825   3.214
89926W        W60526  30.968  26.719   5.014
89927W        W60527  38.615  19.247  11.492
89928W        W60528   9.799  26.266   4.353
89929W        W60529  35.459  21.192  11.693
89930W        W60530  23.701  10.887   0.974
89931W        W60531  21.830   6.658  11.602
89932W        W60532  30.134  24.933  13.503
89933W        W60533   0.211  27.933   1.570
89934W        W60534  25.311   9.887  14.867
89935W        W60535   9.236  15.659   3.690
89936W        W60536   9.204  35.732   1.668
89937W        W60537  12.555  14.182   4.278
89938W        W60538  33.802  43.773  11.616
89939W        W60539  30.955  42.706  11.025
89940W        W60540   8.698  12.282  12.436
89941W        W60541   3.433  38.125   3.298
89942W        W60542   5.545  14.498   0.201
89943W        W60543   0.283  24.064  13.356
89944W        W60544   6.649  39.427  13.874
89945W        W60545   5.408  39.944   3.186
89946W        W60546   4.464  43.030   0.706
89947W        W60547  10.376  28.409   0.370
89948W        W60548  14.645   6.021   2.721
89949W        W60549  30.019  12.131  11.965
89950W        W60550   6.094  11.180   4.671
89951W        W60551  32.505  36.352   4.926
89952W        W60552  32.121  20.036  12.504
89953W        W60553  44.284  19.358  11.477
89954W        W60554  24.524  40.029   2.655
89955W        W60555  23.672   2.902   2.266
89956W        W60556   1.942  10.679  11.005
89957W        W60557  37.964  40.356  14.408
89958W        W60558  33.020  42.940  10.994
89959W        W60559  21.810   8.271  14.774
89960W        W60560   8.685  11.850   1.231
89961W        W60561  21.736  43.073   2.749
89962W        W60562  42.497  11.263   2.738
89963W        W60563  17.060  36.633   2.758
89964W        W60564  17.727  14.766  10.982
89965W        W60565  26.974  44.805   2.661
89966W        W60566  32.855  23.429  13.591
89967W        W60567  43.948  38.923  14.302
89968W        W60568  12.696  36.066  12.994
89969W        W60569  11.600   3.075   2.054
89970W        W60570  37.156  32.579  12.514
89971W        W60571  22.524  16.780  13.884
89972W        W60572  18.189  17.070  14.246
89973W        W60573  34.013  38.606  12.195
89974W        W60574   4.284  12.349   2.524
89975W        W60575   8.253   3.141   0.783
89976W        W60576   3.154   1.325   2.585
89977W        W60577  30.248  11.657   0.908
89978W        W60578  43.554   8.396   2.278
89979W        W60579  21.078  21.454   4.051
89980W        W60580  31.905  38.023   2.401
89981W        W60581   5.342   7.598   3.069
89982W        W60582  30.992  24.810  13.878
89983W        W60583   6.036  10.315   1.337
89984W        W60584  40.045  22.013   2.710
89985W        W60585   0.571  30.018  14.215
89986W        W60586   4.281   2.397  11.580
89987W        W60587  25.266   9.207   0.274
89988W        W60588  43.217  30.696  10.705
89989W        W60589  33.420  12.261  11.614
89990W        W60590  23.624  35.033  13.934
89991W        W60591  12.897  12.083  12.398
89992W        W60592  39.941   3.512   2.939
89993W        W60593   0.987  15.588   3.234
89994W        W60594  16.131  16.385   3.160
89995W        W60595  41.879  34.727   3.811
89996W        W60596  33.479   8.949  13.826
89997W        W60597  39.594  42.915  11.617
89998W        W60598   1.804  25.472  14.903
89999W        W60599   4.221  35.184   3.245
90000W        W60600  24.975  26.094  11.491
90001W        W60601  19.491   9.208  11.576
90002W        W60602  39.446  26.502  11.230
90003W        W60603  39.096  37.812  12.703
90004W        W60604   7.413  25.617   0.684
90005W        W60605  18.758   7.325  12.144
90006W        W60606  40.050  37.286   2.414
90007W        W60607   4.218  13.173  10.724
90008W        W60608   7.820  11.614   4.612
90009W        W60609  28.840  31.641  10.721
90010W        W60610  11.549  35.855   2.206
90011W        W60611  26.520  41.833  12.385
90012W        W60612  32.068  24.564  12.706
90013W        W60613  10.645  31.629   1.671
90014W        W60614  34.210  41.768  13.961
90015W        W60615  22.042  13.382   0.303
90016W        W60616  30.870   1.207   4.321
90017W        W60617  26.928   5.049   3.155
90018W        W60618   3.864  11.819  11.594
90019W        W60619  27.249   4.353  10.387
90020W        W60620   4.909  42.521  13.451
90021W        W60621   3.850  29.954  14.145
90022W        W60622   2.278   2.294  12.079
90023W        W60623   7.639  34.586   3.554
90024W        W60624  10.321   0.169  11.579
90025W        W60625  44.414   3.180   3.187
90026W        W60626  35.033  20.607  11.216
90027W        W60627  30.940   9.665  12.916
90028W        W60628  10.617  21.578  13.442
90029W        W60629   0.841  12.714  11.182
90030W        W60630  44.539  11.146  11.341
90031W        W60631   1.326  28.638   3.300
90032W        W60632  29.377  21.204   3.386
90033W        W60633  40.599  23.656  12.481
90034W        W60634   3.690  20.469  12.486
90035W        W60635  38.264   8.320  14.367
90036W        W60636  42.828   0.085   0.735
90037W        W60637  37.196  39.677   3.273
90038W        W60638  10.688  38.113  13.412
90039W        W60639  12.451  10.892   0.820
90040W        W60640  13.747   8.641  13.487
90041W        W60641  19.209  39.242  12.464
90042W        W60642  33.459  36.296   2.302
90043W        W60643  37.909  38.957   4.382
90044W        W60644   2.684  18.224   4.628
90045W        W60645  22.464  35.615   1.419
90046W        W60646   1.936  12.879  13.053
90047W        W60647  31.490   1.417  12.891
90048W        W60648  36.577  21.546  11.178
90049W        W60649  16.759  21.231   0.270
90050W        W60650   0.867  20.567   3.229
90051W        W60651   2.543  33.608   3.170
90052W        W60652  36.593  44.312   3.812
90053W        W60653  10.596  19.151   0.970
90054W        W60654   9.867   5.713  12.073
90055W        W60655  42.342  42.071   3.188
90056W        W60656  43.967   1.164   4.567
90057W        W60657   4.310  11.853  10.847
90058W        W60658  39.959  24.608   2.316
90059W        W60659  11.328   8.407   4.838
90060W        W60660   9.492  21.242  10.291
90061W        W60661  36.899  40.031  12.573
90062W        W60662  21.492  30.135  11.063
90063W        W60663  35.467   2.310   0.364
90064W        W60664  20.824  11.683   1.762
90065W        W60665  11.398  44.301  13.503
90066W        W60666   4.452  15.016  12.608
90067W        W60667  16.579  33.523   3.151
90068W        W60668  21.809  34.500   1.241
90069W        W60669  34.166  35.219   3.244
90070W        W60670  36.488  21.336  13.038
90071W        W60671  40.955  14.124   0.916
90072W        W60672  18.279  17.478  13.352
90073W        W60673  14.639  27.095   3.790
90074W        W60674  21.552   8.780   0.058
90075W        W60675  30.095  37.489   2.754
90076W        W60676  43.302  17.650  13.780
90077W        W60677  32.015  44.928   4.458
90078W        W60678  15.406  17.772   5.085
90079W        W60679  31.493  10.272  13.493
90080W        W60680  13.840  11.049  13.174
90081W        W60681   0.947  12.604  13.948
90082W        W60682  13.853  25.047  14.016
90083W        W60683  13.626  22.305  12.486
90084W        W60684  24.072  19.163  13.944
90085W        W60685  10.376  23.976   2.200
90086W        W60686  29.693  25.199  13.561
90087W        W60687  26.664  41.825  10.718
90088W        W60688  14.255  28.819  13.310
90089W        W60689   6.747  40.510   4.519
90090W        W60690  33.048   1.570  14.421
90091W        W60691  20.568   5.909   0.891
90092W        W60692   8.562  44.695  14.234
90093W        W60693  37.973   2.729  13.506
90094W        W60694  41.500  20.239   0.033
90095W        W60695  36.363   7.908   5.071
90096W        W60696  44.034   0.750   0.823
90097W        W60697  23.530  39.476   2.408
90098W        W60698  39.178  16.039  13.503
90099W        W60699  35.098  19.769  10.777
90100W        W60700  15.512  26.750   2.231
90101W        W60701  44.780  38.726   0.804
90102W        W60702  18.807  38.873   1.368
90103W        W60703  11.435  12.471   1.833
90104W        W60704  42.499   6.927  12.895
90105W        W60705  40.345   1.853  10.682
90106W        W60706   8.888  27.995   2.328
90107W        W60707   3.156   9.385   2.828
90108W        W60708   7.540  37.717  12.567
90109W        W60709  24.061  29.663   0.909
90110W        W60710  36.880  12.716  11.122
90111W        W60711  15.439  19.270  14.878
90112W        W60712  38.573  10.605  13.790
90113W        W60713  29.410  16.651   1.749
90114W        W60714   3.997  43.630   4.172
90115W        W60715  26.952  31.364  12.241
90116W        W60716  30.756  35.400   3.051
90117W        W60717  19.611  42.054   4.075
90118W        W60718  27.031   8.688   1.594
90119W        W60719   0.734  29.145  14.394
90120W        W60720   8.629  22.101   2.640
90121W        W60721  16.245  40.543  14.995
90122W        W60722  17.823   4.384  10.956
90123W        W60723  22.231   0.481   2.832
90124W        W60724   8.806  24.759   5.061
90125W        W60725  16.360  27.493  12.495
90126W        W60726  30.312   3.375  12.915
90127W        W60727   6.237  18.523   2.256
90128W        W60728  35.591  25.153  12.481
90129W        W60729  13.584  33.887   3.864
90130W        W60730  44.562  33.997   0.739
90131W        W60731   7.389  41.935  14.811
90132W        W60732  20.825  13.587  14.073
90133W        W60733  29.430  26.985  12.474
90134W        W60734   4.267  13.663   2.806
90135W        W60735   1.408  33.400  11.357
90136W        W60736   3.207  20.247  14.451
90137W        W60737  42.390  26.988  14.954
90138W        W60738  27.539   0.524   0.240
90139W        W60739  27.169  26.626   4.753
90140W        W60740   0.796  33.416   1.461
90141W        W60741   8.355  28.238  12.347
90142W        W60742  16.308  13.615  12.039
90143W        W60743  27.515  42.632  10.971
90144W        W60744  37.780  35.297   1.959
90145W        W60745  17.428  17.334   3.750
90146W        W60746  25.489  38.471  13.458
90147W        W60747  37.416  13.642   4.147
90148W        W60748  39.065  37.654   1.349
90149W        W60749  23.791  40.146  11.461
90150W        W60750  12.336   8.406  10.668
90151W        W60751   9.973  28.937   2.865
90152W        W60752  31.690  43.366  11.115
90153W        W60753  21.038   7.499  12.430
90154W        W60754  43.926  19.462   1.749
90155W        W60755  11.219  10.167   0.902
90156W        W60756   6.691  38.194   3.978
90157W        W60757  15.706  24.659  12.867
90158W        W60758  43.364   5.691  13.288
90159W        W60759  33.913  34.774   3.262
90160W        W60760  32.884   0.752  12.474
90161W        W60761   1.738  21.057   1.809
90162W        W60762  39.205   3.883  11.016
90163W        W60763  41.409  10.276  11.557
90164W        W60764   2.846  30.238  11.903
90165W        W60765  19.782  25.703   4.022
90166W        W60766  37.637  40.439   4.816
90167W        W60767  21.360  19.500  13.922
90168W        W60768  30.939   1.953   0.262
90169W        W60769  11.753   5.769  14.819
90170W        W60770   5.436   3.462   2.893
90171W        W60771  25.772  19.929  13.206
90172W        W60772  28.410  41.458   2.863
90173W        W60773  38.057  29.197   0.475
90174W        W60774   1.547  20.046   0.011
90175W        W60775  12.709  35.196  13.602
90176W        W60776   1.342  36.882   0.790
90177W        W60777   7.158  21.074   1.393
90178W        W60778   5.715  35.313  12.114
90179W        W60779  34.884   4.439  14.880
90180W        W60780  43.362  41.508   5.205
90181W        W60781   0.865  11.154   4.605
90182W        W60782  28.278  26.603  14.789
90183W        W60783  18.260  14.276  13.457
90184W        W60784  22.736  33.218   0.936
90185W        W60785   2.886  14.125  11.495
90186W        W60786   7.366  13.566   1.858
90187W        W60787  39.339  32.876   4.257
90188W        W60788  36.643  35.677  11.574
90189W        W60789  30.423  44.940   2.837
90190W        W60790  42.310  17.143  13.561
90191W        W60791  10.274   4.555  13.957
90192W        W60792  40.735  43.865   4.436
90193W        W60793  36.405  28.793   4.767
90194W        W60794  35.667  36.568  13.486
90195W        W60795  12.805  22.047   1.942
90196W        W60796   2.717   2.521  10.454
90197W        W60797   0.027   5.219   2.298
90198W        W60798  34.561  18.417   3.412
90199W        W60799  36.601  21.341  10.168
90200W        W60800  36.416  15.725  10.730
90201W        W60801  30.732  17.356   4.287
90202W        W60802  25.116  43.335   1.359
90203W        W60803  43.535  32.625  10.520
90204W        W60804   6.890  13.381   0.014
90205W        W60805  37.975   4.718  11.629
90206W        W60806   7.387   3.273   0.651
90207W        W60807   0.847  17.957   5.133
90208W        W60808  30.464   6.503   2.278
90209W        W60809  24.715  24.795  12.463
90210W        W60810  19.377  17.814   3.444
90211W        W60811  36.921  28.881   3.935
90212W        W60812  25.194  16.705   4.266
90213W        W60813   5.967  16.844  13.477
90214W        W60814  28.145  15.052   4.694
90215W        W60815  44.318  22.291   1.823
90216W        W60816  10.324  23.974  11.544
90217W        W60817   5.145  18.087   1.319
90218W        W60818  38.831   7.922  10.726
90219W        W60819   8.894  20.630   1.664
90220W        W60820  33.506  16.305   2.841
90221W        W60821  29.451   7.221   2.885
90222W        W60822  44.293  20.974   4.115
90223W        W60823  31.295   0.740  11.576
90224W        W60824  41.321  44.943   0.210
90225W        W60825  34.846  19.147   1.445
90226W        W60826  26.892  37.814  10.705
90227W        W60827   2.242  41.129   2.691
90228W        W60828   9.731  17.721   1.359
90229W        W60829  38.792   2.260   0.899
90230W        W60830  25.667  27.610  10.552
90231W        W60831  20.288  16.202   3.822
90232W        W60832  33.140  44.457  14.459
90233W        W60833  33.785  21.164   4.243
90234W        W60834  21.105  28.031   3.798
90235W        W60835  14.592  24.170   2.267
90236W        W60836  14.826  13.907   2.603
90237W        W60837  42.240  41.229   1.350
90238W        W60838  21.870   4.893   3.988
90239W        W60839  14.449   4.380  10.699
90240W        W60840  19.820  13.158  12.307
90241W        W60841  25.680  25.345  12.029
90242W        W60842   9.454  30.855  10.593
90243W        W60843  15.341   4.678  10.807
90244W        W60844   4.957  13.299  11.880
90245W        W60845  20.791  29.094   0.272
90246W        W60846   5.146   6.183  14.077
90247W        W60847   4.523  24.005   3.416
90248W        W60848  33.449   8.714  14.926
90249W        W60849  19.464  18.569  12.533
90250W        W60850  34.932  12.897   3.163
90251W        W60851  30.706  38.342  14.081
90252W        W60852  27.575  33.040   4.415
90253W        W60853  19.512   7.803  13.534
90254W        W60854  20.902   4.896   1.757
90255W        W60855   2.965  32.161   0.247
90256W        W60856  12.202  17.685  11.135
90257W        W60857   2.941   4.667   0.458
90258W        W60858  26.034  25.114  12.941
90259W        W60859   5.447  19.828   4.199
90260W        W60860  31.696  12.072  13.808
90261W        W60861  37.441   3.496   3.988
90262W        W60862  23.369  37.346   2.803
90263W        W60863   9.128  11.079   3.257
90264W        W60864  15.178  24.023   4.614
90265W        W60865  37.229   8.220   1.268
90266W        W60866  44.313  19.712   2.596
90267W        W60867  22.945  23.614   2.888
90268W        W60868  39.203  26.032  13.563
90269W        W60869   1.841  17.789  12.465
90270W        W60870  39.421  43.423  12.979
90271W        W60871  21.533  29.448  13.500
90272W        W60872  40.810  21.254   4.537
90273W        W60873  38.955  42.360   4.623
90274W        W60874  39.382   0.926  12.370
90275W        W60875  30.974   2.144   9.824
90276W        W60876  23.735  21.203  14.986
90277W        W60877  17.305   4.368   1.858
90278W        W60878  42.029  37.568  14.818
90279W        W60879  37.544  30.997  11.902
90280W        W60880  32.450   4.506  11.078
90281W        W60881   6.433  30.466   4.648
90282W        W60882  31.511  43.543   1.161
90283W        W60883  38.544   7.365  13.026
90284W        W60884  30.947   1.482  13.571
90285W        W60885  34.063  29.175  12.590
90286W        W60886  43.504  23.529  13.021
90287W        W60887  20.191  14.314  12.914
90288W        W60888  40.087   2.814   2.457
90289W        W60889  38.064  25.040  13.401
90290W        W60890  16.330  30.494  12.408
90291W        W60891  23.321  21.791  14.022
90292W        W60892  43.029  25.216   3.756
90293W        W60893  35.338   4.166  11.979
90294W        W60894  24.445   5.222   3.295
90295W        W60895  31.285  29.086  13.079
90296W        W60896  25.577  40.473  12.765
90297W        W60897  34.325   1.792  12.908
90298W        W60898  28.200   0.869  14.310
90299W        W60899  23.477   8.417   3.339
90300W        W60900  17.107   6.263   1.221
90301W        W60901  17.595  38.571   3.961
90302W        W60902  13.344  30.666   3.794
90303W        W60903   6.743   3.888  13.929
90304W        W60904  34.430  39.962   0.504
90305W        W60905  31.995  29.248  12.606
90306W        W60906  32.723  10.757  11.648
90307W        W60907  12.175  21.670  10.644
90308W        W60908  14.943  16.217   4.608
90309W        W60909  37.795  20.779   2.874
90310W        W60910  36.139  14.772   1.152
90311W        W60911  37.461  41.872  13.476
90312W        W60912  31.609   3.224  13.330
90313W        W60913   6.762   1.866  11.799
90314W        W60914  13.617  15.752   4.352
90315W        W60915   0.449  19.767   3.109
90316W        W60916   2.801  30.608  12.440
90317W        W60917   6.915   3.217   1.327
90318W        W60918  25.504  30.565   4.207
90319W        W60919  39.998  18.063  11.461
90320W        W60920  42.419  31.810  10.287
90321W        W60921  25.710  20.009   4.587
90322W        W60922   6.738  27.503  12.868
90323W        W60923  33.925  42.850  13.388
90324W        W60924  21.050  30.576  12.367
90325W        W60925  19.601   6.618   4.319
90326W        W60926  38.454  38.407  12.021
90327W        W60927  19.429  13.120  11.952
90328W        W60928   7.366  13.337  11.339
90329W        W60929  42.788  31.879  14.941
90330W        W60930  44.594   5.251   3.598
90331W        W60931  21.254   9.399   2.220
90332W        W60932  26.008  23.640   4.607
90333W        W60933  24.624  40.448  13.325
90334W        W60934  38.320  29.376  10.748
90335W        W60935  28.969  15.786   4.355
90336W        W60936   6.848   7.633   2.032
90337W        W60937  25.521  33.398  13.999
90338W        W60938  19.353  29.912  13.092
90339W        W60939   6.871  28.697  11.958
90340W        W60940  24.732  29.582   1.185
90341W        W60941  14.489  38.478  11.521
90342W        W60942  19.250   9.393   0.927
90343W        W60943  18.603  36.363  11.642
90344W        W60944  32.866  41.010  14.848
90345W        W60945   0.732  40.967   1.789
90346W        W60946  25.398   5.955   0.918
90347W        W60947   4.576   3.475   4.585
90348W        W60948  29.599  29.853   1.836
90349W        W60949  11.046  13.932   2.761
90350W        W60950  28.718   6.636  14.042
90351W        W60951  38.397  13.019   3.371
90352W        W60952  15.611  41.324  12.475
90353W        W60953   6.464   4.869  14.967
90354W        W60954  13.430   1.742   3.899
90355W        W60955  21.013  14.255   1.804
90356W        W60956  43.040  16.601   4.071
90357W        W60957  39.358  19.830  14.328
90358W        W60958  18.730  33.938   1.892
90359W        W60959   7.817  22.848  11.395
90360W        W60960  37.385  12.233  11.485
90361W        W60961   9.121  16.788   2.268
90362W        W60962  10.589  40.431  14.167
90363W        W60963  30.912  24.117  10.759
90364W        W60964  27.688  38.052  12.921
90365W        W60965  32.797  42.143   1.232
90366W        W60966  22.014  18.705  14.889
90367W        W60967  40.297  26.866  14.317
90368W        W60968  30.072   6.913   2.390
90369W        W60969  38.059  13.149  12.069
90370W        W60970   9.270  18.085  11.415
90371W        W60971  11.667  32.774  10.603
90372W        W60972  19.539  21.257   0.340
90373W        W60973  11.524  21.356   5.077
90374W        W60974  12.727  19.680   0.733
90375W        W60975   7.421  26.075  14.791
90376W        W60976  15.153  42.824  11.682
90377W        W60977  20.835  36.391   0.558
90378W        W60978  16.456   9.694   0.527
90379W        W60979  14.628  32.132  11.127
90380W        W60980  12.094   4.865   3.619
90381W        W60981  37.821  17.770  12.858
90382W        W60982  29.390   2.097   2.712
90383W        W60983  16.645  34.519  14.575
90384W        W60984  21.138  33.189  10.277
90385W        W60985  37.413  32.428  10.784
90386W        W60986   6.509  36.735   4.005
90387W        W60987  39.904  16.785   4.551
90388W        W60988  39.191   9.028  11.596
90389W        W60989   9.708  15.343   4.289
90390W        W60990  14.403  13.833  13.392
90391W        W60991   7.427  16.711   1.673
90392W        W60992  32.537   9.300   4.361
90393W        W60993  26.991  19.062   1.375
90394W        W60994  40.041  37.576  10.228
90395W        W60995  18.621  10.156  13.081
90396W        W60996  29.449  31.643  12.555
90397W        W60997  39.801   0.470  10.645
90398W        W60998  19.660   9.322  13.931
90399W        W60999   8.899   9.185   2.354
90400W        W61000  10.327  43.009  11.543
90401W        W61001   1.804  38.374   4.542
90402W        W61002  14.748  11.560   5.008
90403W        W61003  28.828  30.601  13.819
90404W        W61004  12.186  11.893   2.331
90405W        W61005  39.080  10.161   4.514
90406W        W61006  26.090  37.473   5.045
90407W        W61007  40.444   5.787   0.312
90408W        W61008  13.736   7.480   4.009
90409W        W61009  16.231  18.003  14.325
90410W        W61010  10.887  32.164   0.412
90411W        W61011   4.930  44.518  13.459
90412W        W61012  16.993  11.828  13.915
90413W        W61013  13.238   4.780   0.354
90414W        W61014  10.419   2.937  11.490
90415W        W61015  24.795  39.029   4.157
90416W        W61016  38.922  13.076   0.938
90417W        W61017  31.062  24.605   1.978
90418W        W61018  13.828   2.220   1.362
90419W        W61019  10.853  23.831  14.486
90420W        W61020   2.954  10.797  11.854
90421W        W61021   5.718  39.066  12.522
90422W        W61022  26.158  28.254  12.032
90423W        W61023  15.575   1.035   3.117
90424W        W61024   5.919   2.054   4.071
90425W        W61025  16.135   9.315  13.367
90426W        W61026   7.154   4.465   0.870
90427W        W61027   7.451  18.344   4.099
90428W        W61028   0.527   9.556  12.108
90429W        W61029   2.445  11.046   0.778
90430W        W61030  18.857  36.589  14.489
90431W        W61031  36.184  40.281   0.915
90432W        W61032  38.356  11.215   3.966
90433W        W61033  44.212  42.396  12.998
90434W        W61034  40.787  28.524   2.170
90435W        W61035  35.102  36.911   2.992
90436W        W61036   2.832  10.188   0.833
90437W        W61037  42.726  43.965  12.493
90438W        W61038  37.807  20.074  14.073
90439W        W61039  12.662  20.087   1.438
90440W        W61040  15.048  20.274  11.154
90441W        W61041   5.248   5.349   1.156
90442W        W61042  19.994  11.217  13.492
90443W        W61043   8.961  21.872  12.148
90444W        W61044  32.637  38.274   1.554
90445W        W61045   5.824  41.876  10.506
90446W        W61046  19.017  23.250  14.804
90447W        W61047  24.290  43.835   4.602
90448W        W61048  25.698  43.555  10.752
90449W        W61049  12.858  30.152   9.660
90450W        W61050  37.006   2.700  14.806
90451W        W61051  21.461   5.854   3.179
90452W        W61052  35.807  25.599   2.153
90453W        W61053  26.932  42.799  14.814
90454W        W61054  28.673  12.753   4.263
90455W        W61055  22.949  42.637   4.159
90456W        W61056  42.370  27.969   2.741
90457W        W61057   0.564  13.561   4.140
90458W        W61058  41.363  26.973  13.564
90459W        W61059  25.831   6.092  10.119
90460W        W61060   0.105  12.337   4.867
90461W        W61061   9.215  31.328  13.344
90462W        W61062  31.938  15.670  14.867
90463W        W61063  34.879  39.828  13.498
90464W        W61064   8.870  42.802   1.698
90465W        W61065  31.162  29.229   3.270
90466W        W61066  11.400  20.874  13.096
90467W        W61067  42.071   5.740   0.234
90468W        W61068   4.966  17.381   4.595
90469W        W61069   2.403  29.521  13.795
90470W        W61070   4.661  31.819   1.817
90471W        W61071  23.485  16.721   2.193
90472W        W61072   2.281  39.091  10.168
90473W        W61073  24.728  25.065   3.653
90474W        W61074  15.541  10.936   2.137
90475W        W61075  19.846  27.102  10.762
90476W        W61076  25.135   0.887  11.232
90477W        W61077   3.958  16.149   0.129
90478W        W61078  11.115   6.156   4.139
90479W        W61079  33.919  36.551  10.740
90480W        W61080  37.500  27.884   1.827
90481W        W61081   3.700  39.223   0.298
90482W        W61082  25.595   6.428  11.962
90483W        W61083  10.711  30.181  13.822
90484W        W61084  32.496  25.394   4.513
90485W        W61085  17.145  22.079   2.432
90486W        W61086  14.217  34.590  14.707
90487W        W61087  42.838  36.291  14.309
90488W        W61088  10.937  12.719  11.153
90489W        W61089  20.876   3.080  12.568
90490W        W61090   1.379  26.758  11.591
90491W        W61091  28.506  29.806  10.739
90492W        W61092  42.396   2.843   1.674
90493W        W61093   3.198   5.387   4.123
90494W        W61094   0.340   9.596   2.957
90495W        W61095  21.058  41.647  10.382
90496W        W61096   0.003  16.052   4.677
90497W        W61097   6.251  26.202   3.117
90498W        W61098   1.556  31.168  12.884
90499W        W61099  29.551  35.980  14.575
90500W        W61100  15.631   7.649   5.156
90501W        W61101  26.050   7.752   3.382
90502W        W61102  41.021   8.818  11.837
90503W        W61103   5.877  40.972   3.671
90504W        W61104  39.919  41.275   1.487
90505W        W61105   4.250  30.622  13.581
90506W        W61106  18.737  30.528   1.967
90507W        W61107  34.448  29.338   2.691
90508W        W61108  40.549  42.735  12.509
90509W        W61109   1.752  37.397   3.246
90510W        W61110  41.043  24.248   2.683
90511W        W61111  24.708   9.811   3.708
90512W        W61112  43.912  14.730  13.838
90513W        W61113  27.107  33.960  11.281
90514W        W61114   0.907  10.556  11.121
90515W        W61115  39.362  32.618  13.513
90516W        W61116   9.801  31.044  13.135
90517W        W61117  39.595  33.875   4.167
90518W        W61118  28.594  39.452  10.321
90519W        W61119  31.613   3.447  14.749
90520W        W61120  38.130  12.851   3.835
90521W        W61121  28.961  24.808  12.055
90522W        W61122  12.621  19.598  11.837
90523W        W61123  21.571  41.548  11.446
90524W        W61124  44.055  12.781  11.088
90525W        W61125  40.311   3.255  11.572
90526W        W61126  31.360  40.560   3.673
90527W        W61127   5.268  15.054   1.623
90528W        W61128  28.055  20.236   4.036
90529W        W61129  24.195   4.739   4.111
90530W        W61130  43.950   7.900   0.517
90531W        W61131  31.131  19.164   2.364
90532W        W61132  20.480  10.031   4.030
90533W        W61133   5.927   2.041  12.018
90534W        W61134   2.919  18.321  10.755
90535W        W61135  16.313  31.007  11.127
90536W        W61136  36.336  25.937  12.536
90537W        W61137  23.168   8.604   3.732
90538W        W61138  28.501  10.854  10.584
90539W        W61139  43.098  40.788  12.202
90540W        W61140   9.748   5.381   3.160
90541W        W61141  10.464  27.063   0.419
90542W        W61142  36.450  26.070  10.693
90543W        W61143   5.783  24.991   1.158
90544W        W61144  44.974   7.751  12.033
90545W        W61145  34.429  33.519  12.419
90546W        W61146  13.663   4.491   2.642
90547W        W61147  39.469  37.139   3.108
90548W        W61148   5.947   7.082   0.436
90549W        W61149   4.634  17.998  12.474
90550W        W61150  39.570  23.421  14.558
90551W        W61151  15.493   4.984  14.464
90552W        W61152   9.253  39.987  12.017
90553W        W61153  18.357  21.663   2.231
90554W        W61154  35.395  40.981   3.246
90555W        W61155  14.454  43.175  12.038
90556W        W61156  25.173   4.776  14.776
90557W        W61157  14.851  22.530  10.812
90558W        W61158  24.790   5.650   3.313
90559W        W61159  39.906  25.145   3.339
90560W        W61160  26.948  44.476  11.061
90561W        W61161  38.911  15.181  10.650
90562W        W61162   2.883  32.878   0.802
90563W        W61163   1.938  30.758  13.715
90564W        W61164  29.681  13.518  14.370
90565W        W61165   0.173  36.577  14.964
90566W        W61166  33.555  16.714   2.017
90567W        W61167  15.686  12.444   1.228
90568W        W61168  10.724  36.592  14.071
90569W        W61169   2.346   2.201  13.101
90570W        W61170  43.964   7.852  12.598
90571W        W61171  26.504  34.572  14.544
90572W        W61172  15.566  43.491   3.537
90573W        W61173  38.598   0.456   4.282
90574W        W61174  25.280   1.213   2.792
90575W        W61175  36.758  41.888   3.664
90576W        W61176  26.079  10.517  13.970
90577W        W61177  34.085  17.536   3.228
90578W        W61178  18.157  28.577   4.581
90579W        W61179   1.856   3.853   0.224
90580W        W61180   6.240   4.393   3.804
90581W        W61181   7.408   0.984   2.827
90582W        W61182  43.261  44.903   3.536
90583W        W61183  21.541   9.764  12.863
90584W        W61184   2.427  30.503   1.823
90585W        W61185  16.507  42.787  12.999
90586W        W61186  21.235  41.775  10.842
90587W        W61187  28.820  36.533  11.664
90588W        W61188   4.822  24.503  11.076
90589W        W61189  15.026  20.607  13.879
90590W        W61190  27.308   3.503   1.750
90591W        W61191   8.235  10.234  12.138
90592W        W61192  13.975  36.888   5.144
90593W        W61193  28.966  43.533  11.549
90594W        W61194  31.175  15.346   2.668
90595W        W61195   3.968  34.510  13.648
90596W        W61196  22.750  32.360  14.051
90597W        W61197  14.981  42.907  10.556
90598W        W61198   0.447   6.873  10.678
90599W        W61199  26.271   7.607  13.998
90600W        W61200   0.309  13.769  14.816
90601W        W61201  16.564  28.295   4.629
90602W        W61202  10.271   1.315   4.983
90603W        W61203  29.210  16.946   1.262
90604W        W61204  28.140  20.297   1.298
90605W        W61205  18.558  41.484  14.951
90606W        W61206  43.891  43.728  12.801
90607W        W61207   8.241  26.518  11.780
90608W        W61208  15.043  43.285  13.514
90609W        W61209  18.451  19.903   3.581
90610W        W61210   8.444   9.739  14.467
90611W        W61211   2.949   7.270   4.429
90612W        W61212  22.061   2.179  13.343
90613W        W61213  43.538   2.555   4.822
90614W        W61214  40.395  27.984  11.622
90615W        W61215  28.071  18.241   3.273
90616W        W61216   3.054  35.587   1.165
90617W        W61217  19.807  25.962   1.922
90618W        W61218  17.952  31.149  14.273
90619W        W61219  22.789   8.312  13.332
90620W        W61220  43.716  21.294   4.046
90621W        W61221  21.848  15.929   1.631
90622W        W61222   0.653  38.601  13.430
90623W        W61223  39.032  13.279   3.234
90624W        W61224  10.257  31.750  11.186
90625W        W61225  32.893  39.542  14.007
90626W        W61226  10.848  28.110   1.747
90627W        W61227  28.174  34.571  13.395
90628W        W61228  41.338  44.395  13.828
90629W        W61229  32.436  27.614   2.807
90630W        W61230  20.762   3.780  10.607
90631W        W61231  12.455  18.510   4.245
90632W        W61232  14.264  13.752  12.023
90633W        W61233  31.411  43.485  10.714
90634W        W61234  23.782   2.369  14.848
90635W        W61235  40.984  40.449   2.262
90636W        W61236  10.942   6.739  12.997
90637W        W61237  14.134  41.246  10.177
90638W        W61238  40.558  22.175   4.158
90639W        W61239   4.851   9.006   5.041
90640W        W61240  14.739  41.121  10.983
90641W        W61241  34.646   2.374  11.228
90642W        W61242  23.128   9.453   0.882
90643W        W61243  23.009  30.753   2.402
90644W        W61244   7.718  11.205  10.354
90645W        W61245  43.301  42.022  11.630
90646W        W61246  28.936   0.308   0.241
90647W        W61247  41.625  25.332   4.205
90648W        W61248  43.499   7.438   4.614
90649W        W61249   4.799  38.149   2.176
90650W        W61250  39.406  41.774  13.956
90651W        W61251  35.762  27.649   1.372
90652W        W61252  34.801  27.819  14.381
90653W        W61253  20.404  34.412  14.868
90654W        W61254   8.728   4.134   3.904
90655W        W61255  34.144  25.157   4.164
90656W        W61256  16.007  44.940   0.017
90657W        W61257  10.196  26.593   4.250
90658W        W61258  24.298   3.341   1.531
90659W        W61259  27.888  14.086   2.775
90660W        W61260  28.687  38.867  13.929
90661W        W61261  27.666  41.436   1.136
90662W        W61262  27.877   6.257   3.210
90663W        W61263   2.465  13.435  10.629
90664W        W61264  11.676  13.506   4.090
90665W        W61265  23.667  41.464   0.115
90666W        W61266   6.147  44.571   0.836
90667W        W61267  32.600  13.594  12.910
90668W        W61268  40.312   5.027  13.592
90669W        W61269  42.395   5.821  11.636
90670W        W61270  42.663   1.020   3.845
90671W        W61271   6.617  36.994   2.313
90672W        W61272  40.532  13.642   1.764
90673W        W61273  41.918  35.358   0.274
90674W        W61274   9.641  17.283  13.939
90675W        W61275  36.839  21.626  14.047
90676W        W61276  20.358   5.826  12.291
90677W        W61277  13.790   5.792  14.724
90678W        W61278  24.161  20.092   2.992
90679W        W61279  17.391   9.358   1.746
90680W        W61280  23.156   6.202  12.593
90681W        W61281  33.529  11.287  13.330
90682W        W61282  42.824  11.278   1.330
90683W        W61283  36.413  14.557   3.584
90684W        W61284   5.423  12.673  11.350
90685W        W61285   3.750  39.880   1.465
90686W        W61286  18.142  38.237  13.851
90687W        W61287  37.700  34.394   0.364
90688W        W61288   4.368  13.134  11.206
90689W        W61289  31.978  14.283  11.936
90690W        W61290  21.465  27.717   0.940
90691W        W61291  21.069  35.292   3.170
90692W        W61292  32.185  36.525  13.492
90693W        W61293   6.741   5.034  14.511
90694W        W61294  23.696  30.531  14.444
90695W        W61295  27.090  15.422   1.647
90696W        W61296  38.974  41.966  13.753
90697W        W61297  41.379  14.772   1.682
90698W        W61298  25.224  27.648   4.555
90699W        W61299  35.653   9.762   3.696
90700W        W61300  39.566   5.698   1.268
90701W        W61301  13.875  30.713  11.569
90702W        W61302  21.207  43.027  13.885
90703W        W61303   8.902  30.879   0.645
90704W        W61304  22.279   5.942  11.971
90705W        W61305  33.073  42.488  11.230
90706W        W61306  40.910   7.264  14.895
90707W        W61307  39.952  21.039  12.534
90708W        W61308  36.858  17.947   1.316
90709W        W61309   1.701  16.138   2.150
90710W        W61310  25.776  18.056   2.354
90711W        W61311  16.164  34.292  14.403
90712W        W61312  44.744   6.430  11.450
90713W        W61313  34.358   1.813  14.360
90714W        W61314   8.359  10.581   2.848
90715W        W61315   4.762  21.577   4.448
90716W        W61316  37.017  24.572   3.118
90717W        W61317  15.123  25.105   1.481
90718W        W61318  14.079  26.627  14.490
90719W        W61319  44.476   9.308  12.385
90720W        W61320   5.243  35.184   4.110
90721W        W61321   4.031  40.358  14.792
90722W        W61322  18.218   0.877   1.265
90723W        W61323  17.578   6.442   1.070
90724W        W61324  20.549  23.300  13.801
90725W        W61325  18.294  25.556  14.350
90726W        W61326  34.498  38.019   2.385
90727W        W61327   6.243  38.533  10.791
90728W        W61328  18.783  35.125  12.030
90729W        W61329  38.314  17.232   1.778
90730W        W61330  37.629  33.057   2.224
90731W        W61331   7.558   2.761   1.834
90732W        W61332  23.815  15.170   4.856
90733W        W61333  17.066  43.115   3.808
90734W        W61334  36.945  26.643   0.926
90735W        W61335  23.878  30.841   4.327
90736W        W61336   9.214  36.266   1.702
90737W        W61337  15.301  35.792   3.218
90738W        W61338  14.623  26.181  14.905
90739W        W61339   2.267  28.205   4.521
90740W        W61340   1.335   2.717  11.948
90741W        W61341   2.808   2.875   2.378
90742W        W61342  16.828  44.650   0.466
90743W        W61343  14.193   5.957  14.382
90744W        W61344  20.977  43.302  11.545
90745W        W61345  28.617  28.160   0.853
90746W        W61346  38.421  21.339   3.570
90747W        W61347  35.968  17.348   3.661
90748W        W61348  22.983   8.596  11.856
90749W        W61349  28.945  22.665  12.647
90750W        W61350  22.621  13.316  14.309
90751W        W61351  25.483  29.118  14.871
90752W        W61352  27.232  19.477   0.483
90753W        W61353   0.696  28.846  11.231
90754W        W61354  43.034   8.421   2.319
90755W        W61355   3.375   5.977  12.284
90756W        W61356  23.943   6.965  11.816
90757W        W61357  42.934  27.454  12.369
90758W        W61358  41.016  13.075  11.529
90759W        W61359  35.227  19.073  10.582
90760W        W61360  12.850  30.104  13.849
90761W        W61361  29.815   1.108  11.075
90762W        W61362   1.929  26.881  12.436
90763W        W61363  44.221  12.270   2.109
90764W        W61364  39.071  33.404   2.829
90765W        W61365  27.315   5.862  14.888
90766W        W61366   3.582   4.414  13.637
90767W        W61367   3.610  23.949   0.251
90768W        W61368   5.582  25.499  12.495
90769W        W61369   1.466   8.332   1.358
90770W        W61370  37.509   0.260   3.650
90771W        W61371  20.268  44.301   3.715
90772W        W61372  41.728  24.710  11.595
90773W        W61373   6.192   4.898  11.841
90774W        W61374  10.455  15.900  12.983
90775W        W61375  23.628  34.306  10.700
90776W        W61376  42.041   6.326   5.543
90777W        W61377   1.073   6.819  14.790
90778W        W61378  43.796  36.545  13.878
90779W        W61379   2.605  44.411  12.093
90780W        W61380   8.264  33.631   3.685
90781W        W61381  17.245  39.020  11.718
90782W        W61382  23.974  34.095   2.385
90783W        W61383  13.300  36.827  14.354
90784W        W61384  20.170  18.116  13.507
90785W        W61385   7.544  40.369   0.890
90786W        W61386  27.962   5.388  14.960
90787W        W61387  15.159  26.488  10.568
90788W        W61388  25.148   0.014   2.036
90789W        W61389   2.236  26.697   3.158
90790W        W61390   3.192  36.430   4.313
90791W        W61391  36.140  27.342  12.446
90792W        W61392  25.455  37.387   4.593
90793W        W61393  20.987  30.473  13.859
90794W        W61394  19.100  38.144   0.964
90795W        W61395  27.141  14.524  14.229
90796W        W61396  39.080   9.408  14.058
90797W        W61397  31.112  43.095  11.825
90798W        W61398   9.588  18.241   1.354
90799W        W61399  15.307   1.721  11.142
90800W        W61400   3.372  37.421  10.240
90801W        W61401   2.868  36.625  14.111
90802W        W61402  24.983  10.151  12.147
90803W        W61403  22.633  43.012   0.353
90804W        W61404   9.562  13.099   2.689
90805W        W61405   4.126  39.818  13.930
90806W        W61406   3.414  42.327   0.337
90807W        W61407  27.463  22.608  12.124
90808W        W61408   2.885  28.929   1.469
90809W        W61409  44.834   6.136   1.848
90810W        W61410  21.778  10.680  11.910
90811W        W61411  18.141  14.881   2.360
90812W        W61412  44.404   4.175  10.730
90813W        W61413  13.558  17.979   4.994
90814W        W61414   7.469  36.790  14.026
90815W        W61415   9.600  27.034  10.970
90816W        W61416  36.012   7.791   4.440
90817W        W61417  41.526  21.315  12.876
90818W        W61418  22.374  27.807  13.997
90819W        W61419  32.527  19.369  11.522
90820W        W61420   6.570  40.408  12.214
90821W        W61421  31.536  36.189  11.104
90822W        W61422  20.298   8.819  13.697
90823W        W61423   9.641  33.423   0.571
90824W        W61424   9.635  21.930  12.458
90825W        W61425   4.421  21.567  12.917
90826W        W61426  41.294  34.497   3.699
90827W        W61427  40.581  30.881   3.709
90828W        W61428  11.130   0.894   1.759
90829W        W61429  20.356  25.463   4.915
90830W        W61430  36.644   5.374   0.364
90831W        W61431  20.336  36.352  10.729
90832W        W61432  27.979  26.925  14.512
90833W        W61433  10.231  28.595   2.181
90834W        W61434  13.622   4.869   1.822
90835W        W61435  19.726  11.762  14.862
90836W        W61436  28.090  12.641  13.032
90837W        W61437  24.451  10.002   4.112
90838W        W61438  29.948  15.298   1.456
90839W        W61439   6.818  16.999  11.201
90840W        W61440   1.238  42.105  10.764
90841W        W61441  33.091  40.211  12.968
90842W        W61442   8.933  36.793  14.312
90843W        W61443  36.108  27.381  11.632
90844W        W61444   8.110  13.686  11.599
90845W        W61445  44.199   0.324  11.073
90846W        W61446  23.528  31.447  14.571
90847W        W61447  15.061   2.854  12.149
90848W        W61448  19.025   6.272   0.937
90849W        W61449  26.579  17.159   3.703
90850W        W61450  41.775   3.535  12.294
90851W        W61451  21.217  44.565   0.859
90852W        W61452  26.254  40.904   3.687
90853W        W61453  28.160  25.653  13.978
90854W        W61454  13.681   3.210   2.388
90855W        W61455   3.477  19.044  14.757
90856W        W61456  32.367  12.313   2.970
90857W        W61457  42.256  30.272  14.492
90858W        W61458  15.288  16.768  10.170
90859W        W61459   5.721   7.218  11.682
90860W        W61460  34.748  21.171  10.595
90861W        W61461  13.613  30.091  14.286
90862W        W61462  27.781  35.462   4.128
90863W        W61463  26.990  12.308  14.890
90864W        W61464   5.806  25.450   0.486
90865W        W61465  23.500  36.306   0.454
90866W        W61466  18.727  26.939  13.516
90867W        W61467   5.483  17.728  12.599
90868W        W61468  25.181   6.277   4.521
90869W        W61469  26.647  42.886   1.324
90870W        W61470   3.810  29.665  10.701
90871W        W61471  19.725  28.922   2.725
90872W        W61472   3.897  25.710   1.914
90873W        W61473   0.393  16.029   3.628
90874W        W61474  21.688  24.225   1.887
90875W        W61475  42.829  42.579  12.137
90876W        W61476  43.980  12.028   3.568
90877W        W61477  15.043   1.690   2.698
90878W        W61478   0.250  14.184   2.591
90879W        W61479  19.968   7.710  12.840
90880W        W61480   5.683  36.818  12.866
90881W        W61481  26.705  11.582  12.081
90882W        W61482  32.025  33.445   2.482
90883W        W61483  37.358  44.244  14.507
90884W        W61484  31.629  30.390  12.372
90885W        W61485  39.033  13.153   4.841
90886W        W61486  21.382  14.759   1.383
90887W        W61487  20.120  24.106  14.074
90888W        W61488  28.751  17.594   4.190
90889W        W61489   9.839  38.844   4.327
90890W        W61490  11.335  16.581   4.431
90891W        W61491  28.520   8.586  11.944
90892W        W61492  20.623  44.995  12.975
90893W        W61493   9.413  19.550   2.676
90894W        W61494  19.183  38.714  11.792
90895W        W61495  40.909  30.206  12.939
90896W        W61496  23.893   1.936  12.716
90897W        W61497  28.124  10.509  11.948
90898W        W61498   7.622  23.433  12.824
90899W        W61499  30.481  23.227  12.389
90900W        W61500  42.758   4.885  11.751
90901W        W61501  11.747  21.134  11.621
90902W        W61502  42.293  22.888  15.000
90903W        W61503  40.777  39.395  12.493
90904W        W61504   3.064  35.268  13.843
90905W        W61505  39.974  39.701   4.608
90906W        W61506  10.343  38.397  14.898
90907W        W61507  42.029  31.368  14.483
90908W        W61508   2.233   9.682   0.332
90909W        W61509  28.594   0.475   3.847
90910W        W61510  39.646  43.784   3.804
90911W        W61511   1.483   3.753  14.870
90912W        W61512  42.423  35.953   1.667
90913W        W61513   1.318  10.754  10.846
90914W        W61514  38.857  24.514   1.410
90915W        W61515  37.387  22.066   2.572
90916W        W61516  38.403  43.840   4.142
90917W        W61517  27.015  39.097   1.436
90918W        W61518  33.472  13.399  12.444
90919W        W61519   8.774   4.463  14.791
90920W        W61520  25.731  43.810  12.044
90921W        W61521  28.460  17.506   2.159
90922W        W61522  42.770  14.196   3.712
90923W        W61523  43.237  33.444   2.881
90924W        W61524  17.817   6.833   3.196
90925W        W61525   5.308  26.495   2.415
90926W        W61526  35.993  12.363   0.411
90927W        W61527  18.717   9.641  14.980
90928W        W61528  42.414  37.149   0.465
90929W        W61529  16.114  40.045  14.893
90930W        W61530  38.434  18.454  11.067
90931W        W61531  38.116  21.134   0.021
90932W        W61532   9.459  11.165   0.417
90933W        W61533   6.877  17.624  11.063
90934W        W61534  18.662  31.889  13.010
90935W        W61535  14.887  16.153   0.842
90936W        W61536  32.000   3.941   1.850
90937W        W61537   5.150  12.127   4.603
90938W        W61538  13.076  37.995  11.718
90939W        W61539  17.806  29.301   3.679
90940W        W61540  37.771   4.256   2.341
90941W        W61541  18.988  18.601   3.702
90942W        W61542   1.219   4.027  12.904
90943W        W61543  38.471  14.535  12.475
90944W        W61544   2.515  12.827  13.011
90945W        W61545  37.082   8.721   4.040
90946W        W61546   7.246  33.093  13.506
90947W        W61547  31.421  31.673   3.639
90948W        W61548   7.002  36.985  14.053
90949W        W61549  29.137  10.202   4.721
90950W        W61550  21.413  12.949  13.567
90951W        W61551  14.233   0.212   3.312
90952W        W61552  31.161  35.597  10.718
90953W        W61553  31.880  31.506  11.019
90954W        W61554  28.134  19.808   0.088
90955W        W61555   7.893  21.234  14.032
90956W        W61556  23.266   9.849  14.575
90957W        W61557   8.903   0.292  13.765
90958W        W61558  41.028  41.230  14.246
90959W        W61559   4.997   5.871  12.951
90960W        W61560   4.119  28.040  14.261
90961W        W61561  18.145   6.279  12.539
90962W        W61562  14.761   3.795   2.318
90963W        W61563   9.764   2.303  13.976
90964W        W61564   4.315   5.876   0.892
90965W        W61565   8.232   6.742   1.489
90966W        W61566  22.011  26.916   0.472
90967W        W61567   9.132  17.106   2.664
90968W        W61568  29.857  25.439   1.721
90969W        W61569  16.754  34.874   4.042
90970W        W61570  23.331  42.887  13.711
90971W        W61571  37.619  19.697  11.553
90972W        W61572  28.250   4.456   4.282
90973W        W61573  38.496   7.291  12.506
90974W        W61574  25.392  30.014   2.764
90975W        W61575   9.879  21.499   3.817
90976W        W61576  41.484  18.299  12.624
90977W        W61577  30.979  14.660   0.501
90978W        W61578  36.028  23.135   3.886
90979W        W61579  38.127  31.804   1.897
90980W        W61580  39.749  32.406  10.627
90981W        W61581  21.099  16.861   2.236
90982W        W61582  16.340  17.138  11.739
90983W        W61583  36.586  22.988  14.638
90984W        W61584  17.593  22.518   2.763
90985W        W61585   0.942  21.177   1.963
90986W        W61586  27.430  24.351   2.888
90987W        W61587  29.051  22.238   3.561
90988W        W61588  16.078  43.601   5.114
90989W        W61589   9.250  28.653   0.235
90990W        W61590  42.358  19.983  12.596
90991W        W61591  41.253  15.207   1.368
90992W        W61592  19.172  31.505  13.980
90993W        W61593  35.942  20.544   0.349
90994W        W61594  39.684  14.369   1.439
90995W        W61595  38.001  32.570   4.556
90996W        W61596  14.313  28.939  12.424
90997W        W61597  41.493  33.308   4.045
90998W        W61598  10.876  19.796   4.468
90999W        W61599   1.859  36.385   4.182
91000W        W61600  43.521  23.295   1.749
91001W        W61601  32.228  18.862  12.363
91002W        W61602   9.975  22.757  12.750
91003W        W61603  26.572  15.310   0.897
91004W        W61604   1.839  11.729   0.760
91005W        W61605   9.050  20.642   0.085
91006W        W61606  29.708  30.090   2.299
91007W        W61607  34.535   9.106   1.434
91008W        W61608  28.080  15.031   4.146
91009W        W61609  25.526  40.306   1.508
91010W        W61610  12.061   4.401  12.002
91011W        W61611  35.054   4.907   1.819
91012W        W61612  27.736  19.313  11.558
91013W        W61613   4.943   8.869   3.132
91014W        W61614  40.047  13.342  11.050
91015W        W61615  19.717   1.805  12.773
91016W        W61616   1.252  33.411  14.830
91017W        W61617  22.288  25.561   2.244
91018W        W61618  10.051  41.762  10.987
91019W        W61619   2.667  23.580   4.553
91020W        W61620  34.582  25.184   0.829
91021W        W61621  12.146   7.617  11.468
91022W        W61622  35.560  27.593  10.795
91023W        W61623  43.900  12.114  13.998
91024W        W61624  29.472  14.787   0.760
91025W        W61625   7.912  44.096   1.329
91026W        W61626  37.543  24.625  13.911
91027W        W61627   4.086  41.925  11.696
91028W        W61628  33.216   7.315   1.042
91029W        W61629   0.289   8.145  14.422
91030W        W61630  35.279   5.240   3.556
91031W        W61631  30.970  41.359   0.342
91032W        W61632  12.435  10.420   4.035
91033W        W61633  10.723  27.012   3.747
91034W        W61634  21.678   9.899   4.521
91035W        W61635  25.471  29.588   5.056
91036W        W61636  15.257  20.153  12.500
91037W        W61637  39.641  12.736  10.658
91038W        W61638  44.524  37.664  13.561
91039W        W61639  15.242   5.147  12.062
91040W        W61640  44.830   8.897   1.663
91041W        W61641  18.107  30.157   3.762
91042W        W61642  44.172  25.157  11.461
91043W        W61643   0.340  11.194   2.176
91044W        W61644  19.093  28.014  12.905
91045W        W61645  44.335   0.259  12.563
91046W        W61646  10.574  40.518   2.935
91047W        W61647  29.108  20.652   0.745
91048W        W61648  12.379  44.119  10.629
91049W        W61649   8.104  14.771  11.226
91050W        W61650  25.226   5.990  11.051
91051W        W61651  11.275   1.396  11.158
91052W        W61652  27.207   4.755   2.772
91053W        W61653   6.305  37.525   1.507
91054W        W61654  31.155  21.585   3.422
91055W        W61655  21.953   1.257   0.219
91056W        W61656  41.410  17.126  13.475
91057W        W61657  11.251  39.895   1.714
91058W        W61658  42.367  28.539  14.949
91059W        W61659  23.702  19.841  14.371
91060W        W61660  35.367  14.605  10.757
91061W        W61661  41.230  34.889  12.495
91062W        W61662  33.484   3.002  12.911
91063W        W61663  39.429  28.906  11.578
91064W        W61664   4.747  44.500   1.968
91065W        W61665  42.017  44.900  10.675
91066W        W61666  37.104  32.133  11.273
91067W        W61667  39.144  21.118  14.262
91068W        W61668   1.177  32.159   1.580
91069W        W61669  35.431  26.931   1.659
91070W        W61670  16.022  26.425   2.240
91071W        W61671  32.624  33.638  11.607
91072W        W61672  30.550  41.432   3.027
91073W        W61673  28.054  26.404  10.274
91074W        W61674  28.582  27.150   1.784
91075W        W61675  42.867  25.435  10.606
91076W        W61676  30.120  19.705  14.180
91077W        W61677  43.394  11.238   4.585
91078W        W61678  39.429  28.216  11.977
91079W        W61679  11.626  39.821  14.362
91080W        W61680  14.243  44.473  10.651
91081W        W61681  28.400   6.798  14.434
91082W        W61682  41.274  25.131  12.062
91083W        W61683  32.371  25.191   3.804
91084W        W61684  42.846  30.221   1.517
91085W        W61685  26.114  19.298   2.379
91086W        W61686   5.429  20.263   1.703
91087W        W61687  33.675  33.595   4.656
91088W        W61688   2.212  15.058   1.835
91089W        W61689   0.956  19.139  13.049
91090W        W61690  27.012  36.390   2.406
91091W        W61691  16.217   5.736  12.397
91092W        W61692  15.079  25.360   2.754
91093W        W61693  32.538   7.342   3.273
91094W        W61694  31.340  20.527  11.265
91095W        W61695  39.459  36.490   3.091
91096W        W61696  33.440  29.665  12.098
91097W        W61697  19.790  37.110   0.459
91098W        W61698   4.472  24.397   1.982
91099W        W61699  39.474  21.783  12.442
91100W        W61700  18.516   3.797  14.873
91101W        W61701   0.404  36.376  11.494
91102W        W61702  38.028   0.417   2.374
91103W        W61703  44.255  27.904   2.616
91104W        W61704  42.052  13.773   3.214
91105W        W61705  16.816  37.581  11.487
91106W        W61706  22.044  35.129  12.777
91107W        W61707  21.287   6.387   3.019
91108W        W61708  39.513   9.651  14.689
91109W        W61709  25.190   7.874   3.992
91110W        W61710  42.218   6.436   3.290
91111W        W61711  14.808   6.466  14.833
91112W        W61712  32.937  38.760   3.061
91113W        W61713  26.749  19.682   0.436
91114W        W61714  37.438  19.586   1.995
91115W        W61715  19.585  36.123  12.501
91116W        W61716   1.703  28.152   1.273
91117W        W61717  27.358  34.178   1.904
91118W        W61718  24.348  41.837   2.707
91119W        W61719  42.607  16.541  12.509
91120W        W61720  17.238  25.117  13.015
91121W        W61721  36.112  38.024  11.381
91122W        W61722  40.571  34.999   2.311
91123W        W61723  19.693  42.343   0.721
91124W        W61724  22.631   1.965  10.348
91125W        W61725  34.996  41.446  12.426
91126W        W61726  32.157   1.038   3.657
91127W        W61727   8.641  23.823  11.522
91128W        W61728  19.558  10.115  12.069
91129W        W61729  34.420   4.243   4.824
91130W        W61730  31.926  10.726  13.946
91131W        W61731   8.950  37.992   2.884
91132W        W61732  27.704  44.970  12.809
91133W        W61733  35.927   7.791  10.758
91134W        W61734  32.855   8.227   2.163
91135W        W61735  22.128  35.584   3.573
91136W        W61736  34.537  43.296   4.927
91137W        W61737  44.752  39.446   1.323
91138W        W61738  39.588  30.833   3.022
91139W        W61739  26.818  24.068  14.282
91140W        W61740  12.800  18.828  13.419
91141W        W61741  29.523   0.524  13.894
91142W        W61742   4.871   0.851   1.706
91143W        W61743  24.606   0.320   2.321
91144W        W61744  23.206  20.041   0.491
91145W        W61745   1.442  26.985   2.664
91146W        W61746   1.229   6.789   1.838
91147W        W61747  12.190  36.144  13.827
91148W        W61748  41.483   9.375  14.459
91149W        W61749  28.353  24.278  10.989
91150W        W61750  18.213  44.545   0.875
91151W        W61751  14.342  40.653   3.673
91152W        W61752  31.697   7.045  13.308
91153W        W61753  17.901  19.094  13.947
91154W        W61754  42.461  36.663   1.385
91155W        W61755  28.699   3.784   1.830
91156W        W61756  37.409   4.725  10.629
91157W        W61757   6.780  32.350  14.402
91158W        W61758  21.829  22.441   0.464
91159W        W61759  14.679  15.394   4.898
91160W        W61760  32.137   1.318  10.667
91161W        W61761   8.089  30.417   2.699
91162W        W61762  30.192  41.806   2.904
91163W        W61763  42.977  18.350   1.369
91164W        W61764  26.455  10.257   0.808
91165W        W61765  26.330  30.491  10.324
91166W        W61766  17.288  10.849  14.144
91167W        W61767  13.162  13.115  14.506
91168W        W61768  23.730  10.780   1.500
91169W        W61769   0.538  37.231   1.447
91170W        W61770  37.381  25.013  10.179
91171W        W61771  39.037   6.642   0.897
91172W        W61772  12.494   0.886  14.331
91173W        W61773   2.118  42.753  11.488
91174W        W61774  16.615  18.505  14.825
91175W        W61775   1.764  35.012   4.477
91176W        W61776  32.145  21.267  11.117
91177W        W61777  11.126  18.218  11.953
91178W        W61778  36.904  26.734  11.575
91179W        W61779   3.937  35.046  11.506
91180W        W61780  16.025  17.736  13.898
91181W        W61781  12.603  10.847   2.195
91182W        W61782  16.356  12.325  11.554
91183W        W61783  35.162  33.158  11.627
91184W        W61784   2.499  39.364   2.580
91185W        W61785   5.836   8.630  14.413
91186W        W61786  25.002  43.608   0.251
91187W        W61787  25.028  24.988  13.012
91188W        W61788  15.520   4.194   0.690
91189W        W61789  12.098  24.552   1.962
91190W        W61790  35.433  34.841   2.306
91191W        W61791  35.925  38.518  12.619
91192W        W61792  32.989   2.370   0.482
91193W        W61793  43.493  40.884   4.212
91194W        W61794  37.007  42.265  12.217
91195W        W61795  32.183  39.960  13.880
91196W        W61796  26.631  38.724   0.681
91197W        W61797  25.395  40.941  13.446
91198W        W61798  26.121  19.534   3.696
91199W        W61799   4.014  15.709   2.194
91200W        W61800   2.630  20.927   1.228
91201W        W61801   4.729  17.895   1.069
91202W        W61802  30.128  26.937   1.888
91203W        W61803   4.358   6.770   1.434
91204W        W61804   1.659  43.480   2.896
91205W        W61805  17.854  23.875  12.127
91206W        W61806  43.072  30.640   2.842
91207W        W61807  26.879  27.432  12.159
91208W        W61808  22.058  36.584  14.015
91209W        W61809   2.892  11.277   2.344
91210W        W61810  25.709  40.014  10.744
91211W        W61811  12.183  10.530  11.168
91212W        W61812   7.444  26.657  13.910
91213W        W61813  25.727  38.581   2.767
91214W        W61814   1.439  38.380   0.341
91215W        W61815  44.788  34.878  11.551
91216W        W61816  14.098   7.123   2.739
91217W        W61817  39.863  19.998   3.331
91218W        W61818  27.209  12.884  12.021
91219W        W61819  44.659  33.953  11.978
91220W        W61820  26.659   9.629  13.328
91221W        W61821  16.782   8.888  12.975
91222W        W61822  34.451   0.008   3.973
91223W        W61823  31.163  19.894   0.455
91224W        W61824  13.812  28.853  12.182
91225W        W61825   9.195  10.314  14.397
91226W        W61826   7.989   9.821  11.918
91227W        W61827  23.646  24.650  11.968
91228W        W61828  35.637  14.760   2.604
91229W        W61829   0.461  10.844  12.025
91230W        W61830  37.809  37.269   2.388
91231W        W61831  38.024  33.301  13.939
91232W        W61832  21.727  43.136  14.974
91233W        W61833  29.462  31.704  11.276
91234W        W61834  42.507  33.057  14.896
91235W        W61835   1.509  42.713   2.373
91236W        W61836  42.881   9.898   2.917
91237W        W61837  38.958  11.318   4.599
91238W        W61838   2.174   0.592  13.805
91239W        W61839   0.279  37.893  11.538
91240W        W61840   0.731   0.246  11.383
91241W        W61841  32.615  13.624   3.275
91242W        W61842  25.547  16.382   4.080
91243W        W61843  32.480   2.368   1.614
91244W        W61844  41.895  10.060  12.975
91245W        W61845  33.624  21.663  11.399
91246W        W61846  39.240  11.359   5.025
91247W        W61847  42.809  24.720   4.808
91248W        W61848  43.418   3.523   2.590
91249W        W61849   8.644  17.311   2.738
91250W        W61850  16.194  26.447   0.954
91251W        W61851  43.017  41.866   2.362
91252W        W61852  33.000  19.673  10.895
91253W        W61853  18.576  40.388   2.599
91254W        W61854  33.461  32.971   1.543
91255W        W61855  30.495  41.537   4.603
91256W        W61856  31.755   6.353   4.250
91257W        W61857  16.060   6.780  14.869
91258W        W61858  42.816  20.341   1.411
91259W        W61859  44.652   1.431  12.430
91260W        W61860  26.064  42.282  11.636
91261W        W61861  42.811  38.499  14.627
91262W        W61862  30.113   6.953   0.538
91263W        W61863  20.505  43.461   2.439
91264W        W61864  39.299  20.112  11.917
91265W        W61865  37.993  34.530   3.188
91266W        W61866  34.974  35.160   4.286
91267W        W61867  16.082  25.164   1.422
91268W        W61868   3.202  41.833   0.524
91269W        W61869  11.063  14.025   3.838
91270W        W61870  29.512  36.604  14.911
91271W        W61871  34.149  16.789   2.402
91272W        W61872  26.693  12.973  11.921
91273W        W61873  23.784  28.060   1.195
91274W        W61874   9.316  24.695   3.114
91275W        W61875  21.682  39.606   3.178
91276W        W61876  30.427  27.705   2.841
91277W        W61877   8.189  28.073   3.154
91278W        W61878  33.437  25.608  11.417
91279W        W61879  19.748  41.042  12.646
91280W        W61880  18.005   3.270  11.614
91281W        W61881  31.085  43.533   3.179
91282W        W61882  38.475  20.723   2.832
91283W        W61883  36.646  15.492  10.209
91284W        W61884  27.552  24.704   4.397
91285W        W61885  10.738   5.709  12.084
91286W        W61886  25.134  26.589   5.167
91287W        W61887  29.564   2.525  14.933
91288W        W61888  39.525  20.195  11.460
91289W        W61889  24.742   8.762  10.364
91290W        W61890  24.708   6.298  12.832
91291W        W61891   0.425   3.428   1.939
91292W        W61892   3.614  10.370   0.405
91293W        W61893   2.325  26.949   9.925
91294W        W61894  24.681  25.026  14.223
91295W        W61895   5.059  15.153  13.558
91296W        W61896   4.967  27.846   3.376
91297W        W61897  21.119  41.393  12.244
91298W        W61898  19.227  17.649   2.220
91299W        W61899  21.782  28.557  12.734
91300W        W61900  34.958  14.266   4.567
91301W        W61901   8.347  39.050   4.749
91302W        W61902  28.161  24.689  12.609
91303W        W61903  23.899  22.991   0.927
91304W        W61904  20.708  23.479  10.181
91305W        W61905  10.720  44.454   2.588
91306W        W61906  27.394  24.471  12.094
91307W        W61907  37.509  10.373  10.756
91308W        W61908  30.607   6.892   0.735
91309W        W61909  10.815  25.661  12.451
91310W        W61910   0.524  14.297   4.510
91311W        W61911  17.306  10.665   0.197
91312W        W61912  44.302  30.924   2.763
91313W        W61913  33.032   9.809   1.019
91314W        W61914   9.892  16.812  11.561
91315W        W61915  24.076  12.703  11.708
91316W        W61916  43.352   8.726   1.058
91317W        W61917  22.301  15.780   1.835
91318W        W61918  37.078  44.030   3.694
91319W        W61919  16.736  43.359   1.011
91320W        W61920  29.307  20.781  13.885
91321W        W61921  24.598  35.407  12.381
91322W        W61922  20.913  22.902   3.764
91323W        W61923  37.053  27.690  14.959
91324W        W61924   2.824  24.899  11.220
91325W        W61925   0.057  15.110  14.236
91326W        W61926  13.764   4.334   3.574
91327W        W61927  42.943  40.048   2.697
91328W        W61928   6.414  15.111   2.466
91329W        W61929  35.393  30.379   3.401
91330W        W61930  22.810  26.722  10.404
91331W        W61931  11.878  12.240  12.521
91332W        W61932  31.951  39.473  13.774
91333W        W61933   2.981  37.919   0.760
91334W        W61934  40.362  40.528  13.305
91335W        W61935  16.933  33.940   2.802
91336W        W61936  38.052  32.507  14.940
91337W        W61937   1.720  44.849  12.369
91338W        W61938  36.453  43.519   0.770
91339W        W61939  11.411   2.238  10.755
91340W        W61940  37.362  32.226   2.345
91341W        W61941  33.074  28.376  11.893
91342W        W61942  41.584   5.482   4.989
91343W        W61943  17.056  14.107   3.285
91344W        W61944  11.146  38.360  12.951
91345W        W61945   2.879  19.155  14.218
91346W        W61946   2.243  20.314  10.752
91347W        W61947  15.198  23.004   2.796
91348W        W61948  39.187  14.671   0.883
91349W        W61949   9.601   9.335   1.578
91350W        W61950  35.349   5.138  14.928
91351W        W61951  21.286  41.909   2.713
91352W        W61952   2.674  43.281   2.848
91353W        W61953  39.127   5.263  12.554
91354W        W61954   0.467  11.350  11.972
91355W        W61955  10.978  21.475  12.030
91356W        W61956   6.600   9.007   1.294
91357W        W61957  25.219  28.061  11.887
91358W        W61958  36.897  17.168   4.505
91359W        W61959  41.490  34.815  14.562
91360W        W61960  18.116  36.117   4.624
91361W        W61961   1.231  26.225  13.808
91362W        W61962  14.200  23.734   1.437
91363W        W61963   4.722  16.155   3.985
91364W        W61964  16.170  20.294   4.099
91365W        W61965  31.510  12.781  11.928
91366W        W61966   3.984  40.869  14.790
91367W        W61967  10.197  12.745  10.609
91368W        W61968  32.540  32.627  13.942
91369W        W61969  28.368  16.292   4.376
91370W        W61970  18.055  32.576   1.794
91371W        W61971  23.168  31.583   1.395
91372W        W61972  16.098  13.809   2.673
91373W        W61973  21.791  36.452   0.767
91374W        W61974  11.592   1.135   2.301
91375W        W61975  39.828  21.552   0.941
91376W        W61976   2.909   5.517  11.618
91377W        W61977   0.759  39.815   0.813
91378W        W61978  31.111  18.612   0.767
91379W        W61979  22.760  27.751   2.727
91380W        W61980  17.805  32.327  10.513
91381W        W61981   1.880  31.361   0.990
91382W        W61982  39.613  29.441   3.287
91383W        W61983   2.594  32.459   2.187
91384W        W61984  30.113  24.789   0.194
91385W        W61985  18.527  36.493  14.879
91386W        W61986  38.416  23.989  11.174
91387W        W61987  35.421   2.216  13.096
91388W        W61988  13.560  44.847  13.449
91389W        W61989  21.893   8.214   2.289
91390W        W61990  21.290  38.947  13.470
91391W        W61991  11.582   0.504   0.208
91392W        W61992   2.244  35.990  10.701
91393W        W61993   4.958  12.199   0.372
91394W        W61994   9.916  13.189  11.628
91395W        W61995  39.326  19.776  14.846
91396W        W61996  23.168  11.160   4.259
91397W        W61997  29.415  27.083  11.085
91398W        W61998  22.038  30.459  13.012
91399W        W61999   2.828  23.768   4.102
91400W        W62000  23.021  23.180   2.614
91401W        W62001  25.042  10.452   1.181
91402W        W62002  23.786  23.241  13.800
91403W        W62003  44.491  42.311   3.179
91404W        W62004   7.271  38.001  13.976
91405W        W62005   2.494  27.689   1.381
91406W        W62006  39.094  15.325  11.629
91407W        W62007  41.419  21.533  13.453
91408W        W62008  18.671  28.851  13.468
91409W        W62009  18.127  18.363   2.877
91410W        W62010  43.784  13.079  10.748
91411W        W62011  10.798  23.568  12.573
91412W        W62012  43.357  14.436   1.130
91413W        W62013  33.840  18.104  11.133
91414W        W62014   0.943  30.064  13.541
91415W        W62015  17.738  25.020   2.802
91416W        W62016   0.471  26.086   1.107
91417W        W62017   5.364   1.286  12.075
91418W        W62018   8.312  19.669  14.263
91419W        W62019  31.652   4.813   3.858
91420W        W62020  32.430   7.149   1.805
91421W        W62021  34.320  18.263  11.097
91422W        W62022  34.884   0.342  14.746
91423W        W62023  36.045  30.848   3.765
91424W        W62024   8.658  22.414   3.852
91425W        W62025   7.824   8.886  10.715
91426W        W62026  15.495  40.707  11.943
91427W        W62027  29.724   2.282   0.769
91428W        W62028  20.180  38.673   2.710
91429W        W62029   4.677  30.431   1.855
91430W        W62030  28.699  29.182  14.859
91431W        W62031  13.616  11.603   3.625
91432W        W62032  33.336  15.773  10.608
91433W        W62033  28.709  38.537   3.660
91434W        W62034  35.130  17.117  13.499
91435W        W62035  13.733   4.737   1.303
91436W        W62036  18.639  11.506   1.905
91437W        W62037  27.229  43.346  11.661
91438W        W62038  12.890  37.683   4.675
91439W        W62039  39.831   2.564  13.411
91440W        W62040   2.674  41.085  13.064
91441W        W62041  24.564  25.161  12.803
91442W        W62042  23.573   7.825   2.457
91443W        W62043  33.659   1.222  12.510
91444W        W62044  29.991   7.676  13.917
91445W        W62045   5.227   6.402   3.826
91446W        W62046  27.718  37.331  11.777
91447W        W62047   8.714  11.867   3.170
91448W        W62048  30.690  10.230   3.645
91449W        W62049  14.082  44.049   2.864
91450W        W62050  37.541  44.813   0.761
91451W        W62051  22.118   0.942   1.060
91452W        W62052  30.101  23.591  12.472
91453W        W62053  17.225  27.355   0.782
91454W        W62054   4.941  39.459  14.891
91455W        W62055  21.148  38.306  12.916
91456W        W62056  35.380   6.780   1.573
91457W        W62057  38.076  17.465  12.005
91458W        W62058  31.216  17.731   2.927
91459W        W62059  24.626  27.194  12.885
91460W        W62060  25.939   8.439   2.725
91461W        W62061  17.170   9.824   1.654
91462W        W62062  38.961  18.526  10.283
91463W        W62063  38.364  38.900   4.132
91464W        W62064  42.289   1.801   0.828
91465W        W62065  43.029  37.956  10.435
91466W        W62066  39.940  34.919  11.881
91467W        W62067  44.295  38.707  11.386
91468W        W62068   4.171   3.369  12.595
91469W        W62069  37.192  10.178  14.308
91470W        W62070  35.071  14.717   2.725
91471W        W62071   1.842  13.100   1.361
91472W        W62072   3.696   0.343   1.380
91473W        W62073  32.074  15.181  10.721
91474W        W62074  40.962  17.872  13.530
91475W        W62075  34.071   7.618  11.655
91476W        W62076   6.207  40.061   4.497
91477W        W62077   1.292  16.283  12.751
91478W        W62078   3.793  14.877  11.074
91479W        W62079  16.522  13.149   3.452
91480W        W62080   9.256  30.512  11.591
91481W        W62081  23.286   0.600   5.549
91482W        W62082   8.874   0.532  12.614
91483W        W62083   8.364  10.653   3.729
91484W        W62084  23.052  18.550  12.023
91485W        W62085  25.562  28.175   0.204
91486W        W62086   3.223  37.261  11.467
91487W        W62087  23.897  25.977  14.515
91488W        W62088  39.920  25.535   1.291
91489W        W62089  21.650  16.463  11.991
91490W        W62090   2.370  43.743   1.217
91491W        W62091  11.148  31.710   0.341
91492W        W62092  43.328   3.235  11.217
91493W        W62093  33.270  25.244   4.300
91494W        W62094   1.105  11.926   1.328
91495W        W62095   4.854  10.707  10.645
91496W        W62096  30.978   9.080  10.760
91497W        W62097  34.464  40.611   0.654
91498W        W62098  28.270  11.131   2.437
91499W        W62099  10.577   1.470   0.791
91500W        W62100  36.463  40.974   3.129
91501W        W62101   6.717  37.459   2.555
91502W        W62102  13.264  34.923  12.381
91503W        W62103   8.303  28.952  11.178
91504W        W62104  14.573  22.090  14.370
91505W        W62105  37.714  37.568  11.094
91506W        W62106  31.337  10.093   2.772
91507W        W62107  10.324  18.750   4.115
91508W        W62108   7.324  41.886   2.883
91509W        W62109  21.948   0.891   2.917
91510W        W62110  18.279  19.554  13.049
91511W        W62111  11.401  18.734  11.115
91512W        W62112  19.540   6.000  10.557
91513W        W62113   9.697  16.745   4.828
91514W        W62114  36.324  34.131  10.782
91515W        W62115   5.177   6.498  10.805
91516W        W62116  17.790  26.473   0.931
91517W        W62117  20.567  14.212  12.417
91518W        W62118  13.363  29.072   4.634
91519W        W62119  17.070  34.371   3.166
91520W        W62120  22.679  16.054  11.261
91521W        W62121  41.512  16.626   1.384
91522W        W62122  31.597   0.522   4.172
91523W        W62123  34.005  31.067  12.486
91524W        W62124  26.640   8.854   3.472
91525W        W62125  33.280  28.658  10.912
91526W        W62126  20.624   8.132   0.446
91527W        W62127  44.806   6.601  14.236
91528W        W62128  42.438  12.407   3.809
91529W        W62129  19.781  26.654  12.120
91530W        W62130  44.463  31.196  13.822
91531W        W62131  22.039  21.248   4.619
91532W        W62132  33.277  27.617   2.264
91533W        W62133  22.676   3.249  12.138
91534W        W62134  36.401  33.362  11.047
91535W        W62135  25.261  25.671   4.172
91536W        W62136  28.218  30.688   0.418
91537W        W62137  35.158   3.909  13.332
91538W        W62138  38.567  40.876  14.214
91539W        W62139  32.543  22.659   4.670
91540W        W62140   2.937  25.710   2.807
91541W        W62141  21.154  16.106  11.165
91542W        W62142   7.181  14.593   2.668
91543W        W62143  44.227  42.979  10.592
91544W        W62144  32.551  33.039   0.374
91545W        W62145  17.796  43.114   2.242
91546W        W62146  28.740   2.751   3.903
91547W        W62147   5.574   1.195  11.603
91548W        W62148   7.743  18.242  14.553
91549W        W62149  32.489   0.708   0.287
91550W        W62150  42.247  23.458  11.086
91551W        W62151  13.135  11.970   0.402
91552W        W62152  22.902  15.684  12.542
91553W        W62153  21.114   9.217  14.118
91554W        W62154  42.306  34.832   2.611
91555W        W62155  25.522  38.618   3.699
91556W        W62156  44.007  37.553   3.523
91557W        W62157  42.552  38.706  11.411
91558W        W62158  22.679  25.543  13.321
91559W        W62159  23.229  39.432   0.989
91560W        W62160   0.310  12.247   4.334
91561W        W62161   0.599  15.154  14.801
91562W        W62162  38.381  27.281   5.007
91563W        W62163  19.196  23.270  10.601
91564W        W62164  22.580  39.407   1.412
91565W        W62165  44.517  18.312  13.027
91566W        W62166  19.029  17.215  12.051
91567W        W62167   0.287  38.906   1.804
91568W        W62168  13.259  36.453  12.016
91569W        W62169  26.017  16.191  13.340
91570W        W62170  15.220  24.972  14.603
91571W        W62171   7.124  12.631   0.373
91572W        W62172  26.187  32.607  11.642
91573W        W62173  22.578   5.585   5.178
91574W        W62174  12.788  37.536  10.565
91575W        W62175  14.341   5.631  10.415
91576W        W62176  15.602  25.662  13.140
91577W        W62177  10.639  44.334  10.302
91578W        W62178  10.383   6.705  12.856
91579W        W62179  35.948  20.944   1.395
91580W        W62180  40.310  37.512  11.505
91581W        W62181   0.338  33.429  10.340
91582W        W62182   9.731  31.212  11.038
91583W        W62183  13.756  28.650  13.308
91584W        W62184  15.676  24.068  12.071
91585W        W62185   6.123  34.164   1.921
91586W        W62186  16.098  11.863   0.479
91587W        W62187   3.957  12.946  14.956
91588W        W62188  41.939  18.051  12.606
91589W        W62189  13.502  31.130   3.608
91590W        W62190  29.920  22.784  14.851
91591W        W62191  14.080  34.823   1.324
91592W        W62192  41.927  39.438   4.524
91593W        W62193  15.158   9.448  14.933
91594W        W62194   0.369   9.355   2.289
91595W        W62195  38.564  29.281   2.108
91596W        W62196  27.534  36.369   3.406
91597W        W62197  17.549  36.358   3.066
91598W        W62198  29.896  23.707   0.709
91599W        W62199  26.407  20.464  11.523
91600W        W62200  26.369  34.003   2.092
91601W        W62201  28.605  10.704   2.328
91602W        W62202  23.025  28.295   0.576
91603W        W62203   7.625   8.003   2.744
91604W        W62204  13.380  18.371  11.566
91605W        W62205  14.839  25.576   4.421
91606W        W62206  25.052  36.124  14.688
91607W        W62207   0.917   5.465  11.270
91608W        W62208  43.542  25.480   1.346
91609W        W62209  34.088  15.099  11.564
91610W        W62210  37.045  19.643  10.610
91611W        W62211  24.637  37.215  11.041
91612W        W62212   5.199   0.743  12.870
91613W        W62213  25.699  27.864   2.697
91614W        W62214  19.219  30.373   4.342
91615W        W62215  31.422  23.537  13.739
91616W        W62216  18.369  22.795   0.323
91617W        W62217  24.066  12.160  13.186
91618W        W62218  28.973  35.566  14.399
91619W        W62219  30.043  20.683   2.632
91620W        W62220  10.736   7.344   3.306
91621W        W62221  41.902  14.604   0.275
91622W        W62222  42.426  27.503  14.888
91623W        W62223  17.108  38.961  13.112
91624W        W62224  31.116  35.610   2.270
91625W        W62225  29.138  10.377   3.227
91626W        W62226  20.731  39.951   4.099
91627W        W62227  31.988  44.864   1.680
91628W        W62228   5.641  28.923   3.665
91629W        W62229   3.142   0.282  10.757
91630W        W62230   6.674   9.661  14.002
91631W        W62231  41.633  23.566  12.334
91632W        W62232   9.680   1.836   0.842
91633W        W62233   7.468  33.001  14.572
91634W        W62234  15.766  10.487  12.345
91635W        W62235  35.628   5.828  10.611
91636W        W62236  19.021  15.481  13.328
91637W        W62237   9.462  29.628  14.858
91638W        W62238  27.407  31.339  12.483
91639W        W62239  37.067   5.287  11.589
91640W        W62240   1.525   8.723   5.003
91641W        W62241  41.255  30.164  12.540
91642W        W62242  12.932  25.940   4.764
91643W        W62243  14.237  13.323  14.530
91644W        W62244  42.790  22.762   1.281
91645W        W62245  16.505  33.892   0.303
91646W        W62246  23.313  31.170   2.291
91647W        W62247  25.437  19.150   1.368
91648W        W62248  28.052  18.957  10.711
91649W        W62249  29.050   4.856  10.638
91650W        W62250   9.715   5.173   3.624
91651W        W62251   9.664  13.583  13.249
91652W        W62252  17.556   5.618  10.517
91653W        W62253  41.543  37.534  14.983
91654W        W62254  42.317  36.930   2.840
91655W        W62255  10.142  17.628  12.453
91656W        W62256  16.226  11.304  13.905
91657W        W62257  17.181  32.872  14.868
91658W        W62258  18.686  41.963   0.168
91659W        W62259  23.832  12.807   3.571
91660W        W62260  26.446  41.978  11.496
91661W        W62261  13.887  29.637  12.908
91662W        W62262  24.624   6.487  13.860
91663W        W62263  27.575  31.910  11.678
91664W        W62264   8.556  38.019   2.292
91665W        W62265   9.476  19.116  12.846
91666W        W62266  30.946   7.104  13.911
91667W        W62267  35.344   4.855  10.218
91668W        W62268  36.482  35.916  11.137
91669W        W62269   2.182  33.589   2.329
91670W        W62270  11.968  27.412  11.106
91671W        W62271   8.800  27.519   4.614
91672W        W62272  43.534  28.596  12.017
91673W        W62273  20.423  33.100   4.140
91674W        W62274  38.074  12.044  12.785
91675W        W62275  34.566   1.733  10.449
91676W        W62276  39.584  15.060   0.086
91677W        W62277  34.114   5.939   1.699
91678W        W62278  10.940  35.770   3.661
91679W        W62279  22.392   5.407  13.860
91680W        W62280   9.990  24.052   0.829
91681W        W62281   3.228   9.987  11.401
91682W        W62282  20.148   9.684  12.431
91683W        W62283  37.706  22.510   4.665
91684W        W62284  42.247  15.008   2.113
91685W        W62285   0.909  32.530   0.716
91686W        W62286   6.171  18.373   4.571
91687W        W62287  20.181  11.918  12.716
91688W        W62288   3.065  29.927  13.408
91689W        W62289   5.168  27.012   4.663
91690W        W62290  29.363  16.308  13.955
91691W        W62291  13.757   1.546  10.225
91692W        W62292  18.644  14.522  12.725
91693W        W62293  28.983  20.641   4.300
91694W        W62294  12.707  38.795   2.492
91695W        W62295  11.204  26.986  11.592
91696W        W62296  15.839  23.643  11.256
91697W        W62297  23.067  13.086   3.956
91698W        W62298  26.071   7.346  10.811
91699W        W62299  41.287  20.418   0.471
91700W        W62300   5.434  35.397   3.689
91701W        W62301   1.869  24.407   2.296
91702W        W62302  26.941  28.547   2.352
91703W        W62303  25.054  23.633   3.212
91704W        W62304  37.573  35.509   2.411
91705W        W62305  10.258  27.038  13.513
91706W        W62306  33.920   7.761  10.630
91707W        W62307  43.558   9.779  14.051
91708W        W62308   1.713  21.656   2.205
91709W        W62309  36.926   7.244   0.182
91710W        W62310  21.035  34.983  12.826
91711W        W62311   1.956  42.226  12.860
91712W        W62312   6.642  27.179   4.554
91713W        W62313   3.492   1.233  10.637
91714W        W62314   0.955  37.403   2.248
91715W        W62315  25.589  10.364   3.572
91716W        W62316  33.019  41.792  13.504
91717W        W62317  18.691  19.544   3.263
91718W        W62318  14.672  35.076   0.266
91719W        W62319   2.293  13.363   1.186
91720W        W62320  14.255   0.973   2.177
91721W        W62321  18.803  16.048   0.261
91722W        W62322  13.330  39.265  12.174
91723W        W62323  27.145   9.146   0.241
91724W        W62324  25.153  21.593  11.490
91725W        W62325  30.991  41.699   4.707
91726W        W62326  41.401  12.634  12.997
91727W        W62327  32.443  40.675   2.746
91728W        W62328  26.163  28.974   1.778
91729W        W62329   8.191   5.630  14.516
91730W        W62330  38.540  17.085  12.463
91731W        W62331  25.298  20.563   1.378
91732W        W62332   8.719  34.116  11.000
91733W        W62333  15.043  11.789   1.245
91734W        W62334  32.002  34.929   3.552
91735W        W62335  33.406  33.282   2.682
91736W        W62336   3.229  25.579  11.970
91737W        W62337  43.339  35.750  13.029
91738W        W62338  32.565  30.259  13.971
91739W        W62339  29.577   4.340  14.746
91740W        W62340  27.562   1.524  10.747
91741W        W62341  17.984  10.869   2.275
91742W        W62342  24.236  35.077   0.538
91743W        W62343  31.181  38.828   0.806
91744W        W62344   4.629  29.213   5.115
91745W        W62345  33.019  39.838  14.429
91746W        W62346  26.516   4.693  13.895
91747W        W62347  43.817  14.666  10.682
91748W        W62348  23.662   1.181  11.856
91749W        W62349  11.279  22.603   0.057
91750W        W62350  18.247  27.659  11.618
91751W        W62351  21.220  12.685   1.838
91752W        W62352  28.611  17.103  13.502
91753W        W62353  14.280  20.054   3.340
91754W        W62354  38.468   0.434   3.777
91755W        W62355  23.694  44.861  13.152
91756W        W62356  36.560  14.874   2.583
91757W        W62357   6.312  31.155   4.269
91758W        W62358  25.033  11.938  13.948
91759W        W62359  24.198   1.153   4.156
91760W        W62360   3.422  27.380  14.178
91761W        W62361   6.472  31.637  11.627
91762W        W62362   5.821   3.205  14.433
91763W        W62363  29.421  21.982  13.466
91764W        W62364  34.114  44.034  12.851
91765W        W62365  20.284  25.564  11.606
91766W        W62366  28.677  42.795   4.179
91767W        W62367  40.834   3.739   3.776
91768W        W62368  30.117  20.339   1.258
91769W        W62369   6.904  32.465  11.196
91770W        W62370   5.889  43.057   1.949
91771W        W62371   5.011   8.622  11.313
91772W        W62372  36.071  12.157  14.889
91773W        W62373  17.818  11.862  14.744
91774W        W62374  17.805  21.720   2.276
91775W        W62375  36.047  23.851   3.694
91776W        W62376  19.058   1.786  10.891
91777W        W62377  27.460   2.010  13.109
91778W        W62378  29.180  17.632  12.827
91779W        W62379  21.073  19.072  13.891
91780W        W62380  23.077   4.266  13.495
91781W        W62381   2.494  13.765  11.068
91782W        W62382  30.155  10.266   3.738
91783W        W62383  11.126  22.504   3.221
91784W        W62384  11.261  30.469  11.006
91785W        W62385  24.628  20.797   3.558
91786W        W62386  21.205   2.798   0.784
91787W        W62387   7.465  20.946  13.835
91788W        W62388  20.508  39.410  12.548
91789W        W62389  42.725   5.332   1.624
91790W        W62390  20.012   7.711  10.705
91791W        W62391  25.676  29.993  13.353
91792W        W62392  31.407   2.819  10.597
91793W        W62393  34.191  36.362   0.025
91794W        W62394  16.092  38.917   4.791
91795W        W62395  17.276  27.721  14.744
91796W        W62396  25.062  22.322   5.031
91797W        W62397   3.319  33.149   3.502
91798W        W62398  36.230  42.431   4.337
91799W        W62399  18.727  29.137   2.604
91800W        W62400  28.844  34.207  13.117
91801W        W62401  28.217   8.411   1.506
91802W        W62402  15.567  17.793   0.642
91803W        W62403   8.774  41.280  12.031
91804W        W62404   8.265  13.399  10.909
91805W        W62405  40.954  20.074  12.991
91806W        W62406  37.874  40.314   4.054
91807W        W62407   9.350  23.612   1.211
91808W        W62408  29.392   7.234   1.947
91809W        W62409  35.163  30.870  10.496
91810W        W62410  43.278  32.354  12.407
91811W        W62411  31.709  39.313  14.216
91812W        W62412  44.701  25.189  11.408
91813W        W62413  18.778  25.183   9.825
91814W        W62414   3.263  31.437   4.599
91815W        W62415  42.449  17.930  14.655
91816W        W62416  12.054  30.043   2.004
91817W        W62417  21.715  35.931  13.971
91818W        W62418  35.376  32.231  12.938
91819W        W62419  39.080  34.668   0.727
91820W        W62420  25.187  31.140  12.482
91821W        W62421  16.801  17.801  11.929
91822W        W62422   2.826   8.560  14.085
91823W        W62423   6.735  14.372  13.286
91824W        W62424  41.525  30.944   1.199
91825W        W62425  14.835  27.045   4.283
91826W        W62426  44.260  26.154   3.293
91827W        W62427  40.488  32.218  14.917
91828W        W62428  36.486  26.739  11.264
91829W        W62429  25.683  28.535   3.545
91830W        W62430  24.961  16.529  13.997
91831W        W62431  19.925   2.085   1.299
91832W        W62432  29.860  34.953  13.467
91833W        W62433  42.712  25.680  12.846
91834W        W62434  10.154  34.020   9.986
91835W        W62435  21.265   0.366   3.577
91836W        W62436  33.475  26.338   2.239
91837W        W62437  16.578  16.709  12.611
91838W        W62438  26.270   0.195   4.108
91839W        W62439  16.063  15.712  14.548
91840W        W62440  32.538   1.626  12.379
91841W        W62441  24.477   0.496   1.185
91842W        W62442   5.921  20.805  11.632
91843W        W62443  15.013  28.090  13.383
91844W        W62444  34.885  28.929  13.921
91845W        W62445   3.906  29.203  10.485
91846W        W62446  15.372  42.382  12.616
91847W        W62447  30.422  22.231   1.355
91848W        W62448  37.595   7.227  12.929
91849W        W62449  25.393  23.684   1.250
91850W        W62450  19.331  18.117   4.591
91851W        W62451  29.002  32.489  14.309
91852W        W62452  29.970   8.327   2.790
91853W        W62453  36.275  19.002  13.062
91854W        W62454  43.489  28.156   3.275
91855W        W62455  24.575   1.185  13.094
91856W        W62456  44.905  39.762  12.820
91857W        W62457  24.458  16.611  13.846
91858W        W62458  34.445  43.833  14.485
91859W        W62459  33.976  39.090  12.061
91860W        W62460  38.192  23.007   1.500
91861W        W62461   9.201  27.615   4.157
91862W        W62462  41.751  13.678  13.325
91863W        W62463  19.273  14.638   2.741
91864W        W62464  10.278  44.892   1.286
91865W        W62465  17.440   0.232   3.833
91866W        W62466  12.851   0.235   2.300
91867W        W62467   2.918  12.593   4.747
91868W        W62468  21.435  14.801   3.184
91869W        W62469  21.122  25.816  13.840
91870W        W62470  44.149   9.957   1.706
91871W        W62471  36.994  37.446  11.518
91872W        W62472  25.970  30.924   2.664
91873W        W62473  21.962  36.294  11.175
91874W        W62474  27.968  43.515   4.307
91875W        W62475  29.472   6.200  14.557
91876W        W62476  13.247   9.068   4.655
91877W        W62477  31.816  23.623   3.304
91878W        W62478  18.787   7.673  12.530
91879W        W62479   3.224   7.231   3.377
91880W        W62480  32.172  41.819   4.895
91881W        W62481   5.296   9.198   4.771
91882W        W62482  39.317   0.878  11.508
91883W        W62483   2.503  38.292   1.197
91884W        W62484   7.386   2.018  12.406
91885W        W62485   0.811  18.085  14.300
91886W        W62486  30.516   0.876  10.809
91887W        W62487  33.971  29.433  14.644
91888W        W62488  11.156  34.346  14.424
91889W        W62489  19.971  31.009  13.659
91890W        W62490  10.283  37.315   0.430
91891W        W62491  16.302   7.854   1.692
91892W        W62492  13.851  24.652   1.438
91893W        W62493  43.477   6.203  13.314
91894W        W62494   1.554  27.067   0.756
91895W        W62495  16.603  18.964   2.557
91896W        W62496  21.744  43.974   0.390
91897W        W62497   9.659   6.931   3.117
91898W        W62498  18.150  25.748  11.468
91899W        W62499  43.393   5.694   3.566
91900W        W62500  41.514  37.312   1.844
91901W        W62501  38.474  40.864   1.016
91902W        W62502  29.555  37.753   0.829
91903W        W62503  34.347   3.201   4.627
91904W        W62504  17.250   0.672   3.664
91905W        W62505   3.402   0.554  13.131
91906W        W62506  43.882  23.486  13.394
91907W        W62507  21.951  32.481  12.950
91908W        W62508  22.115   5.631   4.933
91909W        W62509   8.765  14.314  13.630
91910W        W62510  30.437   3.389   2.723
91911W        W62511  39.964  36.433   1.898
91912W        W62512  43.663   5.926   1.168
91913W        W62513  20.207  27.883  14.455
91914W        W62514  26.106   5.841   3.647
91915W        W62515  13.747   1.446   1.756
91916W        W62516  35.407  18.517  12.054
91917W        W62517  18.292  34.201  12.138
91918W        W62518   5.987  34.422  10.113
91919W        W62519  35.942   6.623  13.340
91920W        W62520  20.315  33.652  14.441
91921W        W62521  30.927  19.160  14.431
91922W        W62522  40.358   0.561  10.688
91923W        W62523  32.503  20.630   2.356
91924W        W62524  10.175  12.922  14.430
91925W        W62525  15.860   4.855  13.405
91926W        W62526  11.109  38.018  11.091
91927W        W62527  26.161  21.714   2.412
91928W        W62528  12.208   5.657  12.784
91929W        W62529  22.005  15.751   4.070
91930W        W62530  20.220  18.576   4.521
91931W        W62531  16.057  25.949   4.977
91932W        W62532  35.752  42.963  14.575
91933W        W62533  19.650  40.713  13.524
91934W        W62534  31.545   1.917  12.043
91935W        W62535  16.196  32.404  11.593
91936W        W62536  17.575  20.768  12.956
91937W        W62537  15.714  20.317  13.458
91938W        W62538   2.744  15.602   1.781
91939W        W62539   6.615  38.918  12.488
91940W        W62540  37.860   3.475  12.431
91941W        W62541  42.502  18.922  13.686
91942W        W62542   3.388  21.677  12.626
91943W        W62543  15.482  29.094   4.282
91944W        W62544  23.485  33.411  14.842
91945W        W62545  25.471   9.931   5.070
91946W        W62546  35.562  30.535   0.809
91947W        W62547  32.160  26.746  11.929
91948W        W62548  26.100  34.933   0.298
91949W        W62549  10.411  24.581   4.153
91950W        W62550  41.546  41.319   3.548
91951W        W62551  11.339  30.690  10.563
91952W        W62552  35.012  37.021  13.630
91953W        W62553  37.113  17.357   0.450
91954W        W62554  33.193  36.940   2.877
91955W        W62555   7.240   6.679   2.651
91956W        W62556  28.525   7.790  10.502
91957W        W62557   0.260   9.192  10.647
91958W        W62558  33.372   4.397   2.780
91959W        W62559   8.328   5.661  11.037
91960W        W62560  23.748  17.566  11.756
91961W        W62561   5.508  37.021   0.462
91962W        W62562  24.613  37.288  13.447
91963W        W62563   0.232  18.655   0.752
91964W        W62564  32.325   1.489   0.023
91965W        W62565   5.130  22.621   1.876
91966W        W62566  42.107   5.439   2.702
91967W        W62567   1.233  12.077   3.401
91968W        W62568   2.410  40.063   4.195
91969W        W62569  13.717  41.390  14.791
91970W        W62570  19.259  15.018  12.119
91971W        W62571  10.310   6.210  14.059
91972W        W62572  23.086  29.065   3.767
91973W        W62573   2.333  32.395   2.672
91974W        W62574   5.398  37.499   0.679
91975W        W62575  10.158  37.376  13.745
91976W        W62576  17.763  27.404  11.704
91977W        W62577   9.199  23.186  11.480
91978W        W62578  27.131  20.242   2.331
91979W        W62579  24.309  42.419  13.750
91980W        W62580  41.951  26.199  14.834
91981W        W62581  40.633  40.773  11.939
91982W        W62582  33.002  15.883   2.565
91983W        W62583  11.774  32.121   3.760
91984W        W62584  16.276  13.120  13.324
91985W        W62585  17.825  27.741  10.447
91986W        W62586  39.111  21.100   0.308
91987W        W62587  37.813  17.240  12.907
91988W        W62588  34.642  31.434  11.150
91989W        W62589  44.764   5.898  11.121
91990W        W62590  44.793   6.257   3.760
91991W        W62591  43.268  20.530   1.214
91992W        W62592  36.392  13.172   1.324
91993W        W62593  24.953  19.525   1.821
91994W        W62594   4.968  24.205   3.629
91995W        W62595  21.991  25.000  12.437
91996W        W62596  31.912  33.972  12.666
91997W        W62597  15.190  36.365   4.505
91998W        W62598  44.404  14.227  13.502
91999W        W62599  10.790  27.485  10.736
92000W        W62600  37.099  16.576  10.629
92001W        W62601   3.518  28.960  13.455
92002W        W62602  15.935   5.789  14.299
92003W        W62603  34.981  42.300   0.909
92004W        W62604   5.615  21.243  11.691
92005W        W62605  34.052  13.617  14.961
92006W        W62606   4.704  44.938   0.707
92007W        W62607  43.663  15.866   2.772
92008W        W62608  15.074   3.360   2.150
92009W        W62609  36.109  34.170  14.652
92010W        W62610  14.100  41.968  12.487
92011W        W62611   1.363  12.848   2.207
92012W        W62612  41.265  42.872  10.950
92013W        W62613   1.898   4.884   2.227
92014W        W62614  31.392   6.068  11.720
92015W        W62615   7.832  41.518  11.944
92016W        W62616   3.609   3.648  13.017
92017W        W62617  40.019   4.799  11.927
92018W        W62618  25.366  19.638  13.365
92019W        W62619  37.130  41.805   1.381
92020W        W62620  21.748  37.655   3.341
92021W        W62621  32.980  19.851  14.247
92022W        W62622  37.904  35.820   4.589
92023W        W62623   3.270  32.759   5.045
92024W        W62624   7.055  20.812   3.618
92025W        W62625   8.332  21.789   0.867
92026W        W62626  33.975  20.230   0.062
92027W        W62627  25.643  10.292   0.362
92028W        W62628  11.375  44.663  14.904
92029W        W62629   8.535   9.965  11.811
92030W        W62630  25.235   8.631  11.806
92031W        W62631  12.332  38.317  13.264
92032W        W62632  15.096   2.199   1.925
92033W        W62633  44.782  16.176  12.886
92034W        W62634  44.442  15.680  14.528
92035W        W62635  12.330  21.506   2.263
92036W        W62636  19.496  10.835  10.902
92037W        W62637  15.539  20.132  11.078
92038W        W62638  31.156  38.912   4.450
92039W        W62639   8.663  26.297  13.601
92040W        W62640  13.039  37.534  13.952
92041W        W62641  11.820  40.327   0.202
92042W        W62642  38.490  41.973   4.205
92043W        W62643  24.938  10.636  12.533
92044W        W62644  27.160   9.748  10.669
92045W        W62645  25.192   3.748  14.852
92046W        W62646  31.518  37.379   0.871
92047W        W62647  31.383  27.028  14.040
92048W        W62648  21.648  11.304   3.352
92049W        W62649  16.534  13.998   3.252
92050W        W62650  18.811  27.006  14.482
92051W        W62651  27.175  42.994  14.293
92052W        W62652  25.767  18.575  10.924
92053W        W62653   7.802   6.002   3.199
92054W        W62654  26.263  38.022   3.287
92055W        W62655  16.038   0.506  11.667
92056W        W62656  22.527  37.022   0.929
92057W        W62657  19.196  31.392  11.498
92058W        W62658   6.955  39.377  11.960
92059W        W62659  29.556  10.191   0.284
92060W        W62660  32.333  32.336   1.699
92061W        W62661  43.052   9.727  14.493
92062W        W62662   1.643  27.530   0.521
92063W        W62663  22.219  41.767   1.846
92064W        W62664  18.455  28.531  11.119
92065W        W62665  38.397  17.368   0.689
92066W        W62666  16.414  32.874  11.553
92067W        W62667  32.970  39.099  11.604
92068W        W62668   6.442  40.479   2.622
92069W        W62669  38.871  17.495  12.549
92070W        W62670  14.260  17.969   1.835
92071W        W62671  24.042   4.385   3.719
92072W        W62672  39.321   5.291  11.632
92073W        W62673  27.601  34.609  13.837
92074W        W62674  15.717  34.838   0.909
92075W        W62675   3.464  37.375   0.282
92076W        W62676  11.678  14.649   1.823
92077W        W62677  23.469  27.694  13.509
92078W        W62678  18.654  30.692   5.140
92079W        W62679  30.039   7.907  13.433
92080W        W62680   7.450  16.125  14.842
92081W        W62681  21.653  39.354   0.679
92082W        W62682  16.307   7.309   3.352
92083W        W62683  41.345  40.313   2.648
92084W        W62684  43.745  32.348   4.016
92085W        W62685  11.915  35.027  12.424
92086W        W62686  11.330   7.858   3.577
92087W        W62687  16.981  34.429  12.367
92088W        W62688   1.129   8.103  12.429
92089W        W62689   9.775  10.920  13.893
92090W        W62690  21.219  29.623   3.464
92091W        W62691  10.379  23.026  12.908
92092W        W62692   2.766  24.658  13.274
92093W        W62693  27.897  42.397   1.395
92094W        W62694  30.928  40.954   0.691
92095W        W62695  30.893  16.840   2.151
92096W        W62696  26.907  30.589  10.492
92097W        W62697  42.725   4.976   0.366
92098W        W62698  31.602  14.672  11.955
92099W        W62699  14.021  35.107   5.050
92100W        W62700   2.295   5.737  14.019
92101W        W62701  43.338  35.921  10.697
92102W        W62702  14.354  24.668  14.890
92103W        W62703   9.878  10.883  14.838
92104W        W62704   3.968  12.076  11.157
92105W        W62705  18.568   1.795   3.500
92106W        W62706  36.306   6.840   2.926
92107W        W62707  30.582  22.615  10.968
92108W        W62708  38.382  29.152  13.611
92109W        W62709  12.631  31.186   2.202
92110W        W62710  41.536  43.073   3.357
92111W        W62711  25.878  21.583   4.345
92112W        W62712  36.508  20.987   4.435
92113W        W62713  24.297   9.810  12.608
92114W        W62714   1.889  37.044  11.943
92115W        W62715  41.084  16.635   4.120
92116W        W62716   1.484  12.131  13.525
92117W        W62717  38.408   9.344   2.864
92118W        W62718  21.763  16.940  12.126
92119W        W62719  32.865  43.166   4.364
92120W        W62720  32.865  38.616   3.578
92121W        W62721  31.602  18.544  12.891
92122W        W62722  12.136  18.794  13.047
92123W        W62723  42.260  30.899   1.630
92124W        W62724   6.311  31.391  11.126
92125W        W62725  22.125  16.519   2.230
92126W        W62726  42.044   6.471   0.447
92127W        W62727  38.053  33.765   1.927
92128W        W62728  32.148  39.309   2.605
92129W        W62729  44.801  17.759   4.870
92130W        W62730  41.317  30.654  14.350
92131W        W62731   8.820  18.066  11.801
92132W        W62732   7.336  42.900  13.296
92133W        W62733  15.106   3.772   3.649
92134W        W62734  38.814  11.907   1.301
92135W        W62735  11.349  31.193  10.646
92136W        W62736  17.537  32.377  11.003
92137W        W62737  26.596   5.757  13.775
92138W        W62738  37.860  33.894  12.457
92139W        W62739  13.465  16.132   3.558
92140W        W62740  10.701  24.923   2.317
92141W        W62741  29.662  24.616   2.742
92142W        W62742  38.595  13.875   2.016
92143W        W62743   6.739  37.024   1.323
92144W        W62744  16.292  39.955  11.445
92145W        W62745  38.081   2.985   2.644
92146W        W62746   0.503  39.595   2.914
92147W        W62747  28.441  41.874   4.651
92148W        W62748  11.595  12.696  11.814
92149W        W62749  13.200   2.788  10.423
92150W        W62750  12.060  14.285  10.427
92151W        W62751  27.629   6.234  14.607
92152W        W62752  30.903   5.422   2.814
92153W        W62753  27.217  24.489   4.108
92154W        W62754  23.694  14.578  13.929
92155W        W62755  20.070  12.229  14.367
92156W        W62756  18.247   8.242   3.175
92157W        W62757   1.450  26.609  12.898
92158W        W62758  39.558   4.877   2.663
92159W        W62759   4.982  35.985  12.625
92160W        W62760  16.607  22.712  13.983
92161W        W62761  11.107  33.446  14.396
92162W        W62762  35.044  21.175   1.830
92163W        W62763   4.851  41.421  12.562
92164W        W62764  27.701  12.359  13.550
92165W        W62765  29.941  18.477  13.532
92166W        W62766   9.728   1.775   1.758
92167W        W62767  15.241  24.498   0.032
92168W        W62768  17.872   7.471   4.175
92169W        W62769  37.831  28.466  12.414
92170W        W62770   9.589  33.091   0.029
92171W        W62771  20.640   9.100   3.146
92172W        W62772   0.374  11.781  14.901
92173W        W62773  37.850   5.724   4.213
92174W        W62774  42.422  41.539  10.760
92175W        W62775  24.183  36.552  12.521
92176W        W62776   4.707  31.974   2.696
92177W        W62777  23.442  25.538  10.795
92178W        W62778   5.438  15.502   1.809
92179W        W62779  23.059   2.992  12.714
92180W        W62780  29.371   2.360   4.386
92181W        W62781  32.534  32.872   0.847
92182W        W62782  37.565   1.739   3.858
92183W        W62783  40.450  17.479   4.352
92184W        W62784  32.082  38.913   2.945
92185W        W62785   8.758  35.959  10.637
92186W        W62786  13.212  10.715  12.552
92187W        W62787   4.489   0.403  12.281
92188W        W62788   5.358  19.886   2.066
92189W        W62789  12.583  19.109  12.984
92190W        W62790  16.767   8.265  10.611
92191W        W62791   0.988  44.318  11.191
92192W        W62792  44.446   9.867  10.760
92193W        W62793  24.410  15.253  13.916
92194W        W62794  22.554  42.521   0.293
92195W        W62795  20.428  12.194   1.916
92196W        W62796   6.137  12.698  12.026
92197W        W62797  12.458   3.217   4.010
92198W        W62798  34.510  15.522  13.947
92199W        W62799  17.287  33.442   0.806
92200W        W62800  12.587  27.157   4.198
92201W        W62801  14.552  38.783  11.071
92202W        W62802  18.016   6.886  11.771
92203W        W62803  42.502  10.089   3.251
92204W        W62804  21.617  35.595  12.719
92205W        W62805  10.349  25.505  11.619
92206W        W62806  12.950  11.139  12.430
92207W        W62807  44.874  18.511   4.199
92208W        W62808  34.049  37.321  14.813
92209W        W62809  34.936  28.614   3.221
92210W        W62810   6.333   2.536   0.391
92211W        W62811   4.637  21.098   1.296
92212W        W62812  14.833  28.913   3.484
92213W        W62813  40.310  25.529  13.591
92214W        W62814  17.513  14.125   2.325
92215W        W62815  28.133  31.412   1.651
92216W        W62816  27.025  10.303   3.582
92217W        W62817  34.817  36.387   2.311
92218W        W62818  16.072   8.385  13.739
92219W        W62819   3.738  11.673  14.124
92220W        W62820  30.967  15.581  13.575
92221W        W62821  18.998  17.867  13.049
92222W        W62822  36.867  26.199  11.516
92223W        W62823  23.503  17.660  10.847
92224W        W62824  44.861  38.683  11.614
92225W        W62825  35.437  21.582   0.884
92226W        W62826  32.009   0.874   3.169
92227W        W62827  23.522   0.330  11.809
92228W        W62828  17.807  35.188   0.775
92229W        W62829  20.960  40.149  14.206
92230W        W62830  38.029   5.505  13.623
92231W        W62831  16.363  41.245   3.209
92232W        W62832   6.209  36.762  10.254
92233W        W62833  22.978  38.809  10.933
92234W        W62834   5.589  42.512  14.771
92235W        W62835  16.484  28.473  14.709
92236W        W62836   6.957   7.198   3.835
92237W        W62837  31.924  34.640   1.818
92238W        W62838  38.904  36.402  13.166
92239W        W62839  35.058  42.825   0.905
92240W        W62840  16.227  18.573   0.861
92241W        W62841  15.131   2.572  12.588
92242W        W62842  44.085   1.239  11.066
92243W        W62843  15.267  21.519  12.472
92244W        W62844  21.558  25.003  12.738
92245W        W62845  22.270  28.141   0.681
92246W        W62846  42.846  24.513  13.594
92247W        W62847  24.492  40.029   0.642
92248W        W62848  40.352   0.954  13.837
92249W        W62849  35.472  29.148   2.767
92250W        W62850   0.782  19.571  12.775
92251W        W62851  37.332  20.653   1.383
92252W        W62852   8.763  13.653   1.445
92253W        W62853  33.094  42.791  14.370
92254W        W62854  32.498   8.927  11.382
92255W        W62855  36.068  42.989   0.426
92256W        W62856  31.003  17.965   1.437
92257W        W62857  18.839   0.418   0.496
92258W        W62858  40.305  33.864   4.827
92259W        W62859   3.490  13.170   0.828
92260W        W62860  11.204   0.887   0.293
92261W        W62861   3.900  25.045   5.045
92262W        W62862  39.656  38.740  10.665
92263W        W62863  41.350  15.045   2.277
92264W        W62864  38.334   4.252  10.248
92265W        W62865   8.880  13.291   4.118
92266W        W62866  44.866  31.053   4.282
92267W        W62867   7.873  12.696   4.156
92268W        W62868  42.290  37.134  14.954
92269W        W62869  26.502  23.469  11.495
92270W        W62870  10.267  38.009   3.120
92271W        W62871  19.162   7.773   2.845
92272W        W62872  34.929  30.231   2.261
92273W        W62873  39.184   0.687   0.124
92274W        W62874   0.817   2.346   3.258
92275W        W62875  20.292  22.650   3.325
92276W        W62876  14.306  15.681  11.170
92277W        W62877   4.738  13.721   1.766
92278W        W62878  37.487  35.846  11.078
92279W        W62879   7.842  37.369   1.872
92280W        W62880  38.813  44.761   0.317
92281W        W62881  29.123  20.536  12.320
92282W        W62882  15.840  26.185   1.824
92283W        W62883  43.596  40.827  12.023
92284W        W62884  35.969   4.445   2.484
92285W        W62885  30.339  23.984   1.750
92286W        W62886  30.680  14.971   0.214
92287W        W62887  15.247  23.601  14.838
92288W        W62888  27.700  31.699   1.831
92289W        W62889  19.571  39.150  10.667
92290W        W62890  35.299  26.235  13.466
92291W        W62891  40.842   1.329  13.059
92292W        W62892  15.801  28.115   4.182
92293W        W62893   8.359  42.775  10.942
92294W        W62894  20.756  30.215   1.302
92295W        W62895  37.419  28.492   1.191
92296W        W62896  18.145  13.694   3.368
92297W        W62897  28.616  11.778  12.158
92298W        W62898  42.297  26.197  14.259
92299W        W62899   0.555  30.585   3.903
92300W        W62900   8.591  18.092   3.293
92301W        W62901  29.417  29.405  12.670
92302W        W62902  19.834  44.506  11.034
92303W        W62903  13.840  16.391   3.284
92304W        W62904  22.684  43.539   0.241
92305W        W62905  19.978  19.629   2.248
92306W        W62906   3.502   4.158  11.729
92307W        W62907  22.715  31.029   0.752
92308W        W62908  24.766  19.256   0.731
92309W        W62909  33.402  28.905   0.824
92310W        W62910   3.376  16.328   3.553
92311W        W62911   8.125  40.720  11.638
92312W        W62912  20.675  33.932  12.988
92313W        W62913  16.147  18.282  12.800
92314W        W62914  38.947  35.508   0.722
92315W        W62915  43.952  20.643   2.875
92316W        W62916  22.270  23.085  13.550
92317W        W62917  17.388  15.016  14.261
92318W        W62918   3.361  31.963  11.886
92319W        W62919  27.409   5.733   1.846
92320W        W62920  10.380  23.013   0.721
92321W        W62921  29.358  29.476  10.600
92322W        W62922  26.107  21.220   0.257
92323W        W62923   4.842   4.724   0.768
92324W        W62924  22.649  32.143  12.517
92325W        W62925  43.223  27.310  14.991
92326W        W62926  15.358  27.784   3.176
92327W        W62927  26.076   5.192   2.623
92328W        W62928  15.106  25.217   4.013
92329W        W62929   9.342   6.691  11.152
92330W        W62930  33.507  20.259  10.978
92331W        W62931  21.021   5.289  11.153
92332W        W62932   9.221   4.042   0.832
92333W        W62933  10.755  20.081  11.607
92334W        W62934   4.423  42.310   4.612
92335W        W62935  11.636  28.668   4.084
92336W        W62936   4.641  34.473   0.927
92337W        W62937   4.379  11.348   1.244
92338W        W62938  24.622  31.455  11.607
92339W        W62939  25.674  43.977   0.056
92340W        W62940  29.657  17.621  12.066
92341W        W62941  27.230  31.926  10.240
92342W        W62942  25.516  25.981  13.066
92343W        W62943  34.571  38.950  11.108
92344W        W62944  18.346  16.827   1.239
92345W        W62945  12.331  14.357  13.421
92346W        W62946   1.182   5.211   0.778
92347W        W62947   9.187  20.341   4.088
92348W        W62948  40.211  32.526  11.435
92349W        W62949  12.660  28.168   0.473
92350W        W62950  40.608  42.922  11.618
92351W        W62951  42.320  18.608   1.671
92352W        W62952  31.738  10.154   1.107
92353W        W62953  36.342  27.450  11.184
92354W        W62954   3.215  26.158   3.682
92355W        W62955   8.425   7.426   0.989
92356W        W62956  43.423  14.739  14.041
92357W        W62957   5.142  20.013   0.781
92358W        W62958  14.140  25.990  10.580
92359W        W62959  17.107  39.022  12.588
92360W        W62960  32.419  42.297  14.563
92361W        W62961   4.985  20.251   3.652
92362W        W62962  43.897   9.622  14.763
92363W        W62963  27.653  24.422   0.976
92364W        W62964  39.610  15.225  14.579
92365W        W62965  14.932  43.956  11.337
92366W        W62966  21.434  34.460   2.254
92367W        W62967  17.779  21.177  12.045
92368W        W62968   2.673  30.076   3.035
92369W        W62969  23.057  33.003  10.669
92370W        W62970  38.587  31.433  12.913
92371W        W62971  38.904  12.586   1.841
92372W        W62972  28.081  43.086   0.455
92373W        W62973  12.607  32.044   4.884
92374W        W62974  29.231  14.556  14.960
92375W        W62975  10.939  10.859  14.828
92376W        W62976  43.741   6.318   2.271
92377W        W62977   2.334   5.193  14.215
92378W        W62978   2.400  40.093   2.830
92379W        W62979   7.125   4.084  11.232
92380W        W62980  26.582  35.102   1.486
92381W        W62981  44.997  25.757   2.337
92382W        W62982  40.622  12.833  13.427
92383W        W62983  10.145  38.929  14.962
92384W        W62984  12.649  15.308   2.799
92385W        W62985  13.547  11.621   3.123
92386W        W62986  39.317  28.724  12.056
92387W        W62987  19.670  42.717  12.403
92388W        W62988  21.209  23.439  11.981
92389W        W62989   9.726  25.762  10.590
92390W        W62990  29.229   5.268  12.070
92391W        W62991  36.332  30.745  13.915
92392W        W62992  23.699  37.935   2.327
92393W        W62993  34.559   3.868   0.188
92394W        W62994  32.480  23.916   0.318
92395W        W62995  25.108  41.195   1.003
92396W        W62996  18.685   1.160  14.045
92397W        W62997   1.688   5.078   0.834
92398W        W62998  30.692  38.685   4.563
92399W        W62999   3.808   7.148   1.961
92400W        W63000  37.616  31.125   4.921
92401W        W63001  23.634  14.351   4.535
92402W        W63002  21.161  13.632   3.664
92403W        W63003  42.353  32.469   4.714
92404W        W63004  32.962  27.144  12.016
92405W        W63005  40.020   4.697  12.469
92406W        W63006  44.881  42.975   0.278
92407W        W63007  36.439  13.522   3.681
92408W        W63008  25.901  25.441  11.585
92409W        W63009   8.641  19.066  11.682
92410W        W63010  10.025  13.531  13.591
92411W        W63011  11.745  37.176  10.775
92412W        W63012   6.139  40.896  10.725
92413W        W63013  17.589  44.465  10.543
92414W        W63014   5.401  32.127  14.287
92415W        W63015  36.952  16.064  12.181
92416W        W63016  40.057   5.416  13.844
92417W        W63017  37.341  24.014  11.969
92418W        W63018  13.604  28.647   3.723
92419W        W63019  27.027  16.503  10.782
92420W        W63020  23.569   7.067  12.539
92421W        W63021   3.489  40.396  14.788
92422W        W63022  26.213  29.240  11.085
92423W        W63023  35.432  22.114   0.034
92424W        W63024  23.160   9.715  12.542
92425W        W63025  32.963  12.643   1.907
92426W        W63026  13.685  40.444  10.278
92427W        W63027   4.346  34.913   0.871
92428W        W63028  14.168  43.553  10.298
92429W        W63029   8.931  36.071  12.986
92430W        W63030  20.455   1.448  14.475
92431W        W63031  37.973   2.363  11.491
92432W        W63032   6.102  35.384   0.746
92433W        W63033   7.943  14.700   4.472
92434W        W63034  18.277  16.563   1.673
92435W        W63035  22.257  43.934  13.971
92436W        W63036  26.231  43.849  14.323
92437W        W63037  20.718  10.723  12.369
92438W        W63038   9.659  29.104  14.833
92439W        W63039  13.269  40.955  11.592
92440W        W63040  34.907  35.993   1.521
92441W        W63041   7.219   6.730  10.624
92442W        W63042  37.182  40.250  12.198
92443W        W63043   9.714   1.394  12.260
92444W        W63044  14.174  18.679   2.354
92445W        W63045  37.253  22.485   4.983
92446W        W63046   2.307   3.911   0.966
92447W        W63047  44.315  29.440   2.246
92448W        W63048  30.742   4.307   4.236
92449W        W63049  33.235  31.476   4.045
92450W        W63050   8.268  30.404  13.118
92451W        W63051  31.660  38.897   4.576
92452W        W63052  27.515   0.833  13.149
92453W        W63053  34.622   5.918  11.457
92454W        W63054  39.852  14.385   0.459
92455W        W63055  43.892  28.131   4.510
92456W        W63056  10.260   4.154   3.303
92457W        W63057  11.612  22.445  10.675
92458W        W63058  16.941  13.172   3.808
92459W        W63059  23.135   4.834  13.668
92460W        W63060  39.805  25.019  13.077
92461W        W63061   1.447  25.443   1.538
92462W        W63062   5.990   9.177  10.605
92463W        W63063  22.681   9.344   2.156
92464W        W63064  18.498  11.942  11.122
92465W        W63065  32.500  17.024  14.905
92466W        W63066  42.841   5.132   3.503
92467W        W63067   9.757   9.846  10.897
92468W        W63068  18.252   5.308  11.999
92469W        W63069  29.567  36.321   3.166
92470W        W63070  27.233   3.346   4.662
92471W        W63071  10.586  42.309   4.899
92472W        W63072  20.997  43.418  12.418
92473W        W63073  11.658  36.205  13.763
92474W        W63074  35.928  31.617  14.973
92475W        W63075  33.556  22.662  11.735
92476W        W63076  10.118  44.532   2.603
92477W        W63077  17.020  28.798  10.905
92478W        W63078  25.495  22.789  10.282
92479W        W63079  27.627  20.376   2.890
92480W        W63080  13.179  23.259   3.088
92481W        W63081  41.121  10.675  14.899
92482W        W63082  29.042   2.226   1.380
92483W        W63083  21.610  19.498  12.961
92484W        W63084  38.406  16.759  10.713
92485W        W63085   1.501  22.222   1.332
92486W        W63086   6.293   6.477  10.992
92487W        W63087   8.375  37.368   3.927
92488W        W63088  31.016  29.529   4.611
92489W        W63089  44.895  17.147  13.150
92490W        W63090  23.568  40.049   3.777
92491W        W63091  23.208  28.381  13.019
92492W        W63092  18.257  35.087  12.131
92493W        W63093  29.645   8.715  14.443
92494W        W63094   4.762   8.925   4.047
92495W        W63095  23.166  28.234  12.371
92496W        W63096  38.902  12.175  11.625
92497W        W63097  20.665  15.945   4.483
92498W        W63098  28.034  16.477   1.262
92499W        W63099  20.585  44.159   1.432
92500W        W63100  20.695  16.621  11.415
92501W        W63101  17.239  24.223  11.602
92502W        W63102  25.912  32.619  13.549
92503W        W63103  34.446  17.674  11.973
92504W        W63104  16.336  33.517   4.576
92505W        W63105   1.255   7.808   1.877
92506W        W63106  31.846   2.022   0.864
92507W        W63107  13.727  34.643   0.975
92508W        W63108  34.510  39.551   2.876
92509W        W63109  25.218  26.701  12.163
92510W        W63110   7.563   0.900  10.288
92511W        W63111  36.560  17.267  11.762
92512W        W63112  11.823  24.463  11.621
92513W        W63113  41.336  14.146  12.911
92514W        W63114  24.070  16.684  12.321
92515W        W63115  28.893  23.964  11.105
92516W        W63116  26.709  16.119   1.907
92517W        W63117  14.227  16.893  13.266
92518W        W63118  17.305   2.151   9.786
92519W        W63119  28.972  24.158   0.844
92520W        W63120  21.008   3.374   4.100
92521W        W63121   2.049  31.579   3.300
92522W        W63122  13.103  24.683   1.740
92523W        W63123  27.505  13.808  14.446
92524W        W63124  31.246  36.605  12.497
92525W        W63125  29.182   4.931   1.189
92526W        W63126  40.157  33.287  12.797
92527W        W63127  14.803  30.497   0.052
92528W        W63128   1.802   2.732  13.471
92529W        W63129  31.116   2.860   3.767
92530W        W63130   7.750   0.004   0.670
92531W        W63131  29.485  19.348  13.454
92532W        W63132   1.320  27.416   1.695
92533W        W63133  22.486  34.898  12.258
92534W        W63134  39.585  44.234   2.836
92535W        W63135   2.895  42.911   1.427
92536W        W63136  15.207  39.259   4.207
92537W        W63137  39.632  34.969   4.258
92538W        W63138  39.319  26.907   4.539
92539W        W63139  39.841  13.871   0.504
92540W        W63140   5.372  25.282   2.638
92541W        W63141  38.359  23.946  14.841
92542W        W63142   3.437  36.904   4.329
92543W        W63143  27.966  34.016   3.730
92544W        W63144  28.381  14.550  11.168
92545W        W63145  27.630   9.719   4.548
92546W        W63146  27.997  37.575  10.817
92547W        W63147  21.664  22.040  11.290
92548W        W63148  18.352  22.669   1.635
92549W        W63149  27.642  43.076  13.043
92550W        W63150  28.043  18.451  10.784
92551W        W63151  29.952   1.671  10.420
92552W        W63152  32.315  27.981  13.722
92553W        W63153  40.949  43.433   0.610
92554W        W63154  25.849  28.840   3.137
92555W        W63155  36.930   8.913  11.029
92556W        W63156  33.772  24.462   4.149
92557W        W63157  21.406  27.687  11.177
92558W        W63158   3.936  33.052  12.002
92559W        W63159  13.922  19.164   3.803
92560W        W63160  23.063   5.238   3.931
92561W        W63161  32.565  38.393  11.068
92562W        W63162  30.908   7.709   1.176
92563W        W63163  14.273  11.100   1.305
92564W        W63164  27.578   0.173   3.312
92565W        W63165  16.749  42.964   2.279
92566W        W63166   5.833  31.364   1.747
92567W        W63167   9.798  18.754  14.040
92568W        W63168   1.510  12.188  12.148
92569W        W63169   9.035  32.619  14.281
92570W        W63170   5.279   7.198   4.487
92571W        W63171  24.053  34.711   4.637
92572W        W63172   1.525  27.819   3.111
92573W        W63173  15.196  20.236  13.480
92574W        W63174  15.719  29.394   2.857
92575W        W63175  14.362  38.285   1.846
92576W        W63176  39.944  36.779   1.279
92577W        W63177  23.105  13.256  13.058
92578W        W63178  30.630  14.219   2.048
92579W        W63179  25.436   3.376  12.692
92580W        W63180  28.470  44.214   3.497
92581W        W63181  10.795  24.797  13.015
92582W        W63182  12.996   7.305   4.662
92583W        W63183   5.791  37.326  12.992
92584W        W63184   0.061  34.950  11.990
92585W        W63185  40.905  35.767   0.407
92586W        W63186  10.325  41.604  14.389
92587W        W63187  44.057  42.409  14.421
92588W        W63188  41.439  43.700  12.884
92589W        W63189   1.037  43.965   2.245
92590W        W63190  30.538   2.042  14.038
92591W        W63191  17.619  40.948  11.585
92592W        W63192  31.197  32.036  12.033
92593W        W63193   6.195   4.294   2.325
92594W        W63194  36.626  40.871   2.077
92595W        W63195   3.944  25.997   1.221
92596W        W63196  38.350  34.088  14.138
92597W        W63197  35.884   3.541   2.139
92598W        W63198  25.074  18.262  11.618
92599W        W63199  13.680  15.998  10.734
92600W        W63200  41.273  17.637   3.170
92601W        W63201   6.476  15.161  11.142
92602W        W63202  29.105  18.048  13.556
92603W        W63203  30.160  40.219  12.963
92604W        W63204  13.339  24.666   0.120
92605W        W63205  22.499   7.257   3.741
92606W        W63206  31.208   8.145   4.179
92607W        W63207  23.139  38.021  14.749
92608W        W63208  14.347  28.422   2.356
92609W        W63209   0.225  13.711   4.530
92610W        W63210  27.275  14.794   4.661
92611W        W63211  44.269  21.723   3.220
92612W        W63212  36.808  27.586   4.151
92613W        W63213   5.128   1.411  12.516
92614W        W63214  14.787  26.589   4.597
92615W        W63215  28.909   7.397   1.922
92616W        W63216   4.209  11.657  13.877
92617W        W63217  28.574  35.565   2.050
92618W        W63218  43.493  37.112  12.007
92619W        W63219   6.380  14.660  11.154
92620W        W63220  42.483  18.130   3.873
92621W        W63221   6.196  22.407  11.046
92622W        W63222  43.099  17.858  13.213
92623W        W63223   3.740   7.146  10.575
92624W        W63224  10.129  40.285   2.778
92625W        W63225  25.601   7.391  13.479
92626W        W63226  26.555   6.238  11.975
92627W        W63227   6.401  42.615   0.815
92628W        W63228   6.905  42.778  12.988
92629W        W63229  38.810  34.082   2.268
92630W        W63230  33.088  44.439   0.365
92631W        W63231  30.244  20.188  14.387
92632W        W63232  15.415  16.269   0.910
92633W        W63233  42.007   3.266  12.663
92634W        W63234  35.130  20.733  14.986
92635W        W63235  26.036  36.426  13.039
92636W        W63236   5.202  34.909  12.950
92637W        W63237  30.888  39.745  13.738
92638W        W63238  38.005  27.218  12.892
92639W        W63239  38.765  20.296  11.663
92640W        W63240  22.769  25.481  12.375
92641W        W63241   7.946  22.258  13.236
92642W        W63242  11.521  36.314   3.138
92643W        W63243  27.530  27.999   1.978
92644W        W63244  33.001  10.415  12.969
92645W        W63245   2.674   2.379  14.815
92646W        W63246  27.264  33.411   4.620
92647W        W63247  11.039  23.094   2.370
92648W        W63248  39.325  15.366   0.445
92649W        W63249  37.547  30.527  14.059
92650W        W63250   1.306  35.916   4.587
92651W        W63251  34.416  24.886   0.387
92652W        W63252   0.827  25.137  11.208
92653W        W63253  22.596  30.186  14.810
92654W        W63254  25.231  36.661  12.165
92655W        W63255  27.000  19.131  14.376
92656W        W63256   8.704  27.771   4.194
92657W        W63257  35.944  44.616  13.495
92658W        W63258  25.287  26.384  11.180
92659W        W63259   4.226   5.447  12.281
92660W        W63260  20.782  18.732   0.474
92661W        W63261  30.314  20.073   0.314
92662W        W63262   8.140   6.350  10.395
92663W        W63263   2.471  43.927   0.714
92664W        W63264  23.233   5.178  13.272
92665W        W63265  25.149  17.755  12.127
92666W        W63266  14.847  26.087  13.439
92667W        W63267   2.721  15.641   0.841
92668W        W63268  18.696  43.232   1.267
92669W        W63269   0.529   0.702   2.835
92670W        W63270  34.971  27.852   1.815
92671W        W63271   7.194  17.535   2.355
92672W        W63272   4.341  43.712   1.769
92673W        W63273  14.329   5.197   3.845
92674W        W63274   9.676  17.849  13.571
92675W        W63275  15.161  23.467  14.352
92676W        W63276   3.433  33.429   2.856
92677W        W63277   2.335   0.358   3.682
92678W        W63278  33.824  39.514   4.189
92679W        W63279   6.483  36.814  12.935
92680W        W63280  14.760  35.616  12.916
92681W        W63281  25.607  10.164  10.780
92682W        W63282   5.725  40.488  14.467
92683W        W63283   3.054  28.964  10.665
92684W        W63284  35.271  19.300   1.204
92685W        W63285  39.000  41.529   2.210
92686W        W63286  43.748  37.639   0.776
92687W        W63287  11.106  44.486   0.307
92688W        W63288   0.870   3.447  12.493
92689W        W63289  42.964  31.342  13.847
92690W        W63290   6.432   9.681   0.932
92691W        W63291   0.660   7.628   4.074
92692W        W63292   3.661  22.587   4.666
92693W        W63293   6.900  29.060  12.352
92694W        W63294  34.553  28.119  13.372
92695W        W63295  22.757  16.241  12.622
92696W        W63296   1.098  13.573  13.311
92697W        W63297   7.393  17.112  13.326
92698W        W63298  43.424  16.574  14.413
92699W        W63299  14.436  30.145   3.696
92700W        W63300  35.411  40.247  12.160
92701W        W63301  41.756  41.774  11.288
92702W        W63302  14.513  39.063  14.920
92703W        W63303  41.270  14.063  14.356
92704W        W63304   5.268   5.661  11.233
92705W        W63305  34.648   0.793   1.279
92706W        W63306  28.664  18.618   2.684
92707W        W63307   3.483  36.967   3.414
92708W        W63308  43.746   1.224   0.732
92709W        W63309   7.283   5.512   4.114
92710W        W63310  11.345   1.233  12.140
92711W        W63311  40.400   8.354  14.266
92712W        W63312   3.274  16.554  14.918
92713W        W63313  44.802  17.743   2.806
92714W        W63314   8.288  34.684  14.627
92715W        W63315   4.456  38.831   0.456
92716W        W63316  17.627  12.947  11.697
92717W        W63317  21.617  18.989  12.087
92718W        W63318   0.819  38.627  11.532
92719W        W63319  39.339  36.096   0.698
92720W        W63320  25.749  38.738   4.958
92721W        W63321  35.655  28.986   3.613
92722W        W63322  24.151  23.247   4.607
92723W        W63323   1.852  36.415  13.501
92724W        W63324  19.814  29.390  13.760
92725W        W63325  12.598  44.409   3.767
92726W        W63326  31.481   6.280  14.860
92727W        W63327  32.447  32.337  12.916
92728W        W63328  25.053  41.132   1.583
92729W        W63329  41.371   7.213   9.827
92730W        W63330  29.448  26.038  11.474
92731W        W63331  16.702  25.542  10.688
92732W        W63332  14.090  17.877   3.178
92733W        W63333  24.162   2.606  10.704
92734W        W63334  15.538  44.869   0.263
92735W        W63335   0.432   0.423   4.669
92736W        W63336  28.637   6.286  12.791
92737W        W63337   5.685  31.770   3.708
92738W        W63338   8.616  34.711  11.688
92739W        W63339  29.382  32.918  14.052
92740W        W63340  34.180  23.004  11.896
92741W        W63341  31.417  27.444   2.359
92742W        W63342  35.292  16.165   2.443
92743W        W63343  34.410  33.136  13.171
92744W        W63344  31.771  15.050   3.359
92745W        W63345  40.493   9.786  11.555
92746W        W63346  14.469  12.909  13.459
92747W        W63347   1.227  32.024   1.030
92748W        W63348  38.134   5.646  14.285
92749W        W63349  42.324   2.208   4.222
92750W        W63350   5.215  16.790  12.930
92751W        W63351  44.278  21.643   9.912
92752W        W63352  29.589  40.582   0.844
92753W        W63353  26.157  41.594   2.700
92754W        W63354  13.920  22.512   2.783
92755W        W63355   7.440  17.716  14.127
92756W        W63356   5.215  23.098   3.984
92757W        W63357  30.889  37.895   0.738
92758W        W63358   1.776  22.430  14.208
92759W        W63359   4.755   9.595  12.785
92760W        W63360  28.459  17.652  14.604
92761W        W63361  38.844  34.460  11.584
92762W        W63362  19.113  39.923   2.109
92763W        W63363  31.541  22.186   0.418
92764W        W63364  13.234  21.114   4.969
92765W        W63365  11.005  37.761  14.834
92766W        W63366  43.527  41.407  13.485
92767W        W63367  34.920  11.210  11.363
92768W        W63368  44.520  11.476   4.875
92769W        W63369  29.490  31.017  11.870
92770W        W63370   9.272  44.938  11.767
92771W        W63371  42.502  13.317   4.231
92772W        W63372  16.418  18.034  14.891
92773W        W63373  14.071  32.450   2.746
92774W        W63374   5.347  18.013   2.214
92775W        W63375  22.494  30.902  13.839
92776W        W63376   2.405  37.077  12.016
92777W        W63377  20.119  39.100  13.861
92778W        W63378  20.470  38.514  13.380
92779W        W63379  18.271  13.090   5.115
92780W        W63380  33.566  31.880   4.558
92781W        W63381  38.874  32.822   1.699
92782W        W63382  29.407   1.838   1.442
92783W        W63383  41.527  14.815   1.190
92784W        W63384  42.857  16.868   4.483
92785W        W63385  35.139  25.238  14.427
92786W        W63386  28.587   0.379   4.975
92787W        W63387  13.082   0.287   1.013
92788W        W63388  18.749  35.028   2.704
92789W        W63389  44.491   6.478   0.886
92790W        W63390  23.892  22.077   3.593
92791W        W63391  42.932  10.369   3.230
92792W        W63392  17.791  32.057  12.119
92793W        W63393  12.013  36.479   1.769
92794W        W63394  28.845  43.051  12.115
92795W        W63395  33.946  28.603  11.488
92796W        W63396  34.662  12.774  12.378
92797W        W63397  29.638   3.884   4.662
92798W        W63398  17.580  28.110   0.478
92799W        W63399   9.710  18.783   3.284
92800W        W63400  36.670  17.575  13.915
92801W        W63401  30.138  13.480  11.453
92802W        W63402  24.112  27.293   4.619
92803W        W63403  15.915  18.767   4.634
92804W        W63404   6.837  15.829  13.299
92805W        W63405   8.715  41.576  10.280
92806W        W63406  27.297  41.547   5.114
92807W        W63407  14.264  20.458   0.828
92808W        W63408  13.065   7.483   1.850
92809W        W63409   1.831  19.695  14.770
92810W        W63410  40.471  33.230   0.013
92811W        W63411  31.079  28.702   1.238
92812W        W63412  29.086  35.306  14.864
92813W        W63413  27.091  35.897  14.010
92814W        W63414   4.855  15.688  11.087
92815W        W63415  26.558  33.375  12.969
92816W        W63416  20.530  11.177  14.935
92817W        W63417  20.092  39.761  14.468
92818W        W63418   0.416  29.627   2.227
92819W        W63419  21.993   9.337   0.293
92820W        W63420  21.544   2.334   2.863
92821W        W63421  18.554  38.917   3.583
92822W        W63422  28.556  22.786  13.869
92823W        W63423  32.062  21.200   0.737
92824W        W63424  43.811   4.513   1.478
92825W        W63425  28.666  30.674  12.544
92826W        W63426   2.066  20.756   3.851
92827W        W63427  14.536  44.308   2.796
92828W        W63428  23.823  28.167   3.041
92829W        W63429   0.735  25.461   0.828
92830W        W63430   9.752   4.858   3.159
92831W        W63431  30.650  24.221   2.685
92832W        W63432  25.996   8.136   2.278
92833W        W63433   1.885  39.484   4.744
92834W        W63434  12.654   8.154   4.555
92835W        W63435  44.080  28.044  13.503
92836W        W63436   4.016  23.748   4.104
92837W        W63437  10.966   6.314   4.619
92838W        W63438  29.664  42.240   1.855
92839W        W63439  42.998  36.164  12.977
92840W        W63440  34.123  10.176   4.190
92841W        W63441  44.103  10.923  12.112
92842W        W63442  19.784  14.615  14.368
92843W        W63443  27.003  34.932   2.124
92844W        W63444  29.436  34.283   2.697
92845W        W63445  28.664  37.944  11.047
92846W        W63446  18.991   7.350   0.189
92847W        W63447  29.934  16.663  11.873
92848W        W63448  36.352  34.782   2.443
92849W        W63449   4.032  31.761   2.314
92850W        W63450  13.584   5.681   0.184
92851W        W63451  36.309  28.626  11.603
92852W        W63452  20.765  13.608  11.245
92853W        W63453   5.336  18.111  10.535
92854W        W63454  22.254  22.397  14.211
92855W        W63455  42.537  13.847  14.841
92856W        W63456  20.980  42.268  14.050
92857W        W63457   0.719   5.353  11.733
92858W        W63458   2.837  38.408   2.487
92859W        W63459  13.369  33.166  14.825
92860W        W63460   1.961   6.776  13.763
92861W        W63461  26.113  16.878   1.418
92862W        W63462   0.911  38.482   1.413
92863W        W63463  23.612  39.762   1.096
92864W        W63464   7.223  22.033   2.667
92865W        W63465  38.809  41.556   4.173
92866W        W63466  15.340  16.655   2.085
92867W        W63467  39.385  34.652  11.585
92868W        W63468  26.579   7.271  10.968
92869W        W63469  22.642  14.427   2.163
92870W        W63470  26.146   2.862   4.705
92871W        W63471  12.738   9.303   1.508
92872W        W63472  10.188  25.511   2.275
92873W        W63473  37.049  27.651   1.680
92874W        W63474  44.535  34.210   2.671
92875W        W63475  27.129  15.131  13.306
92876W        W63476  20.034  32.727   3.248
92877W        W63477  41.267  20.530  13.120
92878W        W63478  27.651   6.190   0.112
92879W        W63479  29.607  29.377   4.930
92880W        W63480  36.590   9.930   0.220
92881W        W63481  13.807  42.464  11.769
92882W        W63482  40.830  21.598  14.918
92883W        W63483   1.473  36.462   1.419
92884W        W63484  10.327  14.680  13.936
92885W        W63485   3.791  31.579  11.212
92886W        W63486  23.186  23.219   3.107
92887W        W63487  30.013   1.953   1.239
92888W        W63488  27.113  38.503  13.519
92889W        W63489  42.100   0.348  12.646
92890W        W63490  43.302  41.935   0.812
92891W        W63491   5.691  22.934  14.737
92892W        W63492  23.837  28.562   3.697
92893W        W63493  35.296  25.550   2.075
92894W        W63494  42.408   8.496  13.820
92895W        W63495   4.773  26.994   0.351
92896W        W63496  38.703   8.380  11.888
92897W        W63497  31.574  43.522   3.629
92898W        W63498  25.520   2.438  11.975
92899W        W63499  10.657   8.803  13.276
92900W        W63500  23.271  43.301   0.941
92901W        W63501   5.942  25.938   2.233
92902W        W63502   2.768  32.202   5.518
92903W        W63503   4.353   0.847  12.891
92904W        W63504  27.535  44.304  11.632
92905W        W63505   9.491  25.912  11.850
92906W        W63506  16.135  32.465  14.324
92907W        W63507   2.228  28.911  11.109
92908W        W63508   9.311  29.647   4.436
92909W        W63509  36.425   1.481  13.273
92910W        W63510  36.162  27.080   2.420
92911W        W63511  17.350  24.619  11.922
92912W        W63512  19.800  40.919   2.172
92913W        W63513  33.880  11.667  13.053
92914W        W63514  10.218  34.076  11.291
92915W        W63515  10.820   1.297   2.556
92916W        W63516  42.499  29.011  12.165
92917W        W63517   2.798   1.476  13.861
92918W        W63518   2.232  35.869   2.747
92919W        W63519  33.971   7.253  14.843
92920W        W63520  14.105  13.708  13.018
92921W        W63521  36.922  24.124   4.606
92922W        W63522   7.657  15.554   3.159
92923W        W63523   7.713  29.502   1.995
92924W        W63524  29.431   8.637  12.443
92925W        W63525  41.827  11.262  10.702
92926W        W63526  38.481   6.817  11.589
92927W        W63527  33.547  27.974   0.459
92928W        W63528  23.249  36.591   0.830
92929W        W63529  10.227   1.742   1.991
92930W        W63530   0.317  10.316   3.217
92931W        W63531  29.838   0.709  14.733
92932W        W63532  28.571   3.027   1.274
92933W        W63533  22.977   9.360  13.483
92934W        W63534  43.102  35.794  11.998
92935W        W63535  31.426  16.371  14.908
92936W        W63536  17.246  27.514  13.301
92937W        W63537  22.003  29.685  14.307
92938W        W63538   2.800  17.619   3.391
92939W        W63539   7.028  39.479  12.865
92940W        W63540  30.521  40.462  11.737
92941W        W63541  16.365   6.069  14.254
92942W        W63542  26.054  15.752  11.420
92943W        W63543  42.470  36.388  13.559
92944W        W63544  18.524  10.361  14.778
92945W        W63545  28.668   3.135   4.776
92946W        W63546   9.376  44.785   3.540
92947W        W63547  21.574   4.755   3.598
92948W        W63548  22.304  38.981   4.616
92949W        W63549   3.864  16.689  11.623
92950W        W63550  10.352  31.949  12.110
92951W        W63551  42.526  25.292  12.532
92952W        W63552  14.235  18.319  14.791
92953W        W63553  13.066  15.807   0.520
92954W        W63554   5.866  15.468   3.092
92955W        W63555  15.842   1.820  14.213
92956W        W63556  14.621   2.348  13.479
92957W        W63557  18.761  40.383  13.055
92958W        W63558  20.979  29.219  14.791
92959W        W63559  14.743  43.278   0.757
92960W        W63560  34.569   6.760  12.345
92961W        W63561  27.510  39.032  13.436
92962W        W63562  42.351  32.417   1.955
92963W        W63563  44.689  26.993   4.746
92964W        W63564  31.460  30.208  10.773
92965W        W63565  38.555   7.928  14.156
92966W        W63566  24.609   5.317   1.353
92967W        W63567  33.443  39.563  12.995
92968W        W63568  30.597  34.979  14.687
92969W        W63569   0.878   9.811  10.654
92970W        W63570  28.068   1.583  13.338
92971W        W63571  14.188   8.367   3.782
92972W        W63572  30.934  39.295   0.929
92973W        W63573  18.340  15.867   0.059
92974W        W63574   7.402   9.919   1.257
92975W        W63575  33.864  30.865  10.526
92976W        W63576  33.664  24.697   3.693
92977W        W63577  26.197  10.307  12.106
92978W        W63578  43.571  41.119   4.662
92979W        W63579  43.025  37.929   2.307
92980W        W63580  42.416  12.962   0.327
92981W        W63581  10.656  24.768  11.034
92982W        W63582  12.191  30.151  11.686
92983W        W63583  16.297   0.901  11.953
92984W        W63584   6.523  26.610   0.381
92985W        W63585  36.580  18.656   1.893
92986W        W63586  18.848  38.875  14.129
92987W        W63587  41.212  28.683   3.013
92988W        W63588  27.666   2.864  14.443
92989W        W63589   2.817  40.491   3.042
92990W        W63590  15.844  30.444  13.325
92991W        W63591  26.573  22.158  13.073
92992W        W63592   9.949  18.102  12.446
92993W        W63593  22.593  23.737  12.031
92994W        W63594   0.966  40.795   2.678
92995W        W63595  44.012  14.379   5.064
92996W        W63596  30.617  18.823   1.664
92997W        W63597  22.570   1.020   2.020
92998W        W63598  35.174  33.937  14.703
92999W        W63599  42.285  25.165   0.313
93000W        W63600   3.210  32.439   4.640
93001W        W63601  35.583  38.838  11.092
93002W        W63602  13.540   4.845  14.864
93003W        W63603  28.424  37.698   5.006
93004W        W63604  22.664   5.271   0.176
93005W        W63605  12.531  23.563   4.587
93006W        W63606   5.035   3.959   0.434
93007W        W63607   4.921   0.011   2.230
93008W        W63608  13.281   0.477   4.021
93009W        W63609  40.023  28.593   2.094
93010W        W63610  18.202  28.960   2.770
93011W        W63611  36.539  15.065  12.639
93012W        W63612  44.187   9.542  14.310
93013W        W63613  23.442   7.120  10.636
93014W        W63614  27.603  34.116  11.118
93015W        W63615  26.951  28.669   0.947
93016W        W63616  33.240  27.110  11.586
93017W        W63617   9.848   0.634  14.896
93018W        W63618  44.969  27.154  13.558
93019W        W63619  12.532  37.871   4.323
93020W        W63620   8.256  29.913  10.576
93021W        W63621  43.742  25.596   3.487
93022W        W63622  32.785  31.494   2.668
93023W        W63623  38.185  38.236  13.895
93024W        W63624  43.437  35.546   4.215
93025W        W63625  42.861  32.082   1.249
93026W        W63626  40.560  21.343   0.942
93027W        W63627  39.626  30.488   2.230
93028W        W63628  26.079   3.915   0.320
93029W        W63629  13.056  17.615  11.948
93030W        W63630  27.729   0.957  12.212
93031W        W63631  27.130  32.404   2.157
93032W        W63632  24.224   8.435   1.838
93033W        W63633  12.795   4.487   3.330
93034W        W63634  32.997  12.711  14.825
93035W        W63635   5.346  11.583   1.287
93036W        W63636  10.047  32.683   3.327
93037W        W63637  23.298  35.066  14.909
93038W        W63638  33.791  41.431  12.878
93039W        W63639  22.269  29.126   0.954
93040W        W63640   8.366  14.146   0.044
93041W        W63641  11.710   7.402  13.908
93042W        W63642   9.148  18.338   5.208
93043W        W63643  37.992  25.084   5.001
93044W        W63644  23.583  32.560   4.714
93045W        W63645   6.685  28.945  11.403
93046W        W63646  29.410   2.104  12.627
93047W        W63647  27.565   6.299   3.622
93048W        W63648  29.436  43.461  12.632
93049W        W63649   1.393  17.084   0.845
93050W        W63650  42.902  22.473  14.434
93051W        W63651  15.216  25.911   4.601
93052W        W63652  22.256  35.071  14.953
93053W        W63653  25.580  28.108  14.692
93054W        W63654   9.232  42.431   1.993
93055W        W63655  33.416  31.559  14.560
93056W        W63656  12.720  43.988  13.396
93057W        W63657  44.376   9.921  14.602
93058W        W63658  26.266  27.453  11.081
93059W        W63659  37.398  39.464  11.373
93060W        W63660   3.166  33.844  12.190
93061W        W63661  43.242  27.390  14.445
93062W        W63662  41.482  41.278   3.044
93063W        W63663  17.599  28.622   0.677
93064W        W63664  25.382  19.254   0.054
93065W        W63665  27.537  33.799  12.453
93066W        W63666  27.134  22.373   4.566
93067W        W63667  29.771  27.728   1.360
93068W        W63668  23.021  36.013  12.990
93069W        W63669  16.541  21.119   0.734
93070W        W63670  38.529  22.077   3.967
93071W        W63671  34.044  41.351   1.198
93072W        W63672   8.474  30.074   0.379
93073W        W63673  34.781   5.435  14.827
93074W        W63674  31.672  44.380   1.816
93075W        W63675  19.621   8.905  14.292
93076W        W63676  27.753   6.674  10.335
93077W        W63677  17.149  36.074   1.371
93078W        W63678  36.590  30.698  13.012
93079W        W63679  43.611  25.181   0.075
93080W        W63680   3.618  11.108  10.967
93081W        W63681   8.733  35.583   0.673
93082W        W63682  23.221  27.703  12.437
93083W        W63683  25.707  40.917   2.236
93084W        W63684  28.214  16.027  14.297
93085W        W63685   3.812   3.834  14.919
93086W        W63686  28.260   4.806   3.304
93087W        W63687  24.069   2.550   2.256
93088W        W63688  37.874  42.002   0.344
93089W        W63689  37.002  28.960   3.413
93090W        W63690  44.224   5.157  10.745
93091W        W63691  11.674   8.886   1.201
93092W        W63692  43.569  12.647  11.108
93093W        W63693  13.917  20.259   1.181
93094W        W63694   9.048  16.656  13.809
93095W        W63695   7.661  22.660  13.163
93096W        W63696  28.927  34.079   3.840
93097W        W63697  17.254  37.685   3.184
93098W        W63698   3.150  12.242  11.487
93099W        W63699  23.985   7.775  12.983
93100W        W63700  13.123  13.367   1.904
93101W        W63701  33.622  32.002  12.365
93102W        W63702  42.292   5.967   1.046
93103W        W63703   4.619   6.230  12.907
93104W        W63704  15.083   2.339   2.427
93105W        W63705   6.919  10.592   3.505
93106W        W63706   2.769  26.983   4.264
93107W        W63707  13.640  22.995  13.729
93108W        W63708  10.410  33.200  11.029
93109W        W63709  25.422   6.209   2.495
93110W        W63710  30.843  24.019   3.221
93111W        W63711  11.247  23.194  12.819
93112W        W63712  44.929  19.087  14.974
93113W        W63713  33.343  39.875  10.587
93114W        W63714  24.205  40.289  13.608
93115W        W63715  29.025  40.536   1.394
93116W        W63716  38.688   0.365   3.288
93117W        W63717   9.339  15.325   3.310
93118W        W63718  24.066  34.406  13.456
93119W        W63719  44.008  34.837  11.143
93120W        W63720  29.588  22.394   1.867
93121W        W63721  16.138  25.142   3.554
93122W        W63722  28.155   1.219  12.405
93123W        W63723  36.526  30.992   1.991
93124W        W63724  26.682  35.369  13.438
93125W        W63725   7.869  36.225   4.917
93126W        W63726  13.576  42.145  13.326
93127W        W63727  18.233  42.564  14.011
93128W        W63728  43.500  34.060  14.784
93129W        W63729  29.837  10.980   0.422
93130W        W63730   7.340  25.532  10.712
93131W        W63731   7.506  29.979  12.058
93132W        W63732  41.864  15.138   0.334
93133W        W63733  26.946  41.313  14.809
93134W        W63734  14.081  37.837   3.133
93135W        W63735  13.741  10.741   4.113
93136W        W63736   7.333   5.710  10.663
93137W        W63737  38.667  17.655   4.106
93138W        W63738  31.579  40.840   2.217
93139W        W63739  40.432  41.479   1.524
93140W        W63740  36.589  10.688   3.230
93141W        W63741  27.871  16.857   1.627
93142W        W63742  19.768   9.241   3.137
93143W        W63743   7.592  20.254  14.250
93144W        W63744  13.760   2.898   0.313
93145W        W63745  38.019  15.640  12.143
93146W        W63746  35.635   5.155   3.950
93147W        W63747  18.344  29.406  12.162
93148W        W63748  27.066  38.544   0.449
93149W        W63749   1.094  23.667  12.248
93150W        W63750  33.631  23.755   3.417
93151W        W63751  36.825  12.469   4.140
93152W        W63752  41.373   8.251   2.777
93153W        W63753  43.761  15.595   4.526
93154W        W63754   4.337  23.590  11.898
93155W        W63755  17.197  40.326   1.980
93156W        W63756  25.177  31.897  13.842
93157W        W63757  43.402  38.298   3.165
93158W        W63758   5.630  24.388   3.827
93159W        W63759  40.855   9.821   4.742
93160W        W63760  10.269  37.440  12.344
93161W        W63761  22.059  25.102   5.009
93162W        W63762  39.258  29.718  12.552
93163W        W63763  22.605  35.440   3.711
93164W        W63764  40.380  34.377   4.685
93165W        W63765  17.719  23.928   3.710
93166W        W63766   3.959  13.500   3.189
93167W        W63767  16.848  25.807  12.056
93168W        W63768  11.320  25.263   4.464
93169W        W63769  40.379  31.346  13.977
93170W        W63770  36.906  25.724  13.309
93171W        W63771   7.319  31.647  10.858
93172W        W63772  12.193  26.645   4.624
93173W        W63773  12.637  11.881  14.237
93174W        W63774  17.493  18.611  10.415
93175W        W63775  43.344   3.150  12.796
93176W        W63776  20.569   1.451   0.413
93177W        W63777  35.021  24.617   4.509
93178W        W63778  18.264  30.383   4.235
93179W        W63779  43.728  42.997  10.664
93180W        W63780  43.722  43.828   0.960
93181W        W63781  34.028   5.890   3.849
93182W        W63782  26.154  31.113  12.437
93183W        W63783  38.340  27.576  12.625
93184W        W63784  19.691  34.382   4.663
93185W        W63785  31.447  16.674  13.040
93186W        W63786  17.113   6.572   1.620
93187W        W63787  28.993  11.266   0.212
93188W        W63788  34.788  43.921   1.889
93189W        W63789  23.059   9.867   2.776
93190W        W63790  18.319  13.278   2.109
93191W        W63791  21.500  41.260   1.869
93192W        W63792   0.248  32.260  13.962
93193W        W63793  39.945  17.153   0.741
93194W        W63794  26.508  42.985   4.200
93195W        W63795  11.577  12.753   3.232
93196W        W63796  38.758  43.805  14.267
93197W        W63797   2.182  12.895   3.289
93198W        W63798  11.722  40.763  11.231
93199W        W63799  43.584   6.021  11.533
93200W        W63800  22.713  27.932   3.237
93201W        W63801  43.678  43.451   2.666
93202W        W63802  17.361  18.965   3.239
93203W        W63803  15.391  27.632   0.500
93204W        W63804  26.363  37.557  13.986
93205W        W63805  33.987  36.235   1.343
93206W        W63806   6.670  27.501   2.681
93207W        W63807  11.096   9.160  13.855
93208W        W63808  27.000  31.471   2.314
93209W        W63809   8.653   6.542  12.480
93210W        W63810  16.085  30.814  13.647
93211W        W63811  20.079  15.827  10.616
93212W        W63812   7.890  18.149  13.526
93213W        W63813  38.525  37.905   3.251
93214W        W63814  36.694  24.479  11.390
93215W        W63815  13.775  17.974   4.090
93216W        W63816  40.032  15.113   3.303
93217W        W63817  16.339  34.959  12.649
93218W        W63818  16.069  14.756  11.260
93219W        W63819  17.768   2.135  13.864
93220W        W63820  32.567  19.504   0.792
93221W        W63821  29.598  25.715  13.519
93222W        W63822  42.424  30.889  10.380
93223W        W63823  22.131  18.842  13.169
93224W        W63824  19.562  37.414   2.820
93225W        W63825  39.157  23.114   1.164
93226W        W63826  43.754  29.683   0.460
93227W        W63827  38.822  35.310   4.521
93228W        W63828   2.370  33.426   1.566
93229W        W63829   6.391   5.694   2.230
93230W        W63830  20.136  43.935  14.055
93231W        W63831  30.726  10.626  11.844
93232W        W63832  42.851  21.523  10.918
93233W        W63833   5.491  11.332  11.118
93234W        W63834   3.338  12.890   4.545
93235W        W63835  35.041  41.525   1.245
93236W        W63836  28.971  30.112  13.790
93237W        W63837  39.822   9.392   4.062
93238W        W63838   3.684  32.965   0.151
93239W        W63839  20.003   1.830   3.686
93240W        W63840  16.613   9.726  11.266
93241W        W63841  34.257  17.979   3.427
93242W        W63842  10.944  14.221   0.428
93243W        W63843  31.241  40.049   4.021
93244W        W63844  40.896  34.153   2.120
93245W        W63845  24.953  23.888  12.845
93246W        W63846   9.944  20.478  11.443
93247W        W63847  34.392  25.022  10.736
93248W        W63848  22.268  36.111  11.580
93249W        W63849  24.754  25.107   4.707
93250W        W63850   5.786  22.616   0.585
93251W        W63851  12.813  40.048   4.125
93252W        W63852  20.745  32.511   2.726
93253W        W63853  28.496  33.381   0.713
93254W        W63854  38.274   8.620  14.962
93255W        W63855  20.053  19.784  11.648
93256W        W63856  38.508  11.893  13.317
93257W        W63857  37.805  32.999  14.341
93258W        W63858  24.953  15.404   2.315
93259W        W63859   4.820  21.787   0.830
93260W        W63860   1.872   2.345   2.088
93261W        W63861  24.222  20.823   1.445
93262W        W63862  41.945  12.113  14.102
93263W        W63863   3.344  21.032   3.803
93264W        W63864  30.677  33.117   3.333
93265W        W63865  11.941  38.973   0.337
93266W        W63866  16.316  28.477   2.122
93267W        W63867   2.664  24.108  10.802
93268W        W63868  20.125  10.372   0.772
93269W        W63869  39.094  32.582   2.610
93270W        W63870  33.425  21.975  14.197
93271W        W63871  15.100  21.292   1.408
93272W        W63872  34.119   6.608  13.811
93273W        W63873  44.369  28.711   3.230
93274W        W63874  23.099   2.666   3.754
93275W        W63875  22.634  21.061   2.145
93276W        W63876  37.142  28.182   4.907
93277W        W63877   4.265  26.409  12.429
93278W        W63878  32.321   7.394   0.756
93279W        W63879  28.519  23.262  14.010
93280W        W63880   3.705  17.680   2.941
93281W        W63881  29.855  44.353  14.454
93282W        W63882  29.132  21.535  12.064
93283W        W63883  31.015  39.230   3.572
93284W        W63884   7.633  20.129   1.316
93285W        W63885  17.165  42.296  10.164
93286W        W63886  35.618  31.449   4.566
93287W        W63887  14.142   9.429  11.650
93288W        W63888  25.984  24.172  12.661
93289W        W63889  44.880  26.068   4.146
93290W        W63890  39.135  23.638  14.264
93291W        W63891  17.180  18.541   2.329
93292W        W63892   8.844   4.894  11.893
93293W        W63893  11.394  26.503  12.442
93294W        W63894   5.841  32.531   1.309
93295W        W63895  26.556  33.862  13.134
93296W        W63896  16.987   9.865   4.129
93297W        W63897  22.591  36.985   2.356
93298W        W63898  17.867  15.382   4.648
93299W        W63899  39.917  16.848  11.132
93300W        W63900  27.031  18.726  12.646
93301W        W63901  32.145   2.448   2.907
93302W        W63902  19.911  11.706  11.218
93303W        W63903  14.803  44.273   0.824
93304W        W63904  38.134  13.235  11.074
93305W        W63905  18.976  39.793  11.916
93306W        W63906  35.596  19.483  10.587
93307W        W63907  15.637  21.653   2.813
93308W        W63908  21.366  36.031  14.324
93309W        W63909  15.069  11.136   3.756
93310W        W63910   5.882  18.321   2.841
93311W        W63911   3.813   6.596  10.606
93312W        W63912   1.274   2.500   0.388
93313W        W63913  36.865  12.883  13.828
93314W        W63914   1.186  36.924   3.900
93315W        W63915  39.970  16.510   1.850
93316W        W63916  42.430  18.029   2.475
93317W        W63917   3.413  13.060  12.046
93318W        W63918  20.193  21.806   1.409
93319W        W63919   0.834  28.825   2.390
93320W        W63920   7.171  20.319   3.700
93321W        W63921   6.669  43.914  12.415
93322W        W63922   6.477  26.867   3.664
93323W        W63923   3.924   3.226  13.070
93324W        W63924  44.687  16.258   1.369
93325W        W63925  10.491  34.832   0.448
93326W        W63926  38.987  41.947   1.293
93327W        W63927   3.252  27.479   4.626
93328W        W63928   8.647  13.654  10.656
93329W        W63929  44.300  42.142  10.091
93330W        W63930  13.815  43.669   2.225
93331W        W63931  28.428  39.394   0.184
93332W        W63932  16.687  31.888   3.706
93333W        W63933  23.746  26.062  10.638
93334W        W63934  23.753  10.249  12.890
93335W        W63935  20.609  21.032  14.466
93336W        W63936   0.441  20.776   4.073
93337W        W63937  26.049  29.190   0.889
93338W        W63938  10.576  33.847  10.410
93339W        W63939   0.334  17.803  10.683
93340W        W63940  15.197  44.588   0.982
93341W        W63941  38.155   1.898  11.499
93342W        W63942   6.257  19.047  12.085
93343W        W63943  44.860   9.763   0.533
93344W        W63944   4.826  40.982   0.089
93345W        W63945  12.847  20.696  13.308
93346W        W63946   6.238  28.133   3.620
93347W        W63947  29.623  13.897   2.444
93348W        W63948  24.014  29.268  12.414
93349W        W63949  41.976  27.056   1.153
93350W        W63950  18.339  13.978   4.625
93351W        W63951   7.817  22.943  14.405
93352W        W63952   1.852   9.446   3.762
93353W        W63953  26.596  35.110   0.238
93354W        W63954  34.568  21.007   1.064
93355W        W63955   3.150   4.220   0.256
93356W        W63956  26.869  44.775   1.863
93357W        W63957  33.236  15.478   2.938
93358W        W63958  14.153   9.586  13.902
93359W        W63959   2.672  31.425  12.081
93360W        W63960   5.641  32.047   0.465
93361W        W63961   6.195   0.312  10.570
93362W        W63962  30.190   8.715   2.461
93363W        W63963  38.890  18.340   1.459
93364W        W63964   7.124  30.214   3.717
93365W        W63965  19.297  35.609  12.628
93366W        W63966  16.334  43.286   0.271
93367W        W63967  28.584  13.932  13.814
93368W        W63968  20.997  22.734   4.254
93369W        W63969  38.394  21.606   4.132
93370W        W63970  11.258  30.187   0.327
93371W        W63971  40.473   4.053  12.175
93372W        W63972  34.099  17.311   1.710
93373W        W63973  15.762  36.117   0.572
93374W        W63974  32.324  37.416  10.684
93375W        W63975  34.372  32.578   2.780
93376W        W63976   8.307   8.134  14.835
93377W        W63977  41.370  16.690   0.863
93378W        W63978  39.131  22.147  11.199
93379W        W63979  43.489   9.758   3.189
93380W        W63980   3.704  12.177   3.459
93381W        W63981  33.926  33.176   1.718
93382W        W63982   8.056  27.286  11.544
93383W        W63983  14.521  14.650  14.302
93384W        W63984  26.097  41.993  13.530
93385W        W63985  19.057  34.407  11.193
93386W        W63986   0.363  20.670   1.255
93387W        W63987  38.057  10.342  12.064
93388W        W63988  33.583  42.008   0.307
93389W        W63989  32.469   7.797   0.368
93390W        W63990  26.962   9.232  13.523
93391W        W63991  20.939  33.604   3.681
93392W        W63992   4.328  17.038  14.420
93393W        W63993  11.029  17.462   4.846
93394W        W63994  16.272   1.940  13.894
93395W        W63995  37.374  39.359   1.217
93396W        W63996  25.307   2.466  13.845
93397W        W63997  29.148  32.945  13.128
93398W        W63998  23.947  40.237  10.563
93399W        W63999   2.451  30.632   3.205
93400W        W64000  21.554  26.185  13.748
93401W        W64001  39.841  10.208   1.394
93402W        W64002  42.320   4.630   0.479
93403W        W64003  33.485  29.148  10.802
93404W        W64004  29.165  44.300   4.189
93405W        W64005  18.303  24.003   4.316
93406W        W64006  17.164  26.730   3.584
93407W        W64007  15.914  37.979   3.137
93408W        W64008   2.961   6.093   1.807
93409W        W64009  27.521  12.130  12.493
93410W        W64010  27.629  43.899  12.551
93411W        W64011  22.290  28.358  10.421
93412W        W64012   9.553  13.691   3.362
93413W        W64013   2.722  24.130  12.048
93414W        W64014   2.982   6.427   1.356
93415W        W64015  29.056  42.049   1.031
93416W        W64016   5.888  37.841  13.021
93417W        W64017   8.902  14.887   0.392
93418W        W64018  41.435  41.033  14.526
93419W        W64019  14.218  19.108   0.376
93420W        W64020  35.154  13.308  10.853
93421W        W64021  19.269  16.502  13.181
93422W        W64022  41.367   1.913   2.391
93423W        W64023  20.678  15.422   2.214
93424W        W64024  32.134  32.891  11.134
93425W        W64025  42.899  11.240  14.428
93426W        W64026   5.120  34.359  13.002
93427W        W64027  20.682  32.421   4.898
93428W        W64028   2.261  19.506  14.544
93429W        W64029   6.471  10.962  13.225
93430W        W64030   4.397   9.736   2.651
93431W        W64031  16.075   0.228   3.396
93432W        W64032  17.180  11.870  12.182
93433W        W64033  35.874  44.700   4.199
93434W        W64034  25.751  42.433   4.662
93435W        W64035  25.465  23.111   3.870
93436W        W64036  14.351  38.962  14.087
93437W        W64037  32.385   5.930   4.722
93438W        W64038   4.323   3.471  11.582
93439W        W64039  28.649  19.774   4.504
93440W        W64040   6.985   6.329   2.355
93441W        W64041  38.444  24.332   1.861
93442W        W64042  17.183   8.680  11.213
93443W        W64043   8.728  14.492  11.783
93444W        W64044  28.948  11.739  11.576
93445W        W64045   2.660  18.397   0.842
93446W        W64046  28.538  14.697  10.665
93447W        W64047  31.019  37.974   1.303
93448W        W64048   7.920  27.030   0.472
93449W        W64049   9.803  22.263  12.030
93450W        W64050   0.899   0.715   5.171
93451W        W64051  24.460   0.013  11.964
93452W        W64052  29.199  23.779   0.064
93453W        W64053  41.364  17.385  13.916
93454W        W64054   1.307  16.950   2.322
93455W        W64055  15.279  41.277   4.142
93456W        W64056   5.974   5.615  13.918
93457W        W64057  22.689  42.519  11.573
93458W        W64058  11.615  28.725  12.824
93459W        W64059  16.849  41.898  12.969
93460W        W64060  13.067   3.240  13.445
93461W        W64061  15.235  17.632   1.881
93462W        W64062  39.863  17.821   4.713
93463W        W64063  21.267  40.938  11.923
93464W        W64064  39.546  41.280  11.216
93465W        W64065  25.991  32.553  12.527
93466W        W64066  16.585  35.832  12.850
93467W        W64067  20.844   7.098   2.258
93468W        W64068  25.154  27.652   2.139
93469W        W64069  27.500  13.559   1.964
93470W        W64070   0.190  16.725  11.624
93471W        W64071  16.017  26.202  12.059
93472W        W64072   2.013  35.440  13.858
93473W        W64073   0.925   7.714  14.325
93474W        W64074  13.259  25.924  12.698
93475W        W64075  15.852  19.194   4.102
93476W        W64076   5.533  26.478  14.305
93477W        W64077  15.812  41.869  10.713
93478W        W64078  34.723   4.936   1.411
93479W        W64079  20.250   5.392   3.382
93480W        W64080  27.242  27.400   1.791
93481W        W64081  16.764  31.186  14.315
93482W        W64082  34.543  44.276   2.769
93483W        W64083  29.119  32.502  11.307
93484W        W64084  23.227   7.270  12.918
93485W        W64085   0.319  14.398  12.925
93486W        W64086   3.276   8.919   0.863
93487W        W64087  33.536  17.055  11.033
93488W        W64088  16.976  25.211  13.506
93489W        W64089  28.148  40.401  10.680
93490W        W64090  15.952   6.362   4.929
93491W        W64091  31.450  10.741   4.538
93492W        W64092   7.273   0.457  14.419
93493W        W64093  31.313  42.495   2.190
93494W        W64094  41.966  12.728   1.754
93495W        W64095  31.612  15.036   0.260
93496W        W64096  29.417  37.931   1.307
93497W        W64097   6.614  27.936  13.126
93498W        W64098   0.607   3.492  14.176
93499W        W64099  24.161  23.265  10.574
93500W        W64100  44.265  11.758   3.896
93501W        W64101   4.213  28.071   1.927
93502W        W64102  43.672  24.431   2.263
93503W        W64103   9.801  42.233   2.759
93504W        W64104   7.736  43.643  14.788
93505W        W64105  29.095  36.329  14.821
93506W        W64106   7.190  30.126  12.930
93507W        W64107  14.595  29.253   3.167
93508W        W64108  42.792  19.552  14.781
93509W        W64109   2.455  10.077  11.921
93510W        W64110   7.422  25.166   1.414
93511W        W64111  13.922  22.779   3.720
93512W        W64112  31.524  30.405   2.427
93513W        W64113  23.256  38.009  10.383
93514W        W64114  22.975  16.807   2.243
93515W        W64115   8.121  40.531   3.399
93516W        W64116   1.420   4.194   0.902
93517W        W64117  28.965  12.323  11.074
93518W        W64118  30.364  37.440  10.102
93519W        W64119   8.858  19.300   3.270
93520W        W64120  42.388  25.591   4.437
93521W        W64121  23.004  37.618  11.944
93522W        W64122   8.153  39.563   1.090
93523W        W64123   1.951  19.550  12.383
93524W        W64124   9.759  35.015   1.426
93525W        W64125  35.341  42.197  11.281
93526W        W64126  42.940   6.868   3.104
93527W        W64127  23.403  30.742  12.133
93528W        W64128   0.174  33.640   1.512
93529W        W64129  16.564   6.963  13.965
93530W        W64130  16.291   5.888   3.163
93531W        W64131  36.097  33.058  10.765
93532W        W64132   2.903  34.350  12.061
93533W        W64133  43.866  29.163  12.501
93534W        W64134   0.901   2.866  10.614
93535W        W64135   2.426  43.792  12.969
93536W        W64136  35.567  16.008  14.921
93537W        W64137  23.660  11.459  14.869
93538W        W64138  38.813   6.674   3.137
93539W        W64139  40.411  41.788   2.262
93540W        W64140  35.996  33.253   3.718
93541W        W64141  36.065  38.071   0.877
93542W        W64142   7.477  22.493  11.089
93543W        W64143  40.368  29.202  10.642
93544W        W64144  32.559   2.707   3.407
93545W        W64145  33.424  34.119   1.383
93546W        W64146  43.029  31.636   4.201
93547W        W64147  25.536  36.269   1.356
93548W        W64148  23.203   0.908  13.403
93549W        W64149   4.823   6.526   0.510
93550W        W64150  19.742   1.106   0.402
93551W        W64151  14.161  35.629   4.964
93552W        W64152  25.733  14.030   0.225
93553W        W64153  34.056  24.248   4.577
93554W        W64154  37.117  23.756  11.570
93555W        W64155  14.411  12.880   3.263
93556W        W64156  23.738  35.899   1.070
93557W        W64157   2.814  12.893   1.782
93558W        W64158  28.718  16.875  12.842
93559W        W64159  12.362   3.192  12.938
93560W        W64160  32.719  37.495  13.483
93561W        W64161  14.614   3.198  12.942
93562W        W64162   1.647  24.527   1.367
93563W        W64163  14.433  24.088  10.523
93564W        W64164  42.269  28.515  12.440
93565W        W64165  17.089   2.803   2.623
93566W        W64166  14.716   5.387   4.268
93567W        W64167  34.118  13.537   1.806
93568W        W64168   5.365  29.466   3.802
93569W        W64169  32.084  11.697   1.924
93570W        W64170  42.070   3.217  10.714
93571W        W64171  18.759   2.468   0.821
93572W        W64172  40.773  34.899   4.914
93573W        W64173  26.430  35.194  11.132
93574W        W64174  43.299  38.470   0.293
93575W        W64175  27.387  31.413  13.474
93576W        W64176  18.682  44.477   3.245
93577W        W64177   3.208   5.861   3.386
93578W        W64178  16.330   3.946   0.326
93579W        W64179  18.080   5.773   2.212
93580W        W64180  22.104   4.006  14.033
93581W        W64181   9.630   4.516  14.899
93582W        W64182  27.731  13.400   3.363
93583W        W64183   9.626   2.422  13.466
93584W        W64184  18.729   0.847  11.065
93585W        W64185   5.374  43.734   3.229
93586W        W64186   5.834  38.861   4.781
93587W        W64187  30.089   1.593   2.398
93588W        W64188  42.608  11.723   1.192
93589W        W64189   9.612  28.597  13.074
93590W        W64190   4.652  27.808  10.748
93591W        W64191  32.784   2.742  11.104
93592W        W64192   1.545   3.401   2.309
93593W        W64193   4.403  26.237   3.151
93594W        W64194  43.845  37.052  11.124
93595W        W64195  41.527  32.107   2.251
93596W        W64196  24.508  39.664   0.248
93597W        W64197  26.514  20.749   4.432
93598W        W64198  12.650  16.220   2.641
93599W        W64199  20.130  30.615  13.353
93600W        W64200  14.091  12.068   1.645
93601W        W64201  15.369  11.130   3.339
93602W        W64202  12.236  37.945   4.760
93603W        W64203  11.095  28.662  12.904
93604W        W64204   6.689  18.333   4.527
93605W        W64205  26.367  39.570   2.028
93606W        W64206  33.647  27.249   2.357
93607W        W64207  20.706  22.109  13.138
93608W        W64208  43.913  30.390   0.856
93609W        W64209   3.003  16.580   3.134
93610W        W64210  26.927  25.970  14.557
93611W        W64211   8.750  15.373  10.319
93612W        W64212   8.693   5.439   2.693
93613W        W64213  23.998  10.252   4.004
93614W        W64214  26.565  39.032  14.561
93615W        W64215  43.322  16.236   2.881
93616W        W64216  13.623  11.793  11.118
93617W        W64217  28.013  23.787   4.760
93618W        W64218  34.545  24.050   4.521
93619W        W64219  10.178  24.962  12.502
93620W        W64220  36.757  18.326   0.364
93621W        W64221  33.021  21.540  11.252
93622W        W64222  25.151  42.132  12.616
93623W        W64223  38.047  39.814   0.090
93624W        W64224   4.537   2.357   0.766
93625W        W64225  37.400   3.013  14.921
93626W        W64226  43.727   1.425  14.327
93627W        W64227   2.362  27.181   4.535
93628W        W64228  37.034  11.146  14.791
93629W        W64229  26.347  44.990  13.622
93630W        W64230  17.452  10.503  13.783
93631W        W64231   1.151  40.014  13.345
93632W        W64232  29.435  24.423   3.763
93633W        W64233  39.356   8.142   3.306
93634W        W64234   7.867  41.396  14.299
93635W        W64235  19.111  37.445   0.454
93636W        W64236  38.309  19.533  13.347
93637W        W64237  38.852  11.211   3.136
93638W        W64238  36.909  32.622   3.372
93639W        W64239  43.370  22.064   0.401
93640W        W64240  26.984   5.983   2.693
93641W        W64241  44.939  35.100  14.121
93642W        W64242   5.712   2.400   0.012
93643W        W64243   7.904   4.321   2.156
93644W        W64244   5.361   4.466   1.283
93645W        W64245   1.713   9.680   0.286
93646W        W64246  23.874  17.648   4.655
93647W        W64247   9.344  39.770   0.034
93648W        W64248  27.457  30.443  14.997
93649W        W64249  11.670  42.906  13.459
93650W        W64250  16.742  16.261   4.089
93651W        W64251  29.723   5.103   2.020
93652W        W64252  32.934  43.695   0.807
93653W        W64253   6.508  38.865  13.989
93654W        W64254   4.335   9.459   2.226
93655W        W64255   7.726  30.592   2.267
93656W        W64256   4.964  14.290  13.840
93657W        W64257  19.850  12.281   2.936
93658W        W64258  35.803  10.720   4.858
93659W        W64259  19.029   0.424   3.142
93660W        W64260  15.328   6.346  10.972
93661W        W64261  42.404   1.766   3.355
93662W        W64262  44.183   7.801  13.559
93663W        W64263   7.569   2.919  11.349
93664W        W64264  23.932   3.016   1.348
93665W        W64265  33.047  38.721  12.879
93666W        W64266  37.960  14.684   1.862
93667W        W64267  28.358  44.066  14.288
93668W        W64268  20.057  11.479   2.415
93669W        W64269  26.631  31.199  12.594
93670W        W64270  34.421  30.165   2.322
93671W        W64271  13.153  19.562   3.286
93672W        W64272  10.342  26.231  12.157
93673W        W64273  19.068  24.065   5.003
93674W        W64274  30.667  20.499  10.612
93675W        W64275  12.858  12.840   0.005
93676W        W64276   8.403  20.307  14.890
93677W        W64277  18.560   6.915  10.978
93678W        W64278  29.277  17.730  14.477
93679W        W64279  35.059   1.814  13.288
93680W        W64280  36.295  44.829   4.491
93681W        W64281  28.870   4.742  11.346
93682W        W64282  29.014  10.862  10.691
93683W        W64283  31.154  32.083   2.359
93684W        W64284   2.969  39.735  14.578
93685W        W64285  34.815  22.134   3.426
93686W        W64286  23.409  13.394   4.194
93687W        W64287   9.062  35.309  13.413
93688W        W64288   3.148  37.254  10.690
93689W        W64289   4.232  26.962   2.509
93690W        W64290  21.152  11.338   2.291
93691W        W64291  14.338  10.313   1.817
93692W        W64292  36.045  26.075  14.022
93693W        W64293  22.079  10.258  13.346
93694W        W64294  33.785  22.958   1.350
93695W        W64295   9.990  44.729   0.883
93696W        W64296  24.856   5.987   0.986
93697W        W64297  22.116   0.035   9.637
93698W        W64298  35.834  10.603   1.131
93699W        W64299  16.776  32.391   3.676
93700W        W64300   5.404   2.993  10.610
93701W        W64301  31.015  44.565  14.897
93702W        W64302  17.593  43.275  10.386
93703W        W64303  20.796   5.290  14.931
93704W        W64304  11.207  39.946  12.872
93705W        W64305  22.039  31.388   0.524
93706W        W64306  36.946  11.786  12.301
93707W        W64307   4.962   1.871  11.286
93708W        W64308   2.454  34.930   0.474
93709W        W64309  12.818  36.535   2.846
93710W        W64310  22.051  33.528   0.032
93711W        W64311  39.592  40.364  12.487
93712W        W64312  26.211  28.594   3.703
93713W        W64313  10.379  14.723   3.596
93714W        W64314  15.627  32.131   1.230
93715W        W64315  41.223  37.663  10.971
93716W        W64316  11.859  44.480  14.787
93717W        W64317  44.908   0.906  11.003
93718W        W64318   8.180   4.138  12.138
93719W        W64319  31.565   8.575   1.756
93720W        W64320   0.853  22.055  11.612
93721W        W64321  15.457  32.345   3.602
93722W        W64322   1.534  42.020   4.138
93723W        W64323  35.219  37.592   4.025
93724W        W64324  31.378  41.147  14.403
93725W        W64325  39.046  27.095  11.677
93726W        W64326  24.045  33.979  12.502
93727W        W64327  13.516  39.007  10.178
93728W        W64328  41.951  28.946   5.011
93729W        W64329  28.090  30.666   1.227
93730W        W64330  27.412  26.030  14.844
93731W        W64331  28.424  41.958   3.754
93732W        W64332  26.782  33.107  14.940
93733W        W64333  43.721   0.472  13.884
93734W        W64334  10.882  18.716   0.369
93735W        W64335  29.369  40.676   3.490
93736W        W64336  26.145   7.241   3.316
93737W        W64337  43.599  31.537  13.900
93738W        W64338   2.488   9.427  11.125
93739W        W64339  13.382  33.162  12.115
93740W        W64340  29.070   8.309  11.143
93741W        W64341   0.807  13.361   0.488
93742W        W64342  44.554  12.377   0.816
93743W        W64343  25.118  14.276  10.698
93744W        W64344   0.333  31.716  14.011
93745W        W64345  42.780  14.062   2.172
93746W        W64346  23.560  13.786   2.907
93747W        W64347  41.933  27.161  13.880
93748W        W64348  17.780  39.850   4.223
93749W        W64349  36.453  18.726  14.811
93750W        W64350   0.885  28.963  13.486
93751W        W64351   3.349  23.753  10.697
93752W        W64352  15.637   0.315   0.012
93753W        W64353  35.879  17.869  10.713
93754W        W64354  26.772  17.309  10.343
93755W        W64355  36.476   6.893  11.638
93756W        W64356   8.676  34.537   3.713
93757W        W64357   3.883  35.401   1.693
93758W        W64358  21.184  21.026   3.168
93759W        W64359  23.665  30.414   0.349
93760W        W64360  23.289  38.240   4.523
93761W        W64361  42.619  35.965  13.275
93762W        W64362  33.639  39.980   0.644
93763W        W64363  40.571  21.156  14.910
93764W        W64364  10.752   1.305  11.864
93765W        W64365  32.095  21.497   0.302
93766W        W64366  42.031  30.029   0.376
93767W        W64367  13.232  16.301  12.864
93768W        W64368  20.480  14.332  13.914
93769W        W64369  42.486   3.704  14.309
93770W        W64370  24.060  44.867  11.265
93771W        W64371  31.841  29.205   1.218
93772W        W64372  30.067  17.563   3.561
93773W        W64373  35.082  28.714  12.076
93774W        W64374  12.453   7.323   2.775
93775W        W64375  42.562  23.741   2.384
93776W        W64376   0.437  43.551   4.704
93777W        W64377  42.840  32.110   2.665
93778W        W64378  26.108   3.108   3.304
93779W        W64379   2.938  44.319  13.348
93780W        W64380  16.159  35.509   3.163
93781W        W64381  24.069  24.659   4.676
93782W        W64382   7.391   6.772   0.424
93783W        W64383   8.532  23.579   4.058
93784W        W64384  29.391  14.836  13.577
93785W        W64385  13.283  19.266  10.993
93786W        W64386  32.092  13.163   2.758
93787W        W64387  30.402  28.146   2.264
93788W        W64388  16.660  12.160   4.654
93789W        W64389  23.688  39.765   2.890
93790W        W64390   3.386  34.589  10.118
93791W        W64391  38.365  26.429  11.525
93792W        W64392  40.136   2.153   3.636
93793W        W64393  44.272   5.191  14.119
93794W        W64394  30.881   7.622  13.915
93795W        W64395  42.944   4.720   2.616
93796W        W64396  22.970  35.539  13.591
93797W        W64397  41.748  33.881  10.994
93798W        W64398   8.387  25.595   3.564
93799W        W64399  26.032  21.331  11.563
93800W        W64400   8.763  11.782  12.588
93801W        W64401  32.053  15.618  11.893
93802W        W64402  16.107  11.820  11.626
93803W        W64403  20.993   5.829   4.738
93804W        W64404  29.697   5.911   4.640
93805W        W64405   4.434  14.794  11.411
93806W        W64406  30.177   2.814  14.423
93807W        W64407  10.558  12.243  12.155
93808W        W64408  13.701   7.308   4.491
93809W        W64409  11.483  29.539   3.532
93810W        W64410  36.570  41.389   2.843
93811W        W64411  34.054  27.441  12.468
93812W        W64412  14.648   6.895   0.947
93813W        W64413  30.617  31.274   1.970
93814W        W64414  19.158  33.191   2.846
93815W        W64415  28.763  44.862   1.246
93816W        W64416  10.638  29.131   3.423
93817W        W64417   9.086   9.746  11.956
93818W        W64418  43.430  41.118  13.022
93819W        W64419  20.761   8.854  14.220
93820W        W64420   4.405  16.625  12.560
93821W        W64421  28.520  24.147   1.122
93822W        W64422  36.942  41.218   4.636
93823W        W64423  44.414  12.170  12.866
93824W        W64424  11.222   0.098   3.794
93825W        W64425  28.595  35.405  13.377
93826W        W64426  40.942  30.884  13.982
93827W        W64427   1.347  42.527  12.148
93828W        W64428  23.712  34.085  11.145
93829W        W64429  16.000   1.207  11.139
93830W        W64430  24.390  35.014  12.043
93831W        W64431  16.365  22.960  11.946
93832W        W64432  33.937  34.910  10.405
93833W        W64433  13.396  21.640   0.188
93834W        W64434   3.102  33.979   1.468
93835W        W64435  22.116  21.459   1.077
93836W        W64436  40.496  20.945   4.287
93837W        W64437  14.112  18.992   4.775
93838W        W64438   7.506  15.843  14.381
93839W        W64439  20.008  36.064  12.752
93840W        W64440  40.466  24.492   2.285
93841W        W64441  21.850  16.130   0.438
93842W        W64442   4.018   2.729   4.257
93843W        W64443   3.831  27.077  14.301
93844W        W64444  28.062  18.298  12.093
93845W        W64445  34.097  25.156   1.743
93846W        W64446  42.342  36.613   3.273
93847W        W64447  43.785  43.484  11.490
93848W        W64448   4.728  38.086   2.668
93849W        W64449  23.246  18.736   2.599
93850W        W64450  20.138  43.751   1.221
93851W        W64451  24.282  26.080  10.680
93852W        W64452  42.773  44.440   1.107
93853W        W64453  22.490  35.564   0.783
93854W        W64454  30.741   7.323  11.838
93855W        W64455  30.199   0.831   3.740
93856W        W64456  27.157  30.644  14.653
93857W        W64457  12.618  25.512   1.238
93858W        W64458  43.408  32.002   4.256
93859W        W64459  31.021   3.394   3.599
93860W        W64460  28.853  29.597   2.237
93861W        W64461  37.567  40.509   0.053
93862W        W64462   5.440   0.267  14.257
93863W        W64463  27.700  11.148   4.174
93864W        W64464  25.580   6.292  13.817
93865W        W64465  29.378  41.923  14.728
93866W        W64466  42.980  24.016   3.118
93867W        W64467   8.693  23.250  14.833
93868W        W64468  39.259  42.047  13.303
93869W        W64469   7.759  31.962  14.371
93870W        W64470  42.779  44.039   1.920
93871W        W64471  18.403  36.931  10.732
93872W        W64472  30.784  30.032  13.161
93873W        W64473   9.806  28.270   4.106
93874W        W64474  14.366  24.832  11.172
93875W        W64475  43.349  36.585   4.070
93876W        W64476  33.420   0.949   4.579
93877W        W64477  30.073   7.087  14.826
93878W        W64478  31.870   8.396  13.467
93879W        W64479  15.226   8.372   3.639
93880W        W64480  39.269   5.835  12.849
93881W        W64481   1.474  20.612   1.841
93882W        W64482   2.758  10.950   3.883
93883W        W64483  23.283  32.476   1.368
93884W        W64484   2.480   9.668  11.569
93885W        W64485  36.581  35.382   3.271
93886W        W64486  34.846   2.307   2.794
93887W        W64487   9.950   3.732   2.019
93888W        W64488  39.932  28.931   1.689
93889W        W64489  14.668  36.853  13.452
93890W        W64490  41.002  22.350   2.898
93891W        W64491   8.195  38.394   4.122
93892W        W64492   1.931  13.587  13.790
93893W        W64493  29.875  42.553  11.586
93894W        W64494  36.165  39.053  12.055
93895W        W64495  36.499  27.252  14.892
93896W        W64496  19.647  22.234  13.756
93897W        W64497  19.786  36.420   4.681
93898W        W64498   5.783   7.299   3.080
93899W        W64499  33.378  22.520  12.693
93900W        W64500  20.569  32.873  12.372
93901W        W64501   0.694   5.289  13.391
93902W        W64502  29.436  35.528  11.884
93903W        W64503  19.634  39.722  13.196
93904W        W64504  24.676  27.517  12.501
93905W        W64505  23.029   5.240  11.553
93906W        W64506   4.117  25.028   2.103
93907W        W64507  19.621  16.436   1.118
93908W        W64508  21.550   0.958   0.205
93909W        W64509  38.078  18.180   0.707
93910W        W64510  35.017  37.656  11.980
93911W        W64511   1.025   0.432   4.710
93912W        W64512  14.186  20.378  14.938
93913W        W64513   0.425  31.211   3.085
93914W        W64514  30.990   0.998  10.657
93915W        W64515  34.802   9.558  10.713
93916W        W64516   5.732  12.581  10.583
93917W        W64517  21.575   7.126  13.008
93918W        W64518  36.350  32.246   2.373
93919W        W64519  32.986   2.515  13.382
93920W        W64520   9.364  25.980   4.201
93921W        W64521   0.964  35.996  11.970
93922W        W64522  28.092   6.833   2.701
93923W        W64523  24.470  30.489  11.676
93924W        W64524   5.689  14.722   3.672
93925W        W64525   5.976  11.241  11.213
93926W        W64526  40.153  30.045   3.578
93927W        W64527   5.237   2.784  13.803
93928W        W64528  10.697   7.984   4.861
93929W        W64529   3.864  44.007  13.058
93930W        W64530  30.496  22.984  11.903
93931W        W64531   0.364  29.596   4.145
93932W        W64532   7.608  14.790  12.581
93933W        W64533  11.750  17.329  12.427
93934W        W64534  23.683  42.980   4.615
93935W        W64535  41.245  27.044  10.613
93936W        W64536  39.004  36.360   1.487
93937W        W64537  44.781  20.776   0.859
93938W        W64538  12.849  10.277  11.649
93939W        W64539  10.281   8.236  12.143
93940W        W64540  36.333   4.871  11.690
93941W        W64541  11.366   4.218  13.170
93942W        W64542  31.461  38.315  12.689
93943W        W64543  26.690  36.033  10.137
93944W        W64544   4.417  28.741  14.957
93945W        W64545  31.654  10.653   3.605
93946W        W64546  34.344   7.275   0.427
93947W        W64547  20.624  39.068   1.695
93948W        W64548   0.316  32.863  11.192
93949W        W64549   1.331  43.969   4.111
93950W        W64550  44.289  20.959  11.531
93951W        W64551  18.302  26.964  14.513
93952W        W64552  22.727   4.737   1.344
93953W        W64553   5.457  26.628  11.878
93954W        W64554  26.719  11.651   5.032
93955W        W64555  35.389  26.551  12.690
93956W        W64556  13.151  13.329   0.531
93957W        W64557  29.473  11.676  10.763
93958W        W64558  21.849  26.517   4.534
93959W        W64559  32.528  29.944  12.535
93960W        W64560  18.112  26.046  12.535
93961W        W64561  41.897  39.714   3.209
93962W        W64562  21.525  36.858  12.336
93963W        W64563  25.680  43.309  11.788
93964W        W64564  17.776  39.386  12.464
93965W        W64565  28.089   5.466   2.435
93966W        W64566  36.813   4.409  11.137
93967W        W64567   4.947  40.494   0.043
93968W        W64568  15.329  12.408   5.088
93969W        W64569  14.187  33.061  13.468
93970W        W64570  12.244   5.337   0.554
93971W        W64571  18.360  36.099   1.860
93972W        W64572  40.353   1.717   1.376
93973W        W64573  30.492  39.350  10.743
93974W        W64574   0.988  27.154   3.879
93975W        W64575   1.418  32.594  12.553
93976W        W64576  42.973   3.637  10.339
93977W        W64577  11.199  30.671  14.856
93978W        W64578  11.209  37.640   1.150
93979W        W64579  32.702   6.476   0.789
93980W        W64580  21.103   2.952  13.006
93981W        W64581  23.212   7.979  12.519
93982W        W64582   4.903   0.932   0.111
93983W        W64583  30.558  17.642  13.862
93984W        W64584  25.580   3.997   0.078
93985W        W64585  14.220  32.485  11.982
93986W        W64586  26.773  35.757   0.741
93987W        W64587  17.279  43.667  14.724
93988W        W64588  39.338   8.699  12.940
93989W        W64589  25.270  35.406   1.210
93990W        W64590   6.372  33.522  13.551
93991W        W64591   9.122  23.684  11.636
93992W        W64592  21.524  44.223  11.604
93993W        W64593  12.724  44.364   0.307
93994W        W64594   5.207  14.804   3.316
93995W        W64595  12.095  35.971   0.086
93996W        W64596   5.637   9.357   0.925
93997W        W64597  20.030  40.417   3.182
93998W        W64598  17.715  18.518   1.738
93999W        W64599  12.680   1.871  12.892
94000W        W64600   5.745  43.980  10.547
94001W        W64601  24.602  12.452   1.484
94002W        W64602  37.432  34.454  14.108
94003W        W64603   5.831  41.572   2.324
94004W        W64604  29.835  18.273   4.637
94005W        W64605  44.850  32.314   3.891
94006W        W64606  39.042  29.496   1.965
94007W        W64607  21.290   9.233   0.888
94008W        W64608  18.062  37.680  14.576
94009W        W64609  32.947   0.496   4.130
94010W        W64610  39.535  16.919  14.830
94011W        W64611  14.484   1.732  11.641
94012W        W64612  36.080  25.917   0.921
94013W        W64613  11.118   9.997   2.965
94014W        W64614  12.438   9.686  11.170
94015W        W64615  40.604  20.577   4.604
94016W        W64616  17.153  43.698  11.629
94017W        W64617  21.806  22.949  14.714
94018W        W64618  24.251  14.474   2.773
94019W        W64619  29.601   8.294   2.257
94020W        W64620   1.309  33.176   1.379
94021W        W64621  17.285   9.877   2.760
94022W        W64622   6.602  26.037   0.928
94023W        W64623  31.632   0.299   2.777
94024W        W64624  43.817  11.141   1.242
94025W        W64625  10.161  39.571   3.824
94026W        W64626  38.880  36.910  10.886
94027W        W64627  35.337  15.270  14.426
94028W        W64628  39.565  22.033   3.860
94029W        W64629  22.469  26.971   3.394
94030W        W64630  20.253  25.930  12.182
94031W        W64631  40.718   7.918  11.414
94032W        W64632   1.352   8.878  11.777
94033W        W64633  34.855  11.257   3.038
94034W        W64634   7.865  43.213   2.734
94035W        W64635  10.378  43.897  14.175
94036W        W64636   6.166   0.023  14.912
94037W        W64637  34.692   9.075  10.596
94038W        W64638  33.739  31.531   1.758
94039W        W64639  39.006  40.896   2.437
94040W        W64640  17.649  35.595  14.365
94041W        W64641  35.171  19.543  10.304
94042W        W64642  10.771  24.948   4.793
94043W        W64643  26.694   4.267   4.892
94044W        W64644  19.206  38.423   0.538
94045W        W64645  32.368  32.620  11.530
94046W        W64646  30.469  25.574  14.061
94047W        W64647   3.414  29.259  11.552
94048W        W64648  37.451  43.774   1.751
94049W        W64649  43.466  24.649  14.291
94050W        W64650  18.230   8.058   3.670
94051W        W64651  32.121   4.870  11.278
94052W        W64652  36.440  12.869   0.021
94053W        W64653  35.406  21.471   4.499
94054W        W64654  40.054  38.542   2.667
94055W        W64655   6.755  41.434   2.679
94056W        W64656  35.297  14.540  12.443
94057W        W64657  14.838  34.157   0.831
94058W        W64658  18.022  41.246   4.055
94059W        W64659   5.676   0.613   2.143
94060W        W64660  29.987   7.387   4.676
94061W        W64661  13.654  23.129   4.334
94062W        W64662  41.444  31.344   0.879
94063W        W64663  43.627  31.651   0.108
94064W        W64664   2.342  41.565   1.846
94065W        W64665  20.800   2.010  13.883
94066W        W64666  35.300  34.939  11.962
94067W        W64667  23.075  20.926  12.961
94068W        W64668  18.621  15.585   0.407
94069W        W64669   5.402  31.646   4.111
94070W        W64670  35.550   4.148   2.802
94071W        W64671  18.074  32.596  13.017
94072W        W64672  15.670  32.660  10.670
94073W        W64673  12.708  17.767   2.887
94074W        W64674  20.126  27.027   0.933
94075W        W64675  12.435  41.438  11.993
94076W        W64676  12.188  32.871  10.653
94077W        W64677  37.377  23.166  13.866
94078W        W64678   3.479   7.144   0.442
94079W        W64679  13.139  25.269   1.373
94080W        W64680  25.927   8.454   1.381
94081W        W64681  38.637  37.130  13.923
94082W        W64682  40.849  17.653   3.592
94083W        W64683   1.361  17.064  12.977
94084W        W64684  15.039  39.065  10.688
94085W        W64685  39.365  10.353   4.122
94086W        W64686  16.251  25.152   0.432
94087W        W64687   0.057  28.919  14.916
94088W        W64688  26.932   1.389   3.714
94089W        W64689  42.327   6.467   5.139
94090W        W64690  10.594  22.612  12.071
94091W        W64691  34.441  33.605  12.928
94092W        W64692  10.178  11.444   4.143
94093W        W64693  18.613  30.160   5.083
94094W        W64694  36.437  26.214  11.190
94095W        W64695  11.067  11.146   2.682
94096W        W64696   0.496  24.738  13.069
94097W        W64697  40.651   4.753  14.367
94098W        W64698   6.296  14.381  10.741
94099W        W64699  30.791  18.191   4.973
94100W        W64700  10.040  27.100   4.326
94101W        W64701  40.585   2.213  13.018
94102W        W64702   1.313  42.380   2.872
94103W        W64703  14.195  39.339  10.666
94104W        W64704  41.424   6.210   1.691
94105W        W64705  31.022  10.971   1.800
94106W        W64706  31.545   3.237  13.842
94107W        W64707  31.559  42.857   2.469
94108W        W64708  42.865  21.462  13.318
94109W        W64709  34.281  35.860  11.183
94110W        W64710  36.023  27.669   3.280
94111W        W64711  14.052  43.571   2.677
94112W        W64712  15.748  15.564   3.215
94113W        W64713  32.032   0.740  10.212
94114W        W64714  33.899  30.108   2.203
94115W        W64715  11.774  11.603   4.627
94116W        W64716  19.699  35.355  11.179
94117W        W64717   3.865   6.085  11.516
94118W        W64718  16.622  18.043   3.572
94119W        W64719   8.783  34.697   5.004
94120W        W64720  28.071  23.297   1.168
94121W        W64721  31.352   6.907  12.891
94122W        W64722  17.878  16.757  13.089
94123W        W64723  42.624   7.437   4.075
94124W        W64724  13.250  44.403   0.470
94125W        W64725  30.977  40.706   4.574
94126W        W64726  24.140  37.785  14.464
94127W        W64727  23.174   1.523   2.232
94128W        W64728  12.772   5.746  10.813
94129W        W64729   7.846   3.975   0.934
94130W        W64730  32.567  42.570   0.983
94131W        W64731   4.858  22.235   3.673
94132W        W64732  25.556  24.576   3.562
94133W        W64733   4.800  23.438  14.594
94134W        W64734  23.689   8.706   2.134
94135W        W64735   0.155   5.353  13.111
94136W        W64736  38.823  38.168   4.257
94137W        W64737   6.641  24.864  13.351
94138W        W64738  31.913  38.328  11.961
94139W        W64739  35.166  36.608  14.935
94140W        W64740  41.361   6.414  11.443
94141W        W64741  40.956  25.927   4.254
94142W        W64742  10.168  31.944   3.812
94143W        W64743   4.268  19.541  11.423
94144W        W64744   8.591  29.358  10.978
94145W        W64745  37.601  18.202  14.805
94146W        W64746  34.059  36.866  12.887
94147W        W64747   3.252  18.141  13.802
94148W        W64748  19.991  39.013  12.942
94149W        W64749  29.680  43.460  11.267
94150W        W64750  32.957  38.024   2.368
94151W        W64751  33.311  10.726  14.377
94152W        W64752  35.426  43.586   1.449
94153W        W64753   4.911  43.568  11.467
94154W        W64754  42.336  21.529  13.399
94155W        W64755  12.542  32.377  13.860
94156W        W64756   3.404   5.513  12.002
94157W        W64757  44.527  10.001  13.578
94158W        W64758  19.749  15.532   4.598
94159W        W64759  43.879   0.182   0.771
94160W        W64760  30.635   2.130  14.833
94161W        W64761  31.342  13.705   0.281
94162W        W64762  31.923  14.764  11.178
94163W        W64763  26.758  31.119  14.824
94164W        W64764  29.651   0.420   2.926
94165W        W64765   9.853  37.539   1.362
94166W        W64766   6.486  22.573   3.683
94167W        W64767  32.006   7.408  12.448
94168W        W64768  22.018  34.547  10.621
94169W        W64769  43.046  18.940  12.535
94170W        W64770   5.252  22.840  10.982
94171W        W64771  38.889  44.057  12.534
94172W        W64772  40.567  31.660   0.357
94173W        W64773  14.724   5.035   1.942
94174W        W64774  18.761  17.460   4.205
94175W        W64775  20.604  18.418   0.844
94176W        W64776  13.420  11.328  11.383
94177W        W64777  19.490  12.705   2.911
94178W        W64778  17.181  34.160   2.302
94179W        W64779   0.870  26.282   1.366
94180W        W64780  12.866   7.274  13.322
94181W        W64781   0.960   4.988   1.612
94182W        W64782   1.739   4.996   4.004
94183W        W64783  26.917   3.467  10.579
94184W        W64784  26.328  19.581  12.329
94185W        W64785  43.359  20.530  11.564
94186W        W64786   8.158  35.593  14.408
94187W        W64787   7.248  10.152  12.970
94188W        W64788  22.256  28.666  13.024
94189W        W64789  26.987  22.621   0.304
94190W        W64790  14.156  22.760   4.190
94191W        W64791  10.240  28.017   0.037
94192W        W64792  27.436  18.016   4.194
94193W        W64793  39.824   5.578   4.095
94194W        W64794   2.523  20.126  13.122
94195W        W64795  32.350  22.697   9.995
94196W        W64796   0.017  40.652  13.603
94197W        W64797  20.206  14.830  12.335
94198W        W64798  12.741   0.974  12.808
94199W        W64799  34.928   4.399  13.385
94200W        W64800  25.226  28.500  12.540
94201W        W64801  42.126  24.933   3.789
94202W        W64802  11.633  34.968  12.862
94203W        W64803  22.020  20.933   2.883
94204W        W64804   2.370  17.929  11.931
94205W        W64805  25.541   0.854  10.292
94206W        W64806   6.267  18.553   1.363
94207W        W64807  23.770  10.564  13.583
94208W        W64808  19.237   2.271   5.053
94209W        W64809  16.136   4.126   2.369
94210W        W64810  31.232  26.598  12.223
94211W        W64811  29.471   5.657   1.623
94212W        W64812   7.197   6.021   4.224
94213W        W64813  31.558  18.003   4.411
94214W        W64814  27.015  15.266   3.848
94215W        W64815   6.156  40.103  12.036
94216W        W64816   2.991   5.649   0.338
94217W        W64817  42.429  13.833   0.716
94218W        W64818  12.279   1.836  11.129
94219W        W64819  24.596   3.048  14.384
94220W        W64820   9.155  29.818   4.892
94221W        W64821   0.220  25.274   2.761
94222W        W64822  37.970  35.872  10.906
94223W        W64823   6.113   6.841   0.901
94224W        W64824  22.210  32.571  14.821
94225W        W64825   2.449  13.605   1.851
94226W        W64826   7.473   5.803  13.042
94227W        W64827  32.597  11.976   4.380
94228W        W64828  28.876   2.040   1.920
94229W        W64829   7.493  32.484  13.882
94230W        W64830  23.053   3.049   0.562
94231W        W64831  31.400  36.635  11.407
94232W        W64832  25.589  34.621   0.762
94233W        W64833  11.731  23.538  13.843
94234W        W64834  19.080   2.472  13.873
94235W        W64835  34.995  18.752   1.118
94236W        W64836  30.870  41.841   1.719
94237W        W64837  22.190  16.069  14.821
94238W        W64838  22.530  23.121   0.319
94239W        W64839  21.226   5.434  12.150
94240W        W64840  22.514  41.392  10.942
94241W        W64841  25.588  11.577  11.209
94242W        W64842  40.619   0.079   3.759
94243W        W64843  23.601  24.627  10.702
94244W        W64844  10.800  38.957   4.201
94245W        W64845   9.210   3.073   0.970
94246W        W64846   4.407   1.237   2.143
94247W        W64847   5.617  29.532  12.860
94248W        W64848  34.941  26.427  11.598
94249W        W64849  42.979  38.550  13.932
94250W        W64850  30.900   0.345   0.498
94251W        W64851  28.508  18.317   4.921
94252W        W64852  25.029   1.413  11.903
94253W        W64853  20.787  16.686  13.365
94254W        W64854   8.268  42.294  12.424
94255W        W64855  12.651  40.510  14.895
94256W        W64856   8.157  35.679  12.117
94257W        W64857  18.727  28.742  14.584
94258W        W64858  37.879  25.502   4.689
94259W        W64859  15.091   7.175  10.535
94260W        W64860  37.023  22.693  10.442
94261W        W64861   6.800   0.701  14.326
94262W        W64862  40.602  41.288  11.986
94263W        W64863  14.772  40.568   5.032
94264W        W64864  37.475  15.183  12.615
94265W        W64865  40.876  20.037   2.396
94266W        W64866   4.723   7.900   3.742
94267W        W64867  16.338  43.759   0.502
94268W        W64868   7.193   3.367   3.827
94269W        W64869  11.342  20.556   2.801
94270W        W64870  43.268  17.012   1.454
94271W        W64871  34.103  19.318  14.735
94272W        W64872   0.312  14.592   2.904
94273W        W64873  39.572  20.005  12.943
94274W        W64874  31.173  15.257  13.928
94275W        W64875   2.847   3.660  14.520
94276W        W64876  16.065  30.542  10.992
94277W        W64877  39.277   0.482   0.963
94278W        W64878   9.390  15.611  11.529
94279W        W64879  35.631   2.421  12.404
94280W        W64880   6.154  40.788   4.086
94281W        W64881  35.867   3.729  12.107
94282W        W64882  43.299  27.770   1.431
94283W        W64883  31.866   9.870  14.998
94284W        W64884  35.576   5.951  13.517
94285W        W64885  10.541  21.870   4.081
94286W        W64886  23.672   7.348   1.315
94287W        W64887   5.731   8.086  11.790
94288W        W64888  20.014  14.405   3.897
94289W        W64889  41.060  18.701   2.825
94290W        W64890  16.617  27.161   0.028
94291W        W64891  29.051  14.410   4.761
94292W        W64892  10.253  30.970   1.299
94293W        W64893   9.351  17.650  14.223
94294W        W64894  26.671  35.115  12.983
94295W        W64895  41.821  22.586   2.362
94296W        W64896  26.625  39.934   2.353
94297W        W64897  33.488  18.990   1.870
94298W        W64898  34.993  19.264   4.261
94299W        W64899   1.412  32.099   4.609
94300W        W64900   6.709  14.597   0.957
94301W        W64901   6.846  11.087   3.322
94302W        W64902  28.343  43.540   1.883
94303W        W64903  27.137   2.817   2.207
94304W        W64904  14.337  20.616   4.601
94305W        W64905   5.883  25.809  13.018
94306W        W64906  44.915  24.010  13.721
94307W        W64907  34.750  16.053  11.583
94308W        W64908  31.452   8.087  13.410
94309W        W64909  36.012  26.346  12.577
94310W        W64910  24.926  32.125  14.680
94311W        W64911  23.662   3.889  10.703
94312W        W64912  14.623  31.834   1.354
94313W        W64913  22.667  16.911   3.103
94314W        W64914   8.513  27.951   0.419
94315W        W64915  44.309  26.692  14.835
94316W        W64916  10.403  11.079   3.193
94317W        W64917  19.533  43.684  14.413
94318W        W64918  42.470  30.319  11.627
94319W        W64919  28.056  21.064  13.128
94320W        W64920  27.748  30.607  10.294
94321W        W64921  40.398  11.416   1.331
94322W        W64922   1.997  18.167   4.171
94323W        W64923  42.695  11.303  13.816
94324W        W64924  14.611  25.309  13.328
94325W        W64925   7.671  21.331  11.624
94326W        W64926   9.075  20.648  14.286
94327W        W64927  14.671  31.570   3.428
94328W        W64928   1.866  41.622   4.845
94329W        W64929  10.774   2.683   1.451
94330W        W64930  21.441   7.672  12.098
94331W        W64931  30.945  12.151  12.999
94332W        W64932  23.796  21.689  14.118
94333W        W64933   0.772  21.928   2.841
94334W        W64934   3.773  15.055  11.578
94335W        W64935  32.625  15.036  14.812
94336W        W64936  38.015  18.172  10.196
94337W        W64937  38.897  22.728   3.545
94338W        W64938  33.323  42.946   4.581
94339W        W64939  21.611  16.892   4.664
94340W        W64940  12.638  16.799  12.433
94341W        W64941  29.441  35.966  11.595
94342W        W64942   7.763  14.624   3.255
94343W        W64943   9.052  11.933   0.885
94344W        W64944  11.245  20.138  11.390
94345W        W64945  24.002  20.375   3.388
94346W        W64946  26.887  39.331   2.042
94347W        W64947  26.366  39.843  13.405
94348W        W64948   1.275  21.485   3.444
94349W        W64949  13.491  44.858   3.487
94350W        W64950  20.499  33.595  10.557
94351W        W64951  24.600  37.400   4.181
94352W        W64952  19.775  22.919   5.129
94353W        W64953  12.371  19.730   1.998
94354W        W64954  21.304  22.805  12.542
94355W        W64955  37.422  44.860   2.888
94356W        W64956  14.136  19.829  14.011
94357W        W64957  20.579  17.641  11.518
94358W        W64958  25.078  39.063  13.245
94359W        W64959  17.483   2.461  11.115
94360W        W64960  21.030  21.138   0.571
94361W        W64961  29.981  33.377  11.195
94362W        W64962  25.298  16.630  13.008
94363W        W64963   5.766   8.301   4.121
94364W        W64964   3.960   4.761  13.819
94365W        W64965  28.539  28.628   1.321
94366W        W64966  36.624  16.716   1.037
94367W        W64967   7.925  27.624  12.028
94368W        W64968  21.222  21.582   0.775
94369W        W64969   5.620  41.421   4.655
94370W        W64970  24.217   1.214  13.470
94371W        W64971  44.683   8.347  14.728
94372W        W64972  21.523  34.507  10.815
94373W        W64973  18.736  22.684  13.363
94374W        W64974  28.498  22.574   2.339
94375W        W64975   9.930   2.942  11.666
94376W        W64976  25.317  24.517   0.841
94377W        W64977  26.667  39.043  10.836
94378W        W64978  22.490  23.121   4.125
94379W        W64979   7.400  30.553   1.837
94380W        W64980  20.600  13.715   3.920
94381W        W64981  13.608   6.322   0.004
94382W        W64982   4.407  43.891  12.335
94383W        W64983  33.468   2.398   0.758
94384W        W64984   2.363  40.578   3.291
94385W        W64985   9.740  44.500  14.254
94386W        W64986   0.410  22.697   0.933
94387W        W64987  13.804  28.980  14.916
94388W        W64988  32.103  24.002   4.585
94389W        W64989   8.305  39.518  11.188
94390W        W64990  28.658  22.520   3.183
94391W        W64991  14.702  34.401  13.389
94392W        W64992  42.516  10.778  13.860
94393W        W64993  24.285  31.986  12.439
94394W        W64994  17.033  24.534  14.015
94395W        W64995  21.816  31.919  11.260
94396W        W64996  32.969  37.050  13.550
94397W        W64997   0.581   4.411   2.144
94398W        W64998  41.295  17.275   2.805
94399W        W64999  25.777  37.483   1.800
94400W        W65000   6.916  36.072   1.453
94401W        W65001  16.139  27.968   4.553
94402W        W65002   0.528  44.282  10.957
94403W        W65003   7.427  29.075  12.114
94404W        W65004   1.837  42.501  14.358
94405W        W65005   3.622  35.873  12.972
94406W        W65006  12.442  28.250   1.047
94407W        W65007  16.346   1.067   2.917
94408W        W65008  43.888  22.234  13.061
94409W        W65009   0.856  20.327  13.076
94410W        W65010  16.273   3.669   2.632
94411W        W65011  24.140   9.665   1.217
94412W        W65012  11.159  28.470  12.418
94413W        W65013  35.785  33.544   4.111
94414W        W65014   1.476  27.045  13.399
94415W        W65015  12.246  19.749   0.974
94416W        W65016  43.724  36.779  13.021
94417W        W65017   0.046  10.905   4.061
94418W        W65018  35.058   3.621   1.332
94419W        W65019  27.025  37.966   1.615
94420W        W65020  10.699   3.855  13.812
94421W        W65021  39.566  39.916  14.860
94422W        W65022   8.308  22.074  13.544
94423W        W65023  21.265   2.717  13.460
94424W        W65024   7.346  21.785  12.663
94425W        W65025  39.934  26.953  11.985
94426W        W65026   2.726  17.212   1.442
94427W        W65027  19.284  37.634   1.761
94428W        W65028  38.073  36.114  12.815
94429W        W65029  16.721  33.926   4.537
94430W        W65030   0.302  23.555  13.441
94431W        W65031  38.125  34.326   1.324
94432W        W65032  44.472  14.908   0.724
94433W        W65033  12.401   7.153   4.606
94434W        W65034  22.120  25.641  14.601
94435W        W65035  29.174  33.621  13.505
94436W        W65036   6.434  44.391   0.355
94437W        W65037  41.580  10.876   1.830
94438W        W65038  16.812  17.018  14.523
94439W        W65039  21.632  14.277  10.325
94440W        W65040  38.304  33.564   1.205
94441W        W65041   3.045  24.907   1.373
94442W        W65042  29.168   3.335  13.817
94443W        W65043   6.060  17.244   3.796
94444W        W65044  33.491  43.956  12.054
94445W        W65045  31.992   5.195  10.898
94446W        W65046  10.654   2.264   0.291
94447W        W65047  16.682   7.280  14.480
94448W        W65048  21.103  12.811   3.587
94449W        W65049  15.924  42.525  14.897
94450W        W65050  33.552  21.960   2.867
94451W        W65051  35.057  15.525   3.550
94452W        W65052  10.717  17.896  13.560
94453W        W65053  10.231  34.864   1.260
94454W        W65054  29.233  31.545   0.856
94455W        W65055   0.329  44.937  12.506
94456W        W65056   2.252  21.142  10.491
94457W        W65057  34.883  38.899  10.689
94458W        W65058   5.483  25.310  14.894
94459W        W65059  34.394  42.842   1.379
94460W        W65060  38.298   4.461  13.822
94461W        W65061   8.043  33.907   3.314
94462W        W65062  31.387  42.967  10.862
94463W        W65063  19.169  21.301  13.590
94464W        W65064  39.290  37.854  14.940
94465W        W65065   8.956  32.420   2.396
94466W        W65066  18.950   4.959   1.733
94467W        W65067  28.152  22.307  13.182
94468W        W65068   7.811   8.159   3.249
94469W        W65069  18.826  40.288  11.089
94470W        W65070   9.127  31.857  12.016
94471W        W65071  27.431   5.548  11.198
94472W        W65072  41.696  39.038   2.844
94473W        W65073   1.967  44.341   4.551
94474W        W65074  14.782  44.895   3.107
94475W        W65075  41.355  28.290  11.413
94476W        W65076  42.887  26.659  12.780
94477W        W65077   9.457  24.202   4.565
94478W        W65078  12.644  39.245   4.420
94479W        W65079  14.704  11.267  14.083
94480W        W65080  43.630  37.130   2.411
94481W        W65081  39.488  17.233   3.388
94482W        W65082   3.965   7.061   0.289
94483W        W65083  13.689  24.027  13.886
94484W        W65084  21.796  29.984  12.966
94485W        W65085  26.504  17.755   3.299
94486W        W65086  30.820  23.155   2.610
94487W        W65087  19.632  22.141  10.924
94488W        W65088   5.353  16.687  14.473
94489W        W65089  17.554  17.603  14.072
94490W        W65090   1.280  36.945   1.493
94491W        W65091  16.974  44.038  13.437
94492W        W65092   4.348  36.870   2.230
94493W        W65093   8.687  29.600  12.828
94494W        W65094  37.445   3.764  13.490
94495W        W65095   9.171  41.313  11.443
94496W        W65096  11.484  10.207   5.098
94497W        W65097   3.429  12.956  13.803
94498W        W65098  39.284  26.002  11.083
94499W        W65099   2.497  32.049  11.049
94500W        W65100   2.404  34.964   1.906
94501W        W65101  17.580  17.114   4.258
94502W        W65102  27.926  22.131   1.939
94503W        W65103   0.538   9.069  11.089
94504W        W65104  44.844  33.752   2.832
94505W        W65105  16.818  22.928  13.363
94506W        W65106   6.181   0.296  13.543
94507W        W65107  36.984  25.521   1.928
94508W        W65108  22.351   4.773   2.314
94509W        W65109  30.207   3.936  13.845
94510W        W65110  36.080  24.600  11.953
94511W        W65111  26.850  30.637   1.795
94512W        W65112   6.247  12.785   0.468
94513W        W65113  37.150  38.011   3.561
94514W        W65114   2.456  22.617   4.232
94515W        W65115   8.731  23.160   2.214
94516W        W65116   4.322  36.079   4.042
94517W        W65117  11.948  36.770   4.669
94518W        W65118  34.000  33.896  12.864
94519W        W65119  23.237   6.135   2.388
94520W        W65120  12.190  12.159   1.489
94521W        W65121   1.364  34.396   4.262
94522W        W65122  38.119   2.994   1.749
94523W        W65123   8.099  12.030  14.690
94524W        W65124   4.827  22.472  10.413
94525W        W65125  29.805  30.880  12.827
94526W        W65126  14.845  35.413  10.248
94527W        W65127  17.197  12.218   4.818
94528W        W65128  16.640  21.955  10.651
94529W        W65129   9.881  35.889  12.619
94530W        W65130  44.570   2.296  14.628
94531W        W65131  44.287  32.983   1.935
94532W        W65132  36.129  17.860  12.428
94533W        W65133  29.701   0.517   4.280
94534W        W65134  35.596  12.738   0.465
94535W        W65135  23.237  11.692   2.547
94536W        W65136  20.674  32.741   1.306
94537W        W65137  28.953  21.959   0.430
94538W        W65138  37.885  24.732   2.226
94539W        W65139  37.094  19.228  12.834
94540W        W65140   2.395  39.050  12.438
94541W        W65141   3.865  23.632   4.970
94542W        W65142  16.305  33.226   3.713
94543W        W65143  30.663  28.722   0.464
94544W        W65144   2.983  38.339  11.041
94545W        W65145  11.076   5.978  13.446
94546W        W65146  33.130  15.134  14.910
94547W        W65147  12.297   5.324   4.088
94548W        W65148  42.858  17.584  14.012
94549W        W65149  17.218  40.056   2.956
94550W        W65150  11.117  33.834  13.063
94551W        W65151   5.725  26.393  13.817
94552W        W65152  13.632  38.456   0.891
94553W        W65153  13.774  26.670  12.633
94554W        W65154  37.460  27.093  12.194
94555W        W65155  44.291   3.893   1.342
94556W        W65156  39.446  26.021  14.516
94557W        W65157  43.781  15.216   1.299
94558W        W65158   7.328  27.504  11.185
94559W        W65159  16.771  26.615  12.370
94560W        W65160  19.644  33.028   4.631
94561W        W65161  22.510  42.667   5.082
94562W        W65162  27.123  42.608   0.810
94563W        W65163  30.365  14.764   4.081
94564W        W65164  31.777   1.400   4.564
94565W        W65165   7.648  27.477  14.971
94566W        W65166  24.762  27.425  11.142
94567W        W65167   2.382  14.006   2.638
94568W        W65168  44.036   7.950  14.036
94569W        W65169   7.286  38.828  10.774
94570W        W65170   4.634  23.086  12.506
94571W        W65171  19.106   6.338  14.955
94572W        W65172  26.640  39.931   3.352
94573W        W65173  28.904  20.272  13.164
94574W        W65174  11.371  21.180   1.730
94575W        W65175   0.546   9.075   0.166
94576W        W65176   1.363   4.182  14.427
94577W        W65177  36.287  31.383   3.244
94578W        W65178  42.748  38.140  11.464
94579W        W65179  20.035  32.423   2.354
94580W        W65180  10.784  38.966   2.329
94581W        W65181   6.925  27.889   1.803
94582W        W65182  34.532  13.332   0.008
94583W        W65183  28.049  36.932   3.591
94584W        W65184  13.645   9.154   1.010
94585W        W65185  43.266  43.597  13.029
94586W        W65186   0.256   6.553  11.562
94587W        W65187   4.600  23.999   4.626
94588W        W65188  22.337   6.841   4.243
94589W        W65189  22.160  44.355   2.325
94590W        W65190   5.913   9.876   1.819
94591W        W65191  31.698  32.129   3.809
94592W        W65192  40.599  25.311   3.606
94593W        W65193   7.392  13.898   3.175
94594W        W65194   6.390   7.336  10.382
94595W        W65195  15.548  32.923  14.112
94596W        W65196   6.918  32.688  13.314
94597W        W65197  27.905  28.956   3.243
94598W        W65198  24.573  43.869  13.518
94599W        W65199  44.936   5.775   1.077
94600W        W65200  39.940  25.412  10.749
94601W        W65201  12.809   9.708   0.345
94602W        W65202  12.278   4.009   2.182
94603W        W65203  37.905  34.876  14.474
94604W        W65204   2.356  21.203  12.022
94605W        W65205  43.277  43.927  12.579
94606W        W65206  27.428   7.978   0.524
94607W        W65207  33.972  37.325   2.680
94608W        W65208   7.767  26.271  10.606
94609W        W65209  38.396  22.221  11.623
94610W        W65210  43.583  34.634  13.544
94611W        W65211  23.112   5.301   1.962
94612W        W65212  22.466  16.785   3.577
94613W        W65213  35.487   1.349   2.326
94614W        W65214   8.277  31.122  11.962
94615W        W65215  30.486  30.363   0.970
94616W        W65216   2.930  31.949   2.141
94617W        W65217  36.697   4.150   0.847
94618W        W65218   4.637   4.844   0.077
94619W        W65219  11.555  30.154  14.254
94620W        W65220   3.734  18.967  11.848
94621W        W65221  40.230   7.091  13.869
94622W        W65222   6.729  32.064  11.478
94623W        W65223  43.474  15.474   2.445
94624W        W65224  15.720   2.068   3.944
94625W        W65225   3.527  35.416  10.766
94626W        W65226  23.209  10.639  11.196
94627W        W65227  22.902   3.381   3.252
94628W        W65228  29.725  33.537   0.312
94629W        W65229  44.304  19.319   2.971
94630W        W65230   4.237  39.272   2.799
94631W        W65231  44.055  12.659   2.801
94632W        W65232   9.802   1.576   1.244
94633W        W65233   2.935   5.871  14.458
94634W        W65234  23.089  11.118   1.232
94635W        W65235   3.409  20.726  10.811
94636W        W65236  44.489  43.120  11.027
94637W        W65237  10.135  23.647  14.458
94638W        W65238   3.282  31.611   3.645
94639W        W65239   0.262  39.968  12.520
94640W        W65240  41.345   7.720   0.421
94641W        W65241  12.792  11.564   1.437
94642W        W65242  12.941  12.572   2.818
94643W        W65243  22.641  19.192   1.931
94644W        W65244  30.357  16.175   1.892
94645W        W65245   0.626  36.307  14.912
94646W        W65246   9.862   6.325  13.758
94647W        W65247  13.766  21.207  12.644
94648W        W65248  36.959  33.963  12.941
94649W        W65249  24.021  42.982   3.311
94650W        W65250  32.597   4.089   0.973
94651W        W65251  39.189  22.779  13.402
94652W        W65252  19.165  24.949   5.162
94653W        W65253  25.465   3.042   4.180
94654W        W65254  28.001   1.825   4.613
94655W        W65255  17.264   8.875   1.578
94656W        W65256  40.472  22.514  11.914
94657W        W65257  25.691  43.086   1.256
94658W        W65258   9.097  43.697  14.097
94659W        W65259  12.233  19.789   3.342
94660W        W65260  29.206  28.412   2.777
94661W        W65261   6.627  13.471   0.444
94662W        W65262   0.808  33.655   4.101
94663W        W65263  23.974  38.097  13.466
94664W        W65264  38.374  17.742   1.942
94665W        W65265  10.391  21.517  12.988
94666W        W65266  25.506   8.264  12.029
94667W        W65267  35.514   5.513   3.140
94668W        W65268  26.345  22.095  14.392
94669W        W65269  41.081  42.436  10.296
94670W        W65270  34.070  21.077   4.672
94671W        W65271  18.135  34.971   2.358
94672W        W65272  12.233  15.907   1.886
94673W        W65273  15.342  13.734  13.629
94674W        W65274  17.714  38.036   3.260
94675W        W65275  30.374  15.234  10.054
94676W        W65276  12.113  43.223   2.649
94677W        W65277   8.194   5.111   4.384
94678W        W65278   3.216  20.295   4.595
94679W        W65279  42.315  17.621  13.350
94680W        W65280  41.807  12.669  14.853
94681W        W65281  32.679  12.633   4.125
94682W        W65282   5.376  15.515   0.312
94683W        W65283  23.001   4.473   3.751
94684W        W65284  30.467  12.872  13.970
94685W        W65285  27.713  43.070   4.217
94686W        W65286  24.580  39.452  11.172
94687W        W65287   7.900  26.911   4.613
94688W        W65288  24.187   4.482   3.209
94689W        W65289  27.920  21.008   3.638
94690W        W65290  27.078  29.289  13.501
94691W        W65291  34.000  12.739  14.318
94692W        W65292  27.242  43.224  14.785
94693W        W65293  40.791  43.588   3.498
94694W        W65294  37.932  16.139   4.641
94695W        W65295   3.013  13.742   4.077
94696W        W65296  42.743   2.094   4.539
94697W        W65297  25.608  12.003   0.573
94698W        W65298  20.799  39.009   0.274
94699W        W65299   4.471  13.370  12.738
94700W        W65300  38.299  26.816  14.374
94701W        W65301  31.067  24.751  11.916
94702W        W65302  37.392  11.722  12.057
94703W        W65303  16.011  27.761   1.523
94704W        W65304  18.922  23.555   0.311
94705W        W65305  22.244   4.725   4.312
94706W        W65306  12.634  32.008   2.796
94707W        W65307  14.720  23.146  12.174
94708W        W65308  26.619  37.152   0.157
94709W        W65309  31.993  30.597   4.476
94710W        W65310  25.908  14.295   1.812
94711W        W65311   6.639  44.819   1.646
94712W        W65312  40.866  42.988   0.859
94713W        W65313  41.962  42.683   1.302
94714W        W65314  40.822  31.121  13.496
94715W        W65315  27.123  11.554  10.230
94716W        W65316   6.094  34.155  14.276
94717W        W65317   6.527  13.613  11.071
94718W        W65318  24.780  19.192   4.251
94719W        W65319  21.117  16.460   1.024
94720W        W65320  20.987  37.537  11.694
94721W        W65321  29.171  31.097   2.283
94722W        W65322   2.390  24.209   2.353
94723W        W65323  29.564  20.599   2.414
94724W        W65324  11.623  36.850   1.375
94725W        W65325  30.496  35.452   0.910
94726W        W65326  25.339  24.064  11.530
94727W        W65327  17.201  18.805  14.488
94728W        W65328   4.445   3.776   1.880
94729W        W65329  13.906  40.425  13.841
94730W        W65330  19.394  26.388  12.374
94731W        W65331  16.074  29.909   0.570
94732W        W65332  15.793  22.070  12.813
94733W        W65333   3.972  25.862   0.393
94734W        W65334   2.744  19.807   2.150
94735W        W65335  33.403  18.727  14.264
94736W        W65336   0.563   5.340   4.586
94737W        W65337  37.027  34.586   1.984
94738W        W65338  39.811   9.148   3.599
94739W        W65339  31.554   0.384  14.571
94740W        W65340  30.078  37.290   0.428
94741W        W65341  14.825  25.916   0.310
94742W        W65342  22.080  18.747   0.397
94743W        W65343   5.385  13.318  12.179
94744W        W65344  15.607  21.175   2.198
94745W        W65345   5.850  40.466   3.800
94746W        W65346  38.130  31.707  14.306
94747W        W65347  29.260   1.699   1.918
94748W        W65348   8.257  27.473   4.078
94749W        W65349  40.834  16.145  13.016
94750W        W65350  22.185   6.148  14.371
94751W        W65351   8.625  26.482  14.610
94752W        W65352  20.152  13.106   0.938
94753W        W65353  15.804  23.939  13.465
94754W        W65354  38.522   9.106   1.339
94755W        W65355  25.823  13.869   3.394
94756W        W65356  14.907  29.505  12.614
94757W        W65357  40.103   6.849   0.012
94758W        W65358  22.254  26.530   5.108
94759W        W65359  40.274   3.870   0.808
94760W        W65360  27.650  37.129   4.510
94761W        W65361  25.801   4.730  11.657
94762W        W65362   8.609  21.574   1.293
94763W        W65363  24.576  20.662  13.885
94764W        W65364  32.109   0.008   3.519
94765W        W65365  39.352  36.117  13.403
94766W        W65366   4.697  19.532  11.138
94767W        W65367   6.371  36.571  11.980
94768W        W65368  35.011   3.389  11.710
94769W        W65369  37.749  19.338  12.826
94770W        W65370  30.322  38.974  10.251
94771W        W65371   5.415   8.117   1.510
94772W        W65372   2.297  28.067  11.406
94773W        W65373  25.568   8.632  10.598
94774W        W65374  27.045  30.578  13.700
94775W        W65375   3.409  16.827  14.478
94776W        W65376  11.624   1.732  10.995
94777W        W65377   6.440  20.848  14.431
94778W        W65378   9.866  24.077   2.197
94779W        W65379  35.848   9.737  12.645
94780W        W65380   9.124  10.783   1.949
94781W        W65381  42.254  26.493   3.662
94782W        W65382   2.821   4.404  12.472
94783W        W65383  14.799  32.177   0.815
94784W        W65384  27.990  19.852   2.406
94785W        W65385  12.441  12.224   1.946
94786W        W65386  36.000   5.738  12.353
94787W        W65387  40.971  38.736   1.593
94788W        W65388  43.601  20.145   1.339
94789W        W65389  31.189   9.729   2.407
94790W        W65390  24.976  13.531   4.324
94791W        W65391  29.726  44.439   2.222
94792W        W65392  37.902   0.855  14.361
94793W        W65393  10.721  41.742  12.722
94794W        W65394  15.972  22.575   5.056
94795W        W65395  10.922  43.628   1.391
94796W        W65396   6.329   3.988  11.982
94797W        W65397  38.550  40.136   1.606
94798W        W65398   8.176  32.061   1.863
94799W        W65399   9.668  29.931   4.822
94800W        W65400  16.766  33.319  11.472
94801W        W65401  28.856  18.880  14.346
94802W        W65402  17.638   1.239  14.046
94803W        W65403  23.691  24.428   1.842
94804W        W65404  30.750   6.097   1.741
94805W        W65405  32.118  18.173   1.092
94806W        W65406  10.250  42.428   1.887
94807W        W65407  41.994  40.817   2.329
94808W        W65408   5.921  22.468   4.290
94809W        W65409   2.051  42.063   2.485
94810W        W65410  36.237  24.813   4.107
94811W        W65411  25.802   7.307   2.848
94812W        W65412  39.430  11.256   0.347
94813W        W65413  23.123  28.422   1.654
94814W        W65414  41.833  10.595  11.561
94815W        W65415  23.825   5.570   1.725
94816W        W65416  32.549  21.097   0.911
94817W        W65417   8.192  28.200  10.636
94818W        W65418  19.597   9.411   3.809
94819W        W65419  41.124  26.152  10.482
94820W        W65420  17.098  37.863   0.918
94821W        W65421  31.788  18.298  12.494
94822W        W65422  42.122  26.099  10.557
94823W        W65423  22.532   4.322  10.810
94824W        W65424  44.333  30.181  12.898
94825W        W65425  44.954  32.614  11.483
94826W        W65426  36.885   6.191   3.574
94827W        W65427  22.974  34.973  12.512
94828W        W65428   8.278  17.159  11.639
94829W        W65429  30.447   5.922  13.022
94830W        W65430  40.007   7.808  12.845
94831W        W65431  41.771  34.227  11.400
94832W        W65432  11.270  12.681   3.619
94833W        W65433  27.896   4.038  13.535
94834W        W65434   2.619  22.122  12.092
94835W        W65435  20.643  42.377   0.874
94836W        W65436  35.483   6.928   0.590
94837W        W65437   3.409  23.007   0.472
94838W        W65438  39.586   9.194  12.953
94839W        W65439  38.259  11.796  12.375
94840W        W65440   5.687  14.647   1.460
94841W        W65441  15.525  31.461  10.971
94842W        W65442   2.662  22.522   0.525
94843W        W65443  27.977  43.024  12.639
94844W        W65444  19.632  10.636   3.297
94845W        W65445  42.403  32.128   2.380
94846W        W65446  44.141  39.332   5.256
94847W        W65447  35.870  25.112   2.386
94848W        W65448  28.239   4.928  10.261
94849W        W65449  41.633  31.909  11.580
94850W        W65450   6.425  27.466  11.986
94851W        W65451  33.364  29.690   0.131
94852W        W65452  17.436  34.165  12.286
94853W        W65453  16.144  29.985  13.514
94854W        W65454  40.311  39.094  14.506
94855W        W65455   2.259   0.911   3.347
94856W        W65456   2.364   0.268   2.697
94857W        W65457  24.039  40.643   0.562
94858W        W65458  40.006  17.245  13.771
94859W        W65459  37.511   6.889  11.620
94860W        W65460  43.457  29.249   3.265
94861W        W65461   3.932   3.683   4.587
94862W        W65462  10.388  25.314  12.087
94863W        W65463  44.079  36.450   4.590
94864W        W65464   7.172   6.285   3.777
94865W        W65465  18.183  26.129   3.708
94866W        W65466  17.737   9.755  10.727
94867W        W65467  33.008  19.895   1.541
94868W        W65468  29.028   0.492  11.334
94869W        W65469  17.202  32.084   3.649
94870W        W65470  21.734  26.443   1.805
94871W        W65471  24.457  11.860  11.908
94872W        W65472  41.433  34.992   3.702
94873W        W65473  40.208  28.636  13.422
94874W        W65474  38.652  40.793  13.686
94875W        W65475  19.503  15.570  14.557
94876W        W65476  19.652   4.712   3.524
94877W        W65477  28.223  38.012   1.012
94878W        W65478   4.299   0.908   4.366
94879W        W65479  10.141  41.285  12.140
94880W        W65480  37.294   5.556  10.919
94881W        W65481  15.113  27.405  12.924
94882W        W65482  14.987  21.046  13.626
94883W        W65483  44.952  23.718  11.478
94884W        W65484   0.300   4.332  11.047
94885W        W65485  34.372  38.286  10.422
94886W        W65486  30.531  17.068  14.388
94887W        W65487  44.504  28.275  12.040
94888W        W65488  43.188  23.798  12.274
94889W        W65489  18.911  40.475  14.861
94890W        W65490  24.670  10.808   0.940
94891W        W65491   1.888  26.181  10.683
94892W        W65492  26.631  42.943   4.684
94893W        W65493   4.603  26.320  12.059
94894W        W65494  20.064  42.948   3.188
94895W        W65495  16.195  10.176   2.722
94896W        W65496  36.765  44.980   0.472
94897W        W65497  20.763  35.488   3.589
94898W        W65498  12.135  10.301  12.452
94899W        W65499   0.053  10.581  12.996
94900W        W65500  11.958   6.424   4.385
94901W        W65501  11.898   4.662   0.022
94902W        W65502  11.869  26.762  12.440
94903W        W65503  18.871  43.038  12.977
94904W        W65504   7.102   7.796  14.113
94905W        W65505  36.997  42.575   3.579
94906W        W65506   6.817   6.635   3.917
94907W        W65507  12.359  24.097   1.885
94908W        W65508   0.464  43.449   2.339
94909W        W65509  38.769   9.268   4.770
94910W        W65510  39.736  41.004  11.683
94911W        W65511  25.911  16.882   2.432
94912W        W65512  18.389  31.011  13.025
94913W        W65513  37.838  29.026  14.997
94914W        W65514  35.142  36.067  10.891
94915W        W65515  20.255  12.592   0.990
94916W        W65516  33.564  30.423   1.417
94917W        W65517   3.747   1.021   1.691
94918W        W65518   4.444  10.713   4.470
94919W        W65519  39.554  28.344  14.999
94920W        W65520  23.796   2.970  12.838
94921W        W65521   7.267  15.174   0.491
94922W        W65522   2.610   1.878   1.358
94923W        W65523  32.614  10.644  12.142
94924W        W65524  44.233  18.769   2.933
94925W        W65525  38.388  15.264   2.556
94926W        W65526   9.602   5.879  10.784
94927W        W65527   5.454  33.579   1.383
94928W        W65528  34.094  22.219   1.836
94929W        W65529  19.224  11.315  13.135
94930W        W65530  10.799  17.124  14.764
94931W        W65531  15.679  30.440   3.712
94932W        W65532  29.298  38.037   2.275
94933W        W65533  21.414  22.770   3.746
94934W        W65534  37.412  17.717  14.895
94935W        W65535  23.489  37.044   0.822
94936W        W65536  26.478  27.929   3.715
94937W        W65537  14.292  14.771   0.862
94938W        W65538   3.656  14.301  10.455
94939W        W65539  30.943   2.249   3.330
94940W        W65540   0.400  34.083  14.410
94941W        W65541   3.168  36.902   0.367
94942W        W65542  32.030  22.646   3.211
94943W        W65543  42.316  42.782   0.923
94944W        W65544   0.400   2.760  11.669
94945W        W65545  16.050   0.738   1.709
94946W        W65546   2.925  14.049  13.471
94947W        W65547   4.301  29.889  12.812
94948W        W65548  27.939  29.434   1.998
94949W        W65549  34.810  26.592   3.305
94950W        W65550  11.201  18.614   2.271
94951W        W65551   6.262  14.136   2.803
94952W        W65552  22.355  38.286  12.928
94953W        W65553  25.269  15.181   3.812
94954W        W65554  12.564  24.157  13.942
94955W        W65555  41.793   7.930   4.507
94956W        W65556  10.234  40.032  13.454
94957W        W65557  22.690   4.865   4.569
94958W        W65558  42.011  43.074  12.638
94959W        W65559  42.161  29.441   3.635
94960W        W65560  19.103  36.160   3.348
94961W        W65561  39.551  39.294  11.888
94962W        W65562   6.300   5.223  10.385
94963W        W65563   8.840  13.756   4.405
94964W        W65564  37.871   3.221   3.186
94965W        W65565  28.056  11.490   0.540
94966W        W65566  15.828  33.555  12.971
94967W        W65567   7.863  18.428   2.782
94968W        W65568  40.733   1.474  11.552
94969W        W65569  26.261   5.685   1.682
94970W        W65570  12.767  39.125  13.846
94971W        W65571  28.859  18.607   2.213
94972W        W65572   2.632   2.454   0.679
94973W        W65573  36.541   2.172  11.284
94974W        W65574   2.320  29.905   2.700
94975W        W65575  42.509  33.677   4.745
94976W        W65576   8.732  37.317   1.427
94977W        W65577  42.960  27.859   4.787
94978W        W65578  40.139  21.110  14.532
94979W        W65579  34.997  27.622   1.319
94980W        W65580  43.710  42.227  12.993
94981W        W65581  25.218   4.806   1.277
94982W        W65582  42.760  32.928  13.059
94983W        W65583  11.176  38.947  11.289
94984W        W65584  38.490  29.371   2.614
94985W        W65585   6.001  10.108   0.373
94986W        W65586  34.564  44.865  11.461
94987W        W65587   1.381  33.649  14.385
94988W        W65588  30.530  36.865   1.914
94989W        W65589  14.643  10.856   3.223
94990W        W65590  39.546  39.126  14.075
94991W        W65591  36.520   4.825  11.198
94992W        W65592   7.242  28.519  14.248
94993W        W65593  13.630  29.562   2.434
94994W        W65594  31.136  44.754  14.053
94995W        W65595  38.582  13.502   3.308
94996W        W65596  41.917  32.080   3.550
94997W        W65597  18.284  34.575  12.931
94998W        W65598  34.114  33.970   0.700
94999W        W65599  36.000   0.816  11.206
95000W        W65600   7.848  31.290  13.751
95001W        W65601  28.337   7.681  10.958
95002W        W65602  14.376  10.608   1.379
95003W        W65603  22.545   8.755   0.281
95004W        W65604  14.888   6.582  14.242
95005W        W65605  28.095  31.435  11.140
95006W        W65606  32.408  26.668  14.834
95007W        W65607  21.051  35.414   0.917
95008W        W65608   5.482  33.593   2.276
95009W        W65609   3.791  26.713  10.631
95010W        W65610  44.314   8.168   4.137
95011W        W65611   5.107   2.998   4.957
95012W        W65612  33.518   4.870  10.479
95013W        W65613  21.173  37.911   2.309
95014W        W65614  29.536  23.598  14.715
95015W        W65615  18.297  28.908   0.900
95016W        W65616  41.838   8.685  12.883
95017W        W65617   8.438  17.322   3.997
95018W        W65618  13.739  11.152   0.071
95019W        W65619  31.999   0.444   4.484
95020W        W65620   8.846  44.254   4.115
95021W        W65621   6.852  21.546  13.810
95022W        W65622  22.768   9.355   4.984
95023W        W65623  37.770  37.021   2.858
95024W        W65624  37.827   3.846   1.381
95025W        W65625   0.693  16.802  11.620
95026W        W65626  42.125  32.580  13.290
95027W        W65627  38.601  34.499  13.890
95028W        W65628  43.572  44.955   1.367
95029W        W65629  21.155  41.487  13.597
95030W        W65630   4.992  31.503  11.855
95031W        W65631  20.603  27.647   2.752
95032W        W65632  15.821  27.322  10.827
95033W        W65633  15.755   9.815   3.644
95034W        W65634  32.925  41.911   1.696
95035W        W65635  21.118  35.415   1.887
95036W        W65636  42.700   6.389  12.512
95037W        W65637  30.288  43.310   2.268
95038W        W65638  11.263  37.094  11.452
95039W        W65639  26.374  32.150  14.261
95040W        W65640  24.465  11.609   1.323
95041W        W65641  12.586  40.803   3.786
95042W        W65642  43.482  33.531   0.346
95043W        W65643  22.664  23.634   5.167
95044W        W65644  22.455  17.689  14.100
95045W        W65645  28.738  36.403   2.658
95046W        W65646   6.387  44.160  12.057
95047W        W65647  25.050  11.849   5.078
95048W        W65648  21.047   5.418  14.446
95049W        W65649  18.646  19.613   9.761
95050W        W65650   2.716   0.039  13.877
95051W        W65651   4.294  41.843  13.909
95052W        W65652  11.833  19.930   0.364
95053W        W65653   2.431   2.972  10.469
95054W        W65654   4.681  36.976   1.755
95055W        W65655  13.291  18.127   3.284
95056W        W65656  14.343  10.679   2.848
95057W        W65657   1.912  40.985   0.005
95058W        W65658   2.874  29.550   2.798
95059W        W65659  21.313  24.959   3.658
95060W        W65660   6.859  42.998   2.783
95061W        W65661  33.442  31.649   1.325
95062W        W65662  33.430  38.290  11.944
95063W        W65663   9.879   9.858  14.627
95064W        W65664  44.833  10.979   1.225
95065W        W65665  42.340  30.621  14.892
95066W        W65666   3.660   3.325  14.796
95067W        W65667  39.351  35.594  13.468
95068W        W65668   7.354  27.525   4.074
95069W        W65669  36.345  14.391   0.771
95070W        W65670  37.968  12.568   2.882
95071W        W65671  34.668  42.484   3.188
95072W        W65672  39.764  23.809   3.892
95073W        W65673  34.521   6.566   2.520
95074W        W65674  30.676  31.095   0.173
95075W        W65675   8.332   6.798  12.027
95076W        W65676  10.632   7.400  14.303
95077W        W65677  26.541  39.053  11.999
95078W        W65678   0.089  14.387  14.008
95079W        W65679  20.488  10.094   2.330
95080W        W65680  32.758  30.012  13.547
95081W        W65681  29.132  37.063   4.830
95082W        W65682  10.068  28.220  11.285
95083W        W65683  28.643  20.568   0.392
95084W        W65684  36.160  23.497   0.692
95085W        W65685  31.963  27.497   0.891
95086W        W65686  11.576  16.807   0.907
95087W        W65687  35.567  42.980  11.070
95088W        W65688  24.402   2.752  11.139
95089W        W65689  21.422   4.347  13.844
95090W        W65690   3.342   1.279  13.065
95091W        W65691  28.271  33.413   4.583
95092W        W65692  16.684  12.914  13.572
95093W        W65693  35.130  30.058  12.028
95094W        W65694  15.375  11.286   4.284
95095W        W65695  24.650  39.637   4.670
95096W        W65696  38.105   2.368  13.923
95097W        W65697  44.552  23.479  14.949
95098W        W65698  38.583   4.710  13.448
95099W        W65699  23.045  34.967  11.539
95100W        W65700  25.965  21.845  10.577
95101W        W65701  17.413  27.659   4.346
95102W        W65702   0.805  36.244  13.401
95103W        W65703  27.082   0.914  14.860
95104W        W65704  32.596  37.309  11.162
95105W        W65705  10.690  44.916   1.710
95106W        W65706  33.507  11.564  12.194
95107W        W65707   0.820  38.356  14.733
95108W        W65708   3.179  20.733  12.638
95109W        W65709  16.420  11.098   4.112
95110W        W65710  32.080  21.733   0.781
95111W        W65711   1.727  29.924  12.536
95112W        W65712  30.663   0.660  10.356
95113W        W65713   5.324  33.370  11.366
95114W        W65714   4.722   7.707  11.527
95115W        W65715  27.727  37.853   3.209
95116W        W65716  13.272  16.816   1.945
95117W        W65717  10.795  16.587   2.273
95118W        W65718   1.813  43.947  14.441
95119W        W65719  22.101  11.097   4.102
95120W        W65720   3.402   9.397  14.079
95121W        W65721  43.388   0.182   0.934
95122W        W65722  35.123  23.540   4.608
95123W        W65723  30.491  17.116   4.696
95124W        W65724  24.754  11.435  13.212
95125W        W65725  36.602  34.884   4.192
95126W        W65726  25.053  19.623  10.622
95127W        W65727  34.888  32.153  13.966
95128W        W65728   7.741  21.210   0.486
95129W        W65729   3.420   8.260   3.700
95130W        W65730  29.396  21.382   9.864
95131W        W65731  16.056  39.159  13.338
95132W        W65732   7.718  43.351   4.360
95133W        W65733   1.192   8.735   1.609
95134W        W65734  12.716  37.957   1.619
95135W        W65735  17.190  34.542   3.637
95136W        W65736  23.055  40.081  14.343
95137W        W65737   0.345  17.010  14.898
95138W        W65738  14.379  17.840  12.877
95139W        W65739   0.441  18.035  11.134
95140W        W65740   2.436   9.414  14.875
95141W        W65741  13.270  41.648   3.170
95142W        W65742   5.933  29.375   1.408
95143W        W65743  15.280  14.932   2.965
95144W        W65744  14.564  16.542  11.606
95145W        W65745   3.689  22.787   1.958
95146W        W65746  17.559  11.629   0.488
95147W        W65747  41.873  39.456   3.729
95148W        W65748  38.979  44.915   3.119
95149W        W65749   1.866  36.943   2.299
95150W        W65750  17.092  33.189  11.895
95151W        W65751  23.738  17.597  14.465
95152W        W65752  10.600  31.544  14.225
95153W        W65753  44.724  17.876  14.315
95154W        W65754  43.427  17.703   2.922
95155W        W65755  39.863  20.731  10.736
95156W        W65756  19.803  21.784   2.343
95157W        W65757  41.381  19.314   3.648
95158W        W65758  43.196   9.086   2.789
95159W        W65759   9.053  38.660  13.733
95160W        W65760  10.812  30.172  11.203
95161W        W65761  10.186  30.532   3.600
95162W        W65762   1.029  31.435   3.273
95163W        W65763   7.116  40.323   2.330
95164W        W65764   5.385  36.534  11.187
95165W        W65765   5.341  37.534   1.203
95166W        W65766   9.120  40.915  13.435
95167W        W65767  43.810  22.796  11.770
95168W        W65768  20.344   8.215  14.731
95169W        W65769  13.581   0.146  14.378
95170W        W65770   4.314  37.546   0.001
95171W        W65771  43.851   0.258  14.328
95172W        W65772  15.309   8.113   0.720
95173W        W65773   2.632  33.833   2.336
95174W        W65774  23.652   7.343  11.102
95175W        W65775  34.886  16.073  10.792
95176W        W65776  44.731  16.726   0.766
95177W        W65777  10.868  30.872   0.305
95178W        W65778  15.291   5.330  13.882
95179W        W65779  41.570  21.304  13.942
95180W        W65780   1.554   5.812   4.787
95181W        W65781  27.942  44.700   0.860
95182W        W65782  42.796  11.723   3.555
95183W        W65783  13.031  35.951  10.894
95184W        W65784  32.375   5.716  13.899
95185W        W65785  10.222  16.884  11.994
95186W        W65786  33.986  40.555   1.646
95187W        W65787  12.684  38.694  12.065
95188W        W65788   3.796  29.356  11.141
95189W        W65789  30.416  16.718   2.731
95190W        W65790  27.634   7.444  13.992
95191W        W65791  44.001  17.216  11.179
95192W        W65792  18.043  21.133  12.481
95193W        W65793  17.961  33.412   5.522
95194W        W65794  22.628  23.254  14.418
95195W        W65795   2.395  12.737   4.660
95196W        W65796  44.213  29.086   3.635
95197W        W65797  33.096  15.609  11.908
95198W        W65798  14.227  24.462  10.811
95199W        W65799   5.899   0.156   3.354
95200W        W65800  43.331  24.098  14.175
95201W        W65801  38.705  29.751   2.899
95202W        W65802  28.082   3.216   0.776
95203W        W65803  38.366  30.343  14.420
95204W        W65804  19.204   9.620  13.976
95205W        W65805  13.778  38.066   1.817
95206W        W65806   6.392  12.543  11.611
95207W        W65807  22.842  31.926   3.247
95208W        W65808   3.439  39.952  14.532
95209W        W65809  19.156  14.356   3.431
95210W        W65810  35.642   5.155  14.461
95211W        W65811   6.798  31.357   4.131
95212W        W65812  20.226  27.033   4.860
95213W        W65813   4.421   3.512   3.878
95214W        W65814  35.917  16.101  12.066
95215W        W65815   6.284  42.314  12.145
95216W        W65816  28.902  16.118  13.047
95217W        W65817  19.315  20.759  13.361
95218W        W65818   8.170   9.855  10.631
95219W        W65819  33.001  26.412  10.693
95220W        W65820  29.665  32.588   0.551
95221W        W65821  41.457  29.703   1.618
95222W        W65822  22.538   9.910  12.569
95223W        W65823  12.658  35.837  11.982
95224W        W65824  25.199   4.087   2.308
95225W        W65825   0.910  14.293  14.488
95226W        W65826  16.610  30.164  13.345
95227W        W65827  24.694  13.751  13.333
95228W        W65828  34.577  27.496  12.544
95229W        W65829  16.235  24.253  13.495
95230W        W65830   8.850  10.442   2.710
95231W        W65831  32.281  12.202   4.725
95232W        W65832   8.311   2.427   2.154
95233W        W65833  15.548  21.235  12.865
95234W        W65834  18.266   8.180   2.651
95235W        W65835  16.858   0.002   1.322
95236W        W65836   7.362  39.945  13.140
95237W        W65837  32.352  16.390   1.576
95238W        W65838  33.307  10.867   0.251
95239W        W65839  15.360  22.016  12.530
95240W        W65840  10.610  37.926  11.541
95241W        W65841  21.106  15.285   1.961
95242W        W65842  29.549  41.145   3.641
95243W        W65843  23.827  27.607  10.804
95244W        W65844  40.534  19.089  11.643
95245W        W65845  39.631  37.989   4.055
95246W        W65846  35.923  25.656   3.552
95247W        W65847   7.728  12.295  11.246
95248W        W65848  10.434  37.838   2.139
95249W        W65849  40.778  27.902  11.211
95250W        W65850  24.586  43.423   4.658
95251W        W65851  25.472  33.664   0.273
95252W        W65852  43.695  26.649  11.616
95253W        W65853  14.635  43.067   3.155
95254W        W65854  22.761  34.500  12.521
95255W        W65855   9.794  27.911  12.491
95256W        W65856  20.529  13.193   4.631
95257W        W65857  22.940  38.524  12.136
95258W        W65858  15.863  36.003  13.453
95259W        W65859  38.844  18.889   4.059
95260W        W65860  18.061  31.534   1.126
95261W        W65861  43.820   6.099   5.590
95262W        W65862   4.422  41.110  14.696
95263W        W65863  11.902  17.457  10.788
95264W        W65864  34.851  20.540   2.704
95265W        W65865   1.213  41.811  11.667
95266W        W65866  27.084  23.579   4.077
95267W        W65867  20.582  23.041  10.438
95268W        W65868   1.827  33.113   2.807
95269W        W65869  17.693  25.932  11.656
95270W        W65870  11.264  12.743   0.505
95271W        W65871   8.410  13.173  14.934
95272W        W65872  25.566  22.622   3.671
95273W        W65873  39.961  31.047  13.111
95274W        W65874   0.399  37.042  12.098
95275W        W65875  35.343  37.861  13.089
95276W        W65876  42.192  43.192   4.970
95277W        W65877  41.825  44.086   0.832
95278W        W65878  23.061  17.151   3.680
95279W        W65879  19.703  29.142   3.624
95280W        W65880  31.007  41.596   2.186
95281W        W65881  13.914   4.439   1.701
95282W        W65882   8.744  19.786   2.448
95283W        W65883  42.513  17.377   0.742
95284W        W65884   5.644  22.655   4.667
95285W        W65885  18.679  42.343   0.542
95286W        W65886   2.736  13.622   2.616
95287W        W65887  37.374   1.434  11.471
95288W        W65888  27.781   9.191  13.895
95289W        W65889  21.788  38.344  13.860
95290W        W65890  28.392  25.843  12.811
95291W        W65891  33.488  38.087  13.732
95292W        W65892  18.230  12.587   2.875
95293W        W65893  29.928  14.208  11.510
95294W        W65894  24.105  17.862   4.262
95295W        W65895  40.802  41.185   4.212
95296W        W65896  44.868  36.323  10.480
95297W        W65897  23.212  36.960  12.947
95298W        W65898   6.899  36.103  14.133
95299W        W65899  31.406  11.232  11.903
95300W        W65900  31.658  41.970   0.343
95301W        W65901  13.095  41.836   2.154
95302W        W65902  43.183  21.215   4.030
95303W        W65903  35.591   1.558  14.992
95304W        W65904   4.543   8.845  11.494
95305W        W65905   7.730  13.209   1.861
95306W        W65906  42.032  14.406   2.557
95307W        W65907  28.062  23.868   0.322
95308W        W65908  28.835  34.419   1.854
95309W        W65909  11.122  33.695   2.399
95310W        W65910   2.521  22.460   3.372
95311W        W65911  16.052   1.600   1.971
95312W        W65912  37.872  22.123   2.414
95313W        W65913  35.637  42.296   4.139
95314W        W65914  23.251   8.527  13.450
95315W        W65915   5.652  32.111  12.493
95316W        W65916  29.428  28.742  11.534
95317W        W65917  12.582   1.993   1.017
95318W        W65918  36.944  15.560   2.346
95319W        W65919   2.278   9.784   4.603
95320W        W65920  33.979  32.711   1.252
95321W        W65921  15.653  37.864   0.447
95322W        W65922  14.127  10.407  14.389
95323W        W65923  32.048  13.347   2.237
95324W        W65924  15.556  14.175  10.695
95325W        W65925   6.493  42.978   4.796
95326W        W65926   9.085  29.630   1.413
95327W        W65927  37.176   4.386   0.941
95328W        W65928   1.350  26.685   2.164
95329W        W65929  19.374  25.815   2.532
95330W        W65930  36.856   4.807   9.920
95331W        W65931  43.249  14.066  13.035
95332W        W65932  41.885  21.795   4.356
95333W        W65933   8.737  32.437  12.455
95334W        W65934  44.375  42.032  14.295
95335W        W65935  19.420  29.711   2.913
95336W        W65936  11.825  42.487   3.182
95337W        W65937  10.648  42.027  13.326
95338W        W65938  21.608  37.973   2.825
95339W        W65939  10.122  30.096   1.840
95340W        W65940  39.918  36.973  13.363
95341W        W65941  13.722  13.074  12.901
95342W        W65942   5.845  43.687  11.449
95343W        W65943  36.355  38.907   1.008
95344W        W65944  38.166   9.849   0.026
95345W        W65945  18.328  21.127  10.620
95346W        W65946  33.455  28.011  11.868
95347W        W65947  10.378  11.150  10.199
95348W        W65948  44.295  31.391  14.515
95349W        W65949   8.333   2.212  10.961
95350W        W65950   0.523  44.875  14.424
95351W        W65951  41.747  26.226   4.918
95352W        W65952  33.876  24.307  11.552
95353W        W65953  27.292  30.918   1.682
95354W        W65954  42.156  19.753   1.823
95355W        W65955  41.919  44.587   1.702
95356W        W65956  40.197  24.078  13.300
95357W        W65957  43.906  32.173   1.788
95358W        W65958  29.972  15.614   0.805
95359W        W65959  25.284  28.098   2.880
95360W        W65960  36.011  10.405  13.018
95361W        W65961  22.059  24.664   2.284
95362W        W65962  28.275  21.260  12.121
95363W        W65963   5.202   3.754  14.250
95364W        W65964   5.418  29.084   2.711
95365W        W65965  42.513  23.545   1.860
95366W        W65966   4.297   4.978   2.799
95367W        W65967  23.260  16.842  13.058
95368W        W65968  11.349  13.263   2.381
95369W        W65969  37.319  29.658  10.473
95370W        W65970   0.949  17.585   3.292
95371W        W65971  43.409  43.437  10.637
95372W        W65972  25.215  27.975  10.641
95373W        W65973  29.467   1.584  10.219
95374W        W65974  26.273  25.814  11.651
95375W        W65975  13.699  11.518  12.886
95376W        W65976  44.506  20.086  10.048
95377W        W65977  27.599   0.941   1.038
95378W        W65978  27.028  32.103  14.864
95379W        W65979  35.135   6.209  14.470
95380W        W65980  24.030  42.841  12.511
95381W        W65981  44.902  16.390  10.910
95382W        W65982   6.652  41.953  10.846
95383W        W65983   2.155  16.085   3.753
95384W        W65984  42.949  26.650   1.469
95385W        W65985   0.984  22.833  14.207
95386W        W65986  21.958  19.792   3.732
95387W        W65987  39.607  24.314   4.030
95388W        W65988   9.454  23.631   0.266
95389W        W65989  32.497   9.371   1.379
95390W        W65990  36.538  11.734   4.139
95391W        W65991  21.111  27.260  11.345
95392W        W65992  16.173  22.396  13.955
95393W        W65993  44.490  15.163  10.835
95394W        W65994  27.143  12.909   3.837
95395W        W65995  27.657  26.625  13.538
95396W        W65996  41.045   7.655   3.861
95397W        W65997  13.452  12.131  14.438
95398W        W65998  28.155  42.717   2.402
95399W        W65999  20.239  26.885  12.509
95400W        W66000  22.536  43.397  11.443
95401W        W66001  20.962  40.518  12.097
95402W        W66002  33.660  33.868  14.783
95403W        W66003  11.102  37.046   4.729
95404W        W66004  15.671  11.372   1.288
95405W        W66005  39.320  34.602   3.231
95406W        W66006  13.186   1.834  10.727
95407W        W66007  24.821  42.885   3.855
95408W        W66008  12.202  39.824  10.885
95409W        W66009  24.785  42.450  13.585
95410W        W66010  44.490  31.678   3.189
95411W        W66011  27.932  24.222   2.817
95412W        W66012  12.412  20.252   0.947
95413W        W66013  31.958  39.901  14.886
95414W        W66014  16.698   2.269   3.662
95415W        W66015   7.679  20.254  10.696
95416W        W66016   1.250  43.888  11.025
95417W        W66017  34.447  24.592  13.829
95418W        W66018  19.145  32.344   4.659
95419W        W66019  15.705  19.716  14.729
95420W        W66020  30.148  16.771   4.481
95421W        W66021  35.126  22.828  10.996
95422W        W66022  21.958  42.820   2.359
95423W        W66023  22.488   5.701   3.186
95424W        W66024  12.646  37.261   1.308
95425W        W66025  12.968   9.101  12.248
95426W        W66026  26.942  22.924  11.145
95427W        W66027   6.468  22.046   3.655
95428W        W66028   8.361  30.638   4.463
95429W        W66029   9.336  40.306   0.827
95430W        W66030  32.187  27.529  13.089
95431W        W66031  36.517  12.680  12.372
95432W        W66032  43.979  13.083   4.243
95433W        W66033  40.107   4.064  11.191
95434W        W66034  33.777   6.369   2.240
95435W        W66035   3.868  18.101  14.876
95436W        W66036  16.326   1.459   3.341
95437W        W66037  43.126  44.699   1.380
95438W        W66038  22.121  34.463   4.534
95439W        W66039  24.705  40.890   1.926
95440W        W66040  37.016  39.447  14.387
95441W        W66041  28.458  30.106   2.925
95442W        W66042  31.329   4.674   0.036
95443W        W66043  43.334  43.326  13.463
95444W        W66044  28.081   8.844  11.818
95445W        W66045  30.143  13.838  12.952
95446W        W66046  22.166  18.549   3.009
95447W        W66047   5.182   3.676  14.895
95448W        W66048  23.701  44.205   1.226
95449W        W66049  38.333  20.133  14.034
95450W        W66050  13.346  33.222  14.302
95451W        W66051  37.550  31.400  11.142
95452W        W66052   1.308  24.171  13.938
95453W        W66053  41.512  30.131  13.939
95454W        W66054  31.019  24.619   0.408
95455W        W66055  11.776  11.167  12.080
95456W        W66056  16.615   7.885  12.932
95457W        W66057  15.083  13.602  11.683
95458W        W66058  42.286  34.393   2.896
95459W        W66059   4.482  19.642  13.816
95460W        W66060  42.749  30.067  14.573
95461W        W66061  12.230  24.103   0.524
95462W        W66062  14.783  31.148  13.741
95463W        W66063  21.705  10.318   2.576
95464W        W66064  30.846   4.759  12.617
95465W        W66065  42.450  18.723  12.815
95466W        W66066   1.431   1.198  11.018
95467W        W66067  43.234  40.508   0.846
95468W        W66068  10.202  30.159  10.036
95469W        W66069  15.603  28.244   4.630
95470W        W66070  28.947  14.522   1.448
95471W        W66071  38.496  22.728  10.689
95472W        W66072  17.218  23.465  11.155
95473W        W66073  28.101   8.807   3.879
95474W        W66074  15.894  33.870   2.818
95475W        W66075  25.467  38.095   3.916
95476W        W66076  31.489  27.682   1.879
95477W        W66077  37.749  41.023   0.263
95478W        W66078  23.701  22.826  14.279
95479W        W66079  16.146  12.055   3.146
95480W        W66080  31.173  22.769   1.185
95481W        W66081   5.972  28.101  11.639
95482W        W66082  36.535  14.580  10.976
95483W        W66083  28.051   4.992   2.219
95484W        W66084  24.718   2.882   4.939
95485W        W66085  32.271   6.712  14.517
95486W        W66086  39.474  15.349   4.459
95487W        W66087  11.743  44.303   4.524
95488W        W66088  30.935   3.860  12.431
95489W        W66089   4.462  32.550   2.456
95490W        W66090  38.953   5.413  13.038
95491W        W66091  42.610  20.767  11.151
95492W        W66092  35.939   9.896  13.130
95493W        W66093  36.314  43.809   3.915
95494W        W66094  25.549  31.437   4.592
95495W        W66095  33.123  30.167   3.616
95496W        W66096  43.868   1.410  12.967
95497W        W66097  15.659  23.142   4.211
95498W        W66098  36.077  17.551  12.042
95499W        W66099  30.385  31.702   2.857
95500W        W66100  13.133   8.203  11.906
95501W        W66101  22.102  25.577   0.098
95502W        W66102  18.265  17.546   3.963
95503W        W66103  42.106   7.697  14.983
95504W        W66104  41.091  28.557  13.844
95505W        W66105  23.994  21.476   0.963
95506W        W66106   6.216  34.047   3.672
95507W        W66107   1.429  29.142   0.958
95508W        W66108   5.718  19.318   0.233
95509W        W66109   4.253  11.326   4.893
95510W        W66110   4.739  37.126   2.472
95511W        W66111   9.389  15.623   0.522
95512W        W66112  43.245  40.909  11.654
95513W        W66113  22.262  40.725  10.739
95514W        W66114  36.351  33.773   2.196
95515W        W66115  38.345  42.095   2.785
95516W        W66116   4.010  41.481  10.463
95517W        W66117  43.357  23.012   4.786
95518W        W66118  19.669   3.259  11.083
95519W        W66119   5.308  30.093   2.846
95520W        W66120  37.438  13.129  14.496
95521W        W66121  35.836  37.696   3.314
95522W        W66122   7.361   9.199  13.886
95523W        W66123   4.896  26.968  10.985
95524W        W66124   0.574  29.419   2.818
95525W        W66125  13.293   8.896  14.388
95526W        W66126  25.629  44.489   0.030
95527W        W66127  28.558  36.668   3.297
95528W        W66128  20.485  16.696   3.817
95529W        W66129  12.061   2.426  13.396
95530W        W66130  37.480  44.577   2.441
95531W        W66131  28.566  40.863  11.984
95532W        W66132  40.381  17.310   3.649
95533W        W66133  24.980  24.592  14.384
95534W        W66134  10.663  11.667   4.836
95535W        W66135  27.961  39.156   0.281
95536W        W66136   2.119  29.071  12.944
95537W        W66137  41.508   8.784  13.313
95538W        W66138   4.027  22.764   3.315
95539W        W66139   1.450   2.134   2.380
95540W        W66140  23.220  36.727  11.585
95541W        W66141  44.777  20.087  10.493
95542W        W66142  18.035  18.553  12.807
95543W        W66143  38.987  15.807   1.347
95544W        W66144  29.137  24.417  11.128
95545W        W66145   5.660  34.277   4.916
95546W        W66146  18.568  17.222   2.652
95547W        W66147   2.222  33.055   3.779
95548W        W66148  23.687   8.323   1.780
95549W        W66149  14.253  36.351   0.415
95550W        W66150  17.975  31.361   2.343
95551W        W66151   9.664  13.193   3.520
95552W        W66152  41.082  27.628   2.377
95553W        W66153  29.168  13.625  14.023
95554W        W66154  29.147   5.246  11.563
95555W        W66155  21.913  20.692  13.492
95556W        W66156  33.704  27.471  12.878
95557W        W66157   7.293  20.120  13.360
95558W        W66158   1.105  25.400   3.209
95559W        W66159  21.543  24.563   0.442
95560W        W66160  32.539  19.920   1.753
95561W        W66161   6.722  11.713  10.418
95562W        W66162  30.068   2.308  10.502
95563W        W66163  24.338  42.037   1.726
95564W        W66164   3.332  39.463   1.352
95565W        W66165  17.277   6.471  14.811
95566W        W66166  13.411  23.257  12.652
95567W        W66167  24.473  17.230   5.159
95568W        W66168  30.446  31.992   4.371
95569W        W66169   5.252  15.592  13.814
95570W        W66170   6.317   9.150   0.011
95571W        W66171   7.264  14.288   0.743
95572W        W66172  36.627   6.387  13.400
95573W        W66173  43.348  14.258  10.910
95574W        W66174   6.182   6.222  12.938
95575W        W66175  31.484  39.177   4.132
95576W        W66176   4.857   8.949   4.540
95577W        W66177   6.828  22.974  12.880
95578W        W66178   7.811  35.338   2.937
95579W        W66179  24.423  42.856  14.991
95580W        W66180  34.997  15.098   3.087
95581W        W66181  34.422  37.997   0.070
95582W        W66182   4.179   8.285  14.232
95583W        W66183  12.901  22.836   0.329
95584W        W66184  14.251   2.426  12.608
95585W        W66185  17.256   6.182   1.999
95586W        W66186  16.555  28.918   1.358
95587W        W66187  31.979  44.332  12.555
95588W        W66188  17.259  38.374  13.268
95589W        W66189  36.890  34.496  12.960
95590W        W66190   5.408  30.434   0.385
95591W        W66191  34.099  30.549   0.488
95592W        W66192   8.362   8.196   1.460
95593W        W66193  22.697   2.384  10.642
95594W        W66194  12.628  25.910  13.857
95595W        W66195  19.689   7.976   0.393
95596W        W66196  38.899  40.833   3.777
95597W        W66197  29.983  41.876  10.802
95598W        W66198  44.529  44.334   4.736
95599W        W66199   1.710  41.904  12.531
95600W        W66200  13.163   7.680  11.520
95601W        W66201  33.352  41.429  12.613
95602W        W66202  39.998  26.718   0.499
95603W        W66203   1.874  19.166   5.012
95604W        W66204  24.235   2.933   3.158
95605W        W66205  33.068  38.326   1.291
95606W        W66206   1.617  31.011   2.306
95607W        W66207  26.943   7.925   2.269
95608W        W66208   9.700  21.011  13.578
95609W        W66209  40.517  33.380  11.629
95610W        W66210  40.739  10.863  10.764
95611W        W66211   7.809   5.953  10.652
95612W        W66212  29.937  16.677  14.742
95613W        W66213   5.742   6.940   4.620
95614W        W66214  39.877  24.636   3.295
95615W        W66215  34.425  19.461  12.062
95616W        W66216  36.682  42.791  12.910
95617W        W66217  31.148  18.174   4.139
95618W        W66218   8.219   2.284  12.564
95619W        W66219   0.771  20.851   3.672
95620W        W66220  44.733   0.006  12.072
95621W        W66221  31.452  40.002   0.599
95622W        W66222  21.587   1.903  11.070
95623W        W66223  28.125  18.528  11.622
95624W        W66224   5.498  39.805  12.841
95625W        W66225  15.023  39.002  11.956
95626W        W66226  28.002  20.077   0.846
95627W        W66227  40.333  23.807   3.783
95628W        W66228  18.292  12.622  10.559
95629W        W66229  44.357  16.777  14.670
95630W        W66230  29.640  34.348   4.704
95631W        W66231  30.940  17.503  13.251
95632W        W66232   0.760  24.533  11.141
95633W        W66233  15.123  27.052  10.746
95634W        W66234  21.017  41.905   0.215
95635W        W66235  42.976  16.626  13.865
95636W        W66236  33.962  23.642  14.539
95637W        W66237   1.198  19.282  12.577
95638W        W66238   6.875  20.605   1.298
95639W        W66239   6.997  35.961   2.882
95640W        W66240  15.219  19.793  14.897
95641W        W66241   8.704  36.805   0.448
95642W        W66242  18.690  27.435   2.247
95643W        W66243   7.403  17.696   1.912
95644W        W66244  34.858  17.114  11.576
95645W        W66245  23.683   1.593   4.916
95646W        W66246  10.438  23.651   0.340
95647W        W66247  17.706   1.483  10.849
95648W        W66248   6.233  32.665   0.301
95649W        W66249  24.079  23.007   3.897
95650W        W66250   8.172   1.525   0.411
95651W        W66251  14.953  16.255   3.711
95652W        W66252  11.590  21.919   4.168
95653W        W66253  16.378   4.828  12.311
95654W        W66254  12.082   9.908  14.384
95655W        W66255  17.362   3.305  10.712
95656W        W66256  16.411   1.321  14.506
95657W        W66257  40.403  21.590  11.016
95658W        W66258  34.902  25.539  14.803
95659W        W66259  31.202  42.103   4.506
95660W        W66260  10.888  33.525  13.465
95661W        W66261   0.472  27.005  14.497
95662W        W66262  24.977  43.576  14.369
95663W        W66263  20.538  17.128   2.338
95664W        W66264   3.387  26.560  12.991
95665W        W66265  10.166  21.993   3.739
95666W        W66266   4.279   2.990  13.414
95667W        W66267  23.588   3.694  11.163
95668W        W66268   4.301   7.901   3.439
95669W        W66269   2.016   0.735   1.440
95670W        W66270  11.220  44.270   4.611
95671W        W66271  42.231  26.670  12.040
95672W        W66272  26.927  12.728  11.542
95673W        W66273  15.785  44.957  13.400
95674W        W66274  16.554  15.576  12.521
95675W        W66275  37.515   0.710  11.079
95676W        W66276  24.494   3.741  12.567
95677W        W66277   3.812  27.305   4.116
95678W        W66278  21.410  40.070   2.291
95679W        W66279  12.873  17.621  10.563
95680W        W66280  22.891   9.914   0.752
95681W        W66281  41.524  20.614  13.567
95682W        W66282  27.572  26.288  13.947
95683W        W66283  31.722  39.360   0.705
95684W        W66284  11.694   0.812  10.268
95685W        W66285  44.922   2.806  12.924
95686W        W66286  26.437   4.379   0.019
95687W        W66287  39.782  41.571   0.019
95688W        W66288  23.979  10.845  11.597
95689W        W66289  12.393   7.963   1.252
95690W        W66290   5.447  15.309   4.754
95691W        W66291  39.588  12.154  12.052
95692W        W66292   1.819   2.510  10.807
95693W        W66293  24.288  40.320  14.118
95694W        W66294  27.222  37.562  12.324
95695W        W66295  27.236  37.065  12.040
95696W        W66296  23.678   9.443  13.468
95697W        W66297  31.910   6.004  13.958
95698W        W66298   9.627  32.990  12.540
95699W        W66299  26.644  15.187  13.987
95700W        W66300  41.439  24.456   1.925
95701W        W66301  34.910  10.073  10.735
95702W        W66302   0.759  28.532  11.644
95703W        W66303   1.378   4.958   1.280
95704W        W66304  28.448   1.767  10.763
95705W        W66305  22.649  21.186   4.577
95706W        W66306   5.192   5.921  11.668
95707W        W66307  40.873  26.237   2.337
95708W        W66308  31.106  10.460  14.832
95709W        W66309   5.983  15.578   0.410
95710W        W66310  23.722  22.713  14.782
95711W        W66311  34.082  36.119  14.408
95712W        W66312  11.552  39.005   3.609
95713W        W66313  31.811   6.933   4.189
95714W        W66314   7.790  43.210  11.626
95715W        W66315   9.069  38.923  14.956
95716W        W66316  22.315  22.617   1.669
95717W        W66317   0.501  28.509  10.898
95718W        W66318  27.403   4.314   3.001
95719W        W66319   9.036  31.944  11.155
95720W        W66320  33.884  32.551  12.075
95721W        W66321  37.488  31.477   1.231
95722W        W66322  24.412  19.565   0.965
95723W        W66323   2.412  41.211  11.931
95724W        W66324   1.031   5.319   4.834
95725W        W66325  27.719   9.080   2.202
95726W        W66326  21.486  28.953  12.991
95727W        W66327  18.821   3.969  13.488
95728W        W66328  14.470  41.538  13.676
95729W        W66329  14.704  23.769   1.386
95730W        W66330  44.969  14.762  12.949
95731W        W66331  19.566  27.103  13.933
95732W        W66332  17.513  23.599  13.231
95733W        W66333  29.000  22.528  14.018
95734W        W66334  19.375  42.993  13.230
95735W        W66335  20.161  26.683  13.364
95736W        W66336  32.394   8.481   3.866
95737W        W66337   9.125  34.563   0.684
95738W        W66338  14.663  37.475  13.147
95739W        W66339  33.141   7.290  14.823
95740W        W66340  39.801  24.689  14.924
95741W        W66341  32.083  12.257  10.605
95742W        W66342  31.658  38.624  11.078
95743W        W66343  28.241  20.630   3.753
95744W        W66344   3.777  39.046   2.663
95745W        W66345  37.136  44.976   0.081
95746W        W66346  12.533  20.571  12.013
95747W        W66347  35.099  39.154  10.269
95748W        W66348   1.418  35.154   0.060
95749W        W66349  32.469  35.842   5.102
95750W        W66350  43.015   8.165   3.663
95751W        W66351  29.542   0.220  10.634
95752W        W66352  31.924  33.088   4.784
95753W        W66353  13.268  15.205   1.969
95754W        W66354   9.691  37.578  13.997
95755W        W66355  17.664  17.720   1.254
95756W        W66356  44.523  31.660  13.148
95757W        W66357  29.698  32.254   3.613
95758W        W66358  40.353   6.301  11.864
95759W        W66359  24.203  17.503  11.992
95760W        W66360  37.147  24.001  10.754
95761W        W66361  10.155  33.822   1.268
95762W        W66362  42.424  39.294   2.447
95763W        W66363  32.141  20.942   1.196
95764W        W66364  23.988  26.809  12.419
95765W        W66365  34.540  39.572   2.339
95766W        W66366   1.036  23.961   4.153
95767W        W66367   9.664  13.128   1.737
95768W        W66368  33.460  38.021   2.333
95769W        W66369  17.809  31.452  11.553
95770W        W66370  28.518  14.252   5.008
95771W        W66371  42.568  35.503  12.443
95772W        W66372  10.268   8.823   4.053
95773W        W66373  14.894  41.164   4.999
95774W        W66374  16.603   2.350   1.239
95775W        W66375  10.694  14.807  10.399
95776W        W66376  18.982   9.163  11.707
95777W        W66377  16.536  15.053  12.476
95778W        W66378   9.854   4.184   3.632
95779W        W66379  28.923   0.338   2.644
95780W        W66380  33.353  37.126   3.700
95781W        W66381  12.314  12.573  12.799
95782W        W66382  27.606   0.406   2.328
95783W        W66383   7.123   5.354  14.289
95784W        W66384  10.785  44.947  11.922
95785W        W66385  41.897   9.647   3.689
95786W        W66386  31.180  36.460   4.751
95787W        W66387  42.776  28.497   0.227
95788W        W66388   5.925  29.848  14.853
95789W        W66389   8.315  19.667   4.135
95790W        W66390  10.725   6.146   3.796
95791W        W66391  27.122  29.055  13.954
95792W        W66392  38.102  35.054  13.716
95793W        W66393  36.797   0.854   2.294
95794W        W66394  39.644  40.153   1.190
95795W        W66395  39.074  43.419   1.162
95796W        W66396  42.891   2.885   0.392
95797W        W66397  19.326   9.166  10.686
95798W        W66398  42.283  44.241   4.231
95799W        W66399  11.249  32.562   4.131
95800W        W66400  15.132  41.950  12.816
95801W        W66401   9.372  34.897  12.074
95802W        W66402   9.335  31.181  12.445
95803W        W66403  10.307  23.089  11.538
95804W        W66404  24.187  36.182   2.305
95805W        W66405  35.936  12.590   0.889
95806W        W66406   5.903  18.967   0.630
95807W        W66407  39.005  21.882   2.087
95808W        W66408  23.009  33.307   3.543
95809W        W66409   2.903   9.891  11.763
95810W        W66410   1.342  26.482  13.376
95811W        W66411  16.550  16.097  14.843
95812W        W66412  31.537  27.151  10.662
95813W        W66413  15.748  33.962  14.956
95814W        W66414   9.245   6.869   1.905
95815W        W66415   2.885  44.378   0.996
95816W        W66416  10.362  23.409  14.887
95817W        W66417  19.672  39.596   2.355
95818W        W66418  34.642  31.926   3.175
95819W        W66419  39.694  27.564  12.615
95820W        W66420   5.735   3.816  10.757
95821W        W66421   5.444   4.854  13.910
95822W        W66422  32.393  10.059  13.908
95823W        W66423   4.678  28.573  12.826
95824W        W66424  33.038  10.617  14.844
95825W        W66425  22.127  20.648  12.471
95826W        W66426  15.613  12.696  13.803
95827W        W66427  36.545  41.838  14.781
95828W        W66428   1.899  41.950  13.376
95829W        W66429  36.955  21.232   4.067
95830W        W66430  16.827  21.118  10.419
95831W        W66431  35.490  29.119   0.058
95832W        W66432  27.142  25.607   4.667
95833W        W66433  27.093  26.333  14.209
95834W        W66434   7.870   5.386   1.329
95835W        W66435  31.561  43.226   9.498
95836W        W66436  44.977  15.806   1.424
95837W        W66437  18.481  18.830  13.452
95838W        W66438   6.416  21.543   1.292
95839W        W66439  13.727  34.587  12.915
95840W        W66440   6.266  28.343  11.998
95841W        W66441   2.135  11.587  14.848
95842W        W66442  40.972   0.295   1.206
95843W        W66443  15.245   8.915  14.944
95844W        W66444  22.057  38.481  14.372
95845W        W66445   2.606  19.030  12.950
95846W        W66446  37.157  16.577   2.519
95847W        W66447   6.709   2.785   2.319
95848W        W66448  10.724  16.624   1.337
95849W        W66449  34.768  33.609   0.330
95850W        W66450  35.461  18.135  14.532
95851W        W66451  20.195  37.018  10.722
95852W        W66452  41.396  12.445  12.516
95853W        W66453  27.760  25.630   2.917
95854W        W66454  40.106  40.377   1.229
95855W        W66455  37.295  32.457  11.634
95856W        W66456   4.954  14.883  10.545
95857W        W66457  15.675  14.386  11.166
95858W        W66458  33.378   0.302   3.839
95859W        W66459  10.393  10.828   0.924
95860W        W66460  42.316  44.263  11.762
95861W        W66461  23.737  33.889  14.922
95862W        W66462  17.497  35.081   1.406
95863W        W66463  11.951  41.326   2.441
95864W        W66464  27.826  17.509  11.772
95865W        W66465  18.324  16.771   2.758
95866W        W66466  43.997  17.566   1.745
95867W        W66467   3.559   3.245   3.775
95868W        W66468  41.466   2.457   0.850
95869W        W66469  30.686   9.133   1.721
95870W        W66470  13.573  15.897   0.402
95871W        W66471   4.325  22.290  14.799
95872W        W66472  40.390  32.119   1.342
95873W        W66473  29.378  23.995   2.157
95874W        W66474  13.262   9.486   0.233
95875W        W66475  30.632  24.924   1.855
95876W        W66476   1.444   6.896   1.395
95877W        W66477  29.298  25.870   2.315
95878W        W66478  12.263  33.567   2.032
95879W        W66479  44.741  33.610   1.792
95880W        W66480  37.916  39.576  13.589
95881W        W66481  12.527  44.058   3.388
95882W        W66482  27.017  16.048  12.379
95883W        W66483  21.221  32.455   4.336
95884W        W66484   7.136   2.262   4.048
95885W        W66485   2.511   4.869   2.779
95886W        W66486  39.592  22.188   5.023
95887W        W66487   2.863   7.139  13.031
95888W        W66488  31.974   3.745  14.375
95889W        W66489  21.452   8.199   3.201
95890W        W66490   4.867   9.827   2.128
95891W        W66491  44.439  26.565   0.614
95892W        W66492  42.527  24.676   1.239
95893W        W66493  35.401  27.708  13.573
95894W        W66494  18.479  16.468  10.699
95895W        W66495  10.237  42.515   2.778
95896W        W66496  28.632  38.380  10.764
95897W        W66497  37.977  19.837   2.785
95898W        W66498  11.843   1.351   0.336
95899W        W66499  44.738   4.381  14.381
95900W        W66500  27.280  42.888  13.371
95901W        W66501  31.611  30.420   4.785
95902W        W66502   7.057  24.863   1.222
95903W        W66503  19.803  24.067   0.336
95904W        W66504  40.909  28.660   0.297
95905W        W66505  28.623  22.075  12.833
95906W        W66506   1.388  20.322  12.445
95907W        W66507  42.281  34.568  10.763
95908W        W66508  29.158  11.169  11.890
95909W        W66509   8.031  11.366   0.209
95910W        W66510  20.221  37.339   1.397
95911W        W66511  21.005   0.839  11.166
95912W        W66512  40.118  10.163  12.957
95913W        W66513  16.283  20.962   2.755
95914W        W66514  36.694  34.374   0.509
95915W        W66515  24.894  18.476  12.970
95916W        W66516  20.249  12.685  12.001
95917W        W66517   9.296  44.391   3.868
95918W        W66518  11.581  10.315  10.252
95919W        W66519  44.042  18.281   2.766
95920W        W66520  15.146  42.017   2.427
95921W        W66521  36.945  21.744   4.118
95922W        W66522  30.574   2.736   2.016
95923W        W66523  27.227   2.682   1.385
95924W        W66524  22.727  41.065   0.380
95925W        W66525  33.475  33.966  12.134
95926W        W66526  33.313  20.574   2.803
95927W        W66527  13.575  40.015  11.109
95928W        W66528  30.466  28.972   2.859
95929W        W66529  18.002  33.100  10.399
95930W        W66530   8.873  14.642  14.570
95931W        W66531  35.522  22.126  10.683
95932W        W66532  39.913  14.779   3.751
95933W        W66533  43.431  31.067  13.837
95934W        W66534  17.705  26.698   3.649
95935W        W66535  14.090   9.659  12.990
95936W        W66536  17.355   8.184   4.859
95937W        W66537   9.909  25.045   1.655
95938W        W66538  44.733  26.998   2.790
95939W        W66539   2.839  43.382  10.690
95940W        W66540  36.794  42.153  11.385
95941W        W66541  16.001  21.538  14.554
95942W        W66542   5.475  36.026  11.227
95943W        W66543  43.242  41.261   2.813
95944W        W66544   5.974  40.018   1.846
95945W        W66545  39.849   4.928  14.811
95946W        W66546  21.704  41.438   1.429
95947W        W66547  33.350   3.500   0.868
95948W        W66548  35.006  39.092  14.175
95949W        W66549  27.605  32.596   0.276
95950W        W66550  23.266  13.744   1.209
95951W        W66551  20.632  13.047   1.460
95952W        W66552   1.227  44.970   1.808
95953W        W66553  17.636  18.764  11.884
95954W        W66554  27.131  23.610  12.958
95955W        W66555  27.074  40.835   3.191
95956W        W66556  13.556  20.167   2.638
95957W        W66557   1.331  13.826   4.560
95958W        W66558  33.168   7.970   1.679
95959W        W66559  29.472  30.189  13.832
95960W        W66560   3.924   6.234  12.522
95961W        W66561  44.566   2.435  13.832
95962W        W66562   1.351  29.971  12.176
95963W        W66563  16.175   8.311  12.563
95964W        W66564  38.476  44.740  14.443
95965W        W66565  36.054  19.982  12.999
95966W        W66566  22.870  13.490   4.208
95967W        W66567  18.085  30.104   5.058
95968W        W66568  10.279  26.029  11.679
95969W        W66569   7.251  44.879   0.783
95970W        W66570  20.265  11.321  14.045
95971W        W66571  42.417  11.333  14.842
95972W        W66572  24.267   6.692  11.529
95973W        W66573  41.201   4.873   1.346
95974W        W66574  12.106   3.879  11.991
95975W        W66575  40.021  20.766  12.032
95976W        W66576  17.242  37.717  11.999
95977W        W66577  42.193  32.052   5.006
95978W        W66578  36.197  26.108  12.067
95979W        W66579  22.348  17.520  11.460
95980W        W66580  24.493  19.196   1.588
95981W        W66581  44.853  14.229  14.448
95982W        W66582  28.959   3.731  13.583
95983W        W66583   8.287  19.559   2.396
95984W        W66584  38.940  38.424  11.109
95985W        W66585  43.312  21.649  11.104
95986W        W66586   4.957  42.383   0.393
95987W        W66587  20.089  34.637  12.983
95988W        W66588   4.831  38.967  12.774
95989W        W66589   5.694   8.971   1.280
95990W        W66590  10.394  37.829   2.661
95991W        W66591  12.204   4.945  14.742
95992W        W66592  13.271  42.333   2.229
95993W        W66593  15.063  19.187   4.437
95994W        W66594  15.795   1.868   2.316
95995W        W66595  32.953  40.541   2.774
95996W        W66596  32.999  13.367   4.906
95997W        W66597  39.333  14.250  10.881
95998W        W66598   0.974   6.770  10.655
95999W        W66599  35.990  28.504  14.772
96000W        W66600  18.822  15.282  12.043
96001W        W66601  39.264  11.653   1.413
96002W        W66602  15.296  13.118  12.371
96003W        W66603  27.361   4.843  12.597
96004W        W66604  39.479   8.676   3.351
96005W        W66605  34.226   2.896   2.339
96006W        W66606  41.767  23.700  11.055
96007W        W66607  42.551  44.904   1.181
96008W        W66608  39.178   6.086  13.499
96009W        W66609  33.996  43.849  13.302
96010W        W66610  37.175  18.306   1.123
96011W        W66611  39.994   6.597  12.556
96012W        W66612  15.370  44.960   1.329
96013W        W66613   4.844   4.887  13.351
96014W        W66614  35.995  44.997  11.481
96015W        W66615   2.413  28.003  14.811
96016W        W66616  16.208  21.097   0.150
96017W        W66617  13.585  38.260  12.908
96018W        W66618  21.752  12.834   3.443
96019W        W66619  18.616  29.554   3.482
96020W        W66620  22.233  13.822  11.861
96021W        W66621  21.558  22.093   0.178
96022W        W66622   3.741  21.604   1.455
96023W        W66623  29.057  11.340  12.835
96024W        W66624  36.062  10.556   2.852
96025W        W66625  21.645  31.130  13.721
96026W        W66626  17.616  38.442   2.411
96027W        W66627   4.393   9.647  12.082
96028W        W66628  43.934  20.991  13.947
96029W        W66629  32.960  25.510   3.134
96030W        W66630   0.930   9.744   3.838
96031W        W66631  22.528  36.141   1.391
96032W        W66632  23.419   0.461  13.565
96033W        W66633   6.633  36.610  13.951
96034W        W66634   5.674   5.909  11.427
96035W        W66635  16.821  18.006   1.228
96036W        W66636  37.240  33.582   5.034
96037W        W66637  34.436   1.631   3.809
96038W        W66638  13.912  35.711  13.422
96039W        W66639  19.575  18.672   3.798
96040W        W66640  11.819   8.066  11.436
96041W        W66641  43.964  25.034  10.975
96042W        W66642  18.120   2.769   2.922
96043W        W66643  24.907  39.749   1.163
96044W        W66644  12.625  42.522  14.539
96045W        W66645  14.321   4.805  13.501
96046W        W66646  16.623  33.528   2.638
96047W        W66647   0.938  33.579  11.444
96048W        W66648  38.939   8.603  10.257
96049W        W66649  38.051  11.629   3.941
96050W        W66650   8.245  35.403  11.127
96051W        W66651  12.180  14.672   4.247
96052W        W66652  41.539  37.917  10.645
96053W        W66653  30.483   5.969  12.062
96054W        W66654  32.342  17.133   1.953
96055W        W66655  44.494  13.792  11.442
96056W        W66656  32.655   9.171  14.007
96057W        W66657  24.909  22.092  12.928
96058W        W66658  15.688   5.302   4.080
96059W        W66659  43.524  24.758   1.692
96060W        W66660   7.533   2.331  11.403
96061W        W66661  16.337  39.126   2.492
96062W        W66662  21.581   0.492   3.101
96063W        W66663  15.820  21.677  14.074
96064W        W66664  10.791   3.862   4.237
96065W        W66665  35.001  17.772  11.079
96066W        W66666  17.007  32.880  10.711
96067W        W66667  10.423  16.548   4.097
96068W        W66668  17.750  22.421  11.663
96069W        W66669  43.704  22.713  13.103
96070W        W66670  42.126   3.753   2.127
96071W        W66671  18.589  39.226  14.974
96072W        W66672   8.376  34.006   0.852
96073W        W66673  39.084  19.560   9.885
96074W        W66674   7.970  30.646   4.117
96075W        W66675  25.808  39.082   2.715
96076W        W66676  39.302  38.865   0.900
96077W        W66677  23.730  29.935   3.269
96078W        W66678  17.135   3.878  12.385
96079W        W66679   0.017  27.028  11.990
96080W        W66680   9.721  17.921  11.668
96081W        W66681  39.857  30.988   1.906
96082W        W66682  31.239  37.832  10.159
96083W        W66683   9.147  43.391   0.299
96084W        W66684  22.933   6.939  14.983
96085W        W66685  42.467   9.130   4.393
96086W        W66686  19.833  30.077  13.133
96087W        W66687  40.162  26.359   5.465
96088W        W66688   5.893  42.785  13.493
96089W        W66689  25.347  31.122  13.011
96090W        W66690  26.311   6.173   9.893
96091W        W66691  39.372  14.778   1.347
96092W        W66692   5.773  34.518   3.813
96093W        W66693  28.717  21.247   4.017
96094W        W66694  12.248  10.911   2.640
96095W        W66695  34.431  28.551   3.276
96096W        W66696  16.170  38.110   1.655
96097W        W66697   9.415   0.316  12.104
96098W        W66698  37.115  19.037  11.458
96099W        W66699  24.815  18.289   4.179
96100W        W66700  17.463  37.870   0.445
96101W        W66701  36.507   7.868   4.577
96102W        W66702   5.653  27.634   4.838
96103W        W66703  39.556   9.272  10.813
96104W        W66704  34.797  21.686  10.640
96105W        W66705  26.288  42.498  13.457
96106W        W66706  27.159  32.346   0.292
96107W        W66707  30.868  36.498  14.001
96108W        W66708   5.441  15.333  12.011
96109W        W66709   8.179  26.035   1.868
96110W        W66710  32.261  23.201   0.755
96111W        W66711  44.726  27.558   3.458
96112W        W66712  42.733  15.850  13.434
96113W        W66713   0.331  44.973   2.316
96114W        W66714  14.154  24.647   1.875
96115W        W66715  37.578  13.349   4.581
96116W        W66716  13.061  20.153   4.100
96117W        W66717   3.090  15.117   3.815
96118W        W66718  28.910  34.056   2.259
96119W        W66719  27.054   2.149  12.522
96120W        W66720   5.129  32.412   3.299
96121W        W66721  32.330   1.839   5.130
96122W        W66722  14.527   2.959  14.887
96123W        W66723  36.537  27.801   4.632
96124W        W66724  11.887  12.464  11.019
96125W        W66725  42.580  10.133   4.200
96126W        W66726  39.608  25.739   4.278
96127W        W66727  44.016  42.735   1.675
96128W        W66728   5.344  21.243  13.019
96129W        W66729   7.400  30.423  10.686
96130W        W66730  36.323  35.175  10.681
96131W        W66731   9.195  27.945   1.307
96132W        W66732   1.809   9.923  13.029
96133W        W66733   3.406  16.823   3.388
96134W        W66734  38.453  30.461   4.320
96135W        W66735  33.480  12.079  12.096
96136W        W66736  42.788  22.733   4.415
96137W        W66737  35.027   6.133   0.418
96138W        W66738  13.145  19.125   2.213
96139W        W66739   5.345   5.152  14.325
96140W        W66740   9.109   9.017   4.634
96141W        W66741  11.597  42.843   1.232
96142W        W66742  18.892   4.052   4.554
96143W        W66743   1.443  17.678  12.137
96144W        W66744  40.017  21.127   2.615
96145W        W66745  18.242  24.491   3.221
96146W        W66746  31.677   2.391  10.716
96147W        W66747  43.451   4.895  11.557
96148W        W66748  28.410   9.369  14.943
96149W        W66749  36.856  36.413  12.565
96150W        W66750  36.552   8.351  11.142
96151W        W66751  34.067   2.392   2.377
96152W        W66752  29.961  19.221  14.068
96153W        W66753  44.781  20.792  14.151
96154W        W66754  18.542  33.695   1.202
96155W        W66755  13.521  15.322   4.039
96156W        W66756  22.936  25.492  10.739
96157W        W66757  30.625   6.511  14.105
96158W        W66758  11.750  39.270  12.355
96159W        W66759  27.047  13.210   1.962
96160W        W66760  16.265   9.865   3.673
96161W        W66761  16.042  11.734  12.963
96162W        W66762  35.841   1.903   3.214
96163W        W66763  11.201  12.667  13.776
96164W        W66764  30.887  20.454   2.699
96165W        W66765  12.374  28.537  12.003
96166W        W66766  10.356  10.114   2.321
96167W        W66767  44.342  36.900  11.094
96168W        W66768   2.466   3.229   3.606
96169W        W66769  25.238  35.750  11.445
96170W        W66770   9.335  20.186   0.107
96171W        W66771  22.123  44.538  12.912
96172W        W66772   1.129  30.846   2.219
96173W        W66773   3.977   2.455  11.172
96174W        W66774  33.815   3.380  11.597
96175W        W66775  42.097  17.104   0.208
96176W        W66776  23.446  32.393   1.879
96177W        W66777  14.220  37.574   2.697
96178W        W66778  43.239   8.587  13.966
96179W        W66779  27.659  10.621  12.173
96180W        W66780  38.629  17.094   4.088
96181W        W66781  42.831  23.248  12.640
96182W        W66782  38.573  32.638  12.401
96183W        W66783  22.494  22.971   4.652
96184W        W66784  41.356  18.793   3.705
96185W        W66785  33.881  15.799  10.674
96186W        W66786   2.851  28.499  10.734
96187W        W66787  35.765  42.558  11.695
96188W        W66788   4.192  29.622   1.452
96189W        W66789   9.550  19.163  11.267
96190W        W66790  32.596   6.875   1.386
96191W        W66791  11.171   4.452   1.904
96192W        W66792  27.104   3.675   3.861
96193W        W66793  19.058   7.700  10.723
96194W        W66794  33.891  36.595  14.351
96195W        W66795  38.344   4.196  11.119
96196W        W66796  31.107  29.407  13.892
96197W        W66797   1.052  29.212  10.325
96198W        W66798  37.377  21.037  13.519
96199W        W66799   0.806  37.603  12.640
96200W        W66800  28.961  32.400   4.195
96201W        W66801   3.317  32.405  14.050
96202W        W66802  38.015  42.986  11.643
96203W        W66803   4.434   0.848  10.680
96204W        W66804  13.185  14.686  12.044
96205W        W66805  37.481  42.995   4.575
96206W        W66806  13.072  35.352   2.985
96207W        W66807  16.207  43.824  14.113
96208W        W66808  33.152  28.112   4.205
96209W        W66809  20.857  28.538   3.153
96210W        W66810  25.465  33.178   1.232
96211W        W66811  36.241  38.527  11.663
96212W        W66812  21.032  26.260   5.561
96213W        W66813   2.203  36.982   1.444
96214W        W66814  25.352  21.225  11.159
96215W        W66815  28.670  10.657   3.249
96216W        W66816  26.711  26.101  11.655
96217W        W66817   4.965  24.283  13.054
96218W        W66818  26.198  31.547   3.687
96219W        W66819  15.958  27.433   5.173
96220W        W66820  36.655  24.237  13.070
96221W        W66821  28.501  15.825  13.923
96222W        W66822  11.972  34.581   2.534
96223W        W66823  38.839  37.664   4.209
96224W        W66824  34.438   0.827   0.780
96225W        W66825  26.519  15.877   0.061
96226W        W66826  15.153  33.029   4.130
96227W        W66827   5.503   5.181  11.106
96228W        W66828  39.428  22.290  12.546
96229W        W66829  35.945  34.609   3.229
96230W        W66830  19.221  28.187   3.741
96231W        W66831   2.945  30.442   4.960
96232W        W66832  22.039  28.121   4.864
96233W        W66833  40.610   9.853   2.843
96234W        W66834  36.231  38.962  14.404
96235W        W66835   6.310  17.099   0.433
96236W        W66836  26.721  19.800  12.036
96237W        W66837  44.833  13.305  13.354
96238W        W66838  44.580  43.320  13.911
96239W        W66839   6.900  33.555   2.555
96240W        W66840  14.815  37.126   2.217
96241W        W66841  16.516  36.025   3.782
96242W        W66842  28.638  23.440   0.768
96243W        W66843   0.279  18.169   2.159
96244W        W66844  29.866   4.900   2.463
96245W        W66845  27.655  32.121  11.192
96246W        W66846  30.749   6.205   5.068
96247W        W66847  42.105   5.743  12.956
96248W        W66848  30.830  14.525  14.962
96249W        W66849   7.482  30.540  12.808
96250W        W66850  10.122  15.680  12.428
96251W        W66851  14.105  14.310   0.548
96252W        W66852  35.075  33.489  14.326
96253W        W66853  27.452  42.316  10.541
96254W        W66854   5.600  32.430  14.670
96255W        W66855  44.694  25.253   0.938
96256W        W66856  23.856  23.726  12.538
96257W        W66857  10.769  40.277  11.527
96258W        W66858  22.588  28.721   4.531
96259W        W66859   3.066   1.764   3.295
96260W        W66860  14.155   9.232  14.855
96261W        W66861   4.787   3.820   1.518
96262W        W66862  28.982  19.509   1.782
96263W        W66863   7.901  30.457   0.881
96264W        W66864  38.335  36.973   1.544
96265W        W66865  11.077  36.772   1.676
96266W        W66866  33.667  24.088   0.867
96267W        W66867  27.526  13.702  11.896
96268W        W66868  13.237  23.467   5.046
96269W        W66869  10.272   3.722  13.551
96270W        W66870  22.137  19.207   4.537
96271W        W66871  12.713  41.505   2.755
96272W        W66872  16.814  38.456   2.977
96273W        W66873  28.027  34.335  13.823
96274W        W66874  42.143  44.832   3.621
96275W        W66875   3.366  42.932   3.771
96276W        W66876  25.823  43.320   0.511
96277W        W66877  15.807  28.039   3.309
96278W        W66878  11.461  18.799   3.698
96279W        W66879  36.462   1.542   3.742
96280W        W66880  40.577   7.656   4.128
96281W        W66881   4.341  19.574   2.117
96282W        W66882  41.914   6.728  14.253
96283W        W66883  40.597  44.513  13.862
96284W        W66884  37.586   4.406  14.436
96285W        W66885  19.891  25.029  14.537
96286W        W66886  27.574  12.181   0.736
96287W        W66887  27.484  35.943  14.408
96288W        W66888   3.178   2.425  12.518
96289W        W66889  37.804  10.184   4.249
96290W        W66890  32.119  29.646  14.612
96291W        W66891   9.226  33.434   2.238
96292W        W66892  32.014  10.340  11.077
96293W        W66893  20.537  39.533  14.976
96294W        W66894  24.133  40.292   4.859
96295W        W66895   3.713  28.885  11.937
96296W        W66896  33.529  24.180   3.134
96297W        W66897  35.922   2.883  12.461
96298W        W66898   4.171   4.282   3.330
96299W        W66899  43.324   7.112   0.034
96300W        W66900  11.739   3.395  10.138
96301W        W66901  18.497  41.223  11.303
96302W        W66902  35.161  37.732   2.753
96303W        W66903  15.634  42.875  11.928
96304W        W66904  39.292   5.291   1.497
96305W        W66905  37.053  28.928  12.055
96306W        W66906  32.391   0.244  14.392
96307W        W66907  34.942   6.678   0.432
96308W        W66908  12.663  11.022   4.894
96309W        W66909  33.148  34.690  12.564
96310W        W66910  43.391  35.876  11.594
96311W        W66911   7.159  27.956  12.201
96312W        W66912  35.850  35.175   0.938
96313W        W66913  18.372  37.499  13.130
96314W        W66914  28.193  32.383   4.739
96315W        W66915  23.658   9.121  10.783
96316W        W66916  31.197  36.046   3.578
96317W        W66917  13.089  42.773  13.911
96318W        W66918   6.083  14.125  10.311
96319W        W66919  30.445  43.303   2.876
96320W        W66920  13.141  30.972  13.127
96321W        W66921  28.027  10.961   0.637
96322W        W66922  26.731  14.767   2.837
96323W        W66923  30.195  25.218   0.467
96324W        W66924  29.740  32.079   1.312
96325W        W66925  34.049  30.350  14.476
96326W        W66926  17.611  11.271   4.596
96327W        W66927  15.161   4.285   3.469
96328W        W66928  30.200  11.317   0.491
96329W        W66929  23.378  42.483  10.126
96330W        W66930  15.554   9.649   3.200
96331W        W66931  24.584  26.491   3.251
96332W        W66932  17.515  33.431  13.992
96333W        W66933  22.432   8.651   1.306
96334W        W66934  37.803  16.104   2.762
96335W        W66935  36.964  36.933   1.377
96336W        W66936  18.609  10.297  10.565
96337W        W66937  20.426  16.745   1.861
96338W        W66938  20.834  22.644   0.682
96339W        W66939  42.794  17.584   3.288
96340W        W66940  12.157  38.225  10.900
96341W        W66941  12.358  29.161  11.548
96342W        W66942  32.689  14.094   4.071
96343W        W66943  39.616   3.381  14.118
96344W        W66944  23.644  41.954   3.479
96345W        W66945  35.026  10.822  12.381
96346W        W66946  25.675  16.346   0.806
96347W        W66947   4.900  27.035  10.464
96348W        W66948  22.141  22.501  10.721
96349W        W66949  14.402  33.525  14.367
96350W        W66950   9.634   5.744  14.458
96351W        W66951  21.864   9.316   3.122
96352W        W66952  30.548  44.462   2.888
96353W        W66953   8.490  44.377   1.030
96354W        W66954   4.595  32.940  12.544
96355W        W66955  42.949  31.145  14.504
96356W        W66956   3.173  19.088   1.999
96357W        W66957  10.939  24.924   4.314
96358W        W66958  17.051  44.280  13.920
96359W        W66959  27.929  36.965   3.090
96360W        W66960  30.545  15.304  13.440
96361W        W66961  39.230  10.014  10.292
96362W        W66962  44.839  23.972  12.777
96363W        W66963  44.937  34.047   4.567
96364W        W66964  27.049  41.277   4.124
96365W        W66965  15.959  15.506  11.935
96366W        W66966  15.289  42.812  13.561
96367W        W66967   5.389   1.227  12.936
96368W        W66968  40.302  15.146  12.460
96369W        W66969  22.636  12.042  10.756
96370W        W66970  33.509   4.044  13.574
96371W        W66971  38.348  10.910  14.812
96372W        W66972  35.648  15.033  10.708
96373W        W66973  39.341  35.794  12.435
96374W        W66974  17.557   3.674  11.638
96375W        W66975  17.324  19.099   4.183
96376W        W66976  24.174  28.683  11.607
96377W        W66977  22.212   1.747   2.961
96378W        W66978  23.838  25.223   3.126
96379W        W66979  20.250  44.243  11.966
96380W        W66980  34.381   4.790  14.983
96381W        W66981  10.160  23.507   2.162
96382W        W66982  14.551  31.501  14.978
96383W        W66983   1.421  34.953  10.755
96384W        W66984  40.844  10.711   1.399
96385W        W66985   9.432  43.445  14.871
96386W        W66986   3.625   0.497  10.651
96387W        W66987   7.265  18.838  11.493
96388W        W66988  20.569  34.299  11.257
96389W        W66989   8.099  32.814   3.358
96390W        W66990  11.582  36.959  12.909
96391W        W66991  23.811  15.683  12.367
96392W        W66992  22.538  35.827   3.269
96393W        W66993  32.643  17.578   3.233
96394W        W66994  16.244   3.165  12.543
96395W        W66995  14.871  34.057   2.710
96396W        W66996  37.522  37.120   4.110
96397W        W66997  32.821  35.406  14.621
96398W        W66998  13.574   6.212  11.229
96399W        W66999  28.966  43.784   0.202
96400W        W67000  12.684  37.145  11.973
96401W        W67001  16.498  24.449   4.265
96402W        W67002  15.750  11.085   1.701
96403W        W67003   7.659  39.617   0.935
96404W        W67004  31.187  41.904   2.576
96405W        W67005   8.798  44.095  14.249
96406W        W67006  24.897   3.331   0.785
96407W        W67007  42.808  24.177   4.543
96408W        W67008  38.056  13.247  13.979
96409W        W67009  29.198  26.017   0.317
96410W        W67010  20.053   1.596   1.315
96411W        W67011  37.870  21.057  13.758
96412W        W67012  29.395   1.862  12.078
96413W        W67013  25.418  21.030   2.316
96414W        W67014   6.765  10.794   0.017
96415W        W67015   9.806  42.779   2.704
96416W        W67016  29.412  41.773  13.875
96417W        W67017  11.262  21.170   0.483
96418W        W67018  12.407  40.598   1.889
96419W        W67019  13.351   6.359  13.116
96420W        W67020   6.641  19.296   2.257
96421W        W67021   0.926  10.219   4.693
96422W        W67022  27.715  41.397   9.943
96423W        W67023  32.441   2.951   0.893
96424W        W67024  20.736  31.862   4.232
96425W        W67025  14.349  42.796   2.386
96426W        W67026  21.554  29.631   0.430
96427W        W67027  32.152   1.945   4.644
96428W        W67028   3.457  39.777  10.660
96429W        W67029  40.887  31.399  13.927
96430W        W67030  42.891   9.259  13.338
96431W        W67031  32.580  32.801  11.955
96432W        W67032   6.245  39.251   0.134
96433W        W67033  44.602   4.347   1.252
96434W        W67034  18.692  26.140  14.026
96435W        W67035  18.027  18.145  11.443
96436W        W67036  43.789   3.448  14.516
96437W        W67037  10.781  11.152  12.054
96438W        W67038  10.111  17.453   4.934
96439W        W67039  31.377  43.793   1.612
96440W        W67040  18.533   6.132  13.985
96441W        W67041  29.163  41.973   3.143
96442W        W67042  36.593  12.180  11.275
96443W        W67043  36.636  19.423   1.466
96444W        W67044   0.034  39.702   2.639
96445W        W67045  19.590   8.309   4.570
96446W        W67046  30.632  38.471   2.398
96447W        W67047   3.344  31.406   5.112
96448W        W67048  16.112  44.783   1.777
96449W        W67049  13.997  41.422  13.440
96450W        W67050  31.399  33.831  11.243
96451W        W67051  37.856  25.223   4.008
96452W        W67052   7.420   8.708  14.438
96453W        W67053  27.133   8.066  10.641
96454W        W67054  18.041  36.286   0.812
96455W        W67055  18.142  15.614  14.651
96456W        W67056  35.595  43.523  13.877
96457W        W67057   0.263  13.380  12.919
96458W        W67058   6.813  19.982   3.893
96459W        W67059   4.738  25.222  10.522
96460W        W67060  17.583  36.810   1.647
96461W        W67061  24.920   6.182   3.262
96462W        W67062   8.628  39.887   2.292
96463W        W67063   5.183   4.835   4.243
96464W        W67064  39.547   6.653   1.901
96465W        W67065  25.533  18.010  11.567
96466W        W67066  24.266   3.753   2.432
96467W        W67067  21.893  35.251   2.198
96468W        W67068   9.712  30.442   4.770
96469W        W67069  40.491   4.974   3.537
96470W        W67070   6.174  19.546  10.927
96471W        W67071  37.042  19.651   1.182
96472W        W67072  14.840  44.950  10.310
96473W        W67073  22.618   7.833  14.307
96474W        W67074  23.727  25.027   4.625
96475W        W67075  40.840  24.465  13.828
96476W        W67076  42.015  33.113   3.851
96477W        W67077  40.868  18.080  11.667
96478W        W67078  30.527  36.530  12.659
96479W        W67079  26.196  32.555  14.554
96480W        W67080  36.270  16.030  14.330
96481W        W67081  10.977  18.596   3.627
96482W        W67082  20.649  36.194   4.554
96483W        W67083  10.453   3.685   3.284
96484W        W67084  23.516   4.637   0.945
96485W        W67085  12.188  32.889   4.757
96486W        W67086  21.127  20.018  12.459
96487W        W67087  39.514  44.496   1.772
96488W        W67088   5.433  38.853  13.389
96489W        W67089  23.733  13.812   1.407
96490W        W67090  17.468  42.055   1.947
96491W        W67091  19.670  10.129   0.782
96492W        W67092  38.632   5.621  14.376
96493W        W67093  35.390  33.957  12.560
96494W        W67094  17.933  24.307   0.004
96495W        W67095  17.201  25.557  10.231
96496W        W67096  14.157  20.660  14.464
96497W        W67097   2.846  23.747  13.570
96498W        W67098  27.502  13.094   1.711
96499W        W67099   1.297  34.621   2.277
96500W        W67100   5.996  32.928  13.958
96501W        W67101  27.666  43.566  13.876
96502W        W67102   6.638   0.762  11.240
96503W        W67103   9.364  19.935  11.129
96504W        W67104  40.968  13.250  11.014
96505W        W67105  33.029   8.365  14.260
96506W        W67106  23.958  19.414  12.741
96507W        W67107  21.536  18.620   1.209
96508W        W67108   8.568   8.672   1.646
96509W        W67109   4.271  27.534  13.054
96510W        W67110  14.686  14.254   1.837
96511W        W67111   7.281  24.775   1.714
96512W        W67112  41.574  40.834   3.296
96513W        W67113  30.076  32.839  14.835
96514W        W67114  40.818  29.915   2.245
96515W        W67115  41.258   5.888  13.059
96516W        W67116  38.706   3.165  11.664
96517W        W67117  34.992  37.408   3.137
96518W        W67118  37.854  34.593  13.332
96519W        W67119  36.388   1.334  14.290
96520W        W67120  29.670  15.658  14.772
96521W        W67121  31.868   8.205  11.633
96522W        W67122   8.487  35.926   4.160
96523W        W67123   1.276   8.776   1.104
96524W        W67124  10.219  26.944  14.007
96525W        W67125   4.239  21.724  11.526
96526W        W67126  28.077  27.383   1.650
96527W        W67127   0.400  35.831  13.227
96528W        W67128  44.856  21.306   3.627
96529W        W67129  40.076  23.330  12.013
96530W        W67130  23.273  35.800   3.761
96531W        W67131  41.936  14.737   2.929
96532W        W67132  26.523  28.635  10.456
96533W        W67133  37.661  17.447  13.341
96534W        W67134   2.478  26.926   5.040
96535W        W67135  31.159  41.584  13.109
96536W        W67136   9.289  29.394   0.985
96537W        W67137  25.923   5.300   0.245
96538W        W67138  14.796  35.996   4.033
96539W        W67139  17.497  36.034   4.955
96540W        W67140  41.004  20.318  11.137
96541W        W67141  24.488  41.062  12.552
96542W        W67142  36.495  41.804   3.161
96543W        W67143  18.687  10.835   3.280
96544W        W67144  31.868  18.628   1.155
96545W        W67145  25.087  39.747   4.029
96546W        W67146  22.066   2.228   2.860
96547W        W67147   0.902  16.600   2.241
96548W        W67148  34.883   9.395   4.136
96549W        W67149   9.688  24.063  13.783
96550W        W67150  22.838  39.871  10.771
96551W        W67151  38.371  35.329   4.186
96552W        W67152  40.226  23.764   1.732
96553W        W67153  40.826  40.926  12.548
96554W        W67154  39.405  20.828  12.601
96555W        W67155  41.399  41.688   2.161
96556W        W67156  16.537  41.991  13.932
96557W        W67157  31.625  26.707  11.889
96558W        W67158   2.180  25.087   1.911
96559W        W67159  10.660  20.924   2.426
96560W        W67160   8.857   5.349  12.168
96561W        W67161  13.115   8.314   3.708
96562W        W67162  33.436   5.975   3.140
96563W        W67163   5.976  44.373   3.628
96564W        W67164  17.955  40.874  10.661
96565W        W67165   2.840   6.466  12.674
96566W        W67166  17.246  36.745  13.955
96567W        W67167  30.020  19.586   4.646
96568W        W67168   2.492  25.754   2.456
96569W        W67169  21.537  31.411  12.397
96570W        W67170  40.831  23.168  14.194
96571W        W67171  10.318  28.708  14.456
96572W        W67172  21.000  42.074  14.533
96573W        W67173  35.090   2.692   0.229
96574W        W67174  33.678  10.183   1.225
96575W        W67175  38.112   3.187  11.032
96576W        W67176  10.544   5.862   0.847
96577W        W67177  30.886  19.644   2.283
96578W        W67178  42.202  43.268   0.788
96579W        W67179  12.734   4.574   0.377
96580W        W67180  26.688  40.824  14.695
96581W        W67181  17.000  42.941   0.775
96582W        W67182  32.415   9.626  14.286
96583W        W67183  16.208  17.973  11.021
96584W        W67184  19.143  29.164  13.442
96585W        W67185  34.124  19.682   3.475
96586W        W67186   9.786  38.806   0.888
96587W        W67187   3.733  14.292  12.340
96588W        W67188  11.081  11.807  12.571
96589W        W67189  34.549  40.838   4.180
96590W        W67190  38.787  11.802   2.276
96591W        W67191  15.766  38.047  12.969
96592W        W67192   3.439  13.924  13.489
96593W        W67193  32.029  25.563   1.258
96594W        W67194  27.530  42.301   0.371
96595W        W67195  34.193  18.872   0.717
96596W        W67196   6.994  40.391  14.845
96597W        W67197   1.732  32.618  13.905
96598W        W67198  40.106  14.991   1.866
96599W        W67199  30.571  14.741  13.546
96600W        W67200  23.010  24.517  10.645
96601W        W67201  40.062   5.204   3.761
96602W        W67202  33.368   2.667  12.518
96603W        W67203  44.196  35.803  14.304
96604W        W67204  18.049   3.211  14.378
96605W        W67205  39.308  31.060  14.388
96606W        W67206  23.185  44.041   2.786
96607W        W67207  44.487  30.909   1.465
96608W        W67208   5.452  10.877  11.385
96609W        W67209  32.420  30.703  12.067
96610W        W67210  35.160  44.596  11.918
96611W        W67211  29.571  25.490  13.979
96612W        W67212   0.485  25.964   2.169
96613W        W67213  41.949  12.180   3.846
96614W        W67214  11.032  18.158  13.257
96615W        W67215  18.555  42.375  13.366
96616W        W67216  43.867  38.553   3.219
96617W        W67217  10.853  34.498   0.270
96618W        W67218  27.120  31.477   1.227
96619W        W67219  43.550   9.132   0.777
96620W        W67220  31.010  27.001  11.950
96621W        W67221   5.953  39.495  13.493
96622W        W67222  13.278  32.716  14.471
96623W        W67223  28.947  38.597   0.321
96624W        W67224  29.434  40.982   2.789
96625W        W67225   1.771  12.372   4.130
96626W        W67226  32.892   2.473   1.940
96627W        W67227  15.565  38.995  11.966
96628W        W67228  14.600  15.504   3.930
96629W        W67229  36.888  40.683  11.495
96630W        W67230  39.503   4.877  11.902
96631W        W67231  34.328  15.331  12.001
96632W        W67232  12.895  40.593   4.188
96633W        W67233  40.459  10.191  12.339
96634W        W67234  10.474   6.071   2.894
96635W        W67235  18.417  14.585   0.128
96636W        W67236  22.076  40.089   4.292
96637W        W67237  42.811  22.560   2.819
96638W        W67238  17.594  23.998  10.700
96639W        W67239  33.928  34.484   4.572
96640W        W67240  35.445  44.475  13.828
96641W        W67241  19.268  31.030   4.293
96642W        W67242  30.930  23.311  11.845
96643W        W67243  44.390  22.783   1.676
96644W        W67244  27.992  21.772   4.552
96645W        W67245  36.136  35.464  12.192
96646W        W67246  35.891  36.460  14.923
96647W        W67247  41.985  15.780   2.270
96648W        W67248   7.190  25.618   1.503
96649W        W67249  44.870   0.501  12.837
96650W        W67250  22.779  22.542   3.347
96651W        W67251  17.596  40.991   2.173
96652W        W67252   7.110  30.275  13.463
96653W        W67253  41.334  41.814  11.612
96654W        W67254  15.178  34.573   1.869
96655W        W67255  24.077  33.389  11.585
96656W        W67256  36.066   5.352   4.164
96657W        W67257  17.144  40.179   0.299
96658W        W67258  43.344  24.851  11.189
96659W        W67259  36.575  13.688  14.267
96660W        W67260  18.138   1.434  11.122
96661W        W67261  23.330  33.160  11.995
96662W        W67262  36.090  33.383  11.439
96663W        W67263  29.644  17.033   2.000
96664W        W67264  38.264  20.744   4.646
96665W        W67265   8.636  12.837   2.885
96666W        W67266  44.475  21.185   0.769
96667W        W67267  12.888  37.518  12.851
96668W        W67268  26.665  41.743  14.769
96669W        W67269  24.778  30.570   2.105
96670W        W67270   7.896  34.373   4.553
96671W        W67271  33.546  41.820  10.980
96672W        W67272  11.073  32.126  10.755
96673W        W67273   9.449  13.746  11.064
96674W        W67274   3.181  30.671   1.179
96675W        W67275  30.990   4.909   3.192
96676W        W67276  34.102  44.227   4.124
96677W        W67277   2.210  22.521   1.944
96678W        W67278  38.424  43.302   4.100
96679W        W67279   6.085  34.509   0.782
96680W        W67280  27.008  44.298   1.541
96681W        W67281  17.132  33.698   1.461
96682W        W67282  37.826  17.349   1.875
96683W        W67283   2.450  13.430   3.876
96684W        W67284  35.612  29.909  11.915
96685W        W67285   1.271  41.971   3.686
96686W        W67286  27.897  11.341   4.623
96687W        W67287   8.269  41.782  12.537
96688W        W67288  25.414   8.563   1.342
96689W        W67289  42.730  29.910   2.982
96690W        W67290   3.507  31.003  12.364
96691W        W67291  31.654  42.772   2.957
96692W        W67292  31.187  21.610  13.072
96693W        W67293  13.609  20.217   4.534
96694W        W67294  27.044  13.783  13.097
96695W        W67295  12.365  22.351   4.257
96696W        W67296  44.852  18.546  13.531
96697W        W67297   8.303  43.281  13.394
96698W        W67298   6.750  23.542  13.782
96699W        W67299  37.555  24.236  12.955
96700W        W67300  20.014  41.872  12.620
96701W        W67301  21.573  36.435   2.860
96702W        W67302  22.394  19.186  12.474
96703W        W67303  28.331  18.256   2.832
96704W        W67304  10.404  24.483  11.761
96705W        W67305  24.590  29.415  11.853
96706W        W67306  44.449  15.409   0.865
96707W        W67307  19.078  34.570   3.569
96708W        W67308  20.665  18.551   1.379
96709W        W67309  14.368  43.580   1.287
96710W        W67310  41.742  19.730  12.635
96711W        W67311  29.413  32.644   3.379
96712W        W67312   6.857  18.808   4.466
96713W        W67313  22.627  30.973  14.320
96714W        W67314  24.365  27.627   1.771
96715W        W67315   0.011  14.762   1.930
96716W        W67316  14.774  38.771   4.071
96717W        W67317  37.814  41.024  13.267
96718W        W67318  15.665  13.870  11.112
96719W        W67319   4.005  19.915  12.169
96720W        W67320  23.701  25.128  10.559
96721W        W67321  43.865   2.404   4.436
96722W        W67322  16.116  31.014   2.266
96723W        W67323   5.377  41.606  10.472
96724W        W67324  42.390   6.784   1.216
96725W        W67325  23.788   4.875   2.482
96726W        W67326  10.419   9.658   1.532
96727W        W67327  19.715  13.266   2.789
96728W        W67328   4.721  44.596  11.132
96729W        W67329  31.595   8.747   0.874
96730W        W67330   9.069  21.490  14.345
96731W        W67331   7.428  29.510  10.372
96732W        W67332  42.981  37.682   1.873
96733W        W67333  31.586   8.893  12.356
96734W        W67334  21.361  40.391   3.573
96735W        W67335   4.250  22.543   3.745
96736W        W67336  43.898  15.647   0.235
96737W        W67337  43.468  30.519  12.590
96738W        W67338  27.063  10.479  11.992
96739W        W67339  33.689  15.579   4.519
96740W        W67340  33.949  16.679   3.864
96741W        W67341  39.488   4.965   0.711
96742W        W67342  17.544  32.522   1.892
96743W        W67343  44.069  28.014  11.890
96744W        W67344  14.011  42.825   1.323
96745W        W67345  40.821  11.899  12.340
96746W        W67346  33.365  12.613   2.235
96747W        W67347  30.958   9.660   4.088
96748W        W67348  39.795  37.965   1.787
96749W        W67349   6.868   1.948  13.957
96750W        W67350  40.056  34.955  10.886
96751W        W67351  31.626   2.678   1.834
96752W        W67352  30.984  12.817   0.680
96753W        W67353  35.723  18.128  12.191
96754W        W67354  10.685  41.834   0.331
96755W        W67355  41.985  32.970  12.133
96756W        W67356  20.652  18.346  14.313
96757W        W67357  11.729  41.032   4.228
96758W        W67358  12.919  18.497   0.350
96759W        W67359  16.051  23.180  12.287
96760W        W67360  33.103  40.513  14.861
96761W        W67361  30.202  35.899   1.926
96762W        W67362  18.120   2.771   0.425
96763W        W67363   2.813  38.416  14.779
96764W        W67364  27.746  43.898   2.711
96765W        W67365  42.388  31.581   4.566
96766W        W67366  15.171  10.374   2.735
96767W        W67367  34.472  14.906  11.128
96768W        W67368  30.002  25.985   4.201
96769W        W67369   8.395  24.711  13.329
96770W        W67370   0.677   9.695  14.522
96771W        W67371   9.258  15.771   1.006
96772W        W67372   6.743  36.442   0.521
96773W        W67373  13.798  36.937  12.678
96774W        W67374   5.214  35.457  12.124
96775W        W67375  11.349  22.755  13.106
96776W        W67376  40.638   5.509   2.879
96777W        W67377   1.888  33.920   1.383
96778W        W67378  19.572  28.531   4.361
96779W        W67379  21.748  11.486   3.850
96780W        W67380  44.805  19.249   4.661
96781W        W67381  42.790  14.334  11.667
96782W        W67382  25.487  16.836  14.736
96783W        W67383  14.199  21.438   2.575
96784W        W67384  24.712   8.989  11.544
96785W        W67385  22.270   4.911   3.672
96786W        W67386  44.986  41.083   4.413
96787W        W67387  17.503   4.431  11.343
96788W        W67388  18.513   8.872   3.839
96789W        W67389  12.120  33.099   1.862
96790W        W67390   0.736  42.313   3.706
96791W        W67391  39.091  16.631  14.901
96792W        W67392  14.263  28.173  12.075
96793W        W67393  27.194  28.191   3.648
96794W        W67394  16.880   7.357  13.865
96795W        W67395   1.949  41.232   4.057
96796W        W67396  38.975  15.704   0.279
96797W        W67397  33.615  43.280   2.792
96798W        W67398  22.078  20.218  12.902
96799W        W67399  32.375  31.841   4.380
96800W        W67400   7.757  34.899   4.887
96801W        W67401  11.627  17.203  10.451
96802W        W67402  14.680  43.857  14.953
96803W        W67403  23.211   2.108  14.852
96804W        W67404  28.117  10.878  12.338
96805W        W67405  43.028  41.377   1.751
96806W        W67406  23.330  17.232   4.305
96807W        W67407   8.793  37.791  11.434
96808W        W67408   1.463   3.553   3.344
96809W        W67409  27.217   4.705   1.243
96810W        W67410  29.958  26.044  11.657
96811W        W67411  24.757  23.258  10.804
96812W        W67412   8.455  38.437   1.974
96813W        W67413  26.615   0.034   3.741
96814W        W67414  25.006  20.061  11.523
96815W        W67415   0.832  24.437   3.293
96816W        W67416  43.761  36.016   4.576
96817W        W67417  44.437  18.237   4.018
96818W        W67418  39.742  36.895   1.763
96819W        W67419  23.297   9.013   0.243
96820W        W67420  11.744   6.695  10.742
96821W        W67421  10.962  31.337  13.325
96822W        W67422  17.151   3.474  14.909
96823W        W67423  14.744   4.347  11.924
96824W        W67424  11.262   4.217  10.685
96825W        W67425  15.383  20.245  13.981
96826W        W67426  21.182  36.010   3.665
96827W        W67427  41.584   3.530   2.789
96828W        W67428   3.980  17.369   1.719
96829W        W67429   8.825  44.586   1.462
96830W        W67430   2.563   5.026   5.231
96831W        W67431  43.296   3.158   0.551
96832W        W67432  15.683  17.225   2.271
96833W        W67433  38.044  10.199  12.873
96834W        W67434  11.596  42.709   2.178
96835W        W67435  16.636  24.844   2.694
96836W        W67436  18.492  14.487   2.341
96837W        W67437  22.062   9.576   0.985
96838W        W67438  27.421   2.844  12.321
96839W        W67439  24.665  20.208   4.105
96840W        W67440  38.959  27.283   1.724
96841W        W67441  13.554  33.558  10.696
96842W        W67442   5.395  16.680  10.471
96843W        W67443  12.693   4.395  10.660
96844W        W67444  41.752  30.655  13.338
96845W        W67445  27.691  28.672  10.993
96846W        W67446  17.302   2.378  13.866
96847W        W67447  11.279  30.180  14.720
96848W        W67448  20.245  29.922  10.574
96849W        W67449  32.241  35.445  12.871
96850W        W67450  41.857   6.513   4.159
96851W        W67451   6.296  29.933   0.431
96852W        W67452  30.757  42.334   3.717
96853W        W67453  16.521  43.836   1.844
96854W        W67454   9.860   0.994   5.057
96855W        W67455   7.643  30.364   3.719
96856W        W67456  25.507  23.526   4.559
96857W        W67457  23.144  16.388   2.974
96858W        W67458   6.803  27.237   0.351
96859W        W67459  44.238  40.083   0.159
96860W        W67460  42.582  14.096  12.654
96861W        W67461  38.017  24.585  14.122
96862W        W67462  14.409   6.321  13.089
96863W        W67463   7.383   1.963   1.377
96864W        W67464  26.787  20.102  11.588
96865W        W67465  31.069   4.698  13.077
96866W        W67466  44.792  12.909   4.286
96867W        W67467  36.155   2.251   3.404
96868W        W67468  29.522  44.722   3.195
96869W        W67469   3.146   4.185   3.616
96870W        W67470  33.900  23.962   4.174
96871W        W67471  19.760  20.371  10.981
96872W        W67472   7.344  32.659   3.852
96873W        W67473  18.805  38.949   3.118
96874W        W67474  24.491   2.466  10.339
96875W        W67475  38.725  24.096   9.843
96876W        W67476  17.307  15.127  10.287
96877W        W67477   3.114   9.192   4.051
96878W        W67478  37.811  42.457  14.321
96879W        W67479  42.897  42.727  12.638
96880W        W67480  10.651   1.310  14.881
96881W        W67481  11.106  26.241  13.116
96882W        W67482  40.532   8.068  13.854
96883W        W67483  20.942  20.093  11.563
96884W        W67484  13.378  15.345  12.210
96885W        W67485  14.246  23.074   0.844
96886W        W67486  27.091  14.482  12.421
96887W        W67487  37.116  43.936  12.886
96888W        W67488  41.978   8.315  12.506
96889W        W67489  40.191   8.156   3.573
96890W        W67490   4.530  15.052  13.623
96891W        W67491  33.064  30.071   1.856
96892W        W67492  11.657  15.334   4.599
96893W        W67493  44.243   2.077   2.672
96894W        W67494  35.530  18.664   0.927
96895W        W67495  21.188  24.860   4.556
96896W        W67496   0.184  39.505   1.019
96897W        W67497  20.808  22.568  13.364
96898W        W67498   8.208   9.813  11.452
96899W        W67499  38.138   7.725  14.479
96900W        W67500  33.084  25.308   2.636
96901W        W67501   5.719  34.890  13.918
96902W        W67502   6.940  37.003   2.730
96903W        W67503   8.566   3.071   3.689
96904W        W67504  41.975  12.705  10.670
96905W        W67505  39.453  28.669  14.566
96906W        W67506  29.201  43.016   3.326
96907W        W67507  11.298   8.757  12.457
96908W        W67508  30.100   2.031   3.829
96909W        W67509   7.665  27.984  11.178
96910W        W67510  21.666   3.711   4.653
96911W        W67511  10.196  30.094  10.992
96912W        W67512   8.178  21.445  11.578
96913W        W67513   0.429  18.702  13.453
96914W        W67514  36.529  21.087  10.912
96915W        W67515  13.568  26.790  14.426
96916W        W67516  38.404   0.948   4.464
96917W        W67517  21.466  31.231   2.638
96918W        W67518  35.454   1.189  14.643
96919W        W67519   7.640  25.055  11.145
96920W        W67520  39.369   2.333   3.996
96921W        W67521  40.107  26.005  14.759
96922W        W67522   3.861  18.592   4.377
96923W        W67523  13.419   6.236   1.234
96924W        W67524  11.239  34.604   1.951
96925W        W67525   9.599   8.579  11.063
96926W        W67526  28.351  39.041   2.363
96927W        W67527   0.886   7.860  13.292
96928W        W67528  17.373  10.030  12.128
96929W        W67529  40.919  43.073  14.835
96930W        W67530  40.758  33.414   0.427
96931W        W67531  11.330  39.846   3.231
96932W        W67532   8.862   2.012   0.448
96933W        W67533  40.345  42.976   5.076
96934W        W67534  22.274  38.145   3.333
96935W        W67535  27.345  18.585  13.630
96936W        W67536  41.917  13.311   2.817
96937W        W67537  39.365  11.284  10.439
96938W        W67538  41.961  32.362   2.268
96939W        W67539   8.789  22.043  10.357
96940W        W67540  28.113  10.719   2.178
96941W        W67541   1.324  14.559  11.196
96942W        W67542  14.179  18.333  12.936
96943W        W67543  44.118   3.202  11.681
96944W        W67544  34.059  16.059   0.958
96945W        W67545  22.304  12.222   1.396
96946W        W67546  34.993  19.822   3.258
96947W        W67547  21.713   2.251  14.692
96948W        W67548   8.426  24.059  11.923
96949W        W67549  44.524  10.182  10.363
96950W        W67550   3.376   4.407  10.789
96951W        W67551  33.488  34.769  14.279
96952W        W67552  43.525  23.238  10.578
96953W        W67553  13.574  37.810   3.263
96954W        W67554  35.019  26.062  13.867
96955W        W67555  15.311  15.260   0.260
96956W        W67556   4.408  41.809   1.798
96957W        W67557  38.534  38.406  10.755
96958W        W67558  17.075   6.884  13.935
96959W        W67559   8.655  33.915  12.456
96960W        W67560  44.896  17.214   0.927
96961W        W67561   4.453  24.486   0.458
96962W        W67562   3.433  42.590  10.661
96963W        W67563   8.750  13.437   0.413
96964W        W67564  41.035   3.377   0.116
96965W        W67565  28.940  37.525   5.005
96966W        W67566   1.319  17.173  12.115
96967W        W67567   7.953  20.112  11.107
96968W        W67568   0.963  10.132  12.917
96969W        W67569   8.842  14.106  12.122
96970W        W67570  33.205   0.237   4.971
96971W        W67571  28.126  13.943  14.096
96972W        W67572  30.081  34.321  12.328
96973W        W67573  36.331  37.812   4.253
96974W        W67574  12.704  14.277   2.252
96975W        W67575  31.738  33.424  11.241
96976W        W67576  21.049   2.940  11.620
96977W        W67577  19.368  21.435   2.358
96978W        W67578   1.382  21.994  14.133
96979W        W67579  27.283  30.148  14.452
96980W        W67580  42.543  10.534  13.392
96981W        W67581  42.860  13.602  10.644
96982W        W67582   6.156  15.744  14.373
96983W        W67583  20.063  12.243  11.024
96984W        W67584  13.104  34.059   3.761
96985W        W67585  18.266  31.390   3.162
96986W        W67586  34.167   4.440   0.857
96987W        W67587  44.277  25.555  12.044
96988W        W67588  27.278  29.182   4.446
96989W        W67589   7.009  35.765  11.196
96990W        W67590  16.126  19.689   0.059
96991W        W67591  36.756  13.251   1.838
96992W        W67592  39.447  30.013  12.193
96993W        W67593  29.393  10.714   0.453
96994W        W67594   7.454  18.007   0.859
96995W        W67595  36.517  22.015   4.035
96996W        W67596  27.520  27.174  14.519
96997W        W67597  36.277  13.201   3.150
96998W        W67598  31.962  21.224   2.603
96999W        W67599   7.352   4.586  14.849
97000W        W67600  23.413   3.394   3.225
97001W        W67601  27.514  12.580  14.008
97002W        W67602  17.154  33.288  11.135
97003W        W67603  18.799   9.167  12.770
97004W        W67604   9.592  16.216  14.654
97005W        W67605  35.455  41.834   2.166
97006W        W67606   5.791  17.310   0.384
97007W        W67607  33.583   5.244  12.984
97008W        W67608  15.130  33.356   1.741
97009W        W67609  19.327   2.358   2.266
97010W        W67610  30.706  12.441  13.811
97011W        W67611  42.989  30.883  12.000
97012W        W67612  12.360  32.981   3.741
97013W        W67613  13.462  23.713   0.491
97014W        W67614  16.296  30.498   0.166
97015W        W67615  26.105  20.247  12.963
97016W        W67616   4.737  38.241   1.461
97017W        W67617  19.233  32.526   1.255
97018W        W67618  40.910  43.631  10.911
97019W        W67619  43.753  25.173   4.873
97020W        W67620  41.025  17.538  13.098
97021W        W67621  25.953   5.439  12.013
97022W        W67622   2.053  39.945   3.828
97023W        W67623  18.016  12.743  11.956
97024W        W67624   3.434   5.706  12.719
97025W        W67625  37.444  39.058  14.810
97026W        W67626  39.317   2.286   2.562
97027W        W67627  28.072   0.423   1.306
97028W        W67628  44.406  43.762   2.952
97029W        W67629  36.855   3.010  10.359
97030W        W67630   4.795  44.863   4.147
97031W        W67631   0.636  11.462   3.750
97032W        W67632   7.789  26.595   4.212
97033W        W67633   1.489  22.863  14.471
97034W        W67634  37.464  36.602   3.228
97035W        W67635  16.684  23.182  12.932
97036W        W67636  11.389  15.049  11.144
97037W        W67637  21.041  13.176   3.235
97038W        W67638   0.366  36.149   1.303
97039W        W67639   9.201  19.943   4.409
97040W        W67640  33.373  25.736   3.378
97041W        W67641  23.070   0.431  11.582
97042W        W67642  25.048  33.994   0.306
97043W        W67643  25.586  31.462  12.478
97044W        W67644  41.265  34.902  11.577
97045W        W67645  15.092  24.090   2.312
97046W        W67646  41.687  18.157  13.081
97047W        W67647  13.402  13.769   2.208
97048W        W67648  34.575  10.466  13.479
97049W        W67649  41.928  13.068  11.394
97050W        W67650   7.530  38.103  12.126
97051W        W67651  13.303   1.213  12.861
97052W        W67652  34.581   4.702  11.541
97053W        W67653   9.579  15.159   2.902
97054W        W67654  24.534  34.968   3.214
97055W        W67655  30.039  10.379   3.226
97056W        W67656  41.317  22.079  12.076
97057W        W67657   4.450  44.878  13.060
97058W        W67658  38.929  28.117  14.570
97059W        W67659  43.877   3.912   4.751
97060W        W67660  18.782  40.471   1.083
97061W        W67661   6.480   0.923   1.278
97062W        W67662  17.311   1.929   2.270
97063W        W67663  37.866  18.073  10.679
97064W        W67664  41.840   1.909   2.160
97065W        W67665   8.799  36.523   1.846
97066W        W67666  15.071  28.461   0.195
97067W        W67667   2.022  23.722   1.415
97068W        W67668   7.433   7.008   4.120
97069W        W67669  40.062   2.285  10.799
97070W        W67670   8.974  44.769   3.203
97071W        W67671  42.902   2.661  13.812
97072W        W67672  20.843  39.631   5.043
97073W        W67673  10.044  13.520  14.823
97074W        W67674  37.975   4.730   3.732
97075W        W67675   4.164  28.278  11.486
97076W        W67676  44.484  19.508  13.311
97077W        W67677  23.031  14.996   3.284
97078W        W67678  42.560  30.509  10.727
97079W        W67679  36.707  34.907   0.729
97080W        W67680   0.037  37.362   3.640
97081W        W67681  10.155  37.084   3.672
97082W        W67682  15.142   9.942   1.417
97083W        W67683   4.276  11.431   2.261
97084W        W67684  18.822   5.222  10.001
97085W        W67685  12.162  43.954   0.889
97086W        W67686  12.762  37.409   4.202
97087W        W67687   7.222  44.496  14.037
97088W        W67688   2.924  41.725  13.706
97089W        W67689  18.569  35.635  14.505
97090W        W67690  38.934  40.107  10.768
97091W        W67691  26.907   3.470  12.891
97092W        W67692  17.038  35.578   3.733
97093W        W67693   1.556   6.294   3.350
97094W        W67694  26.523   2.152  12.512
97095W        W67695   8.698   4.781   1.062
97096W        W67696  38.587  29.293   0.321
97097W        W67697  29.241  29.301  14.005
97098W        W67698  33.521   6.874   0.969
97099W        W67699  12.267  17.579  14.820
97100W        W67700   3.439  32.244   3.293
97101W        W67701  21.161  15.702   3.069
97102W        W67702  41.278   3.191  14.694
97103W        W67703  23.233  34.448   3.095
97104W        W67704  19.282   4.891   2.637
97105W        W67705  43.763  10.823   1.668
97106W        W67706   1.650   4.889  14.480
97107W        W67707  38.883  22.247   0.221
97108W        W67708  22.896  35.161  12.045
97109W        W67709  32.253  11.457  12.425
97110W        W67710  19.385  25.018  14.531
97111W        W67711   4.891  36.537  11.354
97112W        W67712  27.989  41.269   0.696
97113W        W67713  20.109  17.832  12.413
97114W        W67714   7.726  18.979  10.757
97115W        W67715  22.016  33.605  10.747
97116W        W67716  19.191   7.775   4.437
97117W        W67717  28.567  33.735   3.724
97118W        W67718  17.165   6.643  12.893
97119W        W67719  35.445   7.774   2.587
97120W        W67720  17.564  21.248   0.924
97121W        W67721   4.784  39.261  11.514
97122W        W67722   9.259  17.283   3.578
97123W        W67723   4.289  14.444   3.137
97124W        W67724  43.494  25.526  14.038
97125W        W67725   7.699  15.284   3.656
97126W        W67726  17.972   7.527  12.384
97127W        W67727  43.861  43.109  13.467
97128W        W67728  14.578  21.607   3.413
97129W        W67729  17.850  27.083   3.352
97130W        W67730  20.691  27.904  11.967
97131W        W67731  30.748  28.933  14.323
97132W        W67732  24.204   6.115  13.912
97133W        W67733  20.247   9.681   3.749
97134W        W67734  17.857  14.250  12.264
97135W        W67735  13.175  30.429   1.324
97136W        W67736  12.703  31.360  10.543
97137W        W67737  29.541  42.473   4.250
97138W        W67738  27.568  31.110  10.984
97139W        W67739  41.464   7.766   4.155
97140W        W67740  30.488  12.270  13.342
97141W        W67741  30.204  27.195   3.172
97142W        W67742  38.333  17.682  14.643
97143W        W67743  39.238   5.752  11.924
97144W        W67744  20.199   4.930  13.089
97145W        W67745  35.882  14.049  14.844
97146W        W67746   2.715  41.960  12.364
97147W        W67747   6.202  35.839  13.956
97148W        W67748  40.723  34.997  12.394
97149W        W67749  16.063  30.095  14.545
97150W        W67750  41.465   2.001   3.785
97151W        W67751   5.633   7.126   1.685
97152W        W67752  16.796  27.905   3.345
97153W        W67753  28.726  24.019  14.316
97154W        W67754  18.700  38.668  13.492
97155W        W67755   2.091   6.422  14.833
97156W        W67756  28.414  27.546  10.281
97157W        W67757   2.262  42.265   4.886
97158W        W67758   4.278   1.799   3.784
97159W        W67759   5.750  41.445   0.323
97160W        W67760  10.636   9.345  11.548
97161W        W67761  17.230  35.839  14.527
97162W        W67762  36.573  31.500   1.794
97163W        W67763  31.033   2.690   4.781
97164W        W67764  20.512   9.909  14.042
97165W        W67765  31.039  40.265   2.362
97166W        W67766  15.294   4.344  14.188
97167W        W67767  31.333  38.866  11.462
97168W        W67768   9.679  26.542   1.758
97169W        W67769  11.708  41.568  14.511
97170W        W67770  22.600  17.069   4.991
97171W        W67771   1.210  13.519   2.839
97172W        W67772   1.625  26.116  12.899
97173W        W67773   3.199   0.565  13.617
97174W        W67774  42.708  12.161   0.214
97175W        W67775  19.608  28.422   2.413
97176W        W67776  38.964  41.427   1.190
97177W        W67777  11.372   5.304  14.310
97178W        W67778   4.706   3.440  14.799
97179W        W67779   1.621   0.343  13.347
97180W        W67780   4.619   9.517  11.156
97181W        W67781  31.371   8.770  14.802
97182W        W67782  29.716  16.695   4.754
97183W        W67783  18.699   8.426   3.380
97184W        W67784  20.214  10.839   4.117
97185W        W67785  24.169  30.965   3.543
97186W        W67786  39.529   4.356   2.838
97187W        W67787  34.725   2.961   2.467
97188W        W67788   6.377  28.920  13.408
97189W        W67789  23.449   3.197  11.171
97190W        W67790  42.410  44.628  12.090
97191W        W67791  19.467   7.297   1.794
97192W        W67792  28.912  41.525   1.705
97193W        W67793  41.862   1.561  12.839
97194W        W67794   1.385  10.333   3.319
97195W        W67795  33.454   1.335  11.190
97196W        W67796   6.519  32.813  13.821
97197W        W67797  34.094   4.529  11.563
97198W        W67798  12.070  19.307   1.251
97199W        W67799  22.638  35.044  10.864
97200W        W67800  19.109   1.000   2.223
97201W        W67801  31.533   0.023   4.146
97202W        W67802  35.437  36.132   1.739
97203W        W67803  34.340  44.660  14.807
97204W        W67804   4.843  12.741   3.786
97205W        W67805  21.865  22.582   3.942
97206W        W67806   1.209   5.681  13.089
97207W        W67807  31.746  17.190   4.426
97208W        W67808  25.931   9.582   1.771
97209W        W67809  16.281  14.408  11.571
97210W        W67810  31.085  27.655   4.169
97211W        W67811  29.220  33.407   2.890
97212W        W67812  24.030  29.967  12.345
97213W        W67813  20.218  39.808  12.410
97214W        W67814   3.326  30.504   2.636
97215W        W67815  38.007  33.021  11.944
97216W        W67816  14.131  39.361  13.474
97217W        W67817  39.846  41.570   2.329
97218W        W67818  34.346  33.495   1.888
97219W        W67819  42.483   9.764   1.361
97220W        W67820  33.319  25.630   0.864
97221W        W67821  39.962  34.939   1.249
97222W        W67822  29.929  10.775  11.154
97223W        W67823  35.332  19.109  12.294
97224W        W67824  12.645  41.681   4.955
97225W        W67825  21.120  37.353   3.184
97226W        W67826  36.732  33.132   4.286
97227W        W67827   0.529  19.526  13.868
97228W        W67828   5.928  33.956  10.958
97229W        W67829   5.235  24.754   3.126
97230W        W67830  44.751   9.899   0.020
97231W        W67831  15.520  13.336  11.963
97232W        W67832  12.135   0.331   1.371
97233W        W67833  43.253  17.212   2.849
97234W        W67834  22.157  34.059   2.457
97235W        W67835  26.296  25.972   2.687
97236W        W67836  44.417  44.320  13.135
97237W        W67837  31.562  44.787   0.388
97238W        W67838   4.261  14.615  13.443
97239W        W67839   7.240  23.967  11.530
97240W        W67840  24.951  22.280  14.301
97241W        W67841  32.766  39.032   2.002
97242W        W67842  10.593  12.697  14.667
97243W        W67843   1.933  19.734  13.764
97244W        W67844  35.459  16.586   4.652
97245W        W67845  28.753  33.225  12.947
97246W        W67846   8.915  34.118  12.915
97247W        W67847  18.200   0.173  10.741
97248W        W67848  33.911  34.133   0.253
97249W        W67849  12.900  40.944  14.747
97250W        W67850  14.664  20.184  13.431
97251W        W67851  13.982  32.080  12.291
97252W        W67852  32.759  25.176  10.317
97253W        W67853   6.488  43.384   0.269
97254W        W67854   3.279  15.575   3.131
97255W        W67855  10.324  29.110  12.915
97256W        W67856  10.717  37.799   3.316
97257W        W67857   7.276  25.572  12.439
97258W        W67858  36.278  11.759   4.597
97259W        W67859   4.320  30.955   3.828
97260W        W67860  38.312  38.314   3.455
97261W        W67861   8.251  33.475   0.168
97262W        W67862  10.427   0.175  11.066
97263W        W67863  31.673  27.636  10.433
97264W        W67864  36.986  20.830  12.889
97265W        W67865  22.086  43.043   5.592
97266W        W67866   9.724   6.885   4.396
97267W        W67867  25.132   6.421   0.259
97268W        W67868  24.628  12.091  12.357
97269W        W67869  10.805  42.491  13.063
97270W        W67870   2.164  37.167  14.402
97271W        W67871  18.639  11.626  11.495
97272W        W67872   1.411  10.429  14.926
97273W        W67873  17.574  11.303   3.721
97274W        W67874  27.052  13.738  11.665
97275W        W67875  44.770  19.148  11.634
97276W        W67876  39.975  21.158  11.679
97277W        W67877  11.911  32.679  11.064
97278W        W67878   1.931  15.309  11.425
97279W        W67879  16.567  43.101  14.801
97280W        W67880  39.642   4.863  13.403
97281W        W67881  13.852  22.009  13.910
97282W        W67882   4.522  34.610  14.346
97283W        W67883  28.793  16.855   3.216
97284W        W67884  12.342  36.879  10.722
97285W        W67885  42.435   6.935   3.336
97286W        W67886  10.038  43.937  13.784
97287W        W67887  16.721  27.133  14.523
97288W        W67888   6.488  16.163  14.459
97289W        W67889  10.003   6.526  14.940
97290W        W67890  17.443   4.302   3.753
97291W        W67891  26.156  28.919   0.435
97292W        W67892  40.321   5.338   2.503
97293W        W67893  10.302  14.354  10.696
97294W        W67894  39.656  29.654  11.657
97295W        W67895  24.019   3.718   1.933
97296W        W67896   1.709  35.104   1.366
97297W        W67897  41.411  17.202  10.744
97298W        W67898  40.381  14.113  13.333
97299W        W67899  26.546  40.937   3.257
97300W        W67900  26.632  27.413  13.005
97301W        W67901  20.663   0.517   0.293
97302W        W67902  28.497  22.568  12.894
97303W        W67903  27.348  37.039   0.416
97304W        W67904   1.016  27.637   3.088
97305W        W67905  30.271  39.995  12.053
97306W        W67906  41.995  32.153  10.253
97307W        W67907  14.322  39.249   4.083
97308W        W67908  21.211  39.554   2.889
97309W        W67909  33.352  29.961   1.277
97310W        W67910  33.563  38.784  11.379
97311W        W67911  10.808  43.088   2.626
97312W        W67912   3.700  37.502  11.983
97313W        W67913  20.579  32.655  13.361
97314W        W67914  22.187  29.505  12.869
97315W        W67915  32.156  35.509  11.566
97316W        W67916  29.070  29.823   4.233
97317W        W67917   8.717  21.635   0.208
97318W        W67918  26.845   8.768  12.815
97319W        W67919  27.857  37.865   2.318
97320W        W67920  29.252  36.414   2.762
97321W        W67921   4.802  42.064   2.642
97322W        W67922  43.143  21.640   2.234
97323W        W67923   1.693  10.218   0.324
97324W        W67924  37.322  26.196  12.455
97325W        W67925  12.220  26.640   2.696
97326W        W67926  39.318  37.628   3.141
97327W        W67927   5.459  22.102   0.311
97328W        W67928   9.675  33.025   4.310
97329W        W67929  40.260  28.943  14.758
97330W        W67930  33.917  22.089  11.480
97331W        W67931   8.395  18.305  13.466
97332W        W67932  24.014  28.936  14.481
97333W        W67933  19.513  39.466   1.458
97334W        W67934   0.554  13.721   1.811
97335W        W67935  22.725  39.727   1.813
97336W        W67936  37.357   6.793   2.325
97337W        W67937  33.894   5.859   2.191
97338W        W67938  20.305  42.849  14.131
97339W        W67939  38.723  16.257  14.793
97340W        W67940  31.308  17.083   3.548
97341W        W67941  39.833  22.718  10.754
97342W        W67942   9.170  33.663   0.389
97343W        W67943  10.563  32.450   0.116
97344W        W67944  27.036  24.114  11.789
97345W        W67945  20.298   0.843   1.007
97346W        W67946  34.903   7.041  12.631
97347W        W67947  43.452  44.923   4.006
97348W        W67948  15.804  25.494  14.103
97349W        W67949  19.175  14.393   0.841
97350W        W67950  10.796  12.657  14.122
97351W        W67951   6.501  31.446   1.181
97352W        W67952  14.905  36.820   0.785
97353W        W67953  41.348  29.783  13.503
97354W        W67954  42.858  31.640  10.544
97355W        W67955  29.409  35.114   0.400
97356W        W67956  20.765  42.362   3.341
97357W        W67957  42.769  37.651   3.170
97358W        W67958  44.318  35.172  12.351
97359W        W67959   7.805  37.017   0.224
97360W        W67960  14.629  35.083  11.407
97361W        W67961  30.000   9.905  12.591
97362W        W67962  14.684  11.976   2.743
97363W        W67963  34.517  22.269   2.202
97364W        W67964  21.199  39.627   0.793
97365W        W67965  16.675  40.028   1.961
97366W        W67966  10.656  10.311  12.327
97367W        W67967  27.473  22.447   0.319
97368W        W67968  26.407  24.181   3.182
97369W        W67969  43.506   6.741  12.059
97370W        W67970   7.296  23.986  10.646
97371W        W67971   7.676  44.936   2.688
97372W        W67972  31.681   7.824   0.758
97373W        W67973  28.335  11.641   3.620
97374W        W67974  38.839  11.240   4.105
97375W        W67975   9.536   4.262  12.518
97376W        W67976  31.884  42.453  13.903
97377W        W67977  15.774  32.295  13.500
97378W        W67978  44.896  10.741   4.557
97379W        W67979  13.816  35.521  12.453
97380W        W67980  35.244  29.823   2.275
97381W        W67981  18.150  33.657  11.777
97382W        W67982  11.753  26.361   3.803
97383W        W67983  10.179   0.715  12.305
97384W        W67984  31.944  14.657   3.060
97385W        W67985   9.282  44.216   2.358
97386W        W67986  29.165  39.791  14.756
97387W        W67987  14.356  21.330  11.046
97388W        W67988  31.470  25.669   4.716
97389W        W67989  32.880  43.456   3.388
97390W        W67990  10.160   4.801  14.416
97391W        W67991  17.539  25.540   0.683
97392W        W67992  29.974  39.867   0.206
97393W        W67993  36.620  32.011  11.512
97394W        W67994  41.118  41.599  10.710
97395W        W67995  35.042   4.359   4.114
97396W        W67996   2.980  44.658  14.396
97397W        W67997   8.980  43.474   2.874
97398W        W67998   0.059  37.037   4.225
97399W        W67999   1.828  43.972   2.735
97400W        W68000   7.922  33.146  11.521
97401W        W68001   6.354   8.037   2.895
97402W        W68002  32.898   9.008   0.487
97403W        W68003  18.638  16.055  13.029
97404W        W68004  22.670  20.173   1.217
97405W        W68005   2.932  28.059   0.331
97406W        W68006  32.162  21.644   3.325
97407W        W68007  43.820  12.955   3.752
97408W        W68008  10.519   6.981  11.852
97409W        W68009  35.031   7.086  11.113
97410W        W68010   0.067  33.698  12.181
97411W        W68011   7.842  38.935   3.597
97412W        W68012  11.081  37.885  13.192
97413W        W68013  22.581  25.697  11.053
97414W        W68014  31.460  11.739   1.461
97415W        W68015  31.027   8.966  14.367
97416W        W68016  11.072  43.579   0.393
97417W        W68017  17.438   2.169   1.412
97418W        W68018  25.040  29.030   2.891
97419W        W68019  28.067  37.925   3.601
97420W        W68020  37.116   3.726   4.492
97421W        W68021  13.771  22.217   1.624
97422W        W68022  19.679   0.744  10.601
97423W        W68023   9.204  15.079  10.583
97424W        W68024  32.094   7.149   3.813
97425W        W68025   4.274   1.358  12.964
97426W        W68026  37.037  31.122   2.702
97427W        W68027  26.457  17.827  13.523
97428W        W68028  44.266  35.664  11.468
97429W        W68029  26.053  31.041   1.143
97430W        W68030  18.540  19.511   4.333
97431W        W68031   7.497  35.878   4.102
97432W        W68032  41.268   9.275   2.639
97433W        W68033  21.774  42.664  14.642
97434W        W68034  26.544  23.285  12.404
97435W        W68035  34.987  18.238  14.799
97436W        W68036  29.965  17.121   3.809
97437W        W68037  29.467  19.822  13.954
97438W        W68038  13.365  37.575  11.667
97439W        W68039   4.754  32.179   3.593
97440W        W68040  27.646   2.231   2.164
97441W        W68041  28.048  24.681  13.996
97442W        W68042   6.264   8.367  12.406
97443W        W68043  15.793  26.064   0.945
97444W        W68044   2.362  35.481  10.671
97445W        W68045  24.752  42.069   1.426
97446W        W68046  19.701   8.258   2.358
97447W        W68047  15.135  16.427  11.947
97448W        W68048  22.456  34.012  12.411
97449W        W68049  36.288   1.913  10.915
97450W        W68050  16.550  20.059  13.339
97451W        W68051  31.109  20.946   2.758
97452W        W68052  17.621  17.341  12.003
97453W        W68053  32.152  39.515  13.298
97454W        W68054  30.154  15.369   2.458
97455W        W68055  14.052  41.261  14.424
97456W        W68056  20.225  28.000   1.474
97457W        W68057  40.577   5.379   0.011
97458W        W68058   5.362  25.054  10.750
97459W        W68059  34.268  29.729  13.965
97460W        W68060  19.224  33.702   2.703
97461W        W68061   1.450  31.130   4.100
97462W        W68062  37.893   7.867  10.817
97463W        W68063  19.095   7.354   0.899
97464W        W68064  41.506  33.916   1.332
97465W        W68065  16.204  39.987   1.747
97466W        W68066   9.792  27.899   2.765
97467W        W68067  44.906  23.026   3.369
97468W        W68068  36.351  28.047  10.586
97469W        W68069   9.774  18.569  14.511
97470W        W68070  23.352  16.625   0.838
97471W        W68071  11.873   1.932  13.263
97472W        W68072  24.998  26.024  14.409
97473W        W68073  41.494  11.324  12.714
97474W        W68074   3.297  24.961   4.512
97475W        W68075  11.802  28.692  14.490
97476W        W68076  40.299   5.011   1.497
97477W        W68077   5.339  23.628  13.379
97478W        W68078  16.696  26.240   2.786
97479W        W68079  23.212  22.519  12.487
97480W        W68080  30.231  32.973   3.621
97481W        W68081  25.014  14.192  13.510
97482W        W68082   5.374  35.099  10.351
97483W        W68083   9.367  34.512   2.330
97484W        W68084  32.795   6.320  13.025
97485W        W68085  32.613  23.203   3.909
97486W        W68086   2.679  14.336  10.514
97487W        W68087  30.729  37.776  10.317
97488W        W68088  22.078   6.711  13.508
97489W        W68089   0.442  17.524  11.096
97490W        W68090  12.036  22.202  11.507
97491W        W68091   6.843  25.735  10.696
97492W        W68092  44.358  13.017   3.887
97493W        W68093  12.592   1.567   1.323
97494W        W68094  24.163  14.141   1.309
97495W        W68095  15.594   9.668  13.927
97496W        W68096  31.095  32.440  14.798
97497W        W68097  31.419   3.517   2.947
97498W        W68098  42.778  35.016  11.571
97499W        W68099  44.207  38.183  14.830
97500W        W68100  41.751   2.468  10.915
97501W        W68101  27.442  12.777  14.898
97502W        W68102  44.721   4.264  12.439
97503W        W68103   0.451  38.532   3.306
97504W        W68104  12.209  13.338  14.405
97505W        W68105  20.693  29.108  14.362
97506W        W68106   4.650  38.218  14.216
97507W        W68107   0.895   5.828   2.491
97508W        W68108  34.671  20.281  13.465
97509W        W68109  42.007  38.772  10.731
97510W        W68110  12.604  30.691   2.049
97511W        W68111  15.361  41.472   2.109
97512W        W68112  11.813  16.365  12.072
97513W        W68113  31.767  38.006  12.392
97514W        W68114  44.756  41.782  11.035
97515W        W68115  25.972   1.702   3.287
97516W        W68116  21.107  41.415  11.716
97517W        W68117  33.639  28.435   3.724
97518W        W68118  22.482   9.905   4.167
97519W        W68119  41.420   2.830   0.469
97520W        W68120   6.836  13.620   2.387
97521W        W68121  43.988  31.013   1.313
97522W        W68122  27.697  29.503   4.661
97523W        W68123  16.332  15.291  14.296
97524W        W68124   0.323  34.292  10.692
97525W        W68125  38.089  30.111   1.739
97526W        W68126  23.377  21.215   0.911
97527W        W68127  32.518  34.865   3.659
97528W        W68128  12.381  30.245   3.670
97529W        W68129  12.778  44.421  10.443
97530W        W68130  39.830  42.550   3.353
97531W        W68131  41.245  37.928  14.775
97532W        W68132  14.288   0.670  13.921
97533W        W68133  30.996  37.415  12.417
97534W        W68134   1.234  35.097  14.088
97535W        W68135   2.884  13.390   1.658
97536W        W68136  28.018  15.639  14.569
97537W        W68137   3.754  41.471  10.949
97538W        W68138  43.903  41.852  11.017
97539W        W68139   7.720   9.182  11.553
97540W        W68140  33.946  41.351   4.188
97541W        W68141  35.987  17.883   4.535
97542W        W68142  27.987  42.114  12.578
97543W        W68143   4.124  11.298  11.484
97544W        W68144  19.483  39.051  12.028
97545W        W68145  11.327  10.454  11.652
97546W        W68146  26.500  44.916  10.427
97547W        W68147  23.640  23.786   4.165
97548W        W68148   2.340   1.424  11.108
97549W        W68149  40.922  24.500   4.907
97550W        W68150  23.129  23.913   0.164
97551W        W68151  37.293  19.604  12.520
97552W        W68152  31.657  30.073  13.019
97553W        W68153   4.689   5.772   1.257
97554W        W68154  10.788  44.822  14.059
97555W        W68155   7.445  43.831   2.215
97556W        W68156   5.734  25.111   1.697
97557W        W68157  22.718  29.042   2.131
97558W        W68158  10.650  35.985   4.037
97559W        W68159  40.891   1.394   2.826
97560W        W68160  21.565  31.931   0.759
97561W        W68161  21.519  13.003  10.316
97562W        W68162  35.530  19.257  14.785
97563W        W68163  14.546  29.819   2.282
97564W        W68164  40.888  38.126  12.174
97565W        W68165   4.701   6.129  10.683
97566W        W68166  10.405   0.334   1.579
97567W        W68167   1.538  41.386  11.668
97568W        W68168   8.352   8.823  14.488
97569W        W68169  24.903  41.323  12.030
97570W        W68170   7.001  19.734  13.102
97571W        W68171  33.448   0.689  13.369
97572W        W68172  19.926  17.718  14.675
97573W        W68173  28.733  21.259  12.333
97574W        W68174  34.149   8.740   4.138
97575W        W68175  34.463  13.215   0.532
97576W        W68176  12.108  41.087  11.057
97577W        W68177  36.779  42.421   0.779
97578W        W68178  26.970   4.975  12.940
97579W        W68179  22.858  16.343   0.367
97580W        W68180  19.680  30.319   4.124
97581W        W68181   3.259  36.361  12.444
97582W        W68182  23.788   6.766   4.212
97583W        W68183  23.068  15.654  13.382
97584W        W68184  10.378  31.893   1.293
97585W        W68185  32.386  16.517   4.117
97586W        W68186  28.112  31.972  14.398
97587W        W68187   6.464  37.866   2.202
97588W        W68188   2.434   5.193  13.307
97589W        W68189  15.487   3.770   0.022
97590W        W68190  10.129   3.424  11.613
97591W        W68191  41.449  26.678   0.975
97592W        W68192  44.937  44.323   1.230
97593W        W68193  26.517  42.686  13.880
97594W        W68194   2.566  13.321  14.296
97595W        W68195  33.407   8.398  11.602
97596W        W68196  24.259   5.799   1.176
97597W        W68197  17.574  27.133   0.419
97598W        W68198  34.016  26.666   4.018
97599W        W68199   9.438   9.449   4.649
97600W        W68200  41.899   1.177   2.766
97601W        W68201  25.718  11.502   2.347
97602W        W68202  43.022  37.654  12.875
97603W        W68203  34.403  28.087  10.752
97604W        W68204  43.484   1.691   4.059
97605W        W68205  33.904  23.592   0.534
97606W        W68206   9.747  24.669  14.930
97607W        W68207   3.830  25.893  11.633
97608W        W68208  24.866  34.203   4.184
97609W        W68209   5.871  31.155   4.550
97610W        W68210   9.209   0.938   1.937
97611W        W68211  18.287   9.762  13.191
97612W        W68212  40.816  34.380   0.367
97613W        W68213   7.390   4.629   3.229
97614W        W68214  41.367  38.456   0.834
97615W        W68215  30.103  27.318  11.672
97616W        W68216  30.498  39.593  14.531
97617W        W68217  11.255  39.116   0.755
97618W        W68218  11.305  14.321  14.049
97619W        W68219  13.659  27.019  14.884
97620W        W68220  28.236  14.702   3.785
97621W        W68221   3.740  33.969   3.597
97622W        W68222  23.647  31.314   4.179
97623W        W68223  10.863   0.312  14.779
97624W        W68224  41.897  27.986   1.604
97625W        W68225  38.903   2.949  12.902
97626W        W68226  31.939   9.891   1.774
97627W        W68227  28.106  37.068  12.054
97628W        W68228  28.450  14.264   0.337
97629W        W68229  31.531   9.506   0.311
97630W        W68230   3.230  21.559   1.348
97631W        W68231  29.054  34.804   1.613
97632W        W68232  30.505  38.845  10.703
97633W        W68233   0.261  11.328   2.906
97634W        W68234  38.064  30.371  12.447
97635W        W68235  25.257  35.782  11.971
97636W        W68236  36.608   9.926   1.942
97637W        W68237  44.498  43.558   4.248
97638W        W68238   2.315   6.851   4.365
97639W        W68239  37.326  43.984   1.273
97640W        W68240  20.976  18.067   0.957
97641W        W68241  25.496  10.986   3.135
97642W        W68242  21.986  43.346  13.358
97643W        W68243  43.514  26.673   4.227
97644W        W68244  26.254  36.540   1.007
97645W        W68245  31.456  38.512   2.800
97646W        W68246  33.881   9.036   0.699
97647W        W68247  34.529  35.932  10.747
97648W        W68248  28.422   3.259  14.304
97649W        W68249   0.717  13.773  12.081
97650W        W68250   3.930  22.971   0.523
97651W        W68251  37.104  11.413   3.757
97652W        W68252   4.464  36.532  11.644
97653W        W68253  43.478  16.180   3.895
97654W        W68254  41.882  11.244  12.004
97655W        W68255  18.360  11.799  13.975
97656W        W68256  18.988  22.821   2.809
97657W        W68257   7.383  42.308  14.373
97658W        W68258  12.705   4.543   1.214
97659W        W68259  24.210  43.625  13.096
97660W        W68260  17.271  10.438  10.722
97661W        W68261  10.332  35.120   4.554
97662W        W68262   3.800  35.858   4.026
97663W        W68263  44.376  14.394   1.653
97664W        W68264   1.164  35.559  12.170
97665W        W68265  26.164  14.289   3.293
97666W        W68266  26.494  27.972   4.616
97667W        W68267  25.666  37.293   0.574
97668W        W68268  22.068   4.626   0.632
97669W        W68269  35.124  27.894  12.914
97670W        W68270  10.789  34.541  11.641
97671W        W68271  26.409  34.601  12.226
97672W        W68272  44.395   0.776  14.988
97673W        W68273  21.735   0.684   4.129
97674W        W68274   4.860  37.413  11.225
97675W        W68275  10.273  32.454   3.753
97676W        W68276  14.343  41.434   1.029
97677W        W68277  34.907  10.284  11.568
97678W        W68278  27.607  44.000  10.908
97679W        W68279   3.331  24.216  12.793
97680W        W68280   6.762   6.335   4.374
97681W        W68281  36.020  21.456   2.876
97682W        W68282  32.229  34.078   3.104
97683W        W68283  39.735  27.635  13.129
97684W        W68284  33.635   0.475   4.815
97685W        W68285  27.150  13.170   2.481
97686W        W68286  16.279  30.934   3.788
97687W        W68287  11.141   0.359   2.353
97688W        W68288   2.401  15.813  14.919
97689W        W68289  11.664  12.843   1.394
97690W        W68290  24.664  16.682  14.819
97691W        W68291  16.086  39.605  12.526
97692W        W68292  24.375   4.081  12.202
97693W        W68293  35.292  11.645   4.554
97694W        W68294  31.421  31.034   3.237
97695W        W68295  16.293  14.567  10.162
97696W        W68296  24.017  18.516   3.737
97697W        W68297  37.541  35.296   4.877
97698W        W68298  44.002  14.927   3.571
97699W        W68299   8.313  29.465   4.653
97700W        W68300  31.362  27.474  14.339
97701W        W68301  18.213  43.333   2.003
97702W        W68302   0.764   1.965  13.624
97703W        W68303  26.927  16.205  14.287
97704W        W68304  22.753   1.098  10.613
97705W        W68305  28.550  22.566  13.406
97706W        W68306  24.208   2.959   1.878
97707W        W68307   0.219  27.612   3.663
97708W        W68308  20.369  42.442   4.293
97709W        W68309  19.986  19.639   4.827
97710W        W68310  18.869  27.619   4.119
97711W        W68311  40.433  22.419  12.997
97712W        W68312  17.662  41.776  12.404
97713W        W68313  43.444  14.542   2.159
97714W        W68314   6.813  42.330   4.214
97715W        W68315  12.224   2.776  10.551
97716W        W68316  13.227  27.487   4.394
97717W        W68317  17.120   8.904   2.870
97718W        W68318  40.576  41.766   4.170
97719W        W68319  35.969  13.715   2.401
97720W        W68320  44.932   8.979   1.143
97721W        W68321  42.830  24.253  14.024
97722W        W68322  39.472  32.027   3.642
97723W        W68323  17.761  23.804  12.778
97724W        W68324  38.936  32.193   4.181
97725W        W68325  12.099  26.710  10.671
97726W        W68326   6.761  23.181   4.503
97727W        W68327  21.847  43.265   0.859
97728W        W68328  41.031  13.096   4.069
97729W        W68329  15.267  44.062   0.872
97730W        W68330  42.203  28.103  11.184
97731W        W68331  25.781  35.769  11.996
97732W        W68332  40.150  38.844   4.259
97733W        W68333  44.849   9.839  11.666
97734W        W68334  14.175  27.103  13.908
97735W        W68335  28.935  31.701  12.472
97736W        W68336  18.816  31.684  13.473
97737W        W68337  22.447  22.610   3.863
97738W        W68338  11.662  38.522   1.756
97739W        W68339   9.256   2.801  11.233
97740W        W68340   2.279   6.884   1.059
97741W        W68341  22.018  19.878   2.865
97742W        W68342   5.979  30.161  13.969
97743W        W68343  42.537  35.450  10.358
97744W        W68344  24.510   6.514  12.387
97745W        W68345  10.866   9.784   1.742
97746W        W68346   0.287  14.241   1.777
97747W        W68347  21.042  41.596   1.038
97748W        W68348  37.297  31.647  13.391
97749W        W68349   6.418   9.705  12.484
97750W        W68350  28.602  19.222  13.626
97751W        W68351   5.036  36.415   3.045
97752W        W68352  27.472  10.271   0.763
97753W        W68353  27.606  12.055   1.685
97754W        W68354   7.349  11.989   1.980
97755W        W68355   0.264   1.757   4.462
97756W        W68356  25.814  35.447   4.062
97757W        W68357  27.377  29.015   3.255
97758W        W68358  38.033   2.547  12.508
97759W        W68359  34.679  14.431   1.713
97760W        W68360  18.892  37.909   0.537
97761W        W68361  30.282  28.394   0.383
97762W        W68362   3.029  21.372  12.342
97763W        W68363   1.356  19.579   4.167
97764W        W68364  11.767   1.664   1.540
97765W        W68365  30.990  38.233  11.585
97766W        W68366  32.433  15.899  13.940
97767W        W68367  10.193  30.897   0.788
97768W        W68368  35.060   6.343  13.627
97769W        W68369   9.106  38.428   0.157
97770W        W68370  23.319  35.415  12.256
97771W        W68371  28.534  26.022  13.977
97772W        W68372  13.869  10.483   1.062
97773W        W68373  17.550  14.222   1.138
97774W        W68374  12.817  33.146   3.550
97775W        W68375  17.118  11.342  12.137
97776W        W68376  13.154  12.301  12.815
97777W        W68377  30.101  42.069   4.714
97778W        W68378   3.785  38.306  14.291
97779W        W68379  44.734  11.269  10.807
97780W        W68380  31.633  30.889  13.500
97781W        W68381   0.409  34.462   2.960
97782W        W68382  26.598  29.880   4.567
97783W        W68383  28.695  36.012  13.000
97784W        W68384  41.945  12.168   4.882
97785W        W68385  27.086  17.751   1.432
97786W        W68386   4.643  27.649  12.526
97787W        W68387   6.013  11.880   0.715
97788W        W68388  25.238  16.838   1.242
97789W        W68389  23.082  25.475  14.323
97790W        W68390  22.348  40.785   3.331
97791W        W68391  13.745   9.156  14.431
97792W        W68392  31.467   4.836   9.902
97793W        W68393  36.035   9.223   2.219
97794W        W68394  13.623  24.910  11.630
97795W        W68395  13.030  32.887   4.655
97796W        W68396   1.599   4.470   1.392
97797W        W68397  16.254  16.619   2.676
97798W        W68398  29.097  26.653   1.002
97799W        W68399  14.259  33.354   4.596
97800W        W68400  42.358  22.754   3.545
97801W        W68401  36.016  17.591   1.704
97802W        W68402  34.916  41.858   4.814
97803W        W68403  30.298  22.230  13.289
97804W        W68404  40.046  33.443   0.805
97805W        W68405  16.063  35.786   3.886
97806W        W68406  18.897  30.949  11.064
97807W        W68407  30.406   8.010   0.217
97808W        W68408   4.057  35.253   0.355
97809W        W68409  42.619  19.106  12.073
97810W        W68410   9.834   6.261  14.289
97811W        W68411  24.020  39.031   3.678
97812W        W68412  38.424  20.555  11.080
97813W        W68413  20.218  17.940   5.050
97814W        W68414  29.056  13.087  12.151
97815W        W68415  22.421   9.319  11.296
97816W        W68416  23.430  36.387   1.301
97817W        W68417   0.307  32.918  12.595
97818W        W68418  35.433  27.016  12.447
97819W        W68419  26.024  33.500  10.684
97820W        W68420  29.413  15.310   0.771
97821W        W68421   3.133  29.262  14.758
97822W        W68422  15.239  23.188  12.064
97823W        W68423  24.650  13.564   2.915
97824W        W68424   7.555   5.341  12.405
97825W        W68425  20.542   6.289  12.451
97826W        W68426  38.419  12.074   4.463
97827W        W68427  22.671   5.479   4.153
97828W        W68428  22.093  23.988   0.637
97829W        W68429  17.762  35.101  11.336
97830W        W68430  27.582  31.607  11.171
97831W        W68431  39.574  18.174   2.233
97832W        W68432  42.842  35.199   3.269
97833W        W68433  41.750   9.412   3.267
97834W        W68434  11.413  22.053   3.164
97835W        W68435  20.157  27.877   2.813
97836W        W68436  43.875  42.476   2.507
97837W        W68437   4.228  17.005  12.937
97838W        W68438  19.263  40.501   3.845
97839W        W68439  14.075  44.902  13.464
97840W        W68440  32.861  19.545   3.137
97841W        W68441   5.090  44.744  11.999
97842W        W68442  23.114  13.174   2.313
97843W        W68443  23.165   0.011  13.563
97844W        W68444  36.473   5.855  13.123
97845W        W68445  18.587  11.790  14.439
97846W        W68446   1.856  32.152   2.693
97847W        W68447  22.660  43.469  14.179
97848W        W68448  17.288  30.196  13.909
97849W        W68449  25.574  39.598   3.868
97850W        W68450  35.745  36.883   3.802
97851W        W68451  41.302  40.515   0.267
97852W        W68452  17.762  30.377  14.036
97853W        W68453  41.813  16.685   4.636
97854W        W68454  14.099  39.566  12.551
97855W        W68455  22.692  26.951   0.894
97856W        W68456  42.982   0.203  10.646
97857W        W68457  19.700  21.244  11.845
97858W        W68458  26.573  17.682   0.804
97859W        W68459  25.807  34.850  13.783
97860W        W68460  15.720  24.460  13.425
97861W        W68461  30.563  19.112   1.165
97862W        W68462  41.532  16.906   4.186
97863W        W68463   4.858  41.146  13.499
97864W        W68464  11.420   2.284   1.938
97865W        W68465  12.618  37.047  12.965
97866W        W68466  42.448  34.380   3.377
97867W        W68467   2.333  28.087  11.907
97868W        W68468  14.221   5.261   0.719
97869W        W68469  29.644  17.594  14.094
97870W        W68470  24.240  20.593  12.013
97871W        W68471  27.983   2.738  11.607
97872W        W68472   1.142  42.821   2.709
97873W        W68473  33.898  28.989   4.565
97874W        W68474   3.180  33.420   0.771
97875W        W68475  11.822  21.599  11.410
97876W        W68476  16.636  15.105  13.384
97877W        W68477   7.005  40.240   4.139
97878W        W68478  16.327   2.407  14.780
97879W        W68479  44.900  42.915   4.752
97880W        W68480   0.061  16.756   4.030
97881W        W68481  35.913  32.500   2.184
97882W        W68482  43.864  44.743   1.868
97883W        W68483  12.032  14.159   4.168
97884W        W68484  26.680  40.647  13.734
97885W        W68485   0.802  14.604   0.841
97886W        W68486  30.638  11.320   2.755
97887W        W68487  29.100   8.804   4.143
97888W        W68488  32.993  28.427  14.961
97889W        W68489  29.505   4.712  10.404
97890W        W68490   7.731  14.817  10.425
97891W        W68491   3.248   1.172  12.263
97892W        W68492  21.490   0.501  12.985
97893W        W68493  24.632  16.146   3.807
97894W        W68494   5.219   1.966  14.306
97895W        W68495  43.054   5.771   1.752
97896W        W68496  44.440  32.034   2.829
97897W        W68497  42.029  14.183  10.938
97898W        W68498  19.048  25.196  14.877
97899W        W68499   9.832  22.745   0.410
97900W        W68500  28.949   8.342   3.404
97901W        W68501  20.984  34.393  13.985
97902W        W68502   0.360  22.281  13.870
97903W        W68503  13.797   8.343  12.935
97904W        W68504   1.736   4.978  10.899
97905W        W68505  30.922   9.137   1.251
97906W        W68506  10.683  11.445   1.435
97907W        W68507  25.470  11.169  14.187
97908W        W68508  27.733   4.453  12.476
97909W        W68509  24.656  20.777  12.836
97910W        W68510   0.872  23.209  12.358
97911W        W68511  23.917  28.509   4.607
97912W        W68512  18.300  18.778   0.378
97913W        W68513   6.291  42.166   4.644
97914W        W68514  35.474  16.578   3.672
97915W        W68515   2.241   2.709   4.766
97916W        W68516  20.158  24.962  14.106
97917W        W68517  25.179  28.755   0.094
97918W        W68518  39.458  33.908  13.778
97919W        W68519   5.916   9.178  13.854
97920W        W68520  19.181  12.675  11.961
97921W        W68521  15.581  36.279   2.733
97922W        W68522   9.070   8.469   1.622
97923W        W68523   8.615  13.649  11.517
97924W        W68524   4.895  12.116  14.430
97925W        W68525  23.230   5.716   1.111
97926W        W68526   5.833   8.337   3.128
97927W        W68527  23.454  11.598  11.711
97928W        W68528  28.060  16.503  12.321
97929W        W68529  37.024  11.826   0.957
97930W        W68530  15.562  31.844   2.094
97931W        W68531  31.642  43.283  13.939
97932W        W68532   6.846   2.515   3.712
97933W        W68533  33.394  24.472  14.775
97934W        W68534   1.870  26.883   3.782
97935W        W68535  27.877  33.399  10.943
97936W        W68536  28.377  39.880  13.818
97937W        W68537  43.038  25.700   2.189
97938W        W68538  16.469  18.603   1.735
97939W        W68539   8.185  29.046  13.500
97940W        W68540  37.215  23.281   3.199
97941W        W68541   4.543  44.478  10.639
97942W        W68542  43.775  41.888   3.348
97943W        W68543  16.264  37.091   0.076
97944W        W68544  14.677  31.952   4.758
97945W        W68545  18.116  41.999   2.801
97946W        W68546   2.910   5.297   0.699
97947W        W68547  29.173   1.228   2.177
97948W        W68548  19.225  41.929   4.848
97949W        W68549  24.026  20.990  13.006
97950W        W68550  22.041   4.982   1.904
97951W        W68551  17.600  20.289   4.727
97952W        W68552  23.221  26.019  10.784
97953W        W68553  24.697  44.020   2.828
97954W        W68554  43.005  26.773   4.244
97955W        W68555  20.339  13.158   4.091
97956W        W68556   9.620   8.091  10.937
97957W        W68557  10.944  44.839   0.853
97958W        W68558  14.533  28.115   3.638
97959W        W68559  37.024  18.652  13.472
97960W        W68560  19.534  18.518  11.591
97961W        W68561  32.854  40.917   0.934
97962W        W68562   4.320   5.264   3.255
97963W        W68563  44.868   3.956  14.976
97964W        W68564   5.511  13.903   2.211
97965W        W68565   5.302  40.812   0.281
97966W        W68566   6.979  33.230  11.668
97967W        W68567  35.998  20.638  10.781
97968W        W68568  43.258  18.471   2.569
97969W        W68569   4.883  28.987  14.991
97970W        W68570  29.715  13.076   5.016
97971W        W68571  10.311  22.629  10.811
97972W        W68572   2.681  33.079   2.718
97973W        W68573  24.546  41.927   3.885
97974W        W68574  21.523  11.417  14.848
97975W        W68575  25.243  44.730   3.708
97976W        W68576  13.169  35.328  10.623
97977W        W68577  23.057  36.608   0.023
97978W        W68578  13.746  28.677   2.398
97979W        W68579   0.338  39.037  13.319
97980W        W68580  35.319  37.163   3.771
97981W        W68581  29.288   5.800   0.323
97982W        W68582  41.269  27.974  11.002
97983W        W68583   3.539  20.481   0.046
97984W        W68584   3.434   3.602   1.918
97985W        W68585   2.936   3.801  14.039
97986W        W68586  20.584  30.131  10.904
97987W        W68587   1.816  43.496  13.530
97988W        W68588  15.179  27.561   3.592
97989W        W68589  11.484  20.763   0.134
97990W        W68590  13.856  31.413   4.133
97991W        W68591   6.654   8.754   4.559
97992W        W68592  14.184  40.307   4.085
97993W        W68593   5.975  18.543   0.936
97994W        W68594  16.108  44.050  14.563
97995W        W68595   9.818   8.606   3.775
97996W        W68596  32.095   8.844   4.068
97997W        W68597   3.771  39.485   3.061
97998W        W68598  23.995  11.824  13.551
97999W        W68599  33.006   7.278  14.342
98000W        W68600  24.906   3.801  13.384
98001W        W68601   6.764  29.601   0.536
98002W        W68602   8.500  11.580   5.092
98003W        W68603  34.929  40.728   3.833
98004W        W68604   2.651  28.198   3.107
98005W        W68605   1.024  30.902  11.122
98006W        W68606   1.977  37.429   1.213
98007W        W68607  33.089  37.787  10.761
98008W        W68608  33.938  42.996  11.445
98009W        W68609  20.512  17.327   0.800
98010W        W68610  40.131  29.427   4.606
98011W        W68611  29.144  36.083  12.300
98012W        W68612  19.109  25.096   4.127
98013W        W68613  29.130  29.458  14.934
98014W        W68614   8.759  37.066   4.605
98015W        W68615   4.302  43.390  12.469
98016W        W68616  28.443  42.241  13.898
98017W        W68617   9.838   3.253  12.076
98018W        W68618  32.324  33.424   1.768
98019W        W68619  13.146  30.738   1.802
98020W        W68620  30.258  31.077  11.035
98021W        W68621   5.378  31.707  12.650
98022W        W68622  29.919  13.379   0.059
98023W        W68623  11.745   5.103   4.557
98024W        W68624   4.202  20.071  14.021
98025W        W68625  16.585  20.690  14.444
98026W        W68626  25.844  37.582  14.123
98027W        W68627  23.074  43.181  14.073
98028W        W68628  14.175  12.137  14.739
98029W        W68629   3.200  33.580  13.025
98030W        W68630  41.007  16.878  10.936
98031W        W68631   1.211  12.172  13.095
98032W        W68632  41.129  12.247  12.126
98033W        W68633  40.703   3.266   0.912
98034W        W68634  44.321  35.951   0.669
98035W        W68635   7.483  37.432   3.786
98036W        W68636  35.419   1.411   2.843
98037W        W68637  23.531  43.207  10.919
98038W        W68638   3.198  20.614  13.137
98039W        W68639  20.189  12.897   3.595
98040W        W68640  27.264  24.961  13.415
98041W        W68641  13.904  24.090  14.352
98042W        W68642  20.138  22.476  13.897
98043W        W68643  15.057  17.651   2.868
98044W        W68644  25.198  41.775  10.961
98045W        W68645  14.208  43.278   0.881
98046W        W68646  11.682  31.495  11.036
98047W        W68647  24.221  33.041   1.709
98048W        W68648  16.695  33.558   3.670
98049W        W68649  27.711  11.708   0.851
98050W        W68650  23.925  15.403  13.888
98051W        W68651   3.242   4.906   4.616
98052W        W68652   9.846  21.387  11.179
98053W        W68653  16.726  25.086  11.588
98054W        W68654  32.162  33.040   3.398
98055W        W68655  38.756  42.821   3.708
98056W        W68656  20.744   5.148  11.932
98057W        W68657   7.142  29.193  14.942
98058W        W68658  17.070  44.993   0.784
98059W        W68659  32.081  44.061  12.002
98060W        W68660  38.990  18.564   0.504
98061W        W68661  32.212   6.521  10.453
98062W        W68662  16.929  18.626   4.759
98063W        W68663  29.652   4.915  13.422
98064W        W68664   7.453   3.824   4.625
98065W        W68665  44.178  37.680   1.735
98066W        W68666  26.913  12.470  11.994
98067W        W68667  32.553  12.927   0.027
98068W        W68668   7.624  24.097   1.227
98069W        W68669  11.983  20.716   4.824
98070W        W68670  13.202  34.841  10.353
98071W        W68671  11.924  21.801  13.881
98072W        W68672  17.905  30.754   0.962
98073W        W68673  24.782  21.293  13.509
98074W        W68674  40.454   9.175  10.945
98075W        W68675  42.264   4.056   3.533
98076W        W68676  36.747  10.180  12.378
98077W        W68677  11.288  20.171  10.878
98078W        W68678  25.995   4.136  14.791
98079W        W68679   9.278   0.858   1.440
98080W        W68680  23.017  18.245   2.711
98081W        W68681   8.497   7.793   2.811
98082W        W68682  24.053  39.441   2.330
98083W        W68683  12.354  39.102  12.108
98084W        W68684  29.816  26.981   4.065
98085W        W68685  12.540  34.982   3.148
98086W        W68686  44.426  17.178  14.362
98087W        W68687   7.888   3.627   1.846
98088W        W68688   7.435  21.259   0.953
98089W        W68689  12.818  13.681  12.179
98090W        W68690  18.143   5.278   0.045
98091W        W68691   7.667  41.256  11.554
98092W        W68692  23.965  23.620  14.580
98093W        W68693  37.980  27.578   4.716
98094W        W68694   5.115  29.865   3.627
98095W        W68695  12.339   2.341  10.799
98096W        W68696  28.352  35.230   1.697
98097W        W68697  22.607   5.687  14.864
98098W        W68698  21.144  14.117  14.907
98099W        W68699  39.893  10.020   3.316
98100W        W68700  16.710  15.291  12.919
98101W        W68701  14.690  24.523   2.759
98102W        W68702   5.785  42.869  14.408
98103W        W68703  20.272   3.934  14.602
98104W        W68704   0.727  43.083   2.568
98105W        W68705  25.128  39.283   1.185
98106W        W68706  10.252   1.047   0.481
98107W        W68707  26.640   6.707   2.759
98108W        W68708   9.698  36.809   3.374
98109W        W68709  11.733  21.817   2.799
98110W        W68710  23.664  28.601  13.445
98111W        W68711  43.470  31.879  11.579
98112W        W68712   6.709  38.863   1.782
98113W        W68713  43.921  32.414  12.495
98114W        W68714   9.384  34.379  12.164
98115W        W68715   5.935  41.077   2.252
98116W        W68716  17.645  43.820   4.681
98117W        W68717  26.073   0.814   1.972
98118W        W68718  20.613  25.132  11.496
98119W        W68719   7.164  33.575  13.058
98120W        W68720  30.810  39.633  11.988
98121W        W68721  18.077  31.987   0.775
98122W        W68722  29.443   0.205   4.620
98123W        W68723  32.028   9.817   0.845
98124W        W68724  35.000  31.967  13.494
98125W        W68725  16.594  37.251  12.440
98126W        W68726  33.035   3.633  11.935
98127W        W68727  11.723  26.690   2.829
98128W        W68728   9.869  36.394   4.203
98129W        W68729   3.515  16.125   0.912
98130W        W68730  11.520  27.496   0.902
98131W        W68731   5.858  13.081  13.850
98132W        W68732  28.880   2.375  13.437
98133W        W68733  22.710  27.142   1.383
98134W        W68734  40.862  12.460  12.515
98135W        W68735  14.014  27.681   0.307
98136W        W68736   2.281   4.764  11.725
98137W        W68737  27.592   4.177  11.176
98138W        W68738  20.581   7.257   3.113
98139W        W68739  28.519  42.272  12.599
98140W        W68740   1.816   5.371  12.547
98141W        W68741  39.363  20.618  10.642
98142W        W68742  41.844  34.836  13.890
98143W        W68743  30.276  38.048  14.366
98144W        W68744   4.150  17.496   2.726
98145W        W68745  30.184  16.000  10.767
98146W        W68746  24.562  17.549  14.923
98147W        W68747  30.606  35.790   1.335
98148W        W68748  26.232   6.448   2.947
98149W        W68749  22.436   3.480   5.090
98150W        W68750   0.923  43.760  13.520
98151W        W68751  44.724  14.705  14.292
98152W        W68752  20.830   6.275   2.818
98153W        W68753  25.559  10.790   1.799
98154W        W68754  13.266  22.103  12.035
98155W        W68755  33.965  17.698  10.389
98156W        W68756  34.962  13.188   0.370
98157W        W68757  11.741   4.296   2.821
98158W        W68758  32.860  33.933  10.996
98159W        W68759  11.770   8.879   0.323
98160W        W68760  37.619  38.731  10.329
98161W        W68761  29.077  38.500  11.662
98162W        W68762  14.770   7.863  10.532
98163W        W68763   8.796  23.415   3.620
98164W        W68764  41.566  38.466  13.932
98165W        W68765  39.111  34.482  14.028
98166W        W68766  32.940   2.775   0.792
98167W        W68767  39.376   1.497  13.984
98168W        W68768   5.890  25.305  12.947
98169W        W68769  43.507  20.039  12.919
98170W        W68770  29.453  14.250   3.976
98171W        W68771  31.626  20.845   2.753
98172W        W68772  42.556   8.243   2.229
98173W        W68773  35.359  40.418   3.285
98174W        W68774  40.175  16.239   0.401
98175W        W68775   7.860  36.547  14.289
98176W        W68776  34.628   0.484  14.328
98177W        W68777  37.105  38.249   3.079
98178W        W68778  32.307  29.244  11.376
98179W        W68779  34.057  33.970   4.669
98180W        W68780  14.337  15.178   2.764
98181W        W68781   0.019  40.975   2.525
98182W        W68782  31.691  22.273  13.872
98183W        W68783  31.444  38.139   4.160
98184W        W68784  17.682  20.150   3.177
98185W        W68785  29.690  12.048  10.440
98186W        W68786  29.405  33.079   1.436
98187W        W68787  11.680  23.743  11.235
98188W        W68788  35.311  12.331  12.248
98189W        W68789  36.598  39.958  12.983
98190W        W68790  24.101  10.085   2.136
98191W        W68791  20.522   0.897  11.024
98192W        W68792  19.692  31.060   1.300
98193W        W68793  10.845   1.718  10.459
98194W        W68794  39.912  14.278  12.669
98195W        W68795  12.075  29.611   4.259
98196W        W68796  38.241  10.968  11.153
98197W        W68797  34.037  41.362  14.799
98198W        W68798   2.296   7.663  11.185
98199W        W68799  11.180  22.979  12.346
98200W        W68800  24.955  16.635   3.281
98201W        W68801  40.773  20.088  13.853
98202W        W68802  27.997  41.057   4.624
98203W        W68803  24.237   7.824  14.888
98204W        W68804   5.372  10.648  10.628
98205W        W68805   4.898   5.407  14.388
98206W        W68806  29.126  38.524  10.666
98207W        W68807  12.717  36.088  10.512
98208W        W68808  34.871  10.310   3.601
98209W        W68809  23.456   5.248  13.750
98210W        W68810  10.131   7.903   1.913
98211W        W68811  30.900  35.383  14.878
98212W        W68812  28.055   1.094   3.222
98213W        W68813  19.730  27.701   0.377
98214W        W68814  10.497   2.355  14.331
98215W        W68815  12.350   3.749  14.493
98216W        W68816  27.981  34.292  11.618
98217W        W68817  39.629  39.292  10.955
98218W        W68818  16.502  42.960   0.689
98219W        W68819  40.516  32.997  12.531
98220W        W68820  10.077   5.021  13.961
98221W        W68821  29.038  37.893  13.004
98222W        W68822  41.930  42.559  14.411
98223W        W68823  18.593   4.506  13.383
98224W        W68824  30.602  12.890  10.805
98225W        W68825   4.475  32.055   2.238
98226W        W68826  43.331  22.231   1.772
98227W        W68827   3.921  35.880  12.517
98228W        W68828  21.308  12.063   3.892
98229W        W68829  23.469  34.788  10.672
98230W        W68830  22.154  33.477   4.752
98231W        W68831   2.780   7.889   2.396
98232W        W68832  41.029  31.122   3.775
98233W        W68833  25.556  33.410  10.496
98234W        W68834  21.256  23.742   1.323
98235W        W68835  36.474  33.373   0.806
98236W        W68836  28.575  14.282   1.710
98237W        W68837  37.269  30.026   0.815
98238W        W68838  12.750  31.085   1.705
98239W        W68839   1.217  43.262   1.271
98240W        W68840  21.155  22.186   2.426
98241W        W68841  20.518   7.677   3.413
98242W        W68842  26.572  36.143   0.431
98243W        W68843  32.870  28.628  11.486
98244W        W68844   3.156  26.449   2.199
98245W        W68845  19.765  35.289  11.679
98246W        W68846  13.597   2.005  11.025
98247W        W68847  25.070  10.160   2.945
98248W        W68848  31.203  16.222   3.214
98249W        W68849  26.565  11.775   4.022
98250W        W68850  11.778  28.734   0.451
98251W        W68851   9.906  41.078  10.406
98252W        W68852  42.751  26.123   2.290
98253W        W68853   9.404   7.423  12.183
98254W        W68854   7.411  29.602  14.755
98255W        W68855  34.520  29.088   0.282
98256W        W68856   9.298   5.265  13.087
98257W        W68857  22.491   7.854   2.292
98258W        W68858   3.016   4.687  12.003
98259W        W68859  25.041  24.136  13.358
98260W        W68860  12.393  29.156   2.674
98261W        W68861  42.225  12.832   4.041
98262W        W68862  44.576   2.895   1.873
98263W        W68863  17.274   3.702   3.719
98264W        W68864   2.131   4.871  11.264
98265W        W68865  37.004  25.260  14.365
98266W        W68866  34.588  39.360  14.298
98267W        W68867  37.507  28.361   4.348
98268W        W68868  43.647  33.947  11.464
98269W        W68869  39.801   3.800  12.559
98270W        W68870  31.409  42.695  11.718
98271W        W68871  40.150  12.586  10.570
98272W        W68872  44.675  27.373   3.950
98273W        W68873   2.337   9.657   3.603
98274W        W68874  34.577  29.889  12.457
98275W        W68875  43.783  37.960  11.136
98276W        W68876  39.492   4.106   3.749
98277W        W68877  34.907  43.056  11.731
98278W        W68878  13.503  22.624  12.092
98279W        W68879  44.384  44.247   2.728
98280W        W68880  24.947  23.988  14.501
98281W        W68881  19.971  31.953   2.141
98282W        W68882   4.490  11.786   0.949
98283W        W68883  14.365  22.131   3.376
98284W        W68884   4.301  21.184   0.203
98285W        W68885  19.559   1.602   3.536
98286W        W68886  29.020  43.761  12.674
98287W        W68887  35.085  28.206   3.807
98288W        W68888  24.142  19.889   3.475
98289W        W68889  11.262  34.114   4.273
98290W        W68890  39.477   2.032  14.024
98291W        W68891  38.001   6.257  10.502
98292W        W68892   3.182  43.971   4.307
98293W        W68893  25.453  40.274   4.618
98294W        W68894   4.921   5.340   4.990
98295W        W68895   2.489   3.846   0.469
98296W        W68896  29.322  26.074  10.421
98297W        W68897   9.393  43.562  12.412
98298W        W68898  33.833  17.269  10.124
98299W        W68899  19.858  13.209   5.080
98300W        W68900   6.693  37.491  11.510
98301W        W68901   1.276   6.410  10.426
98302W        W68902   0.733   6.843  11.112
98303W        W68903   5.151  19.295  13.729
98304W        W68904  34.918  26.209  14.379
98305W        W68905  40.562   4.304   0.832
98306W        W68906   1.824  12.678   0.450
98307W        W68907  30.953   5.652  14.202
98308W        W68908  18.681   0.912  10.556
98309W        W68909  19.756   7.526  10.276
98310W        W68910  33.239   7.397  11.490
98311W        W68911  36.449  36.336   2.271
98312W        W68912  44.816  34.806   1.465
98313W        W68913   1.554  34.820   4.027
98314W        W68914  30.140   2.554  13.039
98315W        W68915  36.090  13.064  11.174
98316W        W68916  19.505  34.473   2.240
98317W        W68917  18.521  16.623   4.390
98318W        W68918  11.733  18.521  11.714
98319W        W68919  33.973  36.635   3.209
98320W        W68920  43.435   0.758   3.085
98321W        W68921  34.641  26.973  14.072
98322W        W68922   8.866  16.768  12.943
98323W        W68923  14.347  23.124  14.240
98324W        W68924   0.687  21.585   0.479
98325W        W68925  26.916  30.651  12.026
98326W        W68926  19.313  41.282  12.927
98327W        W68927  18.611  14.870  11.384
98328W        W68928  22.500   1.349   4.132
98329W        W68929  16.670   0.142  14.323
98330W        W68930  42.308   3.296  11.187
98331W        W68931  33.883  42.200  14.015
98332W        W68932  18.535  11.630  13.503
98333W        W68933  27.978  14.372  13.873
98334W        W68934  31.587  28.521  15.000
98335W        W68935  11.183   6.287   1.307
98336W        W68936  42.979  23.401   3.915
98337W        W68937  24.461  44.190  11.718
98338W        W68938  37.306  22.037   1.173
98339W        W68939  10.751  34.815   1.937
98340W        W68940  25.530  33.371   2.844
98341W        W68941  19.804  23.788  14.893
98342W        W68942  19.105  41.786  10.789
98343W        W68943  24.760  42.901  11.474
98344W        W68944  37.928  31.002   1.887
98345W        W68945  40.683  33.861   0.197
98346W        W68946  36.042  20.041  14.550
98347W        W68947  35.905  29.500   2.727
98348W        W68948  36.574  24.537  13.531
98349W        W68949  34.672  30.709  10.596
98350W        W68950  33.901  26.187  10.714
98351W        W68951  21.816  14.764  14.270
98352W        W68952  41.165  15.792   2.799
98353W        W68953  29.103  44.007  13.133
98354W        W68954  39.479   7.833  14.593
98355W        W68955  18.592  40.330   3.613
98356W        W68956  28.780   5.211   0.156
98357W        W68957  22.200  21.740   2.387
98358W        W68958  40.965  10.281   0.654
98359W        W68959  40.420  32.306  13.064
98360W        W68960  20.237   3.876  14.078
98361W        W68961  26.180  19.790   2.262
98362W        W68962  36.407   3.065   1.856
98363W        W68963   1.370  44.008  14.730
98364W        W68964   9.901  21.041  11.576
98365W        W68965  30.456  16.702  12.102
98366W        W68966  35.121  10.390  12.022
98367W        W68967  36.116  44.476   2.992
98368W        W68968   3.278  25.073  13.152
98369W        W68969  19.314  41.445   0.383
98370W        W68970   7.682  27.504   0.488
98371W        W68971   0.412   7.659   4.539
98372W        W68972   6.759   9.769   4.553
98373W        W68973  23.071  20.339  13.943
98374W        W68974  25.147  36.154   2.367
98375W        W68975  25.679  11.454   3.149
98376W        W68976  28.315  40.862   4.985
98377W        W68977  12.248  38.268   0.969
98378W        W68978  36.907   4.383  12.052
98379W        W68979  21.618  29.229  12.021
98380W        W68980   8.968   3.788   4.206
98381W        W68981  27.100  38.421   4.458
98382W        W68982  13.859  15.248  14.429
98383W        W68983   5.753  28.637   4.755
98384W        W68984  12.684   4.745  11.945
98385W        W68985   1.155  20.561  13.887
98386W        W68986   7.147  30.278  11.122
98387W        W68987  30.206  16.773   5.003
98388W        W68988  38.956   3.460   0.378
98389W        W68989  33.788   9.854  13.228
98390W        W68990   4.865  35.972   0.416
98391W        W68991  18.345  33.643   2.113
98392W        W68992   7.798   4.114   3.452
98393W        W68993  20.546  12.710   4.819
98394W        W68994   7.464  17.499   1.031
98395W        W68995  33.646   9.117  11.151
98396W        W68996  15.024  37.238  13.436
98397W        W68997   6.113  42.728  13.976
98398W        W68998   3.246  19.147   2.901
98399W        W68999  42.091  17.525   2.915
98400W        W69000  29.131  37.149  11.416
98401W        W69001  30.929   0.268  12.452
98402W        W69002  43.315  13.642   2.640
98403W        W69003  18.308   4.016   3.069
98404W        W69004  34.133   1.992   2.873
98405W        W69005  44.993   1.431  13.292
98406W        W69006   5.005  36.702   1.369
98407W        W69007  27.193  31.863   3.545
98408W        W69008  24.800  19.134   4.786
98409W        W69009  36.860  19.490  13.855
98410W        W69010  38.874  27.911  11.164
98411W        W69011  20.151  35.595   2.760
98412W        W69012  18.313   9.174  10.631
98413W        W69013  39.364  39.990   2.705
98414W        W69014   5.614  24.998  12.603
98415W        W69015  18.050  32.877  13.453
98416W        W69016   0.018  36.486   4.195
98417W        W69017  42.037   0.336   0.402
98418W        W69018  20.125   7.295   3.353
98419W        W69019   8.419  16.652   1.336
98420W        W69020   2.205  21.736  13.856
98421W        W69021  40.769  40.871   1.916
98422W        W69022  38.787   9.232  14.461
98423W        W69023  36.652   0.450   3.801
98424W        W69024   0.816  28.506   3.252
98425W        W69025  10.102  28.799  13.875
98426W        W69026  43.851  41.889   0.816
98427W        W69027   8.192  41.584  10.394
98428W        W69028  32.023   3.447  13.856
98429W        W69029  24.029  40.329   3.883
98430W        W69030  21.824  32.121  13.467
98431W        W69031  25.859   7.678  13.113
98432W        W69032  40.828  24.244  14.314
98433W        W69033  41.120  12.286  11.272
98434W        W69034  40.901  32.949  14.041
98435W        W69035  14.762  10.204  11.010
98436W        W69036  29.635  37.434  12.984
98437W        W69037  10.406  20.268  12.357
98438W        W69038   0.197   7.609  13.381
98439W        W69039  30.497  31.901  14.343
98440W        W69040   7.699  31.605   4.876
98441W        W69041  20.868   4.160   0.490
98442W        W69042  38.520  42.462   2.289
98443W        W69043  40.744   4.889  14.864
98444W        W69044   0.483  35.960   3.179
98445W        W69045   3.663  32.718  12.794
98446W        W69046  13.595  40.773  12.918
98447W        W69047  25.353  23.686  12.367
98448W        W69048  12.690  26.245   3.901
98449W        W69049  39.495  42.180  14.260
98450W        W69050  21.733   4.434   4.150
98451W        W69051  29.570  39.879   3.086
98452W        W69052  18.295  22.559  14.855
98453W        W69053   8.831  34.163  10.496
98454W        W69054  44.540  26.156  10.629
98455W        W69055   6.592  38.574  14.446
98456W        W69056   6.450   6.387   2.686
98457W        W69057  26.928  33.873   1.733
98458W        W69058  37.290   2.657  14.066
98459W        W69059  12.248   4.379   3.661
98460W        W69060  16.400  20.654   2.339
98461W        W69061  34.002  22.833   4.861
98462W        W69062  15.624   9.535  11.528
98463W        W69063   8.662   0.898   3.312
98464W        W69064  19.598  20.622   0.943
98465W        W69065  42.913   1.896   2.257
98466W        W69066  21.153  44.655   2.117
98467W        W69067  20.122  16.756   1.234
98468W        W69068   3.989  44.649   3.713
98469W        W69069  35.483  26.720   4.049
98470W        W69070  38.574  27.451   0.860
98471W        W69071   3.853  33.148   2.281
98472W        W69072  33.581  20.887   9.847
98473W        W69073  15.240  33.171  14.468
98474W        W69074   3.283  33.499   1.292
98475W        W69075  38.894  44.962  13.402
98476W        W69076  24.574  21.930  14.342
98477W        W69077  18.639  43.200   2.244
98478W        W69078  41.033  25.911   3.328
98479W        W69079   3.424  12.538  12.079
98480W        W69080  27.615  35.041   1.467
98481W        W69081  18.094  36.424  11.878
98482W        W69082  42.639  15.269  13.101
98483W        W69083  11.882  29.215   1.808
98484W        W69084  20.637  44.473  13.053
98485W        W69085  19.308   4.219   0.041
98486W        W69086  13.807  12.197   4.875
98487W        W69087   0.768  41.730   0.366
98488W        W69088  19.691  32.332  11.961
98489W        W69089  43.216  42.553  11.185
98490W        W69090  37.524  12.778   3.157
98491W        W69091  26.937  27.772  14.134
98492W        W69092   7.214  12.824  12.330
98493W        W69093  22.678  32.021   2.394
98494W        W69094  16.807   4.441   4.134
98495W        W69095  12.850  14.125   0.811
98496W        W69096   1.012  31.675   1.715
98497W        W69097  41.751  26.261   0.743
98498W        W69098  37.885   5.165   0.889
98499W        W69099  42.890  33.155  12.605
98500W        W69100  29.530  10.327   1.396
98501W        W69101  10.418   7.454   3.710
98502W        W69102  44.713  37.915  12.527
98503W        W69103   1.843  33.143   0.313
98504W        W69104  22.213  19.505   4.101
98505W        W69105  17.735   8.464   0.023
98506W        W69106   6.757  25.024  12.023
98507W        W69107  31.348   1.734  11.593
98508W        W69108  31.204   6.611   0.435
98509W        W69109  44.805   3.656   0.405
98510W        W69110  22.556  39.972  10.302
98511W        W69111   5.058   2.170   0.873
98512W        W69112  32.087  43.103  13.094
98513W        W69113  39.323   6.183  10.806
98514W        W69114   8.672  43.113   0.289
98515W        W69115  29.476  12.215   1.787
98516W        W69116  38.819  36.372   0.601
98517W        W69117  31.581   5.995  13.516
98518W        W69118  11.489  21.985  11.469
98519W        W69119  39.011  31.490   0.366
98520W        W69120  34.989  18.706   0.061
98521W        W69121   3.774  20.140   1.776
98522W        W69122  33.474  36.614  12.677
98523W        W69123  20.952  44.835   1.305
98524W        W69124   9.309   4.404   0.465
98525W        W69125  40.825  27.501   3.304
98526W        W69126  31.404   2.365   4.610
98527W        W69127   2.829  43.981   2.342
98528W        W69128  23.224  21.150  13.440
98529W        W69129  30.017  28.685  13.031
98530W        W69130  12.086  24.252   4.185
98531W        W69131  18.685   2.055  12.391
98532W        W69132   0.889  44.210  11.680
98533W        W69133  34.653  24.049  14.940
98534W        W69134   8.831   2.689  14.562
98535W        W69135  25.265  18.133   1.737
98536W        W69136  19.546  10.999  10.414
98537W        W69137  41.044  27.511   1.393
98538W        W69138  22.541   3.761  14.262
98539W        W69139   1.007   4.515  12.167
98540W        W69140  33.131  36.906  13.090
98541W        W69141  43.474  31.504  13.373
98542W        W69142  19.509  37.922  11.991
98543W        W69143  27.579  33.092   3.901
98544W        W69144   4.727  10.621  11.831
98545W        W69145  40.880  29.583   4.324
98546W        W69146   5.939  30.627   4.604
98547W        W69147  21.918  36.983   4.107
98548W        W69148  16.282  34.624  13.614
98549W        W69149  36.964   6.857   3.896
98550W        W69150  28.992  41.490  13.818
98551W        W69151  22.112  40.393  12.455
98552W        W69152  43.960  30.962  14.414
98553W        W69153   8.568  35.293  13.485
98554W        W69154   5.727  29.056  11.885
98555W        W69155  43.923   4.764   2.872
98556W        W69156  17.319  25.250   1.831
98557W        W69157  32.435   9.877  12.592
98558W        W69158  40.406  38.291   3.444
98559W        W69159  27.271  33.682   2.689
98560W        W69160  34.354   5.752   4.237
98561W        W69161   2.752  25.541  14.688
98562W        W69162  12.907   2.227   2.635
98563W        W69163  14.618   3.455   2.809
98564W        W69164  31.080  25.135  14.303
98565W        W69165  43.367  25.156   2.694
98566W        W69166  22.294  26.012  12.342
98567W        W69167  37.668  21.454  13.431
98568W        W69168  22.263  30.079   2.636
98569W        W69169  29.659  12.204  14.705
98570W        W69170   5.631  24.100   0.695
98571W        W69171  34.353  25.112  13.110
98572W        W69172   9.250  43.694  11.499
98573W        W69173  43.563  29.526  11.628
98574W        W69174  14.927  29.081   0.806
98575W        W69175  14.345  27.628   0.727
98576W        W69176  19.841   0.927   2.856
98577W        W69177  34.614  31.422   0.784
98578W        W69178  38.103   3.402  10.574
98579W        W69179  41.703  11.679  14.442
98580W        W69180   5.355  13.229  13.170
98581W        W69181  36.463   1.042   4.685
98582W        W69182  27.013  31.831   0.297
98583W        W69183  14.216  12.372  10.830
98584W        W69184  38.075  33.187  12.884
98585W        W69185  16.676  34.537   4.458
98586W        W69186  11.707  33.410   0.136
98587W        W69187  15.056  43.443  14.332
98588W        W69188  44.362  22.138  13.321
98589W        W69189  30.650  27.514   4.484
98590W        W69190  40.780  17.091   0.349
98591W        W69191  33.967   0.081   3.776
98592W        W69192  33.153  31.144  14.360
98593W        W69193  14.908   0.089  12.929
98594W        W69194  11.802  19.758   1.265
98595W        W69195   4.137  36.599   3.207
98596W        W69196  10.696  16.385  13.417
98597W        W69197  33.538  19.329   4.607
98598W        W69198  24.731  22.644  12.501
98599W        W69199   8.457  39.421  12.033
98600W        W69200  42.697  33.411  11.248
98601W        W69201  24.666   4.842  11.605
98602W        W69202   7.391  26.426   0.531
98603W        W69203   0.458  23.638   1.956
98604W        W69204   8.179  19.263  12.475
98605W        W69205  42.795  16.905  13.472
98606W        W69206  36.156  44.184  12.772
98607W        W69207  42.284  18.225  12.181
98608W        W69208  31.116  19.609  12.713
98609W        W69209  17.196  44.284   0.372
98610W        W69210   8.835  39.861   4.095
98611W        W69211  11.172  31.774  11.757
98612W        W69212  37.975  20.126   3.751
98613W        W69213  19.849  14.074  13.514
98614W        W69214  15.021  34.306   3.648
98615W        W69215  25.289  15.836   3.158
98616W        W69216  31.194  12.527  11.580
98617W        W69217   8.748  25.903   0.329
98618W        W69218  31.913  12.267   3.219
98619W        W69219  44.238  12.349   1.215
98620W        W69220  36.895  27.021  11.119
98621W        W69221  11.329  26.676   4.475
98622W        W69222  43.377  43.836  13.507
98623W        W69223  22.395  30.965  10.715
98624W        W69224   5.704  20.202  11.567
98625W        W69225  44.537  18.170   2.704
98626W        W69226  11.387   5.585  12.426
98627W        W69227   0.655  19.013   4.010
98628W        W69228  21.405   3.226   3.174
98629W        W69229  33.544  29.374   3.710
98630W        W69230   5.697  12.551   2.853
98631W        W69231  28.911   5.962  10.954
98632W        W69232   9.590  18.568   0.816
98633W        W69233  22.751  38.620  12.611
98634W        W69234  13.839  38.952   3.672
98635W        W69235   8.136  29.154   1.815
98636W        W69236  30.359  42.518   4.606
98637W        W69237   6.883   9.927  14.434
98638W        W69238  41.330  27.981  12.869
98639W        W69239  32.721  33.542   0.493
98640W        W69240  36.172  35.479  11.689
98641W        W69241   2.951  40.302  12.040
98642W        W69242   1.314  30.429  10.469
98643W        W69243  31.727   1.447  14.297
98644W        W69244  11.543  38.601  13.678
98645W        W69245   3.889  40.741  12.606
98646W        W69246  15.403  12.894  10.636
98647W        W69247  20.521  27.270   3.364
98648W        W69248  34.022  22.689  14.545
98649W        W69249  11.291  25.470  12.449
98650W        W69250  20.368  43.826   2.770
98651W        W69251   3.226  29.053  11.994
98652W        W69252  24.691   2.784  11.575
98653W        W69253  27.688   8.336  13.782
98654W        W69254  22.102   5.205   2.382
98655W        W69255   6.965  37.763   0.834
98656W        W69256   5.863  34.082   0.496
98657W        W69257  29.686  28.283  13.300
98658W        W69258  29.500   2.302   4.882
98659W        W69259  34.502  19.267   4.665
98660W        W69260  22.712   7.799  13.384
98661W        W69261  12.665  41.192   4.730
98662W        W69262  19.461  19.526   2.249
98663W        W69263  17.077  11.154   1.423
98664W        W69264  13.796  12.805   4.045
98665W        W69265  43.851  17.851  14.420
98666W        W69266  38.863  28.024  14.075
98667W        W69267  15.392  40.415   2.882
98668W        W69268  40.072  31.541  10.617
98669W        W69269  10.531   8.104  13.194
98670W        W69270  42.265  17.318   3.927
98671W        W69271  13.160   4.260   0.448
98672W        W69272  11.976  29.650   3.745
98673W        W69273  36.038  37.928   1.409
98674W        W69274  43.139  29.906  13.347
98675W        W69275   7.203  15.601  12.552
98676W        W69276  43.502  29.368  14.382
98677W        W69277  22.934  43.186   1.729
98678W        W69278  43.751  40.456  14.785
98679W        W69279  27.565   5.289  12.397
98680W        W69280   2.529   4.517   3.219
98681W        W69281  20.042   2.339  14.081
98682W        W69282  16.316  43.788  11.892
98683W        W69283  30.842  15.067   1.345
98684W        W69284  17.223  39.477  13.141
98685W        W69285  20.602  27.279   3.885
98686W        W69286  32.934   8.258  13.397
98687W        W69287  39.569  17.099  14.335
98688W        W69288  42.914  22.660  11.568
98689W        W69289  31.922  30.602  11.205
98690W        W69290  24.286   8.654   3.275
98691W        W69291  44.537  24.456  11.084
98692W        W69292  24.401  11.123  13.938
98693W        W69293  21.113  41.294   3.258
98694W        W69294  33.322  37.697   1.841
98695W        W69295  14.484   1.553  14.972
98696W        W69296  33.520  23.578   1.850
98697W        W69297  34.484  20.789   2.396
98698W        W69298  23.151  16.250   3.482
98699W        W69299  42.011  18.520  12.962
98700W        W69300   1.304  22.143  12.728
98701W        W69301   6.629  23.804  12.420
98702W        W69302  16.221  26.747   1.406
98703W        W69303  18.740  14.095   3.190
98704W        W69304  27.369  41.768  10.104
98705W        W69305  20.613  11.148  11.627
98706W        W69306  29.304   3.991   0.431
98707W        W69307  34.941   6.559  12.018
98708W        W69308  16.535   5.370   0.465
98709W        W69309  28.613  25.462   4.235
98710W        W69310  16.921  12.607   4.602
98711W        W69311   8.199  26.309  13.877
98712W        W69312   1.641  35.991  10.692
98713W        W69313  39.705  12.534  11.605
98714W        W69314  27.772  10.833  11.614
98715W        W69315  37.279  35.016  11.973
98716W        W69316   8.348  37.302   1.789
98717W        W69317   7.428   2.791  14.956
98718W        W69318  40.950  25.100   4.617
98719W        W69319  40.475  11.292   4.955
98720W        W69320  32.810  40.824   2.361
98721W        W69321  21.771  12.860  14.897
98722W        W69322  13.870  42.327  14.878
98723W        W69323  22.061   1.439  13.027
98724W        W69324  38.799  44.935  14.827
98725W        W69325  44.928   3.247   1.981
98726W        W69326  23.635   3.761  13.914
98727W        W69327  17.323   2.903  13.721
98728W        W69328   4.365  34.098   1.190
98729W        W69329  28.141  11.951  10.225
98730W        W69330  36.639  20.554  14.688
98731W        W69331  12.866  43.288  12.823
98732W        W69332  21.485  12.521   3.763
98733W        W69333  34.833  38.543   1.229
98734W        W69334  22.819  42.537  14.452
98735W        W69335  41.660  37.203  12.891
98736W        W69336  34.588  37.462   4.249
98737W        W69337  39.680  11.419  14.127
98738W        W69338  27.217  38.382  14.031
98739W        W69339  26.512  39.521  10.708
98740W        W69340  10.077  19.202  14.404
98741W        W69341  30.154  44.745   1.343
98742W        W69342  24.428  41.455  10.818
98743W        W69343   2.799  20.630   4.562
98744W        W69344  30.565  23.056   2.167
98745W        W69345  10.798  32.125  11.928
98746W        W69346  38.535  41.996  14.075
98747W        W69347   0.218  44.270  10.548
98748W        W69348  44.257  26.912  11.554
98749W        W69349  12.919  41.253  10.677
98750W        W69350  26.751  38.041   3.960
98751W        W69351  33.873  12.491   3.664
98752W        W69352  27.008  24.162  12.307
98753W        W69353   9.383   4.772   2.757
98754W        W69354  21.924  44.543  11.471
98755W        W69355  14.748  36.804   2.656
98756W        W69356  13.251  37.619   4.237
98757W        W69357  43.871  34.285  14.365
98758W        W69358  40.547  17.988   0.876
98759W        W69359  34.422  15.978  13.762
98760W        W69360  11.442  20.218   3.172
98761W        W69361  15.280  41.520  10.982
98762W        W69362  34.851  44.848   4.669
98763W        W69363   7.315  31.379  14.448
98764W        W69364  30.534  19.707  12.004
98765W        W69365  28.077  22.157   4.196
98766W        W69366  33.987  38.359  11.235
98767W        W69367   2.224  16.293   4.204
98768W        W69368  34.345  44.853  10.615
98769W        W69369   6.821  23.569   4.141
98770W        W69370  32.617  24.754  11.914
98771W        W69371  16.557   1.323  11.449
98772W        W69372  33.968  26.639   0.935
98773W        W69373   0.797  19.110  10.702
98774W        W69374   8.386  11.671  14.920
98775W        W69375   1.397  19.823  14.464
98776W        W69376   6.806  22.317  13.339
98777W        W69377   2.756  24.306   4.044
98778W        W69378  35.368  42.034  14.006
98779W        W69379  19.290   2.244  10.823
98780W        W69380  35.617  42.324   2.313
98781W        W69381  36.001   4.119   0.327
98782W        W69382  27.240  43.894   2.787
98783W        W69383   7.745  15.920  13.112
98784W        W69384  43.949  14.481   3.845
98785W        W69385  27.657  44.126  13.016
98786W        W69386  37.817  29.621  10.631
98787W        W69387   7.474   9.087   3.123
98788W        W69388  28.767  26.520   2.536
98789W        W69389  39.964   2.055   1.412
98790W        W69390  16.704   4.159   3.245
98791W        W69391  15.048  20.018  14.393
98792W        W69392   4.276  11.635  14.942
98793W        W69393  28.640  19.838  11.557
98794W        W69394  15.516  33.476   4.095
98795W        W69395  36.000  35.384   0.481
98796W        W69396  26.485  12.735  12.893
98797W        W69397   1.997  18.252  14.068
98798W        W69398  37.964  26.125  13.913
98799W        W69399  35.261  24.560   4.031
98800W        W69400  35.001   4.480  10.402
98801W        W69401   7.307  38.164  14.480
98802W        W69402   5.587   5.524   2.330
98803W        W69403  10.132  38.314  11.930
98804W        W69404   3.666   2.164   0.834
98805W        W69405  36.952  34.575   4.468
98806W        W69406  40.826  35.055   2.905
98807W        W69407  20.630  38.400   2.756
98808W        W69408  30.448  17.644   1.275
98809W        W69409  19.310  26.027   0.363
98810W        W69410  18.922  30.173  14.316
98811W        W69411  23.236  11.565  13.902
98812W        W69412  21.146   0.746  13.815
98813W        W69413  14.575  31.632  11.266
98814W        W69414  28.064  41.538   1.446
98815W        W69415  41.801  31.081  11.587
98816W        W69416  42.975  43.858   0.248
98817W        W69417  33.159  23.865   0.899
98818W        W69418  32.621  34.558  12.620
98819W        W69419  23.976  27.572  13.526
98820W        W69420   9.788  15.147   1.884
98821W        W69421  40.743  40.028  12.923
98822W        W69422   3.715  42.052   0.668
98823W        W69423  23.243  38.309   1.780
98824W        W69424  34.633   5.236  12.192
98825W        W69425  37.430  21.608   0.925
98826W        W69426  31.390  19.089   2.820
98827W        W69427   0.682  12.671  12.484
98828W        W69428  22.026  29.258  13.313
98829W        W69429  42.999  25.177   0.913
98830W        W69430   2.635  12.170   4.592
98831W        W69431  13.241  39.538  14.555
98832W        W69432  15.091  22.348   1.219
98833W        W69433  14.087  33.673   2.788
98834W        W69434  38.365  34.658   1.950
98835W        W69435   0.055  21.073   4.394
98836W        W69436  44.802   6.816   3.115
98837W        W69437  19.211  25.458  14.328
98838W        W69438  13.805  21.514   3.935
98839W        W69439  42.353  20.621   1.383
98840W        W69440   0.804  18.042  10.761
98841W        W69441   6.681  30.804   2.516
98842W        W69442  14.519  21.747  14.972
98843W        W69443  23.391  38.563   2.234
98844W        W69444   0.273  22.251   4.905
98845W        W69445  40.893   3.805   1.771
98846W        W69446  28.544  14.538   2.185
98847W        W69447  42.822  44.979   1.684
98848W        W69448  29.541  19.478   3.989
98849W        W69449  38.956  23.590   3.429
98850W        W69450  36.340   5.273  11.307
98851W        W69451  15.373  33.948   2.902
98852W        W69452  15.596   1.586  14.927
98853W        W69453  24.049   0.525  14.859
98854W        W69454  20.978  10.260   2.305
98855W        W69455  33.578  23.581   0.940
98856W        W69456  28.465  26.790   2.210
98857W        W69457  39.488  39.493  13.273
98858W        W69458  27.337  21.544  14.708
98859W        W69459  18.346  24.510   4.593
98860W        W69460   9.791  41.093   1.915
98861W        W69461  43.824  19.549  14.989
98862W        W69462   4.608  28.507  11.532
98863W        W69463  31.596   8.303   0.612
98864W        W69464  42.979   2.919  12.455
98865W        W69465  14.397  15.831   2.293
98866W        W69466  12.183  25.659  14.072
98867W        W69467  34.148   3.788  12.332
98868W        W69468  20.823  25.626  10.665
98869W        W69469   0.589  16.592  13.828
98870W        W69470   9.140  35.393  14.748
98871W        W69471  21.198  39.937  11.598
98872W        W69472   1.241  24.096   3.318
98873W        W69473  44.955  29.349   2.329
98874W        W69474  13.536  35.988  10.780
98875W        W69475  28.102   8.713   3.358
98876W        W69476  20.333  43.382   3.194
98877W        W69477  20.306  10.728  14.811
98878W        W69478  44.298  41.027  11.074
98879W        W69479  26.804   1.292   0.064
98880W        W69480  17.913  40.828  12.014
98881W        W69481   1.738  34.327   0.028
98882W        W69482  33.502  42.489   4.840
98883W        W69483  25.678  17.529  11.539
98884W        W69484  30.448  31.082   1.400
98885W        W69485   3.179  22.758   1.904
98886W        W69486  37.808  10.893   4.647
98887W        W69487  26.285  31.899  11.960
98888W        W69488  12.808  43.449  13.337
98889W        W69489  33.851  41.912  13.039
98890W        W69490  37.561  29.302  13.315
98891W        W69491  31.349  43.789   0.359
98892W        W69492  18.175  21.824   4.067
98893W        W69493  28.173   7.237   4.240
98894W        W69494  13.283  42.808   3.884
98895W        W69495  30.400  38.410  11.636
98896W        W69496   2.807  36.303   0.008
98897W        W69497  44.955  12.595  11.089
98898W        W69498  32.191  12.791  14.026
98899W        W69499  10.923  17.673   2.179
98900W        W69500  31.979  44.413   3.600
98901W        W69501  17.398  39.841   4.588
98902W        W69502  37.600  34.643   2.855
98903W        W69503  12.857  15.337   4.684
98904W        W69504  41.621   8.219  12.969
98905W        W69505  23.190  24.693  14.967
98906W        W69506  33.422  20.778   1.319
98907W        W69507  24.971   7.378   3.764
98908W        W69508  41.094  31.490  10.426
98909W        W69509  11.601  31.032   4.400
98910W        W69510  21.796  43.466   0.392
98911W        W69511   9.789  18.495  10.658
98912W        W69512  13.301  15.942  13.332
98913W        W69513   5.319  40.858  11.426
98914W        W69514   8.557  19.184   4.164
98915W        W69515   4.453  14.988   4.055
98916W        W69516  31.110   5.175  14.363
98917W        W69517  24.832  10.178   1.554
98918W        W69518  20.134  31.561   4.461
98919W        W69519  34.584  17.498  13.827
98920W        W69520  18.069  20.033  13.053
98921W        W69521  38.375  23.523   1.431
98922W        W69522   3.720  14.114   1.366
98923W        W69523   4.351  14.168   0.265
98924W        W69524  39.111  10.662  12.864
98925W        W69525  11.658  31.977  14.984
98926W        W69526  42.451  43.172  13.944
98927W        W69527  10.861  17.778  12.546
98928W        W69528   9.806  39.386   4.273
98929W        W69529  13.089  25.266  11.578
98930W        W69530   0.231  26.025  13.761
98931W        W69531  42.505  31.087   0.273
98932W        W69532  15.188  13.637  11.172
98933W        W69533  32.705  18.533  14.748
98934W        W69534  26.376   0.707  14.244
98935W        W69535  13.858  22.114  12.925
98936W        W69536  15.324   3.281   5.145
98937W        W69537  33.451  31.139  13.796
98938W        W69538   1.865  23.105   0.812
98939W        W69539  31.023   8.928  13.488
98940W        W69540  14.745  22.992  12.978
98941W        W69541  27.308   7.194   0.377
98942W        W69542  35.076  29.983  14.815
98943W        W69543  20.686  37.357   2.874
98944W        W69544   2.283   2.765  10.922
98945W        W69545  40.523  44.452   2.039
98946W        W69546   9.305   8.924   1.649
98947W        W69547  21.005  17.306   1.424
98948W        W69548  11.836  12.716  12.347
98949W        W69549   5.962  31.594  11.532
98950W        W69550  26.503  15.801  11.662
98951W        W69551  33.172  37.872   2.807
98952W        W69552  10.646  25.629   2.044
98953W        W69553  38.390   7.604  12.118
98954W        W69554  44.065  20.156   2.761
98955W        W69555  11.206   5.942  12.079
98956W        W69556  23.802  42.315  13.807
98957W        W69557  17.673  40.046   3.220
98958W        W69558  17.853  17.547   1.715
98959W        W69559   1.986  18.962   4.525
98960W        W69560  28.247  10.785  14.656
98961W        W69561  21.908  38.069   0.214
98962W        W69562  22.072  19.858  10.623
98963W        W69563  28.238  25.294   0.232
98964W        W69564  28.931  14.831  13.301
98965W        W69565  18.109  30.100  11.656
98966W        W69566   8.480  27.700   4.984
98967W        W69567  13.903  40.955  13.973
98968W        W69568  10.770  44.037   2.317
98969W        W69569  17.288  20.472   3.362
98970W        W69570  41.301  26.995  11.135
98971W        W69571   2.459  30.680  13.740
98972W        W69572  27.067   3.680   1.298
98973W        W69573  11.787  13.347   2.679
98974W        W69574  15.743   8.831   0.955
98975W        W69575   2.721   5.887  14.957
98976W        W69576  24.793  26.125  11.011
98977W        W69577  11.273  32.844   4.591
98978W        W69578  15.506  25.696  12.613
98979W        W69579  32.947  43.274   3.867
98980W        W69580  17.053  18.668  10.702
98981W        W69581  15.324   9.708  14.488
98982W        W69582   0.837  24.784   1.473
98983W        W69583  20.087  17.468  13.353
98984W        W69584   7.684  11.599  10.700
98985W        W69585  11.338  17.334  11.034
98986W        W69586  34.186  25.723   2.371
98987W        W69587  18.810  11.117   2.280
98988W        W69588  20.946   0.391  12.112
98989W        W69589  25.667  26.626  14.348
98990W        W69590  27.909  14.025  12.085
98991W        W69591  28.015  41.569  11.388
98992W        W69592   6.133  15.803  10.448
98993W        W69593   7.676  21.680  10.704
98994W        W69594  30.983  19.081   0.861
98995W        W69595   2.935  33.615  13.576
98996W        W69596  27.411  30.620  10.708
98997W        W69597   8.276  22.918  14.142
98998W        W69598   9.183  44.921  13.463
98999W        W69599   0.925  33.470   1.956
99000W        W69600  41.030   1.293   0.258
99001W        W69601  21.831  29.514  14.888
99002W        W69602   9.808  27.527   4.489
99003W        W69603  32.349  34.827   0.815
99004W        W69604   4.876  33.100  12.115
99005W        W69605  22.054  37.944  11.411
99006W        W69606   2.586   9.313  13.550
99007W        W69607  17.283   5.137  14.368
99008W        W69608  22.590  21.053  13.908
99009W        W69609  33.025  35.826  13.851
99010W        W69610  38.030   3.698  11.595
99011W        W69611  10.918  40.597   1.809
99012W        W69612  35.045   8.171   0.288
99013W        W69613  21.534  38.989   1.699
99014W        W69614  17.066  13.860   2.463
99015W        W69615  20.802  26.096  10.861
99016W        W69616   6.817  33.537  12.615
99017W        W69617  30.146   4.171   0.720
99018W        W69618  29.192   2.736   4.698
99019W        W69619   2.404  20.091   2.424
99020W        W69620  25.237  33.027  12.661
99021W        W69621  10.404  43.360  13.362
99022W        W69622  26.614  38.825   1.235
99023W        W69623  32.584  42.812   2.719
99024W        W69624  20.076   6.804   2.524
99025W        W69625  42.115  33.383  10.648
99026W        W69626  39.188  42.759  12.849
99027W        W69627  28.229  27.396  14.464
99028W        W69628  34.139  43.381  14.936
99029W        W69629  12.289  14.355   1.446
99030W        W69630   6.019  28.774  13.940
99031W        W69631  18.466  15.890  11.542
99032W        W69632  43.073  39.515   3.125
99033W        W69633  32.170  40.536   3.160
99034W        W69634  13.324  34.514   3.842
99035W        W69635   8.096  16.503  13.959
99036W        W69636  29.079   1.262  14.824
99037W        W69637  25.762  36.305  11.155
99038W        W69638  20.210  36.947  12.812
99039W        W69639  40.677   1.848  10.265
99040W        W69640  22.040  31.062  14.043
99041W        W69641  27.386  37.453  11.372
99042W        W69642  29.052  44.281   2.730
99043W        W69643  19.811   2.170   2.236
99044W        W69644   3.315  23.692  13.340
99045W        W69645  22.158  38.843  10.942
99046W        W69646   0.776   9.147  12.894
99047W        W69647   1.476  31.406  10.648
99048W        W69648  32.078  20.845  13.833
99049W        W69649  14.034  40.895   4.030
99050W        W69650  33.328  30.264  14.581
99051W        W69651  34.897   8.204  12.559
99052W        W69652  17.317  38.106  14.867
99053W        W69653  13.381   3.633  14.348
99054W        W69654  40.332   3.493   4.568
99055W        W69655  37.432   8.558   2.893
99056W        W69656  15.360  22.308   3.724
99057W        W69657  13.494   4.725   0.820
99058W        W69658  17.734  43.547  14.489
99059W        W69659   6.766   6.131   1.795
99060W        W69660  25.255  25.426  12.826
99061W        W69661  32.108   7.172  11.581
99062W        W69662  28.678  11.666   0.421
99063W        W69663  26.481  39.938  10.034
99064W        W69664  43.279   9.461   0.468
99065W        W69665  13.123  28.087  11.110
99066W        W69666  33.097  13.328  11.721
99067W        W69667  31.848  44.045  14.533
99068W        W69668  38.969  32.105  14.797
99069W        W69669  19.495  17.995  11.584
99070W        W69670  29.457  37.810  14.264
99071W        W69671  27.774  21.632   1.779
99072W        W69672  38.684  11.243   0.852
99073W        W69673   4.813  21.387  12.421
99074W        W69674  12.378  30.435  13.906
99075W        W69675   6.790  32.389   3.304
99076W        W69676  43.258  11.304  11.043
99077W        W69677  42.558   9.199  10.739
99078W        W69678   9.152  30.418  13.689
99079W        W69679  36.680   0.916  13.416
99080W        W69680   0.674  37.076  11.064
99081W        W69681  37.817  29.947  12.585
99082W        W69682  34.085  43.703   4.083
99083W        W69683   0.053  13.306   0.632
99084W        W69684  29.535  41.084  14.922
99085W        W69685  18.236  29.860   4.203
99086W        W69686  14.796  39.981  14.490
99087W        W69687  39.394  17.607   3.062
99088W        W69688  44.911  43.265   1.148
99089W        W69689   6.821   8.502   1.234
99090W        W69690  42.405   1.895  13.883
99091W        W69691   7.612  43.108   3.908
99092W        W69692   6.448  13.811   4.738
99093W        W69693   6.271  31.955  13.977
99094W        W69694  25.514   9.258  11.089
99095W        W69695   9.286  33.019   3.893
99096W        W69696  36.786  28.438   0.477
99097W        W69697  23.556  43.215   2.881
99098W        W69698  17.139  38.336   2.583
99099W        W69699  25.432   7.321   0.980
99100W        W69700   5.073  36.014  14.660
99101W        W69701  27.285   9.060   1.930
99102W        W69702   7.655  29.922   4.900
99103W        W69703  20.354   9.523   2.353
99104W        W69704  32.229  42.904   0.767
99105W        W69705   5.175  26.639   4.267
99106W        W69706   1.937   7.397   3.707
99107W        W69707  12.683  34.136   1.393
99108W        W69708  19.063   6.965  14.358
99109W        W69709  38.543  30.566  13.971
99110W        W69710  38.628   0.805   2.645
99111W        W69711   4.939  39.894  12.640
99112W        W69712  18.230  39.402   0.680
99113W        W69713   6.272  39.303  11.531
99114W        W69714  22.138  20.930  10.643
99115W        W69715  43.738  16.287   1.447
99116W        W69716   6.147   5.927   0.802
99117W        W69717  41.539  41.035  12.039
99118W        W69718  38.074   2.219  13.397
99119W        W69719  15.735  26.625   2.697
99120W        W69720  44.694  39.974   1.669
99121W        W69721  28.196   4.591   0.294
99122W        W69722   7.770  20.556  14.717
99123W        W69723  23.502  13.317   1.620
99124W        W69724  22.176  15.256   4.109
99125W        W69725  21.165  36.031   4.549
99126W        W69726   2.996   6.725  14.017
99127W        W69727  16.730   2.943   0.360
99128W        W69728  12.051  35.843  11.125
99129W        W69729   8.185  17.198   4.869
99130W        W69730   6.261   5.287  12.891
99131W        W69731  16.150  32.389   1.623
99132W        W69732  15.595   2.453  12.413
99133W        W69733   4.785  30.687   3.567
99134W        W69734  18.838   9.196   1.212
99135W        W69735   5.207  17.301   0.845
99136W        W69736  35.208  21.192  10.350
99137W        W69737  26.689   3.433   4.937
99138W        W69738   1.275   4.397  13.269
99139W        W69739  24.511  19.178   3.105
99140W        W69740  30.461  25.466  10.684
99141W        W69741  38.123  28.030  11.485
99142W        W69742   0.931  41.170  14.249
99143W        W69743  19.142   6.683  10.382
99144W        W69744  27.963  30.031   4.642
99145W        W69745  37.599  44.810  13.002
99146W        W69746  26.037  25.417   0.077
99147W        W69747  29.911   6.364  11.386
99148W        W69748  43.828  26.047   0.383
99149W        W69749  19.614  22.630   0.993
99150W        W69750  34.210  20.146   3.204
99151W        W69751  37.088   1.827   1.736
99152W        W69752  11.593  18.545  13.960
99153W        W69753  22.151   9.833   0.347
99154W        W69754  36.878  39.441   1.966
99155W        W69755  34.010  14.658  11.863
99156W        W69756   6.296   1.431  14.585
99157W        W69757  22.177   8.330   4.011
99158W        W69758  23.763  36.775   1.218
99159W        W69759  24.523   5.402  14.865
99160W        W69760  15.819  36.063   2.315
99161W        W69761  38.000  36.003  11.934
99162W        W69762  11.434  36.848   3.926
99163W        W69763  36.275  24.296   3.868
99164W        W69764  19.259   4.864   0.768
99165W        W69765  22.593  39.462   4.623
99166W        W69766  27.178  12.707  13.619
99167W        W69767  15.537  14.087   3.231
99168W        W69768  27.449  21.102   1.453
99169W        W69769   1.003  18.759  11.031
99170W        W69770  38.706  26.704  12.572
99171W        W69771  41.481  25.254   3.709
99172W        W69772  11.693  37.631   4.888
99173W        W69773  35.530  12.267  13.953
99174W        W69774  20.554   6.415   3.259
99175W        W69775  41.554  19.418  14.784
99176W        W69776  23.033  44.237   0.887
99177W        W69777  44.734  44.758   3.950
99178W        W69778   6.284  29.483  12.183
99179W        W69779   4.404  31.785  13.065
99180W        W69780   1.818  23.691   3.408
99181W        W69781  39.877  42.787   4.962
99182W        W69782  29.520  33.306  13.306
99183W        W69783  41.256  43.908  12.429
99184W        W69784  17.062  38.961   9.887
99185W        W69785  28.087   9.865  12.618
99186W        W69786  30.872  14.730  14.345
99187W        W69787  13.618  15.076   0.778
99188W        W69788  26.938  15.540  10.794
99189W        W69789  16.635  40.261   1.153
99190W        W69790   0.043  43.333   0.658
99191W        W69791  34.429  34.003   0.266
99192W        W69792  15.177   5.662  11.982
99193W        W69793  21.245  42.342  14.961
99194W        W69794   7.888  31.319   3.921
99195W        W69795  22.063  43.792   3.207
99196W        W69796  17.298  32.445  11.503
99197W        W69797  10.900  44.177  13.544
99198W        W69798   7.856  22.220  13.744
99199W        W69799  16.559  31.635   1.215
99200W        W69800  29.506  32.412  14.077
99201W        W69801  20.280   5.952   3.249
99202W        W69802   8.805   7.387   4.561
99203W        W69803   8.822   5.490  13.049
99204W        W69804  40.330   1.352   4.238
99205W        W69805  31.653   2.846  12.029
99206W        W69806   8.890  17.310  11.598
99207W        W69807  26.745   1.681  12.497
99208W        W69808   4.133   9.429  12.539
99209W        W69809  39.066  34.945  13.786
99210W        W69810  10.667  31.198   4.622
99211W        W69811   3.032  28.501  11.241
99212W        W69812  32.832  27.881  13.585
99213W        W69813  28.559   2.904  12.870
99214W        W69814  30.956  10.260   0.279
99215W        W69815  12.680  27.385   0.018
99216W        W69816  39.077   6.474   2.672
99217W        W69817  44.515  39.502   1.819
99218W        W69818  19.255  35.445   2.551
99219W        W69819  15.503  27.055  13.129
99220W        W69820  37.534  14.528  11.968
99221W        W69821   7.679  32.480  14.461
99222W        W69822  17.134  33.372   4.252
99223W        W69823   8.738   3.976   3.419
99224W        W69824  12.602  24.919   4.170
99225W        W69825  24.896  22.216   0.693
99226W        W69826   2.718   7.880   5.201
99227W        W69827  14.179   4.908   4.622
99228W        W69828  32.276  41.678  10.169
99229W        W69829  10.678  27.158  13.804
99230W        W69830  41.760  38.959  11.131
99231W        W69831  19.956  41.507   5.150
99232W        W69832  10.395   9.756  14.780
99233W        W69833  30.077  32.428   0.251
99234W        W69834  39.348  33.694   3.162
99235W        W69835  29.433  25.034   0.846
99236W        W69836  39.569  35.978  11.991
99237W        W69837  43.514  13.342   0.904
99238W        W69838  23.876  41.978   0.407
99239W        W69839  12.375  39.795   0.739
99240W        W69840  22.924  28.525   1.174
99241W        W69841  14.031  26.019  13.097
99242W        W69842  44.893  17.431  14.530
99243W        W69843  37.036  35.463   4.799
99244W        W69844   7.929  39.172  11.184
99245W        W69845  36.815   2.252  14.571
99246W        W69846   8.459  41.088   1.712
99247W        W69847  32.526  36.165   2.155
99248W        W69848  44.022  10.295  12.838
99249W        W69849  36.156  40.071   4.168
99250W        W69850  32.432   4.238   0.489
99251W        W69851  36.526  29.187   4.137
99252W        W69852  42.531  24.448  12.840
99253W        W69853   2.717  29.441  11.869
99254W        W69854  29.934  43.729   1.350
99255W        W69855  38.903  11.308  12.086
99256W        W69856  17.472  16.160  10.731
99257W        W69857  40.944  21.610  10.470
99258W        W69858  22.975  25.548  13.796
99259W        W69859  41.448   4.405  14.477
99260W        W69860   2.417  26.373  14.310
99261W        W69861  26.050  24.123  11.103
99262W        W69862  42.546  24.587  14.328
99263W        W69863  38.982  42.049   2.328
99264W        W69864  21.554  15.928   4.258
99265W        W69865  31.784   7.341   0.003
99266W        W69866  37.987  33.683  14.853
99267W        W69867   4.710  25.405   2.615
99268W        W69868  37.002  32.315  12.100
99269W        W69869  13.988  41.834  14.746
99270W        W69870  36.999  37.353   1.714
99271W        W69871  26.371  24.613  11.932
99272W        W69872  43.973  30.972  12.931
99273W        W69873  38.008  43.790  14.896
99274W        W69874  27.871   7.676  11.162
99275W        W69875  43.694   6.430   1.289
99276W        W69876  37.936  18.167   3.696
99277W        W69877  40.797   6.303   2.147
99278W        W69878   5.000   3.874   3.223
99279W        W69879   6.376  30.584   2.137
99280W        W69880   2.875  31.694  12.481
99281W        W69881  22.101  22.418  11.639
99282W        W69882  33.372  37.466   3.066
99283W        W69883  27.976  43.396   3.149
99284W        W69884  39.801  15.637  12.420
99285W        W69885  11.476  11.738  10.615
99286W        W69886   5.746  33.483   2.708
99287W        W69887   7.595  17.383  14.597
99288W        W69888  42.752  28.090  11.911
99289W        W69889  20.786   1.671   4.595
99290W        W69890  33.527  41.513   4.463
99291W        W69891  20.051  33.670   3.016
99292W        W69892   5.947  35.553   3.605
99293W        W69893  36.506   8.924  12.537
99294W        W69894  38.110   9.260   4.843
99295W        W69895  37.430  44.328   2.885
99296W        W69896  34.784  14.329   0.719
99297W        W69897  44.749  33.813   1.223
99298W        W69898  18.843  16.608   4.827
99299W        W69899  19.713  40.014   2.722
99300W        W69900  29.432  14.802  11.102
99301W        W69901  22.594  25.335  14.077
99302W        W69902   6.476  43.447  10.836
99303W        W69903  11.841  40.671  11.728
99304W        W69904  25.023   5.456   4.073
99305W        W69905  33.253  44.868  14.139
99306W        W69906  43.720  16.201  11.105
99307W        W69907   7.769  25.427   4.996
99308W        W69908  12.645  24.646  10.609
99309W        W69909  44.039  23.506  14.905
99310W        W69910  10.763   6.719   1.753
99311W        W69911   5.427  22.952   2.143
99312W        W69912  40.985  35.625  12.004
99313W        W69913  26.383   5.706  11.933
99314W        W69914  27.508   5.373   1.168
99315W        W69915  23.636  32.727  11.569
99316W        W69916  43.629  37.478  14.464
99317W        W69917   0.439  32.385  10.275
99318W        W69918  34.389  23.591  14.898
99319W        W69919  43.290  33.857   0.712
99320W        W69920  12.824   3.612   4.186
99321W        W69921  28.984  40.444  12.482
99322W        W69922   4.333  40.510   3.748
99323W        W69923  18.947   8.295   2.013
99324W        W69924  42.898   0.057   2.679
99325W        W69925  43.002  39.799   1.335
99326W        W69926  24.186   8.260  14.284
99327W        W69927  16.602  39.870  14.962
99328W        W69928  38.762  25.700  13.467
99329W        W69929   5.874   7.901   2.141
99330W        W69930  14.893  33.905  13.324
99331W        W69931  23.812  36.949  11.029
99332W        W69932  43.348   7.369  11.205
99333W        W69933   8.208  40.250  13.430
99334W        W69934   4.503   1.788  14.904
99335W        W69935  34.156   5.258   4.271
99336W        W69936  17.064  10.250   0.434
99337W        W69937  38.423  25.536  10.395
99338W        W69938  18.914  28.177  11.162
99339W        W69939  13.569  22.667   1.775
99340W        W69940  12.698  27.004  12.532
99341W        W69941  42.954  18.155   4.152
99342W        W69942  11.618  33.404   9.986
99343W        W69943   4.209  13.128   2.120
99344W        W69944  18.126  32.293   5.060
99345W        W69945  16.715  24.044  10.969
99346W        W69946   9.807  40.071   1.744
99347W        W69947   2.384   7.077  10.374
99348W        W69948   9.342  17.671   0.948
99349W        W69949  27.572  15.918   4.083
99350W        W69950  37.026  26.916   2.779
99351W        W69951  15.842  43.452  12.598
99352W        W69952  18.581  25.217  12.607
99353W        W69953   7.236   9.159   3.589
99354W        W69954  37.486  20.608  14.478
99355W        W69955  21.042  37.026  11.603
99356W        W69956  41.088   4.258   0.811
99357W        W69957  20.943  40.730   1.309
99358W        W69958  22.718  28.173  12.088
99359W        W69959   3.800  35.577   0.666
99360W        W69960  11.783   0.636   3.587
99361W        W69961  15.845  39.413  12.091
99362W        W69962  25.771   2.649  12.420
99363W        W69963  37.088  15.399  13.436
99364W        W69964   5.796  27.925   1.372
99365W        W69965  24.670   2.989  14.907
99366W        W69966  23.945  10.457   0.755
99367W        W69967  30.048  19.973   0.775
99368W        W69968  39.714  44.061  11.249
99369W        W69969  41.846  11.574  12.975
99370W        W69970  36.338  24.874   1.638
99371W        W69971   8.134  26.966  11.052
99372W        W69972   9.456  33.449   3.246
99373W        W69973  15.805  15.265   0.403
99374W        W69974  13.000  32.669   3.501
99375W        W69975  27.962  38.396  10.170
99376W        W69976  28.621  43.947   2.146
99377W        W69977  28.414  11.485  13.082
99378W        W69978   0.696  14.840   1.318
99379W        W69979  25.149  15.762   5.207
99380W        W69980  34.053   2.242   3.335
99381W        W69981  25.186  39.578  13.400
99382W        W69982  19.205  33.635  10.487
99383W        W69983  43.326  16.563   4.492
99384W        W69984  16.500  17.113   2.834
99385W        W69985  10.229  31.220   4.969
99386W        W69986  23.225  31.027  12.528
99387W        W69987  22.647   7.320   0.175
99388W        W69988   8.841   0.876   0.871
99389W        W69989  10.600  18.199  11.938
99390W        W69990  40.008  18.856  12.260
99391W        W69991  13.201  33.942  12.906
99392W        W69992  34.155   7.864   3.646
99393W        W69993  14.165  10.341   0.428
99394W        W69994   7.788   6.521  11.172
99395W        W69995  31.578  27.198   0.177
99396W        W69996  19.579  17.228   1.720
99397W        W69997  10.999  24.530   0.258
99398W        W69998  34.773  40.995   2.236
99399W        W69999   0.088  13.229  10.353
99400W        W70000  26.045  33.125   4.515
99401W        W70001  36.106  13.798   1.911
99402W        W70002  38.790   8.328  14.405
99403W        W70003   2.728   4.347   2.203
99404W        W70004   9.602  20.138   1.443
99405W        W70005  17.623  20.619  12.083
99406W        W70006  37.148   1.833  14.480
99407W        W70007  17.413  10.389  11.741
99408W        W70008  44.941  36.792   0.830
99409W        W70009   3.504   6.289   0.634
99410W        W70010  28.613  24.915   1.739
99411W        W70011  32.081  28.066  12.022
99412W        W70012  26.580  15.432   4.768
99413W        W70013  26.181  25.928  13.820
99414W        W70014   0.750  29.058  12.070
99415W        W70015   2.166  17.694  13.306
99416W        W70016  13.101  12.095   2.546
99417W        W70017   0.265  10.514   0.311
99418W        W70018   9.674  34.332  11.690
99419W        W70019  40.416  28.468   0.228
99420W        W70020  32.656  37.609  14.448
99421W        W70021  36.208   1.502   4.963
99422W        W70022  26.938  33.144  10.498
99423W        W70023  12.326   6.581  11.212
99424W        W70024  33.851  12.022   1.424
99425W        W70025   8.248  11.121  12.892
99426W        W70026   6.664  34.754   3.387
99427W        W70027  29.895  16.839  10.487
99428W        W70028  28.661  10.478   0.015
99429W        W70029  10.170  13.171  11.187
99430W        W70030   7.929   4.834   0.571
99431W        W70031  42.527  27.888   3.720
99432W        W70032  40.832   6.704   0.463
99433W        W70033   2.194  15.721   0.814
99434W        W70034  11.913  29.052   0.915
99435W        W70035   5.899  40.795  11.174
99436W        W70036  43.039  39.445   0.802
99437W        W70037   3.296  34.049  10.307
99438W        W70038   2.376  32.212  14.607
99439W        W70039  15.317  32.067   0.802
99440W        W70040  35.684  13.164   0.807
99441W        W70041  43.278  41.818   1.892
99442W        W70042   9.507  11.281  12.639
99443W        W70043  12.296  27.116  13.301
99444W        W70044   3.448  41.908   2.183
99445W        W70045  12.134  11.795  12.502
99446W        W70046  11.716  17.490  11.626
99447W        W70047  23.765  10.967   0.012
99448W        W70048   5.594  34.348   1.849
99449W        W70049   4.807  16.123   2.163
99450W        W70050  38.424  27.098   2.803
99451W        W70051  18.340  11.233  11.569
99452W        W70052  20.123   2.757   1.195
99453W        W70053  44.906  35.797  12.636
99454W        W70054  24.700  31.133   0.823
99455W        W70055  22.506  41.384   1.624
99456W        W70056  19.558  33.658  12.107
99457W        W70057  43.383  40.317   4.235
99458W        W70058  20.106  13.924   4.636
99459W        W70059   7.786  20.691   0.627
99460W        W70060  39.475  38.080   2.223
99461W        W70061  30.018  28.385  10.820
99462W        W70062  26.159   2.777  12.854
99463W        W70063  38.530  39.597   3.239
99464W        W70064  10.056   3.661   4.772
99465W        W70065  33.542  43.383  12.498
99466W        W70066  31.446   3.003  11.069
99467W        W70067  22.133  21.147  13.335
99468W        W70068  39.557  41.536   4.741
99469W        W70069  41.337  29.948   2.084
99470W        W70070  15.548  11.876   0.467
99471W        W70071   5.212  38.042   1.305
99472W        W70072  15.963   1.965   2.803
99473W        W70073  12.923  29.206  13.853
99474W        W70074  15.733  18.702   1.046
99475W        W70075  34.604   3.359   1.287
99476W        W70076  20.529  15.643  14.369
99477W        W70077  12.563  25.948  11.862
99478W        W70078  29.588  26.663  14.783
99479W        W70079  29.546  43.961   2.202
99480W        W70080   0.509   2.743   0.607
99481W        W70081   6.561  19.217  13.879
99482W        W70082  14.380  35.840   1.304
99483W        W70083  15.757  15.096  11.693
99484W        W70084   9.559  24.228  14.715
99485W        W70085  40.447  19.026   2.180
99486W        W70086   1.405   3.650   1.763
99487W        W70087  33.950  18.600  10.976
99488W        W70088  28.074   9.439   2.881
99489W        W70089  18.590  44.291  11.583
99490W        W70090  36.895  43.077  13.793
99491W        W70091  11.811  44.920  13.137
99492W        W70092   1.547   0.269   2.080
99493W        W70093   0.522  39.868  14.345
99494W        W70094  16.230  14.869  11.823
99495W        W70095   8.072  43.495  12.937
99496W        W70096  32.446  32.605  10.799
99497W        W70097  40.045  30.991  14.132
99498W        W70098  31.392  42.827  12.203
99499W        W70099  43.353   6.411   2.611
99500W        W70100  37.764  17.806   0.875
99501W        W70101  18.011   9.850   2.312
99502W        W70102  15.790  38.923  12.432
99503W        W70103  13.508  24.384  10.136
99504W        W70104   4.324  42.079   3.298
99505W        W70105  15.894  27.603   4.271
99506W        W70106  37.447  26.219  13.460
99507W        W70107  25.660  28.731  10.778
99508W        W70108   8.123  43.413  12.043
99509W        W70109  39.136  35.961   9.834
99510W        W70110  36.676  10.751  14.786
99511W        W70111  25.710  16.589   1.268
99512W        W70112  44.336  31.092  11.908
99513W        W70113  42.321  15.032  14.462
99514W        W70114   6.289  25.207   0.545
99515W        W70115  35.078  44.047   2.310
99516W        W70116  12.349   4.393  12.467
99517W        W70117  25.041   6.331   2.144
99518W        W70118   1.396   9.260   2.876
99519W        W70119   0.256  15.813   2.771
99520W        W70120  17.355  19.660   2.739
99521W        W70121  24.038  39.888   0.302
99522W        W70122  26.358  33.382   1.263
99523W        W70123  43.336  35.328   0.308
99524W        W70124  24.050  13.352  12.184
99525W        W70125   4.387   7.450   2.703
99526W        W70126   2.372   4.302  11.084
99527W        W70127  34.415  38.969   0.035
99528W        W70128  20.533  40.387  13.445
99529W        W70129   9.077   5.533  13.514
99530W        W70130  38.505  20.326   3.787
99531W        W70131  44.316  19.520  14.728
99532W        W70132  24.179   1.394   2.774
99533W        W70133  16.719  26.190  13.088
99534W        W70134  38.786  19.764   1.297
99535W        W70135  38.940  11.256  13.566
99536W        W70136  19.652  22.995   0.461
99537W        W70137   5.007  38.331   4.598
99538W        W70138   4.826  25.493  11.110
99539W        W70139  37.320  27.190   3.118
99540W        W70140  11.044  31.566   3.264
99541W        W70141  17.778  26.646   0.437
99542W        W70142  12.128   4.733   2.654
99543W        W70143  13.273  33.387  11.108
99544W        W70144  23.495   3.648   1.885
99545W        W70145  24.149  28.085   1.609
99546W        W70146  15.302   6.480  14.644
99547W        W70147  12.587  39.424  12.872
99548W        W70148  18.784  16.989  12.528
99549W        W70149   0.956  16.148  13.115
99550W        W70150  28.499   0.186   3.422
99551W        W70151   6.766  18.252  10.711
99552W        W70152  34.097   6.596  11.589
99553W        W70153  21.997  31.075   1.766
99554W        W70154  30.204  30.491   4.136
99555W        W70155  27.945  27.178   4.901
99556W        W70156  37.897  11.646  13.506
99557W        W70157  43.950  44.361  14.990
99558W        W70158   7.176  25.472  13.803
99559W        W70159  31.170   1.487  10.642
99560W        W70160  21.498  33.579  12.611
99561W        W70161  42.698  37.047  14.663
99562W        W70162  23.025  29.212  11.453
99563W        W70163   6.331   6.275  14.825
99564W        W70164  40.972  25.971   0.281
99565W        W70165  40.578   9.833   0.936
99566W        W70166  32.956  34.890   3.934
99567W        W70167   3.296  27.282  12.365
99568W        W70168  33.718  40.904   5.040
99569W        W70169  20.066  33.307  10.546
99570W        W70170   5.425  22.567  14.411
99571W        W70171   4.345   3.140   1.250
99572W        W70172  11.406  36.725  10.678
99573W        W70173   3.765  21.739   3.696
99574W        W70174  29.190  21.971  13.941
99575W        W70175  44.083  19.219   0.292
99576W        W70176  21.268  20.023  13.879
99577W        W70177   2.429  22.772   2.946
99578W        W70178  23.949   1.161   5.020
99579W        W70179  31.881  15.131  13.500
99580W        W70180  39.995  27.242   3.341
99581W        W70181   7.926  26.762   9.759
99582W        W70182  10.621  36.836   1.936
99583W        W70183  41.206  17.494   0.319
99584W        W70184  30.121  22.441  11.819
99585W        W70185   3.039  17.601   0.311
99586W        W70186   3.884  13.649  11.629
99587W        W70187  29.092  24.229   4.386
99588W        W70188  40.896  18.364   0.966
99589W        W70189  10.787   3.474   1.885
99590W        W70190  15.556   3.227   0.931
99591W        W70191   4.469  32.904   0.736
99592W        W70192  23.059  15.925  13.825
99593W        W70193  40.422  17.956  14.770
99594W        W70194  35.129  39.834   1.728
99595W        W70195  21.240  31.535   0.783
99596W        W70196  24.064  15.247   4.244
99597W        W70197  35.289  37.775  11.133
99598W        W70198   1.299  25.486   0.075
99599W        W70199  38.893  12.134  12.448
99600W        W70200  28.180  22.114  11.676
99601W        W70201  17.463  26.015  14.459
99602W        W70202  26.909  27.936  14.802
99603W        W70203   6.943   0.262   3.364
99604W        W70204  18.337   4.863   4.085
99605W        W70205   1.808   7.839  13.290
99606W        W70206   8.902  12.170  14.386
99607W        W70207  32.678  21.606  11.649
99608W        W70208  41.882  31.721   4.157
99609W        W70209  40.861  39.370   3.648
99610W        W70210  33.375  17.033  10.219
99611W        W70211  33.635  12.280   0.681
99612W        W70212  16.269  18.524  14.458
99613W        W70213  10.641  10.798   1.778
99614W        W70214  20.213  13.939  14.860
99615W        W70215  37.838  40.225  13.900
99616W        W70216   9.614  10.903   3.231
99617W        W70217  12.718   3.347  11.647
99618W        W70218   9.650   8.413  10.541
99619W        W70219  15.610   3.367   4.315
99620W        W70220   6.358  27.527  12.492
99621W        W70221  43.159  30.495   4.281
99622W        W70222  26.113  14.611   0.793
99623W        W70223  30.567  35.434   1.972
99624W        W70224  14.334   7.173   2.282
99625W        W70225   6.696  25.501  11.133
99626W        W70226  25.398   7.373  10.222
99627W        W70227   4.484  24.520   2.819
99628W        W70228  22.986  35.422   4.083
99629W        W70229  27.390   4.810   3.237
99630W        W70230  33.845  14.811  12.855
99631W        W70231  26.581  22.585  11.021
99632W        W70232  35.979  38.081   2.525
99633W        W70233  24.724  35.886  11.230
99634W        W70234   7.159  17.211  10.899
99635W        W70235  32.842  21.682  13.009
99636W        W70236  24.713  32.859   1.729
99637W        W70237  34.884  33.100  10.790
99638W        W70238  13.487  26.799  10.398
99639W        W70239   7.977  13.122  12.087
99640W        W70240   0.706  12.272  13.128
99641W        W70241  30.909  19.478  11.385
99642W        W70242  20.051  32.952   1.373
99643W        W70243  26.245   0.900   2.955
99644W        W70244  28.009   0.581   3.129
99645W        W70245  40.797   9.215  14.563
99646W        W70246  28.404  26.944  14.215
99647W        W70247  30.252  33.615   0.381
99648W        W70248  34.654  20.714   3.260
99649W        W70249  37.110   6.812   4.893
99650W        W70250  16.999   7.294   4.401
99651W        W70251  12.485   8.337   0.405
99652W        W70252  10.791  10.944   1.280
99653W        W70253   4.249  31.042  13.942
99654W        W70254  11.708  13.169  14.229
99655W        W70255  41.092  24.700  12.438
99656W        W70256  29.586  37.260   0.680
99657W        W70257   0.766  36.389   3.221
99658W        W70258  37.106  12.133  11.931
99659W        W70259  32.391  21.175  10.308
99660W        W70260  14.003  10.828  10.998
99661W        W70261  29.039  13.285  14.999
99662W        W70262  30.515  27.585  12.438
99663W        W70263  23.679   4.949   0.015
99664W        W70264  23.996  21.940   4.086
99665W        W70265  22.102   3.468  14.976
99666W        W70266  16.801   2.175  14.797
99667W        W70267  15.607  44.875   0.786
99668W        W70268  11.260   2.989   0.357
99669W        W70269  37.986   2.445   4.704
99670W        W70270  21.499  21.227   2.784
99671W        W70271  36.605  40.370   3.886
99672W        W70272  41.445   3.561   9.885
99673W        W70273   8.742  41.874   0.261
99674W        W70274  17.283  44.187  11.511
99675W        W70275  32.762   9.964  10.801
99676W        W70276   7.667   8.445  13.453
99677W        W70277  18.654   1.721  10.571
99678W        W70278  13.113  27.530   2.366
99679W        W70279   0.026   5.560   4.264
99680W        W70280   5.464  16.707  11.388
99681W        W70281  44.541  27.771  12.015
99682W        W70282  19.508  42.782  11.549
99683W        W70283   1.930  11.182  13.928
99684W        W70284  19.272  21.009   3.824
99685W        W70285  31.535  42.018   1.479
99686W        W70286  27.700  20.932   3.177
99687W        W70287  25.086  38.290   4.234
99688W        W70288   5.361  20.971  12.073
99689W        W70289  38.406  17.675  12.694
99690W        W70290  32.054  27.216   4.079
99691W        W70291  20.070   1.696   2.261
99692W        W70292   7.357  26.483  10.364
99693W        W70293  37.723  42.172   0.873
99694W        W70294  36.071  30.009   2.772
99695W        W70295  37.188  28.922  13.560
99696W        W70296   9.726   5.903   3.200
99697W        W70297   0.231   9.482   0.283
99698W        W70298  26.667  14.644   1.525
99699W        W70299   6.597  16.657   3.365
99700W        W70300  19.648  44.307  10.576
99701W        W70301  20.772  22.128   2.785
99702W        W70302  13.611  25.563   0.917
99703W        W70303  27.854  41.921  14.057
99704W        W70304  27.329   3.423   3.050
99705W        W70305  31.072  36.443   3.206
99706W        W70306  12.258  11.569   3.374
99707W        W70307  30.918   4.291  13.360
99708W        W70308  17.861  24.363  11.947
99709W        W70309  23.270  44.135  11.265
99710W        W70310   6.119  16.363  13.339
99711W        W70311  31.401  32.921  14.426
99712W        W70312  12.903  14.085   4.699
99713W        W70313   5.693  38.967   2.495
99714W        W70314  33.514  15.617   2.187
99715W        W70315  24.733  24.239   2.616
99716W        W70316  20.728  20.401  12.387
99717W        W70317  11.346  32.964  13.164
99718W        W70318  35.860   0.130  13.426
99719W        W70319   2.820   4.709   4.880
99720W        W70320   4.812  14.566   0.031
99721W        W70321   1.692  10.701   1.768
99722W        W70322   3.181  31.104   3.719
99723W        W70323  20.207  39.246  14.359
99724W        W70324  19.040   5.536  11.091
99725W        W70325   0.675  14.156   3.317
99726W        W70326  43.892  24.730  12.860
99727W        W70327  28.290   3.472   4.090
99728W        W70328  43.178   5.001   2.223
99729W        W70329  43.074   5.262  11.583
99730W        W70330  29.294  34.748  10.143
99731W        W70331  26.112  32.807   1.741
99732W        W70332  25.950  44.239  13.229
99733W        W70333  24.099   5.338   2.636
99734W        W70334  14.543  35.180  11.909
99735W        W70335  32.451  36.973  13.416
99736W        W70336  40.312  25.589  11.424
99737W        W70337  21.237  44.753   3.584
99738W        W70338  14.139  23.953  10.968
99739W        W70339  26.471  18.353  13.503
99740W        W70340  35.828  21.030   3.823
99741W        W70341  13.589  15.593   2.724
99742W        W70342  37.849  22.008   4.768
99743W        W70343  28.612  36.490   2.154
99744W        W70344  21.109   0.563   0.881
99745W        W70345  14.711  21.255   0.795
99746W        W70346  15.757  10.311  14.864
99747W        W70347  13.777   2.158   2.310
99748W        W70348  26.390  41.420  12.116
99749W        W70349  44.441  19.649   3.947
99750W        W70350  22.052  29.231  10.925
99751W        W70351  37.539  41.540   0.245
99752W        W70352  12.136  41.079   0.299
99753W        W70353   1.876  16.642  14.797
99754W        W70354   3.972  19.263   2.334
99755W        W70355  28.320  19.206   3.692
99756W        W70356  20.641   9.867   4.487
99757W        W70357  17.118  35.438   4.768
99758W        W70358   2.497  40.340  11.773
99759W        W70359  19.041  39.579   0.739
99760W        W70360   7.284  34.960   4.147
99761W        W70361  25.709  14.656  12.167
99762W        W70362   0.504  20.237  11.577
99763W        W70363  43.064   7.745   1.768
99764W        W70364  41.879   4.929  12.437
99765W        W70365  24.999   7.743  10.913
99766W        W70366  19.371  40.422  11.088
99767W        W70367   1.813  10.440  14.358
99768W        W70368  17.658   6.649  11.474
99769W        W70369   8.167  14.487   2.545
99770W        W70370   3.775  10.382  12.107
99771W        W70371  39.401  17.426   2.599
99772W        W70372   5.713  37.909   4.817
99773W        W70373  44.309   6.737  14.378
99774W        W70374  26.140  21.478  13.889
99775W        W70375  35.652  27.963   2.354
99776W        W70376   5.931  24.335   4.261
99777W        W70377  18.910   2.704   3.512
99778W        W70378  39.275  42.523  11.433
99779W        W70379  33.585   5.706  14.489
99780W        W70380  38.190  34.531   0.399
99781W        W70381   0.704   2.833   4.660
99782W        W70382   5.178  43.322  11.096
99783W        W70383  37.051  21.294  13.103
99784W        W70384  15.785  14.168  12.944
99785W        W70385   7.176  34.105   2.776
99786W        W70386  11.622   0.621   2.263
99787W        W70387   7.889   3.671  10.492
99788W        W70388  12.168  19.332  11.150
99789W        W70389  34.300  28.972   1.849
99790W        W70390  28.142  42.579  11.073
99791W        W70391  35.617  32.882  10.742
99792W        W70392  19.305  26.608   2.272
99793W        W70393  42.457  25.128  14.458
99794W        W70394  31.458  11.490   0.580
99795W        W70395   2.960  12.644  14.870
99796W        W70396  17.689  42.048  13.445
99797W        W70397   7.290  27.453  12.080
99798W        W70398   3.026  27.723  14.121
99799W        W70399   6.067  30.534  11.906
99800W        W70400  35.196  28.596  10.573
99801W        W70401  15.733  23.515   0.001
99802W        W70402   8.689  19.829   3.331
99803W        W70403  14.737   9.797   3.574
99804W        W70404   8.053  33.353   1.461
99805W        W70405  23.469   1.598  14.322
99806W        W70406   8.686   5.325   0.400
99807W        W70407  29.497  14.883  11.933
99808W        W70408   2.770  16.566  11.613
99809W        W70409  39.862  36.105  14.241
99810W        W70410  42.896  12.249  13.328
99811W        W70411   1.380  10.772   3.615
99812W        W70412  14.610  37.457  13.658
99813W        W70413  22.221   9.204  11.760
99814W        W70414  25.083  35.673   2.197
99815W        W70415  39.780  43.908  14.752
99816W        W70416  28.668   0.780  14.564
99817W        W70417   0.167   5.045   0.703
99818W        W70418  28.089  36.846  10.126
99819W        W70419   7.593  41.835  14.332
99820W        W70420   8.476  34.081   1.899
99821W        W70421  17.204  22.578   0.207
99822W        W70422  38.148   9.264  10.772
99823W        W70423  18.545   2.475   0.357
99824W        W70424  26.668  12.140   1.597
99825W        W70425  10.151   7.937   2.792
99826W        W70426  26.350  11.710  10.822
99827W        W70427  17.784   5.131  12.146
99828W        W70428  40.476   7.640   5.050
99829W        W70429  44.370  41.951  12.297
99830W        W70430  36.634  24.917  14.457
99831W        W70431  43.381  30.681   3.258
99832W        W70432  33.797  25.271  13.386
99833W        W70433   2.744  38.635   4.851
99834W        W70434  37.968   4.222   3.298
99835W        W70435  36.991  30.676  11.097
99836W        W70436   6.143  43.336  12.062
99837W        W70437  19.076   2.804   1.296
99838W        W70438  26.242  39.585   3.294
99839W        W70439  20.766  31.433  10.679
99840W        W70440  28.632  26.378   3.043
99841W        W70441   3.776  32.871   3.423
99842W        W70442  37.098  11.643   1.816
99843W        W70443   8.415  30.001   3.714
99844W        W70444  28.102  31.510   3.635
99845W        W70445  10.168  20.305   4.158
99846W        W70446  11.445   0.905  10.708
99847W        W70447  40.859   6.631   3.335
99848W        W70448  39.851   8.464   0.639
99849W        W70449  34.916  36.850   0.370
99850W        W70450  22.571  25.937   1.272
99851W        W70451   8.405  21.674  11.109
99852W        W70452  31.647  13.252   0.412
99853W        W70453  24.738  31.714  11.178
99854W        W70454   4.171  20.256  12.501
99855W        W70455  35.322  43.719  14.252
99856W        W70456  32.096  22.977   4.690
99857W        W70457  19.596   8.115   0.899
99858W        W70458  21.225  38.349   3.257
99859W        W70459  29.360  15.581  10.668
99860W        W70460  38.883  15.434   2.611
99861W        W70461  11.855  27.656   1.246
99862W        W70462  41.945  23.976   1.346
99863W        W70463   5.778  17.284   2.223
99864W        W70464  28.850  39.513   3.678
99865W        W70465  19.141  19.261  10.720
99866W        W70466   6.935  44.417   2.854
99867W        W70467  30.198  41.351  14.885
99868W        W70468  32.630  21.252  12.838
99869W        W70469   6.909   6.387   2.906
99870W        W70470  28.619  29.092   0.968
99871W        W70471  11.117  32.839  11.468
99872W        W70472   1.162  37.959  11.037
99873W        W70473  30.023  20.169  10.768
99874W        W70474  13.678  17.462  12.559
99875W        W70475  43.235  17.791  14.800
99876W        W70476  36.993   3.999  13.383
99877W        W70477  32.098  12.468  12.392
99878W        W70478   8.222  13.175  14.021
99879W        W70479  12.578  15.946   0.534
99880W        W70480   7.605  23.196   0.216
99881W        W70481  44.785  38.912  10.610
99882W        W70482  44.697  31.956   4.257
99883W        W70483  25.697  30.873  13.896
99884W        W70484  20.779  23.259   2.682
99885W        W70485   8.224  26.762   3.274
99886W        W70486  21.705   1.769  12.108
99887W        W70487  37.372  40.859  11.591
99888W        W70488   3.448  42.252  12.837
99889W        W70489  38.834  24.565   0.035
99890W        W70490   5.067  30.552   3.077
99891W        W70491  40.870  14.385  14.437
99892W        W70492  32.482  38.103  14.311
99893W        W70493   3.365   4.147   3.146
99894W        W70494  32.476  17.541   2.324
99895W        W70495   8.032  38.051  11.970
99896W        W70496  26.774  16.251   3.808
99897W        W70497   6.703  24.739  12.512
99898W        W70498  10.615  29.950  13.347
99899W        W70499  18.864   4.982   4.105
99900W        W70500  12.313  34.582   3.605
99901W        W70501   6.723  32.909  12.594
99902W        W70502  16.108  16.166   2.264
99903W        W70503  18.836  27.940  12.449
99904W        W70504  13.853   5.272  14.744
99905W        W70505  14.561  13.230   0.741
99906W        W70506  36.609  16.385  14.466
99907W        W70507  13.225  14.062  13.496
99908W        W70508  15.254  10.407   4.614
99909W        W70509  11.272  36.848  13.362
99910W        W70510  22.300  34.785  13.703
99911W        W70511   8.853  23.927  10.633
99912W        W70512  27.964  36.215  11.615
99913W        W70513  42.637  37.633  13.235
99914W        W70514  27.527  33.432   2.303
99915W        W70515  43.367  36.141  11.160
99916W        W70516  40.005  38.237   2.206
99917W        W70517  32.788  43.130  14.887
99918W        W70518   0.039  12.562  14.420
99919W        W70519  43.227  39.993   3.172
99920W        W70520  43.804   5.772   0.696
99921W        W70521  23.581  26.360  13.601
99922W        W70522   2.180  11.679  12.558
99923W        W70523   4.274  40.619  10.555
99924W        W70524   7.588  15.078  11.739
99925W        W70525  44.861  27.981   3.740
99926W        W70526  14.125  14.333   2.382
99927W        W70527  21.112  22.720   2.316
99928W        W70528  18.527  11.872  12.063
99929W        W70529  42.720  39.189  13.519
99930W        W70530  27.186  20.181  13.578
99931W        W70531  22.820  12.131   1.350
99932W        W70532  43.745   8.729   3.386
99933W        W70533  32.973  38.405  13.710
99934W        W70534  23.190  29.050  13.850
99935W        W70535  38.726   5.192   4.117
99936W        W70536  38.749  19.182   9.734
99937W        W70537  36.369  43.490  14.406
99938W        W70538  38.349  24.612  11.497
99939W        W70539  24.536  22.076   1.853
99940W        W70540  35.625  31.415  13.846
99941W        W70541  10.862  21.999  11.173
99942W        W70542  30.101  41.791   1.221
99943W        W70543  19.043  16.264  12.802
99944W        W70544  31.610  41.307  13.063
99945W        W70545  18.430  44.068   0.876
99946W        W70546  17.963  25.030  10.236
99947W        W70547  33.041  12.327  10.862
99948W        W70548  17.025  37.254  12.130
99949W        W70549   1.802  37.751   0.650
99950W        W70550  33.068  34.397   2.286
99951W        W70551  16.873   7.619  12.543
99952W        W70552  43.482  33.292   4.671
99953W        W70553  21.777  11.304  13.006
99954W        W70554  25.903  16.672   2.919
99955W        W70555  23.586  16.155   1.094
99956W        W70556   0.891  24.884  11.648
99957W        W70557   2.491   0.817   0.329
99958W        W70558   9.437   3.278   3.233
99959W        W70559  23.874  31.361  12.035
99960W        W70560   9.146  43.373   1.803
99961W        W70561  28.523   0.386  13.675
99962W        W70562  14.148   4.384   4.691
99963W        W70563  29.848   8.839   2.821
99964W        W70564  19.321  29.074  11.179
99965W        W70565  19.304  44.023   1.768
99966W        W70566  37.082  37.375   4.015
99967W        W70567  42.722  32.159  10.543
99968W        W70568  16.921  27.102   2.984
99969W        W70569  25.257   2.736  12.351
99970W        W70570  44.386  12.900  13.056
99971W        W70571  35.350   1.959   3.134
99972W        W70572  18.930  24.220  14.863
99973W        W70573  13.570  40.694   3.156
99974W        W70574  13.339  37.111   3.881
99975W        W70575  16.805  29.608  10.905
99976W        W70576  25.702  25.997   4.602
99977W        W70577   6.616  30.445  11.983
99978W        W70578   4.820  12.381  12.937
99979W        W70579  27.470  22.484   1.208
99980W        W70580  26.915   9.677   2.397
99981W        W70581  29.465  39.366   9.876
99982W        W70582  27.617  10.642   2.921
99983W        W70583  25.676  22.995  11.982
99984W        W70584  43.900  36.249   3.666
99985W        W70585  38.111  25.945  12.562
99986W        W70586   8.192  27.639   2.847
99987W        W70587  33.679  23.116  11.948
99988W        W70588  40.436  24.260  11.875
99989W        W70589  16.812  39.238  11.996
99990W        W70590  44.913   0.909  15.000
99991W        W70591  38.827   2.314   0.000
99992W        W70592   0.453  12.353   2.179
99993W        W70593  18.336  31.610  10.448
99994W        W70594  33.188  19.253   2.234
99995W        W70595  29.993  38.536  12.073
99996W        W70596   3.290   1.856  10.786
99997W        W70597  18.749  25.623  13.417
99998W        W70598  39.599  36.846  13.809
99999W        W70599   1.151   0.215   1.290
    0W        W70600   2.719  31.903   5.069
    1W        W70601  26.046  38.539   2.383
    2W        W70602  29.536  14.702   2.775
    3W        W70603  44.620  36.039   0.249
    4W        W70604   6.243  17.699  14.606
    5W        W70605   6.744  23.617   3.122
    6W        W70606  37.797  31.476   2.103
    7W        W70607   2.425   6.154   3.666
    8W        W70608  33.944  19.515  13.309
    9W        W70609  17.557  19.061  10.701
   10W        W70610   9.826  25.158  11.567
   11W        W70611  44.344  33.975  12.426
   12W        W70612  30.605  20.637  13.297
   13W        W70613  42.992   2.947  14.513
   14W        W70614   0.877  22.292  14.055
   15W        W70615  35.584   0.202  14.290
   16W        W70616  30.628  44.431   0.627
   17W        W70617  20.168  25.991   0.387
   18W        W70618  13.930  13.844   2.355
   19W        W70619  13.271   9.231  12.972
   20W        W70620  30.385  39.053   0.274
   21W        W70621  44.999  37.837  13.598
   22W        W70622  42.945   3.663  14.025
   23W        W70623   3.888  19.816   0.765
   24W        W70624   6.430  15.864   3.648
   25W        W70625   1.907  21.651   2.704
   26W        W70626  13.724  33.403   1.363
   27W        W70627  42.146   6.267  13.387
   28W        W70628  39.920  35.070  13.134
   29W        W70629  16.101   6.832   4.744
   30W        W70630   7.802  13.055   3.325
   31W        W70631  32.425  40.983   1.681
   32W        W70632  32.430  36.491   2.771
   33W        W70633   3.003  32.042  13.838
   34W        W70634  40.757  19.553  14.722
   35W        W70635  13.018  43.166   2.127
   36W        W70636  40.488  14.620  11.140
   37W        W70637   1.987  30.104  12.086
   38W        W70638  15.110   9.980  13.990
   39W        W70639  32.100   2.792  14.256
   40W        W70640   4.153  37.005   1.766
   41W        W70641   5.888  28.235  12.452
   42W        W70642  22.217   1.025  14.836
   43W        W70643   3.228  37.771  10.629
   44W        W70644  25.524   3.646   3.303
   45W        W70645  36.089   4.903  10.905
   46W        W70646  21.891   4.496  13.994
   47W        W70647  19.490  42.361   0.201
   48W        W70648   4.613   6.679   0.966
   49W        W70649  29.595  17.377   5.092
   50W        W70650  29.032  22.476  14.534
   51W        W70651   6.746  38.779   0.906
   52W        W70652  15.220  22.231   4.216
   53W        W70653  39.034  10.165   9.798
   54W        W70654  37.882   2.744  11.163
   55W        W70655   5.269  20.714   2.779
   56W        W70656  41.764  36.437   1.208
   57W        W70657  42.497  15.627   4.210
   58W        W70658  17.553  36.652   2.631
   59W        W70659  35.288  15.225  13.300
   60W        W70660  37.931  43.044  13.458
   61W        W70661   5.204  39.773   0.348
   62W        W70662  38.431  36.522   2.143
   63W        W70663  27.706   1.947   1.527
   64W        W70664  23.207  20.331   4.610
   65W        W70665  41.634  36.414   1.946
   66W        W70666  16.782   5.403  12.897
   67W        W70667  33.397   6.312  13.884
   68W        W70668  25.624  27.183   0.255
   69W        W70669  42.807  17.528  12.297
   70W        W70670  39.297  30.547  14.245
   71W        W70671   4.854   9.819  13.533
   72W        W70672  14.967  36.342  12.298
   73W        W70673  32.827  35.690  13.401
   74W        W70674   2.042  23.034   4.182
   75W        W70675  22.018  16.641   0.453
   76W        W70676  28.208  16.850  13.795
   77W        W70677   9.389  10.108   4.210
   78W        W70678  33.448  31.651   3.618
   79W        W70679  20.668   6.692   0.384
   80W        W70680  17.661  36.149  11.249
   81W        W70681   7.978  28.779   4.150
   82W        W70682  21.142  28.061   4.819
   83W        W70683   5.156  27.479   0.908
   84W        W70684   2.264  43.204  11.320
   85W        W70685  26.593  16.446   4.580
   86W        W70686  14.162  25.221   3.230
   87W        W70687  24.152  25.444  11.987
   88W        W70688  25.631  36.322   2.224
   89W        W70689   6.127  12.119   2.738
   90W        W70690  20.298  44.570   0.220
   91W        W70691  31.548   7.219  14.572
   92W        W70692   8.365   9.715  12.237
   93W        W70693  41.984  14.742   3.773
   94W        W70694  27.224   5.010   1.957
   95W        W70695  14.073   1.732  13.068
   96W        W70696  22.654  44.842  14.735
   97W        W70697   8.695   2.294   0.017
   98W        W70698  15.118   4.853   4.553
   99W        W70699  38.460  32.876  10.700
  100W        W70700  23.241  43.503   1.420
  101W        W70701  20.525  22.501   1.480
  102W        W70702  35.903  36.645  11.914
  103W        W70703  25.677  22.009   4.592
  104W        W70704  33.939  22.607  13.578
  105W        W70705  33.860  12.464   4.646
  106W        W70706  16.699  10.807  11.979
  107W        W70707   4.771  27.685  13.029
  108W        W70708  17.300  31.639   2.782
  109W        W70709  10.290  25.150  10.292
  110W        W70710  17.854  21.910  13.915
  111W        W70711  40.989  36.606  12.958
  112W        W70712  26.348  44.140  13.895
  113W        W70713  41.870  31.711   4.692
  114W        W70714   4.304  22.788   0.032
  115W        W70715  40.979  15.095   0.281
  116W        W70716   7.219  13.135   0.431
  117W        W70717  35.556  15.355  12.447
  118W        W70718  41.473  32.552  11.101
  119W        W70719  43.376  42.411   2.705
  120W        W70720  17.966  23.087  12.067
  121W        W70721   3.028  13.168   2.738
  122W        W70722  23.004  24.187   1.244
  123W        W70723  18.839  29.214   1.215
  124W        W70724  13.599  38.621  11.140
  125W        W70725  15.198   7.384   1.987
  126W        W70726  32.901  25.565   1.188
  127W        W70727   1.010  38.694   0.398
  128W        W70728  19.731   5.924  13.781
  129W        W70729  39.532  38.984   2.109
  130W        W70730  25.575   0.419  13.371
  131W        W70731   5.285  34.051   3.171
  132W        W70732  42.927  23.077   2.940
  133W        W70733   5.127  25.224   4.339
  134W        W70734  35.492  28.482  10.994
  135W        W70735  41.859   3.142  13.137
  136W        W70736  38.597  21.810   0.239
  137W        W70737   4.865  13.714   0.885
  138W        W70738  13.379   0.808   2.889
  139W        W70739  29.901  21.716  12.551
  140W        W70740  21.758  33.633   2.664
  141W        W70741   0.895  17.134  10.394
  142W        W70742  17.287  17.705  14.968
  143W        W70743  38.476  36.971   1.044
  144W        W70744   1.902  12.485  13.453
  145W        W70745  43.478  21.496   1.249
  146W        W70746  33.793  25.788   3.694
  147W        W70747   7.165  31.198  10.652
  148W        W70748   1.309  44.862   0.881
  149W        W70749  10.326  44.278   2.155
  150W        W70750  40.366  15.148  11.129
  151W        W70751  14.438  32.831   1.315
  152W        W70752  39.484  24.113   1.965
  153W        W70753  11.243  25.747   4.226
  154W        W70754  12.102  37.909   3.719
  155W        W70755  25.483  19.047  14.050
  156W        W70756  17.253   9.842   4.577
  157W        W70757  26.702   5.811   2.256
  158W        W70758  11.893  18.709  14.389
  159W        W70759   8.916  35.091   0.803
  160W        W70760  44.872   8.864   4.167
  161W        W70761  11.732  36.766   3.211
  162W        W70762  16.042   6.491  12.206
  163W        W70763   9.311   5.191  11.259
  164W        W70764  10.337  35.871  13.835
  165W        W70765   9.366   3.819  11.092
  166W        W70766   5.792  15.113   1.670
  167W        W70767   5.360  11.123   4.177
  168W        W70768  27.673  13.504   4.150
  169W        W70769  24.010  16.756  14.058
  170W        W70770   3.852  17.152   2.189
  171W        W70771  24.701  23.776   2.823
  172W        W70772  21.269   0.974  12.972
  173W        W70773  34.096   3.822  14.849
  174W        W70774  32.600  21.570   4.117
  175W        W70775  16.613   5.360  13.596
  176W        W70776  38.772  38.991  10.358
  177W        W70777  29.430  39.650   2.658
  178W        W70778  28.991  32.776   3.829
  179W        W70779  21.081  30.082  10.665
  180W        W70780  31.547  13.550  14.356
  181W        W70781   7.378  38.548   4.273
  182W        W70782   9.173  36.083   3.601
  183W        W70783  22.164  39.325  11.222
  184W        W70784  17.032  41.329   1.723
  185W        W70785  41.572  44.380  11.221
  186W        W70786  18.434  44.269  14.370
  187W        W70787  24.111  43.441   1.430
  188W        W70788   6.876  15.662   3.471
  189W        W70789   1.390  10.423  14.054
  190W        W70790  28.892  30.948   1.536
  191W        W70791  13.233  17.332   1.862
  192W        W70792  35.071   2.716   1.601
  193W        W70793  42.755  29.532  11.239
  194W        W70794  40.504  36.009   4.054
  195W        W70795   3.727   7.921  11.016
  196W        W70796  36.040  34.466  13.560
  197W        W70797  43.407  30.859  11.612
  198W        W70798  41.522  33.064  11.962
  199W        W70799  19.060  19.673   0.623
  200W        W70800  25.114  11.439   2.318
  201W        W70801  11.247  25.682   4.754
  202W        W70802  16.701   2.295   0.744
  203W        W70803  41.435  20.153  12.809
  204W        W70804  20.189  44.278  12.928
  205W        W70805  34.703   6.978   3.748
  206W        W70806  11.235  43.391   2.736
  207W        W70807  28.500  29.708   4.253
  208W        W70808  43.269  14.100  10.023
  209W        W70809   5.453  30.857   4.600
  210W        W70810  27.965  37.401   3.394
  211W        W70811  31.937  32.621  10.741
  212W        W70812  42.484  25.803  13.474
  213W        W70813  11.720  39.034   1.914
  214W        W70814  20.521  44.921   0.925
  215W        W70815  35.588  34.810  13.830
  216W        W70816  28.890   0.959  11.165
  217W        W70817   1.358  19.486  12.102
  218W        W70818   5.714  14.116   2.819
  219W        W70819  17.973  27.066  12.044
  220W        W70820  43.162  23.180  14.810
  221W        W70821   6.800  25.469  14.462
  222W        W70822  16.608  14.095  12.650
  223W        W70823   7.665  19.971   2.879
  224W        W70824  21.156  15.961   1.015
  225W        W70825  19.952  26.155  13.200
  226W        W70826   9.367  41.798  11.480
  227W        W70827  38.160  24.744   4.074
  228W        W70828  23.016   8.916   2.069
  229W        W70829  16.149  16.662  11.283
  230W        W70830   3.997   3.781  10.720
  231W        W70831  43.592  30.460   1.953
  232W        W70832  27.698  35.740  12.184
  233W        W70833  29.768  23.426   3.798
  234W        W70834  37.363  14.041  12.012
  235W        W70835   7.843  33.370   0.973
  236W        W70836  41.948  40.025   2.798
  237W        W70837  36.428  25.179  11.178
  238W        W70838  32.938  27.921  14.983
  239W        W70839  12.353   1.230  13.040
  240W        W70840  11.261  41.887  13.992
  241W        W70841  26.732  30.506   1.318
  242W        W70842  24.306  12.886  12.130
  243W        W70843  27.665   2.541  13.139
  244W        W70844  34.381  33.019  10.622
  245W        W70845   8.262  42.515   1.763
  246W        W70846  40.246  37.401  14.277
  247W        W70847  30.211   2.819  12.591
  248W        W70848  25.503  17.542   3.179
  249W        W70849  35.906  33.796   1.224
  250W        W70850   4.032  34.281   0.013
  251W        W70851   3.704  36.631   2.916
  252W        W70852  39.100   7.704   0.543
  253W        W70853   3.777   5.249  14.496
  254W        W70854   0.386  11.119  13.644
  255W        W70855  34.396   9.579   3.215
  256W        W70856   7.310  33.639   1.833
  257W        W70857  27.063  27.158  12.984
  258W        W70858  15.786  12.069  10.715
  259W        W70859  22.804  18.996  13.888
  260W        W70860   5.468  29.605  14.780
  261W        W70861  33.162  33.084  14.398
  262W        W70862  39.375  18.267   0.344
  263W        W70863   3.282  31.644   1.894
  264W        W70864  12.995  20.260   3.275
  265W        W70865  37.309  10.616   1.815
  266W        W70866   4.954  38.111   4.090
  267W        W70867  44.108  28.471   0.629
  268W        W70868   0.187   7.069  13.454
  269W        W70869  14.754   7.694   4.330
  270W        W70870  38.891  35.883  13.394
  271W        W70871   5.682  14.874  12.130
  272W        W70872  29.149  18.197   3.241
  273W        W70873  30.663  34.608  11.232
  274W        W70874   0.705  22.022   0.963
  275W        W70875  15.991  27.982  11.243
  276W        W70876  35.386   7.383  12.021
  277W        W70877  39.986   9.520  14.851
  278W        W70878  25.654   0.910   2.241
  279W        W70879  39.817   5.757   3.126
  280W        W70880  26.116  22.284  10.827
  281W        W70881  22.960  29.557   3.240
  282W        W70882  40.904  15.013   1.705
  283W        W70883  26.976  36.481   1.763
  284W        W70884   5.863   9.852  13.409
  285W        W70885  31.969   1.221   1.334
  286W        W70886  13.329   5.917  13.387
  287W        W70887   2.829   6.165   4.345
  288W        W70888   3.378  22.045  10.615
  289W        W70889  25.676   8.269  14.054
  290W        W70890  42.028  23.628   0.917
  291W        W70891   8.753   8.407  14.888
  292W        W70892  37.407   3.908  12.415
  293W        W70893  30.079  31.091  12.416
  294W        W70894   4.694  14.373  11.640
  295W        W70895  22.396  16.801  14.818
  296W        W70896  39.421  42.255  13.751
  297W        W70897  10.147  38.816  13.614
  298W        W70898  35.964  29.574  13.318
  299W        W70899  39.510  14.718  11.133
  300W        W70900  10.380  18.245  13.317
  301W        W70901  29.731  28.148  12.014
  302W        W70902  15.575   1.908  10.733
  303W        W70903   5.988  16.581   2.774
  304W        W70904  20.967  14.759   4.965
  305W        W70905   7.711   1.283  14.275
  306W        W70906  33.040  36.312   3.431
  307W        W70907  35.889   7.240   4.645
  308W        W70908  24.777  25.084   1.330
  309W        W70909  18.292   6.682   1.207
  310W        W70910   0.260  18.271  12.494
  311W        W70911  13.026  25.068   0.408
  312W        W70912   1.387  33.483   5.379
  313W        W70913   9.344  17.319   1.324
  314W        W70914   3.985  29.069   0.032
  315W        W70915  33.289  10.176  12.501
  316W        W70916  20.528  16.095  12.095
  317W        W70917  35.894  39.532   3.179
  318W        W70918  38.771   3.393  12.591
  319W        W70919  43.311  40.800  13.993
  320W        W70920  41.680  37.563   3.671
  321W        W70921  24.801   2.330  14.812
  322W        W70922  15.070  30.007   1.931
  323W        W70923  35.847   7.744  13.128
  324W        W70924  32.980  21.370   0.814
  325W        W70925  43.014  44.497   4.510
  326W        W70926  17.081  12.357  11.028
  327W        W70927  36.350  30.829   3.329
  328W        W70928  26.607  21.221   0.405
  329W        W70929  39.929   9.211  12.574
  330W        W70930   2.501  39.760  12.485
  331W        W70931  10.908  38.347  11.435
  332W        W70932  42.322  17.197   1.198
  333W        W70933  19.021  33.509   1.331
  334W        W70934   4.891   4.178  11.130
  335W        W70935  11.316  13.406  13.349
  336W        W70936  19.582   2.875  11.931
  337W        W70937   4.476  39.687  14.809
  338W        W70938  31.631  32.130   5.071
  339W        W70939  41.457   2.869   5.002
  340W        W70940   7.944  30.574   1.799
  341W        W70941  38.431  15.194   3.751
  342W        W70942  39.347  36.584   4.126
  343W        W70943  24.614  22.573   1.690
  344W        W70944   2.685  26.538  13.851
  345W        W70945  30.112  42.835   3.187
  346W        W70946  40.161  12.123   4.764
  347W        W70947  42.010  27.522   1.380
  348W        W70948  13.567   9.910   3.211
  349W        W70949   3.038  25.246   4.122
  350W        W70950   0.878   3.752   3.408
  351W        W70951  12.038   0.067   4.061
  352W        W70952  29.580  30.140   0.334
  353W        W70953  18.184  18.034  11.967
  354W        W70954  44.811   2.379  12.488
  355W        W70955  17.133  15.033   0.547
  356W        W70956  40.476  22.479  10.478
  357W        W70957  16.123  24.450  13.970
  358W        W70958  34.377  19.790  13.053
  359W        W70959  36.031  44.581  12.440
  360W        W70960  28.475  28.432  10.702
  361W        W70961  30.281  32.720   1.837
  362W        W70962  32.401  35.606  14.849
  363W        W70963  27.593  11.607  12.451
  364W        W70964  38.523  39.868   3.712
  365W        W70965  31.564  35.854  13.282
  366W        W70966  18.733  42.213  14.259
  367W        W70967   2.763   2.804   4.767
  368W        W70968   3.493  20.053  11.355
  369W        W70969   3.659   1.208  11.937
  370W        W70970  26.488  31.128   3.685
  371W        W70971  30.002  29.646  14.245
  372W        W70972  21.782   6.903   3.374
  373W        W70973  32.144  36.965  13.835
  374W        W70974   5.861   7.292  12.202
  375W        W70975   7.923  33.933  10.212
  376W        W70976  42.988   9.687  11.561
  377W        W70977  21.045  32.260  12.148
  378W        W70978  38.043  20.913   3.352
  379W        W70979   8.926  24.916  14.553
  380W        W70980  43.195   8.019  13.359
  381W        W70981   8.702  44.337   3.207
  382W        W70982  26.773  19.975   2.633
  383W        W70983   3.755  23.045  11.524
  384W        W70984  13.828  43.340  12.324
  385W        W70985  29.074  30.673   3.545
  386W        W70986   3.018   3.293   0.656
  387W        W70987  11.869  43.264   3.424
  388W        W70988  18.141  26.243   2.644
  389W        W70989   3.924  29.665  14.594
  390W        W70990  22.797  16.098  11.755
  391W        W70991  23.645  23.238  12.508
  392W        W70992  14.547  22.703   1.992
  393W        W70993   2.971  43.706  11.592
  394W        W70994  20.569  20.222   4.659
  395W        W70995   2.505   8.912  12.590
  396W        W70996  14.559  43.521  14.414
  397W        W70997  14.553  23.034  14.687
  398W        W70998  27.122  17.874  11.985
  399W        W70999  33.547  13.438  14.934
  400W        W71000  13.413  16.632   2.398
  401W        W71001  28.632  29.898  12.039
  402W        W71002  16.654  31.698  12.453
  403W        W71003  29.935  11.119   2.277
  404W        W71004  39.342  14.357   0.178
  405W        W71005  39.438  41.827   2.200
  406W        W71006   4.784  34.372   1.419
  407W        W71007  37.447   5.723  13.055
  408W        W71008   0.852   4.908  13.766
  409W        W71009   0.826  22.931   1.486
  410W        W71010  21.513  34.457  14.006
  411W        W71011   5.816   6.746  14.096
  412W        W71012  22.122   4.258  14.486
  413W        W71013  34.042  38.818  13.854
  414W        W71014  42.505   1.312  14.974
  415W        W71015  40.491  40.965   2.790
  416W        W71016   2.408  33.119   3.289
  417W        W71017   4.411  38.240   1.871
  418W        W71018   7.454   4.058   2.174
  419W        W71019  32.439  33.671  13.977
  420W        W71020  38.790  12.250   4.111
  421W        W71021  23.954  17.788  13.418
  422W        W71022  36.417   5.721  12.053
  423W        W71023   3.304   6.455  12.110
  424W        W71024  42.863  40.530  14.075
  425W        W71025  23.035  30.283   2.169
  426W        W71026  30.070  17.570  13.701
  427W        W71027  11.842  31.573   2.796
  428W        W71028   4.059  15.682   0.439
  429W        W71029  38.978  30.883  13.984
  430W        W71030  12.620  20.603   1.297
  431W        W71031   7.343  12.024  11.028
  432W        W71032  23.949   9.169   2.004
  433W        W71033  30.445  31.634  13.365
  434W        W71034  35.108   1.357  12.872
  435W        W71035  42.793  41.417   2.220
  436W        W71036  35.136  40.991  13.095
  437W        W71037  44.357   2.794  10.648
  438W        W71038  38.737  38.572   3.312
  439W        W71039   0.364  18.089   4.935
  440W        W71040   6.307  16.034  13.948
  441W        W71041   7.696   4.920  14.104
  442W        W71042   9.318   1.205  12.573
  443W        W71043  25.677  41.753   2.899
  444W        W71044  17.202  15.333  12.854
  445W        W71045  13.255  11.343  10.422
  446W        W71046   2.264  38.485  14.855
  447W        W71047  39.793  33.359  11.878
  448W        W71048   4.295   1.247  13.990
  449W        W71049  11.353  43.824   4.116
  450W        W71050  16.301  31.444  11.408
  451W        W71051   0.772  21.621  12.928
  452W        W71052  39.327  38.969   4.863
  453W        W71053  28.003  25.098  11.138
  454W        W71054  42.439  40.571   2.148
  455W        W71055  40.261   6.325   1.257
  456W        W71056  25.932  41.822  11.455
  457W        W71057  19.311  27.199   1.585
  458W        W71058  19.815  41.356   3.673
  459W        W71059  26.051  40.469   0.730
  460W        W71060  19.060   7.758  14.825
  461W        W71061  36.057  44.472  11.882
  462W        W71062  36.865  38.099   2.199
  463W        W71063  18.901   6.980   5.023
  464W        W71064   3.033  19.750  13.553
  465W        W71065  41.815  14.733  10.974
  466W        W71066  27.057  27.683   3.601
  467W        W71067  14.084  28.074   4.440
  468W        W71068  28.197   8.164  13.515
  469W        W71069  38.863   4.900  13.877
  470W        W71070  30.796  18.481  13.412
  471W        W71071  38.782  26.048   4.449
  472W        W71072  30.060  34.908  13.003
  473W        W71073  32.634  26.024   4.054
  474W        W71074  13.821  37.839  13.871
  475W        W71075   9.638   6.132   2.746
  476W        W71076   4.613  10.502   4.027
  477W        W71077   7.225  37.651  12.986
  478W        W71078  43.025   3.850   2.731
  479W        W71079  38.819  29.415   3.909
  480W        W71080  35.629   9.766   2.898
  481W        W71081   4.819  15.922  13.897
  482W        W71082  20.529  43.416   3.713
  483W        W71083  42.744   8.136   2.738
  484W        W71084  23.965   9.250  14.327
  485W        W71085  38.466  19.650   0.897
  486W        W71086  26.150   6.419  10.884
  487W        W71087  22.221  37.512  13.472
  488W        W71088  38.438  12.772  12.770
  489W        W71089  21.644  13.305   0.944
  490W        W71090  18.881  41.375  11.017
  491W        W71091   9.253  19.818   1.716
  492W        W71092   6.500  19.221   4.251
  493W        W71093   6.639   4.612   4.129
  494W        W71094   5.380  30.967   3.300
  495W        W71095   6.756  12.643   4.136
  496W        W71096  17.163  38.609   4.242
  497W        W71097  23.948  26.179   0.300
  498W        W71098  13.641  35.432   2.400
  499W        W71099  44.792   6.763   3.619
  500W        W71100   9.231  24.055  13.507
  501W        W71101  16.563  16.760  13.513
  502W        W71102  13.571  20.328  12.377
  503W        W71103  35.016  10.681   2.704
  504W        W71104  19.091  39.514  12.903
  505W        W71105  37.418   4.786  13.396
  506W        W71106  33.316  36.286   1.801
  507W        W71107  20.210  39.371  12.103
  508W        W71108   1.198  42.391   0.995
  509W        W71109  32.765  29.124  11.602
  510W        W71110  20.207  32.058   4.259
  511W        W71111  32.412  36.464   1.756
  512W        W71112  23.234  37.623   3.874
  513W        W71113  40.940  18.168  10.724
  514W        W71114  43.439  19.469  12.976
  515W        W71115  16.057  18.729   3.207
  516W        W71116  33.552  20.028  12.111
  517W        W71117  44.261   4.188   0.126
  518W        W71118  28.915  39.034  10.658
  519W        W71119  18.819  24.367  14.042
  520W        W71120  24.484  39.098  10.381
  521W        W71121  15.120  44.300   1.419
  522W        W71122  23.603  11.880   3.688
  523W        W71123  31.542  23.814   0.361
  524W        W71124  25.286   1.538  14.896
  525W        W71125  10.497  42.690   4.569
  526W        W71126  43.483   7.124   4.224
  527W        W71127  16.350  37.646   1.877
  528W        W71128  37.362   5.666  14.859
  529W        W71129   4.793  31.077  12.083
  530W        W71130  19.271  26.629  12.817
  531W        W71131   3.771  21.282  12.098
  532W        W71132  43.818  26.423  13.146
  533W        W71133  16.685  23.703  13.797
  534W        W71134   2.876  16.816   0.146
  535W        W71135  10.073   8.918  11.128
  536W        W71136  36.179   0.612   4.543
  537W        W71137  37.858   8.399   3.171
  538W        W71138  13.174  27.228   3.177
  539W        W71139  41.985  32.634   2.696
  540W        W71140  22.164  13.278  10.587
  541W        W71141  30.123  43.535   4.552
  542W        W71142  12.276  17.553   2.747
  543W        W71143  10.882  22.294   1.395
  544W        W71144  13.712   9.735   0.315
  545W        W71145  14.526  37.807  11.139
  546W        W71146  27.088  11.760  12.557
  547W        W71147  16.685  23.291   3.772
  548W        W71148  12.278  27.189   4.637
  549W        W71149  30.598  20.618  14.445
  550W        W71150  39.358   4.113   4.591
  551W        W71151  10.836  29.678  13.729
  552W        W71152  34.011  10.957   4.420
  553W        W71153  21.754  19.487  10.424
  554W        W71154  20.226  41.651  14.963
  555W        W71155  13.292  16.806  12.043
  556W        W71156  25.816  21.428  13.169
  557W        W71157  39.868   1.139  11.531
  558W        W71158  32.622  17.178  13.426
  559W        W71159  21.789  32.988  13.051
  560W        W71160  15.328  16.811   2.564
  561W        W71161   4.918  31.487   4.188
  562W        W71162  19.665  40.762   0.923
  563W        W71163  24.613  20.006   3.226
  564W        W71164  41.434  12.273  11.715
  565W        W71165  23.765   1.449  13.432
  566W        W71166  24.083  41.510  10.416
  567W        W71167   5.548  33.409   0.568
  568W        W71168   0.874   4.681  14.971
  569W        W71169   8.809  10.156   0.764
  570W        W71170  27.163  13.312   4.723
  571W        W71171   3.773  41.831   5.025
  572W        W71172  33.081  35.159   0.479
  573W        W71173  13.342   2.488  13.907
  574W        W71174   1.835  12.397  12.927
  575W        W71175  43.737  15.156   0.349
  576W        W71176  37.207  18.215   1.647
  577W        W71177  35.019  44.935  10.584
  578W        W71178  44.905  16.770  11.215
  579W        W71179  35.391   6.774   2.601
  580W        W71180  15.377  16.587   0.277
  581W        W71181   1.538  11.701   3.191
  582W        W71182  18.756   1.511   0.312
  583W        W71183  26.525   2.864   2.905
  584W        W71184   0.284   0.265   2.766
  585W        W71185  42.941  32.141   0.368
  586W        W71186  31.538  42.915   1.943
  587W        W71187  37.337   1.746   3.381
  588W        W71188   0.253  43.873  14.218
  589W        W71189  31.358  37.801   3.245
  590W        W71190  41.011  42.921   4.752
  591W        W71191  13.607  15.489   1.713
  592W        W71192  43.226  26.735   3.757
  593W        W71193  35.760   8.247  14.310
  594W        W71194  24.314  15.099   4.665
  595W        W71195   6.871  24.682  10.735
  596W        W71196   4.540   1.587   4.349
  597W        W71197  25.700  21.450   2.429
  598W        W71198   5.422  36.639  12.048
  599W        W71199  11.335  27.233  14.946
  600W        W71200  16.521  23.115  14.789
  601W        W71201  24.736  44.489  12.410
  602W        W71202  20.274  27.552   0.178
  603W        W71203  29.089  32.276   1.933
  604W        W71204  25.942  32.012  10.667
  605W        W71205  20.324  17.215   3.750
  606W        W71206  14.879  34.565   2.307
  607W        W71207  43.150   8.071  13.911
  608W        W71208   6.259  36.904   4.449
  609W        W71209  22.515  27.431   1.774
  610W        W71210  18.597  14.048   0.419
  611W        W71211  31.960   3.603   5.360
  612W        W71212  30.523   0.284   1.960
  613W        W71213  27.964   9.534   2.295
  614W        W71214  13.342   5.014  13.392
  615W        W71215  38.448  27.247   0.401
  616W        W71216  43.721  14.228  11.274
  617W        W71217  18.183   1.841  11.461
  618W        W71218  32.610  38.420   4.509
  619W        W71219  26.180  13.772   0.295
  620W        W71220  40.303  30.686   0.442
  621W        W71221  25.722  26.085  10.531
  622W        W71222  12.864   6.727   1.424
  623W        W71223  13.685  16.268   2.162
  624W        W71224   3.458  24.343   2.803
  625W        W71225  18.765  28.358  13.631
  626W        W71226  40.336   3.282   5.046
  627W        W71227   3.341  17.729  11.946
  628W        W71228  28.156  13.163   1.548
  629W        W71229  17.750  18.612   3.164
  630W        W71230  20.584  33.450  13.861
  631W        W71231  16.898   3.929  14.390
  632W        W71232  21.717  42.670   1.932
  633W        W71233  27.010  42.880   4.135
  634W        W71234  37.508  32.586   1.334
  635W        W71235  44.940   7.894   4.521
  636W        W71236  19.575  37.373   0.874
  637W        W71237  38.377  41.907  10.311
  638W        W71238  44.383  17.669   2.094
  639W        W71239  21.624  18.687   2.255
  640W        W71240  31.021  24.654   1.459
  641W        W71241  12.123  43.727   3.544
  642W        W71242  26.969  34.179  11.725
  643W        W71243  42.302  44.441  10.697
  644W        W71244  34.930   0.413  10.822
  645W        W71245   0.698  30.184   1.346
  646W        W71246  27.954  42.947  14.937
  647W        W71247  10.817  10.449  11.515
  648W        W71248   5.844   9.425  14.799
  649W        W71249  34.068   9.416  11.130
  650W        W71250  32.237  13.059   3.700
  651W        W71251  30.186  25.518   4.182
  652W        W71252  18.810  21.043   1.613
  653W        W71253  12.142  43.407  14.537
  654W        W71254  20.054  35.912  10.670
  655W        W71255  36.681  23.662  12.889
  656W        W71256  10.170  17.211   2.714
  657W        W71257  22.565  14.190   3.667
  658W        W71258  36.569   5.131  10.303
  659W        W71259  34.923  23.464  12.829
  660W        W71260  36.528   6.473   3.245
  661W        W71261  21.241  35.577   2.771
  662W        W71262  12.174  19.551  10.676
  663W        W71263   6.339  39.034   4.677
  664W        W71264  25.970  23.700   1.298
  665W        W71265  14.791  40.387   9.954
  666W        W71266   0.584  25.609  14.473
  667W        W71267  39.038   4.287   2.263
  668W        W71268  25.227  16.344  12.264
  669W        W71269  19.741  28.530   0.972
  670W        W71270  10.950  27.478   3.698
  671W        W71271  11.890   6.768   1.397
  672W        W71272  28.090  13.158  14.507
  673W        W71273   7.323  23.085  13.090
  674W        W71274  37.997  14.823  14.914
  675W        W71275  40.196  20.312  12.223
  676W        W71276  15.914  22.479  13.526
  677W        W71277  36.336   1.784   3.255
  678W        W71278  44.283   0.659   3.408
  679W        W71279   6.853  38.092  12.981
  680W        W71280  11.244   7.789  12.874
  681W        W71281  26.947  36.826   4.686
  682W        W71282  27.313  21.998  14.425
  683W        W71283  28.433  27.864   0.451
  684W        W71284  28.744  26.469  11.102
  685W        W71285  16.770  28.230  13.056
  686W        W71286  19.603   1.306  12.602
  687W        W71287  43.089  30.372   1.984
  688W        W71288  25.982  13.137   2.005
  689W        W71289   9.951  29.360  11.613
  690W        W71290  44.190   9.226   0.512
  691W        W71291   6.247  15.452   4.216
  692W        W71292  35.937  44.924   2.716
  693W        W71293  33.162  23.822   3.639
  694W        W71294   0.043  11.156   1.671
  695W        W71295   8.264   7.159  14.966
  696W        W71296  35.160  28.408  12.982
  697W        W71297  25.730   1.038  13.582
  698W        W71298  20.215  38.118  11.420
  699W        W71299   5.504  20.082  12.894
  700W        W71300  41.312   5.189   0.707
  701W        W71301   6.889  15.500   0.471
  702W        W71302  34.886  14.332  14.425
  703W        W71303  35.540  17.651  12.010
  704W        W71304  27.003  31.015   3.602
  705W        W71305  33.503  15.867  13.872
  706W        W71306  32.044  22.009   0.338
  707W        W71307  35.587  33.409  11.465
  708W        W71308  42.552  36.348   2.886
  709W        W71309  36.252   3.842   3.517
  710W        W71310  16.191  14.137  12.016
  711W        W71311  13.264  21.435   2.694
  712W        W71312  13.505   4.224  12.044
  713W        W71313  37.624  26.287   3.376
  714W        W71314  25.816  12.102  14.430
  715W        W71315  29.206   5.879   1.238
  716W        W71316  41.993  16.745  14.289
  717W        W71317  33.973  22.507   3.173
  718W        W71318   0.293  43.212   2.844
  719W        W71319   1.274  39.334   4.081
  720W        W71320   1.888  14.810  11.666
  721W        W71321  22.109  18.293   1.605
  722W        W71322  11.664  21.178   3.649
  723W        W71323  13.268   6.431   2.140
  724W        W71324   1.333  23.605   0.192
  725W        W71325  37.412   9.852  10.734
  726W        W71326   9.195  13.356   1.728
  727W        W71327  32.199  22.390  13.846
  728W        W71328   4.729  23.370  11.659
  729W        W71329  39.886  29.140  11.542
  730W        W71330  44.428  28.774  12.097
  731W        W71331   6.328  17.382   4.629
  732W        W71332  25.462  30.392  11.616
  733W        W71333  20.227  28.909   0.934
  734W        W71334  21.743  34.921  13.987
  735W        W71335   7.840   1.953  12.639
  736W        W71336  26.195  43.259  11.601
  737W        W71337  25.438   9.276   0.848
  738W        W71338   7.158  44.388   0.966
  739W        W71339  25.950  19.058   0.439
  740W        W71340  20.597   5.646   2.295
  741W        W71341   0.378  23.382  11.178
  742W        W71342  27.419  31.074  12.009
  743W        W71343  16.047   4.370   3.677
  744W        W71344  41.983  13.119   4.410
  745W        W71345  44.529  17.106   0.485
  746W        W71346  14.917  16.574   2.808
  747W        W71347  38.357  18.709   2.307
  748W        W71348  39.496   2.387   0.312
  749W        W71349  16.672  12.964   4.311
  750W        W71350  29.502   2.820  11.441
  751W        W71351  12.083  38.867   3.752
  752W        W71352  32.149   5.698  14.352
  753W        W71353   6.646   3.550  11.942
  754W        W71354   8.818  10.683  10.532
  755W        W71355  42.062  35.662  11.160
  756W        W71356   7.236   7.772   3.880
  757W        W71357   4.621  28.190  14.945
  758W        W71358  22.742   2.068  13.008
  759W        W71359   2.410  40.919  11.519
  760W        W71360  44.692   7.714  13.475
  761W        W71361  40.474   3.974  10.843
  762W        W71362   3.458  17.206  11.742
  763W        W71363   1.769   2.709  11.573
  764W        W71364  34.410  14.288  13.485
  765W        W71365  10.958   7.015  12.506
  766W        W71366   7.756  10.913  12.925
  767W        W71367   9.243  37.349  13.920
  768W        W71368  37.487  31.603  12.044
  769W        W71369   0.465  24.726  13.745
  770W        W71370  15.095  25.406   1.036
  771W        W71371  31.390  29.043   3.710
  772W        W71372  25.647   1.973  10.408
  773W        W71373   8.618  23.619   2.472
  774W        W71374  19.857  38.116   0.484
  775W        W71375  39.133  30.562  11.550
  776W        W71376  10.250  32.667  12.452
  777W        W71377  32.377  39.369  12.835
  778W        W71378   6.687  30.196  12.950
  779W        W71379  14.081   3.283  13.289
  780W        W71380  35.711  39.842  11.148
  781W        W71381  19.726   2.322  11.147
  782W        W71382  27.356  40.404  11.037
  783W        W71383  30.634  27.083   0.612
  784W        W71384  33.885  26.342   3.637
  785W        W71385  40.879   4.187  11.880
  786W        W71386   1.239  12.713   4.221
  787W        W71387  31.829  13.188  12.042
  788W        W71388  29.466   2.391  12.207
  789W        W71389  11.093   3.457   4.617
  790W        W71390  38.736  20.968  13.957
  791W        W71391  21.835  41.539   3.722
  792W        W71392  39.844   1.294  11.042
  793W        W71393   2.826  18.728   3.111
  794W        W71394  15.336  34.036   0.924
  795W        W71395  11.665  26.114   4.271
  796W        W71396  33.463   4.405   1.170
  797W        W71397  17.601  37.325   3.367
  798W        W71398  26.075   9.107  14.934
  799W        W71399  44.889  13.070  12.031
  800W        W71400   4.249  14.558  10.961
  801W        W71401  43.666  34.072  10.530
  802W        W71402  42.454  42.835  11.893
  803W        W71403  28.589  14.370   3.045
  804W        W71404  24.068  34.325   3.674
  805W        W71405  29.183  42.520   0.847
  806W        W71406   0.841  27.515  14.965
  807W        W71407  13.458  19.963  12.723
  808W        W71408   8.301  35.754   1.831
  809W        W71409  37.247   8.710  11.492
  810W        W71410   5.868  30.364  14.832
  811W        W71411   5.835  40.065  12.483
  812W        W71412   8.446   1.814  10.628
  813W        W71413  20.099  29.251  12.990
  814W        W71414  14.979  11.441  12.053
  815W        W71415  26.193  14.283  12.342
  816W        W71416  30.947  43.916   2.313
  817W        W71417   4.754  22.737   3.817
  818W        W71418  40.795  34.067  13.478
  819W        W71419   0.682  37.011  13.111
  820W        W71420   2.646   5.642  11.169
  821W        W71421  22.043  34.494  14.054
  822W        W71422  42.361   1.835   3.852
  823W        W71423  12.781  43.518  14.762
  824W        W71424   7.718  35.339   1.494
  825W        W71425  38.826  30.697   4.045
  826W        W71426  35.176  42.381   3.216
  827W        W71427  43.854  10.836  11.680
  828W        W71428  28.995  26.148   0.836
  829W        W71429  28.997  12.307   0.397
  830W        W71430  17.967  24.040  13.923
  831W        W71431  13.190   5.099  10.691
  832W        W71432  13.001   5.440   3.368
  833W        W71433   8.118  20.208   2.790
  834W        W71434  16.567  32.421   2.788
  835W        W71435  11.208  43.179   1.284
  836W        W71436   5.373   1.501   3.301
  837W        W71437   5.179  17.699   4.242
  838W        W71438  20.711  26.930   1.957
  839W        W71439   0.995  35.749   0.809
  840W        W71440  40.488  27.986  13.200
  841W        W71441  23.099  38.031   2.757
  842W        W71442  30.899   8.356   3.802
  843W        W71443  41.447  43.263  14.826
  844W        W71444  35.350  36.379   2.236
  845W        W71445   3.979  18.223   0.805
  846W        W71446  10.375   9.977   3.850
  847W        W71447  39.743  11.123   0.755
  848W        W71448  18.829  30.689   4.227
  849W        W71449  27.099   6.493  12.816
  850W        W71450  35.482  20.539   0.755
  851W        W71451  31.706  15.595   1.232
  852W        W71452  15.417   9.365   1.422
  853W        W71453  21.035   9.212   1.786
  854W        W71454  39.905  11.721  11.026
  855W        W71455  17.399   2.414   2.443
  856W        W71456  16.852   5.856   0.277
  857W        W71457  22.600  11.249   1.361
  858W        W71458  28.583  19.461   4.089
  859W        W71459   4.190  33.325  14.467
  860W        W71460  16.934  43.226   1.481
  861W        W71461  12.721   9.065  11.793
  862W        W71462  18.766   3.510   4.586
  863W        W71463  21.337  37.268   4.093
  864W        W71464   3.383  27.587  13.167
  865W        W71465  29.176   4.975   4.625
  866W        W71466  44.082   4.382   4.721
  867W        W71467  38.415  25.044   1.125
  868W        W71468  13.588   1.215  12.420
  869W        W71469  33.332  14.070  14.340
  870W        W71470  33.154  17.568  11.916
  871W        W71471  34.113  36.114  11.611
  872W        W71472  29.115  32.578   2.393
  873W        W71473   9.236   3.912  13.439
  874W        W71474  40.035  11.357   2.231
  875W        W71475  33.149  24.465   2.236
  876W        W71476  12.888  17.098  13.042
  877W        W71477  22.172  21.606  13.594
  878W        W71478  18.987  37.816  10.826
  879W        W71479  15.955  26.197   5.437
  880W        W71480  33.375  43.954   0.948
  881W        W71481  30.836  17.230  14.026
  882W        W71482  31.184   9.218   1.707
  883W        W71483   9.621  21.819   1.295
  884W        W71484  20.138   4.931   3.633
  885W        W71485  35.868  10.655   2.362
  886W        W71486   5.202  14.304   2.311
  887W        W71487  34.796  11.567   4.489
  888W        W71488  37.843  44.035  14.478
  889W        W71489  29.389   1.317  14.291
  890W        W71490  31.523  11.336   3.920
  891W        W71491  27.670  32.646   3.634
  892W        W71492  26.808  14.144   4.939
  893W        W71493  25.934  22.090  14.873
  894W        W71494  11.745   9.224   3.094
  895W        W71495  20.713  38.169  11.250
  896W        W71496   9.055  18.672   0.754
  897W        W71497  42.952  17.654   0.867
  898W        W71498  17.083  10.903   2.383
  899W        W71499  39.811  31.966  14.308
  900W        W71500   1.971  17.140   2.125
  901W        W71501  39.363  27.912  14.221
  902W        W71502  17.128  21.533  10.632
  903W        W71503  22.644  11.575  14.303
  904W        W71504  17.471  34.046  13.305
  905W        W71505  34.818  37.441   1.782
  906W        W71506  15.712  34.503   1.900
  907W        W71507  33.760  16.303  10.676
  908W        W71508  43.826   3.142  12.103
  909W        W71509  13.585  23.672  14.304
  910W        W71510  42.866  32.647   1.256
  911W        W71511  22.151  20.724  13.013
  912W        W71512  12.375  14.880   2.644
  913W        W71513  26.915   2.260  14.552
  914W        W71514  32.678   4.308  10.612
  915W        W71515  23.856  42.463   4.665
  916W        W71516  11.772  41.951  10.274
  917W        W71517  42.404  16.008   1.357
  918W        W71518  27.199  37.864  14.107
  919W        W71519  38.285  36.042   2.354
  920W        W71520  42.220   2.740  14.316
  921W        W71521  27.537  26.604   3.206
  922W        W71522  28.737   3.282  10.814
  923W        W71523  13.253  20.736   3.260
  924W        W71524   1.402  22.283  11.221
  925W        W71525  13.647  18.287   1.386
  926W        W71526  13.916  43.068   2.649
  927W        W71527  11.936  10.915   0.749
  928W        W71528   4.794  35.449   1.273
  929W        W71529  21.892  35.092   3.283
  930W        W71530  21.901   4.249  11.537
  931W        W71531  22.205  18.147  10.607
  932W        W71532  22.508  15.316  12.448
  933W        W71533  26.197   9.998  10.039
  934W        W71534   8.941  43.446  11.101
  935W        W71535  30.672  37.918   1.792
  936W        W71536  40.838  43.917   2.608
  937W        W71537  42.001  12.618   0.328
  938W        W71538  20.187  30.526  14.470
  939W        W71539  24.040  26.286  13.353
  940W        W71540  21.759  39.758  12.580
  941W        W71541  23.993  33.621  12.862
  942W        W71542  14.061  15.493  13.387
  943W        W71543  22.011   4.154   2.796
  944W        W71544  10.341  41.364  13.935
  945W        W71545  22.650   6.170   0.181
  946W        W71546   8.387  23.224   0.851
  947W        W71547  32.588   3.757  11.460
  948W        W71548  29.567  24.487   3.256
  949W        W71549  25.672  35.176  14.163
  950W        W71550   1.206  28.830   2.806
  951W        W71551  28.280  10.458  13.722
  952W        W71552  36.280  24.169   3.341
  953W        W71553   5.373  44.914  10.887
  954W        W71554  32.871  18.588   4.112
  955W        W71555  44.278  34.119  11.637
  956W        W71556  17.267  37.056   1.277
  957W        W71557   4.762  23.609  12.589
  958W        W71558  29.058  40.740  13.312
  959W        W71559   6.643  23.819  13.350
  960W        W71560   5.547   1.541   2.359
  961W        W71561  22.752  20.590   0.268
  962W        W71562  25.129   9.741   0.717
  963W        W71563   4.832  34.479  13.503
  964W        W71564  18.327  43.008  12.949
  965W        W71565  44.760  44.439   0.335
  966W        W71566  30.707  35.352   2.477
  967W        W71567  13.743  32.478   0.306
  968W        W71568  17.658  29.118  12.644
  969W        W71569  44.158  25.250   0.857
  970W        W71570  26.521  37.558   2.196
  971W        W71571   9.938  29.214  13.420
  972W        W71572  25.717   1.863  14.023
  973W        W71573  23.966   5.105   4.436
  974W        W71574  31.546   5.878   4.204
  975W        W71575  20.846  19.498  11.440
  976W        W71576   2.221  44.846   0.903
  977W        W71577   9.480  17.529   2.615
  978W        W71578   4.496  24.270  11.413
  979W        W71579  10.220  42.047  12.605
  980W        W71580  18.087  29.463  13.043
  981W        W71581  12.685  25.720   3.765
  982W        W71582  23.987  25.102   4.210
  983W        W71583  28.665  40.068   3.040
  984W        W71584  25.842  12.617  11.117
  985W        W71585  35.028   1.578   2.286
  986W        W71586  26.624  10.733   0.658
  987W        W71587   7.127  35.454   0.816
  988W        W71588  39.835  33.384   1.285
  989W        W71589  38.575  32.647  11.147
  990W        W71590  42.860  36.081   2.471
  991W        W71591  40.390  34.356  11.594
  992W        W71592  11.014  13.353  11.463
  993W        W71593  39.162  17.839   4.046
  994W        W71594   5.529  13.064  14.536
  995W        W71595  19.678   6.168  12.777
  996W        W71596  16.167   6.349   0.693
  997W        W71597  22.445   7.036  11.168
  998W        W71598   7.178   1.473   1.324
  999W        W71599  14.571  38.748   1.727
 1000W        W71600   6.168   9.883  14.935
 1001W        W71601   1.843  14.714  12.605
 1002W        W71602  12.272  34.795   0.169
 1003W        W71603  11.210  17.392  11.541
 1004W        W71604  16.643  20.809   3.588
 1005W        W71605  31.604  25.223   4.445
 1006W        W71606  41.081  39.900  13.358
 1007W        W71607  31.909  33.822   0.517
 1008W        W71608  37.354  20.197   2.244
 1009W        W71609  21.068  36.292  14.893
 1010W        W71610   3.498  23.171   3.578
 1011W        W71611   0.844  35.984   4.158
 1012W        W71612  36.387  25.470   4.626
 1013W        W71613  30.057  18.050  12.459
 1014W        W71614  32.452  24.799   1.462
 1015W        W71615  11.823  39.493   1.710
 1016W        W71616  26.837  31.471  11.448
 1017W        W71617  37.515  27.460   4.908
 1018W        W71618  16.707  27.670   2.211
 1019W        W71619  12.607  20.619   3.824
 1020W        W71620  42.933   6.723   0.887
 1021W        W71621  21.073  31.158  14.923
 1022W        W71622  41.885   0.078  11.665
 1023W        W71623  22.487  12.328  11.171
 1024W        W71624  24.488  13.404   2.303
 1025W        W71625  26.981  31.503   4.361
 1026W        W71626   2.687  34.362   2.306
 1027W        W71627  30.682  20.838  13.776
 1028W        W71628   5.592   7.550   3.517
 1029W        W71629  34.696  14.960   4.062
 1030W        W71630  22.289  33.105  12.899
 1031W        W71631  14.633  16.602   0.861
 1032W        W71632   4.703  38.960  12.280
 1033W        W71633  38.284  21.562  11.173
 1034W        W71634  43.179  11.984   3.772
 1035W        W71635  26.273  12.830   2.312
 1036W        W71636   6.250  23.584  14.145
 1037W        W71637  20.203  42.696   2.717
 1038W        W71638  32.489  36.134  10.787
 1039W        W71639  37.425  34.109   1.301
 1040W        W71640   2.825  19.308   2.316
 1041W        W71641  39.008  11.275   2.279
 1042W        W71642   8.850  17.776  11.359
 1043W        W71643  29.059  39.284   4.093
 1044W        W71644  36.404  22.907   2.803
 1045W        W71645  36.023  30.731   0.929
 1046W        W71646  23.489  11.983   2.903
 1047W        W71647  41.431  23.285  13.043
 1048W        W71648  34.054  20.134   4.896
 1049W        W71649  15.977   0.699   2.912
 1050W        W71650  23.178  14.569  14.394
 1051W        W71651  28.558  15.920   0.250
 1052W        W71652  12.151  39.530  13.147
 1053W        W71653  34.874  16.739  12.447
 1054W        W71654  12.401  28.425  12.892
 1055W        W71655  20.321  19.044   0.456
 1056W        W71656   6.960   9.205  12.964
 1057W        W71657   1.241  44.779   4.628
 1058W        W71658  24.213  30.271   0.457
 1059W        W71659  24.659   6.231  11.911
 1060W        W71660  39.038  41.386   4.728
 1061W        W71661  39.592  19.413   1.436
 1062W        W71662  32.955  25.066  10.779
 1063W        W71663  13.108  41.061   0.317
 1064W        W71664  40.434  31.572  11.009
 1065W        W71665   0.913  34.716   4.137
 1066W        W71666  28.420   6.370   3.257
 1067W        W71667  10.830  27.978  11.558
 1068W        W71668  15.707   8.275  10.915
 1069W        W71669   7.149  44.239   2.396
 1070W        W71670  34.159  27.514   2.008
 1071W        W71671   0.392   9.326  14.748
 1072W        W71672  11.830   2.941   2.609
 1073W        W71673   4.205  38.500   0.901
 1074W        W71674   1.795  30.882  12.532
 1075W        W71675   8.640   9.646   3.962
 1076W        W71676  40.919  27.590   0.876
 1077W        W71677  29.540  36.888  11.649
 1078W        W71678   7.215   2.348   0.759
 1079W        W71679  16.681  35.594   1.434
 1080W        W71680  17.101  21.699   2.833
 1081W        W71681  33.156  14.732  11.517
 1082W        W71682  26.765  17.650   1.811
 1083W        W71683  27.032  17.318  12.847
 1084W        W71684  44.744  33.475   5.044
 1085W        W71685   0.754  43.997  14.005
 1086W        W71686  33.873  23.996   2.351
 1087W        W71687  22.167   3.047  14.655
 1088W        W71688  34.317  31.110  12.100
 1089W        W71689   3.360  24.212   4.744
 1090W        W71690  23.336  40.897   2.183
 1091W        W71691  21.937  23.672  14.963
 1092W        W71692  21.063  28.542   3.622
 1093W        W71693  36.086  29.521   2.222
 1094W        W71694  44.278  27.752   3.192
 1095W        W71695  12.598  33.430   1.651
 1096W        W71696  17.594  40.713  13.046
 1097W        W71697  10.688  20.110  14.740
 1098W        W71698   7.085  25.142  13.370
 1099W        W71699   5.487   9.860   2.773
 1100W        W71700  23.482  29.524   2.330
 1101W        W71701   4.528  29.073   4.624
 1102W        W71702   8.465  43.776   2.391
 1103W        W71703  43.168  19.006   0.929
 1104W        W71704  24.167   9.167   1.090
 1105W        W71705   6.380   7.267   0.726
 1106W        W71706  44.349  23.177  12.559
 1107W        W71707  34.427  11.364   2.761
 1108W        W71708   6.705  20.393  12.509
 1109W        W71709  34.986  24.859   0.892
 1110W        W71710  28.614  34.865  13.442
 1111W        W71711  20.976  40.836  12.900
 1112W        W71712  15.571  25.215   1.790
 1113W        W71713  26.974  23.048   1.801
 1114W        W71714   9.904  13.280   1.292
 1115W        W71715  15.845  32.581   4.281
 1116W        W71716  44.155  31.447  11.152
 1117W        W71717  25.568  38.412   1.240
 1118W        W71718   0.838   8.672   0.253
 1119W        W71719  23.349  15.522  14.988
 1120W        W71720  41.531  24.978  12.504
 1121W        W71721  13.175  35.858   2.915
 1122W        W71722  32.510  29.213   4.628
 1123W        W71723  11.787  34.938   0.020
 1124W        W71724  18.579   5.824  12.889
 1125W        W71725   8.193  29.427  12.871
 1126W        W71726  13.298  21.010   9.922
 1127W        W71727  38.127  35.470  10.608
 1128W        W71728  33.468  19.738   1.316
 1129W        W71729  13.290  35.085   0.333
 1130W        W71730  38.904   0.551   1.433
 1131W        W71731  32.762  36.257  12.017
 1132W        W71732  14.715  38.503  11.999
 1133W        W71733  44.015  29.027   2.346
 1134W        W71734  12.866  44.881   3.082
 1135W        W71735   0.001  25.908  13.316
 1136W        W71736  22.738   1.777   5.276
 1137W        W71737  39.104   2.966   0.435
 1138W        W71738  29.097  37.276   0.924
 1139W        W71739  16.680  17.044   3.317
 1140W        W71740  37.018  29.860  13.574
 1141W        W71741   9.667  42.882  11.959
 1142W        W71742  20.191   2.511   3.389
 1143W        W71743  19.706   6.641  13.063
 1144W        W71744  30.239   7.246   4.224
 1145W        W71745   8.714  18.589  12.597
 1146W        W71746  24.897  21.250   3.529
 1147W        W71747  10.719  15.964  11.973
 1148W        W71748  38.849  26.326  11.393
 1149W        W71749   3.422  17.094  14.941
 1150W        W71750  42.433  43.848  13.141
 1151W        W71751  17.156   5.156   2.360
 1152W        W71752   3.391  42.030   3.655
 1153W        W71753   1.520  22.740   1.903
 1154W        W71754  22.276  20.814   3.862
 1155W        W71755  30.034  28.481   0.828
 1156W        W71756  27.628  39.065   3.307
 1157W        W71757  18.541   0.906   0.859
 1158W        W71758  23.180  26.636   4.013
 1159W        W71759  26.545   3.844   2.675
 1160W        W71760  14.354  13.217   2.873
 1161W        W71761  36.081  28.015  13.358
 1162W        W71762  10.344  28.630  11.072
 1163W        W71763   3.188   9.343   4.538
 1164W        W71764  28.408   0.973  11.011
 1165W        W71765  23.230  21.192  12.572
 1166W        W71766  40.622  25.332   2.195
 1167W        W71767   5.454  32.626   4.197
 1168W        W71768  28.606   0.726   0.438
 1169W        W71769  39.323  20.453  12.969
 1170W        W71770  34.501  40.324  12.691
 1171W        W71771   3.738  31.605  13.495
 1172W        W71772  36.524   1.200  11.115
 1173W        W71773  17.138  34.235  11.857
 1174W        W71774  10.638  31.990  14.928
 1175W        W71775  18.225  24.409   5.107
 1176W        W71776  31.517  24.782  12.172
 1177W        W71777  43.084  23.161   3.465
 1178W        W71778  29.956  23.833  14.925
 1179W        W71779  16.789  38.050  14.890
 1180W        W71780  43.365  36.202   2.656
 1181W        W71781   2.669  34.916   1.434
 1182W        W71782  25.321   0.065  11.419
 1183W        W71783  24.539  19.780   3.792
 1184W        W71784  42.007  16.507   1.847
 1185W        W71785  26.599   8.272  14.426
 1186W        W71786  14.840  32.504   2.191
 1187W        W71787  28.543  15.294  10.235
 1188W        W71788  38.069  36.584   4.483
 1189W        W71789  35.181  42.443  12.511
 1190W        W71790  20.567  38.389  11.712
 1191W        W71791   9.818  32.481  12.643
 1192W        W71792  30.570  15.649   1.884
 1193W        W71793   1.934  31.133  14.081
 1194W        W71794  42.961   8.886  10.687
 1195W        W71795  14.830  37.522   0.404
 1196W        W71796  32.856  30.779  10.851
 1197W        W71797  10.896   3.851   0.917
 1198W        W71798   2.354  35.853  13.856
 1199W        W71799  33.071   1.428   3.742
 1200W        W71800   7.541  15.642   1.750
 1201W        W71801  19.090  11.970   0.847
 1202W        W71802  38.359   4.420   4.568
 1203W        W71803  21.179  13.063   0.890
 1204W        W71804  12.686  26.401  12.089
 1205W        W71805  18.353  29.978  13.042
 1206W        W71806   3.349  31.054  11.386
 1207W        W71807   7.020   3.726   4.369
 1208W        W71808  25.700   4.814   2.744
 1209W        W71809  33.877  17.083  12.145
 1210W        W71810  12.914  22.198   1.452
 1211W        W71811   0.367  17.250  14.405
 1212W        W71812  21.246  11.601  14.458
 1213W        W71813   9.849  42.538  12.875
 1214W        W71814   8.864  31.909   2.393
 1215W        W71815  18.852  39.486   1.989
 1216W        W71816  19.169  21.728   1.945
 1217W        W71817  27.005  30.391  12.521
 1218W        W71818  33.108   6.833   1.262
 1219W        W71819  21.046   9.998   1.314
 1220W        W71820  19.758  33.800  13.094
 1221W        W71821  14.346  25.549   1.419
 1222W        W71822  44.671  43.796   4.674
 1223W        W71823  16.565  41.905   0.528
 1224W        W71824  41.488   2.387  11.752
 1225W        W71825  14.123  43.800   0.830
 1226W        W71826  29.383  17.059  13.065
 1227W        W71827   4.077  32.863  12.486
 1228W        W71828  21.970  18.254   0.511
 1229W        W71829  17.069  36.844  13.470
 1230W        W71830  23.213  17.264   0.263
 1231W        W71831  25.906  27.651  14.230
 1232W        W71832  21.472   0.810  11.359
 1233W        W71833  44.151  36.844   1.227
 1234W        W71834  23.532  19.358   1.967
 1235W        W71835  29.084  19.120  11.811
 1236W        W71836  31.933   3.958  12.657
 1237W        W71837   1.840  25.672   0.792
 1238W        W71838  43.729  28.456   4.124
 1239W        W71839  28.280  28.020  11.024
 1240W        W71840   6.814  15.167  12.931
 1241W        W71841   6.207  10.145   0.881
 1242W        W71842  14.796   6.351  12.403
 1243W        W71843  12.270  27.209  13.803
 1244W        W71844   0.955   6.437  12.773
 1245W        W71845   3.838  19.316   3.756
 1246W        W71846  28.938  23.095   3.107
 1247W        W71847  11.765  20.496   3.873
 1248W        W71848  21.666  10.020   0.238
 1249W        W71849  39.426   7.213  11.602
 1250W        W71850  28.457   1.915   4.214
 1251W        W71851  34.624   2.775   1.985
 1252W        W71852   4.897  22.856   4.289
 1253W        W71853  31.670  16.112  11.019
 1254W        W71854   9.392  12.327   4.845
 1255W        W71855   0.897  29.929  14.632
 1256W        W71856  40.338  22.952  10.759
 1257W        W71857  19.214  35.278   1.598
 1258W        W71858  40.995  12.179  13.775
 1259W        W71859  18.554  16.248  12.143
 1260W        W71860  40.447  37.033  13.984
 1261W        W71861  26.733  38.960  11.341
 1262W        W71862  12.165  38.749   0.781
 1263W        W71863  42.483  27.477   2.658
 1264W        W71864   4.396   0.220   0.206
 1265W        W71865  40.880  23.213   1.879
 1266W        W71866  16.146   2.240   3.708
 1267W        W71867  44.287   2.369   1.229
 1268W        W71868  24.705  28.794   1.816
 1269W        W71869  44.630   3.198  11.621
 1270W        W71870  43.520  34.589  14.575
 1271W        W71871  18.515  11.013  12.170
 1272W        W71872   7.410  43.594  11.210
 1273W        W71873  10.227  27.170   1.007
 1274W        W71874  23.964  35.165  14.325
 1275W        W71875  34.060  32.738  11.096
 1276W        W71876  30.062   2.083   2.260
 1277W        W71877  44.226  20.690   4.591
 1278W        W71878  11.964  13.614  12.468
 1279W        W71879   1.889  43.276   0.031
 1280W        W71880  24.002  36.151   4.515
 1281W        W71881   5.604  43.443  13.017
 1282W        W71882  28.733   4.079  13.886
 1283W        W71883   2.390  19.645  14.056
 1284W        W71884   3.730  20.761  14.250
 1285W        W71885  18.292   2.408   2.223
 1286W        W71886   3.665  34.404   0.575
 1287W        W71887  44.463   7.781  12.155
 1288W        W71888  28.511  41.302  11.648
 1289W        W71889  20.572  34.372   1.680
 1290W        W71890  14.111  12.281  12.924
 1291W        W71891  22.812  28.618  14.209
 1292W        W71892  13.125  16.838  10.788
 1293W        W71893   2.398   6.348   4.567
 1294W        W71894  44.622  24.694  13.313
 1295W        W71895  42.726  10.363  12.092
 1296W        W71896  25.636  37.428  13.308
 1297W        W71897   0.947  27.759  12.117
 1298W        W71898   5.484  43.482   1.275
 1299W        W71899  42.317   5.046   3.625
 1300W        W71900   4.201  39.990  11.063
 1301W        W71901   9.315   7.175   2.315
 1302W        W71902  44.987  35.408  12.295
 1303W        W71903  30.907   6.623  11.036
 1304W        W71904  18.154   7.568   0.966
 1305W        W71905  20.054  28.416   0.194
 1306W        W71906   0.276   5.123  12.655
 1307W        W71907  30.956  25.119   1.270
 1308W        W71908  17.110  35.534  11.659
 1309W        W71909  36.153  30.892   2.842
 1310W        W71910  22.177  40.025  13.370
 1311W        W71911  28.536  39.014   3.870
 1312W        W71912  41.948  26.540  11.596
 1313W        W71913  34.300  43.997   0.905
 1314W        W71914  27.942  41.570   4.537
 1315W        W71915  26.229  35.882  13.788
 1316W        W71916  43.081  16.356  12.609
 1317W        W71917  27.461  16.349   4.387
 1318W        W71918  17.543  44.341   1.911
 1319W        W71919  40.614  11.306   3.719
 1320W        W71920  22.320  44.599   2.783
 1321W        W71921   4.771  19.587  14.903
 1322W        W71922   2.431   0.248  12.932
 1323W        W71923   6.002  32.680  11.152
 1324W        W71924  36.256  42.957   2.242
 1325W        W71925   2.386   6.181  10.915
 1326W        W71926   4.457   0.714   0.344
 1327W        W71927   8.312  42.161   0.327
 1328W        W71928   7.753   7.234   5.077
 1329W        W71929  43.272  22.616  10.748
 1330W        W71930  21.659  12.415  12.912
 1331W        W71931   5.200  23.069   1.152
 1332W        W71932   2.799  13.718   3.603
 1333W        W71933  24.028  11.489   9.935
 1334W        W71934  30.856  16.066   1.761
 1335W        W71935  13.347  17.239   3.010
 1336W        W71936  21.939  37.237   0.363
 1337W        W71937  37.932   9.712  10.957
 1338W        W71938  37.900  23.105  13.072
 1339W        W71939  37.698  42.826   2.729
 1340W        W71940   0.764  18.194  13.363
 1341W        W71941  34.420  32.661  12.954
 1342W        W71942  24.209  21.982   0.065
 1343W        W71943   2.472  44.436   4.595
 1344W        W71944  14.825   3.464  13.936
 1345W        W71945  12.061   4.901   0.806
 1346W        W71946   7.299  41.483  10.634
 1347W        W71947   3.363   8.427  13.753
 1348W        W71948  32.857  20.587   4.226
 1349W        W71949  32.954  10.812  13.310
 1350W        W71950  42.583  20.243   4.810
 1351W        W71951  25.524  12.225  14.835
 1352W        W71952  12.448  12.660   4.141
 1353W        W71953  38.062  16.742  14.939
 1354W        W71954  30.853  29.637  10.803
 1355W        W71955  18.746  29.164   5.081
 1356W        W71956  42.851  30.582   3.314
 1357W        W71957  21.639  23.525   2.387
 1358W        W71958  21.523  38.075  10.705
 1359W        W71959  16.532  15.708   0.445
 1360W        W71960  37.018  10.214  10.647
 1361W        W71961  27.058  35.739   3.830
 1362W        W71962   5.404  38.918   4.481
 1363W        W71963  39.358   9.397   4.891
 1364W        W71964  35.045  37.500  12.472
 1365W        W71965  19.175  17.672  13.508
 1366W        W71966   5.780  19.848   2.407
 1367W        W71967  20.595  25.929  14.913
 1368W        W71968  36.776  44.870  12.136
 1369W        W71969   4.627   1.170   4.663
 1370W        W71970  42.688  18.116   0.919
 1371W        W71971  25.725  32.700  14.373
 1372W        W71972   0.374  30.241  11.523
 1373W        W71973   6.635   7.767  11.095
 1374W        W71974  35.887   8.111  13.691
 1375W        W71975  25.566  12.712   2.763
 1376W        W71976  17.616   3.696  14.817
 1377W        W71977  25.480   2.303   4.605
 1378W        W71978   4.975  38.541  12.071
 1379W        W71979  13.091  23.216  13.082
 1380W        W71980   1.517  14.950  12.084
 1381W        W71981  22.954  27.987  12.787
 1382W        W71982  26.054  15.965  11.908
 1383W        W71983  39.779  27.074   2.329
 1384W        W71984   8.755  19.644  14.547
 1385W        W71985  12.409  14.405   0.931
 1386W        W71986  22.900  33.431   4.034
 1387W        W71987  29.068  19.688  12.462
 1388W        W71988   0.996  23.131  10.438
 1389W        W71989   4.229  43.246  14.556
 1390W        W71990   7.331  28.400  11.889
 1391W        W71991  38.111  17.153   1.294
 1392W        W71992  27.434  40.754   2.709
 1393W        W71993  41.081  31.872   2.224
 1394W        W71994  37.789  37.892  14.598
 1395W        W71995  40.022   0.695   0.341
 1396W        W71996   6.087  35.947   2.913
 1397W        W71997  32.020  16.017   1.369
 1398W        W71998  21.778  33.591   0.480
 1399W        W71999  12.924  32.406  12.417
 1400W        W72000  40.081  33.698   4.122
 1401W        W72001  28.957   0.049  11.076
 1402W        W72002  43.739  23.761   4.592
 1403W        W72003  30.977  41.272  11.341
 1404W        W72004   7.999  17.170  10.652
 1405W        W72005   3.746  18.153   4.647
 1406W        W72006  20.061   1.562  12.424
 1407W        W72007   0.915   7.267  12.622
 1408W        W72008   2.766  15.281   4.175
 1409W        W72009  12.293  31.916  13.008
 1410W        W72010  30.208  35.019  13.836
 1411W        W72011   6.713  42.264  13.264
 1412W        W72012  19.582  24.008   0.800
 1413W        W72013  24.620  35.010  11.578
 1414W        W72014  44.072  16.374   1.071
 1415W        W72015  16.410  34.461   2.559
 1416W        W72016  37.208  16.580  12.941
 1417W        W72017  27.919   7.474  10.700
 1418W        W72018  38.381  24.834   1.960
 1419W        W72019  11.716   3.973  10.802
 1420W        W72020  31.990  37.440  13.992
 1421W        W72021  43.033  43.273   2.367
 1422W        W72022  42.390   6.520   2.448
 1423W        W72023  21.125  33.287  11.182
 1424W        W72024  29.586   3.356   4.623
 1425W        W72025  30.183  17.682   2.655
 1426W        W72026  32.034   0.306  10.619
 1427W        W72027  25.135   1.293   3.276
 1428W        W72028  33.161  35.998   2.627
 1429W        W72029   1.982  16.631   1.267
 1430W        W72030  12.346   8.407  11.560
 1431W        W72031  10.997  31.584   4.106
 1432W        W72032  40.527  29.722   2.666
 1433W        W72033  10.276   0.488   9.926
 1434W        W72034  14.900   8.850   0.355
 1435W        W72035  18.232  41.947   4.688
 1436W        W72036  24.728  15.553  12.045
 1437W        W72037  42.489  16.129  11.643
 1438W        W72038  17.079  13.782  13.394
 1439W        W72039  15.684  39.922  13.582
 1440W        W72040  35.611  31.552   0.960
 1441W        W72041  12.803  22.490   0.705
 1442W        W72042  13.348  21.448   4.187
 1443W        W72043  42.013  11.357  12.502
 1444W        W72044  21.584  16.106  13.336
 1445W        W72045  25.734  17.360   3.861
 1446W        W72046   9.721  29.142   0.778
 1447W        W72047  16.167   1.443  14.956
 1448W        W72048  26.802   0.284   0.968
 1449W        W72049  26.979   5.616  12.142
 1450W        W72050  11.115  24.356   1.715
 1451W        W72051  43.075  12.623  12.006
 1452W        W72052  15.872   5.516   2.240
 1453W        W72053  26.851   5.377   4.307
 1454W        W72054  12.346  38.492  11.303
 1455W        W72055   2.753   9.227   0.768
 1456W        W72056  30.487   1.394  13.262
 1457W        W72057  33.678   4.716  14.687
 1458W        W72058  31.407  26.066   4.382
 1459W        W72059  15.079  17.613   0.866
 1460W        W72060   9.765  28.885   0.304
 1461W        W72061  16.723  13.706  12.953
 1462W        W72062   1.042  42.742  12.546
 1463W        W72063  12.809   9.368  12.673
 1464W        W72064   9.058   4.381   2.798
 1465W        W72065   0.234   4.011   0.342
 1466W        W72066  32.942   5.926  11.959
 1467W        W72067   1.859  32.890  10.547
 1468W        W72068  33.122   9.141  14.935
 1469W        W72069  19.955  33.005   0.402
 1470W        W72070  43.964   0.717  11.938
 1471W        W72071   0.241  15.981  14.671
 1472W        W72072  25.938  41.472  14.805
 1473W        W72073  32.767  33.854  13.378
 1474W        W72074  19.172  31.221   1.314
 1475W        W72075  14.778   3.944  13.342
 1476W        W72076  30.353  29.625  10.983
 1477W        W72077  16.392   8.681   3.549
 1478W        W72078  24.583  31.794  12.076
 1479W        W72079  37.832  32.202  13.040
 1480W        W72080   0.519  33.290   5.017
 1481W        W72081  21.101  15.196   2.943
 1482W        W72082  22.477  25.794   1.754
 1483W        W72083   1.449  12.583  13.734
 1484W        W72084  41.894  12.573   2.286
 1485W        W72085  16.623   0.676   0.067
 1486W        W72086  15.403   2.459  14.010
 1487W        W72087  18.831  19.161  13.643
 1488W        W72088   8.794  13.771   2.459
 1489W        W72089  35.103  20.861   3.056
 1490W        W72090  40.892   9.585   3.661
 1491W        W72091  15.998  15.318   1.199
 1492W        W72092   6.340  18.793  11.607
 1493W        W72093  13.868  36.867  10.281
 1494W        W72094  38.342  38.905   4.662
 1495W        W72095  29.869  43.943  13.522
 1496W        W72096  27.495   2.249  13.591
 1497W        W72097  14.707  18.827  13.533
 1498W        W72098  11.671  21.325  13.992
 1499W        W72099  34.523  26.139  11.462
 1500W        W72100  39.836   3.707   3.961
 1501W        W72101  11.747   1.210   1.272
 1502W        W72102  17.310  29.182  10.691
 1503W        W72103  39.379  18.150  13.799
 1504W        W72104  34.935  41.774   2.810
 1505W        W72105   1.302  23.986  11.544
 1506W        W72106  14.587  11.296   3.742
 1507W        W72107  30.273  35.348   3.248
 1508W        W72108  27.551  22.635  12.648
 1509W        W72109  14.748  41.105  13.615
 1510W        W72110  44.109  19.996  11.172
 1511W        W72111   9.970  27.613   9.950
 1512W        W72112   9.195  39.161   4.718
 1513W        W72113  28.658  15.030  12.364
 1514W        W72114  38.445  35.889  10.663
 1515W        W72115  10.395  40.063   3.171
 1516W        W72116  21.670  19.664  10.907
 1517W        W72117  36.949  23.219   1.862
 1518W        W72118  27.510  21.163   0.011
 1519W        W72119  34.424  42.135   0.803
 1520W        W72120  38.123  33.863   3.727
 1521W        W72121  25.237  15.158  10.162
 1522W        W72122  13.309  18.012  14.128
 1523W        W72123  22.255  29.954   4.013
 1524W        W72124  24.801  15.044   4.833
 1525W        W72125   7.182   0.277  12.889
 1526W        W72126  38.318  21.035  11.155
 1527W        W72127  35.565  39.767  14.338
 1528W        W72128   5.981  37.463   1.888
 1529W        W72129  42.438  21.813  10.726
 1530W        W72130   6.650  15.693  14.263
 1531W        W72131  24.055  35.222   4.687
 1532W        W72132  23.707  29.087   2.122
 1533W        W72133  16.352  43.419  12.616
 1534W        W72134   8.854  20.324  13.930
 1535W        W72135   7.040  39.882   2.735
 1536W        W72136  34.520  22.263   1.240
 1537W        W72137  15.224  21.102   1.876
 1538W        W72138  25.615  14.088  12.836
 1539W        W72139  11.403  18.623   0.361
 1540W        W72140  30.467  18.073  14.149
 1541W        W72141   6.396   0.010   1.204
 1542W        W72142  14.809  23.234   4.531
 1543W        W72143  12.286  26.801   3.226
 1544W        W72144  14.582  18.797   3.240
 1545W        W72145  11.965  25.527   1.980
 1546W        W72146  20.944   7.812  12.019
 1547W        W72147   6.473   5.852  10.140
 1548W        W72148  26.047  36.060   2.393
 1549W        W72149   2.547  18.293   3.216
 1550W        W72150  15.791  10.618  13.301
 1551W        W72151  25.896   4.701   4.634
 1552W        W72152  41.563  37.938   3.294
 1553W        W72153  19.017  42.602   4.510
 1554W        W72154  31.363  31.368   2.230
 1555W        W72155  10.279   2.831  10.591
 1556W        W72156  33.858  12.668   0.398
 1557W        W72157  29.173  21.707   3.260
 1558W        W72158  35.559  15.526   0.892
 1559W        W72159  27.593   6.309  11.955
 1560W        W72160  34.821  31.131  12.959
 1561W        W72161  30.149  42.774   1.212
 1562W        W72162  33.582  20.749  12.440
 1563W        W72163   7.746  19.463   2.837
 1564W        W72164  17.901   2.398   2.645
 1565W        W72165  14.366  24.727   1.392
 1566W        W72166  24.167   6.665  14.009
 1567W        W72167   8.743  28.591  12.493
 1568W        W72168  19.665  10.378   0.324
 1569W        W72169   5.437  14.766   2.406
 1570W        W72170  17.313  13.548   3.943
 1571W        W72171   3.281  31.632   2.743
 1572W        W72172  38.013  24.041   1.686
 1573W        W72173   3.465  14.226   4.302
 1574W        W72174   1.993  30.584  14.188
 1575W        W72175   0.130   0.900   4.882
 1576W        W72176  15.272  29.176  14.823
 1577W        W72177  41.888  16.208  11.970
 1578W        W72178  26.532   9.157   5.299
 1579W        W72179  27.979  35.953   3.266
 1580W        W72180   9.746   8.729   0.391
 1581W        W72181   2.896  19.860   4.569
 1582W        W72182   8.444  10.328   2.020
 1583W        W72183   5.449   6.483  13.779
 1584W        W72184  42.440  16.579   2.440
 1585W        W72185  19.438  41.748   2.774
 1586W        W72186  26.559  29.901  13.797
 1587W        W72187   9.625  27.581  13.788
 1588W        W72188  42.258  31.418  11.135
 1589W        W72189  13.134  31.601  10.331
 1590W        W72190   8.111  44.414  11.065
 1591W        W72191  25.472  18.212  14.323
 1592W        W72192   8.710  36.996  14.953
 1593W        W72193  13.593  27.523   0.024
 1594W        W72194  36.697  28.553   3.272
 1595W        W72195  10.621  30.807   2.837
 1596W        W72196  42.849  34.906   0.126
 1597W        W72197  40.378  37.949   4.297
 1598W        W72198  28.002  30.910   4.691
 1599W        W72199  28.818  20.834  12.599
 1600W        W72200   0.066   0.839   3.652
 1601W        W72201  33.943  14.624   1.235
 1602W        W72202  23.595  12.964   2.575
 1603W        W72203  33.046   2.226   0.982
 1604W        W72204  39.960  19.133   1.697
 1605W        W72205  29.221  22.485  11.886
 1606W        W72206  13.638  10.246  12.416
 1607W        W72207  21.448   7.231   3.639
 1608W        W72208   9.459  14.094   0.389
 1609W        W72209  13.083  31.650   2.338
 1610W        W72210   2.952  11.890  11.166
 1611W        W72211  18.668  43.472   1.755
 1612W        W72212   5.024  13.604   3.375
 1613W        W72213  38.904   9.351   4.192
 1614W        W72214  42.890  37.841   0.790
 1615W        W72215  29.890   8.354  10.701
 1616W        W72216   7.800  30.299  12.375
 1617W        W72217   8.868   1.784  12.875
 1618W        W72218  14.675  37.238   3.549
 1619W        W72219  24.628  19.796  12.008
 1620W        W72220  11.342  44.946   0.379
 1621W        W72221  35.476  25.073   3.902
 1622W        W72222   5.265   9.630   1.174
 1623W        W72223  29.636  42.810   0.073
 1624W        W72224  16.663   9.362   3.640
 1625W        W72225  43.745  43.573  13.271
 1626W        W72226  29.484  24.019   5.083
 1627W        W72227   3.117   3.133   1.980
 1628W        W72228  22.565  20.133  12.692
 1629W        W72229  32.082  10.859   0.848
 1630W        W72230   2.235  10.736   0.404
 1631W        W72231   5.325  30.267   1.075
 1632W        W72232  17.393  10.056   0.798
 1633W        W72233   2.202  28.940  11.934
 1634W        W72234  34.248   4.694  13.064
 1635W        W72235   6.120  12.674   1.360
 1636W        W72236  44.860  13.336  12.483
 1637W        W72237  38.912   0.397  11.129
 1638W        W72238  23.570   3.676  12.103
 1639W        W72239  23.263  39.233  14.584
 1640W        W72240  27.472  41.321  14.778
 1641W        W72241   9.718  12.221   1.930
 1642W        W72242  38.567   9.645  14.229
 1643W        W72243  26.677  10.896   1.139
 1644W        W72244  32.361   5.980  12.981
 1645W        W72245  17.883  14.243  11.748
 1646W        W72246  27.417  27.624   3.232
 1647W        W72247  28.505  11.741   3.147
 1648W        W72248   3.578  35.390   0.224
 1649W        W72249  32.865   0.546  11.582
 1650W        W72250   2.827  38.717   0.372
 1651W        W72251  26.671  25.906   0.840
 1652W        W72252  43.214   5.023  12.011
 1653W        W72253  37.422   3.251  13.408
 1654W        W72254  27.179  16.240  12.813
 1655W        W72255  42.390   8.969   2.674
 1656W        W72256  33.374  12.603   3.827
 1657W        W72257  33.714  11.086   2.227
 1658W        W72258  42.401  34.188   4.615
 1659W        W72259   3.063  35.131  11.498
 1660W        W72260   7.269  13.024   1.950
 1661W        W72261  16.716  15.786  13.967
 1662W        W72262  15.337  31.123   3.296
 1663W        W72263  29.730  42.726   1.528
 1664W        W72264  39.750  43.721   0.659
 1665W        W72265   4.507   8.800  12.462
 1666W        W72266  23.201  22.586   1.946
 1667W        W72267  31.995  30.950   0.046
 1668W        W72268  22.689  43.545   4.935
 1669W        W72269  10.435  42.009   3.611
 1670W        W72270  32.489   4.244  14.051
 1671W        W72271  30.389  10.663  10.950
 1672W        W72272   6.882  44.671  14.422
 1673W        W72273   0.565   9.226  13.845
 1674W        W72274  19.573  20.781  10.720
 1675W        W72275  36.902  16.211  12.736
 1676W        W72276   2.849  33.497  11.951
 1677W        W72277  23.331  40.002   4.487
 1678W        W72278  28.011  38.566  11.995
 1679W        W72279  14.317   5.211   2.693
 1680W        W72280  24.958  31.131  13.403
 1681W        W72281  22.532   1.757  14.351
 1682W        W72282  36.881  32.888   4.729
 1683W        W72283  16.858   8.511   0.726
 1684W        W72284  28.378   9.643  11.130
 1685W        W72285  14.063  39.354  11.657
 1686W        W72286   1.171   1.734  14.073
 1687W        W72287  31.852  11.117  12.584
 1688W        W72288  40.377  22.578   0.168
 1689W        W72289  11.125   0.878   2.279
 1690W        W72290   4.845  24.230   4.173
 1691W        W72291  14.076  38.958  11.957
 1692W        W72292  20.681  29.696   2.792
 1693W        W72293  23.651   1.898   2.312
 1694W        W72294  41.940   7.413   1.741
 1695W        W72295  34.947  44.982   3.780
 1696W        W72296  26.437  44.797   0.507
 1697W        W72297  13.375   2.171  12.490
 1698W        W72298  33.625  33.196   4.334
 1699W        W72299  18.839   6.906   0.422
 1700W        W72300  32.351  32.551   0.359
 1701W        W72301   3.852  22.887  10.514
 1702W        W72302  27.531  40.535  10.068
 1703W        W72303  27.175  22.925   1.333
 1704W        W72304   9.221  21.591  12.501
 1705W        W72305  41.572  26.214  11.411
 1706W        W72306  12.263  40.440  12.027
 1707W        W72307   7.518  24.248  12.402
 1708W        W72308  10.011   6.636  12.469
 1709W        W72309   8.654  23.223  13.250
 1710W        W72310   8.155  14.915   3.504
 1711W        W72311  42.747  14.730  11.386
 1712W        W72312  32.433  15.921   2.651
 1713W        W72313  41.362   6.461   4.002
 1714W        W72314  40.960   1.793   3.575
 1715W        W72315  24.311  36.083   0.929
 1716W        W72316  29.432  19.702  10.786
 1717W        W72317   4.375  12.649  14.901
 1718W        W72318  27.112  13.879  11.182
 1719W        W72319  32.160  15.668   2.233
 1720W        W72320  12.154   6.120  13.977
 1721W        W72321  32.484  14.582  11.894
 1722W        W72322   3.890  23.310   3.890
 1723W        W72323  42.793  12.709  11.595
 1724W        W72324  28.910   2.252  14.291
 1725W        W72325  20.067   2.867  13.902
 1726W        W72326  39.862   4.358  13.958
 1727W        W72327  15.688  43.579   2.178
 1728W        W72328  29.035  32.403  13.251
 1729W        W72329   4.866  40.871  13.072
 1730W        W72330  11.868  39.065   2.917
 1731W        W72331  19.536  38.433   1.037
 1732W        W72332  26.092  40.821  11.032
 1733W        W72333   2.270   0.409  12.205
 1734W        W72334   1.452  30.533   3.391
 1735W        W72335  19.247  36.420  11.608
 1736W        W72336  29.990  35.274  14.941
 1737W        W72337  29.459  12.743   4.711
 1738W        W72338  10.441  43.501  14.966
 1739W        W72339  25.623  12.511   0.395
 1740W        W72340  12.904  29.957  11.041
 1741W        W72341  11.329   6.629   0.004
 1742W        W72342  43.639  11.659   4.779
 1743W        W72343   9.173  44.393  14.976
 1744W        W72344  42.563  29.241  14.448
 1745W        W72345  20.717   6.096   3.782
 1746W        W72346  21.562  28.053  12.945
 1747W        W72347  34.120  26.172   0.177
 1748W        W72348  32.016  23.718   1.907
 1749W        W72349  34.128  23.527  12.574
 1750W        W72350   6.286  40.955  13.563
 1751W        W72351  18.240  32.973  10.837
 1752W        W72352   6.408  36.736  14.400
 1753W        W72353  36.347  20.192  14.935
 1754W        W72354  14.632   5.681  14.425
 1755W        W72355  29.651  18.303   2.238
 1756W        W72356   8.614   1.787   1.798
 1757W        W72357  42.013  16.854   1.471
 1758W        W72358   9.189  28.035  11.375
 1759W        W72359  41.756  16.801  10.764
 1760W        W72360   0.382  28.950  13.305
 1761W        W72361  13.027  23.130   2.187
 1762W        W72362  18.546   8.298   1.678
 1763W        W72363  26.740   1.476  12.975
 1764W        W72364   6.774  13.892   2.827
 1765W        W72365  24.778  15.613  13.903
 1766W        W72366   1.557  20.212   0.851
 1767W        W72367  34.075  13.903   3.649
 1768W        W72368  44.501   3.723   2.268
 1769W        W72369  34.076   4.758   0.442
 1770W        W72370   3.393  44.051  13.375
 1771W        W72371  19.171  17.592   2.732
 1772W        W72372  14.083  44.562   2.843
 1773W        W72373  33.314  44.474  12.911
 1774W        W72374  16.577   5.150   1.559
 1775W        W72375  17.029  11.762   4.607
 1776W        W72376   4.424  16.205  11.762
 1777W        W72377  11.803  40.450  10.507
 1778W        W72378  37.135  41.422  10.767
 1779W        W72379  29.584  29.677   0.058
 1780W        W72380  33.398  30.417   4.503
 1781W        W72381  33.777  26.753   2.245
 1782W        W72382  11.412  30.924   1.377
 1783W        W72383   8.550   6.297  14.934
 1784W        W72384  12.193  20.615   2.114
 1785W        W72385  41.301   0.885  14.093
 1786W        W72386  14.789  20.054   1.291
 1787W        W72387  21.127  44.462  13.257
 1788W        W72388   2.879  38.870  14.514
 1789W        W72389  44.394  41.759  10.490
 1790W        W72390  18.864  42.559   1.004
 1791W        W72391  31.634   4.377  14.739
 1792W        W72392  20.294  16.731   4.374
 1793W        W72393  33.518  40.833  10.946
 1794W        W72394  25.701  43.834   2.543
 1795W        W72395  29.487  29.902   4.564
 1796W        W72396  14.691  20.550  14.340
 1797W        W72397   4.268  22.967  13.842
 1798W        W72398  39.576  30.818  11.726
 1799W        W72399  14.155  14.956  12.033
 1800W        W72400  34.139  15.710   1.398
 1801W        W72401  14.178  42.010   1.558
 1802W        W72402  24.225   3.965   3.364
 1803W        W72403  22.144  32.383  14.337
 1804W        W72404   2.196  21.255   2.868
 1805W        W72405  20.298  34.903  12.384
 1806W        W72406  10.898  18.834  11.145
 1807W        W72407  23.555  12.044  11.922
 1808W        W72408  33.017  23.640   1.655
 1809W        W72409   7.642  13.598  12.530
 1810W        W72410  34.470  32.334   4.344
 1811W        W72411  29.620  27.421  13.115
 1812W        W72412  41.707   0.269  14.982
 1813W        W72413  30.092  25.558   1.267
 1814W        W72414  19.563  32.487  11.476
 1815W        W72415   7.293   3.992  13.388
 1816W        W72416  24.648  18.226  11.124
 1817W        W72417  37.144   9.402  10.769
 1818W        W72418  28.419   4.483  13.999
 1819W        W72419   9.783  12.330   2.980
 1820W        W72420  13.310  39.904   4.789
 1821W        W72421  16.361  35.996   4.261
 1822W        W72422  20.737  44.585   2.870
 1823W        W72423  33.963  11.390  10.813
 1824W        W72424  30.439   9.258  11.595
 1825W        W72425   9.122  15.542  12.451
 1826W        W72426   0.367  20.140   1.203
 1827W        W72427   4.320  25.884  12.236
 1828W        W72428  14.719  24.823  13.392
 1829W        W72429   8.234  20.939   0.534
 1830W        W72430  17.726  31.585  14.428
 1831W        W72431   2.417  16.655  14.897
 1832W        W72432   7.822  18.186   4.937
 1833W        W72433  41.294  31.728  13.074
 1834W        W72434   2.554  12.419   3.696
 1835W        W72435  34.181   5.395   0.941
 1836W        W72436   7.431  34.066  13.034
 1837W        W72437  36.118   7.265  14.537
 1838W        W72438  19.929  35.025  14.501
 1839W        W72439  24.530  33.996   4.701
 1840W        W72440  34.161  10.847   2.445
 1841W        W72441  36.252   3.310  10.641
 1842W        W72442   3.998  41.270   2.222
 1843W        W72443  20.117  19.598   3.841
 1844W        W72444  10.822   0.053  11.412
 1845W        W72445  40.581   8.879   3.261
 1846W        W72446  30.916  21.347   0.504
 1847W        W72447  38.922  10.344  14.078
 1848W        W72448   2.023  35.521   1.441
 1849W        W72449  31.421   4.707  12.558
 1850W        W72450  26.025  35.437   0.445
 1851W        W72451  14.710  10.602  10.425
 1852W        W72452  31.139  42.285  11.585
 1853W        W72453  40.816  22.245  11.611
 1854W        W72454  41.245  33.912  10.706
 1855W        W72455  25.262  26.955  14.455
 1856W        W72456  28.994   1.233  12.361
 1857W        W72457  21.623  27.969   4.602
 1858W        W72458  29.490  20.138  10.506
 1859W        W72459  22.668   3.471   2.806
 1860W        W72460  24.681   6.515   3.675
 1861W        W72461  43.429  16.148  11.515
 1862W        W72462  24.273   5.713   3.349
 1863W        W72463  26.484  44.013  10.408
 1864W        W72464   3.490  41.881   1.682
 1865W        W72465  24.172  41.548   1.859
 1866W        W72466  18.797  24.718   4.477
 1867W        W72467  32.960   7.944   2.648
 1868W        W72468   2.371  18.529   1.436
 1869W        W72469  13.632   5.701   3.747
 1870W        W72470  29.047  35.117  13.282
 1871W        W72471  44.741  14.094  12.144
 1872W        W72472  16.693  13.592  12.391
 1873W        W72473  11.918  20.753  12.407
 1874W        W72474  12.104  16.598  14.925
 1875W        W72475  32.177  35.055   4.011
 1876W        W72476   8.430  39.077  13.030
 1877W        W72477  42.908   4.644  13.079
 1878W        W72478  35.809   2.499  11.541
 1879W        W72479  10.667  11.073  12.911
 1880W        W72480   3.446   2.212  12.906
 1881W        W72481  39.078  41.895   5.022
 1882W        W72482  31.896   9.647   4.127
 1883W        W72483  39.458  16.432  13.957
 1884W        W72484  27.351  16.327  14.019
 1885W        W72485  31.154  27.913  12.018
 1886W        W72486  37.399   7.910   3.759
 1887W        W72487  12.628   7.427  13.757
 1888W        W72488  43.963  37.946  14.421
 1889W        W72489  25.742  25.536  12.964
 1890W        W72490   8.395  19.846  10.593
 1891W        W72491  11.317  24.379  13.379
 1892W        W72492   3.490  19.504   0.898
 1893W        W72493  28.726  11.331  10.550
 1894W        W72494  19.103  25.737  14.912
 1895W        W72495  29.402  21.805  11.074
 1896W        W72496  30.060  25.373  13.853
 1897W        W72497  19.582  42.958   4.156
 1898W        W72498  17.434   1.340   4.470
 1899W        W72499   0.960  32.607  11.533
 1900W        W72500   5.270  28.503  10.684
 1901W        W72501  42.942  14.834   2.764
 1902W        W72502   7.016  19.607   4.884
 1903W        W72503  12.417   5.125  11.043
 1904W        W72504  19.690  28.456  13.333
 1905W        W72505  33.120  30.843  11.544
 1906W        W72506  28.890   6.319   1.399
 1907W        W72507  22.218  38.052   4.174
 1908W        W72508  33.011  36.025   2.143
 1909W        W72509  12.609   7.933  13.745
 1910W        W72510  18.780  21.103  13.327
 1911W        W72511  16.510  37.759  12.462
 1912W        W72512   3.887  15.696  10.705
 1913W        W72513  26.656  29.629   1.326
 1914W        W72514  22.193  16.105   2.862
 1915W        W72515  30.960   2.693   4.264
 1916W        W72516  24.492  13.094   0.362
 1917W        W72517   5.661  27.506  13.024
 1918W        W72518  39.301  36.384  10.799
 1919W        W72519  18.815  11.772  14.929
 1920W        W72520  13.224  15.644   3.682
 1921W        W72521   9.773  30.162   0.963
 1922W        W72522   3.491  43.373  10.828
 1923W        W72523  37.853  38.464   3.635
 1924W        W72524  30.517  28.602  13.926
 1925W        W72525   4.351  14.157   2.731
 1926W        W72526  43.324   1.917  11.079
 1927W        W72527  40.398  43.277   3.245
 1928W        W72528  12.578  16.219   1.254
 1929W        W72529  43.419  38.814   3.164
 1930W        W72530  36.035  19.938  12.034
 1931W        W72531  41.905  43.540   1.727
 1932W        W72532  32.920   3.428   4.107
 1933W        W72533  29.223   9.273   4.380
 1934W        W72534  27.761  28.080  14.550
 1935W        W72535  10.434  11.722   0.042
 1936W        W72536  44.684  11.259  13.870
 1937W        W72537  36.069  38.923   3.868
 1938W        W72538   3.437  11.926   0.246
 1939W        W72539  42.377  15.547  14.474
 1940W        W72540  41.820   6.917  13.330
 1941W        W72541  18.771  14.400  12.248
 1942W        W72542  28.906  21.624  10.346
 1943W        W72543   3.393  14.150   1.779
 1944W        W72544   3.806   8.476  13.424
 1945W        W72545  20.249  26.728   1.771
 1946W        W72546  17.728  34.729   1.001
 1947W        W72547  30.411  26.277   4.139
 1948W        W72548   5.867  13.637  10.574
 1949W        W72549  32.065  14.556   4.615
 1950W        W72550   8.938  10.217   2.233
 1951W        W72551  16.744   4.278  11.553
 1952W        W72552  26.552  13.695  12.912
 1953W        W72553   0.045  29.661  12.601
 1954W        W72554  15.591  24.694   1.805
 1955W        W72555  30.642  31.539   1.532
 1956W        W72556   5.697  30.466   1.727
 1957W        W72557   7.948  23.578  11.101
 1958W        W72558  36.276  10.263   3.250
 1959W        W72559   6.834  33.191  12.179
 1960W        W72560  29.218  30.208  12.404
 1961W        W72561  25.884  34.836   1.960
 1962W        W72562  41.078  30.863   2.271
 1963W        W72563  43.959  43.184  11.096
 1964W        W72564   1.718  34.568   1.408
 1965W        W72565   6.781  34.953   1.969
 1966W        W72566  27.458  11.194   3.710
 1967W        W72567  27.004   7.360   0.786
 1968W        W72568  10.693  27.527   1.804
 1969W        W72569  35.843  20.432   1.254
 1970W        W72570  34.117  44.371  10.672
 1971W        W72571   7.703  12.797   9.656
 1972W        W72572   3.200   2.648  13.022
 1973W        W72573   7.641  21.791   4.192
 1974W        W72574  27.258  11.313  13.926
 1975W        W72575   3.359  36.615  12.883
 1976W        W72576   3.387  26.648   3.574
 1977W        W72577  11.514  36.945   4.441
 1978W        W72578  22.238  29.110   4.621
 1979W        W72579  16.334  25.711  11.939
 1980W        W72580  42.969  26.496   5.050
 1981W        W72581  20.960  13.086   4.898
 1982W        W72582  13.412  24.509  11.916
 1983W        W72583  17.159  39.376   4.696
 1984W        W72584  31.068  40.827   0.206
 1985W        W72585  44.460   8.359   2.261
 1986W        W72586   0.449  26.473   3.219
 1987W        W72587   8.648   3.817   2.435
 1988W        W72588  33.589  44.430  14.052
 1989W        W72589  34.865  17.151  12.113
 1990W        W72590  23.425  39.787  13.416
 1991W        W72591  17.301   6.840   3.206
 1992W        W72592   0.523   6.605   2.222
 1993W        W72593  21.143  12.547   0.921
 1994W        W72594  31.408  43.315   0.190
 1995W        W72595  35.307  43.015  14.867
 1996W        W72596   1.266  28.208  11.193
 1997W        W72597  13.814  22.172   1.122
 1998W        W72598  39.557  17.028   1.501
 1999W        W72599   7.009  17.616  13.872
 2000W        W72600  22.208  22.021  12.833
 2001W        W72601   4.669  39.826   2.452
 2002W        W72602   1.320  36.423   2.859
 2003W        W72603  10.818  11.933  10.512
 2004W        W72604   0.508  13.588  14.370
 2005W        W72605   6.960   1.037   1.148
 2006W        W72606  23.493  33.245  14.326
 2007W        W72607  30.049  31.032   3.580
 2008W        W72608  37.829  14.805   2.415
 2009W        W72609  30.879  33.624   3.397
 2010W        W72610   1.845  26.174   2.848
 2011W        W72611   3.853  27.491  13.373
 2012W        W72612   7.353  34.407   1.390
 2013W        W72613  31.449  39.807   0.097
 2014W        W72614   0.414  23.457  14.358
 2015W        W72615  11.180  36.312  12.487
 2016W        W72616   4.759  42.484   1.322
 2017W        W72617  17.888  44.150   0.902
 2018W        W72618  29.032   8.751   1.830
 2019W        W72619   8.405  28.470  11.006
 2020W        W72620  13.692  26.232  12.180
 2021W        W72621  13.815  16.623  11.147
 2022W        W72622  19.957  19.838   0.487
 2023W        W72623  12.814  42.494  11.475
 2024W        W72624   6.730   3.851  10.985
 2025W        W72625   5.127   8.224   0.013
 2026W        W72626  29.374   4.632   1.781
 2027W        W72627  35.905   0.880  12.160
 2028W        W72628  43.806  42.379   2.011
 2029W        W72629  28.293  40.271  14.486
 2030W        W72630  12.706  24.972   1.414
 2031W        W72631   8.118   1.021   0.332
 2032W        W72632  27.543   1.019   4.550
 2033W        W72633  11.748  34.386   2.118
 2034W        W72634  30.935  42.981   5.113
 2035W        W72635  40.872  33.066   3.389
 2036W        W72636  12.660  41.360  14.514
 2037W        W72637  11.443  28.790  13.296
 2038W        W72638  17.348   7.077  13.108
 2039W        W72639  37.392  41.942   0.543
 2040W        W72640  33.019   9.425   4.568
 2041W        W72641  32.547  29.619  11.600
 2042W        W72642  10.748  42.619   1.831
 2043W        W72643  19.025  13.117  11.615
 2044W        W72644   3.960  33.467  11.669
 2045W        W72645  36.968  37.950   2.679
 2046W        W72646  11.107  32.347   1.953
 2047W        W72647  23.960  22.592  12.110
 2048W        W72648   6.025  37.326  12.542
 2049W        W72649  37.587   7.367  13.429
 2050W        W72650  33.592   7.155   1.401
 2051W        W72651  23.096   6.729  10.577
 2052W        W72652  27.120   1.751   2.766
 2053W        W72653  35.591   1.127   0.800
 2054W        W72654  15.672  36.993   4.698
 2055W        W72655  29.470  19.392  12.610
 2056W        W72656  29.959   6.404  10.395
 2057W        W72657  23.819  42.754   2.893
 2058W        W72658   8.330  35.088  14.315
 2059W        W72659   1.836  27.454   2.334
 2060W        W72660   8.830   8.967  13.225
 2061W        W72661  23.260  35.902  12.469
 2062W        W72662  14.599  32.309  11.612
 2063W        W72663  17.638  25.228  12.422
 2064W        W72664  12.321   5.630  11.097
 2065W        W72665  44.560   9.089   0.160
 2066W        W72666  39.472  31.870  11.322
 2067W        W72667   9.867   4.963  14.964
 2068W        W72668  12.557  35.782   1.614
 2069W        W72669   2.967   0.034   2.443
 2070W        W72670  23.048  32.878   3.263
 2071W        W72671   8.744  12.345   0.898
 2072W        W72672   5.260  29.651  11.991
 2073W        W72673  27.795  41.926  13.052
 2074W        W72674  19.557  19.304   4.792
 2075W        W72675  25.642   5.855   2.182
 2076W        W72676   1.491  44.996   3.334
 2077W        W72677   9.451  29.969   1.308
 2078W        W72678  40.390  35.766  12.798
 2079W        W72679  15.743  22.553  13.022
 2080W        W72680   3.508  40.592   1.370
 2081W        W72681  15.318  30.478  13.372
 2082W        W72682  26.174  26.720  14.495
 2083W        W72683   7.191  25.636   3.773
 2084W        W72684  17.630  29.060  13.648
 2085W        W72685   1.736   6.788   4.110
 2086W        W72686  25.895  29.672   4.725
 2087W        W72687  26.229  34.718   0.789
 2088W        W72688   7.224  41.341   1.438
 2089W        W72689   4.668  38.966   2.151
 2090W        W72690  23.286  17.395   2.704
 2091W        W72691  26.631   9.809  14.316
 2092W        W72692  18.150  10.315  11.228
 2093W        W72693   7.881  35.940  12.524
 2094W        W72694  37.372  23.019   2.414
 2095W        W72695  35.444  31.465   2.666
 2096W        W72696  15.522  42.822   2.866
 2097W        W72697  10.202  42.095   1.489
 2098W        W72698  30.175  38.784   5.445
 2099W        W72699  28.170  16.193   1.690
 2100W        W72700  30.019  40.142  14.306
 2101W        W72701   1.589  30.374  11.857
 2102W        W72702   3.247   2.802   0.424
 2103W        W72703  42.290  28.082  12.146
 2104W        W72704  26.355  28.120   1.481
 2105W        W72705   2.444   3.881  14.108
 2106W        W72706  18.117  42.011  12.605
 2107W        W72707  42.489   7.235  12.111
 2108W        W72708  22.083  17.404  13.367
 2109W        W72709   3.935   7.284  12.391
 2110W        W72710  30.449   8.380  12.974
 2111W        W72711  41.533   8.929   0.148
 2112W        W72712  15.383   9.422  11.092
 2113W        W72713  19.569  12.640   4.847
 2114W        W72714  27.459  33.306  10.660
 2115W        W72715  31.579  20.984  12.943
 2116W        W72716  24.236  39.383  13.573
 2117W        W72717   2.027  32.830   0.698
 2118W        W72718  26.701  33.041  13.353
 2119W        W72719  25.531  20.620  11.963
 2120W        W72720  11.133   7.165   4.195
 2121W        W72721  21.701  21.132   3.263
 2122W        W72722  22.562  43.957   1.918
 2123W        W72723  11.670  44.590   3.599
 2124W        W72724  30.911   2.473   1.552
 2125W        W72725  16.247  20.326  10.738
 2126W        W72726   2.441  40.543   1.794
 2127W        W72727  15.788  39.615   0.033
 2128W        W72728  21.406  13.732   1.360
 2129W        W72729  43.332  42.712   4.094
 2130W        W72730  22.579  14.713   1.170
 2131W        W72731   8.046   1.372  11.487
 2132W        W72732  26.659   6.318   4.102
 2133W        W72733  16.018  19.552   1.036
 2134W        W72734   3.792  14.546  11.457
 2135W        W72735   7.184  10.214  12.083
 2136W        W72736  43.117  34.428   4.110
 2137W        W72737  27.503   6.662  13.129
 2138W        W72738  37.030  11.380  14.311
 2139W        W72739  35.567  22.645   3.218
 2140W        W72740  14.282   5.136  11.188
 2141W        W72741  33.918  43.546   1.878
 2142W        W72742  25.759  14.544   4.231
 2143W        W72743  12.195   6.977  11.930
 2144W        W72744  30.553  44.395   0.109
 2145W        W72745  29.517  21.596  13.813
 2146W        W72746  34.504   9.712  12.240
 2147W        W72747  20.336  31.291   0.422
 2148W        W72748  19.255   5.725  13.835
 2149W        W72749   1.825  25.698  13.176
 2150W        W72750   1.003   8.229  14.466
 2151W        W72751   3.391  35.292  14.260
 2152W        W72752   1.651  34.501   0.562
 2153W        W72753  13.591  39.340  12.605
 2154W        W72754   3.276   9.840   1.434
 2155W        W72755  13.709  27.725   4.192
 2156W        W72756  22.154   6.679  10.751
 2157W        W72757  25.157  12.677   4.600
 2158W        W72758  27.226  19.297  12.446
 2159W        W72759   9.290   0.206   3.245
 2160W        W72760  12.637  30.130  11.455
 2161W        W72761  10.689   2.774  14.053
 2162W        W72762  42.063  40.607  11.295
 2163W        W72763  23.908  18.755   4.190
 2164W        W72764  20.662  20.141   1.884
 2165W        W72765  25.945  21.564  14.887
 2166W        W72766  37.353  42.784  10.796
 2167W        W72767   3.348  17.292   2.181
 2168W        W72768   5.439   4.700   2.266
 2169W        W72769  42.888   3.892  10.785
 2170W        W72770   4.949  12.340  10.238
 2171W        W72771  30.571  29.379   0.909
 2172W        W72772  28.017  27.742   0.722
 2173W        W72773  18.925   0.747   3.611
 2174W        W72774  10.827  43.956  14.463
 2175W        W72775   2.625  38.895  14.945
 2176W        W72776  13.021  10.337  14.832
 2177W        W72777  36.473   9.202   2.674
 2178W        W72778   2.015  22.081   2.174
 2179W        W72779  27.151  12.244  11.599
 2180W        W72780   7.318  19.612   3.111
 2181W        W72781  41.461  22.177   2.739
 2182W        W72782  27.834  16.246  11.113
 2183W        W72783  10.169  21.045   4.645
 2184W        W72784  27.089  42.864   3.381
 2185W        W72785  13.834   9.445   3.290
 2186W        W72786  23.131  30.564   4.705
 2187W        W72787  10.070  27.866  13.403
 2188W        W72788  20.794  41.728  11.460
 2189W        W72789   4.950  43.601   1.340
 2190W        W72790   5.776  33.494  11.134
 2191W        W72791   6.740  20.320   2.488
 2192W        W72792  14.127  27.487  10.852
 2193W        W72793   3.522  37.657  11.525
 2194W        W72794  25.242   0.390   2.956
 2195W        W72795  11.051  38.564   0.297
 2196W        W72796  14.144  31.696   0.249
 2197W        W72797  44.721  16.570  14.329
 2198W        W72798   2.364  35.348  11.595
 2199W        W72799  14.817  39.300   2.794
 2200W        W72800   1.431   0.492   3.610
 2201W        W72801  14.834   0.336   5.351
 2202W        W72802  38.828  13.644   0.384
 2203W        W72803  34.277  33.494   3.487
 2204W        W72804  14.231  19.083  13.442
 2205W        W72805   0.203  43.513   1.487
 2206W        W72806  40.766  15.186   1.216
 2207W        W72807  23.558  28.053   4.114
 2208W        W72808  40.795  12.175   3.072
 2209W        W72809   6.482  10.419   2.749
 2210W        W72810  20.224  11.300   3.721
 2211W        W72811   4.578  27.913   3.753
 2212W        W72812  33.002  24.714   3.615
 2213W        W72813  33.670  25.524   4.127
 2214W        W72814   6.874  40.785  11.085
 2215W        W72815  40.433  22.922  13.956
 2216W        W72816  17.886   7.584  13.911
 2217W        W72817  10.706  19.644   1.392
 2218W        W72818  44.566   8.436   3.723
 2219W        W72819  41.175  18.211  13.037
 2220W        W72820  31.831  10.109   2.586
 2221W        W72821  19.128  21.133  12.531
 2222W        W72822  31.992  19.843  12.972
 2223W        W72823  24.482  41.678   3.169
 2224W        W72824  43.484  37.292  12.467
 2225W        W72825   3.887  15.780   0.927
 2226W        W72826  23.588   8.335  12.426
 2227W        W72827  33.867   1.252   4.484
 2228W        W72828   8.789  28.474  11.993
 2229W        W72829  13.640  28.272  12.875
 2230W        W72830  36.244   9.551  12.917
 2231W        W72831  16.995   9.209  14.944
 2232W        W72832  33.114  42.900  10.487
 2233W        W72833  31.322  25.137  11.305
 2234W        W72834  26.852  34.763   0.510
 2235W        W72835  36.302  40.607   1.769
 2236W        W72836  44.755  21.077  13.272
 2237W        W72837   4.179   1.239  11.979
 2238W        W72838  38.358  11.221  10.704
 2239W        W72839  20.837  27.500   0.085
 2240W        W72840  12.593  20.505  10.694
 2241W        W72841  42.646  28.176  13.553
 2242W        W72842  27.112   1.587   3.267
 2243W        W72843   2.350  24.940  14.351
 2244W        W72844  32.502   0.806   3.341
 2245W        W72845  17.194  37.411  13.509
 2246W        W72846  36.309  12.273  12.665
 2247W        W72847   9.736  40.405  12.055
 2248W        W72848  18.753  23.857   2.761
 2249W        W72849  33.509  32.533  13.979
 2250W        W72850  19.862  15.349  10.704
 2251W        W72851   3.561  42.114  14.450
 2252W        W72852  22.465  19.041  13.511
 2253W        W72853  23.800   0.827  12.575
 2254W        W72854  37.318   2.363  14.524
 2255W        W72855  12.289  17.899   3.133
 2256W        W72856  10.582   4.942  13.808
 2257W        W72857  13.556  35.393  13.569
 2258W        W72858   3.346  37.716  13.580
 2259W        W72859  11.256  11.726   2.100
 2260W        W72860  41.861  23.042   0.269
 2261W        W72861  20.322  36.816  13.748
 2262W        W72862   9.392  18.971   0.038
 2263W        W72863  10.286  40.336   0.187
 2264W        W72864  40.626  30.316   3.030
 2265W        W72865  32.664  21.959  14.713
 2266W        W72866  15.243  14.552  11.422
 2267W        W72867  21.284  36.354   1.933
 2268W        W72868  42.901  34.004   4.522
 2269W        W72869  19.928  36.361   2.200
 2270W        W72870  27.916  13.337  10.643
 2271W        W72871  11.243  33.105   0.177
 2272W        W72872  42.716  26.693  14.514
 2273W        W72873  39.496  19.194  14.036
 2274W        W72874  11.950   5.280  11.155
 2275W        W72875  38.472  12.311  13.022
 2276W        W72876  18.528  36.436  14.095
 2277W        W72877  22.042  21.674   0.098
 2278W        W72878  13.611  39.308   3.362
 2279W        W72879  20.201   1.866   2.744
 2280W        W72880  35.387  36.404   0.899
 2281W        W72881  21.050  28.934   1.506
 2282W        W72882  20.009  18.518  10.842
 2283W        W72883  35.862  28.316  12.494
 2284W        W72884   6.178  22.986   1.334
 2285W        W72885  23.983  15.032  11.570
 2286W        W72886  30.022  14.322   5.170
 2287W        W72887  25.623  26.526  10.795
 2288W        W72888  23.040  37.187  11.661
 2289W        W72889  17.519  44.753   3.612
 2290W        W72890   0.512  21.728  12.486
 2291W        W72891  13.553   9.662   3.680
 2292W        W72892  34.355   9.179  13.933
 2293W        W72893  33.097  44.902   3.624
 2294W        W72894  42.073  30.492   1.907
 2295W        W72895  23.197  18.126  10.842
 2296W        W72896   5.819  35.280  10.597
 2297W        W72897   3.726  18.515  11.063
 2298W        W72898  41.469  24.111  14.976
 2299W        W72899  19.554   7.127  12.655
 2300W        W72900  23.517  13.719  11.624
 2301W        W72901  33.915  19.813  14.692
 2302W        W72902  23.066  11.841   3.643
 2303W        W72903  21.462  30.419   3.725
 2304W        W72904  28.606  15.197  10.783
 2305W        W72905  38.164  21.585  13.366
 2306W        W72906  44.623  32.340   2.313
 2307W        W72907  19.624  44.703   0.392
 2308W        W72908   4.927  18.795   2.295
 2309W        W72909  32.258  40.846  13.408
 2310W        W72910  18.869   4.062  12.170
 2311W        W72911  35.784  35.415   0.019
 2312W        W72912  24.847   5.061  11.185
 2313W        W72913  19.058   3.531  14.286
 2314W        W72914   1.881  28.848  11.541
 2315W        W72915  30.638   6.245   4.147
 2316W        W72916  41.908   0.048  13.041
 2317W        W72917  20.662  38.292   1.839
 2318W        W72918  28.558  40.360  12.149
 2319W        W72919   9.326  40.818  11.548
 2320W        W72920  42.786  21.093   0.688
 2321W        W72921   6.765  17.113   4.567
 2322W        W72922  13.417  35.454  12.097
 2323W        W72923   0.933  11.036   4.076
 2324W        W72924  37.447   0.780   3.741
 2325W        W72925  43.783   9.464   0.321
 2326W        W72926  12.825  28.621   1.228
 2327W        W72927  16.647   8.070  12.453
 2328W        W72928  24.678  23.117   3.201
 2329W        W72929   3.669  20.308  10.930
 2330W        W72930  16.598  44.372  13.677
 2331W        W72931  20.110  35.084   4.746
 2332W        W72932  26.084  30.997   2.155
 2333W        W72933  12.329  37.175  12.565
 2334W        W72934  44.003  29.435   3.235
 2335W        W72935  26.246   6.885  11.100
 2336W        W72936  29.344   8.967   2.727
 2337W        W72937  23.179  35.720   3.242
 2338W        W72938   9.644  30.144  13.543
 2339W        W72939  29.851  38.904   2.335
 2340W        W72940  22.476  42.953   0.870
 2341W        W72941  32.312  21.622   2.642
 2342W        W72942  16.232  39.931   2.280
 2343W        W72943  11.368  29.534   3.018
 2344W        W72944  29.589  24.915   4.544
 2345W        W72945  42.346  28.573  13.358
 2346W        W72946  18.827  33.183  14.731
 2347W        W72947  14.296   9.942  12.030
 2348W        W72948   7.881  16.665   1.407
 2349W        W72949   0.551   5.459  10.848
 2350W        W72950  14.403  17.714   0.253
 2351W        W72951  30.633  18.555  13.947
 2352W        W72952  20.248   0.475  10.939
 2353W        W72953  20.675   5.673   3.481
 2354W        W72954   8.316  22.922  11.524
 2355W        W72955  23.228   4.653  13.205
 2356W        W72956  33.623  42.016  10.500
 2357W        W72957  40.381   0.252   2.451
 2358W        W72958  26.865  27.678   5.021
 2359W        W72959  17.532  32.594   1.359
 2360W        W72960  35.466  21.750  12.937
 2361W        W72961   8.433  19.379  12.043
 2362W        W72962   8.600  22.554   2.854
 2363W        W72963  10.122  11.601  13.383
 2364W        W72964  21.858  17.843   0.792
 2365W        W72965   2.959  38.830  13.052
 2366W        W72966  43.012  14.095   4.155
 2367W        W72967  31.838  32.461   0.347
 2368W        W72968  44.969  33.583   0.238
 2369W        W72969  40.081  34.405  13.798
 2370W        W72970   3.898   5.186  14.981
 2371W        W72971   1.943  14.672  13.098
 2372W        W72972  20.072   5.388  11.756
 2373W        W72973  19.762   0.448   2.695
 2374W        W72974  16.295  22.707   3.729
 2375W        W72975   8.497  42.032  10.494
 2376W        W72976  41.908  32.095   2.735
 2377W        W72977  41.283  29.985  12.002
 2378W        W72978  27.348   0.897   1.486
 2379W        W72979  19.562  17.603   0.475
 2380W        W72980  24.743  42.278   2.025
 2381W        W72981  22.562  33.091   3.346
 2382W        W72982  42.404   0.131  11.953
 2383W        W72983  34.872  39.478  13.864
 2384W        W72984  27.660   9.864  14.408
 2385W        W72985  33.886   6.225  12.910
 2386W        W72986  41.804  34.870  10.791
 2387W        W72987  31.106  36.229   2.736
 2388W        W72988  17.239   8.608   3.849
 2389W        W72989   9.342  26.254  12.209
 2390W        W72990  44.876  32.908  12.031
 2391W        W72991  13.864   2.820  13.503
 2392W        W72992  34.029  11.433  12.526
 2393W        W72993  23.245  16.971  11.120
 2394W        W72994   1.317  34.159   9.854
 2395W        W72995  34.603   8.923   9.924
 2396W        W72996  38.550   3.371   1.758
 2397W        W72997   3.981   6.994  13.451
 2398W        W72998  38.066  30.742  14.525
 2399W        W72999  18.763  15.587   1.971
 2400W        W73000  24.475  38.564   2.326
 2401W        W73001  31.557  28.483   2.353
 2402W        W73002  30.162   0.350   0.997
 2403W        W73003   1.920   4.767   0.472
 2404W        W73004  41.735   7.261   2.737
 2405W        W73005  34.124   1.063  12.267
 2406W        W73006  28.860  34.324   3.193
 2407W        W73007  20.567  28.140  11.008
 2408W        W73008   9.406  16.539  11.545
 2409W        W73009  10.768   7.497  12.545
 2410W        W73010  24.152  35.569  10.670
 2411W        W73011  21.269  30.364  14.452
 2412W        W73012  12.728  12.401   3.316
 2413W        W73013  28.048  11.549  13.449
 2414W        W73014  37.310   8.772   2.436
 2415W        W73015  30.361   3.968   3.312
 2416W        W73016  39.014  22.953  13.857
 2417W        W73017  27.809  20.797   2.690
 2418W        W73018  21.114  17.384  13.488
 2419W        W73019  17.147  19.163  14.846
 2420W        W73020   1.611  13.897  14.882
 2421W        W73021  20.202   9.344   0.943
 2422W        W73022  10.236   6.396   0.391
 2423W        W73023   9.416  27.463  11.675
 2424W        W73024  31.743   3.788   0.487
 2425W        W73025  10.574  14.577   2.282
 2426W        W73026  43.367   7.917  11.261
 2427W        W73027  32.246  30.474   1.806
 2428W        W73028  34.177   1.868   1.813
 2429W        W73029  44.499   0.848  14.338
 2430W        W73030  29.974  29.809   1.455
 2431W        W73031  13.508  11.727   4.686
 2432W        W73032  34.947  43.953  14.526
 2433W        W73033  27.137   1.551  13.325
 2434W        W73034   2.933  28.986   1.978
 2435W        W73035  42.254  38.965  12.810
 2436W        W73036  22.991  11.550  13.450
 2437W        W73037  15.107  41.037   0.520
 2438W        W73038   0.250  31.044   4.630
 2439W        W73039  27.480  25.630  12.384
 2440W        W73040  16.669  40.769  14.788
 2441W        W73041  16.292  32.888   2.718
 2442W        W73042  13.544  42.139   2.737
 2443W        W73043  35.519  26.902   0.375
 2444W        W73044   8.199  17.049   1.588
 2445W        W73045   3.978  12.149   0.477
 2446W        W73046   1.863  40.749  10.673
 2447W        W73047  16.639  22.532   3.394
 2448W        W73048  32.579  33.577  14.989
 2449W        W73049  17.051  25.191  10.564
 2450W        W73050  10.999  29.006  11.122
 2451W        W73051   2.283  33.368   2.792
 2452W        W73052  37.574  36.317  11.955
 2453W        W73053   4.748   8.576  14.965
 2454W        W73054  38.453  15.846  11.981
 2455W        W73055   4.234  38.135   1.305
 2456W        W73056   7.691   5.837  11.662
 2457W        W73057  42.741  36.581  11.661
 2458W        W73058   6.199   6.343   4.678
 2459W        W73059  31.455  24.808  10.490
 2460W        W73060  25.119  12.726   0.147
 2461W        W73061  44.073  42.349  11.195
 2462W        W73062  19.460  27.587   2.785
 2463W        W73063  24.960   2.381  10.620
 2464W        W73064  44.283  35.824  10.983
 2465W        W73065   0.719  32.927  11.874
 2466W        W73066  39.775  26.006   2.745
 2467W        W73067  40.535   6.320   3.069
 2468W        W73068  36.913  26.206  13.529
 2469W        W73069  17.076  18.112  12.919
 2470W        W73070  26.067   6.170   4.926
 2471W        W73071  17.837   3.473  12.526
 2472W        W73072  10.783   3.162   0.330
 2473W        W73073  15.541  17.131  12.785
 2474W        W73074  11.215  22.733  10.879
 2475W        W73075  12.128  23.439  12.880
 2476W        W73076  21.674  34.926  10.529
 2477W        W73077  39.518  35.383   1.411
 2478W        W73078  17.855  20.558   4.391
 2479W        W73079  19.440  22.490   3.705
 2480W        W73080  41.086  41.576  11.986
 2481W        W73081  23.515  25.453   1.869
 2482W        W73082   8.115  41.520   1.742
 2483W        W73083  16.136  10.088  14.583
 2484W        W73084  26.472  12.870  10.648
 2485W        W73085  31.062  26.958   0.872
 2486W        W73086  12.296  20.578  11.566
 2487W        W73087  20.970   7.247   4.022
 2488W        W73088  15.096  17.311  11.523
 2489W        W73089  23.687   4.915   4.831
 2490W        W73090  16.246  39.046  12.885
 2491W        W73091  33.102  29.654   3.579
 2492W        W73092   4.308  28.403  14.589
 2493W        W73093  31.607  15.251   4.231
 2494W        W73094  20.948  18.930   5.147
 2495W        W73095   1.950  27.435  13.910
 2496W        W73096  20.023  42.029  14.009
 2497W        W73097  35.611   0.283   0.925
 2498W        W73098  35.949  10.065  13.975
 2499W        W73099  37.518  25.535  11.420
 2500W        W73100  25.565  36.960  12.455
 2501W        W73101  28.480   4.602   1.561
 2502W        W73102   2.178  13.368  11.046
 2503W        W73103  25.228  26.176  12.522
 2504W        W73104  38.036   3.093  13.127
 2505W        W73105   3.936   9.328   1.466
 2506W        W73106  38.046  36.952  11.821
 2507W        W73107  42.460  36.979   4.213
 2508W        W73108  26.844  15.545   3.388
 2509W        W73109  39.553  33.203   3.136
 2510W        W73110  24.014  38.169   3.156
 2511W        W73111  37.897  13.567   2.813
 2512W        W73112  22.785  29.942  11.127
 2513W        W73113  19.455  23.328  12.097
 2514W        W73114  20.291  42.761   0.841
 2515W        W73115  27.398   8.108   3.720
 2516W        W73116   3.452  22.018   2.425
 2517W        W73117  44.038  32.638   3.161
 2518W        W73118  30.729  35.589   0.325
 2519W        W73119  17.242  42.300  13.507
 2520W        W73120  28.175  19.588  11.541
 2521W        W73121   9.877  10.158   4.959
 2522W        W73122  24.633  19.061  12.550
 2523W        W73123  23.785  18.755  13.323
 2524W        W73124  42.428  26.349  11.692
 2525W        W73125  30.412  30.884   0.909
 2526W        W73126  12.941  40.316  14.467
 2527W        W73127  30.108  14.598   2.755
 2528W        W73128  31.211  11.758  14.441
 2529W        W73129  10.817  15.761   2.733
 2530W        W73130  33.607  33.661  12.549
 2531W        W73131  28.919  26.967  14.299
 2532W        W73132  28.471  19.609  12.002
 2533W        W73133  32.141  26.129  12.538
 2534W        W73134  24.638  22.346  10.460
 2535W        W73135  30.034  26.134   1.235
 2536W        W73136  19.993   0.419  12.947
 2537W        W73137  27.131   3.862   0.354
 2538W        W73138  31.952  35.924   4.323
 2539W        W73139   2.426  14.116  12.755
 2540W        W73140  29.495   8.417  14.841
 2541W        W73141   5.223   1.549  11.654
 2542W        W73142  34.127  39.542   1.709
 2543W        W73143  14.767  22.026   3.071
 2544W        W73144   2.344  13.395   3.355
 2545W        W73145  36.946   0.293  14.573
 2546W        W73146   0.340   0.461   0.916
 2547W        W73147  22.120  39.901   3.802
 2548W        W73148  36.618  29.678  13.911
 2549W        W73149  16.660  42.114  10.354
 2550W        W73150  42.409  25.513   3.928
 2551W        W73151   3.028  28.222  13.954
 2552W        W73152  13.626  38.969   0.930
 2553W        W73153   9.621  12.686   0.173
 2554W        W73154   3.005  44.997   1.470
 2555W        W73155  29.785  24.177  12.947
 2556W        W73156  40.696  10.483   3.821
 2557W        W73157   0.408  17.205   0.827
 2558W        W73158  13.696  10.711   3.602
 2559W        W73159  31.581  11.407  10.515
 2560W        W73160  22.683  38.851   1.446
 2561W        W73161   2.686  19.038   1.841
 2562W        W73162  40.750  36.911   1.759
 2563W        W73163   4.281   6.566   3.725
 2564W        W73164  11.358  17.904  11.588
 2565W        W73165  26.141  12.712   3.351
 2566W        W73166  27.059  44.834   1.352
 2567W        W73167  34.991   3.657   4.716
 2568W        W73168  13.321  12.765   4.244
 2569W        W73169  18.756  28.106   1.811
 2570W        W73170  14.040   9.293   2.594
 2571W        W73171  43.606  23.530  11.545
 2572W        W73172  26.499  19.913  14.405
 2573W        W73173  25.605  21.549  10.818
 2574W        W73174  41.333   9.711   3.383
 2575W        W73175  38.577  43.299  10.629
 2576W        W73176  15.273  24.922  12.865
 2577W        W73177  12.915   1.428   1.697
 2578W        W73178  23.569   8.607  13.021
 2579W        W73179  16.870   1.324   1.757
 2580W        W73180  18.865   9.156  13.282
 2581W        W73181   9.404  14.787  13.950
 2582W        W73182  22.314  26.042   4.963
 2583W        W73183   8.656  37.610   0.979
 2584W        W73184   7.752   8.168   1.965
 2585W        W73185   1.680   6.848   2.728
 2586W        W73186  21.582  14.120   0.501
 2587W        W73187  16.665  24.013   1.478
 2588W        W73188  12.836   3.460  13.028
 2589W        W73189  11.191  33.636   3.340
 2590W        W73190  39.084  25.191  10.787
 2591W        W73191  25.237   3.868   5.027
 2592W        W73192  31.471  28.204   1.918
 2593W        W73193  21.662   2.648   1.499
 2594W        W73194  20.023  10.335   4.202
 2595W        W73195  17.836   8.718  11.962
 2596W        W73196  44.335  32.471  12.089
 2597W        W73197  27.649  37.202   1.609
 2598W        W73198   0.478  29.895   1.773
 2599W        W73199  36.423  26.430  11.651
 2600W        W73200  12.007  25.216   1.387
 2601W        W73201  30.057  35.896  12.265
 2602W        W73202  41.324  11.220  11.963
 2603W        W73203  19.750   3.873  13.239
 2604W        W73204  17.636   1.204   2.337
 2605W        W73205  33.119  12.887   3.405
 2606W        W73206   3.591  13.577  11.172
 2607W        W73207   5.064  22.385   9.817
 2608W        W73208  32.087  34.391   1.356
 2609W        W73209  27.034  13.719   1.758
 2610W        W73210  44.565   1.506  11.047
 2611W        W73211  43.029  13.154  13.724
 2612W        W73212   5.252   0.506   0.101
 2613W        W73213  39.393  11.803   3.619
 2614W        W73214  40.812   9.152  13.634
 2615W        W73215  11.097  14.977  12.479
 2616W        W73216  36.588   6.188   0.732
 2617W        W73217   6.860  19.446  12.676
 2618W        W73218  23.922  33.433  14.098
 2619W        W73219  33.508  33.119  13.251
 2620W        W73220  15.650   9.073  13.236
 2621W        W73221  20.448  36.482   2.277
 2622W        W73222  41.837  28.484  11.161
 2623W        W73223  31.573  40.349   2.449
 2624W        W73224   4.386   0.991   3.220
 2625W        W73225   2.874  24.385  11.190
 2626W        W73226  16.802   5.910  13.989
 2627W        W73227  15.104  13.076   2.349
 2628W        W73228   6.358   1.938  14.177
 2629W        W73229  43.566  16.899  11.153
 2630W        W73230  25.102  35.142   0.304
 2631W        W73231  30.989  35.634  12.516
 2632W        W73232  41.517  40.426   3.632
 2633W        W73233  26.494  40.082  12.049
 2634W        W73234  23.623  17.759  13.022
 2635W        W73235  28.716   5.060   3.382
 2636W        W73236  13.798  42.382   2.352
 2637W        W73237  43.080  11.762  11.276
 2638W        W73238  32.906  26.927  10.855
 2639W        W73239  14.346  25.382   4.601
 2640W        W73240  16.578  37.497   1.415
 2641W        W73241   9.016   5.210  12.639
 2642W        W73242  12.746  10.588  12.898
 2643W        W73243  10.201  31.412   3.895
 2644W        W73244  33.342   5.829  14.050
 2645W        W73245   0.221  33.331   2.698
 2646W        W73246  40.839  22.523  14.911
 2647W        W73247  34.999  25.604   0.311
 2648W        W73248  35.863  11.763   2.635
 2649W        W73249  40.853  44.296  11.511
 2650W        W73250  35.652  17.880  12.620
 2651W        W73251  25.785  23.713   3.559
 2652W        W73252  43.019  42.242  12.498
 2653W        W73253  35.026  22.130  10.537
 2654W        W73254  19.176  27.668   0.700
 2655W        W73255  22.512   9.447   0.340
 2656W        W73256  14.121  35.612   3.787
 2657W        W73257  38.458   5.648  13.390
 2658W        W73258  42.888  15.062   3.769
 2659W        W73259  28.257  22.970   3.834
 2660W        W73260  22.040  16.548  12.992
 2661W        W73261  16.081  10.119   1.389
 2662W        W73262  39.818  38.878  13.087
 2663W        W73263   6.266  31.175  11.565
 2664W        W73264  29.886  27.061   0.435
 2665W        W73265  42.619  33.627  10.758
 2666W        W73266  28.843  37.388  13.282
 2667W        W73267  10.693  26.077  11.373
 2668W        W73268  17.599  17.494  14.591
 2669W        W73269  25.101  42.018  13.542
 2670W        W73270  13.107  41.311   0.969
 2671W        W73271  38.069  13.449   4.693
 2672W        W73272  35.343  26.456   2.135
 2673W        W73273  16.056  40.774   4.120
 2674W        W73274  38.807   3.324   2.268
 2675W        W73275   7.425  36.863   0.565
 2676W        W73276   1.392  36.919  12.873
 2677W        W73277  27.165  36.921  11.116
 2678W        W73278   7.813   0.351  12.013
 2679W        W73279  36.073  13.521   1.001
 2680W        W73280  27.119  20.295   2.862
 2681W        W73281  34.359  17.202   2.156
 2682W        W73282  10.450  37.467  13.314
 2683W        W73283   3.186  40.839  12.081
 2684W        W73284  17.677  34.225   1.084
 2685W        W73285  20.480  19.785   2.223
 2686W        W73286   0.966  12.918   1.483
 2687W        W73287  20.063  35.531  14.396
 2688W        W73288  40.404  37.792   4.796
 2689W        W73289  20.519   5.373  13.921
 2690W        W73290  41.570  21.190  14.525
 2691W        W73291  25.899  16.363   2.489
 2692W        W73292  26.397  28.583  14.058
 2693W        W73293  33.172   4.455   0.407
 2694W        W73294  20.244  38.730  14.210
 2695W        W73295  34.306   7.711   3.169
 2696W        W73296  39.078  14.857  11.361
 2697W        W73297  17.892  27.888   0.825
 2698W        W73298  43.384  13.207   1.844
 2699W        W73299  44.733   0.874   0.484
 2700W        W73300   5.310  19.562  12.070
 2701W        W73301  34.514  43.624  11.063
 2702W        W73302   5.442  14.687   4.161
 2703W        W73303  42.445  30.655   3.695
 2704W        W73304  44.141  17.732  11.230
 2705W        W73305  33.064  10.139   2.247
 2706W        W73306  25.166  31.654  14.348
 2707W        W73307   6.654   5.903   2.642
 2708W        W73308   0.269   9.894  12.535
 2709W        W73309  40.420  21.220  12.604
 2710W        W73310   9.791  13.803   0.961
 2711W        W73311  42.330  11.360  12.986
 2712W        W73312  33.013  18.065  11.909
 2713W        W73313  36.210   6.222   3.575
 2714W        W73314  25.161   5.805   3.644
 2715W        W73315  38.146  22.042  14.045
 2716W        W73316  15.176  32.961  11.035
 2717W        W73317  31.039  36.116   2.229
 2718W        W73318  11.145  23.486   1.957
 2719W        W73319   5.632  38.972  14.006
 2720W        W73320  13.887  17.723  14.721
 2721W        W73321  44.769   1.933   2.591
 2722W        W73322  44.833   6.010   0.028
 2723W        W73323  30.556  31.979   2.430
 2724W        W73324   4.280  32.436   0.916
 2725W        W73325  17.420   9.951  13.343
 2726W        W73326  37.108   4.309  11.566
 2727W        W73327  26.369   8.728   2.658
 2728W        W73328  32.660  10.727   3.092
 2729W        W73329  43.838   1.002   1.244
 2730W        W73330  11.561  23.350   1.371
 2731W        W73331  31.135   9.100  12.166
 2732W        W73332   5.654  16.627   0.014
 2733W        W73333   9.185  22.295  11.441
 2734W        W73334  36.083  18.238   1.028
 2735W        W73335  23.594  40.501   4.110
 2736W        W73336  41.052  42.954   4.235
 2737W        W73337  13.063  12.886   3.271
 2738W        W73338   8.893  12.941  12.979
 2739W        W73339  25.781   7.763  13.969
 2740W        W73340  43.529  26.449   2.728
 2741W        W73341  20.512  11.220  13.578
 2742W        W73342  12.340  29.741  14.517
 2743W        W73343  37.878  17.829   2.044
 2744W        W73344  34.535  31.390   2.069
 2745W        W73345  30.493  17.372   3.328
 2746W        W73346   0.445   4.820  10.947
 2747W        W73347  20.302  12.844   0.079
 2748W        W73348  31.575   5.429  14.440
 2749W        W73349  44.812   8.347   4.257
 2750W        W73350   2.737  20.476   0.345
 2751W        W73351  20.336  26.960  14.514
 2752W        W73352  32.159  10.057   9.952
 2753W        W73353  42.522  16.139   4.101
 2754W        W73354  33.380  19.261   3.810
 2755W        W73355   3.609  33.873   1.435
 2756W        W73356  22.373   7.150   5.095
 2757W        W73357  39.053  14.854  11.865
 2758W        W73358  21.654  31.097  11.883
 2759W        W73359  20.187  40.895   4.483
 2760W        W73360  14.588  19.091   4.591
 2761W        W73361  43.528  15.138  11.600
 2762W        W73362  13.791  26.233  13.503
 2763W        W73363  10.366  18.564   4.690
 2764W        W73364  44.284  11.734  12.633
 2765W        W73365   1.392   4.316   1.865
 2766W        W73366  39.604  20.049   0.189
 2767W        W73367   0.458   3.316  12.209
 2768W        W73368  41.037   0.916   3.027
 2769W        W73369  29.743  40.254  13.866
 2770W        W73370  37.293  21.577  14.883
 2771W        W73371  40.451  36.937  13.461
 2772W        W73372  33.802  23.740   2.880
 2773W        W73373  26.922  27.378   2.640
 2774W        W73374  13.772  41.309   9.804
 2775W        W73375  34.510  41.539  10.643
 2776W        W73376  21.568  44.531   1.249
 2777W        W73377  20.067  26.588   1.292
 2778W        W73378  11.134  40.148   1.265
 2779W        W73379  41.003  17.780   2.150
 2780W        W73380  35.617  40.031  13.903
 2781W        W73381   5.339  22.521  10.586
 2782W        W73382   0.878   4.024  11.941
 2783W        W73383   9.782  13.258  14.467
 2784W        W73384  19.409   4.844  12.750
 2785W        W73385  35.948  29.058  14.805
 2786W        W73386   8.834  42.952   3.640
 2787W        W73387  41.080  15.407  14.320
 2788W        W73388  21.339  39.547  12.942
 2789W        W73389  33.664  29.462  11.686
 2790W        W73390  28.505  41.336   2.368
 2791W        W73391  16.276   6.506   1.762
 2792W        W73392  11.232   8.464   3.340
 2793W        W73393   3.808  21.624   2.341
 2794W        W73394  29.158  34.036   1.767
 2795W        W73395  26.170  12.112   1.777
 2796W        W73396  13.805  31.352   2.768
 2797W        W73397  15.623  12.831   5.169
 2798W        W73398  23.045   0.023   0.455
 2799W        W73399  31.035  30.413  11.081
 2800W        W73400   7.932  19.792  12.854
 2801W        W73401  17.027  22.906   3.383
 2802W        W73402  28.981  20.763  10.871
 2803W        W73403  31.731  25.006  14.761
 2804W        W73404  43.893  32.948  11.101
 2805W        W73405  20.820   4.250  11.108
 2806W        W73406   9.425  43.960  12.017
 2807W        W73407  31.308   6.902  14.206
 2808W        W73408   3.727   3.072   5.009
 2809W        W73409  27.117   4.202   1.272
 2810W        W73410  32.934  22.418  10.689
 2811W        W73411  34.853  41.291   3.144
 2812W        W73412  34.020  29.723   3.370
 2813W        W73413  44.586   9.720   3.164
 2814W        W73414  21.768  34.523   4.167
 2815W        W73415  11.046  19.250   4.210
 2816W        W73416  35.893  21.205  14.965
 2817W        W73417  21.035  21.455   5.293
 2818W        W73418   4.754  43.988   3.785
 2819W        W73419  15.580  10.241   0.356
 2820W        W73420   0.815  17.143  14.679
 2821W        W73421  18.946  20.551   1.516
 2822W        W73422  23.188  14.684  13.833
 2823W        W73423   5.432  42.306   3.629
 2824W        W73424  17.739  35.019   3.125
 2825W        W73425  39.137  42.081  11.880
 2826W        W73426  14.060   7.264   0.327
 2827W        W73427  24.621  35.148   1.438
 2828W        W73428  23.082  28.489   2.620
 2829W        W73429  11.909  22.644   3.715
 2830W        W73430  38.057  29.587  14.755
 2831W        W73431  19.786  23.236   3.571
 2832W        W73432  16.344   1.423  12.914
 2833W        W73433   9.187  17.678  12.407
 2834W        W73434  27.669  36.873   0.799
 2835W        W73435  29.116  26.541   2.911
 2836W        W73436   7.262  22.982  10.983
 2837W        W73437  39.289  40.771   4.649
 2838W        W73438  26.977  23.063   4.132
 2839W        W73439  42.225  35.316   2.900
 2840W        W73440  15.858  37.461   0.163
 2841W        W73441  21.301   6.810  13.873
 2842W        W73442  35.121   3.823   2.836
 2843W        W73443   3.992   4.336   3.938
 2844W        W73444  43.690  31.011  13.383
 2845W        W73445   5.513  25.608   2.258
 2846W        W73446   0.450   5.529   3.118
 2847W        W73447  20.697  39.947   3.589
 2848W        W73448   9.251   4.527   0.964
 2849W        W73449  10.681  44.202  11.841
 2850W        W73450  22.445  17.238   3.834
 2851W        W73451  15.680   8.131   4.411
 2852W        W73452  13.132  41.001  13.035
 2853W        W73453  34.727  14.098  13.981
 2854W        W73454  38.401  43.963  10.963
 2855W        W73455  34.588  14.071   3.649
 2856W        W73456  29.563  10.176  11.680
 2857W        W73457  41.790  23.418  14.298
 2858W        W73458  14.554  33.756   4.444
 2859W        W73459  14.776  36.139   0.483
 2860W        W73460  16.610  33.091  12.606
 2861W        W73461  15.438  18.496   0.314
 2862W        W73462  16.155   8.253   1.409
 2863W        W73463   1.784  12.877  14.430
 2864W        W73464  39.516  39.784   4.138
 2865W        W73465  27.741  15.731  11.184
 2866W        W73466  15.135   7.243  11.103
 2867W        W73467  12.929  40.029  14.016
 2868W        W73468  27.717  21.129   0.991
 2869W        W73469  18.888  38.751   0.164
 2870W        W73470  20.288   4.459  14.826
 2871W        W73471  44.444   0.498   4.369
 2872W        W73472  21.088  14.576  13.998
 2873W        W73473  33.121  41.379   3.590
 2874W        W73474  34.385  15.670   4.667
 2875W        W73475  27.641  32.514   2.241
 2876W        W73476  39.282  37.516  14.370
 2877W        W73477  22.549  18.748   2.216
 2878W        W73478  12.599  12.848   3.092
 2879W        W73479  12.160   3.281   5.118
 2880W        W73480  43.628  41.629   4.747
 2881W        W73481  28.128  23.567   2.028
 2882W        W73482  29.063  10.355   0.284
 2883W        W73483   0.554  40.314   0.416
 2884W        W73484  34.015  31.067  13.902
 2885W        W73485   3.013  34.483   3.202
 2886W        W73486  18.216   8.135  11.476
 2887W        W73487  43.547  17.933  11.910
 2888W        W73488  27.402  11.139   1.667
 2889W        W73489  36.368  39.396   4.244
 2890W        W73490  22.054  17.816  12.384
 2891W        W73491   3.361  31.542  10.208
 2892W        W73492   8.567  25.412  11.064
 2893W        W73493  23.091  15.505   4.581
 2894W        W73494  41.076   6.783   2.871
 2895W        W73495  40.431  28.873   1.412
 2896W        W73496  17.835  15.774   3.647
 2897W        W73497  15.540  13.266  11.070
 2898W        W73498   2.835  36.496   2.410
 2899W        W73499  17.648  38.081  13.988
 2900W        W73500  14.599  22.207  12.587
 2901W        W73501   4.741  43.817  11.893
 2902W        W73502  22.152  24.210   2.095
 2903W        W73503   3.396   6.111  11.278
 2904W        W73504  13.787  24.152   2.681
 2905W        W73505   0.349  39.990  10.688
 2906W        W73506  26.150  23.684   0.380
 2907W        W73507   2.204  44.830   1.783
 2908W        W73508  35.037   7.908   0.933
 2909W        W73509  28.785  10.264  13.765
 2910W        W73510  32.980   0.987  10.748
 2911W        W73511  17.771  35.967  12.185
 2912W        W73512   8.789  24.123  13.741
 2913W        W73513  39.895  42.078  14.909
 2914W        W73514  38.991   1.202   2.717
 2915W        W73515  37.623  40.966   4.297
 2916W        W73516  37.490   0.748  13.031
 2917W        W73517  13.943  19.752   4.272
 2918W        W73518  35.796  37.422   3.782
 2919W        W73519  16.920  17.284   3.703
 2920W        W73520   6.877  16.611   4.711
 2921W        W73521   5.213   1.892  10.795
 2922W        W73522  16.775   1.282  12.018
 2923W        W73523  37.454   2.885   3.154
 2924W        W73524  29.192  34.472   2.280
 2925W        W73525  17.662   4.602  13.794
 2926W        W73526  22.351  34.991  13.227
 2927W        W73527  26.252  21.226  13.396
 2928W        W73528  37.016  26.136  13.006
 2929W        W73529  21.747  25.587   1.354
 2930W        W73530  18.163  21.972   4.593
 2931W        W73531  22.016  17.528  12.865
 2932W        W73532   0.022  31.081   3.801
 2933W        W73533  35.697  12.578   1.417
 2934W        W73534  25.328   3.983   4.159
 2935W        W73535  13.624  27.795  14.490
 2936W        W73536  27.875  20.009  14.647
 2937W        W73537  42.531  25.612   2.335
 2938W        W73538   2.934  11.735   4.375
 2939W        W73539   5.141  40.753  12.654
 2940W        W73540  37.336   4.050  11.163
 2941W        W73541  30.960  36.647  13.518
 2942W        W73542  38.744   2.928   3.698
 2943W        W73543  29.003  27.693  12.933
 2944W        W73544  42.347  30.003  13.833
 2945W        W73545   3.590  31.023  12.867
 2946W        W73546  34.896   4.723  11.108
 2947W        W73547  20.169  12.375   4.654
 2948W        W73548  42.963   3.018   3.716
 2949W        W73549  21.031  14.050  11.079
 2950W        W73550  24.065   2.111  11.586
 2951W        W73551  16.631  33.667  14.848
 2952W        W73552  10.828  37.424   3.670
 2953W        W73553  42.477  33.909   1.720
 2954W        W73554  27.172  19.297  12.968
 2955W        W73555  19.728  30.007   3.223
 2956W        W73556   4.222  44.827   0.915
 2957W        W73557  43.977  19.511   4.094
 2958W        W73558   8.752  16.256  14.988
 2959W        W73559  11.633  27.780  11.263
 2960W        W73560  38.426  26.615  13.394
 2961W        W73561  27.467  19.148  11.132
 2962W        W73562  13.805   3.294   3.838
 2963W        W73563  32.101  25.133   0.494
 2964W        W73564  22.230   5.161  12.387
 2965W        W73565  12.029  17.152   1.351
 2966W        W73566   9.781   8.214   0.407
 2967W        W73567  21.705  29.514   3.569
 2968W        W73568  33.237  18.200   2.414
 2969W        W73569  35.124  19.664   0.864
 2970W        W73570  17.181  10.160   1.262
 2971W        W73571  34.012   2.373  13.555
 2972W        W73572  30.063  13.230  13.638
 2973W        W73573  19.220  17.241   4.569
 2974W        W73574   1.848   4.481  12.599
 2975W        W73575  41.490  29.542   2.431
 2976W        W73576  40.023   5.711   3.598
 2977W        W73577   4.719   9.728  10.689
 2978W        W73578   9.753  16.239   0.690
 2979W        W73579   1.791  43.493  14.069
 2980W        W73580   8.331  37.458  10.915
 2981W        W73581  39.025  28.962  13.082
 2982W        W73582  19.595  17.679   1.006
 2983W        W73583   4.511  27.963   4.285
 2984W        W73584  34.696   9.815  11.643
 2985W        W73585  33.250  26.710   3.695
 2986W        W73586  30.964   6.568  12.785
 2987W        W73587  14.802  40.936  11.472
 2988W        W73588  29.184  25.399  13.577
 2989W        W73589   3.368  41.522   4.900
 2990W        W73590   4.895  24.975  14.490
 2991W        W73591  42.096  38.453   1.139
 2992W        W73592  30.341   1.505  11.961
 2993W        W73593   9.160   9.385  10.705
 2994W        W73594  26.515   2.741  11.082
 2995W        W73595  26.657  35.439  12.575
 2996W        W73596  14.200   2.258   3.173
 2997W        W73597  33.359  10.163  14.867
 2998W        W73598  24.345  12.791   3.472
 2999W        W73599  42.759   8.872   2.308
 3000W        W73600  44.341  37.303   3.181
 3001W        W73601  39.027   9.269  10.894
 3002W        W73602  12.217  44.863  11.097
 3003W        W73603   2.881  15.332   1.232
 3004W        W73604   0.422  15.271   1.227
 3005W        W73605  44.273  35.150  11.534
 3006W        W73606  23.019   1.460   4.139
 3007W        W73607  20.292   1.907  13.856
 3008W        W73608  12.398  38.351   1.703
 3009W        W73609   6.368  32.363   2.280
 3010W        W73610  22.019   8.313   1.155
 3011W        W73611  19.500  19.085  12.498
 3012W        W73612  36.550  11.269  14.600
 3013W        W73613  44.021  20.283   3.677
 3014W        W73614  42.991  15.681  14.549
 3015W        W73615  26.199  37.436  14.461
 3016W        W73616   6.635   4.769   2.815
 3017W        W73617  43.098   8.429   1.382
 3018W        W73618  28.128  18.111   0.744
 3019W        W73619  39.922  21.837   0.510
 3020W        W73620   8.114  36.819   0.932
 3021W        W73621   2.434  17.652   2.107
 3022W        W73622  31.162  30.178  12.339
 3023W        W73623  42.404  35.876  13.747
 3024W        W73624  13.138  36.545   0.713
 3025W        W73625  11.966  24.507   3.749
 3026W        W73626   0.247  29.568  13.949
 3027W        W73627  33.415   8.647   4.696
 3028W        W73628  25.743   7.346   0.571
 3029W        W73629  23.472  43.953   3.207
 3030W        W73630  33.126   6.591  10.706
 3031W        W73631  31.448  11.290   1.847
 3032W        W73632  39.402  26.122  12.133
 3033W        W73633  10.259   7.800  12.425
 3034W        W73634  18.038  10.360   2.237
 3035W        W73635  25.049  28.611  10.721
 3036W        W73636  39.254   0.229  14.878
 3037W        W73637  21.362   7.364  14.745
 3038W        W73638  36.571  23.596   1.702
 3039W        W73639   5.684  17.103  14.318
 3040W        W73640  34.033  23.334   0.963
 3041W        W73641  37.445  34.905   2.003
 3042W        W73642   9.785   1.311  10.432
 3043W        W73643   2.210   5.931  14.928
 3044W        W73644  16.771  43.005  12.010
 3045W        W73645   3.222  18.096   4.609
 3046W        W73646  23.698  25.172   0.493
 3047W        W73647  34.988  35.397   0.497
 3048W        W73648  30.666  38.340   3.329
 3049W        W73649  33.304  38.265  12.829
 3050W        W73650  39.650  10.257   0.906
 3051W        W73651  17.499  37.996   2.167
 3052W        W73652  34.549  18.490  14.837
 3053W        W73653   3.360  27.155  12.874
 3054W        W73654  26.705  31.389   1.480
 3055W        W73655  13.165  28.045  14.454
 3056W        W73656  19.704  32.973  12.829
 3057W        W73657  12.850  14.053  12.803
 3058W        W73658  11.346  44.963  11.493
 3059W        W73659  10.669  21.044   4.461
 3060W        W73660   0.389  20.818   3.171
 3061W        W73661  22.165  29.151  14.276
 3062W        W73662  35.108  20.584  12.748
 3063W        W73663  27.005   9.838   4.085
 3064W        W73664  38.850  40.459   2.218
 3065W        W73665  14.590  44.834   2.119
 3066W        W73666  35.114  43.801   0.551
 3067W        W73667   0.678  27.332   2.247
 3068W        W73668  38.303  25.670   2.318
 3069W        W73669  15.413  36.410   2.229
 3070W        W73670  41.045   6.461  14.262
 3071W        W73671  19.538  37.678   2.220
 3072W        W73672   5.664  39.371   0.941
 3073W        W73673  37.699   4.854   4.746
 3074W        W73674  40.418  41.964  14.133
 3075W        W73675  26.243  43.877  12.989
 3076W        W73676  21.822  12.076   3.913
 3077W        W73677  17.131  29.453  14.875
 3078W        W73678  12.061  37.729  13.914
 3079W        W73679  31.773  18.160  12.000
 3080W        W73680  24.182  24.126  13.390
 3081W        W73681  33.329  22.490  12.172
 3082W        W73682   8.488  15.858  14.688
 3083W        W73683   9.716   6.686  10.596
 3084W        W73684  38.882  18.850   1.411
 3085W        W73685   0.748  23.496   2.883
 3086W        W73686  18.568   6.178  12.282
 3087W        W73687  32.889  31.853  14.924
 3088W        W73688  30.637  34.299  12.414
 3089W        W73689   8.290  15.547  13.711
 3090W        W73690  13.799  30.087   0.595
 3091W        W73691  22.581  28.579   0.741
 3092W        W73692  43.043  16.779  12.333
 3093W        W73693  24.422  10.307   0.901
 3094W        W73694  39.846  40.448   0.782
 3095W        W73695  19.586   1.603   0.706
 3096W        W73696   4.710  41.357  11.180
 3097W        W73697   4.975  21.871  12.469
 3098W        W73698  15.764  25.690   1.775
 3099W        W73699  29.774  31.536  11.668
 3100W        W73700  15.098  43.840  13.444
 3101W        W73701  39.839  35.861   0.204
 3102W        W73702   0.216  39.744  11.116
 3103W        W73703  27.437  39.746   2.734
 3104W        W73704  12.276  25.105  11.823
 3105W        W73705   6.691  30.930   1.120
 3106W        W73706  28.842   2.853  10.545
 3107W        W73707  31.177   7.338   2.771
 3108W        W73708  30.588  30.358  14.434
 3109W        W73709  22.584  32.351  11.267
 3110W        W73710  26.161  22.286   0.306
 3111W        W73711   6.781  40.299   3.290
 3112W        W73712  31.930  27.951   1.764
 3113W        W73713  14.534  23.623   2.829
 3114W        W73714  13.890   8.709  11.171
 3115W        W73715  35.274  22.958   4.611
 3116W        W73716  22.477  38.309   2.223
 3117W        W73717   2.942  12.754   3.807
 3118W        W73718  41.996  35.585  13.402
 3119W        W73719  43.757  14.205   2.465
 3120W        W73720   1.787   8.741  13.469
 3121W        W73721  23.708  35.405  13.330
 3122W        W73722   8.442  16.271  10.580
 3123W        W73723   2.007  41.462  10.757
 3124W        W73724  24.019  13.785   3.175
 3125W        W73725  43.682   1.026  10.713
 3126W        W73726  32.237  15.877   3.177
 3127W        W73727   3.195   2.390  14.832
 3128W        W73728  35.426  42.397  10.404
 3129W        W73729  16.771  32.715   4.089
 3130W        W73730   8.647  38.474  12.069
 3131W        W73731  11.696  28.083   2.313
 3132W        W73732  18.507  17.511  10.289
 3133W        W73733   7.398  17.659   4.633
 3134W        W73734  26.947  31.075   2.640
 3135W        W73735  36.835  29.111   0.862
 3136W        W73736  21.454  31.524   2.208
 3137W        W73737  33.385  28.644  12.517
 3138W        W73738  22.079  36.172  13.705
 3139W        W73739  30.611  21.038  10.536
 3140W        W73740   6.389  16.189   2.654
 3141W        W73741  24.484  23.993   0.865
 3142W        W73742   5.135  14.107  11.554
 3143W        W73743   1.980  35.957   3.264
 3144W        W73744  37.403   9.231   5.074
 3145W        W73745  21.037   9.335  10.285
 3146W        W73746  44.015  14.249   4.309
 3147W        W73747  16.366  30.390  13.749
 3148W        W73748  29.872   2.792   0.954
 3149W        W73749  24.937  19.724   0.914
 3150W        W73750  11.962  41.845  12.522
 3151W        W73751  32.035  38.414  14.409
 3152W        W73752  40.504  42.871   4.117
 3153W        W73753  30.265  18.507  12.710
 3154W        W73754   9.039  28.134   3.615
 3155W        W73755  26.569   3.469   2.279
 3156W        W73756  32.907  25.463  14.971
 3157W        W73757  35.953  18.401   4.334
 3158W        W73758  38.636   4.335   2.594
 3159W        W73759  13.736  39.663   2.336
 3160W        W73760  15.330  10.715  12.486
 3161W        W73761  11.321   2.697  13.437
 3162W        W73762  23.720  20.570   4.043
 3163W        W73763  11.261  27.196  10.716
 3164W        W73764  19.367  16.779   4.706
 3165W        W73765   0.143  33.642   3.659
 3166W        W73766   9.020  13.300   4.619
 3167W        W73767  28.856  27.108   2.230
 3168W        W73768  26.212  41.772   1.271
 3169W        W73769  28.990  43.419   1.081
 3170W        W73770   8.117  22.667  12.900
 3171W        W73771   2.718  22.068   2.564
 3172W        W73772   1.358  23.111  12.538
 3173W        W73773  10.852   9.226   4.620
 3174W        W73774  24.215   2.674   4.168
 3175W        W73775  10.831  10.035  14.780
 3176W        W73776  27.504  21.741   4.285
 3177W        W73777   6.969  33.558  13.552
 3178W        W73778  13.927  23.262  13.361
 3179W        W73779  15.692  33.887   3.775
 3180W        W73780  19.118  29.654   1.228
 3181W        W73781   7.547   2.213  14.808
 3182W        W73782  39.961  38.045   3.617
 3183W        W73783  35.083  24.838   3.643
 3184W        W73784   6.663  25.521   0.878
 3185W        W73785  40.720  17.979  13.061
 3186W        W73786  32.490  13.444  11.124
 3187W        W73787  35.612  30.416  11.088
 3188W        W73788  26.213  32.981   2.748
 3189W        W73789  13.713  41.505  10.295
 3190W        W73790   8.726  21.994  13.285
 3191W        W73791  33.545  22.804   0.442
 3192W        W73792  10.079   5.712  10.678
 3193W        W73793  36.584  40.957  12.037
 3194W        W73794   3.949  21.204  13.825
 3195W        W73795  18.533  29.391   3.991
 3196W        W73796  12.314   3.650   1.561
 3197W        W73797  17.256  23.668   4.621
 3198W        W73798  41.308  25.987   2.624
 3199W        W73799  26.716  38.005  13.247
 3200W        W73800   1.840  35.137   2.757
 3201W        W73801   0.483  21.477   2.729
 3202W        W73802  15.137  37.062   3.360
 3203W        W73803  39.915   0.408   4.353
 3204W        W73804  16.855  11.248   0.940
 3205W        W73805  41.632  20.771  12.836
 3206W        W73806  29.459  22.756  10.031
 3207W        W73807  15.090  21.502  14.334
 3208W        W73808  21.826  22.713  13.431
 3209W        W73809  22.101  23.717   2.235
 3210W        W73810  29.702   8.917  11.228
 3211W        W73811   9.048  10.343   4.526
 3212W        W73812  43.382  18.630   1.247
 3213W        W73813  34.140   4.876  13.561
 3214W        W73814  41.842  17.575   3.789
 3215W        W73815   2.954  26.369   0.282
 3216W        W73816   3.349  39.531   2.297
 3217W        W73817  13.725   8.355   1.990
 3218W        W73818   0.387  29.198  11.446
 3219W        W73819  37.560   3.401  14.438
 3220W        W73820  11.225  14.061  10.515
 3221W        W73821  26.693  22.986   2.292
 3222W        W73822  25.385  10.291   1.558
 3223W        W73823  33.938   2.267   4.338
 3224W        W73824  19.580  35.937  13.467
 3225W        W73825  23.734  10.602  14.104
 3226W        W73826   3.379  41.792  13.172
 3227W        W73827  40.398  23.083   1.983
 3228W        W73828  27.090   9.874  14.073
 3229W        W73829  28.176   2.823  14.352
 3230W        W73830  43.379   6.844   3.802
 3231W        W73831  34.946  32.288  11.246
 3232W        W73832  39.637   0.510   1.790
 3233W        W73833  37.771  15.503   5.105
 3234W        W73834  40.855  36.526  14.771
 3235W        W73835  36.485  30.359  10.325
 3236W        W73836  39.996  14.557   4.606
 3237W        W73837  39.283  30.414  11.048
 3238W        W73838  12.913   0.314  12.378
 3239W        W73839  14.667  43.394  13.887
 3240W        W73840  20.012  40.778   1.700
 3241W        W73841  17.365   1.772   4.134
 3242W        W73842  16.423  33.359   0.266
 3243W        W73843  40.508  44.365  12.359
 3244W        W73844  27.213  15.705  11.176
 3245W        W73845   0.512  27.020   0.773
 3246W        W73846  12.573  35.579  12.845
 3247W        W73847  22.934  19.623   2.157
 3248W        W73848   4.640  15.697   4.216
 3249W        W73849  10.177  34.560   3.651
 3250W        W73850  23.902   7.917  12.485
 3251W        W73851  30.424   1.596  12.455
 3252W        W73852  18.246  41.657  12.982
 3253W        W73853  11.894  37.354  11.251
 3254W        W73854  29.346  21.542  10.636
 3255W        W73855  15.353   7.945  12.295
 3256W        W73856   7.231   1.972  14.471
 3257W        W73857  41.784  17.008  11.605
 3258W        W73858   2.169  33.026  14.791
 3259W        W73859  18.830  24.123   1.304
 3260W        W73860  42.363  15.628  11.656
 3261W        W73861  22.615  35.208   1.158
 3262W        W73862  25.623  42.257   1.831
 3263W        W73863  28.509  14.345   3.550
 3264W        W73864  31.532  24.237   2.822
 3265W        W73865  27.010  21.702  11.965
 3266W        W73866   9.746  23.575  14.122
 3267W        W73867  34.101  17.160  13.503
 3268W        W73868  27.956  42.066   4.678
 3269W        W73869  33.490  42.875  10.085
 3270W        W73870  22.079  19.524   0.907
 3271W        W73871  44.870  43.121   3.184
 3272W        W73872   2.748  10.550  13.756
 3273W        W73873   5.438  23.072   4.435
 3274W        W73874  34.863  43.872  11.462
 3275W        W73875  35.963  14.851  13.792
 3276W        W73876   6.170  31.471   2.137
 3277W        W73877  12.548   4.870  12.472
 3278W        W73878   4.896   1.300   1.958
 3279W        W73879  42.410  37.532   4.874
 3280W        W73880  33.779   5.648  13.848
 3281W        W73881   0.699  42.372   1.042
 3282W        W73882  43.798  20.785  14.478
 3283W        W73883  17.091  30.628  10.955
 3284W        W73884  38.582  15.775  10.525
 3285W        W73885  31.337   8.109   1.845
 3286W        W73886  34.950  39.403  10.695
 3287W        W73887  42.404  31.376  10.578
 3288W        W73888   6.062  30.939   1.894
 3289W        W73889   5.571  34.421   0.737
 3290W        W73890  36.163  27.759  14.382
 3291W        W73891  35.904  35.920  14.934
 3292W        W73892  40.064   1.665  14.502
 3293W        W73893  19.681   9.109   0.780
 3294W        W73894  25.917  38.049   1.125
 3295W        W73895  44.508  40.003   4.797
 3296W        W73896  32.868  11.217  11.205
 3297W        W73897  14.202  40.001  12.878
 3298W        W73898   4.161   1.287   1.705
 3299W        W73899  43.804   5.894  11.988
 3300W        W73900  17.618  25.670   1.793
 3301W        W73901  36.372  26.222   1.869
 3302W        W73902  18.726  15.252   0.781
 3303W        W73903   5.280  35.246  11.662
 3304W        W73904   2.016   0.327  14.828
 3305W        W73905  26.742  40.894  10.549
 3306W        W73906  21.676  14.224  13.352
 3307W        W73907  23.418  19.263   0.239
 3308W        W73908  16.008   9.305   2.820
 3309W        W73909  21.057   1.434  12.884
 3310W        W73910  25.687  37.211   3.788
 3311W        W73911  14.120  28.537  14.948
 3312W        W73912   0.750   1.961  10.185
 3313W        W73913  29.648  44.404   0.340
 3314W        W73914   7.914  29.397   2.958
 3315W        W73915  31.047  14.516  13.506
 3316W        W73916  44.534  10.049   0.824
 3317W        W73917  24.484  25.847  13.169
 3318W        W73918  20.493  34.898  11.072
 3319W        W73919  15.003  18.742   4.185
 3320W        W73920  39.354  44.015   0.519
 3321W        W73921   4.386  20.623   2.489
 3322W        W73922  15.402  38.906  13.968
 3323W        W73923  14.316   2.877  14.409
 3324W        W73924   8.300  28.466   3.845
 3325W        W73925  10.717  44.183   4.276
 3326W        W73926  27.632   1.404  11.586
 3327W        W73927  34.196  20.847  12.973
 3328W        W73928  32.678  25.867   0.203
 3329W        W73929  17.695  37.078   0.732
 3330W        W73930  31.559  25.774   1.347
 3331W        W73931  20.899  38.337   2.327
 3332W        W73932  10.900  31.158   1.920
 3333W        W73933   6.701  44.393  13.994
 3334W        W73934  25.068  37.635   2.239
 3335W        W73935  44.814  40.798  13.146
 3336W        W73936  42.893  27.124   2.462
 3337W        W73937  33.196  16.755   1.596
 3338W        W73938  29.075  29.942  14.275
 3339W        W73939  35.992  40.550  12.801
 3340W        W73940  23.014   0.917   2.858
 3341W        W73941  25.043  31.487   0.973
 3342W        W73942   0.276  38.487  13.095
 3343W        W73943  10.783   1.658   1.275
 3344W        W73944  12.727  17.544  11.091
 3345W        W73945   3.988  15.183  12.478
 3346W        W73946  23.095  13.196   1.333
 3347W        W73947  41.353   8.030  10.214
 3348W        W73948  39.152   0.724   1.910
 3349W        W73949  43.692  33.581  13.609
 3350W        W73950  39.058   6.768   4.589
 3351W        W73951  37.579  21.990  12.692
 3352W        W73952  32.564  28.281  11.745
 3353W        W73953  10.843  40.307   3.312
 3354W        W73954   5.332  36.476  14.783
 3355W        W73955  37.317  14.326   0.784
 3356W        W73956  15.324  10.659  14.267
 3357W        W73957  21.196  22.304  13.111
 3358W        W73958  23.065  14.630   2.496
 3359W        W73959  31.855  36.067   4.823
 3360W        W73960   5.683   9.980  11.597
 3361W        W73961  32.537  19.596  10.659
 3362W        W73962   1.816  28.380   0.478
 3363W        W73963  44.188   6.084   2.165
 3364W        W73964   1.300  10.794  12.735
 3365W        W73965  42.305  29.060  14.973
 3366W        W73966  31.951  23.942  10.721
 3367W        W73967  21.607  13.551   1.817
 3368W        W73968   8.215   5.555  11.585
 3369W        W73969  18.570  38.356  14.729
 3370W        W73970  44.645  27.097  14.900
 3371W        W73971  26.529   9.690   5.042
 3372W        W73972  24.144   0.741   1.929
 3373W        W73973  44.936  13.881  11.154
 3374W        W73974  18.167   6.182  14.864
 3375W        W73975   6.114  36.576  12.593
 3376W        W73976   1.623  35.092  13.042
 3377W        W73977   1.001  13.711  12.510
 3378W        W73978  25.127  15.228   0.501
 3379W        W73979  36.291  13.596  11.251
 3380W        W73980   0.498  42.452   1.544
 3381W        W73981  42.343  41.793   0.738
 3382W        W73982  27.020   8.012  11.162
 3383W        W73983  12.299  36.931  14.496
 3384W        W73984   1.982  35.197  14.347
 3385W        W73985  27.039   1.242  12.488
 3386W        W73986   2.463  24.573  12.003
 3387W        W73987  29.577   7.438  13.122
 3388W        W73988  19.935  30.051   1.449
 3389W        W73989  31.549  38.697   5.050
 3390W        W73990  30.203  35.920  10.890
 3391W        W73991  21.679  17.655  11.067
 3392W        W73992   6.608  35.371   3.075
 3393W        W73993   9.351   6.819   4.036
 3394W        W73994  26.278   7.414   1.975
 3395W        W73995  10.592  34.963   3.299
 3396W        W73996  22.779  35.060  14.923
 3397W        W73997   5.128   1.197   4.865
 3398W        W73998  14.680  24.960   3.678
 3399W        W73999  40.560  35.287   3.296
 3400W        W74000   9.316   1.935   2.401
 3401W        W74001  39.242  39.930  13.112
 3402W        W74002  19.655   6.279   3.504
 3403W        W74003   0.619  38.339   0.464
 3404W        W74004  18.359   2.821   0.908
 3405W        W74005  29.201  16.058  10.502
 3406W        W74006  10.111  39.073   3.762
 3407W        W74007   6.048  10.032   4.924
 3408W        W74008   0.930  35.640   1.876
 3409W        W74009  17.537  43.360  11.864
 3410W        W74010  41.409   1.312  10.678
 3411W        W74011  38.016   9.690   1.031
 3412W        W74012  27.502  37.026  14.843
 3413W        W74013  14.190  40.548  12.937
 3414W        W74014  40.829   0.886   3.493
 3415W        W74015  36.220  16.254   2.793
 3416W        W74016  41.777  19.468   2.730
 3417W        W74017  21.379   0.834   3.798
 3418W        W74018  31.098   9.869  11.588
 3419W        W74019  12.958   7.838   3.817
 3420W        W74020  18.846  10.391  11.931
 3421W        W74021  37.852  24.543  11.343
 3422W        W74022  20.641  16.617   2.330
 3423W        W74023  12.562   3.643   3.702
 3424W        W74024  30.678  41.439   0.799
 3425W        W74025  23.150  22.494   1.432
 3426W        W74026  25.471  18.790   1.780
 3427W        W74027   3.746  42.653  13.567
 3428W        W74028   5.816  11.049  12.931
 3429W        W74029  12.630  32.932  13.595
 3430W        W74030  39.833   1.407   4.106
 3431W        W74031  43.288  30.020  11.851
 3432W        W74032  14.570  27.405  12.042
 3433W        W74033  29.154  14.724  10.669
 3434W        W74034  19.511   6.315   0.726
 3435W        W74035   0.654   2.967  14.161
 3436W        W74036   8.775  32.875   3.761
 3437W        W74037   1.349  30.548   4.383
 3438W        W74038   2.331  11.548   0.732
 3439W        W74039  38.019   7.381  10.975
 3440W        W74040  43.713  41.115  13.882
 3441W        W74041  28.575  36.059   1.889
 3442W        W74042   1.810  13.174   0.265
 3443W        W74043  20.692  17.226  14.948
 3444W        W74044  17.305  41.731   0.442
 3445W        W74045   3.615  17.088  12.382
 3446W        W74046  37.021   4.204   3.194
 3447W        W74047  42.050  20.307  13.963
 3448W        W74048   1.903  24.628   1.832
 3449W        W74049  17.738  10.899  12.520
 3450W        W74050   2.960   2.256   3.139
 3451W        W74051  36.029   4.851   0.759
 3452W        W74052  28.085  10.141  10.268
 3453W        W74053  15.024  28.558  13.640
 3454W        W74054  13.801  39.454   3.827
 3455W        W74055  40.148  21.696   3.589
 3456W        W74056  23.935   7.166   3.154
 3457W        W74057  33.097  30.057  11.987
 3458W        W74058  10.386  25.209   0.728
 3459W        W74059  33.119  22.112  13.793
 3460W        W74060  14.221  31.026   2.811
 3461W        W74061  31.149  18.648   2.737
 3462W        W74062  22.783  10.661   3.335
 3463W        W74063  17.512  21.654   1.843
 3464W        W74064  19.101  42.901  13.696
 3465W        W74065  34.371  19.772   0.430
 3466W        W74066  13.545  26.497   3.285
 3467W        W74067  38.071  43.756  13.712
 3468W        W74068   8.119  41.759   1.253
 3469W        W74069  28.183  17.586   4.449
 3470W        W74070  17.767  13.239  13.343
 3471W        W74071  32.316   6.508  10.956
 3472W        W74072  31.711  35.077   1.652
 3473W        W74073  40.359  21.477  11.514
 3474W        W74074   3.811  27.558  10.915
 3475W        W74075   5.802  30.967  14.289
 3476W        W74076  21.078  19.532   3.411
 3477W        W74077  41.313  13.423   0.640
 3478W        W74078  42.523  18.059   4.899
 3479W        W74079  43.382  14.242   0.654
 3480W        W74080  30.970  42.674  13.689
 3481W        W74081  30.619  21.588   2.413
 3482W        W74082  16.784  42.268  14.935
 3483W        W74083   6.194  21.676   4.029
 3484W        W74084  15.475  12.383   0.414
 3485W        W74085   3.931  43.026   0.704
 3486W        W74086  22.587  40.778  14.752
 3487W        W74087   3.270  11.698   0.838
 3488W        W74088   1.771  37.962   1.142
 3489W        W74089  26.122  29.945  14.589
 3490W        W74090  16.073   9.655   3.227
 3491W        W74091  12.280  34.144  14.025
 3492W        W74092  10.415  30.089   1.374
 3493W        W74093  18.187   1.177   4.230
 3494W        W74094   3.919  18.741   1.858
 3495W        W74095  13.200   9.204   1.263
 3496W        W74096  37.509  11.513  14.500
 3497W        W74097   6.910  29.161  12.905
 3498W        W74098  40.954  17.274  11.237
 3499W        W74099  12.913  19.212  14.895
 3500W        W74100  19.261  35.564  10.424
 3501W        W74101  40.913   2.358   1.799
 3502W        W74102  39.219   8.434   3.768
 3503W        W74103  36.965  13.547  10.764
 3504W        W74104  39.788  25.520   2.485
 3505W        W74105  14.394  25.725   0.540
 3506W        W74106  10.300   5.190  14.807
 3507W        W74107   1.346  10.140  12.515
 3508W        W74108  42.265   8.203  14.398
 3509W        W74109  35.989  14.254   3.632
 3510W        W74110  37.892  37.533  10.582
 3511W        W74111   2.291   6.750   0.578
 3512W        W74112  36.384  17.196   4.609
 3513W        W74113   5.342   2.040  11.582
 3514W        W74114  38.464  12.047   3.368
 3515W        W74115  18.334  16.567  13.243
 3516W        W74116  44.626  35.953   4.898
 3517W        W74117  28.852  17.848  10.600
 3518W        W74118  33.224  25.545   3.853
 3519W        W74119  34.350  21.624   4.576
 3520W        W74120  38.476   7.816  11.623
 3521W        W74121  28.430   2.026  14.064
 3522W        W74122  23.150  20.290   0.963
 3523W        W74123   4.074   4.593  12.129
 3524W        W74124   0.910  28.296  12.121
 3525W        W74125  22.966  43.192   9.783
 3526W        W74126  37.011  43.727   3.258
 3527W        W74127   3.728  30.379   0.406
 3528W        W74128  11.271  32.324   4.582
 3529W        W74129  36.389  33.835   3.348
 3530W        W74130  13.069  29.489   1.384
 3531W        W74131  42.550   1.497   2.292
 3532W        W74132  41.922  25.268   4.656
 3533W        W74133  27.587  29.642  14.399
 3534W        W74134  21.044  41.406   0.059
 3535W        W74135   0.521  28.389  12.515
 3536W        W74136  24.218  33.497   2.008
 3537W        W74137  24.792  34.499  11.671
 3538W        W74138  26.106  42.795   1.345
 3539W        W74139   1.418  38.057  11.920
 3540W        W74140  41.290  40.899  11.233
 3541W        W74141  23.000   1.861  13.435
 3542W        W74142   9.353   2.868  13.404
 3543W        W74143  25.131  27.267   3.317
 3544W        W74144  38.958  39.579  13.367
 3545W        W74145  32.600  35.675   0.991
 3546W        W74146  35.399  31.830   1.470
 3547W        W74147   6.881  13.096   3.234
 3548W        W74148  16.352   6.783   0.296
 3549W        W74149  39.762  24.597   1.836
 3550W        W74150  16.783  32.480  12.209
 3551W        W74151  17.159  44.544  12.881
 3552W        W74152  20.713  21.911   2.319
 3553W        W74153   1.735  20.332   1.325
 3554W        W74154  25.232   5.849  12.615
 3555W        W74155  35.089  39.033  11.143
 3556W        W74156  33.008  36.957  10.962
 3557W        W74157  29.251  38.790  13.182
 3558W        W74158   3.006  39.277  14.820
 3559W        W74159  43.000  17.338   0.476
 3560W        W74160  16.827  28.309   4.189
 3561W        W74161  24.195  29.004   1.871
 3562W        W74162   5.731  42.903  10.457
 3563W        W74163   9.204  37.691   4.209
 3564W        W74164  20.550  40.106  11.193
 3565W        W74165  38.056   8.227   0.771
 3566W        W74166  24.477  19.481  11.629
 3567W        W74167   1.706  36.364  12.116
 3568W        W74168  42.412   9.253   1.515
 3569W        W74169  23.431  23.976   1.465
 3570W        W74170  39.998  25.234   0.841
 3571W        W74171  29.141  42.895   2.812
 3572W        W74172  37.404   1.209  11.000
 3573W        W74173  29.100  14.337  11.391
 3574W        W74174  17.263   1.731   0.453
 3575W        W74175  37.569  44.727   4.619
 3576W        W74176  21.636  30.513  10.631
 3577W        W74177  26.123  16.033   2.806
 3578W        W74178   3.382  29.659   2.888
 3579W        W74179  25.793  32.971  13.920
 3580W        W74180   4.214  42.510   2.387
 3581W        W74181  29.016  14.376   4.240
 3582W        W74182  41.275  27.789   3.168
 3583W        W74183  18.594  17.681  14.370
 3584W        W74184  27.646  11.053  12.480
 3585W        W74185   3.720  17.674   4.444
 3586W        W74186  35.062  11.822   4.122
 3587W        W74187  26.340  21.054  14.408
 3588W        W74188  34.008  13.415   3.291
 3589W        W74189  16.470  40.147   4.655
 3590W        W74190   3.385  25.502  12.901
 3591W        W74191  21.244   5.452   4.463
 3592W        W74192   3.232   7.895   5.039
 3593W        W74193   4.792  40.618  12.155
 3594W        W74194   2.714  32.083   2.573
 3595W        W74195  31.819   9.678   1.310
 3596W        W74196   9.810  20.217  14.774
 3597W        W74197   0.927  12.094   2.230
 3598W        W74198   3.975  19.807   3.782
 3599W        W74199  31.321   4.227  11.965
 3600W        W74200  44.085  24.693  11.965
 3601W        W74201  18.558  25.946  11.724
 3602W        W74202  28.022  34.563   3.667
 3603W        W74203  34.141   2.049  11.128
 3604W        W74204  40.828  24.574   0.944
 3605W        W74205  19.152   2.699   2.696
 3606W        W74206  32.476   3.009  14.560
 3607W        W74207  43.026  32.088  11.437
 3608W        W74208  41.606   9.737   2.884
 3609W        W74209  22.691  36.994   3.641
 3610W        W74210  37.037   0.422  11.010
 3611W        W74211   3.891  41.973  13.016
 3612W        W74212  43.033   4.047   4.959
 3613W        W74213  16.268   5.178   2.168
 3614W        W74214  22.615  44.545   4.057
 3615W        W74215  38.265  44.403  14.096
 3616W        W74216   1.874  19.658   0.826
 3617W        W74217  21.880   5.454  13.945
 3618W        W74218  44.474  24.740  11.513
 3619W        W74219  22.206  22.234   3.203
 3620W        W74220  30.423  20.797  10.957
 3621W        W74221   7.896  20.106  14.980
 3622W        W74222   7.610  29.160  11.594
 3623W        W74223  42.524   2.870  14.735
 3624W        W74224   8.392  11.401  12.467
 3625W        W74225  20.552  35.819   1.954
 3626W        W74226  30.067  17.289   1.313
 3627W        W74227  31.086   7.644   1.668
 3628W        W74228   8.785  35.026   4.530
 3629W        W74229   1.662  39.883  11.910
 3630W        W74230  37.487  22.516   2.256
 3631W        W74231  28.460  23.197   1.487
 3632W        W74232  41.402  31.924  14.957
 3633W        W74233  36.430  38.141   1.925
 3634W        W74234  12.238   0.816   3.718
 3635W        W74235  30.563  19.491   2.833
 3636W        W74236  32.164  33.087  12.065
 3637W        W74237  32.627  43.052  10.654
 3638W        W74238   6.654  41.621  11.687
 3639W        W74239  10.899  31.983  14.495
 3640W        W74240  32.974  37.555   0.453
 3641W        W74241  40.932  22.516   3.362
 3642W        W74242  29.560  39.204  13.229
 3643W        W74243  14.843  23.616   4.156
 3644W        W74244  21.671  22.690   0.909
 3645W        W74245  32.538  42.902  12.901
 3646W        W74246   6.413  43.935  13.841
 3647W        W74247  33.027  40.547  11.835
 3648W        W74248  31.045  40.313   1.026
 3649W        W74249  30.291   0.856   1.744
 3650W        W74250  42.589  34.144  10.738
 3651W        W74251  33.410   8.119  14.494
 3652W        W74252  40.055  10.764  11.362
 3653W        W74253   5.168  38.391  12.544
 3654W        W74254  15.988  34.524  12.627
 3655W        W74255  31.612  37.415   0.352
 3656W        W74256   2.220   8.597   2.713
 3657W        W74257  25.173  27.549  12.617
 3658W        W74258  28.887  21.680   4.609
 3659W        W74259  13.029  31.045  14.907
 3660W        W74260  19.293  16.023  12.453
 3661W        W74261  26.509  19.183  13.428
 3662W        W74262   7.223  34.894  12.805
 3663W        W74263  40.328  15.568   3.123
 3664W        W74264   3.035  12.408  14.364
 3665W        W74265  41.047  39.852  12.523
 3666W        W74266  29.240  44.477   0.038
 3667W        W74267  40.067  27.452  14.049
 3668W        W74268  23.442   2.426   2.327
 3669W        W74269  43.963  35.141  11.987
 3670W        W74270  16.166   2.272   4.247
 3671W        W74271  23.959  39.994  12.157
 3672W        W74272   7.929  14.818   0.467
 3673W        W74273  13.809  29.050   1.713
 3674W        W74274  23.022   4.929  11.150
 3675W        W74275  44.709   0.459   3.637
 3676W        W74276  32.604  19.005  14.903
 3677W        W74277  10.859  27.455   4.529
 3678W        W74278  16.349   0.204  10.699
 3679W        W74279  34.698  12.353  13.303
 3680W        W74280  20.946   9.414   0.248
 3681W        W74281  35.031  37.753  14.336
 3682W        W74282  36.454  20.917   1.623
 3683W        W74283   6.343  42.777  12.879
 3684W        W74284   6.754  13.132  12.490
 3685W        W74285  14.309  21.739  14.039
 3686W        W74286  25.485  37.992   4.430
 3687W        W74287  31.892  18.286   4.135
 3688W        W74288  36.291   7.908  13.379
 3689W        W74289   0.357  38.553  14.528
 3690W        W74290  19.320   9.894   1.856
 3691W        W74291  20.299  38.591  12.872
 3692W        W74292   8.423  13.859  11.954
 3693W        W74293  17.129  10.679   1.205
 3694W        W74294   8.329   5.320  13.054
 3695W        W74295  43.829  29.150   4.641
 3696W        W74296  43.484  11.205   1.921
 3697W        W74297  19.106   9.616   2.310
 3698W        W74298   1.763  22.298   1.782
 3699W        W74299  27.881   3.851   4.205
 3700W        W74300   1.413   6.755   3.151
 3701W        W74301  43.422  33.403  14.455
 3702W        W74302  23.016   6.192  13.962
 3703W        W74303  42.420  16.986  14.479
 3704W        W74304  15.545  20.845  13.972
 3705W        W74305  40.636   3.234   5.476
 3706W        W74306  33.138  37.543   2.293
 3707W        W74307  16.166   1.462  14.069
 3708W        W74308   3.179  14.865  13.522
 3709W        W74309  21.070  34.606  10.607
 3710W        W74310  31.304   4.279  12.871
 3711W        W74311   5.927   3.314  13.348
 3712W        W74312  41.356  25.507   1.808
 3713W        W74313  38.084   6.484   0.301
 3714W        W74314  32.767  11.116  14.022
 3715W        W74315  34.645  23.630  12.419
 3716W        W74316  26.946   9.355   4.980
 3717W        W74317  17.334  15.709  11.587
 3718W        W74318  37.800  31.357  11.637
 3719W        W74319  11.301   9.772   2.002
 3720W        W74320  15.734  24.407  11.071
 3721W        W74321  10.208   3.227  11.114
 3722W        W74322  23.452   9.083   1.859
 3723W        W74323  36.851  25.716   3.710
 3724W        W74324   3.782  17.533  12.112
 3725W        W74325   4.769   1.996   9.925
 3726W        W74326  25.461  25.515   0.924
 3727W        W74327   9.172   1.844   1.856
 3728W        W74328  37.706  42.531   2.224
 3729W        W74329  20.660  35.314   2.773
 3730W        W74330  43.948  10.159  14.736
 3731W        W74331  31.131  11.746   5.051
 3732W        W74332  26.749  33.095  10.985
 3733W        W74333   3.364  14.095   2.641
 3734W        W74334  30.356   2.966  12.106
 3735W        W74335   6.941  10.095   3.653
 3736W        W74336   8.916  14.705  12.779
 3737W        W74337   9.983  24.587   3.342
 3738W        W74338  10.472  26.759   3.393
 3739W        W74339   5.193  28.634  13.020
 3740W        W74340  22.156   8.344   0.654
 3741W        W74341  14.348  30.560   3.994
 3742W        W74342  39.946  22.749   1.454
 3743W        W74343  35.136  28.145  11.212
 3744W        W74344  44.493   0.504  11.478
 3745W        W74345  20.659  40.648  12.532
 3746W        W74346  25.729  30.968   0.719
 3747W        W74347  26.094  12.290   0.384
 3748W        W74348  21.058  44.073   0.881
 3749W        W74349   2.771  12.456   3.219
 3750W        W74350  34.465   6.194  14.748
 3751W        W74351  37.445  22.512   1.283
 3752W        W74352  10.191  29.061   1.946
 3753W        W74353  13.273  39.462  10.640
 3754W        W74354  12.705  18.909   2.389
 3755W        W74355   4.713  30.562  11.152
 3756W        W74356   8.707  40.494   2.241
 3757W        W74357   7.376  18.467  12.996
 3758W        W74358  23.144  19.823  11.564
 3759W        W74359  28.079  29.510  12.521
 3760W        W74360  33.550  14.355  12.959
 3761W        W74361  33.856  43.920  10.687
 3762W        W74362  31.199  15.966   4.988
 3763W        W74363  31.076  43.026   1.373
 3764W        W74364  41.822  29.694  11.151
 3765W        W74365  17.808   1.627   3.691
 3766W        W74366  32.565   7.968  14.851
 3767W        W74367  19.663  13.800   2.882
 3768W        W74368  39.459  22.836  14.806
 3769W        W74369  17.805  18.573  13.941
 3770W        W74370  41.512   3.060   9.794
 3771W        W74371  25.613  17.206  14.388
 3772W        W74372   0.446  34.912   0.882
 3773W        W74373  11.571  23.212  14.928
 3774W        W74374  33.043   7.810  14.301
 3775W        W74375  15.678   3.213  14.393
 3776W        W74376   5.833  11.760   1.214
 3777W        W74377  29.675  12.125  10.948
 3778W        W74378  23.966  23.976   0.810
 3779W        W74379  15.731   8.319   1.103
 3780W        W74380  11.215   7.417  11.444
 3781W        W74381  28.444  22.572  12.373
 3782W        W74382  33.958  21.234  14.758
 3783W        W74383  14.163  14.843  10.136
 3784W        W74384  19.876  26.691  13.867
 3785W        W74385  44.006  29.361   0.893
 3786W        W74386  10.876  25.775   0.753
 3787W        W74387   0.535  21.244   4.574
 3788W        W74388  23.581   4.928  12.948
 3789W        W74389  31.976  28.710  12.575
 3790W        W74390   6.184  44.397  14.099
 3791W        W74391  39.740  43.956  13.510
 3792W        W74392  29.991  14.656  11.750
 3793W        W74393  31.596  37.447  14.356
 3794W        W74394  17.901  10.815   4.611
 3795W        W74395  20.257  28.143   1.965
 3796W        W74396  27.679  13.904   3.221
 3797W        W74397  44.893   3.998  11.515
 3798W        W74398   4.359  34.245  13.376
 3799W        W74399  36.231  18.025   4.093
 3800W        W74400  14.486  27.968  13.417
 3801W        W74401  34.580  15.346   3.219
 3802W        W74402   3.836  42.531   1.761
 3803W        W74403  42.777  26.973  12.372
 3804W        W74404  15.105  39.901  14.909
 3805W        W74405  26.410  28.115  10.462
 3806W        W74406  29.674  13.616  12.993
 3807W        W74407  26.891   6.144   1.253
 3808W        W74408   6.606  15.819   1.689
 3809W        W74409   1.879  37.461  12.569
 3810W        W74410  36.457  14.360   5.081
 3811W        W74411   1.426  24.658   2.031
 3812W        W74412   4.000  12.284   3.865
 3813W        W74413  18.160  34.850  14.424
 3814W        W74414  22.801  39.678   0.806
 3815W        W74415  37.812  31.155  10.708
 3816W        W74416   2.946  16.305   4.558
 3817W        W74417  17.514   6.788  13.693
 3818W        W74418  12.736   6.641   3.795
 3819W        W74419  23.140  17.722  11.180
 3820W        W74420  37.513  35.635   3.398
 3821W        W74421  44.586  29.621   2.641
 3822W        W74422  26.159   2.570  13.360
 3823W        W74423  30.914  15.720  14.074
 3824W        W74424   3.855  21.979  13.460
 3825W        W74425  37.622   5.746   2.870
 3826W        W74426  39.997   3.943  10.649
 3827W        W74427  44.630  19.966   1.266
 3828W        W74428  35.981  35.551  10.800
 3829W        W74429  13.201  10.273   1.920
 3830W        W74430   1.611  28.943  13.089
 3831W        W74431  42.947   7.782  12.865
 3832W        W74432  30.988  22.752   2.322
 3833W        W74433   0.367  14.761   4.316
 3834W        W74434  41.427  25.176   2.647
 3835W        W74435  22.784  21.389  14.839
 3836W        W74436  13.812  20.839   3.260
 3837W        W74437  15.931  17.083  10.585
 3838W        W74438   1.421  37.134   2.516
 3839W        W74439  15.477  37.028  14.305
 3840W        W74440   2.576   8.216   2.838
 3841W        W74441   1.409  17.058  10.551
 3842W        W74442  41.548  18.790   2.765
 3843W        W74443   2.010   2.669  14.335
 3844W        W74444   5.619  12.632   1.280
 3845W        W74445  38.902  36.337   3.971
 3846W        W74446  26.502  34.471  10.421
 3847W        W74447  27.440  23.952  12.040
 3848W        W74448  31.608  34.940   4.138
 3849W        W74449  13.590   7.417   1.833
 3850W        W74450   9.845  22.599   4.446
 3851W        W74451   5.595  41.408  14.261
 3852W        W74452   0.528  19.324   0.193
 3853W        W74453  35.710   4.847   1.291
 3854W        W74454   7.900   1.850   1.396
 3855W        W74455  30.673   3.742  11.129
 3856W        W74456  43.405  28.556   3.607
 3857W        W74457   6.256  44.814   2.047
 3858W        W74458  16.834  18.732  12.378
 3859W        W74459  14.675  13.763   0.865
 3860W        W74460  29.951  15.396   0.350
 3861W        W74461  18.317  25.564   4.632
 3862W        W74462  21.643  41.532   4.601
 3863W        W74463  30.632  36.278   3.453
 3864W        W74464  10.653   6.073  14.468
 3865W        W74465  16.113  44.607   0.907
 3866W        W74466  25.745  14.176   2.324
 3867W        W74467  10.599  23.029  13.375
 3868W        W74468   3.449   7.482  14.136
 3869W        W74469  32.089  22.103  12.050
 3870W        W74470  37.749   3.886  13.056
 3871W        W74471  10.109  27.397   0.566
 3872W        W74472  18.623  34.911   3.562
 3873W        W74473  24.154  30.139   3.554
 3874W        W74474  31.052   2.379  13.615
 3875W        W74475  14.330   7.935   4.553
 3876W        W74476   1.488  20.554  14.737
 3877W        W74477  27.917  13.140   2.939
 3878W        W74478   4.888  31.214   2.208
 3879W        W74479  18.884  41.282   1.381
 3880W        W74480  17.746  42.751  14.913
 3881W        W74481  17.602  41.555   4.828
 3882W        W74482  43.242  10.259  11.933
 3883W        W74483  30.089  35.430  13.040
 3884W        W74484  36.146  25.062  14.459
 3885W        W74485   8.142  21.952   2.563
 3886W        W74486  40.356  44.859   0.795
 3887W        W74487  16.442  12.237  13.810
 3888W        W74488  31.095   1.594   1.547
 3889W        W74489  34.076  21.967   2.292
 3890W        W74490  16.853   8.740  10.839
 3891W        W74491  39.097   3.034  12.414
 3892W        W74492   2.358  42.782  11.048
 3893W        W74493   6.660   5.002  12.042
 3894W        W74494  32.164  10.677  11.901
 3895W        W74495  20.274   6.172   4.193
 3896W        W74496  13.246   8.394   1.725
 3897W        W74497  20.672  18.828   4.719
 3898W        W74498   7.199  18.050   2.350
 3899W        W74499  38.415   8.295  11.451
 3900W        W74500  30.379  40.960   1.801
 3901W        W74501  42.851  42.553   3.816
 3902W        W74502   1.865  40.958   1.044
 3903W        W74503  40.305   9.275   3.435
 3904W        W74504  25.962  19.151   1.355
 3905W        W74505  27.915  25.635   3.408
 3906W        W74506  28.638  28.170   2.828
 3907W        W74507  25.429   2.453  10.427
 3908W        W74508  23.217  41.592  14.279
 3909W        W74509  23.045  19.935  12.982
 3910W        W74510  25.466   7.473   3.847
 3911W        W74511   0.250  12.110   3.121
 3912W        W74512  27.186  10.774   2.100
 3913W        W74513  33.025  41.253   5.081
 3914W        W74514  10.351  36.948  11.588
 3915W        W74515  44.141   7.051   2.240
 3916W        W74516  35.615  40.522   2.828
 3917W        W74517  18.162   4.365  10.555
 3918W        W74518  10.742  11.928   3.275
 3919W        W74519  27.992   2.569  13.531
 3920W        W74520  24.077  16.328   2.765
 3921W        W74521  30.745  15.505   2.375
 3922W        W74522  34.359  26.799   3.237
 3923W        W74523  32.644   6.323  10.605
 3924W        W74524   3.520  35.379  11.582
 3925W        W74525  34.217  39.932   2.646
 3926W        W74526   8.670  13.459  13.980
 3927W        W74527  33.071  21.649   1.240
 3928W        W74528  40.297  35.103  11.507
 3929W        W74529  12.253   5.070   4.585
 3930W        W74530   3.186  34.876  12.921
 3931W        W74531  24.241  36.700   1.365
 3932W        W74532  28.964   4.623  12.893
 3933W        W74533   6.666  43.988  11.535
 3934W        W74534  11.712  14.871  14.697
 3935W        W74535  39.778  27.018   3.737
 3936W        W74536  21.268  35.370   0.435
 3937W        W74537   6.193  17.612   4.175
 3938W        W74538  29.663  34.855   0.040
 3939W        W74539  21.682  33.937  12.919
 3940W        W74540  15.344  35.873   2.204
 3941W        W74541  30.207  21.272   2.307
 3942W        W74542  39.757  33.050   3.601
 3943W        W74543   4.701   4.794   1.824
 3944W        W74544  14.519  34.044   3.075
 3945W        W74545  39.202  43.764   4.588
 3946W        W74546   0.290  32.878   0.921
 3947W        W74547  19.869  38.757   3.268
 3948W        W74548  10.814   0.099   3.218
 3949W        W74549  28.982   9.368   1.427
 3950W        W74550  12.103  26.066   0.127
 3951W        W74551  13.142   3.465  12.530
 3952W        W74552  32.331  20.006   3.751
 3953W        W74553  15.431  20.145  12.011
 3954W        W74554  16.054  12.038  11.167
 3955W        W74555  34.512  37.003  14.868
 3956W        W74556  13.708  43.218   1.847
 3957W        W74557  12.276   7.439   0.426
 3958W        W74558  28.649  31.190  12.377
 3959W        W74559  20.635  39.070  14.777
 3960W        W74560  33.891  26.937   9.970
 3961W        W74561  10.207  14.888  10.614
 3962W        W74562   3.677  24.638   4.718
 3963W        W74563  32.971  41.030  11.633
 3964W        W74564  16.187   5.349  14.935
 3965W        W74565  12.171   5.374  10.660
 3966W        W74566  17.148  11.783  11.660
 3967W        W74567  34.509  12.625   3.322
 3968W        W74568  25.393  24.036   3.380
 3969W        W74569   5.931  20.676  14.289
 3970W        W74570   3.743   4.905   1.714
 3971W        W74571   9.652  17.750  12.637
 3972W        W74572   0.730  27.622   0.462
 3973W        W74573  22.196  16.298  12.572
 3974W        W74574  40.484  26.483  12.492
 3975W        W74575  29.192  33.982   0.329
 3976W        W74576  27.576   2.766  10.879
 3977W        W74577  20.727  26.340   9.979
 3978W        W74578   8.076  26.129   2.775
 3979W        W74579  35.450   4.761   3.633
 3980W        W74580  36.737   0.711   9.759
 3981W        W74581  31.006   1.424   0.539
 3982W        W74582  22.450  18.030  11.595
 3983W        W74583   0.692  38.864  11.071
 3984W        W74584  17.317  21.618   2.360
 3985W        W74585  20.611  41.388   0.809
 3986W        W74586  22.270  33.930  14.794
 3987W        W74587  17.276   0.520  13.584
 3988W        W74588  31.662  35.349  11.590
 3989W        W74589  29.582  13.913  13.867
 3990W        W74590  43.475  41.690  11.250
 3991W        W74591  30.356  12.735  13.487
 3992W        W74592  42.402   2.867   0.647
 3993W        W74593  23.038   0.027   1.368
 3994W        W74594   6.438  14.129  11.185
 3995W        W74595  41.092  28.137   0.819
 3996W        W74596  28.356  41.522   0.999
 3997W        W74597  30.909  34.395   1.844
 3998W        W74598  14.813  40.317   4.567
 3999W        W74599  41.839  40.404  14.490
 4000W        W74600  15.820  15.060   3.181
 4001W        W74601   7.136  27.087   2.233
 4002W        W74602  40.063  31.580   0.479
 4003W        W74603  14.419  13.705  14.232
 4004W        W74604  38.042   4.596  13.392
 4005W        W74605  36.278  13.353   0.027
 4006W        W74606  40.167   2.959   3.751
 4007W        W74607  15.048  22.583   1.994
 4008W        W74608  13.355   2.258   2.879
 4009W        W74609  41.818  34.314  13.893
 4010W        W74610  20.260  24.607   0.820
 4011W        W74611  13.951  41.325   2.025
 4012W        W74612  44.342   8.709  14.867
 4013W        W74613  38.404  22.426  13.251
 4014W        W74614  35.952   8.392   1.795
 4015W        W74615  18.532   8.727   0.432
 4016W        W74616  13.017  34.620   5.200
 4017W        W74617  38.838  44.111   4.119
 4018W        W74618  42.685  11.347   0.326
 4019W        W74619  12.765  17.593   1.873
 4020W        W74620  30.023  11.310   0.006
 4021W        W74621  29.052  30.399   0.756
 4022W        W74622  29.895  13.733  13.470
 4023W        W74623  33.392  30.608  12.871
 4024W        W74624  32.511  42.393  13.058
 4025W        W74625  13.046  25.791   2.696
 4026W        W74626  23.853  21.432   0.449
 4027W        W74627  19.786  14.019   4.212
 4028W        W74628  11.853  32.463   2.446
 4029W        W74629  18.522  36.934   2.496
 4030W        W74630  36.320  23.633  10.205
 4031W        W74631  27.774  10.776  14.402
 4032W        W74632   0.891   9.594   4.878
 4033W        W74633  41.772  35.675   3.704
 4034W        W74634  41.411  27.698  10.594
 4035W        W74635  15.356  23.030   1.931
 4036W        W74636  20.237  37.903  14.635
 4037W        W74637  15.315  12.406  13.464
 4038W        W74638  14.509   8.063   4.063
 4039W        W74639   9.414  26.561   0.715
 4040W        W74640  41.995  10.557   1.807
 4041W        W74641  37.768  22.345   2.859
 4042W        W74642   6.671  29.108   3.317
 4043W        W74643   9.944  29.509  14.709
 4044W        W74644  29.932  12.568  11.109
 4045W        W74645   1.462   2.931   4.186
 4046W        W74646  14.519  12.355   1.812
 4047W        W74647  44.064  23.939   0.430
 4048W        W74648  31.671  24.064  12.046
 4049W        W74649  20.340   7.002   2.132
 4050W        W74650   5.169   5.996   2.910
 4051W        W74651  36.608  44.895  12.847
 4052W        W74652  15.078  31.861  11.099
 4053W        W74653  25.119  31.591   4.895
 4054W        W74654  37.360  43.279   1.887
 4055W        W74655  13.311  14.158  12.983
 4056W        W74656  37.835  26.062  10.903
 4057W        W74657  11.147  19.822  14.874
 4058W        W74658  26.136  36.619  10.460
 4059W        W74659  31.528  34.373  11.258
 4060W        W74660   8.872  43.405  13.424
 4061W        W74661   4.796  33.632  14.050
 4062W        W74662   9.691  19.578  10.908
 4063W        W74663  43.692  23.147  14.779
 4064W        W74664  23.028   0.628  12.942
 4065W        W74665   8.830  25.539   2.155
 4066W        W74666  25.243  42.823   1.196
 4067W        W74667  11.841   8.264  10.639
 4068W        W74668  25.961   9.780  12.086
 4069W        W74669  36.686  18.785  14.366
 4070W        W74670   5.353  31.674   2.831
 4071W        W74671   1.516  39.080   3.702
 4072W        W74672  16.837  31.531  10.530
 4073W        W74673  27.208   6.820  14.031
 4074W        W74674  31.482   5.535   2.317
 4075W        W74675   1.943  13.714  10.760
 4076W        W74676  26.126   2.597   3.305
 4077W        W74677  14.052  26.207  13.975
 4078W        W74678  26.750  43.882  12.996
 4079W        W74679  43.445  17.047   3.656
 4080W        W74680  18.459  38.372   3.711
 4081W        W74681  35.118  32.902   3.711
 4082W        W74682  40.527  25.725   0.390
 4083W        W74683  12.961  40.934  14.235
 4084W        W74684  33.893  14.329   3.397
 4085W        W74685  41.440  10.431   1.172
 4086W        W74686  21.973  17.837   0.118
 4087W        W74687  44.930  37.395  11.780
 4088W        W74688  10.187  42.566  14.558
 4089W        W74689  36.508   6.111   3.998
 4090W        W74690  20.503  10.969  10.926
 4091W        W74691  17.739  24.120   4.187
 4092W        W74692  23.956  30.344   2.295
 4093W        W74693  29.742  43.669  14.977
 4094W        W74694  27.419  20.999   3.643
 4095W        W74695   1.363  28.860   1.923
 4096W        W74696  30.887  10.129   1.284
 4097W        W74697  14.423  44.804  11.703
 4098W        W74698  19.792  38.079  12.390
 4099W        W74699  29.954  30.534   3.677
 4100W        W74700  37.526  42.846  14.517
 4101W        W74701  22.571  17.665  13.115
 4102W        W74702  24.141  34.556   0.648
 4103W        W74703  43.889  10.130   3.404
 4104W        W74704  20.077  14.374   2.453
 4105W        W74705  19.960  12.396   1.955
 4106W        W74706  28.458  34.116  13.971
 4107W        W74707  17.046  25.838   2.766
 4108W        W74708  12.630  17.904   1.403
 4109W        W74709   4.737  14.754  11.007
 4110W        W74710   3.221  33.186  13.343
 4111W        W74711  22.540  17.780   3.640
 4112W        W74712  36.396  21.868  13.085
 4113W        W74713  34.287  14.846   2.351
 4114W        W74714  22.226  10.673  12.144
 4115W        W74715  23.163  35.596   2.312
 4116W        W74716  40.978  35.793   1.780
 4117W        W74717  44.522  17.335  13.873
 4118W        W74718  18.641   0.773  12.436
 4119W        W74719  11.607  24.171   2.411
 4120W        W74720   9.752  42.433   2.289
 4121W        W74721  33.051  10.416  11.965
 4122W        W74722   6.948   9.836   2.876
 4123W        W74723  14.374  31.125   4.697
 4124W        W74724   0.766  24.217  14.429
 4125W        W74725  31.094  23.993   2.748
 4126W        W74726  41.419  17.654  13.435
 4127W        W74727  11.687   1.868   1.024
 4128W        W74728  22.969  15.181  11.551
 4129W        W74729  33.584   6.638   1.433
 4130W        W74730  43.198  42.114  12.998
 4131W        W74731  21.080   9.916  13.406
 4132W        W74732  10.940   3.839   3.168
 4133W        W74733  44.225   3.889   3.803
 4134W        W74734  13.532  41.198   4.594
 4135W        W74735  33.848  10.742  14.403
 4136W        W74736  28.877  14.332  10.446
 4137W        W74737   8.799  40.470  14.629
 4138W        W74738  17.649   7.805  12.074
 4139W        W74739  26.178  40.507   1.775
 4140W        W74740  22.389  29.494  11.942
 4141W        W74741   0.024  26.730  14.428
 4142W        W74742  15.137  20.450   0.654
 4143W        W74743  12.182  38.108  11.593
 4144W        W74744  36.520  43.824   2.133
 4145W        W74745  37.139  30.040  12.673
 4146W        W74746  32.722  13.732  13.898
 4147W        W74747  14.761  32.996   3.789
 4148W        W74748  22.030  27.412   0.325
 4149W        W74749  26.648   6.984   3.718
 4150W        W74750  37.585  20.452   3.872
 4151W        W74751  29.114  30.037   1.683
 4152W        W74752  21.329  11.882  14.972
 4153W        W74753  31.886  30.848  13.949
 4154W        W74754   5.232  26.944   0.152
 4155W        W74755  40.043  32.415   4.822
 4156W        W74756  10.309  32.976   3.675
 4157W        W74757  23.887   3.188   3.527
 4158W        W74758  14.905  31.604   1.773
 4159W        W74759   1.850  11.374  12.002
 4160W        W74760  41.292  27.993   4.593
 4161W        W74761  33.550  10.623   0.677
 4162W        W74762  18.701  29.693  12.422
 4163W        W74763  36.053  33.402   0.197
 4164W        W74764   9.835  44.961  10.527
 4165W        W74765  29.389  21.721  12.557
 4166W        W74766   1.555   6.976  12.025
 4167W        W74767  19.154  44.389   3.093
 4168W        W74768   8.208  17.498   2.376
 4169W        W74769  31.413  26.596   3.645
 4170W        W74770  32.188   4.772   0.489
 4171W        W74771  22.113  32.186   0.765
 4172W        W74772   1.754  25.240  12.923
 4173W        W74773  11.785  11.132   4.915
 4174W        W74774  19.622  43.737   1.431
 4175W        W74775   4.766  27.088  11.460
 4176W        W74776   5.463  32.464   2.444
 4177W        W74777   3.648  31.414  13.950
 4178W        W74778  30.924  16.561  10.239
 4179W        W74779  20.994  14.059   3.388
 4180W        W74780  11.677  27.796   0.498
 4181W        W74781   4.863   3.341   1.313
 4182W        W74782  21.308   0.562  14.949
 4183W        W74783   4.531  35.685  11.397
 4184W        W74784  22.230  35.291  11.097
 4185W        W74785   9.860   5.482  14.022
 4186W        W74786  44.665  39.309  13.991
 4187W        W74787  13.616   8.743  12.147
 4188W        W74788  38.536  21.780  14.298
 4189W        W74789  16.722   0.809  12.237
 4190W        W74790  27.643  13.140  11.047
 4191W        W74791  19.674  23.131  13.658
 4192W        W74792   0.437   9.150   0.663
 4193W        W74793   8.834  22.518   2.382
 4194W        W74794  22.529   5.515  12.570
 4195W        W74795  19.068  43.446  14.401
 4196W        W74796  32.939  11.692   0.342
 4197W        W74797  36.096   9.041   3.707
 4198W        W74798  26.039  38.894  12.095
 4199W        W74799  21.585  15.711   2.749
 4200W        W74800   2.158   4.686  13.428
 4201W        W74801   2.965  29.904  14.270
 4202W        W74802  21.477   0.037   2.305
 4203W        W74803  38.859  39.977   3.328
 4204W        W74804  31.156  27.970   2.879
 4205W        W74805  32.896  11.179  14.521
 4206W        W74806  43.768  26.974   1.291
 4207W        W74807  27.648  30.374   2.376
 4208W        W74808  39.978  44.186  13.927
 4209W        W74809  18.192   3.300   1.194
 4210W        W74810  11.807   0.604  13.335
 4211W        W74811  23.061  43.972  11.957
 4212W        W74812  13.798   9.150  11.893
 4213W        W74813   8.004  34.546  12.474
 4214W        W74814  40.317  14.356   2.190
 4215W        W74815   6.206  12.830  10.669
 4216W        W74816  35.002  35.909   3.395
 4217W        W74817  24.565  16.067  12.966
 4218W        W74818  32.907   3.900  14.265
 4219W        W74819  26.983   3.049   3.110
 4220W        W74820   3.652  14.029   5.087
 4221W        W74821   9.613   4.642   3.618
 4222W        W74822  31.244  33.395  12.832
 4223W        W74823  26.460  37.065   3.926
 4224W        W74824  31.567  17.045  14.395
 4225W        W74825  39.202  34.096   1.973
 4226W        W74826  29.396  33.318   9.909
 4227W        W74827   1.331  11.802  10.986
 4228W        W74828  17.644  29.838   1.922
 4229W        W74829   0.865  39.979   2.820
 4230W        W74830   2.506  26.056  12.633
 4231W        W74831  20.629  37.548  10.714
 4232W        W74832  43.711  21.628  12.564
 4233W        W74833  18.609  30.492  12.898
 4234W        W74834  39.387   3.353  13.393
 4235W        W74835  14.848  25.672  13.976
 4236W        W74836  27.121  17.726   0.912
 4237W        W74837  38.839  13.806  11.032
 4238W        W74838  40.706  11.414  14.334
 4239W        W74839  27.203   4.486  11.419
 4240W        W74840  15.146   3.180   3.573
 4241W        W74841  22.683   6.903   2.434
 4242W        W74842  32.568  35.991   3.612
 4243W        W74843  17.567  30.992  10.633
 4244W        W74844  14.168   4.597  10.300
 4245W        W74845  26.245   7.376  11.336
 4246W        W74846  24.027  22.769   1.391
 4247W        W74847  25.344  28.158   1.381
 4248W        W74848  10.078   1.890   3.386
 4249W        W74849  15.350   9.902   2.802
 4250W        W74850  32.364   4.582   1.819
 4251W        W74851  12.386  15.367   4.945
 4252W        W74852  31.060  10.308  13.863
 4253W        W74853   5.644   6.875  12.450
 4254W        W74854  41.064   2.897   4.188
 4255W        W74855   1.801  17.059   0.372
 4256W        W74856  28.527  41.730  10.454
 4257W        W74857  26.146  33.184   0.795
 4258W        W74858   9.227  41.575  10.463
 4259W        W74859  12.031  18.378   1.297
 4260W        W74860  23.179  22.329   4.257
 4261W        W74861  12.803   3.408   1.850
 4262W        W74862   8.921  15.618   1.735
 4263W        W74863  42.800  31.857  12.184
 4264W        W74864  20.838  34.154   2.286
 4265W        W74865  15.558  42.965   1.535
 4266W        W74866  29.834   2.421  12.620
 4267W        W74867  29.449   3.882  14.955
 4268W        W74868  35.440  16.723  14.407
 4269W        W74869  41.306  38.431  10.567
 4270W        W74870  25.062   5.692  13.542
 4271W        W74871  37.615   4.910  14.313
 4272W        W74872   0.810  39.126  12.417
 4273W        W74873  13.928  23.570   3.278
 4274W        W74874  23.527   3.174   0.255
 4275W        W74875   7.302   1.751  11.984
 4276W        W74876  40.863  23.707  11.217
 4277W        W74877   1.484   2.813  12.412
 4278W        W74878  11.708   6.370  13.980
 4279W        W74879  39.609  28.923  12.665
 4280W        W74880  13.088   5.170  12.095
 4281W        W74881  30.811  43.513  13.707
 4282W        W74882  26.020   7.826   1.742
 4283W        W74883  34.317  42.186  12.044
 4284W        W74884   3.018   6.813  14.524
 4285W        W74885  22.181  40.584   4.263
 4286W        W74886  30.462  38.296   0.911
 4287W        W74887   6.900  16.719   3.764
 4288W        W74888  14.644   0.704  10.764
 4289W        W74889  34.515  44.531   4.146
 4290W        W74890  44.516  42.488  10.432
 4291W        W74891  27.062  37.999   2.601
 4292W        W74892  30.250  25.807  12.643
 4293W        W74893   3.374  28.974   1.673
 4294W        W74894  32.823  27.144   4.408
 4295W        W74895   8.626   9.409  10.797
 4296W        W74896  11.588  12.026  11.057
 4297W        W74897  20.893  21.282   0.088
 4298W        W74898  15.184  32.806  10.538
 4299W        W74899   6.326  37.342   0.194
 4300W        W74900  20.929  32.414  13.032
 4301W        W74901  37.826  19.543  14.145
 4302W        W74902  19.957  31.061  11.865
 4303W        W74903  34.342   2.277   0.863
 4304W        W74904  33.625   3.170   3.383
 4305W        W74905   5.283  35.932   2.838
 4306W        W74906   8.249  17.252  12.639
 4307W        W74907  29.167  32.569  12.783
 4308W        W74908  31.221  27.697   0.384
 4309W        W74909  17.028  29.201   1.418
 4310W        W74910  36.122  23.033  14.964
 4311W        W74911   0.795  38.913   3.211
 4312W        W74912  19.965  31.132   1.742
 4313W        W74913  40.754  39.378  14.696
 4314W        W74914  17.318  29.906   2.334
 4315W        W74915  15.448  16.538   1.573
 4316W        W74916  25.952  43.728  11.582
 4317W        W74917  40.332  34.645  14.629
 4318W        W74918   3.344  14.032  11.089
 4319W        W74919  14.164  28.700   1.044
 4320W        W74920  18.107  20.223  10.848
 4321W        W74921  21.578  39.540   4.415
 4322W        W74922  18.612  42.905  13.434
 4323W        W74923  25.546  23.890   2.274
 4324W        W74924  44.069   9.689   3.230
 4325W        W74925  42.510  39.842  14.134
 4326W        W74926  28.702  22.347  11.886
 4327W        W74927  31.308   9.777  12.503
 4328W        W74928   1.038  13.184   0.915
 4329W        W74929  12.224  34.193  11.746
 4330W        W74930   5.258  44.421  11.660
 4331W        W74931  24.038  21.680  13.613
 4332W        W74932  19.816  10.344   2.681
 4333W        W74933  14.521   5.269   0.276
 4334W        W74934   7.825  17.142   2.316
 4335W        W74935  43.956  40.316   0.631
 4336W        W74936   8.682  30.539   4.879
 4337W        W74937  22.896  18.834   4.476
 4338W        W74938  36.971  24.467  10.913
 4339W        W74939  19.132  42.231  14.631
 4340W        W74940  12.098   7.657   0.939
 4341W        W74941  29.125  16.313  13.467
 4342W        W74942  42.880  21.519  11.491
 4343W        W74943  29.115  33.597   2.009
 4344W        W74944  30.136  26.634   1.129
 4345W        W74945  11.557  33.840  13.642
 4346W        W74946  38.842  33.168   4.305
 4347W        W74947   2.689  39.835  13.790
 4348W        W74948  27.549  31.419  13.980
 4349W        W74949  31.091  24.186  10.275
 4350W        W74950  20.601   5.944  10.587
 4351W        W74951  10.163  11.345  14.804
 4352W        W74952   3.261  16.725   2.712
 4353W        W74953  11.332   0.021  12.897
 4354W        W74954  19.960   3.491  12.561
 4355W        W74955   7.817  35.472  11.790
 4356W        W74956  44.776  12.756   4.822
 4357W        W74957  13.047  27.955   2.646
 4358W        W74958   5.820  22.159  11.294
 4359W        W74959   3.918   5.934   3.853
 4360W        W74960  23.616  38.088  11.291
 4361W        W74961   2.434  37.311  13.983
 4362W        W74962   8.873  21.178  10.941
 4363W        W74963  10.510   5.203  13.353
 4364W        W74964  21.291  35.759   4.113
 4365W        W74965  14.982   9.682  12.182
 4366W        W74966   2.312  19.547  12.865
 4367W        W74967   7.465   1.925   4.504
 4368W        W74968  42.100  21.704   1.260
 4369W        W74969  24.541  40.355   3.053
 4370W        W74970  35.638   2.692   2.963
 4371W        W74971  20.120  15.384   4.924
 4372W        W74972   8.899   8.397  13.965
 4373W        W74973  13.279  33.483  13.866
 4374W        W74974  18.574   4.434  12.862
 4375W        W74975   7.072   2.904   1.901
 4376W        W74976   5.382  11.144   2.229
 4377W        W74977   0.454   7.257  11.077
 4378W        W74978  11.992  28.908  15.000
 4379W        W74979  40.472  32.812   0.907
 4380W        W74980  14.893  21.541   9.915
 4381W        W74981   2.496   6.652  13.866
 4382W        W74982  44.485  43.150   0.856
 4383W        W74983  40.984  14.803  13.291
 4384W        W74984   6.616  14.789  14.749
 4385W        W74985   0.407  11.825  11.008
 4386W        W74986  13.636   1.431  14.597
 4387W        W74987  35.146  39.825  12.102
 4388W        W74988  21.131  28.744  14.981
 4389W        W74989   5.658  16.799   3.112
 4390W        W74990  23.283  38.791  12.706
 4391W        W74991  40.864   0.209   1.734
 4392W        W74992  42.389  25.155   3.097
 4393W        W74993  15.583   5.707  13.122
 4394W        W74994  38.963   8.811  11.173
 4395W        W74995  31.882  12.764  10.588
 4396W        W74996   5.955  39.317  11.125
 4397W        W74997   0.978  13.683   3.279
 4398W        W74998  31.090  16.661   4.923
 4399W        W74999  30.998  15.666   0.518
 4400W        W75000  18.139   2.955  12.002
 4401W        W75001  43.025  23.500   1.836
 4402W        W75002  14.661   7.390  10.302
 4403W        W75003  44.539  33.041  14.892
 4404W        W75004  20.677  24.934   1.709
 4405W        W75005  44.033  33.979   4.048
 4406W        W75006  14.251  14.314  13.268
 4407W        W75007  36.469  22.044  11.908
 4408W        W75008  16.316  15.168   2.806
 4409W        W75009   0.314  21.068   3.625
 4410W        W75010   2.898  12.844  11.276
 4411W        W75011  22.975  15.388   2.735
 4412W        W75012   0.961  41.556  14.596
 4413W        W75013  34.450  35.991   1.238
 4414W        W75014  40.931  26.249  12.452
 4415W        W75015  36.517  10.288   2.783
 4416W        W75016  40.475  39.560   0.922
 4417W        W75017  30.624  39.515   3.717
 4418W        W75018  42.954  14.536   2.332
 4419W        W75019  12.603  39.572  11.868
 4420W        W75020  40.524  35.837  11.933
 4421W        W75021  34.870  19.629   0.387
 4422W        W75022   1.781  23.610   1.847
 4423W        W75023   6.421  25.180   0.026
 4424W        W75024   3.026  40.560   1.695
 4425W        W75025  38.553  25.542   1.893
 4426W        W75026  14.664   7.656   3.235
 4427W        W75027  37.522  16.753   4.951
 4428W        W75028  26.152  38.115   0.200
 4429W        W75029   7.463  37.590  12.057
 4430W        W75030   5.711  10.261   2.140
 4431W        W75031  16.487  23.039  12.490
 4432W        W75032  18.775  16.041  10.716
 4433W        W75033  29.511  22.898   1.648
 4434W        W75034  43.709  37.379   4.491
 4435W        W75035  37.994  16.384   1.779
 4436W        W75036  34.979  20.496   0.425
 4437W        W75037  19.116  13.291  10.583
 4438W        W75038  41.946  14.765   1.537
 4439W        W75039  15.550  41.203   0.844
 4440W        W75040  28.588  36.289  12.060
 4441W        W75041  10.267   2.198  12.693
 4442W        W75042   5.466  13.758   3.135
 4443W        W75043  28.603  24.533   2.515
 4444W        W75044  41.563  41.069  12.925
 4445W        W75045  18.538   9.988  11.015
 4446W        W75046   9.513  20.218  12.890
 4447W        W75047  27.946  23.301   2.689
 4448W        W75048  20.673   7.218  11.492
 4449W        W75049  36.295  38.112   0.004
 4450W        W75050  40.841  29.011   2.387
 4451W        W75051  44.037  31.950   0.430
 4452W        W75052  35.054  12.165   4.505
 4453W        W75053   7.785  18.167  10.460
 4454W        W75054   9.199  28.457   1.206
 4455W        W75055   0.255  23.073  13.612
 4456W        W75056  40.747   9.365   2.654
 4457W        W75057  22.112  22.109   1.433
 4458W        W75058  37.977  44.737   2.896
 4459W        W75059  35.185  44.156  10.895
 4460W        W75060  13.634  40.423   0.840
 4461W        W75061   4.440  19.157  12.902
 4462W        W75062  23.200  17.204  14.759
 4463W        W75063  29.495  28.531   4.417
 4464W        W75064   1.427  42.009   0.732
 4465W        W75065  25.612  31.671  10.381
 4466W        W75066   2.849  17.844  12.073
 4467W        W75067  36.306  19.478  13.944
 4468W        W75068  34.178  25.803   0.560
 4469W        W75069   9.685  13.798  12.404
 4470W        W75070  13.187  23.288  11.715
 4471W        W75071  26.523  42.061   2.120
 4472W        W75072  41.554  29.611   1.090
 4473W        W75073  20.982  31.065   1.484
 4474W        W75074  18.847  43.893  12.075
 4475W        W75075  37.760   8.596  14.845
 4476W        W75076  10.604  30.931   2.322
 4477W        W75077   0.463  36.192   2.202
 4478W        W75078  28.638   7.860  14.791
 4479W        W75079  20.779  25.100   2.803
 4480W        W75080  43.426  33.183   2.384
 4481W        W75081  20.171   0.879   3.257
 4482W        W75082  29.334  27.499   3.669
 4483W        W75083   8.169  18.515   3.247
 4484W        W75084  10.147  26.681   0.329
 4485W        W75085  34.449  13.729   3.261
 4486W        W75086  16.117  14.106  14.058
 4487W        W75087  22.788  17.160  12.512
 4488W        W75088  25.616   9.274  11.612
 4489W        W75089  15.775  16.348  11.417
 4490W        W75090  21.144  38.641  14.367
 4491W        W75091   8.953  24.338  12.458
 4492W        W75092  33.506  26.607   1.791
 4493W        W75093  42.285  36.900   3.723
 4494W        W75094  17.851   3.259   2.707
 4495W        W75095  22.752   1.276   2.441
 4496W        W75096  34.251   5.861   1.197
 4497W        W75097  30.900  14.574  12.539
 4498W        W75098  15.761  16.739   3.700
 4499W        W75099  25.627   4.335  13.392
 4500W        W75100   5.654  17.832  13.509
 4501W        W75101  26.594  30.696  12.534
 4502W        W75102  44.120  11.305   4.084
 4503W        W75103  13.392  28.914  12.509
 4504W        W75104  25.706  28.402   2.795
 4505W        W75105   4.975  14.157  10.263
 4506W        W75106  36.003  35.896   2.782
 4507W        W75107  10.139  32.576   0.899
 4508W        W75108  34.065  44.794  11.560
 4509W        W75109  38.995  34.126  12.453
 4510W        W75110   8.294   8.140  10.844
 4511W        W75111   0.073   2.721   1.949
 4512W        W75112  33.906  36.786   4.525
 4513W        W75113  30.889  21.723   3.853
 4514W        W75114  24.458  37.506   4.676
 4515W        W75115  12.249  39.141   1.440
 4516W        W75116  13.694  34.930  11.566
 4517W        W75117   0.375  37.999   4.361
 4518W        W75118  44.801  27.526   4.700
 4519W        W75119  43.252  34.980  14.777
 4520W        W75120  20.586   7.341   1.835
 4521W        W75121   7.679  11.759  13.321
 4522W        W75122  25.496  21.258  14.962
 4523W        W75123  36.407   9.383  11.431
 4524W        W75124  43.709   7.368  13.429
 4525W        W75125  15.277  38.538  12.586
 4526W        W75126  16.120  40.894  11.143
 4527W        W75127  43.717  44.517   2.326
 4528W        W75128  29.505  23.485  13.247
 4529W        W75129  22.044  42.280  12.146
 4530W        W75130   9.850  34.847  13.418
 4531W        W75131  35.673   9.029  12.035
 4532W        W75132   6.397  24.935  10.759
 4533W        W75133   8.883  13.818  12.981
 4534W        W75134  19.915   0.500  14.771
 4535W        W75135  18.785   3.185   3.689
 4536W        W75136   3.952  14.168  10.011
 4537W        W75137  27.207  43.951   4.141
 4538W        W75138  24.256   1.171  11.424
 4539W        W75139  42.844  11.428  12.801
 4540W        W75140  37.340  16.848   0.389
 4541W        W75141  14.693  26.203  10.494
 4542W        W75142  31.669  11.574  14.317
 4543W        W75143  30.002   5.662   0.845
 4544W        W75144  25.305  13.922   2.439
 4545W        W75145  14.142  30.147  14.217
 4546W        W75146  44.749  37.762   0.789
 4547W        W75147  28.333   2.582  12.542
 4548W        W75148  16.416  44.341   0.396
 4549W        W75149  35.403  22.497   3.701
 4550W        W75150   1.783  30.544   2.087
 4551W        W75151  29.859  33.423   4.841
 4552W        W75152  24.266  34.924   4.219
 4553W        W75153  41.393  33.908  11.613
 4554W        W75154  22.601  34.630   4.390
 4555W        W75155  43.322  42.978   2.740
 4556W        W75156  13.261   0.511  13.997
 4557W        W75157  20.354  28.424  12.797
 4558W        W75158  11.676   8.452   3.588
 4559W        W75159  38.924  30.160   4.762
 4560W        W75160  22.506  34.615  14.907
 4561W        W75161   6.899  10.794   4.336
 4562W        W75162  44.245  33.482   1.761
 4563W        W75163  41.352  20.550   4.186
 4564W        W75164  30.644  28.282   3.984
 4565W        W75165  23.562  12.740  11.594
 4566W        W75166  38.913  42.567   3.132
 4567W        W75167  15.515  42.329  13.622
 4568W        W75168  10.489   9.387   0.703
 4569W        W75169   4.190  33.336   1.748
 4570W        W75170  30.160   1.256   2.774
 4571W        W75171   4.687  39.706   0.295
 4572W        W75172  35.031   1.547  11.475
 4573W        W75173  24.555  19.936   5.111
 4574W        W75174  21.613  22.986  10.938
 4575W        W75175  42.068  16.377   4.245
 4576W        W75176  27.250  19.131  10.654
 4577W        W75177  43.946  42.054  12.561
 4578W        W75178  44.350  22.559  10.938
 4579W        W75179   5.990  34.639   1.663
 4580W        W75180  36.530   1.972   1.824
 4581W        W75181  10.278   5.118   5.044
 4582W        W75182  30.012  42.389  13.574
 4583W        W75183   5.880   4.485   1.269
 4584W        W75184   6.608  40.132  11.769
 4585W        W75185   1.300  15.637  10.298
 4586W        W75186   8.807  30.479   3.364
 4587W        W75187  10.699  29.646  11.189
 4588W        W75188  14.693  31.077   4.279
 4589W        W75189  10.394  23.010   1.634
 4590W        W75190  39.416  40.534   1.457
 4591W        W75191   2.109   8.830   1.818
 4592W        W75192  21.288  34.456  13.546
 4593W        W75193  38.952   8.550  13.562
 4594W        W75194   4.915  14.764   2.370
 4595W        W75195   2.967  19.306  13.319
 4596W        W75196  42.883  44.218   4.092
 4597W        W75197  23.229  19.626  14.508
 4598W        W75198   1.752  17.402  14.119
 4599W        W75199  37.597  33.305  10.839
 4600W        W75200  20.059  43.235   0.794
 4601W        W75201   9.327  41.712  13.045
 4602W        W75202  39.054  29.088   0.375
 4603W        W75203  10.424  12.748  11.063
 4604W        W75204  14.530  16.937   0.475
 4605W        W75205  43.606  22.173  12.451
 4606W        W75206  11.852  26.088   1.320
 4607W        W75207   0.891  19.791  10.203
 4608W        W75208   2.450  12.620  11.125
 4609W        W75209  31.131  14.393   2.870
 4610W        W75210  20.221  36.906  10.181
 4611W        W75211  34.557  16.286   1.741
 4612W        W75212  27.642  11.854   4.804
 4613W        W75213  38.000   4.656   0.995
 4614W        W75214  39.830  28.102   0.386
 4615W        W75215  29.047  25.119  12.519
 4616W        W75216   1.533  44.410   0.050
 4617W        W75217  20.093  24.344  12.491
 4618W        W75218  36.411   7.856   1.240
 4619W        W75219  41.444  39.456   3.206
 4620W        W75220  24.029   3.128   4.014
 4621W        W75221   9.386  27.729   3.602
 4622W        W75222  34.224  39.063   1.530
 4623W        W75223   1.853  14.336  14.401
 4624W        W75224  30.495  29.345  13.394
 4625W        W75225   3.275  39.613   3.186
 4626W        W75226  37.564  22.443   3.822
 4627W        W75227  40.375  11.192  12.899
 4628W        W75228  41.300  44.717  12.997
 4629W        W75229  38.269  41.333   0.742
 4630W        W75230  31.243  27.512   1.431
 4631W        W75231  22.952  29.490   2.285
 4632W        W75232   9.697  17.068  14.414
 4633W        W75233  32.208  40.484   1.713
 4634W        W75234   7.141  32.205   3.660
 4635W        W75235  34.825  17.263  14.875
 4636W        W75236  16.200  40.974  14.721
 4637W        W75237  30.578  43.758  10.624
 4638W        W75238  37.335   7.698  13.043
 4639W        W75239  15.260   4.860   2.765
 4640W        W75240  16.483  31.153   1.058
 4641W        W75241  22.532   3.997  14.735
 4642W        W75242  20.572   2.033   0.939
 4643W        W75243   2.853  38.207   0.279
 4644W        W75244  29.493  37.560   2.219
 4645W        W75245  29.702  14.224  13.456
 4646W        W75246   4.077  16.243  10.338
 4647W        W75247  39.002  27.155   2.325
 4648W        W75248  36.138  42.842  12.883
 4649W        W75249  19.807  34.019  10.963
 4650W        W75250   0.775  15.642  10.311
 4651W        W75251  35.292  40.841  11.048
 4652W        W75252  43.220  37.737  14.667
 4653W        W75253  10.177  14.586  11.136
 4654W        W75254  44.752   7.337  12.894
 4655W        W75255  27.557  22.461   2.157
 4656W        W75256  30.052  31.998   4.726
 4657W        W75257  16.694  28.587  11.297
 4658W        W75258  30.759  38.451   5.228
 4659W        W75259   1.533  30.931  11.194
 4660W        W75260   6.181  27.165  14.135
 4661W        W75261  25.490  11.570   4.574
 4662W        W75262  14.904   8.239  13.471
 4663W        W75263  26.638  23.949   5.166
 4664W        W75264  23.721  27.033   3.696
 4665W        W75265   7.330  27.154  10.688
 4666W        W75266  29.451  44.232  10.237
 4667W        W75267  42.326  18.042   5.395
 4668W        W75268  11.348   7.786   4.103
 4669W        W75269  34.678  19.700   2.874
 4670W        W75270  24.001  43.727  13.549
 4671W        W75271  12.767   0.446  13.302
 4672W        W75272  36.428   0.367  14.747
 4673W        W75273  20.235  28.267  11.996
 4674W        W75274  30.023  18.786  13.105
 4675W        W75275  18.232  15.852   3.314
 4676W        W75276  22.624  33.628   3.393
 4677W        W75277  42.213   2.416  12.978
 4678W        W75278  37.924  34.488   0.854
 4679W        W75279   0.415  35.004   3.180
 4680W        W75280   0.908  27.278  11.142
 4681W        W75281   7.390   6.211  14.222
 4682W        W75282  34.667  28.676   4.541
 4683W        W75283  18.567  18.533   2.366
 4684W        W75284  37.951  28.980   3.189
 4685W        W75285   0.481  37.526  10.915
 4686W        W75286   9.265  13.568   1.247
 4687W        W75287  27.388   7.426  10.730
 4688W        W75288  44.583  13.256  14.074
 4689W        W75289  28.692   6.233   2.777
 4690W        W75290   1.642  23.685  14.242
 4691W        W75291   4.442   9.910  12.532
 4692W        W75292  26.425   0.429  12.167
 4693W        W75293   9.937  27.673   1.006
 4694W        W75294  36.863  33.185  14.547
 4695W        W75295  35.393  24.670  12.431
 4696W        W75296   6.488  19.081  14.772
 4697W        W75297  21.109  21.847  12.873
 4698W        W75298  43.926  17.560   2.988
 4699W        W75299  30.625   7.769  14.340
 4700W        W75300  10.345  22.066   3.178
 4701W        W75301  14.258  10.353   5.015
 4702W        W75302  13.634  20.194   1.626
 4703W        W75303  37.926   0.690   4.517
 4704W        W75304  41.512  30.680  13.845
 4705W        W75305   4.624  15.762   4.735
 4706W        W75306  20.459  25.632  12.558
 4707W        W75307  33.469  17.715   4.625
 4708W        W75308  12.272  28.533  14.314
 4709W        W75309  39.336  22.173  12.033
 4710W        W75310  33.862  12.753   0.935
 4711W        W75311  14.113  31.914   4.066
 4712W        W75312  33.946   3.213  13.173
 4713W        W75313  14.686  40.506   1.438
 4714W        W75314  32.566  34.304  10.803
 4715W        W75315  19.729  24.803  14.989
 4716W        W75316  44.444  39.585  13.007
 4717W        W75317  40.308  11.193  12.097
 4718W        W75318  10.863  33.399  10.273
 4719W        W75319  18.128  14.692  10.640
 4720W        W75320  36.530   5.315   1.740
 4721W        W75321  11.894  26.352   0.871
 4722W        W75322  43.890  31.857   4.198
 4723W        W75323   1.057  15.291  10.614
 4724W        W75324  36.772  43.298   1.093
 4725W        W75325  21.025   0.862   3.451
 4726W        W75326  37.888  15.002  11.256
 4727W        W75327   7.287  29.472  11.371
 4728W        W75328  41.475   0.355  12.386
 4729W        W75329   6.294   2.628  11.675
 4730W        W75330   1.569  32.131  14.033
 4731W        W75331  28.704  14.209  12.407
 4732W        W75332  19.425  20.742   1.416
 4733W        W75333   7.891   0.077   4.249
 4734W        W75334   6.223  15.852  13.455
 4735W        W75335  16.536  24.982  13.337
 4736W        W75336   2.056  17.523   0.286
 4737W        W75337  19.991  43.433  11.593
 4738W        W75338  43.929   4.830   4.021
 4739W        W75339  26.763  32.036  12.703
 4740W        W75340  33.069   1.225  14.810
 4741W        W75341  29.581  19.432   3.473
 4742W        W75342  16.021  18.000  11.495
 4743W        W75343  38.376  22.725  11.598
 4744W        W75344   3.745  29.082   3.440
 4745W        W75345  41.948  10.799  14.507
 4746W        W75346  44.007  20.766   0.318
 4747W        W75347   4.977  27.852   2.236
 4748W        W75348   2.064   7.410   1.404
 4749W        W75349  14.380   2.818  13.509
 4750W        W75350  27.638  38.110  13.910
 4751W        W75351  19.294   8.748  11.543
 4752W        W75352  25.489  34.821   4.490
 4753W        W75353  18.111   3.277   1.700
 4754W        W75354  16.317  32.336  12.079
 4755W        W75355   5.696  44.200  11.865
 4756W        W75356   3.976  16.294   3.212
 4757W        W75357  30.389  38.418   2.852
 4758W        W75358  28.953  22.255  13.585
 4759W        W75359  20.414   8.520  14.328
 4760W        W75360  38.874  35.463   1.737
 4761W        W75361   0.815  38.905   1.733
 4762W        W75362  22.840  39.027   4.479
 4763W        W75363  11.083   8.886   4.930
 4764W        W75364  36.470   7.049   3.921
 4765W        W75365  22.167  26.548   2.689
 4766W        W75366  12.762  12.094   1.532
 4767W        W75367  14.193   6.106  10.611
 4768W        W75368   9.698  19.636  12.928
 4769W        W75369  28.521   0.456   0.967
 4770W        W75370  39.740  23.960   4.387
 4771W        W75371  34.746  43.459  10.628
 4772W        W75372  25.176   4.738   0.288
 4773W        W75373  38.573  30.097   1.560
 4774W        W75374  38.767   0.976  10.144
 4775W        W75375   0.059   6.926  12.117
 4776W        W75376  44.519  40.212  10.757
 4777W        W75377  30.547  11.179   1.836
 4778W        W75378   7.203  39.344  10.948
 4779W        W75379  22.645   4.963   4.064
 4780W        W75380  11.058   6.176  12.943
 4781W        W75381  29.446  18.193  11.672
 4782W        W75382  26.315  10.809   2.496
 4783W        W75383  41.614  11.874   1.452
 4784W        W75384  34.544  40.866   1.626
 4785W        W75385   3.262  19.557   3.225
 4786W        W75386   4.258  23.936  13.728
 4787W        W75387  36.889  37.104   2.378
 4788W        W75388  20.280   4.835  14.085
 4789W        W75389   9.028  22.988   0.130
 4790W        W75390  32.999  17.533   4.780
 4791W        W75391   8.587   6.212   4.010
 4792W        W75392  18.024  16.228   1.996
 4793W        W75393  11.753  33.572   4.863
 4794W        W75394  39.798  14.088   4.422
 4795W        W75395  44.226  35.944  13.101
 4796W        W75396   7.732  41.786   4.124
 4797W        W75397   8.420  26.132   2.348
 4798W        W75398  23.976   3.822  12.457
 4799W        W75399  26.228  14.662   2.911
 4800W        W75400  13.711  23.586   1.418
 4801W        W75401  23.968  26.451   2.698
 4802W        W75402   2.824  40.291   3.995
 4803W        W75403  29.398  37.639   4.226
 4804W        W75404   2.958  10.797   2.513
 4805W        W75405  23.030  35.602   4.580
 4806W        W75406  27.960   0.765  11.612
 4807W        W75407  19.773  26.124   2.807
 4808W        W75408  44.939  27.929  12.974
 4809W        W75409  19.962  38.572  13.278
 4810W        W75410  26.906  30.110  12.960
 4811W        W75411  26.183  23.722  12.904
 4812W        W75412  44.261  10.912   1.967
 4813W        W75413  16.301  26.606  11.024
 4814W        W75414  13.142  20.259  13.646
 4815W        W75415  38.357  10.242   3.066
 4816W        W75416   9.111   2.170  12.549
 4817W        W75417  14.648  43.772   0.815
 4818W        W75418  36.133  39.238  13.412
 4819W        W75419  17.067   6.393   4.102
 4820W        W75420  12.229  23.731  11.530
 4821W        W75421   5.409  44.902   4.615
 4822W        W75422   9.246  13.698   4.057
 4823W        W75423  26.057  19.210   2.885
 4824W        W75424  27.962  33.656   2.452
 4825W        W75425  30.721  24.019   0.879
 4826W        W75426  22.208  28.975   2.276
 4827W        W75427   2.150   9.101  14.523
 4828W        W75428   1.339  31.945  13.178
 4829W        W75429   1.046   2.003  12.050
 4830W        W75430  24.966  34.192   0.811
 4831W        W75431  20.966  20.024   3.715
 4832W        W75432  16.270  38.147  14.847
 4833W        W75433   6.995  41.021   0.299
 4834W        W75434  38.974   6.995  11.633
 4835W        W75435  25.307  42.199   0.294
 4836W        W75436   7.806   9.265   4.872
 4837W        W75437   8.297  38.945   4.246
 4838W        W75438   3.905  30.214  12.874
 4839W        W75439   9.688  21.637   0.324
 4840W        W75440  35.159  22.046   3.808
 4841W        W75441  17.029  33.405   1.863
 4842W        W75442  19.109  44.964   3.894
 4843W        W75443  24.651  20.821  13.367
 4844W        W75444  31.840  20.747   4.026
 4845W        W75445  31.599  16.560   3.220
 4846W        W75446   1.780   7.790  12.780
 4847W        W75447   7.858  13.851  12.951
 4848W        W75448   2.083  11.390  11.144
 4849W        W75449  37.065   1.307   2.277
 4850W        W75450   7.887  11.334  13.939
 4851W        W75451  38.435  30.236  10.961
 4852W        W75452  43.252   4.596   0.149
 4853W        W75453   9.827  23.820   2.968
 4854W        W75454  38.653   4.177  11.577
 4855W        W75455  31.511  27.119   1.209
 4856W        W75456  37.551  13.105  12.101
 4857W        W75457  34.046  31.406   2.762
 4858W        W75458   5.394   9.852   1.913
 4859W        W75459  13.346  16.734   1.384
 4860W        W75460  23.937   7.330  14.264
 4861W        W75461  21.945  30.817   1.300
 4862W        W75462  34.710  40.052  13.070
 4863W        W75463  16.858  14.531   1.809
 4864W        W75464  28.063  12.268   1.883
 4865W        W75465  10.194  29.762  11.902
 4866W        W75466   6.463  35.335  13.122
 4867W        W75467   4.456  11.331   3.566
 4868W        W75468  25.487  11.102  11.021
 4869W        W75469  40.540  20.195  10.790
 4870W        W75470  16.121  41.852  12.969
 4871W        W75471  10.699   2.803  14.637
 4872W        W75472  33.303  11.345  11.456
 4873W        W75473  38.442  11.103   3.423
 4874W        W75474  44.867  26.559   1.851
 4875W        W75475  14.650  31.483   2.220
 4876W        W75476  24.169   3.307   4.495
 4877W        W75477  11.458  11.379   0.246
 4878W        W75478  37.016  40.249  13.034
 4879W        W75479  11.658  30.536  14.583
 4880W        W75480  25.704   4.310   2.901
 4881W        W75481   0.876   7.206   3.887
 4882W        W75482  21.534   3.870  10.693
 4883W        W75483  38.651  16.170   3.133
 4884W        W75484  27.758   5.273  10.894
 4885W        W75485  16.776  30.144  10.779
 4886W        W75486  10.133   0.382  13.043
 4887W        W75487  43.871   6.223  12.861
 4888W        W75488  14.157  16.920   1.728
 4889W        W75489  13.681   3.496  12.947
 4890W        W75490  24.505   6.399   2.375
 4891W        W75491   9.641  38.943   4.802
 4892W        W75492  27.053  41.542   4.613
 4893W        W75493   5.187  31.228   0.789
 4894W        W75494   8.353  44.326   1.514
 4895W        W75495  31.066   9.613  12.058
 4896W        W75496  10.820  13.119  14.420
 4897W        W75497  17.188   7.766   0.774
 4898W        W75498  34.854   9.741   2.420
 4899W        W75499   0.284  36.409  14.107
 4900W        W75500  26.674   1.241  10.660
 4901W        W75501  21.851  28.481  10.715
 4902W        W75502  20.797  38.873  11.637
 4903W        W75503  26.509  19.164   3.124
 4904W        W75504  25.439  25.668  10.689
 4905W        W75505  21.406  27.157   4.219
 4906W        W75506  39.089  13.064  14.766
 4907W        W75507  40.445  30.419  12.977
 4908W        W75508   3.389  30.170  14.240
 4909W        W75509  31.606   6.831  13.783
 4910W        W75510  30.647  29.401   3.190
 4911W        W75511   6.592  32.619  14.892
 4912W        W75512  43.586  21.170   0.375
 4913W        W75513  18.080  23.745  10.698
 4914W        W75514   1.701  15.765   0.974
 4915W        W75515  41.335  38.666   5.010
 4916W        W75516  38.025  15.756  14.128
 4917W        W75517   9.846   8.123  12.406
 4918W        W75518  16.530  38.168   2.657
 4919W        W75519   9.729  39.108  13.503
 4920W        W75520   9.860  16.267   4.830
 4921W        W75521   4.344   9.700  14.656
 4922W        W75522   4.425   4.944   2.260
 4923W        W75523  37.598  33.114  10.341
 4924W        W75524  26.124   8.786  11.583
 4925W        W75525  11.310  38.901   1.616
 4926W        W75526  31.836   0.041  11.988
 4927W        W75527  10.464  20.130   1.805
 4928W        W75528  30.216  27.153  11.189
 4929W        W75529  22.055   9.420  14.482
 4930W        W75530  22.725  21.514   3.265
 4931W        W75531  37.540  28.412   0.696
 4932W        W75532  14.612  24.399   3.675
 4933W        W75533  17.699   2.184  11.999
 4934W        W75534  21.540  14.746  13.235
 4935W        W75535  38.565   7.292   2.731
 4936W        W75536  38.020  38.569   1.139
 4937W        W75537  43.038  18.550  11.598
 4938W        W75538  44.908  32.432  12.963
 4939W        W75539  30.134   0.722  11.104
 4940W        W75540  32.959   1.045  11.587
 4941W        W75541  35.974  20.318  11.670
 4942W        W75542  10.082  27.959   4.459
 4943W        W75543  11.133  14.666   3.216
 4944W        W75544  11.809  29.467  10.442
 4945W        W75545  44.083  44.500  11.549
 4946W        W75546   7.453  29.995  13.775
 4947W        W75547   3.898  27.925   2.886
 4948W        W75548   4.276  14.258   3.606
 4949W        W75549  33.583  22.303  13.800
 4950W        W75550  36.788  41.556  12.545
 4951W        W75551  39.967  38.603   3.623
 4952W        W75552  12.577  24.587  12.296
 4953W        W75553   7.623  32.968   3.259
 4954W        W75554  35.273  32.494  11.599
 4955W        W75555  20.097  29.286   2.771
 4956W        W75556  34.682   5.629  10.457
 4957W        W75557  23.577  43.702   1.063
 4958W        W75558  18.648  18.559   3.310
 4959W        W75559  31.574  36.853   2.188
 4960W        W75560   1.487  29.665   0.856
 4961W        W75561  11.081  38.368  14.435
 4962W        W75562  37.078   2.456   2.868
 4963W        W75563  27.567  12.762  12.959
 4964W        W75564  13.891   6.226  11.635
 4965W        W75565  14.255  15.330   2.290
 4966W        W75566  20.731  10.210   3.168
 4967W        W75567  43.368  25.509  10.515
 4968W        W75568  40.402  32.804  14.009
 4969W        W75569  20.746   1.503  14.920
 4970W        W75570  28.287   7.717   2.163
 4971W        W75571   1.248  31.495   3.740
 4972W        W75572  32.705   6.531   3.656
 4973W        W75573  12.338  21.162   1.383
 4974W        W75574  34.817  12.605  11.156
 4975W        W75575  27.111  37.466   1.325
 4976W        W75576  21.132  21.163   1.095
 4977W        W75577  30.990  44.240   2.741
 4978W        W75578   1.874  11.900   4.290
 4979W        W75579  41.082  27.035   1.194
 4980W        W75580  13.855   7.444  10.721
 4981W        W75581  11.104  26.500  13.571
 4982W        W75582  39.048  23.800   0.254
 4983W        W75583  37.834  24.195  12.020
 4984W        W75584   1.863  40.033   4.812
 4985W        W75585  22.064  19.734   1.369
 4986W        W75586   4.711  18.385   1.276
 4987W        W75587  12.145  27.006   1.274
 4988W        W75588  16.679  27.163  13.993
 4989W        W75589  27.256  34.895   3.220
 4990W        W75590  21.549  41.525  13.927
 4991W        W75591  19.204  25.222   1.674
 4992W        W75592   9.258  17.701  13.249
 4993W        W75593  26.645  25.109   4.996
 4994W        W75594  30.082  23.678   2.117
 4995W        W75595   2.319  35.623  14.316
 4996W        W75596  29.097  15.470   1.421
 4997W        W75597  23.803  30.499   3.566
 4998W        W75598   9.589  32.640  12.133
 4999W        W75599  12.190  12.893  13.545
 5000W        W75600  13.660  29.437  11.108
 5001W        W75601  16.283  36.479  10.223
 5002W        W75602  10.226  18.520  12.310
 5003W        W75603   4.754  22.513   2.838
 5004W        W75604   0.504  27.169   3.694
 5005W        W75605  20.328  40.359   0.014
 5006W        W75606  14.777  12.407   3.192
 5007W        W75607  34.909  42.030  11.562
 5008W        W75608  26.091  17.395  12.279
 5009W        W75609   8.711  23.316  11.554
 5010W        W75610  22.692  22.031   2.318
 5011W        W75611  24.256  19.911   4.273
 5012W        W75612  27.697  14.331   4.595
 5013W        W75613  26.168  40.740   4.165
 5014W        W75614  18.439  23.101  14.597
 5015W        W75615  32.563  10.180  14.366
 5016W        W75616  42.428  27.467   4.109
 5017W        W75617  33.669  24.416  11.091
 5018W        W75618   2.350  25.129   0.348
 5019W        W75619  41.598   0.207   4.731
 5020W        W75620   0.131  35.628  14.464
 5021W        W75621  29.944  20.162  13.080
 5022W        W75622   5.862  37.090   4.173
 5023W        W75623  19.055  33.687  11.936
 5024W        W75624   3.894   4.411   1.509
 5025W        W75625  37.499  32.945  11.634
 5026W        W75626  36.376   8.397  12.481
 5027W        W75627  41.601  27.620  12.643
 5028W        W75628  21.665   6.903  14.484
 5029W        W75629  26.655   9.891  10.496
 5030W        W75630  35.967  39.903  14.690
 5031W        W75631  31.684   9.090   1.671
 5032W        W75632  25.657  16.761  10.893
 5033W        W75633  37.375  39.405   4.438
 5034W        W75634  39.473   3.266  10.499
 5035W        W75635  38.942  34.022  13.825
 5036W        W75636  22.630  14.730  12.271
 5037W        W75637  18.628   3.253  13.945
 5038W        W75638  34.879  21.558   4.556
 5039W        W75639  32.979  23.821  11.225
 5040W        W75640   1.488  39.515  12.190
 5041W        W75641  24.845  22.826   2.742
 5042W        W75642  32.513  14.983  11.543
 5043W        W75643  21.780  42.101   2.792
 5044W        W75644  26.121  27.368  10.593
 5045W        W75645  24.136  30.871  13.519
 5046W        W75646  33.746  27.200  11.504
 5047W        W75647  26.512   3.846   3.199
 5048W        W75648  25.557  44.623  11.566
 5049W        W75649   7.835  32.201  13.489
 5050W        W75650  17.109  44.714   2.778
 5051W        W75651  12.157   4.099  12.855
 5052W        W75652  18.872  17.890  11.642
 5053W        W75653   2.861   2.811   1.383
 5054W        W75654  15.559  18.581  13.733
 5055W        W75655  35.195   4.670   5.154
 5056W        W75656  10.153  27.462  13.878
 5057W        W75657  41.351  40.735  13.401
 5058W        W75658  37.919  33.311   2.788
 5059W        W75659  26.156  35.896   0.256
 5060W        W75660  22.177  26.416   0.453
 5061W        W75661  10.258  20.433  14.882
 5062W        W75662   2.733  20.446  11.937
 5063W        W75663  18.530  27.443  14.553
 5064W        W75664  18.968  15.808  10.291
 5065W        W75665  21.489  30.655  14.089
 5066W        W75666  36.281  34.613  14.848
 5067W        W75667  11.310  39.875   2.227
 5068W        W75668  35.474  25.964   4.643
 5069W        W75669   9.365   5.727   4.136
 5070W        W75670  41.614   4.225   0.938
 5071W        W75671  40.546  25.217   0.423
 5072W        W75672  33.889  16.184   0.057
 5073W        W75673  41.961  21.791  11.599
 5074W        W75674  21.687  12.881  13.139
 5075W        W75675  20.818  12.336  11.636
 5076W        W75676   9.133   0.342   0.476
 5077W        W75677  36.006  29.443   4.225
 5078W        W75678   0.424   8.159   3.244
 5079W        W75679  37.638   7.798   3.269
 5080W        W75680   3.359  14.295  11.513
 5081W        W75681  44.926   4.305   4.346
 5082W        W75682   4.482   2.587   4.081
 5083W        W75683  29.388  41.581   4.492
 5084W        W75684   0.275  41.383  10.370
 5085W        W75685  42.487  20.100   3.744
 5086W        W75686  21.111  42.595   0.910
 5087W        W75687  14.535  20.506   1.274
 5088W        W75688  24.213  41.353  11.277
 5089W        W75689  40.849  10.178  11.502
 5090W        W75690  23.522  41.067   0.452
 5091W        W75691  21.110  28.966   3.299
 5092W        W75692  22.696  22.526   0.559
 5093W        W75693  35.947  44.850   0.783
 5094W        W75694  39.983   3.174   0.368
 5095W        W75695  23.306  15.868  14.270
 5096W        W75696  24.056   9.876  11.216
 5097W        W75697   5.233   4.430  11.598
 5098W        W75698  22.637   6.958  12.368
 5099W        W75699  13.207  10.381  10.329
 5100W        W75700  29.571  36.872  10.654
 5101W        W75701  43.034   8.258  10.597
 5102W        W75702  29.986  44.053   4.508
 5103W        W75703  26.987  18.577   4.186
 5104W        W75704   1.037  13.351   4.593
 5105W        W75705  44.674  40.647   2.770
 5106W        W75706  21.755  44.004   2.607
 5107W        W75707  12.272  22.108  11.995
 5108W        W75708  18.645   2.429  13.563
 5109W        W75709   4.374  36.632   4.807
 5110W        W75710  28.575  35.315   1.223
 5111W        W75711  36.039  27.969   3.733
 5112W        W75712  23.080  37.104  13.435
 5113W        W75713   7.149   0.955  11.193
 5114W        W75714   1.160  16.593  10.760
 5115W        W75715  37.887  13.626  10.766
 5116W        W75716   9.742   5.111   2.711
 5117W        W75717  41.787   7.416  13.539
 5118W        W75718   4.954   1.909  13.869
 5119W        W75719  30.059  42.595  12.079
 5120W        W75720  14.852  10.375   3.145
 5121W        W75721  43.262  24.056   1.155
 5122W        W75722  17.266   3.149   4.957
 5123W        W75723  27.036  24.053   0.140
 5124W        W75724  10.836  35.670  13.878
 5125W        W75725  18.628  10.714  14.300
 5126W        W75726  24.207  10.569   3.098
 5127W        W75727  26.840  44.264  14.070
 5128W        W75728  35.092   0.537   4.565
 5129W        W75729  10.471  24.553  12.659
 5130W        W75730  18.231  35.114   1.870
 5131W        W75731  12.174  28.671   4.196
 5132W        W75732  33.599  33.379  10.628
 5133W        W75733   2.831  26.888   0.373
 5134W        W75734  21.590  20.505   4.148
 5135W        W75735   3.835   8.184  11.444
 5136W        W75736  16.265  12.246  10.689
 5137W        W75737  13.301  12.808   4.747
 5138W        W75738  11.629  12.152   4.455
 5139W        W75739  26.244   0.247   2.590
 5140W        W75740  24.677   0.542  12.396
 5141W        W75741  14.409  25.636   4.137
 5142W        W75742  41.078  38.039   3.134
 5143W        W75743   8.916  20.245  12.921
 5144W        W75744   9.664  14.235  12.707
 5145W        W75745  22.449  15.742   3.689
 5146W        W75746  24.449  33.034   2.167
 5147W        W75747  40.527  34.484   2.262
 5148W        W75748  42.732  21.633   1.940
 5149W        W75749  18.584  39.596  12.996
 5150W        W75750  11.381  26.493  11.587
 5151W        W75751  15.813   9.199   3.267
 5152W        W75752  26.134  14.731   4.598
 5153W        W75753  43.302  43.004  10.952
 5154W        W75754   1.029  29.034   1.474
 5155W        W75755  32.290  27.347   2.284
 5156W        W75756   6.639  26.148  14.835
 5157W        W75757   7.753  30.054  11.382
 5158W        W75758   9.597  16.273  13.921
 5159W        W75759  13.080  35.874   1.698
 5160W        W75760  38.495   5.573  11.564
 5161W        W75761  27.583   2.499  14.050
 5162W        W75762   6.757  37.607  12.831
 5163W        W75763   6.719   7.773  13.774
 5164W        W75764   1.811  26.190  14.376
 5165W        W75765   2.779   8.735   0.877
 5166W        W75766  37.445  13.094   4.153
 5167W        W75767  29.453  33.549   3.361
 5168W        W75768  15.866  28.601   2.385
 5169W        W75769  40.432   2.284   3.223
 5170W        W75770  30.970  29.914   2.772
 5171W        W75771  44.638   1.927   1.918
 5172W        W75772   9.330  43.913   0.056
 5173W        W75773  31.973   9.638  11.504
 5174W        W75774  27.542  37.152   2.125
 5175W        W75775  18.285  35.331   2.717
 5176W        W75776  41.897  11.802  10.576
 5177W        W75777  26.702  19.535  13.082
 5178W        W75778  41.756  35.671  12.966
 5179W        W75779  11.621   6.770   2.861
 5180W        W75780  11.904  21.533  11.920
 5181W        W75781  32.567  36.609  13.846
 5182W        W75782   5.958  33.381   1.676
 5183W        W75783   3.248  17.589   0.776
 5184W        W75784   6.885  37.083  12.727
 5185W        W75785  27.921   4.954  14.009
 5186W        W75786  34.445   3.571   2.771
 5187W        W75787   5.106  20.517  11.979
 5188W        W75788  44.760  41.789  12.000
 5189W        W75789  35.972  22.576   4.626
 5190W        W75790  35.773  37.902  11.000
 5191W        W75791   9.960  42.019  14.320
 5192W        W75792  21.809  29.203   0.289
 5193W        W75793  40.467  16.963  11.143
 5194W        W75794  22.598  13.311  13.806
 5195W        W75795  41.849   5.969  12.353
 5196W        W75796   8.382  17.137   3.492
 5197W        W75797  23.103  18.943  12.924
 5198W        W75798  13.780  30.112  13.275
 5199W        W75799  36.062  17.076  11.158
 5200W        W75800  10.347  25.397   3.096
 5201W        W75801   4.855  41.187  10.197
 5202W        W75802  35.865  41.745  10.604
 5203W        W75803  14.102  38.855  13.319
 5204W        W75804  28.582  32.157   2.600
 5205W        W75805  39.088  19.352   4.001
 5206W        W75806  29.185  31.818  14.835
 5207W        W75807  38.543  32.419   3.867
 5208W        W75808  14.102  26.638  13.576
 5209W        W75809  42.679   8.337   4.922
 5210W        W75810  25.030   0.966  13.900
 5211W        W75811  39.555  37.784  10.961
 5212W        W75812  27.091  43.532  12.128
 5213W        W75813  39.836  21.582   0.076
 5214W        W75814  12.435   7.798  14.705
 5215W        W75815  13.975  12.531   3.314
 5216W        W75816  38.148  27.038   3.456
 5217W        W75817  39.568   7.344  14.385
 5218W        W75818   7.705  23.338  10.319
 5219W        W75819  20.555  24.636  12.480
 5220W        W75820  38.316  35.198   1.838
 5221W        W75821  30.095  29.385   2.789
 5222W        W75822  25.258  26.000   1.673
 5223W        W75823   2.667  33.094   1.247
 5224W        W75824  30.974  21.564   1.781
 5225W        W75825  41.378  22.316  12.915
 5226W        W75826  17.243  43.745   0.234
 5227W        W75827  32.576  10.968   2.116
 5228W        W75828   0.764  38.878  11.976
 5229W        W75829   0.425  29.165   3.239
 5230W        W75830   6.727   5.895  12.503
 5231W        W75831   5.941  34.556   0.272
 5232W        W75832  20.769  17.139   1.866
 5233W        W75833  33.482  24.477  10.620
 5234W        W75834  20.106  36.498  13.048
 5235W        W75835  20.141   5.869  12.973
 5236W        W75836  28.683  41.952   4.205
 5237W        W75837  38.429  29.864  10.595
 5238W        W75838   9.432  25.091   4.049
 5239W        W75839  29.851  30.936   4.071
 5240W        W75840   1.331  23.017   1.454
 5241W        W75841   6.242  10.273   3.199
 5242W        W75842  35.523   2.906   0.973
 5243W        W75843   8.159  21.676   3.298
 5244W        W75844  35.938  39.395   2.166
 5245W        W75845  18.598  33.902   0.740
 5246W        W75846  14.540  10.908   2.269
 5247W        W75847  12.635  14.139  11.636
 5248W        W75848  41.829  24.726  11.087
 5249W        W75849  21.673  12.132   2.919
 5250W        W75850  43.199  31.922   0.832
 5251W        W75851  20.069  36.393   3.296
 5252W        W75852  14.101  42.744  14.722
 5253W        W75853  20.322   1.218   2.256
 5254W        W75854  11.730  31.761   1.771
 5255W        W75855   9.408  27.013   0.440
 5256W        W75856  28.456  21.156   5.048
 5257W        W75857  30.369   5.225  12.712
 5258W        W75858  18.697   9.179   4.629
 5259W        W75859  21.207  16.410  13.525
 5260W        W75860  44.629   5.267   2.683
 5261W        W75861  11.348   2.436   3.256
 5262W        W75862  39.481   3.330   0.438
 5263W        W75863  14.258  30.396  10.678
 5264W        W75864   1.276  20.127  10.759
 5265W        W75865  18.664  30.653   2.473
 5266W        W75866  24.911  30.497  13.921
 5267W        W75867  24.542  22.866   0.217
 5268W        W75868   4.334  16.540  11.368
 5269W        W75869  13.926   9.146   1.455
 5270W        W75870  32.973  24.551  10.625
 5271W        W75871   6.798   9.125   0.402
 5272W        W75872  35.902  39.839   3.767
 5273W        W75873  20.563  18.798  10.802
 5274W        W75874  18.590  23.194  11.286
 5275W        W75875  30.464  42.870  12.875
 5276W        W75876  25.898  19.261  11.130
 5277W        W75877  33.548  15.369  13.867
 5278W        W75878  28.623  44.273  13.905
 5279W        W75879   2.888  40.326  13.881
 5280W        W75880  26.978  13.803   0.019
 5281W        W75881  38.781  32.843   0.280
 5282W        W75882  16.838  19.221   4.100
 5283W        W75883  43.544  23.450   2.247
 5284W        W75884  44.474   7.242   3.057
 5285W        W75885  43.911  21.669   1.504
 5286W        W75886  10.355  43.866   3.210
 5287W        W75887  25.011  22.697  10.403
 5288W        W75888  44.755   9.757  12.577
 5289W        W75889  10.265  11.924   4.018
 5290W        W75890   7.887  29.192   1.362
 5291W        W75891  16.103  23.922  13.920
 5292W        W75892  22.228  11.049   2.218
 5293W        W75893  16.131  28.052   2.892
 5294W        W75894  14.250  42.528   1.685
 5295W        W75895  44.504   5.225   1.264
 5296W        W75896  16.143  30.172   1.579
 5297W        W75897  34.982   2.506  10.371
 5298W        W75898   8.412   5.021  12.616
 5299W        W75899  36.862  23.667   4.325
 5300W        W75900  13.715  21.606   2.437
 5301W        W75901   8.424  17.468  11.172
 5302W        W75902  39.493  14.841   4.554
 5303W        W75903  12.975  44.294   4.615
 5304W        W75904  10.374  12.797   0.860
 5305W        W75905  12.096  35.463   0.352
 5306W        W75906   0.576  30.386  12.106
 5307W        W75907  39.998  28.103  13.209
 5308W        W75908  17.233   5.678   2.271
 5309W        W75909  25.017  17.296   2.060
 5310W        W75910  40.936  41.395   1.667
 5311W        W75911  29.828  41.845   0.765
 5312W        W75912  35.066  30.117  13.040
 5313W        W75913  37.889  42.914   1.379
 5314W        W75914  20.185   9.587   1.456
 5315W        W75915  43.319  31.087  14.875
 5316W        W75916  31.435   3.765  10.617
 5317W        W75917   2.384  39.098  14.518
 5318W        W75918  13.195   0.792  11.579
 5319W        W75919  25.535  37.781  12.940
 5320W        W75920   1.186   9.251  13.226
 5321W        W75921  13.712  27.414   1.030
 5322W        W75922  43.817  12.158   4.729
 5323W        W75923  14.265  28.681  11.992
 5324W        W75924   5.541  29.117   1.984
 5325W        W75925  10.858  39.342  14.513
 5326W        W75926  12.835   0.303  13.775
 5327W        W75927  25.431  37.424   2.788
 5328W        W75928  26.005   7.382  11.813
 5329W        W75929  44.453   8.187  11.092
 5330W        W75930  35.001  16.633   1.716
 5331W        W75931  21.090  23.261   2.203
 5332W        W75932  41.807  41.804   4.707
 5333W        W75933  22.532   2.676  10.263
 5334W        W75934  28.732   2.246  11.609
 5335W        W75935  35.513  32.020  13.385
 5336W        W75936  26.585  18.678   3.883
 5337W        W75937  10.637  34.970  11.910
 5338W        W75938  43.296  26.314  12.560
 5339W        W75939  38.367  19.536  11.113
 5340W        W75940  42.437  44.872   2.542
 5341W        W75941   5.422  17.096  12.007
 5342W        W75942  31.422  37.128   1.653
 5343W        W75943  21.994   1.395  13.913
 5344W        W75944  21.137   3.457   1.856
 5345W        W75945  31.234   7.718  14.947
 5346W        W75946  14.227  42.491  13.896
 5347W        W75947  41.838  21.650  12.379
 5348W        W75948   3.633  12.926   0.376
 5349W        W75949  30.082  22.235   1.966
 5350W        W75950  14.871   0.396   2.330
 5351W        W75951  35.567  22.148  12.103
 5352W        W75952  14.767  38.153   3.804
 5353W        W75953   1.890  43.540   2.449
 5354W        W75954  18.574  29.212   3.072
 5355W        W75955  14.726  23.301   0.724
 5356W        W75956  40.313  26.233   0.884
 5357W        W75957  28.258  27.482  13.441
 5358W        W75958  28.287  26.425  12.111
 5359W        W75959  39.548  22.972   0.445
 5360W        W75960  22.006  37.993  14.209
 5361W        W75961   6.508  16.326  11.134
 5362W        W75962  28.266   2.854   3.516
 5363W        W75963   6.117  33.916   4.158
 5364W        W75964  11.241  35.213   4.943
 5365W        W75965  13.052  18.229   3.739
 5366W        W75966  24.003  44.906  11.781
 5367W        W75967  38.792  36.927   2.844
 5368W        W75968  42.395  38.590  12.169
 5369W        W75969  33.899  33.252   3.063
 5370W        W75970  27.636  28.370   3.830
 5371W        W75971  26.186   0.305   3.095
 5372W        W75972  37.789  18.333  12.940
 5373W        W75973  37.407  41.515  14.757
 5374W        W75974  40.969  17.237   3.310
 5375W        W75975  23.060  24.712   1.279
 5376W        W75976  26.614  30.259   4.151
 5377W        W75977   8.871   8.405   4.567
 5378W        W75978  34.017  18.354  12.437
 5379W        W75979  32.080  38.946  14.024
 5380W        W75980  16.018   2.167  12.462
 5381W        W75981  18.541   7.800  14.786
 5382W        W75982  17.445   1.473  12.629
 5383W        W75983  24.477  43.455  14.487
 5384W        W75984  33.558  17.340  10.591
 5385W        W75985  39.541  32.360  11.137
 5386W        W75986  26.284  14.786  14.459
 5387W        W75987  36.690  26.231  12.030
 5388W        W75988  16.261   9.868  12.279
 5389W        W75989  39.120  30.642   0.509
 5390W        W75990  32.969   0.497   0.291
 5391W        W75991  13.870   1.124  14.156
 5392W        W75992  41.242  36.967  14.924
 5393W        W75993  33.895  33.751   3.225
 5394W        W75994  20.019  39.120   2.913
 5395W        W75995   8.588  32.995   3.266
 5396W        W75996  29.768  36.474   2.712
 5397W        W75997  21.137  32.972  10.757
 5398W        W75998  35.952   1.659   1.403
 5399W        W75999  25.914  10.140  11.718
 5400W        W76000  10.602   3.213  14.340
 5401W        W76001  20.920  14.549  11.118
 5402W        W76002   8.521  35.534  14.791
 5403W        W76003  11.074  41.864  14.997
 5404W        W76004  16.517  42.928  12.474
 5405W        W76005  42.500  36.424   1.863
 5406W        W76006  37.532  21.725   4.433
 5407W        W76007  15.234  11.257  11.616
 5408W        W76008  39.939  15.282  13.797
 5409W        W76009  41.022  17.819   0.892
 5410W        W76010  28.099  29.500  10.788
 5411W        W76011  33.940  13.271  12.174
 5412W        W76012  26.365  21.266  11.123
 5413W        W76013  30.984   6.057  12.842
 5414W        W76014  31.469  36.394   1.381
 5415W        W76015   5.795   3.788   2.785
 5416W        W76016  44.947  27.907   0.742
 5417W        W76017  16.247   7.233  12.146
 5418W        W76018   1.255  21.575  10.997
 5419W        W76019   8.432  31.887   3.129
 5420W        W76020  30.128   9.715  11.654
 5421W        W76021  24.277  33.787  13.977
 5422W        W76022  20.269  20.253   4.252
 5423W        W76023  23.613  10.143  14.807
 5424W        W76024  24.091  33.669   4.693
 5425W        W76025   4.858  37.895   3.135
 5426W        W76026  40.235  12.841   4.990
 5427W        W76027  35.341  16.563  10.972
 5428W        W76028   0.748  10.668   1.995
 5429W        W76029  13.818  42.499   4.016
 5430W        W76030  32.322   5.121   0.997
 5431W        W76031   4.910  27.190  14.783
 5432W        W76032   7.937  36.919   4.322
 5433W        W76033  18.728  11.309  11.080
 5434W        W76034   8.354  26.464  12.269
 5435W        W76035  20.069   1.546   4.128
 5436W        W76036  18.193  17.665  12.542
 5437W        W76037   0.757  33.005  12.367
 5438W        W76038  20.978  20.643  11.646
 5439W        W76039  33.283  44.960   0.893
 5440W        W76040  25.628  29.928  14.438
 5441W        W76041   9.890  41.399   0.007
 5442W        W76042  31.677  22.959   4.340
 5443W        W76043  42.764  34.972  14.611
 5444W        W76044  14.689  27.963   4.122
 5445W        W76045   6.804  34.385   1.332
 5446W        W76046  27.559  31.066  10.474
 5447W        W76047  33.726  18.453  11.948
 5448W        W76048  34.958  22.514   4.721
 5449W        W76049  34.470  41.549   3.395
 5450W        W76050   0.578  31.679   3.168
 5451W        W76051  42.758  32.747   4.834
 5452W        W76052  11.628  34.969   3.692
 5453W        W76053   9.351  38.544  14.711
 5454W        W76054  38.987  40.475  14.403
 5455W        W76055  10.271  32.909   1.334
 5456W        W76056  13.903  26.495  11.265
 5457W        W76057  31.020   8.397  13.493
 5458W        W76058  28.624  15.356   1.732
 5459W        W76059  21.070  41.574   2.364
 5460W        W76060  18.030  27.253  12.911
 5461W        W76061  29.124  10.178  11.112
 5462W        W76062  31.117  12.120   3.632
 5463W        W76063  13.112   6.417  11.163
 5464W        W76064  33.015  33.082  10.672
 5465W        W76065  31.597   5.904  10.700
 5466W        W76066   8.061  20.751   3.587
 5467W        W76067  11.415  44.958   1.014
 5468W        W76068  19.807  18.219  14.739
 5469W        W76069  17.618  30.865   2.164
 5470W        W76070  33.145   5.207   4.519
 5471W        W76071  25.618  29.974  13.896
 5472W        W76072  13.184   1.873  12.124
 5473W        W76073  41.907  38.640   4.158
 5474W        W76074  23.702  20.433  13.475
 5475W        W76075  44.078  43.366  13.940
 5476W        W76076  32.064   0.899   1.761
 5477W        W76077  33.561  38.796  11.967
 5478W        W76078  34.831  18.467  12.897
 5479W        W76079  31.371   0.011   0.823
 5480W        W76080  30.134   2.460  11.480
 5481W        W76081  19.760  22.144  11.944
 5482W        W76082  31.103  31.953  13.941
 5483W        W76083  29.353   9.146  13.531
 5484W        W76084  18.351  29.304   0.282
 5485W        W76085  35.420   3.641  11.894
 5486W        W76086  22.617  29.015  14.534
 5487W        W76087  22.345  25.286  12.137
 5488W        W76088  10.441  40.508  13.421
 5489W        W76089  32.825  11.234   3.795
 5490W        W76090  27.989  13.633  12.524
 5491W        W76091   0.907  23.864   0.402
 5492W        W76092  14.661  35.251  12.412
 5493W        W76093  37.512  14.802   2.932
 5494W        W76094  25.418  40.952   0.396
 5495W        W76095  22.323  34.072   0.709
 5496W        W76096  12.075   5.690  13.700
 5497W        W76097   2.236  11.410  14.343
 5498W        W76098  36.962  13.919   3.961
 5499W        W76099   7.117  37.465   2.908
 5500W        W76100  20.692  43.661   1.234
 5501W        W76101  27.094  25.512  14.076
 5502W        W76102  42.514  28.535  11.995
 5503W        W76103  14.672  40.227   0.957
 5504W        W76104  16.522  10.098   4.082
 5505W        W76105   2.863  21.996  13.792
 5506W        W76106  10.584  19.691  11.321
 5507W        W76107  34.949  10.681  12.929
 5508W        W76108  16.214  38.781   3.748
 5509W        W76109  30.992   5.890   2.575
 5510W        W76110   3.414  17.321   3.207
 5511W        W76111  29.031  27.596  11.473
 5512W        W76112  23.699  29.044  11.961
 5513W        W76113  33.153  13.715  13.516
 5514W        W76114  16.737   3.931   0.769
 5515W        W76115  25.796   4.796   3.754
 5516W        W76116  32.735   2.355  13.889
 5517W        W76117  38.217  19.195   0.928
 5518W        W76118  17.364  33.913   1.872
 5519W        W76119   1.309  43.257  14.239
 5520W        W76120   5.662   2.431  13.609
 5521W        W76121  36.109  18.461   0.061
 5522W        W76122   0.871  42.925  11.225
 5523W        W76123   4.473  15.275   1.294
 5524W        W76124  13.074  20.639   1.080
 5525W        W76125  28.507   4.193  13.000
 5526W        W76126   0.414  22.205   1.364
 5527W        W76127  35.637   3.029  14.486
 5528W        W76128   2.489  44.870  14.309
 5529W        W76129   8.259  12.672   4.501
 5530W        W76130  27.510  29.006  12.669
 5531W        W76131  20.813   3.028   1.913
 5532W        W76132   0.847  43.667  12.574
 5533W        W76133   2.182  30.455   0.814
 5534W        W76134  24.953   9.217  11.104
 5535W        W76135  31.050  12.750   4.659
 5536W        W76136  10.740  20.595  13.363
 5537W        W76137   5.498   4.572  10.247
 5538W        W76138  29.544   0.693  13.402
 5539W        W76139  34.876  26.750   3.772
 5540W        W76140  43.359  44.442   4.131
 5541W        W76141  23.990  13.138   0.256
 5542W        W76142  18.564  20.129  11.637
 5543W        W76143  21.473  39.613  14.666
 5544W        W76144  10.086  17.097  12.471
 5545W        W76145  24.316  14.641   0.440
 5546W        W76146  16.100   1.907  10.674
 5547W        W76147   3.916  33.772  14.527
 5548W        W76148  24.265   1.061  12.618
 5549W        W76149  38.375  19.630  14.207
 5550W        W76150   1.778  18.660   4.160
 5551W        W76151  13.332  11.145  12.844
 5552W        W76152  41.402  29.460   4.303
 5553W        W76153  37.638  30.067  10.340
 5554W        W76154  32.556  39.091   2.837
 5555W        W76155  14.395  34.410  11.084
 5556W        W76156   6.381  34.327  12.570
 5557W        W76157  32.962  14.908   4.569
 5558W        W76158   2.448  23.106   3.793
 5559W        W76159  25.162  16.880  11.261
 5560W        W76160  42.104  36.851  14.569
 5561W        W76161  26.707  36.357   4.585
 5562W        W76162  19.680  43.176   5.007
 5563W        W76163  41.915  18.047   4.517
 5564W        W76164   3.836  16.152   3.718
 5565W        W76165   6.232   3.836  13.988
 5566W        W76166  18.474  37.837   2.916
 5567W        W76167  42.622   7.733   2.272
 5568W        W76168  25.236  13.972   3.214
 5569W        W76169  21.689  15.943   0.893
 5570W        W76170  41.423  17.117   2.227
 5571W        W76171  37.724  23.787   2.350
 5572W        W76172  25.568  32.220   2.282
 5573W        W76173  15.110   9.111  11.515
 5574W        W76174   8.099  41.828   2.596
 5575W        W76175  26.911  15.055   1.318
 5576W        W76176  16.115  27.636  14.539
 5577W        W76177  23.750  16.360  14.868
 5578W        W76178  43.919  39.807   0.503
 5579W        W76179   2.246  27.539  14.987
 5580W        W76180  34.303  13.422   2.850
 5581W        W76181  19.485  32.400   1.833
 5582W        W76182  19.680  34.140  12.297
 5583W        W76183   8.937  26.035   2.342
 5584W        W76184  37.057  21.147  13.977
 5585W        W76185  35.945   3.174   4.503
 5586W        W76186   1.483  22.034   0.483
 5587W        W76187  33.622  19.055  11.237
 5588W        W76188  12.430  21.207  14.947
 5589W        W76189  35.566  35.421   3.150
 5590W        W76190   6.868   4.428  10.987
 5591W        W76191  34.471  15.757   2.908
 5592W        W76192  18.608  22.951  12.936
 5593W        W76193   5.209  30.063   2.341
 5594W        W76194  25.845   3.742   0.980
 5595W        W76195  18.045  37.748  14.060
 5596W        W76196  30.853  19.505  14.053
 5597W        W76197  16.216  40.461   1.439
 5598W        W76198  16.000  17.456  13.447
 5599W        W76199  10.205  24.984   2.232
 5600W        W76200  21.503  25.673   0.887
 5601W        W76201  39.573  13.747   0.998
 5602W        W76202   4.236  19.492  10.908
 5603W        W76203  37.183  42.826  12.972
 5604W        W76204  11.314  39.994  14.759
 5605W        W76205   6.246  20.017  10.687
 5606W        W76206  19.558  16.428  13.992
 5607W        W76207   9.858   0.383  10.824
 5608W        W76208  38.979  31.855  12.002
 5609W        W76209   4.797   6.657   4.058
 5610W        W76210  12.702  16.333  14.116
 5611W        W76211   4.272  17.585  10.777
 5612W        W76212  22.581   6.945  14.579
 5613W        W76213   7.831  15.375  10.294
 5614W        W76214  10.870  18.096  11.505
 5615W        W76215  33.886  25.089  12.925
 5616W        W76216   7.929   3.415  13.890
 5617W        W76217  36.395  24.435   0.348
 5618W        W76218  29.392  14.607   3.488
 5619W        W76219  24.596  35.584   2.901
 5620W        W76220  29.863  42.065   2.597
 5621W        W76221  29.769  21.096   2.496
 5622W        W76222  26.971  15.130  14.877
 5623W        W76223  33.948  19.460   1.375
 5624W        W76224  30.274  37.197   1.250
 5625W        W76225   6.372  11.647   4.595
 5626W        W76226  22.116  17.527   2.917
 5627W        W76227  16.077  44.087   0.945
 5628W        W76228  11.760  34.043   0.920
 5629W        W76229  36.091   8.150  12.882
 5630W        W76230  25.503  27.061  10.690
 5631W        W76231  12.515   7.567   1.889
 5632W        W76232  21.907   5.369  12.826
 5633W        W76233  43.954  17.736  12.144
 5634W        W76234  34.845   3.931   3.863
 5635W        W76235  13.175  20.367   1.929
 5636W        W76236  35.096  18.679  11.279
 5637W        W76237  38.430  27.736  13.555
 5638W        W76238  36.969   6.357   4.056
 5639W        W76239  15.248  37.976   1.634
 5640W        W76240  19.459  24.747  11.116
 5641W        W76241  13.839  40.792   3.577
 5642W        W76242  41.239  41.768   0.870
 5643W        W76243  29.477  32.033   2.714
 5644W        W76244  34.769   7.437   0.926
 5645W        W76245  31.410  19.737   3.174
 5646W        W76246  17.076   2.553  13.439
 5647W        W76247  21.633  30.971   3.085
 5648W        W76248   5.210  26.573  10.930
 5649W        W76249  35.089   3.098   1.232
 5650W        W76250   3.007  15.332  14.812
 5651W        W76251  33.842  11.082   3.842
 5652W        W76252  17.246  24.990  11.484
 5653W        W76253  10.857   1.448  14.418
 5654W        W76254   6.621  39.454   4.477
 5655W        W76255  10.958  30.674  13.800
 5656W        W76256  14.250   0.950  10.536
 5657W        W76257  38.050  40.388  11.947
 5658W        W76258  19.144  36.412   2.903
 5659W        W76259   2.832  20.215   4.948
 5660W        W76260  23.518  16.847  14.992
 5661W        W76261  39.458   4.661   1.721
 5662W        W76262  27.119  33.371  13.755
 5663W        W76263   7.438  43.839  14.339
 5664W        W76264   6.686  18.580  14.777
 5665W        W76265   1.934  18.347   1.970
 5666W        W76266  33.228  16.740   4.664
 5667W        W76267  24.981  11.774  12.003
 5668W        W76268   5.449  22.026   1.885
 5669W        W76269  24.172  20.088   0.283
 5670W        W76270  40.358  40.996  12.343
 5671W        W76271  10.346   2.211   3.087
 5672W        W76272  22.592  27.607  13.568
 5673W        W76273  34.434  15.707   2.394
 5674W        W76274   9.315   0.291   4.339
 5675W        W76275  37.731   3.339  11.895
 5676W        W76276   0.085  35.940  14.054
 5677W        W76277  19.187  26.375  11.518
 5678W        W76278  27.155  34.406  14.005
 5679W        W76279   6.347   9.280  14.117
 5680W        W76280  38.019  17.650   0.472
 5681W        W76281  20.744  28.445   4.773
 5682W        W76282   3.832  25.593  12.625
 5683W        W76283  33.993   3.537   5.253
 5684W        W76284  24.551  13.405  10.535
 5685W        W76285  37.772  19.672  13.364
 5686W        W76286  25.677  30.558  11.173
 5687W        W76287   5.724  29.934  10.622
 5688W        W76288  35.139  24.009  14.688
 5689W        W76289   8.323  33.554   2.636
 5690W        W76290   9.947   3.122   3.387
 5691W        W76291  21.653  36.008   0.989
 5692W        W76292   3.005  41.981  14.462
 5693W        W76293  34.168   6.476  12.542
 5694W        W76294   3.887  31.074   3.188
 5695W        W76295   1.701  41.384   0.258
 5696W        W76296  11.431   1.893  11.877
 5697W        W76297  14.779   1.208   3.930
 5698W        W76298  32.111   0.523   3.562
 5699W        W76299  28.160  12.865   0.695
 5700W        W76300  39.210  13.755  13.508
 5701W        W76301  43.771  31.873   3.243
 5702W        W76302  13.874   8.233  11.432
 5703W        W76303  31.201   1.241   2.874
 5704W        W76304  14.627  16.275  12.043
 5705W        W76305   4.413  26.117   1.845
 5706W        W76306  12.763  34.025   1.877
 5707W        W76307  27.353  10.790  14.083
 5708W        W76308   0.047  21.071  11.971
 5709W        W76309  42.289  31.339   4.100
 5710W        W76310  22.643   0.466  12.625
 5711W        W76311  31.539   4.925  13.550
 5712W        W76312  13.383  38.348  12.442
 5713W        W76313  34.061   0.511  11.211
 5714W        W76314  25.916  28.738   2.407
 5715W        W76315  12.498   1.146  10.889
 5716W        W76316   5.736  44.841   1.899
 5717W        W76317  37.118  28.455   3.556
 5718W        W76318  36.006  44.427  14.519
 5719W        W76319  14.309  38.813   3.811
 5720W        W76320  27.232  22.204  10.611
 5721W        W76321   6.780  27.213  14.831
 5722W        W76322   7.691  39.424  14.113
 5723W        W76323  15.794  10.862  14.349
 5724W        W76324  12.444  29.945   0.938
 5725W        W76325  36.992  25.236   3.758
 5726W        W76326   4.975  35.945   1.428
 5727W        W76327   1.769  26.420   2.368
 5728W        W76328  44.789  18.050   3.269
 5729W        W76329  39.428  39.900   2.152
 5730W        W76330  43.707  44.260   1.838
 5731W        W76331   7.294  41.901   1.475
 5732W        W76332   6.304  11.441  13.372
 5733W        W76333   2.514   8.677  11.655
 5734W        W76334  26.905  34.989  10.675
 5735W        W76335  36.068  16.750   0.944
 5736W        W76336  27.931   5.187   0.925
 5737W        W76337  43.461  16.195  14.052
 5738W        W76338  25.416  40.410  12.276
 5739W        W76339   2.106  23.417  11.137
 5740W        W76340  26.245  25.990  10.430
 5741W        W76341  30.549  19.591   4.560
 5742W        W76342  30.054  34.334  11.812
 5743W        W76343  29.025   3.623   0.119
 5744W        W76344  33.681   9.827   2.721
 5745W        W76345  38.679   4.980  13.002
 5746W        W76346  12.144  14.329   4.650
 5747W        W76347   8.241  20.767  14.733
 5748W        W76348  28.495   8.376  11.420
 5749W        W76349  19.298   9.127   1.431
 5750W        W76350  38.356  41.541  14.818
 5751W        W76351  37.533  18.245   0.728
 5752W        W76352  40.876  18.229   2.901
 5753W        W76353  17.831  23.956  11.154
 5754W        W76354  14.798  27.690  14.854
 5755W        W76355  33.385  32.520  11.951
 5756W        W76356  18.119   6.025  12.074
 5757W        W76357  38.985   3.722   2.931
 5758W        W76358  24.195  32.188   2.446
 5759W        W76359   4.365   5.715  13.628
 5760W        W76360  10.929   7.177  13.364
 5761W        W76361  15.301  41.425  14.732
 5762W        W76362  35.834  24.312  11.529
 5763W        W76363   7.617  38.621  12.003
 5764W        W76364  13.623   3.880   0.820
 5765W        W76365  14.243   2.796  12.996
 5766W        W76366  11.879  13.927  12.886
 5767W        W76367   3.721  14.855   0.945
 5768W        W76368  12.107   3.176  11.391
 5769W        W76369  20.780   9.747  11.708
 5770W        W76370  27.099  29.186  11.986
 5771W        W76371  25.516  36.861   4.736
 5772W        W76372  29.861  41.541   2.607
 5773W        W76373  25.156   2.885   3.696
 5774W        W76374  40.832   8.407   3.210
 5775W        W76375  27.485   9.161   4.593
 5776W        W76376   4.039   4.816   3.363
 5777W        W76377  42.753   1.522   0.928
 5778W        W76378   3.286  31.404  12.581
 5779W        W76379  15.310  25.692  11.210
 5780W        W76380  31.938  41.834  11.510
 5781W        W76381  43.709  28.239   0.311
 5782W        W76382  24.492  42.509  11.738
 5783W        W76383  21.755  12.165  10.423
 5784W        W76384  36.712  40.008  10.814
 5785W        W76385  43.170   2.265   0.978
 5786W        W76386  39.835  19.637   1.839
 5787W        W76387  40.543  37.806  14.299
 5788W        W76388  34.671  31.181   3.813
 5789W        W76389   2.151  17.078  14.016
 5790W        W76390   2.398  34.619   3.243
 5791W        W76391  35.455  25.045   0.815
 5792W        W76392  25.791  26.070   2.763
 5793W        W76393  19.161  19.518  13.872
 5794W        W76394  19.674  36.521   1.271
 5795W        W76395  34.025  35.084   2.762
 5796W        W76396  38.704  27.112   3.793
 5797W        W76397  30.567  26.430  10.393
 5798W        W76398  39.955  21.692  10.758
 5799W        W76399   8.560   1.872  10.091
 5800W        W76400   1.204  28.705  11.411
 5801W        W76401   0.994   7.325   2.457
 5802W        W76402  15.015  38.538   1.401
 5803W        W76403  28.769  17.332   0.337
 5804W        W76404  16.825   1.966   9.790
 5805W        W76405  33.475  25.019  10.601
 5806W        W76406  18.508  16.338  14.926
 5807W        W76407  39.862   5.954   1.673
 5808W        W76408  16.074  30.481  14.173
 5809W        W76409  34.405  15.374  13.439
 5810W        W76410  16.780  20.104  12.323
 5811W        W76411  13.656   9.649  11.670
 5812W        W76412   3.760  40.089   4.228
 5813W        W76413   3.502  10.296   4.767
 5814W        W76414  13.287  33.202   2.764
 5815W        W76415  21.537  16.771  12.940
 5816W        W76416  27.985   9.989  12.082
 5817W        W76417   9.969   0.212   0.688
 5818W        W76418   2.772  33.299   3.588
 5819W        W76419  26.030  32.429   0.035
 5820W        W76420  29.078   5.750   3.360
 5821W        W76421  14.280  25.170  14.305
 5822W        W76422   3.288  43.086   3.189
 5823W        W76423  36.056  22.636   3.062
 5824W        W76424  27.563   8.823   1.582
 5825W        W76425  41.298   1.919  13.483
 5826W        W76426  44.051  41.520  11.504
 5827W        W76427   3.952  19.025   4.708
 5828W        W76428  21.644  32.572  14.397
 5829W        W76429  39.861   7.421   0.858
 5830W        W76430  18.653  30.590  11.868
 5831W        W76431  34.478  23.830   3.154
 5832W        W76432  41.242  39.812  10.642
 5833W        W76433   3.172  32.125   2.847
 5834W        W76434  24.765   4.891   3.749
 5835W        W76435   8.247   9.146  14.909
 5836W        W76436   9.788  42.279  14.749
 5837W        W76437  25.622  23.608  11.714
 5838W        W76438  37.640   4.327   3.752
 5839W        W76439  12.313   1.335   3.913
 5840W        W76440  43.266  34.915   2.984
 5841W        W76441  22.671  11.804   0.759
 5842W        W76442   8.829  17.285  13.875
 5843W        W76443  36.147  29.088  13.445
 5844W        W76444  22.155  23.016   3.744
 5845W        W76445  28.183  17.371   2.780
 5846W        W76446  13.105  44.710  14.551
 5847W        W76447  43.788  22.317   4.519
 5848W        W76448  10.638  33.953  12.806
 5849W        W76449  40.152  43.666   3.917
 5850W        W76450  41.925  14.529  13.859
 5851W        W76451  15.677   8.226  10.406
 5852W        W76452  42.322  34.187   0.791
 5853W        W76453   2.851  38.312   3.866
 5854W        W76454  42.200  12.375   3.339
 5855W        W76455   2.309  27.143   3.665
 5856W        W76456   3.434   6.337  10.341
 5857W        W76457   2.357  19.240   4.762
 5858W        W76458   9.314  24.536  10.799
 5859W        W76459  33.405   0.340   2.235
 5860W        W76460  11.406   3.219   4.276
 5861W        W76461  30.743   7.939   4.129
 5862W        W76462   8.881  44.239  12.099
 5863W        W76463  31.087  17.589  13.732
 5864W        W76464   6.978  21.260   4.427
 5865W        W76465   3.884  26.067  12.488
 5866W        W76466   3.626  33.679  10.142
 5867W        W76467  26.695  23.478   2.162
 5868W        W76468  39.564  35.456  12.043
 5869W        W76469  14.338   8.166  10.711
 5870W        W76470  35.118  40.981  11.522
 5871W        W76471  34.834  40.752  13.448
 5872W        W76472  35.946  11.792  13.539
 5873W        W76473  35.618  29.502  11.390
 5874W        W76474   8.957  44.428  10.583
 5875W        W76475   6.452  36.572   1.388
 5876W        W76476  40.368  17.774   1.716
 5877W        W76477  23.200  42.799   3.737
 5878W        W76478  14.150  28.429  12.982
 5879W        W76479   5.611  20.803  13.000
 5880W        W76480   1.424  12.335   2.262
 5881W        W76481   6.363  20.575   2.158
 5882W        W76482   2.851  28.148  13.017
 5883W        W76483   6.207   8.703  10.717
 5884W        W76484  35.401   5.192   0.825
 5885W        W76485  39.921  29.861  12.027
 5886W        W76486   1.060  39.520   2.757
 5887W        W76487  38.910  15.782  11.365
 5888W        W76488   7.365  20.484   4.541
 5889W        W76489   5.635  22.751   3.264
 5890W        W76490  44.259  25.171   4.765
 5891W        W76491  36.080  14.735  11.882
 5892W        W76492  37.568   6.005   0.262
 5893W        W76493  44.360  17.820  13.059
 5894W        W76494   4.272  25.401  13.349
 5895W        W76495   4.763  10.035   1.243
 5896W        W76496   3.244   9.392   1.671
 5897W        W76497  37.783  41.396   4.036
 5898W        W76498  36.977   4.703   4.171
 5899W        W76499   5.511  25.021  11.687
 5900W        W76500  33.457   0.828   0.779
 5901W        W76501   8.725  33.610   0.771
 5902W        W76502  42.525  43.364   2.414
 5903W        W76503  12.366   3.164   0.226
 5904W        W76504  33.997   8.831   0.226
 5905W        W76505   9.282  37.124   3.134
 5906W        W76506  17.386  37.057  10.511
 5907W        W76507   1.652   2.302   0.689
 5908W        W76508  10.726  14.294   1.843
 5909W        W76509   8.111  27.121   2.366
 5910W        W76510   3.597  27.060  13.322
 5911W        W76511  18.692  22.683   4.980
 5912W        W76512  26.084  10.308  11.036
 5913W        W76513  31.576  29.955   0.504
 5914W        W76514  23.517  15.189   0.742
 5915W        W76515  16.725  14.551  12.449
 5916W        W76516  31.492  17.555   4.694
 5917W        W76517  12.631  31.993  12.602
 5918W        W76518   7.299  44.543  13.441
 5919W        W76519  26.232  39.009  12.964
 5920W        W76520  14.664  24.941   1.773
 5921W        W76521  14.661   4.377   0.881
 5922W        W76522  23.289  30.555  13.537
 5923W        W76523  36.382   2.457  13.584
 5924W        W76524  29.940  31.919  11.143
 5925W        W76525   1.206  17.352  14.975
 5926W        W76526  15.531  27.428   3.956
 5927W        W76527   5.289   0.369   1.191
 5928W        W76528  24.683  27.327   2.189
 5929W        W76529  13.744  19.795  14.789
 5930W        W76530  44.821  40.040   4.033
 5931W        W76531  15.060  14.255  14.311
 5932W        W76532  40.814   0.809   4.101
 5933W        W76533  36.538  10.056  13.530
 5934W        W76534  25.729  38.463  13.926
 5935W        W76535  13.912  35.506  11.942
 5936W        W76536   6.619  41.041  10.729
 5937W        W76537  10.158   8.689   2.126
 5938W        W76538  19.850  17.332  13.852
 5939W        W76539  26.010   5.628  14.857
 5940W        W76540  10.722  42.275   4.388
 5941W        W76541  41.097  30.190  14.458
 5942W        W76542   8.761  44.786   4.129
 5943W        W76543  36.047  21.963   0.540
 5944W        W76544  43.511  33.594  10.660
 5945W        W76545  24.974  39.227   3.180
 5946W        W76546  33.374  11.407   0.195
 5947W        W76547  33.840  10.730  12.920
 5948W        W76548   4.853   4.238   3.805
 5949W        W76549  21.443  26.215  12.883
 5950W        W76550  44.315  13.246   1.779
 5951W        W76551   2.046  13.334  14.358
 5952W        W76552  44.518  16.835   3.168
 5953W        W76553  35.058  26.193  12.496
 5954W        W76554  35.833  29.458  14.489
 5955W        W76555  12.959  11.067   1.390
 5956W        W76556   8.953   9.230  11.145
 5957W        W76557   8.234   4.920  13.393
 5958W        W76558  30.187   9.128  11.169
 5959W        W76559  39.628  34.352  14.045
 5960W        W76560   3.416  23.970   2.421
 5961W        W76561  33.532   8.733  12.903
 5962W        W76562   2.876   0.179   1.944
 5963W        W76563  27.012  19.189   4.617
 5964W        W76564  43.803   1.309  11.560
 5965W        W76565   0.871   2.192   1.801
 5966W        W76566   2.208  41.252  11.174
 5967W        W76567  28.440  26.748   1.263
 5968W        W76568  10.166   8.951   0.631
 5969W        W76569   3.773   6.844   4.318
 5970W        W76570  29.510   1.858   3.149
 5971W        W76571  28.232   0.062   3.921
 5972W        W76572  22.112   0.882  13.897
 5973W        W76573   7.923  19.086  14.989
 5974W        W76574  34.900  29.504  10.853
 5975W        W76575  13.250   7.446   0.879
 5976W        W76576  22.671  44.436  13.463
 5977W        W76577  36.552  26.760   4.241
 5978W        W76578  12.078  28.641  12.426
 5979W        W76579   5.325  21.115   1.928
 5980W        W76580  28.888  41.531   1.141
 5981W        W76581  30.964  17.018   3.934
 5982W        W76582  22.369   8.149   1.502
 5983W        W76583  38.312  17.798   3.745
 5984W        W76584  31.268  30.980   0.874
 5985W        W76585  20.981  16.195   3.147
 5986W        W76586  10.969  33.023  12.809
 5987W        W76587   0.014  38.832   3.695
 5988W        W76588   9.118   7.249  12.552
 5989W        W76589  18.231  30.441  14.275
 5990W        W76590   9.886  10.307   2.440
 5991W        W76591   6.110  40.602   2.212
 5992W        W76592  22.769   4.015   3.828
 5993W        W76593  16.333  23.676  11.462
 5994W        W76594  30.281   3.946   1.479
 5995W        W76595  33.541  13.625   3.184
 5996W        W76596   0.356  30.143   4.097
 5997W        W76597   3.729   7.843   3.844
 5998W        W76598  36.560  39.523  10.723
 5999W        W76599  21.527  22.016   1.714
 6000W        W76600  15.231   1.840  12.042
 6001W        W76601  17.723  38.339  13.539
 6002W        W76602  20.682   5.610   3.990
 6003W        W76603   6.091  36.493   4.144
 6004W        W76604   4.359  26.180  10.784
 6005W        W76605  19.716  14.368  13.135
 6006W        W76606  44.287  30.409   2.319
 6007W        W76607  14.241  35.282   4.586
 6008W        W76608   6.884  21.642   2.806
 6009W        W76609   4.338  25.414   1.779
 6010W        W76610  19.129  22.518  13.771
 6011W        W76611   2.319   1.695   0.031
 6012W        W76612  23.274   4.015   3.689
 6013W        W76613  30.964   3.292  11.132
 6014W        W76614  38.837  33.325  10.139
 6015W        W76615  21.351  28.494  10.932
 6016W        W76616  41.880  33.952   0.787
 6017W        W76617   8.245  12.872   3.638
 6018W        W76618  14.378  35.626  12.114
 6019W        W76619  37.209  39.768  12.055
 6020W        W76620  12.786  13.899  11.118
 6021W        W76621  30.349  36.033  14.656
 6022W        W76622  22.781  30.599  13.507
 6023W        W76623  39.408   6.807   2.391
 6024W        W76624   9.037  15.807   3.216
 6025W        W76625  44.158  33.899   1.424
 6026W        W76626  13.887  18.080   0.969
 6027W        W76627  40.537  17.580  13.358
 6028W        W76628  23.229  42.767  10.983
 6029W        W76629   7.801   5.365  13.823
 6030W        W76630   8.636  29.580   1.129
 6031W        W76631  16.494  39.956  12.485
 6032W        W76632  14.709  30.871   0.396
 6033W        W76633   5.558   3.397  11.070
 6034W        W76634  12.395  11.381  13.459
 6035W        W76635  44.162  22.096   3.574
 6036W        W76636  12.563  31.676   2.372
 6037W        W76637   1.994  22.030  14.478
 6038W        W76638  38.446  42.601   1.129
 6039W        W76639   6.588  29.960   0.888
 6040W        W76640  13.412  24.662   4.248
 6041W        W76641   1.542   8.906  13.043
 6042W        W76642   1.775   1.576  12.802
 6043W        W76643  32.113  42.247   0.424
 6044W        W76644  10.596   1.133   4.075
 6045W        W76645  11.821   7.298   0.199
 6046W        W76646  29.451  16.052   1.427
 6047W        W76647  32.774  32.710  14.410
 6048W        W76648  22.205  10.372   5.466
 6049W        W76649   3.657   9.332  14.505
 6050W        W76650  29.001  14.968  11.988
 6051W        W76651  39.952  32.379  12.883
 6052W        W76652  30.385  10.321   2.756
 6053W        W76653  38.412  25.914   0.613
 6054W        W76654  42.351  36.634   0.013
 6055W        W76655   4.166  20.079   3.369
 6056W        W76656  21.575  34.474  12.177
 6057W        W76657  12.134   8.068  12.414
 6058W        W76658  29.902  33.401  12.473
 6059W        W76659  22.616  38.163  12.389
 6060W        W76660  34.995  24.179  12.231
 6061W        W76661  16.627  12.589   1.643
 6062W        W76662  15.908  36.528   2.145
 6063W        W76663   3.705   2.717  12.994
 6064W        W76664  27.425  38.286  11.143
 6065W        W76665   6.194  30.101  13.440
 6066W        W76666  19.905   5.625   3.055
 6067W        W76667   7.710  21.170  10.810
 6068W        W76668  42.074   7.426  12.374
 6069W        W76669  44.974  26.769   3.225
 6070W        W76670  17.961  13.862   2.391
 6071W        W76671  20.693   8.115   1.400
 6072W        W76672  20.422  41.497  11.180
 6073W        W76673   6.223  32.180  10.758
 6074W        W76674  10.419  17.775   1.982
 6075W        W76675  10.386  20.062  13.058
 6076W        W76676  38.990  28.635   4.671
 6077W        W76677   1.863  11.511  13.408
 6078W        W76678  23.326  33.269   4.282
 6079W        W76679  34.376  33.939   1.162
 6080W        W76680  11.357  31.648  13.456
 6081W        W76681  26.951  19.990   4.222
 6082W        W76682   2.509  10.451  12.895
 6083W        W76683  17.991  15.597  12.702
 6084W        W76684   8.173   1.647  14.895
 6085W        W76685  35.431   0.217   2.371
 6086W        W76686   7.206  40.506  14.376
 6087W        W76687  27.973  33.458   0.478
 6088W        W76688  36.053  17.601  14.835
 6089W        W76689  20.940  35.355   4.083
 6090W        W76690  11.107  43.885  10.708
 6091W        W76691  44.652  31.621  11.117
 6092W        W76692   6.623  41.523  14.345
 6093W        W76693  16.561  29.728   4.610
 6094W        W76694   2.729  28.340  11.627
 6095W        W76695  35.770  40.393  11.828
 6096W        W76696  20.742  37.460  10.169
 6097W        W76697  22.012  30.213  12.539
 6098W        W76698  24.693   8.628   2.315
 6099W        W76699  30.947  28.773  11.973
 6100W        W76700  12.066   5.393   3.199
 6101W        W76701  16.091  38.079  12.545
 6102W        W76702  32.125   0.862  13.937
 6103W        W76703   3.900   3.632  13.938
 6104W        W76704   0.324  44.251  13.039
 6105W        W76705  30.939  25.162   4.179
 6106W        W76706   5.076  24.961   2.388
 6107W        W76707  23.842  24.246   4.379
 6108W        W76708  33.097  34.856   4.448
 6109W        W76709  32.657  27.551  12.288
 6110W        W76710  38.495   3.937   4.783
 6111W        W76711  44.079  23.097   3.970
 6112W        W76712  24.626   6.772  12.999
 6113W        W76713  25.828  29.472  13.942
 6114W        W76714  30.947  12.390  14.948
 6115W        W76715  22.207  30.698  12.597
 6116W        W76716  20.047  40.719  10.594
 6117W        W76717  26.369  42.815   3.490
 6118W        W76718  34.027  44.004  12.013
 6119W        W76719  24.439  36.427  13.941
 6120W        W76720  12.857  41.423   0.016
 6121W        W76721  17.322  19.807  14.265
 6122W        W76722   2.310  10.283   5.433
 6123W        W76723  15.520  16.624  14.443
 6124W        W76724  39.307  19.818   1.221
 6125W        W76725  16.571   6.938  14.863
 6126W        W76726  39.981   8.683   1.533
 6127W        W76727  17.380  25.613   1.202
 6128W        W76728  26.983  33.212  14.251
 6129W        W76729  41.374  13.505   4.003
 6130W        W76730  10.892   4.398  11.006
 6131W        W76731  32.273  18.113  12.599
 6132W        W76732  13.132   9.131  13.936
 6133W        W76733  42.057  35.622  10.315
 6134W        W76734   7.117   3.665   3.070
 6135W        W76735  30.655  43.095   3.810
 6136W        W76736  19.572  30.949   4.718
 6137W        W76737  15.735   5.739   1.271
 6138W        W76738  42.073  29.681   1.136
 6139W        W76739  24.618  37.444   3.141
 6140W        W76740  30.994   5.795   4.266
 6141W        W76741  21.795  17.983   1.864
 6142W        W76742   7.686   1.896   5.004
 6143W        W76743   7.341  24.858  12.076
 6144W        W76744  25.412  25.094   0.620
 6145W        W76745  32.690  16.827   1.646
 6146W        W76746  10.891  44.508  12.208
 6147W        W76747  24.993  14.246   1.251
 6148W        W76748  25.823  44.915   1.848
 6149W        W76749  23.982  16.094   4.546
 6150W        W76750  29.844   9.682   0.808
 6151W        W76751  27.101  13.851  13.614
 6152W        W76752  16.968   6.408   2.384
 6153W        W76753  14.312   4.372  13.827
 6154W        W76754  40.589  35.377  11.141
 6155W        W76755  44.694   8.464  11.435
 6156W        W76756  20.240  10.917  12.540
 6157W        W76757  37.463   1.811  14.039
 6158W        W76758  16.116  12.661   5.084
 6159W        W76759   0.615   8.777   2.840
 6160W        W76760   3.162   2.693  11.112
 6161W        W76761  41.443  26.735  12.523
 6162W        W76762  26.504  31.517   4.556
 6163W        W76763  37.799  10.194   3.344
 6164W        W76764  36.025  40.530  11.416
 6165W        W76765   3.930  37.752   2.473
 6166W        W76766  38.381  31.100   1.639
 6167W        W76767  22.443   7.684  12.957
 6168W        W76768  33.603  40.453  14.799
 6169W        W76769  22.748  30.614  12.624
 6170W        W76770  24.864   0.834   3.566
 6171W        W76771  30.161   9.934  10.596
 6172W        W76772   0.840   4.689  10.622
 6173W        W76773  16.072  33.436   4.128
 6174W        W76774  38.924  36.579  10.497
 6175W        W76775  23.713  12.442  12.959
 6176W        W76776  24.368  17.985  12.067
 6177W        W76777  43.684  21.071   2.728
 6178W        W76778  16.776  44.714  14.033
 6179W        W76779   7.724  34.537   2.709
 6180W        W76780  38.079  22.091  13.525
 6181W        W76781  10.170  30.224  13.449
 6182W        W76782  32.518   5.760   0.324
 6183W        W76783  40.517  11.002  11.250
 6184W        W76784  33.056  44.507  11.469
 6185W        W76785  20.760  38.429  14.073
 6186W        W76786  18.100  42.051  10.678
 6187W        W76787   4.739  12.410  14.007
 6188W        W76788  26.652  36.670   2.132
 6189W        W76789  32.703  38.731   0.060
 6190W        W76790  14.161   0.695   1.730
 6191W        W76791  12.166  41.019   4.556
 6192W        W76792   4.189  17.564   2.200
 6193W        W76793   0.463   3.183   0.905
 6194W        W76794   0.062  27.266   3.103
 6195W        W76795  22.144  40.913   2.879
 6196W        W76796  23.932  22.972  12.907
 6197W        W76797  20.520  23.026   1.315
 6198W        W76798  34.934  29.607   3.387
 6199W        W76799  41.354  33.072   3.617
 6200W        W76800  42.124  23.555   3.799
 6201W        W76801  27.539  19.834   4.630
 6202W        W76802  19.539  23.607  14.479
 6203W        W76803  30.192  10.644  12.871
 6204W        W76804   9.358   0.180  13.976
 6205W        W76805  37.346  10.296  11.525
 6206W        W76806  41.177  10.062   2.071
 6207W        W76807  17.797  36.099  13.457
 6208W        W76808   5.843   0.921   1.198
 6209W        W76809  30.159  30.983  14.505
 6210W        W76810  42.833  39.014   1.558
 6211W        W76811   8.007   2.683  12.789
 6212W        W76812  28.939   0.178   3.138
 6213W        W76813   2.965  26.487   3.246
 6214W        W76814  35.297  10.065   3.161
 6215W        W76815  39.235  13.662   2.011
 6216W        W76816   5.528   7.969  14.811
 6217W        W76817  22.019  39.480   1.104
 6218W        W76818  29.698   9.761  10.758
 6219W        W76819  42.828  20.754  12.826
 6220W        W76820  38.538  23.721  11.610
 6221W        W76821  32.666  39.359   2.412
 6222W        W76822  37.394   8.247   3.344
 6223W        W76823  22.569  25.007   2.982
 6224W        W76824  13.105   4.912  11.661
 6225W        W76825   9.220  16.334   3.212
 6226W        W76826   7.695   9.686  11.533
 6227W        W76827  43.998  21.654  10.365
 6228W        W76828  25.913  39.295  10.256
 6229W        W76829  23.537  44.178   2.301
 6230W        W76830  31.098  13.543   2.387
 6231W        W76831  31.038  11.482   4.612
 6232W        W76832   3.894  37.997  11.503
 6233W        W76833  31.964   7.330   3.312
 6234W        W76834  36.970   0.704  13.056
 6235W        W76835  21.587  22.275   2.711
 6236W        W76836  43.855  20.606   2.369
 6237W        W76837  42.460   6.148   2.785
 6238W        W76838   0.480  26.505  14.383
 6239W        W76839  24.732   9.127   0.196
 6240W        W76840   5.754  36.060  11.661
 6241W        W76841  11.270   2.766  10.513
 6242W        W76842  15.067  11.821   0.722
 6243W        W76843  34.962   6.183  12.794
 6244W        W76844   8.850   3.919   0.485
 6245W        W76845   3.950  12.757   9.883
 6246W        W76846  20.530   5.723   4.968
 6247W        W76847  12.603  14.723   0.057
 6248W        W76848   1.937  10.347   0.761
 6249W        W76849   3.675   9.301   1.937
 6250W        W76850  24.203  27.773  12.509
 6251W        W76851  12.520  44.988  13.500
 6252W        W76852  28.206  19.701   1.128
 6253W        W76853  36.375  17.818  13.570
 6254W        W76854  28.718  16.752   4.198
 6255W        W76855  14.849   9.232  11.946
 6256W        W76856  12.963  29.125  12.262
 6257W        W76857   1.810  26.971   3.267
 6258W        W76858  35.061  41.374   5.056
 6259W        W76859  40.186  35.517   3.613
 6260W        W76860   1.051   4.199   3.649
 6261W        W76861  14.599  18.119   3.620
 6262W        W76862   2.619  21.343   4.426
 6263W        W76863   9.208  13.114   0.338
 6264W        W76864  16.051   0.888  10.738
 6265W        W76865  26.681  36.416   1.318
 6266W        W76866  43.284  10.617   2.833
 6267W        W76867   6.907  38.363   4.413
 6268W        W76868  25.934  39.266  13.741
 6269W        W76869  13.257   1.321  10.680
 6270W        W76870  34.904  32.984   3.245
 6271W        W76871  30.421  26.170  11.832
 6272W        W76872   8.097  19.519   0.732
 6273W        W76873  42.261  10.709  10.690
 6274W        W76874   1.902  25.179   4.704
 6275W        W76875   8.146  33.927  12.527
 6276W        W76876   0.923  42.436  14.560
 6277W        W76877   1.481  40.816   0.268
 6278W        W76878  34.363  16.758  11.065
 6279W        W76879  10.306  11.757   3.533
 6280W        W76880  14.546  11.387   2.124
 6281W        W76881  20.554   2.400  14.114
 6282W        W76882  10.584  41.292  12.973
 6283W        W76883  20.317   6.898   1.643
 6284W        W76884  36.170  16.298  13.403
 6285W        W76885  40.400  43.288  13.348
 6286W        W76886  35.493  38.297  12.808
 6287W        W76887   0.917  37.090  11.505
 6288W        W76888  20.110  38.524  13.764
 6289W        W76889   8.651  24.116   1.384
 6290W        W76890   7.271  27.744   3.157
 6291W        W76891   4.938  32.305   2.359
 6292W        W76892  30.361  15.227   1.121
 6293W        W76893   9.842  23.578  13.617
 6294W        W76894  30.361   7.676  12.251
 6295W        W76895  18.094  42.367  14.956
 6296W        W76896  39.998  22.531   3.152
 6297W        W76897   5.877  26.638   3.708
 6298W        W76898   8.516  16.144   3.910
 6299W        W76899  22.503  29.562   0.769
 6300W        W76900  43.975   4.860  11.135
 6301W        W76901   3.888  33.576   2.674
 6302W        W76902  26.431  38.882  12.499
 6303W        W76903  15.550   8.297  13.770
 6304W        W76904  33.457  13.221   0.808
 6305W        W76905  43.382   9.388  11.425
 6306W        W76906  44.435  31.207  12.893
 6307W        W76907  31.981  40.318   1.263
 6308W        W76908   3.954  18.031  10.909
 6309W        W76909  37.003  19.792   3.245
 6310W        W76910   5.420  19.665   0.509
 6311W        W76911  17.156  22.066  12.192
 6312W        W76912  24.307  15.686   3.373
 6313W        W76913  37.284  26.910  10.755
 6314W        W76914   1.334  28.449  10.568
 6315W        W76915   2.829  29.182   1.012
 6316W        W76916  35.935   9.250   4.847
 6317W        W76917  43.969  22.248   3.111
 6318W        W76918   1.400  39.886   1.233
 6319W        W76919  40.540  24.805   4.690
 6320W        W76920   2.673  39.865  11.973
 6321W        W76921   3.663  30.920   2.358
 6322W        W76922  28.045  27.017  11.108
 6323W        W76923  39.401  34.172  13.332
 6324W        W76924  16.509  19.846  14.004
 6325W        W76925  37.685   4.266  14.934
 6326W        W76926  42.551  32.530   3.298
 6327W        W76927  29.420  37.160   4.074
 6328W        W76928  37.340  19.242  10.435
 6329W        W76929  32.583  30.990  11.600
 6330W        W76930  19.747   9.657  13.417
 6331W        W76931  32.525   9.310   4.884
 6332W        W76932  37.546  23.912   2.830
 6333W        W76933  30.429   8.405  10.672
 6334W        W76934  37.156   3.200  12.953
 6335W        W76935  39.480  18.821  13.441
 6336W        W76936   9.558  33.605   4.822
 6337W        W76937  41.938  40.870   4.613
 6338W        W76938   6.813  21.341   2.365
 6339W        W76939  11.582  18.110   0.257
 6340W        W76940   5.769  23.747   2.063
 6341W        W76941   3.122  28.205  12.552
 6342W        W76942  42.848  10.149  13.541
 6343W        W76943  10.531  35.312  12.548
 6344W        W76944   2.639  33.929  12.169
 6345W        W76945  36.004  40.353   1.416
 6346W        W76946  31.457   8.829   3.249
 6347W        W76947   6.681  35.747   3.763
 6348W        W76948   6.135  37.643  14.713
 6349W        W76949  25.285  19.099  11.688
 6350W        W76950  26.662   1.019  11.516
 6351W        W76951  25.653  10.912  13.182
 6352W        W76952  16.908  34.438   2.665
 6353W        W76953  13.190  36.335  10.576
 6354W        W76954  27.612   4.772  11.637
 6355W        W76955  25.639  44.988   1.164
 6356W        W76956  14.518   4.891   0.946
 6357W        W76957  22.543  44.194   0.979
 6358W        W76958  20.281  28.244   3.662
 6359W        W76959  29.741   5.820  13.360
 6360W        W76960  26.639  40.518   4.148
 6361W        W76961  34.781  17.896  11.544
 6362W        W76962  12.656  28.324  14.812
 6363W        W76963  35.654  18.243   1.938
 6364W        W76964  11.723  27.251  12.526
 6365W        W76965  11.827  15.666  13.448
 6366W        W76966   4.364  35.800  13.915
 6367W        W76967  37.744  39.482  14.861
 6368W        W76968  30.077  40.134   3.703
 6369W        W76969  37.496  18.749  12.190
 6370W        W76970  11.357  44.516   0.755
 6371W        W76971  29.441  37.464   0.232
 6372W        W76972  29.097   5.377  10.615
 6373W        W76973   5.122   9.422  12.459
 6374W        W76974  35.404   3.510  13.737
 6375W        W76975  42.217   1.603   1.889
 6376W        W76976  30.161  31.419  14.763
 6377W        W76977  25.251  11.740   3.158
 6378W        W76978   9.378  34.318  14.057
 6379W        W76979  18.269  28.067   4.823
 6380W        W76980   6.868  30.739   2.022
 6381W        W76981   8.453  44.815  11.678
 6382W        W76982  33.883  41.960  12.200
 6383W        W76983  16.517  21.439  14.830
 6384W        W76984  12.421  22.604   3.776
 6385W        W76985  39.506   0.921  14.224
 6386W        W76986   1.947  38.515   1.204
 6387W        W76987  31.142  26.330   4.720
 6388W        W76988  12.578  32.484   3.761
 6389W        W76989  18.529  10.216   2.061
 6390W        W76990  16.259   5.247  12.658
 6391W        W76991  33.502  40.586   4.552
 6392W        W76992  20.611  30.214   3.088
 6393W        W76993  37.593  18.635   1.862
 6394W        W76994   9.931  16.095  14.294
 6395W        W76995  32.094  10.621   3.894
 6396W        W76996  11.439   4.477  11.154
 6397W        W76997  12.816  44.505  11.347
 6398W        W76998  19.146   2.187   2.758
 6399W        W76999  21.742  24.055  11.651
 6400W        W77000  15.394  17.135  10.715
 6401W        W77001  36.501  14.712  10.444
 6402W        W77002  36.027   8.320   3.092
 6403W        W77003  21.699  37.226  12.028
 6404W        W77004  27.612  27.904  12.112
 6405W        W77005  22.510  26.971  10.763
 6406W        W77006  11.036  22.183   0.357
 6407W        W77007  21.783  36.344  14.420
 6408W        W77008   0.692   2.460   2.766
 6409W        W77009  28.835  33.479  12.510
 6410W        W77010  29.935  12.670   1.340
 6411W        W77011  21.578  22.116  12.483
 6412W        W77012  44.017  29.054   1.367
 6413W        W77013  44.534  20.810   0.382
 6414W        W77014  20.829  36.094   2.310
 6415W        W77015  18.664  14.742   1.368
 6416W        W77016  22.341  21.646   1.526
 6417W        W77017  13.877   2.521   0.937
 6418W        W77018   1.953  33.637   1.822
 6419W        W77019  25.926  30.552   4.588
 6420W        W77020  34.276   6.205   2.263
 6421W        W77021  38.654  15.021  14.749
 6422W        W77022  36.461  27.330   3.226
 6423W        W77023  24.658   7.025   3.565
 6424W        W77024  22.945  17.566  12.172
 6425W        W77025  24.087  32.326  10.983
 6426W        W77026  16.012  43.279   2.446
 6427W        W77027  24.284  42.545   3.372
 6428W        W77028  42.030  27.079   1.667
 6429W        W77029  31.217   3.898  13.563
 6430W        W77030  14.583  15.239   0.937
 6431W        W77031  24.599  11.121   1.389
 6432W        W77032  14.192  40.322  11.471
 6433W        W77033   2.895   2.222  14.369
 6434W        W77034  31.946  19.011  14.439
 6435W        W77035  30.017  14.816  14.619
 6436W        W77036  17.285   2.925  11.993
 6437W        W77037  13.842  30.699  10.668
 6438W        W77038  43.399  26.117  14.231
 6439W        W77039  15.376  20.077   3.799
 6440W        W77040  28.576   3.546   1.275
 6441W        W77041  40.286   5.736   0.806
 6442W        W77042  25.246  24.559   1.751
 6443W        W77043   3.313  22.726   2.829
 6444W        W77044  33.519  21.083  14.970
 6445W        W77045  22.031  17.435  14.222
 6446W        W77046  14.692  24.096  13.068
 6447W        W77047  21.837  30.992  12.351
 6448W        W77048   2.901  26.731  11.105
 6449W        W77049  44.414   8.412  12.579
 6450W        W77050  40.758  17.456   1.153
 6451W        W77051  28.645  27.340  11.237
 6452W        W77052  34.132  44.015   2.391
 6453W        W77053  36.492   7.119  14.905
 6454W        W77054  27.209  15.823  11.980
 6455W        W77055  17.178  27.663   4.856
 6456W        W77056  16.548   4.151   1.451
 6457W        W77057  36.511  22.987  11.839
 6458W        W77058  13.239  24.813   2.873
 6459W        W77059   0.692  30.905   0.582
 6460W        W77060   2.751  16.162  11.909
 6461W        W77061  39.321   6.650   1.412
 6462W        W77062   1.262   5.029   3.800
 6463W        W77063  28.563   1.329  12.041
 6464W        W77064   5.548   3.650  13.232
 6465W        W77065   0.925  13.090   0.057
 6466W        W77066  44.053  25.493   1.344
 6467W        W77067   6.302  20.060   2.162
 6468W        W77068  37.109  17.814  11.215
 6469W        W77069  27.514  28.867   2.362
 6470W        W77070  37.946  43.811  11.133
 6471W        W77071   7.288  19.760  12.542
 6472W        W77072  35.023  36.595  12.697
 6473W        W77073  24.907   0.017  11.715
 6474W        W77074  39.935  27.956  14.893
 6475W        W77075  18.663  17.016   0.451
 6476W        W77076  43.246  34.438  13.201
 6477W        W77077  11.081  24.533   4.975
 6478W        W77078  11.442  39.322   2.760
 6479W        W77079  20.254  18.850  12.954
 6480W        W77080  43.701   0.233  11.097
 6481W        W77081  33.058  43.545  14.088
 6482W        W77082  13.275  29.933   4.379
 6483W        W77083  15.609  21.778  11.591
 6484W        W77084  31.090  33.022   0.817
 6485W        W77085  29.502  16.516  11.636
 6486W        W77086  31.692   2.578   0.421
 6487W        W77087  30.942  38.265   4.698
 6488W        W77088  10.761   1.475   4.955
 6489W        W77089  27.648  10.592  12.705
 6490W        W77090  17.402   7.624  11.667
 6491W        W77091  17.192   0.246  11.002
 6492W        W77092   6.526  21.159  14.849
 6493W        W77093  14.648  35.422   2.743
 6494W        W77094   8.928  20.903  11.960
 6495W        W77095  41.819  27.692   4.192
 6496W        W77096  23.787   9.629   2.321
 6497W        W77097  44.911  38.755  12.587
 6498W        W77098  13.353  30.151   0.872
 6499W        W77099   2.221  44.785  10.755
 6500W        W77100  29.212   9.686  13.536
 6501W        W77101  35.950  39.515  11.649
 6502W        W77102  30.950  42.946  10.586
 6503W        W77103   4.898  19.081  14.882
 6504W        W77104  17.638   0.714  12.060
 6505W        W77105   3.279  24.371   2.100
 6506W        W77106  23.109  39.256  10.646
 6507W        W77107   0.738  22.587  11.519
 6508W        W77108  31.828  21.245  11.541
 6509W        W77109  31.303  22.624  13.830
 6510W        W77110  41.881  28.417   0.242
 6511W        W77111   5.529   6.788   2.435
 6512W        W77112  44.102   9.719  13.826
 6513W        W77113  15.205   1.703   0.305
 6514W        W77114   8.342  16.587  11.176
 6515W        W77115  42.824  17.725  12.783
 6516W        W77116   7.520   6.315   2.889
 6517W        W77117  13.644  17.037   2.637
 6518W        W77118  31.546  10.874  10.564
 6519W        W77119  21.158   3.920   2.958
 6520W        W77120  18.793  26.562   2.139
 6521W        W77121  11.257  11.857  11.943
 6522W        W77122  35.622  44.439   2.803
 6523W        W77123  38.379  21.705  12.914
 6524W        W77124  12.077   1.121   0.785
 6525W        W77125  22.328  18.277  11.085
 6526W        W77126  12.356   3.683  13.117
 6527W        W77127  43.418  36.445  14.505
 6528W        W77128  32.512  38.158  13.803
 6529W        W77129   7.162  15.093  11.468
 6530W        W77130   0.341   6.401  14.079
 6531W        W77131   7.055  21.322   3.763
 6532W        W77132  17.323   7.419  10.203
 6533W        W77133  36.937  17.598   4.218
 6534W        W77134  12.799  20.633  13.820
 6535W        W77135  19.187  35.115  12.928
 6536W        W77136  19.992   0.022   3.130
 6537W        W77137  25.124  14.325  11.216
 6538W        W77138   5.212  15.923  12.855
 6539W        W77139  27.475   7.676   0.082
 6540W        W77140   8.416  38.817  11.624
 6541W        W77141  15.124  21.615  11.968
 6542W        W77142   2.466   3.479   4.562
 6543W        W77143   7.599   2.937  12.950
 6544W        W77144  23.488  43.209   1.775
 6545W        W77145  32.503  35.630   2.413
 6546W        W77146   4.489  39.376   4.774
 6547W        W77147  35.053  44.847  11.313
 6548W        W77148   3.735  36.190   2.671
 6549W        W77149  14.901   3.017  13.602
 6550W        W77150  28.944  23.979   1.877
 6551W        W77151  20.012  21.684   2.798
 6552W        W77152   3.877   3.442   4.122
 6553W        W77153  14.179   7.450   1.356
 6554W        W77154  40.916  13.154   3.172
 6555W        W77155  15.248  38.724   5.015
 6556W        W77156  41.973   7.008   4.121
 6557W        W77157   3.517  40.794  10.864
 6558W        W77158   0.765   0.195  12.580
 6559W        W77159  44.038  21.430   4.899
 6560W        W77160  30.249   6.245   1.861
 6561W        W77161  31.446  20.344   2.759
 6562W        W77162   4.672  25.612  12.522
 6563W        W77163   1.237  41.082  13.039
 6564W        W77164   3.791   5.178  10.727
 6565W        W77165   2.183  22.566   0.341
 6566W        W77166  29.841  18.842  12.617
 6567W        W77167  43.847  36.673   2.281
 6568W        W77168   7.719   6.741   4.883
 6569W        W77169   2.255  12.072   0.771
 6570W        W77170  10.657  26.129  12.569
 6571W        W77171  13.737  39.372   2.768
 6572W        W77172  44.467  22.859   0.176
 6573W        W77173  43.258  20.217  12.512
 6574W        W77174  26.133   7.298  13.372
 6575W        W77175  15.752  24.284   2.768
 6576W        W77176  36.761  39.073  10.499
 6577W        W77177  38.487  12.513   3.631
 6578W        W77178  26.393  10.640   4.307
 6579W        W77179  34.380   2.303  12.969
 6580W        W77180  38.910  37.092  10.406
 6581W        W77181  36.931  14.561   4.907
 6582W        W77182  23.662  41.049   3.362
 6583W        W77183  35.465  25.641  12.594
 6584W        W77184  37.280  25.213  11.078
 6585W        W77185  15.829  42.247  12.822
 6586W        W77186  14.608  12.933   2.537
 6587W        W77187  29.242   7.920  14.435
 6588W        W77188  37.363  28.755   2.316
 6589W        W77189  18.091  33.909   1.067
 6590W        W77190  33.884  31.044   4.311
 6591W        W77191  32.601  20.068  10.449
 6592W        W77192  17.011  41.050   4.137
 6593W        W77193  44.028  26.353  10.848
 6594W        W77194  30.379  11.792  12.422
 6595W        W77195   0.879  34.206   4.107
 6596W        W77196  11.390   6.800  12.702
 6597W        W77197  16.891   8.306   4.040
 6598W        W77198  33.056  22.675   0.428
 6599W        W77199  24.130  13.541  14.460
 6600W        W77200  14.487  26.590   3.639
 6601W        W77201  10.404  42.784  10.662
 6602W        W77202  39.783  25.569   3.820
 6603W        W77203  17.003   4.411   1.447
 6604W        W77204  20.489  22.093  13.593
 6605W        W77205  30.518   5.269  11.528
 6606W        W77206  41.097  32.380   2.242
 6607W        W77207  22.542  37.655  12.225
 6608W        W77208  21.805  35.880  11.567
 6609W        W77209  43.645  23.967   4.049
 6610W        W77210  30.132  38.367   3.312
 6611W        W77211  12.798   9.774   4.267
 6612W        W77212   3.875   4.103  12.137
 6613W        W77213  34.073  39.740   2.196
 6614W        W77214   3.433   4.290   1.325
 6615W        W77215  28.022   3.899   5.072
 6616W        W77216   2.242  43.562  14.783
 6617W        W77217  40.838  26.247   1.790
 6618W        W77218  26.997  15.531   1.122
 6619W        W77219  19.988  44.753  12.932
 6620W        W77220  29.366  22.293   2.709
 6621W        W77221  32.569  31.803  11.971
 6622W        W77222   5.199  16.785   2.892
 6623W        W77223  23.174  34.468   1.418
 6624W        W77224  21.446   5.412   0.816
 6625W        W77225  10.080   8.400  11.143
 6626W        W77226   5.842  18.276  10.550
 6627W        W77227  42.027  30.379   9.881
 6628W        W77228  40.373  12.579  12.990
 6629W        W77229  21.601  10.186  12.583
 6630W        W77230  38.615  40.140   4.286
 6631W        W77231  18.275   0.975  11.323
 6632W        W77232  33.999  36.370   1.865
 6633W        W77233   7.724  26.028  13.263
 6634W        W77234   2.243  11.888   4.801
 6635W        W77235  14.653  12.687   1.441
 6636W        W77236  35.782  13.337   4.059
 6637W        W77237   0.871  36.149   2.784
 6638W        W77238  28.263  44.440   0.011
 6639W        W77239  32.193  19.161  11.182
 6640W        W77240   7.498  12.838  14.625
 6641W        W77241  36.116  19.969   1.739
 6642W        W77242  25.345  11.532  10.730
 6643W        W77243  11.564  32.524  11.399
 6644W        W77244  44.085  26.947   3.343
 6645W        W77245   3.475  19.116   2.418
 6646W        W77246  18.208  30.770  12.594
 6647W        W77247  40.019  12.704   1.941
 6648W        W77248  23.328   1.907   5.118
 6649W        W77249  20.559  21.197  13.515
 6650W        W77250  32.156  32.970  10.392
 6651W        W77251   3.795  23.494  12.562
 6652W        W77252  15.007  24.024   0.004
 6653W        W77253  12.788   1.037   2.022
 6654W        W77254  39.548  18.896  12.909
 6655W        W77255  42.322  21.214   0.480
 6656W        W77256   0.889   0.783  14.601
 6657W        W77257   1.440  30.932  13.721
 6658W        W77258  37.545  40.328  10.497
 6659W        W77259   2.596  32.868   1.751
 6660W        W77260  33.083   8.853   2.785
 6661W        W77261  24.446  39.969   1.173
 6662W        W77262  35.387   2.010  12.605
 6663W        W77263  38.374  13.674   1.289
 6664W        W77264  35.182  36.574  11.197
 6665W        W77265  15.418  13.796  14.534
 6666W        W77266   7.965  39.925  11.083
 6667W        W77267   1.859  19.314   1.274
 6668W        W77268  19.737  33.619   0.560
 6669W        W77269  11.811   9.463  14.499
 6670W        W77270  23.531  12.386   3.268
 6671W        W77271  24.533   0.822   2.243
 6672W        W77272  24.699  25.933   0.843
 6673W        W77273  14.709  38.612   3.582
 6674W        W77274  40.551  35.327  11.894
 6675W        W77275  24.714  16.248   0.892
 6676W        W77276   3.223   7.247  10.381
 6677W        W77277  16.232  25.266  13.028
 6678W        W77278  41.025  31.736   3.130
 6679W        W77279   0.773  24.959  12.615
 6680W        W77280  42.276   1.527   2.837
 6681W        W77281   9.458   9.967   4.707
 6682W        W77282  17.367  30.658   1.768
 6683W        W77283  33.218   8.488  13.795
 6684W        W77284  26.746  24.018  10.701
 6685W        W77285  29.866  32.646   4.262
 6686W        W77286  15.138  23.557   1.209
 6687W        W77287  39.394  18.079   1.329
 6688W        W77288  41.495  13.676   1.606
 6689W        W77289  28.128  35.118   0.857
 6690W        W77290  33.557  14.563   4.710
 6691W        W77291  44.809  34.927  12.434
 6692W        W77292  10.922   2.360   1.838
 6693W        W77293   5.748  18.647  14.665
 6694W        W77294   0.475  15.849  11.946
 6695W        W77295   7.725  42.452   1.634
 6696W        W77296  38.928  43.105   4.115
 6697W        W77297  11.696   6.460  11.228
 6698W        W77298   9.415   5.308   1.291
 6699W        W77299  18.346  25.992   0.835
 6700W        W77300  42.403  22.961  12.573
 6701W        W77301  32.642  23.063  12.275
 6702W        W77302  26.184  16.343   1.333
 6703W        W77303  26.711  35.434  14.808
 6704W        W77304  29.869  22.048   0.453
 6705W        W77305   8.395  32.416  10.749
 6706W        W77306  18.836  26.651   0.842
 6707W        W77307  43.133  19.221  12.046
 6708W        W77308  37.614  12.190  11.988
 6709W        W77309  36.050  42.878  12.351
 6710W        W77310   1.785  14.866   0.775
 6711W        W77311  11.748  32.963   1.485
 6712W        W77312  25.135  37.360  13.417
 6713W        W77313  26.460  14.871   1.116
 6714W        W77314  31.972  34.591   4.195
 6715W        W77315  25.614  35.319   2.116
 6716W        W77316   1.295  29.664   0.370
 6717W        W77317  11.473  26.139  11.986
 6718W        W77318  10.563  27.750  14.684
 6719W        W77319   6.931  29.832   2.125
 6720W        W77320  32.049   8.088   0.485
 6721W        W77321  28.051   4.137   4.615
 6722W        W77322   5.529  18.782   0.979
 6723W        W77323  30.867  19.693  10.397
 6724W        W77324  42.282   7.944   2.595
 6725W        W77325  17.712  17.952   0.809
 6726W        W77326  23.236  32.131  13.849
 6727W        W77327  28.912   0.053  13.497
 6728W        W77328  12.031  13.111   4.960
 6729W        W77329  39.974  16.930   3.266
 6730W        W77330   5.429  11.237  14.466
 6731W        W77331  42.418   4.227  14.295
 6732W        W77332  33.327  17.190   1.947
 6733W        W77333  20.995  31.184   1.969
 6734W        W77334  33.656  20.256  12.550
 6735W        W77335  42.396  31.123  14.765
 6736W        W77336  24.661  43.689  13.994
 6737W        W77337  33.298  31.618  13.535
 6738W        W77338  11.520   4.280  12.001
 6739W        W77339  27.426  26.547   2.322
 6740W        W77340  31.359   5.164   2.632
 6741W        W77341  38.815  35.053  14.793
 6742W        W77342  38.807  40.927   4.602
 6743W        W77343   3.190  44.712   1.954
 6744W        W77344  20.047  21.170   2.907
 6745W        W77345  33.776  36.077  11.226
 6746W        W77346  19.546   5.324   3.695
 6747W        W77347  29.919  25.475  12.852
 6748W        W77348  18.114   6.851  11.271
 6749W        W77349   7.637  27.084  11.129
 6750W        W77350  24.789  11.355  11.550
 6751W        W77351  23.059  11.076   3.212
 6752W        W77352  43.725  25.962  13.404
 6753W        W77353  32.593  32.583   4.174
 6754W        W77354  25.790  26.467   4.374
 6755W        W77355  21.011  28.713  10.603
 6756W        W77356  22.706   5.323  11.146
 6757W        W77357  39.459  26.526   3.707
 6758W        W77358  17.696  27.598   4.809
 6759W        W77359  21.102  23.023  11.091
 6760W        W77360  38.512  19.670   4.533
 6761W        W77361   8.276  19.817  14.766
 6762W        W77362  14.248   2.410   4.235
 6763W        W77363   5.375  29.697   3.207
 6764W        W77364  39.792   1.025   1.298
 6765W        W77365  41.114   3.254   0.608
 6766W        W77366   1.541  30.360   1.662
 6767W        W77367  17.881   0.950   0.287
 6768W        W77368   2.301  36.131  14.862
 6769W        W77369  23.206  20.815   3.318
 6770W        W77370  10.270  36.522  14.317
 6771W        W77371  25.363   3.414   2.870
 6772W        W77372  36.032  34.300   4.534
 6773W        W77373  15.067  13.132  11.922
 6774W        W77374   5.141  26.689   9.829
 6775W        W77375   7.829  26.294  11.502
 6776W        W77376  13.571   8.270   0.971
 6777W        W77377   4.212  36.231  10.763
 6778W        W77378  32.275  29.044  13.474
 6779W        W77379  26.198  34.496   2.194
 6780W        W77380   8.762   8.805   2.688
 6781W        W77381  19.341  41.362  14.343
 6782W        W77382  19.315  25.514   0.334
 6783W        W77383  25.205  10.931   2.174
 6784W        W77384  12.851   2.427   1.153
 6785W        W77385   3.058   0.711   0.793
 6786W        W77386  22.796  27.879   5.145
 6787W        W77387  28.430  39.049  11.782
 6788W        W77388  39.764  41.406  14.017
 6789W        W77389  15.226   0.678  13.403
 6790W        W77390  25.928  43.297  13.627
 6791W        W77391  10.358   9.379  11.994
 6792W        W77392  39.962  15.163   4.350
 6793W        W77393  13.924  21.367   3.259
 6794W        W77394  16.193   0.512   1.254
 6795W        W77395  15.248  31.694   0.423
 6796W        W77396  10.339   3.889   0.158
 6797W        W77397   4.629   5.598  10.744
 6798W        W77398  34.301  21.080   4.182
 6799W        W77399  13.991  14.815   0.427
 6800W        W77400   6.786   4.333  12.510
 6801W        W77401  34.908  16.270  12.021
 6802W        W77402   6.252  15.577  11.604
 6803W        W77403   5.992  15.877   3.379
 6804W        W77404  23.158  43.035  12.054
 6805W        W77405  38.871   6.211  11.074
 6806W        W77406  28.648  13.671   2.860
 6807W        W77407  30.865  29.656   4.136
 6808W        W77408   8.361   4.538   2.277
 6809W        W77409  27.540  34.050   3.378
 6810W        W77410  27.114  34.108  12.518
 6811W        W77411  34.430   5.184  11.709
 6812W        W77412  42.058  40.280  13.546
 6813W        W77413  28.083  25.261  10.651
 6814W        W77414  10.358  44.452  12.152
 6815W        W77415   2.809   8.160  11.683
 6816W        W77416   6.235  25.233  11.159
 6817W        W77417  13.762  37.816   4.134
 6818W        W77418  16.568  40.629   3.812
 6819W        W77419  13.859  26.698  14.015
 6820W        W77420  35.187  41.327  11.147
 6821W        W77421  14.340   8.778  12.673
 6822W        W77422   1.759  41.047  11.076
 6823W        W77423  40.578  13.762   0.731
 6824W        W77424  31.433   1.770  13.608
 6825W        W77425   9.779  16.287  11.228
 6826W        W77426  16.261  42.418   5.225
 6827W        W77427  16.324   0.354   2.178
 6828W        W77428  36.558  25.471  12.554
 6829W        W77429   4.827  24.990   4.675
 6830W        W77430   8.867  35.475  11.653
 6831W        W77431  30.361  13.026  14.962
 6832W        W77432   4.255  11.950  12.847
 6833W        W77433  15.190  43.596  12.098
 6834W        W77434  43.753  11.317  11.060
 6835W        W77435  13.658  22.094   2.618
 6836W        W77436  20.997  14.045   3.945
 6837W        W77437  30.939  16.494   4.117
 6838W        W77438  34.957   6.708   2.291
 6839W        W77439  42.632  39.796   3.905
 6840W        W77440   2.784  33.053   4.085
 6841W        W77441  26.570   6.940   2.268
 6842W        W77442  42.607  14.027   3.114
 6843W        W77443  15.640   2.602   0.244
 6844W        W77444  13.247  31.433   4.867
 6845W        W77445  35.925  28.651  11.250
 6846W        W77446  38.475  28.833  14.574
 6847W        W77447   8.880  18.828  13.925
 6848W        W77448  23.991  13.227   1.817
 6849W        W77449  44.474   9.244   3.322
 6850W        W77450  25.919  26.174  13.427
 6851W        W77451   3.265  26.350  11.120
 6852W        W77452   2.387   1.379   3.584
 6853W        W77453   3.289  23.662  12.798
 6854W        W77454  30.260  22.669  14.032
 6855W        W77455  28.466  27.412  12.922
 6856W        W77456  26.540  31.631   0.493
 6857W        W77457  30.675  18.049  11.070
 6858W        W77458  44.772   0.399  14.804
 6859W        W77459  22.315  34.992   0.807
 6860W        W77460  15.798  30.578  10.549
 6861W        W77461  17.028  42.773  12.423
 6862W        W77462  12.978  35.497  11.112
 6863W        W77463  20.200  17.090   2.737
 6864W        W77464   8.330   4.156  11.648
 6865W        W77465   8.555  44.330  13.818
 6866W        W77466  44.407  43.791  12.960
 6867W        W77467   2.232  31.491   0.648
 6868W        W77468  30.922  38.253  10.172
 6869W        W77469  25.679  44.443   3.736
 6870W        W77470  24.597  43.828  10.585
 6871W        W77471  25.608  27.649  14.965
 6872W        W77472  17.718   4.858  11.186
 6873W        W77473  37.104  34.541   2.876
 6874W        W77474   7.704  39.061  13.253
 6875W        W77475   3.660  43.381   0.399
 6876W        W77476  25.969  17.706  14.007
 6877W        W77477   3.276  44.450   4.174
 6878W        W77478   5.629  31.163   3.724
 6879W        W77479  36.670  24.112   1.705
 6880W        W77480  24.473  24.728  14.577
 6881W        W77481  23.487  33.507  12.788
 6882W        W77482   3.501  16.691   3.904
 6883W        W77483   7.759  27.570   3.246
 6884W        W77484  13.242   6.372   4.705
 6885W        W77485  32.486  11.163   0.442
 6886W        W77486  11.158   2.808   1.836
 6887W        W77487  25.250  29.598   1.166
 6888W        W77488   6.424  17.150   4.166
 6889W        W77489  40.502   4.136   3.701
 6890W        W77490  44.508  10.580   1.282
 6891W        W77491   0.254  17.159   1.343
 6892W        W77492  35.569  10.214  13.297
 6893W        W77493  33.530   5.171   1.840
 6894W        W77494  39.166  30.109   0.233
 6895W        W77495  36.555   8.645   0.857
 6896W        W77496  35.413   3.702  14.980
 6897W        W77497  30.499   2.682  14.829
 6898W        W77498  22.399   5.381  13.033
 6899W        W77499  33.658   6.868   2.361
 6900W        W77500  20.446  31.713  13.391
 6901W        W77501  14.802  13.283  12.519
 6902W        W77502   1.247  32.095  11.642
 6903W        W77503   4.960   2.339   3.888
 6904W        W77504   3.926  19.183  12.893
 6905W        W77505   1.822  13.778  13.326
 6906W        W77506   8.000  39.594   0.531
 6907W        W77507  21.083  24.519   4.946
 6908W        W77508   2.982  19.135   3.414
 6909W        W77509  18.089  20.601   3.865
 6910W        W77510  18.290  40.506   1.190
 6911W        W77511  26.133  44.383  12.765
 6912W        W77512  15.470  26.593  12.876
 6913W        W77513  13.337   5.370   1.789
 6914W        W77514  16.807  19.643   4.838
 6915W        W77515  35.101  39.960   4.210
 6916W        W77516  36.113  11.064   2.818
 6917W        W77517  44.611  22.734  12.530
 6918W        W77518  36.453  32.630   0.498
 6919W        W77519   6.573  37.719   4.141
 6920W        W77520   9.263  21.964   0.254
 6921W        W77521  31.184  33.452   3.805
 6922W        W77522  33.631  19.022   4.219
 6923W        W77523  24.734  21.271  12.064
 6924W        W77524  44.001  26.228   4.553
 6925W        W77525  19.588   8.647  13.306
 6926W        W77526  37.600  15.061   1.924
 6927W        W77527  31.663  31.669  10.573
 6928W        W77528  36.778   1.988  11.927
 6929W        W77529  42.393  31.918   1.418
 6930W        W77530  16.556  26.503   0.220
 6931W        W77531  35.687  32.379   0.850
 6932W        W77532  23.406  13.663  14.851
 6933W        W77533  18.389  26.603  13.802
 6934W        W77534  37.310  21.510  12.112
 6935W        W77535  23.779  42.442   3.300
 6936W        W77536   9.792  12.492  13.181
 6937W        W77537  41.834  23.093   2.230
 6938W        W77538  13.159  29.562   4.745
 6939W        W77539  38.596  30.199  13.559
 6940W        W77540   3.247  15.608   0.923
 6941W        W77541   1.302  36.210  14.901
 6942W        W77542  14.096  24.914  12.552
 6943W        W77543  23.941  35.939   2.684
 6944W        W77544  19.726  29.576   0.539
 6945W        W77545   5.053   0.870  13.653
 6946W        W77546  34.423  26.182  12.924
 6947W        W77547  37.764  15.798   2.206
 6948W        W77548  40.832  29.166   1.882
 6949W        W77549  16.433  22.017   1.750
 6950W        W77550  10.796  37.389   0.489
 6951W        W77551  36.351  35.427  11.155
 6952W        W77552   6.866  23.988   2.782
 6953W        W77553  34.352  10.692  13.052
 6954W        W77554  40.445  24.820   5.189
 6955W        W77555  31.475  15.673  12.040
 6956W        W77556   1.915  43.417  10.572
 6957W        W77557  41.358  28.988  12.620
 6958W        W77558   1.277  17.322  13.933
 6959W        W77559  37.339  33.236  13.493
 6960W        W77560   3.845   7.439   2.911
 6961W        W77561  31.632   8.366   3.090
 6962W        W77562   3.322  32.105   3.820
 6963W        W77563   7.366  38.135  13.006
 6964W        W77564  17.807  43.266  14.064
 6965W        W77565  44.458  36.420  13.092
 6966W        W77566   8.901  10.188   3.173
 6967W        W77567  36.599  23.297  11.429
 6968W        W77568  32.407  12.566   3.689
 6969W        W77569  37.188  35.774  11.529
 6970W        W77570  30.975  34.620  14.180
 6971W        W77571  10.503  35.761   2.819
 6972W        W77572  19.989   9.304  11.595
 6973W        W77573  33.561  10.615   2.063
 6974W        W77574   3.034   2.341   3.657
 6975W        W77575  30.650  20.406   1.389
 6976W        W77576  10.057  26.985   2.784
 6977W        W77577  24.464  11.613  12.829
 6978W        W77578  22.131  28.491   2.469
 6979W        W77579  15.518  30.944   2.812
 6980W        W77580  36.834  43.092   3.697
 6981W        W77581   7.780  36.348   1.852
 6982W        W77582   1.962  17.854  14.903
 6983W        W77583  14.992  16.007  13.948
 6984W        W77584  15.489   7.610  11.193
 6985W        W77585   6.895  13.625  12.651
 6986W        W77586  26.606   8.295  11.144
 6987W        W77587   3.606  14.721   4.224
 6988W        W77588   4.361  11.669   4.542
 6989W        W77589  39.000  30.588   0.009
 6990W        W77590  20.630  23.143  10.945
 6991W        W77591  20.012   6.681  12.069
 6992W        W77592  33.434   9.859   0.297
 6993W        W77593  36.301  26.909   4.859
 6994W        W77594  22.654  34.753  11.281
 6995W        W77595  40.468  17.088  13.489
 6996W        W77596   8.368   7.291  11.912
 6997W        W77597  18.328  14.482   4.696
 6998W        W77598  36.346  20.616   4.731
 6999W        W77599  14.819   6.371  11.085
 7000W        W77600   8.732   2.763   0.950
 7001W        W77601  37.464   5.979   3.336
 7002W        W77602  17.204   4.689   2.764
 7003W        W77603  25.625   7.665   4.678
 7004W        W77604  16.271   0.303  12.872
 7005W        W77605  15.617  44.971   4.183
 7006W        W77606  13.282  38.492  14.368
 7007W        W77607   6.952   3.378  13.963
 7008W        W77608  10.410  31.002   3.620
 7009W        W77609  25.711   6.837  14.878
 7010W        W77610   5.445  24.035  11.694
 7011W        W77611   1.725  15.077  13.915
 7012W        W77612  32.038  29.487  13.595
 7013W        W77613  39.474  18.271  14.459
 7014W        W77614  21.182  18.974  10.489
 7015W        W77615  17.642   8.819   3.603
 7016W        W77616  40.057  13.762   3.278
 7017W        W77617   8.371  29.014   1.360
 7018W        W77618  28.244  29.269   0.191
 7019W        W77619  31.606  19.580   2.692
 7020W        W77620  33.486  36.462   4.380
 7021W        W77621   9.406  23.683  12.064
 7022W        W77622   8.739  33.192  11.910
 7023W        W77623  39.731  28.229  14.445
 7024W        W77624   1.718   6.734   1.881
 7025W        W77625  17.315   6.437  14.020
 7026W        W77626   0.405  38.430  11.027
 7027W        W77627  11.815  12.225   0.867
 7028W        W77628   6.425  29.169   5.131
 7029W        W77629   0.927   1.230  11.159
 7030W        W77630  30.562  27.763   4.041
 7031W        W77631  10.686  44.042  12.345
 7032W        W77632   3.622  35.065  13.851
 7033W        W77633  39.987  31.620   4.075
 7034W        W77634  30.199   9.200  14.018
 7035W        W77635  40.257  31.544  11.993
 7036W        W77636  26.711  34.169  12.168
 7037W        W77637  28.066  29.553  13.453
 7038W        W77638  25.609   2.854   0.237
 7039W        W77639  36.364   0.854  11.924
 7040W        W77640  14.279  37.887   4.488
 7041W        W77641  40.321  37.802   3.269
 7042W        W77642  17.196  18.327   0.830
 7043W        W77643  32.558  26.749  12.881
 7044W        W77644  15.049  39.877  12.022
 7045W        W77645  41.433  16.103  13.340
 7046W        W77646  36.558  42.436  14.818
 7047W        W77647  21.085  37.568  13.399
 7048W        W77648   6.587   8.642   1.662
 7049W        W77649  34.268  12.427   0.097
 7050W        W77650   2.355  40.995   4.337
 7051W        W77651   6.698   8.370   2.669
 7052W        W77652  42.315   1.765   1.397
 7053W        W77653  39.372  32.224   0.881
 7054W        W77654  27.715  21.239  11.419
 7055W        W77655  17.104  20.573  12.995
 7056W        W77656  43.857  24.437   0.458
 7057W        W77657  29.287  27.023   4.001
 7058W        W77658  32.523  34.122   4.169
 7059W        W77659  26.192  36.857  13.498
 7060W        W77660  38.467  18.610  13.438
 7061W        W77661  16.819   8.476  14.941
 7062W        W77662  11.728  42.961   3.025
 7063W        W77663   4.496  30.674   1.435
 7064W        W77664  19.371  11.453   3.365
 7065W        W77665   1.723   2.446   4.167
 7066W        W77666   7.306  24.944   2.789
 7067W        W77667  33.474  36.255  14.354
 7068W        W77668  20.122  25.147   0.906
 7069W        W77669  20.468  16.081   3.240
 7070W        W77670  43.903  29.125  13.852
 7071W        W77671  25.800  31.966   1.893
 7072W        W77672   5.014   5.172  13.911
 7073W        W77673   2.162  13.123  14.829
 7074W        W77674  34.286   7.751  14.225
 7075W        W77675  31.987  30.022   1.648
 7076W        W77676  37.068  41.734  12.120
 7077W        W77677  31.363  11.673   3.582
 7078W        W77678  27.245  43.817   1.842
 7079W        W77679   9.270  21.536  10.720
 7080W        W77680  22.794  11.698   4.916
 7081W        W77681   2.395  33.589  13.545
 7082W        W77682  27.086  42.566  12.515
 7083W        W77683   1.328   9.894  13.187
 7084W        W77684  40.640  19.136   4.098
 7085W        W77685  18.600  21.808   0.714
 7086W        W77686  26.415   3.392   3.640
 7087W        W77687  23.235   8.953  14.701
 7088W        W77688  18.186  23.292   0.397
 7089W        W77689  40.087   8.907  13.954
 7090W        W77690  31.978  15.851   3.625
 7091W        W77691  13.617  15.759   2.201
 7092W        W77692   0.035  25.420   0.268
 7093W        W77693  35.930  32.050  11.216
 7094W        W77694  40.438  33.593  10.249
 7095W        W77695   3.995  18.199   3.602
 7096W        W77696  25.382  32.567   3.005
 7097W        W77697  32.099  43.435  14.152
 7098W        W77698  16.506  10.843  12.818
 7099W        W77699  30.264  36.566   2.777
 7100W        W77700  42.126  18.093   3.249
 7101W        W77701   3.217  18.760  14.387
 7102W        W77702  13.188  12.188  14.870
 7103W        W77703  39.102  30.531  12.912
 7104W        W77704  26.531  39.530   0.948
 7105W        W77705  42.574  16.114   0.858
 7106W        W77706  19.603  28.755   1.428
 7107W        W77707  17.560  25.142  14.981
 7108W        W77708   5.893  43.733   4.619
 7109W        W77709  16.260  15.569   0.851
 7110W        W77710  36.964  42.978  14.992
 7111W        W77711   8.347  41.480  13.004
 7112W        W77712  21.285   5.642  10.191
 7113W        W77713  31.823  24.972  11.427
 7114W        W77714  43.484  13.031   4.394
 7115W        W77715  11.112   1.222  13.495
 7116W        W77716  22.082  37.653   1.208
 7117W        W77717  25.420  20.020  10.702
 7118W        W77718  24.436  20.287   3.649
 7119W        W77719  41.788  39.814  12.871
 7120W        W77720   3.620  39.885  13.758
 7121W        W77721  24.537  37.917   2.909
 7122W        W77722  21.822  38.327  12.590
 7123W        W77723   5.278   1.456  14.873
 7124W        W77724  19.317   9.681  10.654
 7125W        W77725  20.120  35.669  14.905
 7126W        W77726  26.391  24.179   4.055
 7127W        W77727   7.315   9.925  12.491
 7128W        W77728  35.875  18.959  11.637
 7129W        W77729  20.761  21.948   3.778
 7130W        W77730   0.346  21.133  10.130
 7131W        W77731  35.904  17.287   2.162
 7132W        W77732   1.086  40.412   0.487
 7133W        W77733   6.315  18.846   3.295
 7134W        W77734  43.908  12.225   2.539
 7135W        W77735   3.743  28.434   1.662
 7136W        W77736   5.023  23.445   0.614
 7137W        W77737  14.406  33.629   0.954
 7138W        W77738   6.819   0.199  14.323
 7139W        W77739  11.145  19.209   3.700
 7140W        W77740  20.163  30.161   3.895
 7141W        W77741  25.061  36.427   1.415
 7142W        W77742  14.389  28.460  10.678
 7143W        W77743  11.193  14.600  12.024
 7144W        W77744   3.012  11.875   1.765
 7145W        W77745  14.033  37.909  11.205
 7146W        W77746  23.049  19.025   3.594
 7147W        W77747  36.085  22.471  12.544
 7148W        W77748   5.529   0.613   2.633
 7149W        W77749  22.625  14.740  11.738
 7150W        W77750  29.586  18.331  11.200
 7151W        W77751   5.239  26.107   4.657
 7152W        W77752  36.872  10.546  10.225
 7153W        W77753  33.924   5.948   0.261
 7154W        W77754  32.652  14.164   0.377
 7155W        W77755  37.049   4.361  10.698
 7156W        W77756  15.471  11.353   2.436
 7157W        W77757  41.455  30.963   3.127
 7158W        W77758  34.216  19.226  10.435
 7159W        W77759   5.868  34.007  11.475
 7160W        W77760   2.800  40.998   4.619
 7161W        W77761  30.962  23.522  13.391
 7162W        W77762  26.017  15.116  14.882
 7163W        W77763  28.602  44.790  11.366
 7164W        W77764  26.500  31.384   2.282
 7165W        W77765  20.199   6.268  10.631
 7166W        W77766  10.722  42.049  10.057
 7167W        W77767  12.604   9.803  11.630
 7168W        W77768   6.907   7.279   4.724
 7169W        W77769  31.155  21.618   4.282
 7170W        W77770  39.828  39.706  10.683
 7171W        W77771  11.335  15.811  13.574
 7172W        W77772  33.295   6.473   2.413
 7173W        W77773  12.583   2.984  10.856
 7174W        W77774   7.800  29.642  10.706
 7175W        W77775   9.966  22.077  14.751
 7176W        W77776  14.660  35.623   4.670
 7177W        W77777  19.613   6.607   1.152
 7178W        W77778  39.983  28.592   1.253
 7179W        W77779  19.786  41.793   2.385
 7180W        W77780  14.797  39.440  12.093
 7181W        W77781  25.415   6.680   2.312
 7182W        W77782  16.476  11.694   0.166
 7183W        W77783  44.929  36.452   0.425
 7184W        W77784   7.911  24.804   2.200
 7185W        W77785  41.004  27.621  14.384
 7186W        W77786   1.339   6.388  14.321
 7187W        W77787  31.841  21.795   1.748
 7188W        W77788  22.571  22.282  14.659
 7189W        W77789  26.196  25.715   1.312
 7190W        W77790   2.696  15.374  13.998
 7191W        W77791  22.158  13.962   3.886
 7192W        W77792  38.250  25.565  13.445
 7193W        W77793  39.882  39.823   3.165
 7194W        W77794  30.393  38.757   9.786
 7195W        W77795  27.604   3.853   3.139
 7196W        W77796  42.967  35.468  14.916
 7197W        W77797  14.951  22.562  11.612
 7198W        W77798  37.917   5.718   3.303
 7199W        W77799  12.145  38.172  14.864
 7200W        W77800  42.381  17.668   2.071
 7201W        W77801  31.129  43.592   0.805
 7202W        W77802   9.338  10.286   2.834
 7203W        W77803   4.697  37.755  12.481
 7204W        W77804  18.067  18.006   3.771
 7205W        W77805  23.541   2.513  13.523
 7206W        W77806  24.977  33.111  14.535
 7207W        W77807  16.481  44.015   2.797
 7208W        W77808  16.542  16.255  13.896
 7209W        W77809   2.068  11.740   3.331
 7210W        W77810  12.651   6.750   4.317
 7211W        W77811   9.816  21.699  10.776
 7212W        W77812  43.050  10.914   1.850
 7213W        W77813  38.358   5.381   0.867
 7214W        W77814  13.667  42.422   0.375
 7215W        W77815  26.990  34.037   4.129
 7216W        W77816  25.455  31.020   2.700
 7217W        W77817  12.366  37.509  12.980
 7218W        W77818  14.186  38.708   3.315
 7219W        W77819  21.359  37.363  14.693
 7220W        W77820   2.497   8.150  14.255
 7221W        W77821  42.630  21.401  12.011
 7222W        W77822  28.589  31.638  12.089
 7223W        W77823  37.241  30.361   0.323
 7224W        W77824  30.552  28.422   0.899
 7225W        W77825  22.602  22.450  11.485
 7226W        W77826  44.813   2.827   2.352
 7227W        W77827  35.366  35.719   4.515
 7228W        W77828  44.506  14.265   4.554
 7229W        W77829  10.108   4.315   1.803
 7230W        W77830  25.174   3.774  13.848
 7231W        W77831  21.210   1.323   3.203
 7232W        W77832  11.827  43.319   1.041
 7233W        W77833   9.241   9.932  11.488
 7234W        W77834  36.541  40.516   2.884
 7235W        W77835  12.140   0.690  12.137
 7236W        W77836   9.703  34.965  12.470
 7237W        W77837  37.557  10.362   5.067
 7238W        W77838   7.452   6.729  13.139
 7239W        W77839  22.694  34.156  10.432
 7240W        W77840  11.118  21.018   4.188
 7241W        W77841  30.661  35.409  14.412
 7242W        W77842   9.758  10.374   0.794
 7243W        W77843   9.662  40.827  12.424
 7244W        W77844  43.195  12.223   2.012
 7245W        W77845  15.701  43.847  14.294
 7246W        W77846  36.917  21.264  14.489
 7247W        W77847   0.353  16.292  14.257
 7248W        W77848  43.018   6.687  10.755
 7249W        W77849   3.669  10.352  12.661
 7250W        W77850  44.367  13.275   1.243
 7251W        W77851  25.135  20.359   1.821
 7252W        W77852  42.428  35.883   2.192
 7253W        W77853  32.664  42.813   4.028
 7254W        W77854  10.351  23.948   3.805
 7255W        W77855  15.131  38.007   2.647
 7256W        W77856  12.538  30.862  14.840
 7257W        W77857  38.077  10.208   1.930
 7258W        W77858  34.387   4.890   4.574
 7259W        W77859  32.383  35.345  11.994
 7260W        W77860   0.813   3.868   0.960
 7261W        W77861   9.557   2.203  14.972
 7262W        W77862  17.667  37.063  11.508
 7263W        W77863  32.464  37.540   0.352
 7264W        W77864  42.383   6.052   0.495
 7265W        W77865   5.819   7.852  10.607
 7266W        W77866  12.292  11.645   0.253
 7267W        W77867  40.358   5.147  14.603
 7268W        W77868  34.901  11.589   2.644
 7269W        W77869  18.498  35.955  14.959
 7270W        W77870  26.659  37.997   2.945
 7271W        W77871  19.588  33.969   2.999
 7272W        W77872  26.274  32.162  11.091
 7273W        W77873  36.108  31.135  11.814
 7274W        W77874  35.102  24.884   5.103
 7275W        W77875  44.895  22.152   1.368
 7276W        W77876  25.725  41.983   0.004
 7277W        W77877  12.215  23.029  13.174
 7278W        W77878  17.378  25.806   3.610
 7279W        W77879  27.585  10.719   1.437
 7280W        W77880  21.253  13.776  11.470
 7281W        W77881  38.583  20.254   1.347
 7282W        W77882  34.802  14.669  12.523
 7283W        W77883   0.494  16.190  11.526
 7284W        W77884  38.494  28.640  11.819
 7285W        W77885  30.436   4.293   3.744
 7286W        W77886  20.920   8.404  14.450
 7287W        W77887  39.422  12.350  13.542
 7288W        W77888  35.970   0.894   4.153
 7289W        W77889  26.575   9.404  10.661
 7290W        W77890  17.618  29.890  11.474
 7291W        W77891  23.344  20.470  12.135
 7292W        W77892  13.139  38.818  13.400
 7293W        W77893  38.996  32.346  14.321
 7294W        W77894  26.154   1.224   3.357
 7295W        W77895  23.785  27.552   4.237
 7296W        W77896  18.072  28.442   3.567
 7297W        W77897  12.200   2.285  14.915
 7298W        W77898  12.277  17.751  13.029
 7299W        W77899  14.848  14.594  13.903
 7300W        W77900   7.855  17.827  14.891
 7301W        W77901  35.317  39.030  12.340
 7302W        W77902  17.314  11.270   4.172
 7303W        W77903  16.352  42.281   0.229
 7304W        W77904  42.059  40.793   0.265
 7305W        W77905  27.724  32.918  10.927
 7306W        W77906  21.612  42.037  13.859
 7307W        W77907  20.822  29.627  11.138
 7308W        W77908  41.733  10.724  10.689
 7309W        W77909  20.267  19.863  13.063
 7310W        W77910  23.599  41.514   3.119
 7311W        W77911  16.676  27.593  10.748
 7312W        W77912  16.264  20.328  11.425
 7313W        W77913  13.757  24.290  10.972
 7314W        W77914  10.379   9.411   2.853
 7315W        W77915  44.747  30.089  12.524
 7316W        W77916  21.688  26.606  10.262
 7317W        W77917  22.704   7.095   1.218
 7318W        W77918  19.068  15.539   4.308
 7319W        W77919  43.959  41.503  10.602
 7320W        W77920   1.744  34.068  13.955
 7321W        W77921  18.810  31.383   1.856
 7322W        W77922  33.179  22.950  12.031
 7323W        W77923   1.299  21.360  13.383
 7324W        W77924  26.952  33.683  12.788
 7325W        W77925   8.684  33.227   2.797
 7326W        W77926  43.006  40.754   4.220
 7327W        W77927  27.378  19.001  14.753
 7328W        W77928  33.683  16.190  13.462
 7329W        W77929  12.631   2.887  11.880
 7330W        W77930  12.400  34.651  11.663
 7331W        W77931  20.442  44.817   3.281
 7332W        W77932  38.983  36.488   1.976
 7333W        W77933  43.182  23.630  14.491
 7334W        W77934   4.286  16.784  10.903
 7335W        W77935  37.869  39.513  11.166
 7336W        W77936  23.800   3.446  13.057
 7337W        W77937  12.820  28.223   3.987
 7338W        W77938  30.198   9.498  14.471
 7339W        W77939  26.937  22.653  10.645
 7340W        W77940  29.378  17.088   4.684
 7341W        W77941  34.607   7.838  13.834
 7342W        W77942  25.701  19.068   0.914
 7343W        W77943  44.938  15.263   4.951
 7344W        W77944  13.861  30.470   2.373
 7345W        W77945  20.056  28.590  11.502
 7346W        W77946  44.407  38.037   2.871
 7347W        W77947  16.664  17.358   4.159
 7348W        W77948  30.200   4.862   2.067
 7349W        W77949  40.338  39.315  14.999
 7350W        W77950   2.882   5.264   4.514
 7351W        W77951  36.368  35.067  12.502
 7352W        W77952  32.823  36.974   4.524
 7353W        W77953  38.107  21.380   3.141
 7354W        W77954  31.343  40.449   1.996
 7355W        W77955  12.559   2.736   2.380
 7356W        W77956   3.064  43.194  11.561
 7357W        W77957   5.393  42.269   4.148
 7358W        W77958  34.540  31.241  13.916
 7359W        W77959  22.702  33.085   0.375
 7360W        W77960   0.693  21.103  11.433
 7361W        W77961  13.089   3.302   1.198
 7362W        W77962  15.026  36.525  10.830
 7363W        W77963   2.835  30.535   2.867
 7364W        W77964  40.706  17.589   0.539
 7365W        W77965  18.546  29.723   2.994
 7366W        W77966   3.932  14.069  14.376
 7367W        W77967   1.735  44.930   1.158
 7368W        W77968  42.311  12.790  13.926
 7369W        W77969  27.451  14.817  11.047
 7370W        W77970   7.300  41.833   3.798
 7371W        W77971  31.039  31.139  14.345
 7372W        W77972  42.529  26.528   4.132
 7373W        W77973   6.330  15.999   2.159
 7374W        W77974  13.250  34.328  10.107
 7375W        W77975   2.322  42.549  14.800
 7376W        W77976  17.101  24.389   1.926
 7377W        W77977  27.776   4.729   3.556
 7378W        W77978  42.118   4.459  12.086
 7379W        W77979  19.606  18.110   0.713
 7380W        W77980   8.848  44.011   0.269
 7381W        W77981  35.781  44.220   3.293
 7382W        W77982   9.375  35.849  13.813
 7383W        W77983  32.076  35.371   2.244
 7384W        W77984  11.859   8.252  13.359
 7385W        W77985  17.753  24.717   3.233
 7386W        W77986  42.688   1.752  11.149
 7387W        W77987   1.812  27.963   4.634
 7388W        W77988  12.621  35.104  13.087
 7389W        W77989   7.748   3.764  13.541
 7390W        W77990  20.501  31.516  11.133
 7391W        W77991   0.307  11.589  12.613
 7392W        W77992  30.477  41.392   4.078
 7393W        W77993  19.010  42.021   2.640
 7394W        W77994   9.184  38.202   4.232
 7395W        W77995  21.576   4.798  14.943
 7396W        W77996  36.090  12.813  12.617
 7397W        W77997   4.730   0.488  13.547
 7398W        W77998  13.451  29.746  11.497
 7399W        W77999  38.637  13.160  11.149
 7400W        W78000   1.916  23.907   2.263
 7401W        W78001  17.028   2.754   4.674
 7402W        W78002  30.526  37.410  12.623
 7403W        W78003   6.197  28.725   1.317
 7404W        W78004  27.588  31.398   1.411
 7405W        W78005  14.098  15.928   4.140
 7406W        W78006   9.827  41.776  12.861
 7407W        W78007  28.215  31.962  13.354
 7408W        W78008  28.202  20.772   3.241
 7409W        W78009  24.839  18.210  12.088
 7410W        W78010  20.745  23.364   3.610
 7411W        W78011  32.174  32.910  13.291
 7412W        W78012  24.662  33.627   3.360
 7413W        W78013  27.894  43.445  12.367
 7414W        W78014   3.009   2.093  11.139
 7415W        W78015  38.750  25.044   1.518
 7416W        W78016   1.075   8.331   0.548
 7417W        W78017  18.672   3.774  13.011
 7418W        W78018  19.492  40.779  10.733
 7419W        W78019  26.782  19.552   1.387
 7420W        W78020   4.751   5.967  12.036
 7421W        W78021  40.271  16.416   1.341
 7422W        W78022   8.090  27.912   0.726
 7423W        W78023  33.464  42.317  10.928
 7424W        W78024  22.971   2.554  14.801
 7425W        W78025  44.853   3.879   2.607
 7426W        W78026  29.442  12.807   1.439
 7427W        W78027   4.420  40.458  11.022
 7428W        W78028  41.048  23.054   4.022
 7429W        W78029  14.334   7.642  12.489
 7430W        W78030  26.079   1.349  11.482
 7431W        W78031   7.397  36.694  12.903
 7432W        W78032  29.180   0.923   3.662
 7433W        W78033  33.102  16.698  11.902
 7434W        W78034   4.959  30.154   4.330
 7435W        W78035  42.487  16.869  12.112
 7436W        W78036  13.666  43.412   3.363
 7437W        W78037  14.598   1.797  12.960
 7438W        W78038  24.138   5.961   3.789
 7439W        W78039   8.476  40.444  13.819
 7440W        W78040  39.065  43.450  10.416
 7441W        W78041  40.999  11.161  11.108
 7442W        W78042   0.174  15.622   0.941
 7443W        W78043  18.123  35.401  14.340
 7444W        W78044   5.305  40.526   4.383
 7445W        W78045   2.492  43.488   4.721
 7446W        W78046  14.689  17.591  14.345
 7447W        W78047   1.340  38.054   0.878
 7448W        W78048  17.583  25.236   3.236
 7449W        W78049  16.733  29.599   0.165
 7450W        W78050  25.689  13.233  11.016
 7451W        W78051  30.957  14.879   2.715
 7452W        W78052  13.100   9.733  12.913
 7453W        W78053   9.397  35.686   3.826
 7454W        W78054  19.684  13.689  12.476
 7455W        W78055  26.621  36.608   0.186
 7456W        W78056  24.513  11.305   1.874
 7457W        W78057  41.805  42.936   0.832
 7458W        W78058  37.050  32.372   3.806
 7459W        W78059   3.809   9.889   1.310
 7460W        W78060  30.810  32.784  10.682
 7461W        W78061  11.826  13.407  10.758
 7462W        W78062  39.450  12.217  14.497
 7463W        W78063  12.181   8.637  13.456
 7464W        W78064  28.797  39.361   1.946
 7465W        W78065  23.157  41.324   0.225
 7466W        W78066   0.540  33.818   1.847
 7467W        W78067  15.229  22.509   4.665
 7468W        W78068   4.449  39.314  13.416
 7469W        W78069  31.878  25.645  12.459
 7470W        W78070  12.639  18.588  12.969
 7471W        W78071  16.241  22.141   3.447
 7472W        W78072  35.553  28.060   4.579
 7473W        W78073   6.852  12.896  11.123
 7474W        W78074   9.686  12.586   1.370
 7475W        W78075  23.218  37.806   0.205
 7476W        W78076   5.895  42.994   4.151
 7477W        W78077   6.976  24.634   2.099
 7478W        W78078   3.937   2.482   3.023
 7479W        W78079  21.110  28.605   1.038
 7480W        W78080  15.828  15.940   5.409
 7481W        W78081  42.401  38.041   3.115
 7482W        W78082  39.805  11.853  12.454
 7483W        W78083   8.164  11.340   3.279
 7484W        W78084  32.014  20.975   2.147
 7485W        W78085  12.936   9.811  11.112
 7486W        W78086  18.647  12.793  14.435
 7487W        W78087   4.150  37.514  14.500
 7488W        W78088  13.397  19.160  11.936
 7489W        W78089  12.770  32.468   1.862
 7490W        W78090   3.967  28.459  12.131
 7491W        W78091  24.267  11.622  13.941
 7492W        W78092   3.174  14.533  11.098
 7493W        W78093   5.683  39.860   3.632
 7494W        W78094  12.822  26.525   4.335
 7495W        W78095  16.617  11.851  11.541
 7496W        W78096  24.188  27.262  12.615
 7497W        W78097  25.052  34.690  14.987
 7498W        W78098  16.819   6.680  10.714
 7499W        W78099  22.675  43.741   1.445
 7500W        W78100  34.959  44.393  13.971
 7501W        W78101  34.885  35.552  13.566
 7502W        W78102  38.405   1.764  12.997
 7503W        W78103   6.577  37.922  14.951
 7504W        W78104  34.403  10.279  14.828
 7505W        W78105  17.040  22.532   4.182
 7506W        W78106   0.977  21.597   0.912
 7507W        W78107  12.636  10.251   1.819
 7508W        W78108  22.019  34.660  12.994
 7509W        W78109  13.355  28.958  11.958
 7510W        W78110   9.257  35.177   3.741
 7511W        W78111  24.822  42.605   3.422
 7512W        W78112  32.391  39.974  13.414
 7513W        W78113  33.813  43.039   2.358
 7514W        W78114  39.306  36.582   0.507
 7515W        W78115  13.789  19.051  14.116
 7516W        W78116  16.109   3.149  11.187
 7517W        W78117   6.187  17.709   3.277
 7518W        W78118   1.425  19.347   3.239
 7519W        W78119  19.785  25.192   2.837
 7520W        W78120   2.370  35.128  12.059
 7521W        W78121  20.131   8.392   3.239
 7522W        W78122   5.629  33.006  11.152
 7523W        W78123  30.727  22.021  14.894
 7524W        W78124   9.873  25.425  13.818
 7525W        W78125  26.559  43.406   1.118
 7526W        W78126  25.050  25.714  12.388
 7527W        W78127   1.076   4.306   2.295
 7528W        W78128  41.311  24.731   2.369
 7529W        W78129  35.082  34.846   2.788
 7530W        W78130  21.492  35.906  11.952
 7531W        W78131  44.856  41.496   2.287
 7532W        W78132  38.639   6.762  13.708
 7533W        W78133   8.271  24.600   3.624
 7534W        W78134  30.884   0.988  14.854
 7535W        W78135   2.681  26.241   2.316
 7536W        W78136   8.892  37.803  12.464
 7537W        W78137  21.025  12.626   4.624
 7538W        W78138  43.277  44.366  10.658
 7539W        W78139  30.602  13.306   0.359
 7540W        W78140  16.182   3.217   1.915
 7541W        W78141  29.401   6.714  14.375
 7542W        W78142   5.585  36.103  14.498
 7543W        W78143  34.463  29.202   0.816
 7544W        W78144  30.919  39.842   0.811
 7545W        W78145  44.599  13.769  13.389
 7546W        W78146  26.472  35.087  12.110
 7547W        W78147  35.902  42.820   3.486
 7548W        W78148  23.535  18.598   0.779
 7549W        W78149  29.975  20.504   0.267
 7550W        W78150  17.102  10.771   4.926
 7551W        W78151  44.549  15.283  11.657
 7552W        W78152  26.956  35.150  11.929
 7553W        W78153  41.693  42.901  10.676
 7554W        W78154  35.789   6.635  11.964
 7555W        W78155  17.680  11.376  14.725
 7556W        W78156  34.533   8.371  12.212
 7557W        W78157  16.244  18.804  11.635
 7558W        W78158  18.088  11.150   2.890
 7559W        W78159  15.085   3.367   0.719
 7560W        W78160   9.400  12.083   2.669
 7561W        W78161  11.850  24.773  12.437
 7562W        W78162  11.752   5.438   0.448
 7563W        W78163   0.189  19.484   3.483
 7564W        W78164  26.020   1.324   0.877
 7565W        W78165  33.125  29.237   2.621
 7566W        W78166  26.587   2.808   4.979
 7567W        W78167  39.494  27.383  11.587
 7568W        W78168  13.224  27.096   2.119
 7569W        W78169   1.665  44.584  11.947
 7570W        W78170  40.733   0.270   0.728
 7571W        W78171   2.766  37.979  13.473
 7572W        W78172   4.450  35.833  12.432
 7573W        W78173  28.421   0.775  13.345
 7574W        W78174  30.574  14.695  12.110
 7575W        W78175  37.527   9.253  12.123
 7576W        W78176  34.871  16.735  13.302
 7577W        W78177   5.145   2.294  12.545
 7578W        W78178  34.934  28.206  10.334
 7579W        W78179   8.384  18.477  11.050
 7580W        W78180  30.730  18.278  12.878
 7581W        W78181   1.656  11.097  11.102
 7582W        W78182   1.501   7.231   1.801
 7583W        W78183  32.178   1.365   3.214
 7584W        W78184  20.495  17.389   4.234
 7585W        W78185  24.180   4.621   2.691
 7586W        W78186  24.139  44.773   2.271
 7587W        W78187  39.986  43.345   0.913
 7588W        W78188  11.255  41.741   2.303
 7589W        W78189  15.135  28.978   0.298
 7590W        W78190   8.284  22.012  14.040
 7591W        W78191  33.175  29.242   0.304
 7592W        W78192   3.246  21.576   3.712
 7593W        W78193   4.363   0.514  14.299
 7594W        W78194   2.174  24.279   9.954
 7595W        W78195  29.649  12.698  14.461
 7596W        W78196  40.111  14.372  14.048
 7597W        W78197   9.631  36.088  11.351
 7598W        W78198  14.849  32.444  13.470
 7599W        W78199  38.099  43.284  13.919
 7600W        W78200   4.182  17.800   3.155
 7601W        W78201  32.730   1.868  10.025
 7602W        W78202  12.462  31.478   4.348
 7603W        W78203  44.288  11.626  13.593
 7604W        W78204  21.240  23.172   4.115
 7605W        W78205  32.727   0.265  12.374
 7606W        W78206  35.448   4.113   3.797
 7607W        W78207  11.248  26.168   4.599
 7608W        W78208  19.711  16.697  11.063
 7609W        W78209  20.180  23.019   4.829
 7610W        W78210  37.640   3.379  12.945
 7611W        W78211  14.833  41.278  14.950
 7612W        W78212  16.673  37.860   3.785
 7613W        W78213  37.927  17.608  10.915
 7614W        W78214   3.540  27.912  14.116
 7615W        W78215  38.455  31.536   1.353
 7616W        W78216  17.671  16.229   1.193
 7617W        W78217   5.889   4.879   3.664
 7618W        W78218  37.793  12.876  14.774
 7619W        W78219  14.867  22.736  13.423
 7620W        W78220   4.678  25.856   2.267
 7621W        W78221  19.029   0.204  12.915
 7622W        W78222  16.591  11.240   0.472
 7623W        W78223  15.144  13.789  14.100
 7624W        W78224   5.361  18.052  11.903
 7625W        W78225  21.969  31.371   3.184
 7626W        W78226   7.760   4.101   1.708
 7627W        W78227  28.650  34.914   0.884
 7628W        W78228   5.908  35.573   0.294
 7629W        W78229  16.051  41.371   0.907
 7630W        W78230   3.677  19.249   1.893
 7631W        W78231   3.150   3.990   4.100
 7632W        W78232  22.075  44.830  13.340
 7633W        W78233  17.326  26.147   1.770
 7634W        W78234  12.914  22.658   2.570
 7635W        W78235  23.909  25.799   1.787
 7636W        W78236  12.619   7.440  11.123
 7637W        W78237  43.763  29.483   2.307
 7638W        W78238  19.995  28.862   0.464
 7639W        W78239  43.347   4.370  11.456
 7640W        W78240  31.289  11.459  10.942
 7641W        W78241   2.589  43.365  11.655
 7642W        W78242   8.773  26.418   1.353
 7643W        W78243  39.498  17.245   1.058
 7644W        W78244  15.946  36.181   5.157
 7645W        W78245  34.853  16.028   3.816
 7646W        W78246  33.801  14.726   4.194
 7647W        W78247  29.692  10.528   1.851
 7648W        W78248  32.577   5.705  11.659
 7649W        W78249   8.705  16.810   2.860
 7650W        W78250   9.710  13.591   1.974
 7651W        W78251  18.755  39.971   1.260
 7652W        W78252  32.887   2.760   2.556
 7653W        W78253   2.022  20.010  12.996
 7654W        W78254  42.106  34.633  12.088
 7655W        W78255  16.278  29.897   2.433
 7656W        W78256   8.302  16.106  11.055
 7657W        W78257  41.545   3.724   0.284
 7658W        W78258  37.153  36.411   1.280
 7659W        W78259  24.584  33.479   4.755
 7660W        W78260  26.492  28.318  10.938
 7661W        W78261  11.372   5.977   3.286
 7662W        W78262   6.619  36.569  12.445
 7663W        W78263  23.816  25.099  12.125
 7664W        W78264   3.486   3.382   4.638
 7665W        W78265  26.290  13.280   0.081
 7666W        W78266  31.316  35.679  14.986
 7667W        W78267  12.178  44.757   3.681
 7668W        W78268  14.126  24.158  12.077
 7669W        W78269  12.193  14.635   0.379
 7670W        W78270  29.814  31.251   1.411
 7671W        W78271  10.617  16.084  14.752
 7672W        W78272  43.990  10.042  14.234
 7673W        W78273  40.971  13.705  12.042
 7674W        W78274  16.057   7.618  13.409
 7675W        W78275  13.752  42.512  11.251
 7676W        W78276  33.137  19.080   0.439
 7677W        W78277  28.710  33.084   3.165
 7678W        W78278  10.454  17.030  11.116
 7679W        W78279  10.801   1.827   2.642
 7680W        W78280   5.708   0.681   0.288
 7681W        W78281   6.228  15.053  11.568
 7682W        W78282  28.657  36.834  12.582
 7683W        W78283   9.925  26.435   0.736
 7684W        W78284  41.498   8.417   0.365
 7685W        W78285  21.832  43.112   1.636
 7686W        W78286  17.233  15.182   4.110
 7687W        W78287  25.493   2.902   2.774
 7688W        W78288  19.550  32.075   1.222
 7689W        W78289  36.036  33.057   3.114
 7690W        W78290   6.173  31.680  13.096
 7691W        W78291   9.923  42.670  11.557
 7692W        W78292   2.340   9.591  12.052
 7693W        W78293  18.280   6.725   1.731
 7694W        W78294  15.257  38.035  14.256
 7695W        W78295  21.987  27.006   2.418
 7696W        W78296  31.521  43.584   4.540
 7697W        W78297  30.181   9.277   2.650
 7698W        W78298   7.942  16.223  10.708
 7699W        W78299  22.091   4.963  11.937
 7700W        W78300   1.003  27.211  13.607
 7701W        W78301  29.493  37.855  13.245
 7702W        W78302  31.462  15.165  12.948
 7703W        W78303   5.412  15.693   2.849
 7704W        W78304  42.730  39.521   1.695
 7705W        W78305   3.938   7.952   1.295
 7706W        W78306  25.361   3.820   1.903
 7707W        W78307  31.354  23.192  12.129
 7708W        W78308  16.084   2.931  12.966
 7709W        W78309  16.675  35.869   2.153
 7710W        W78310  43.957  29.990  13.613
 7711W        W78311   7.378   6.150  10.912
 7712W        W78312   4.719  25.302  12.087
 7713W        W78313  11.121  18.315  14.164
 7714W        W78314   3.046  17.150  13.676
 7715W        W78315  19.461  18.598  14.612
 7716W        W78316   1.305  42.999   3.853
 7717W        W78317  13.137  17.570   2.693
 7718W        W78318  34.056   2.716   4.595
 7719W        W78319  10.618  16.534  11.029
 7720W        W78320  30.393   3.951   4.145
 7721W        W78321  37.680   0.020  11.510
 7722W        W78322  29.347  12.462   2.219
 7723W        W78323  40.867  30.601  13.548
 7724W        W78324   6.617  27.363  14.333
 7725W        W78325  37.094  13.885   3.191
 7726W        W78326  12.375  12.286  11.586
 7727W        W78327   6.423  34.092  10.742
 7728W        W78328  41.874  31.922  12.042
 7729W        W78329  34.579  30.414   0.250
 7730W        W78330   6.183  10.299  13.533
 7731W        W78331   0.578   6.831  14.446
 7732W        W78332  25.017  14.405   4.011
 7733W        W78333  40.279  24.463   0.857
 7734W        W78334  39.781  16.196   0.810
 7735W        W78335   9.870   1.455   0.282
 7736W        W78336  15.844  24.190  13.016
 7737W        W78337  13.871  30.709   1.902
 7738W        W78338  19.077  28.935  10.474
 7739W        W78339  42.715  41.415  14.907
 7740W        W78340  43.285  17.000  10.688
 7741W        W78341  28.659   5.312  11.399
 7742W        W78342   7.262   2.234  13.799
 7743W        W78343  21.852  44.964   1.963
 7744W        W78344  41.937  21.760   0.775
 7745W        W78345  42.826   2.233   2.645
 7746W        W78346  28.024  38.898   4.632
 7747W        W78347  30.451   3.243  11.213
 7748W        W78348   1.150   3.557   5.026
 7749W        W78349   5.040   7.640   4.071
 7750W        W78350  25.298  13.145   2.870
 7751W        W78351  29.013   5.431   1.493
 7752W        W78352   6.367  32.964  12.042
 7753W        W78353  42.961  14.327   0.296
 7754W        W78354  22.656  31.508  14.386
 7755W        W78355  23.024  25.848   1.671
 7756W        W78356  10.849  28.482  11.072
 7757W        W78357   1.623  35.263  11.140
 7758W        W78358   5.005  26.457  13.399
 7759W        W78359   9.452  24.144   3.823
 7760W        W78360   2.387  19.799  14.987
 7761W        W78361   0.074  42.418  11.538
 7762W        W78362   5.868  37.408  12.072
 7763W        W78363   0.205  31.926   4.323
 7764W        W78364  13.839   0.013  14.803
 7765W        W78365  12.024  22.549   1.737
 7766W        W78366  28.559  23.992   3.209
 7767W        W78367  24.748   5.491   0.848
 7768W        W78368   8.487  24.740   3.167
 7769W        W78369  17.232   9.172  11.119
 7770W        W78370  20.528   6.500   1.918
 7771W        W78371  16.263  33.118   3.181
 7772W        W78372  27.951  40.014   1.301
 7773W        W78373   9.810  30.595   2.768
 7774W        W78374  37.073  25.408  10.652
 7775W        W78375  31.423   9.339   2.169
 7776W        W78376  18.619  32.958   0.730
 7777W        W78377  21.148  37.162  12.084
 7778W        W78378   8.234  19.469   0.177
 7779W        W78379   5.756   9.791   2.329
 7780W        W78380   7.532  43.003   4.708
 7781W        W78381   0.498  40.533  11.654
 7782W        W78382  19.322   9.309  14.389
 7783W        W78383   1.428  21.001  11.035
 7784W        W78384  41.779   8.001   0.261
 7785W        W78385  27.876  16.965   1.106
 7786W        W78386  38.392   4.498  11.912
 7787W        W78387  31.089  18.637  12.961
 7788W        W78388  39.443  10.410   1.771
 7789W        W78389   8.170  30.468   3.674
 7790W        W78390  34.391  39.838  12.559
 7791W        W78391  36.591  12.642  14.186
 7792W        W78392   7.814  28.936  12.432
 7793W        W78393  27.887  25.043  13.137
 7794W        W78394  10.281  44.824  14.893
 7795W        W78395  37.054  18.571   0.716
 7796W        W78396   4.400  25.629   3.691
 7797W        W78397  34.606   7.804   0.274
 7798W        W78398   1.637  42.596  13.000
 7799W        W78399  30.570  32.099  14.840
 7800W        W78400  19.979   6.800   0.829
 7801W        W78401   0.942  28.347  12.812
 7802W        W78402   8.899  34.134  11.981
 7803W        W78403   0.280  26.376   2.452
 7804W        W78404   4.169  29.669  11.953
 7805W        W78405  42.512  13.936  10.904
 7806W        W78406  20.097  22.982  13.906
 7807W        W78407  35.896  28.123   1.664
 7808W        W78408  31.985  16.588  14.353
 7809W        W78409  21.602  17.373   4.866
 7810W        W78410  23.787   9.807  12.614
 7811W        W78411  21.663  30.003  14.831
 7812W        W78412  31.398   1.954  10.594
 7813W        W78413   8.207  25.161   3.329
 7814W        W78414  39.940  33.635   1.779
 7815W        W78415  20.720  37.643   3.323
 7816W        W78416  20.844  35.604  10.651
 7817W        W78417   7.990  18.563   4.580
 7818W        W78418  29.285  15.974   4.731
 7819W        W78419  27.263   8.380   0.851
 7820W        W78420   9.675  35.657  13.076
 7821W        W78421  24.740  12.741   1.892
 7822W        W78422  44.698   2.266  11.453
 7823W        W78423  34.948  27.012  11.183
 7824W        W78424   7.293   1.788  14.970
 7825W        W78425  16.215  32.610   4.608
 7826W        W78426  28.104  34.241   5.057
 7827W        W78427   5.604  35.865   3.789
 7828W        W78428  34.911  14.761  13.889
 7829W        W78429  34.844  20.066   0.644
 7830W        W78430  16.247  38.570  12.112
 7831W        W78431  43.334  39.939   0.437
 7832W        W78432  41.335  23.809   3.371
 7833W        W78433  44.782  19.310   3.764
 7834W        W78434  31.899  28.957   1.660
 7835W        W78435  44.324  39.985  11.171
 7836W        W78436  19.814  11.577   5.310
 7837W        W78437  13.868  17.238  14.025
 7838W        W78438  20.014  20.964  10.914
 7839W        W78439  25.212  21.608   3.781
 7840W        W78440   1.668  43.324   1.545
 7841W        W78441  37.608   1.822  10.097
 7842W        W78442  25.196   1.287   1.239
 7843W        W78443  17.270  34.387   0.797
 7844W        W78444  36.735  18.424   4.866
 7845W        W78445  13.636   1.383  13.349
 7846W        W78446  42.343  18.608   3.741
 7847W        W78447   1.367  42.804  13.402
 7848W        W78448  39.442   1.033  12.878
 7849W        W78449  32.358  22.781   1.292
 7850W        W78450   8.273  40.661   4.890
 7851W        W78451  12.671  23.382  11.611
 7852W        W78452  34.847  15.272  11.144
 7853W        W78453  32.155  25.452   2.347
 7854W        W78454  23.125  35.752  14.054
 7855W        W78455  43.710  16.637  13.311
 7856W        W78456  32.397  20.397   1.813
 7857W        W78457   9.389  19.967   0.574
 7858W        W78458   7.767   3.251  13.388
 7859W        W78459  11.375  28.571   1.421
 7860W        W78460  44.901  35.775  14.897
 7861W        W78461  35.818  31.571  13.374
 7862W        W78462   8.799  36.152  12.118
 7863W        W78463  44.242  34.379   3.088
 7864W        W78464  44.743  27.704  14.491
 7865W        W78465  32.507  14.622   3.078
 7866W        W78466  36.756  27.151   0.912
 7867W        W78467   5.242   0.002   0.279
 7868W        W78468  19.483  14.804  11.200
 7869W        W78469  30.457  29.655   0.033
 7870W        W78470  20.089  10.811   1.898
 7871W        W78471  14.125  43.335  13.074
 7872W        W78472  32.031  32.853   1.321
 7873W        W78473  21.001  43.938  12.505
 7874W        W78474  31.035   7.189   0.394
 7875W        W78475   3.253  17.562   4.668
 7876W        W78476   5.744   3.996   1.091
 7877W        W78477  20.266  23.331   0.910
 7878W        W78478   4.723  11.861  10.219
 7879W        W78479   3.755   8.579  14.083
 7880W        W78480  36.215   3.054  12.822
 7881W        W78481   4.323  22.222   1.403
 7882W        W78482  34.114  37.682  11.973
 7883W        W78483  35.335   8.863  13.195
 7884W        W78484  23.217  12.124   4.042
 7885W        W78485   0.297   7.888  12.425
 7886W        W78486   8.124  19.301  13.431
 7887W        W78487  42.021   3.521   0.429
 7888W        W78488  22.009  29.498   0.665
 7889W        W78489  30.438  28.078  13.974
 7890W        W78490  18.335  28.559  12.964
 7891W        W78491  29.956   6.361  10.893
 7892W        W78492   9.906  22.318  12.988
 7893W        W78493  14.627  34.070   0.361
 7894W        W78494   9.169  13.648  13.818
 7895W        W78495  32.537  18.083   3.262
 7896W        W78496   4.492  31.544   0.377
 7897W        W78497  13.766  43.836   1.232
 7898W        W78498  26.182  38.826   0.943
 7899W        W78499   9.331  36.861   2.644
 7900W        W78500  39.893  33.911  14.081
 7901W        W78501   1.519  16.710   3.514
 7902W        W78502   9.745  24.574   2.376
 7903W        W78503  17.739  30.999   3.600
 7904W        W78504  20.363   9.417  14.532
 7905W        W78505  26.458  33.482  13.494
 7906W        W78506  25.249  33.198   0.769
 7907W        W78507  39.317   2.858   1.872
 7908W        W78508   2.730  20.076  14.300
 7909W        W78509  10.727  20.575  14.991
 7910W        W78510   7.395  37.155  12.607
 7911W        W78511  30.458  34.123  10.402
 7912W        W78512  18.480   6.285   4.219
 7913W        W78513  20.124  38.162   1.861
 7914W        W78514  23.946  11.641   1.287
 7915W        W78515  21.667  26.680   4.082
 7916W        W78516  21.221   4.367  14.568
 7917W        W78517  30.928  20.061  12.839
 7918W        W78518  34.577  11.570   3.345
 7919W        W78519  39.932  10.003   0.027
 7920W        W78520   8.527  26.680  13.278
 7921W        W78521   7.169  15.204   3.592
 7922W        W78522  13.584   5.488  14.307
 7923W        W78523  17.169  35.031  10.626
 7924W        W78524  23.851  10.743   4.872
 7925W        W78525  31.939   7.440  11.166
 7926W        W78526   7.332  15.345   2.240
 7927W        W78527  27.539   2.720   0.391
 7928W        W78528  36.327  19.107  10.510
 7929W        W78529  39.386   9.334   1.414
 7930W        W78530  44.236  30.137   1.872
 7931W        W78531  21.594   5.113  13.662
 7932W        W78532  30.655  34.437   0.517
 7933W        W78533  21.387   4.296   3.723
 7934W        W78534  21.251  13.915  13.522
 7935W        W78535  13.203  39.128  14.881
 7936W        W78536   4.514  29.153  13.572
 7937W        W78537   2.071  24.901  11.213
 7938W        W78538   4.982  17.670   3.760
 7939W        W78539   7.719  41.492   2.292
 7940W        W78540  12.561  18.414   1.312
 7941W        W78541  19.751  13.735  14.934
 7942W        W78542  34.115  18.090  12.003
 7943W        W78543   5.003  18.317   0.845
 7944W        W78544  28.974  35.059   2.644
 7945W        W78545  43.500  36.701   2.692
 7946W        W78546  26.228  11.427   0.775
 7947W        W78547  25.624  40.501  13.289
 7948W        W78548  28.143  34.117   0.360
 7949W        W78549  27.528  20.027   2.542
 7950W        W78550   3.872   1.431  10.990
 7951W        W78551  20.685  28.418   0.801
 7952W        W78552  23.769  21.126   1.331
 7953W        W78553  32.319  16.027  14.882
 7954W        W78554  40.719  37.026  14.944
 7955W        W78555  13.848  43.768  13.990
 7956W        W78556  23.001  19.717   4.644
 7957W        W78557  11.826  31.126  11.353
 7958W        W78558  26.002   9.068   2.585
 7959W        W78559  32.903  21.977   4.029
 7960W        W78560  31.279  42.310   3.636
 7961W        W78561   9.878  16.091  12.631
 7962W        W78562  23.005  13.289  12.557
 7963W        W78563   4.289  41.469  10.892
 7964W        W78564  23.484  24.018   0.973
 7965W        W78565  41.565  10.542  11.135
 7966W        W78566   3.359  13.473  13.729
 7967W        W78567  37.745  18.963  14.356
 7968W        W78568  29.228  34.020  10.367
 7969W        W78569   8.696   7.352   4.063
 7970W        W78570   4.160  14.652   2.682
 7971W        W78571   5.935  29.122  10.594
 7972W        W78572  23.158  16.754   0.367
 7973W        W78573  28.555  13.225  14.294
 7974W        W78574   4.484  28.169   4.761
 7975W        W78575  10.436  18.067   3.841
 7976W        W78576   0.961  13.119   2.445
 7977W        W78577  10.397  39.840   2.698
 7978W        W78578  25.663  11.725   3.587
 7979W        W78579  20.224  28.442   1.204
 7980W        W78580  28.362  19.031   2.816
 7981W        W78581   7.157  12.533   2.852
 7982W        W78582  14.260  37.131   1.425
 7983W        W78583  24.832   3.451   1.305
 7984W        W78584  30.074   2.489   1.373
 7985W        W78585   3.486   3.785   0.303
 7986W        W78586   1.029   6.396  11.273
 7987W        W78587   8.347  29.731   4.191
 7988W        W78588  13.281  41.422   4.138
 7989W        W78589  23.604  25.910  11.113
 7990W        W78590   1.804  16.123  12.969
 7991W        W78591  33.304  23.691  10.484
 7992W        W78592   8.411  32.908  14.313
 7993W        W78593  12.234  41.680   3.763
 7994W        W78594  29.744   7.784   2.232
 7995W        W78595  15.423   3.254  12.032
 7996W        W78596  33.550  33.148  12.739
 7997W        W78597   8.050   4.577  11.517
 7998W        W78598   9.830  23.445  14.938
 7999W        W78599  39.093  17.330   4.118
 8000W        W78600  35.526   5.647   2.607
 8001W        W78601  35.419  29.677   2.753
 8002W        W78602  31.002  22.005   3.036
 8003W        W78603  41.769  30.681   2.763
 8004W        W78604   5.996  16.280  12.829
 8005W        W78605  25.996  16.384   0.402
 8006W        W78606  41.851  15.227   2.840
 8007W        W78607  44.454  28.055  11.565
 8008W        W78608   4.245  25.372  12.340
 8009W        W78609   9.722   9.341  14.260
 8010W        W78610   3.216  14.131  12.476
 8011W        W78611  10.320   8.671   1.120
 8012W        W78612  10.807  40.953   2.753
 8013W        W78613  13.257  30.163   3.897
 8014W        W78614  16.822   0.144   0.275
 8015W        W78615  27.568  23.694  11.219
 8016W        W78616  21.231   0.517   1.859
 8017W        W78617  16.801  24.702   2.220
 8018W        W78618   2.234  31.454  13.309
 8019W        W78619   9.358  12.202   1.243
 8020W        W78620  19.438  39.959  12.777
 8021W        W78621   6.670  40.828   4.122
 8022W        W78622  11.126  42.496   4.177
 8023W        W78623   1.447  37.913  14.436
 8024W        W78624  33.805  18.466  14.450
 8025W        W78625  21.875  19.729  14.786
 8026W        W78626   1.952   2.985   3.278
 8027W        W78627   1.386   8.766  11.288
 8028W        W78628  31.099  22.562   3.345
 8029W        W78629  32.473  36.387   3.284
 8030W        W78630  12.727  29.652  13.628
 8031W        W78631  38.268   2.193   1.008
 8032W        W78632  24.699   4.527   2.801
 8033W        W78633  29.397  14.615   1.238
 8034W        W78634  44.978  43.571   2.273
 8035W        W78635  14.545  44.523  10.216
 8036W        W78636  43.174  42.675  14.433
 8037W        W78637  15.031  32.837   4.636
 8038W        W78638  10.237  42.436  14.062
 8039W        W78639  11.648  26.110   3.377
 8040W        W78640   1.314  40.068  14.812
 8041W        W78641  16.694  13.161  14.406
 8042W        W78642  28.526  21.112   0.374
 8043W        W78643  17.522  14.222  14.163
 8044W        W78644  27.089  21.029   1.923
 8045W        W78645  15.647  19.638   3.884
 8046W        W78646  43.370  27.758  11.517
 8047W        W78647  33.597  31.368   4.610
 8048W        W78648   2.777  25.553  11.676
 8049W        W78649  25.525  26.098   4.124
 8050W        W78650  22.156  15.634  11.693
 8051W        W78651  38.919   2.058  12.313
 8052W        W78652  13.681  26.849   2.315
 8053W        W78653   6.263  19.017  14.246
 8054W        W78654   8.261   3.248   3.311
 8055W        W78655  22.065  36.436   4.060
 8056W        W78656   3.888  34.075  12.969
 8057W        W78657  14.135  29.789  13.453
 8058W        W78658   0.802  29.552   1.445
 8059W        W78659  42.047  43.805  11.978
 8060W        W78660  10.636  18.490  14.981
 8061W        W78661  24.456  20.050   2.202
 8062W        W78662  28.034   6.788  12.377
 8063W        W78663  17.833   0.472   0.504
 8064W        W78664  28.183  12.546  11.078
 8065W        W78665  12.723  41.071  13.796
 8066W        W78666  42.412  28.721  14.465
 8067W        W78667  18.082  39.612  14.204
 8068W        W78668  15.835  36.088   4.256
 8069W        W78669  11.970  23.647   0.790
 8070W        W78670  26.453  38.347   3.670
 8071W        W78671  13.857   2.375  14.854
 8072W        W78672  11.704   6.375   3.195
 8073W        W78673  22.659  10.098   4.621
 8074W        W78674  38.289  33.617  12.613
 8075W        W78675  40.877  43.678  14.197
 8076W        W78676  41.481  24.775  13.023
 8077W        W78677  11.897  28.232   0.311
 8078W        W78678  30.223  35.537   0.424
 8079W        W78679  12.985  43.951   0.555
 8080W        W78680  21.180  18.768  11.380
 8081W        W78681   9.434  25.918  13.178
 8082W        W78682   6.496  25.118   9.691
 8083W        W78683  13.073  28.640   3.807
 8084W        W78684  10.182  44.175  10.022
 8085W        W78685  34.791   5.696   0.280
 8086W        W78686   0.003  11.023  11.164
 8087W        W78687  13.363   7.963   0.577
 8088W        W78688  40.994  19.814  13.441
 8089W        W78689  34.262  21.216  11.931
 8090W        W78690   1.468  34.390  11.579
 8091W        W78691  11.169  31.170  12.548
 8092W        W78692   8.335  35.584  11.609
 8093W        W78693  36.135  28.511   3.983
 8094W        W78694  25.197   8.945  13.946
 8095W        W78695   6.897  38.321  14.775
 8096W        W78696  20.079  40.774  11.887
 8097W        W78697  43.931   3.401   4.800
 8098W        W78698  29.132  24.549   1.205
 8099W        W78699  13.658  17.022   1.686
 8100W        W78700  28.584  40.024  13.361
 8101W        W78701  39.076  12.112   1.694
 8102W        W78702  41.761   4.769   3.845
 8103W        W78703  31.137   0.527   0.032
 8104W        W78704  11.083  19.086  14.467
 8105W        W78705  15.683  19.902  13.751
 8106W        W78706  20.078  23.502  13.858
 8107W        W78707  41.127   6.324  11.913
 8108W        W78708   8.291   8.379   3.230
 8109W        W78709  44.232  39.360   1.401
 8110W        W78710  23.341  41.782   2.667
 8111W        W78711  39.792  16.212   1.338
 8112W        W78712  24.772  11.082  12.850
 8113W        W78713  14.348  33.350  12.970
 8114W        W78714   6.479  33.499   4.861
 8115W        W78715  17.076  19.796   0.745
 8116W        W78716  29.894  34.487   3.424
 8117W        W78717  29.437   7.684   3.076
 8118W        W78718  23.751  38.314   3.588
 8119W        W78719  26.947  24.731   3.730
 8120W        W78720  43.286   2.305  14.439
 8121W        W78721  43.901  42.591   4.662
 8122W        W78722  29.034  16.108   2.825
 8123W        W78723  25.580  27.631  12.320
 8124W        W78724  29.082   3.270   1.350
 8125W        W78725  38.612  10.738  12.668
 8126W        W78726  10.318   2.979   2.275
 8127W        W78727  31.952  16.060  12.999
 8128W        W78728   3.781  25.707   2.421
 8129W        W78729   3.170  31.993  14.335
 8130W        W78730  11.346  12.377  13.367
 8131W        W78731  43.203  32.256  10.707
 8132W        W78732  33.641  31.369   0.946
 8133W        W78733   9.839  42.108   1.888
 8134W        W78734  30.202  31.889  10.154
 8135W        W78735  41.486  37.312   2.771
 8136W        W78736  20.022  44.947   3.684
 8137W        W78737  24.090  11.236  14.717
 8138W        W78738  27.430   3.807  13.614
 8139W        W78739   0.267  22.399  14.408
 8140W        W78740  16.362  20.475  14.029
 8141W        W78741  24.385  24.604  13.363
 8142W        W78742   2.941   6.341  11.077
 8143W        W78743  41.013  13.609  12.561
 8144W        W78744   4.822  11.581   3.181
 8145W        W78745  15.715   4.420   1.113
 8146W        W78746   5.928  37.902  11.945
 8147W        W78747  44.419  10.170  12.474
 8148W        W78748  43.615  24.966   2.206
 8149W        W78749  30.905  32.090  11.600
 8150W        W78750  32.892  27.032  13.763
 8151W        W78751  18.148  40.399   0.305
 8152W        W78752   5.419  22.264   4.980
 8153W        W78753  12.619  30.156  12.489
 8154W        W78754   0.274  13.708   0.893
 8155W        W78755  40.388  30.184   3.988
 8156W        W78756   2.389   9.170  11.747
 8157W        W78757   8.832   4.871  10.456
 8158W        W78758  22.470  33.539  11.055
 8159W        W78759   9.568   3.411   4.813
 8160W        W78760  19.206  27.934  14.225
 8161W        W78761  11.763   7.189  12.097
 8162W        W78762  14.987   9.323   2.812
 8163W        W78763  36.870  33.834   4.484
 8164W        W78764  27.252  32.814  10.741
 8165W        W78765   9.863  41.117  14.023
 8166W        W78766   5.750  14.898   3.198
 8167W        W78767  31.393   1.033   0.007
 8168W        W78768  32.040  29.715  11.537
 8169W        W78769  20.218  36.593  11.615
 8170W        W78770  37.435  43.724   2.805
 8171W        W78771  25.200  28.547  11.616
 8172W        W78772  36.481  21.549   3.776
 8173W        W78773  37.281   6.692  12.205
 8174W        W78774   5.564  10.262   4.889
 8175W        W78775  32.265   3.725   0.399
 8176W        W78776  12.245  40.881  14.829
 8177W        W78777  24.547  24.062  11.162
 8178W        W78778  37.547  40.019  14.852
 8179W        W78779  29.901  12.101  12.958
 8180W        W78780  31.955   2.314  14.417
 8181W        W78781  16.116   3.426   0.412
 8182W        W78782  28.179  12.608   0.252
 8183W        W78783  33.590  16.573  12.748
 8184W        W78784  20.936  32.879   2.253
 8185W        W78785  22.603  31.896  11.046
 8186W        W78786   0.610   6.195  11.489
 8187W        W78787   6.192  25.152  13.414
 8188W        W78788  31.687  28.636   3.698
 8189W        W78789   8.180  31.729   5.031
 8190W        W78790  32.174  41.560  13.030
 8191W        W78791  41.637  22.570  13.285
 8192W        W78792  16.182   1.435   4.453
 8193W        W78793   1.177  30.937  11.647
 8194W        W78794  14.390  42.289  14.888
 8195W        W78795   8.483   9.849  11.027
 8196W        W78796  17.172  24.739   3.677
 8197W        W78797  36.471  27.014   3.634
 8198W        W78798  27.961  25.624  12.559
 8199W        W78799  10.352   6.527  11.961
 8200W        W78800  14.589  10.073   0.519
 8201W        W78801  31.653  15.159   2.876
 8202W        W78802  30.680  37.470   5.174
 8203W        W78803   6.345  25.514  14.243
 8204W        W78804  37.320  23.542  10.603
 8205W        W78805   5.685  23.027   0.245
 8206W        W78806   4.557   4.029   2.333
 8207W        W78807  37.207  30.925   4.605
 8208W        W78808  13.090  20.529   3.721
 8209W        W78809   0.920   6.872   1.275
 8210W        W78810   0.862  42.495   0.127
 8211W        W78811  32.755  41.480   3.922
 8212W        W78812  25.671  37.986  13.391
 8213W        W78813  30.503   8.886  12.919
 8214W        W78814  10.236  21.776   2.460
 8215W        W78815  19.246  21.685   1.421
 8216W        W78816  16.310   5.268  14.056
 8217W        W78817  24.772  37.764  11.999
 8218W        W78818  22.016  17.103   1.317
 8219W        W78819  26.161  15.281  11.190
 8220W        W78820  31.622  42.506  12.531
 8221W        W78821   6.303  33.573   2.740
 8222W        W78822  30.361  24.076   2.272
 8223W        W78823  28.960  20.813  11.380
 8224W        W78824  23.210  32.396  14.285
 8225W        W78825  26.466  26.394   2.330
 8226W        W78826   3.329  25.456   2.580
 8227W        W78827  13.325   8.148  10.590
 8228W        W78828  38.364  28.203   4.135
 8229W        W78829  17.748   3.496   0.353
 8230W        W78830  18.547  26.434   1.214
 8231W        W78831  32.492  34.661  11.188
 8232W        W78832   1.973  39.744  12.327
 8233W        W78833  38.806  29.695   2.370
 8234W        W78834  16.689  10.835   1.549
 8235W        W78835  26.989  26.504  12.547
 8236W        W78836  29.073  29.913   0.209
 8237W        W78837   1.215  14.556  12.198
 8238W        W78838  12.247  34.251   2.171
 8239W        W78839  40.098   4.153  11.698
 8240W        W78840  33.849  21.061   3.288
 8241W        W78841   5.021  29.083  13.564
 8242W        W78842  30.792  26.803   2.363
 8243W        W78843  29.411  36.515   3.616
 8244W        W78844  33.077   5.832   2.778
 8245W        W78845  23.663   1.302   2.980
 8246W        W78846  35.537   5.500  11.546
 8247W        W78847  29.968  38.907  10.639
 8248W        W78848   5.503  43.526  14.885
 8249W        W78849  17.149  44.366  14.466
 8250W        W78850  32.105  36.040  11.841
 8251W        W78851   6.145  14.861  14.524
 8252W        W78852  13.269  33.516   4.640
 8253W        W78853   8.373  19.496  12.885
 8254W        W78854  24.286   2.181  14.735
 8255W        W78855  16.363  36.944   0.964
 8256W        W78856  20.005  40.456   2.146
 8257W        W78857  34.577  11.234   3.749
 8258W        W78858  36.618  44.001  12.665
 8259W        W78859  34.633   9.947  13.558
 8260W        W78860  17.616  14.667   1.370
 8261W        W78861  33.815  38.801   9.947
 8262W        W78862  24.665  13.282  12.983
 8263W        W78863  24.995  31.187   1.803
 8264W        W78864   3.272  26.068  14.870
 8265W        W78865  11.192   8.801   0.978
 8266W        W78866  29.643   9.746   2.071
 8267W        W78867  43.031  43.338   3.252
 8268W        W78868  26.538  44.074   1.369
 8269W        W78869   5.466  23.548  14.394
 8270W        W78870   4.626  12.225  10.648
 8271W        W78871  42.422  40.222   2.696
 8272W        W78872  44.158  28.044  12.407
 8273W        W78873  26.797  33.514   2.836
 8274W        W78874  36.755  25.325  13.006
 8275W        W78875  33.416   3.969  12.062
 8276W        W78876   8.830  40.281  14.142
 8277W        W78877   8.409  29.004  11.800
 8278W        W78878  37.328  40.285  13.445
 8279W        W78879   8.034  16.059   4.269
 8280W        W78880   8.164   9.721  14.907
 8281W        W78881   8.181   1.310   4.077
 8282W        W78882  31.149   4.008   2.830
 8283W        W78883   4.256  38.479  14.462
 8284W        W78884  19.087  24.219   0.826
 8285W        W78885  10.407   2.337   1.745
 8286W        W78886  25.621  10.271   4.073
 8287W        W78887  36.076   2.843   2.641
 8288W        W78888  18.991  40.972   3.812
 8289W        W78889  22.622  40.035  11.652
 8290W        W78890  23.683  38.316   2.662
 8291W        W78891  11.203  39.447  12.996
 8292W        W78892  44.898  44.110  12.019
 8293W        W78893  27.910   9.987   0.836
 8294W        W78894  12.381  24.187  12.638
 8295W        W78895  27.101   4.400  12.357
 8296W        W78896   4.185  32.989   0.305
 8297W        W78897  37.830  41.501  13.469
 8298W        W78898  44.478  25.023   2.492
 8299W        W78899  37.444  43.669  11.149
 8300W        W78900  16.096   8.596   4.865
 8301W        W78901  13.664  19.303   1.382
 8302W        W78902  26.676  42.589   3.866
 8303W        W78903   7.701   1.568   0.615
 8304W        W78904  28.948   8.866   1.338
 8305W        W78905  32.883   0.440  14.369
 8306W        W78906  15.618  37.272   2.454
 8307W        W78907  41.517  28.469  12.865
 8308W        W78908  36.035   5.751   2.387
 8309W        W78909  36.993  26.112   3.989
 8310W        W78910  19.133  11.302   2.923
 8311W        W78911  28.522  28.370  11.935
 8312W        W78912  37.816  43.359   2.723
 8313W        W78913  20.244  22.157   2.855
 8314W        W78914  43.875  33.353   3.678
 8315W        W78915  25.170  29.104  14.448
 8316W        W78916   2.075   5.431   0.650
 8317W        W78917  28.664  38.120  12.727
 8318W        W78918  44.263   1.686  12.197
 8319W        W78919  26.305   9.197   1.663
 8320W        W78920  21.158   6.604   1.202
 8321W        W78921   6.993   5.656   0.579
 8322W        W78922   4.957  12.812  13.223
 8323W        W78923  22.176  40.264  11.486
 8324W        W78924  36.289  43.911   1.683
 8325W        W78925  18.553  41.387   4.408
 8326W        W78926  21.070   2.712   1.316
 8327W        W78927  38.484  15.546  11.544
 8328W        W78928  14.723  33.680  12.069
 8329W        W78929  35.447  37.490  10.733
 8330W        W78930  39.567  25.534   3.365
 8331W        W78931  10.590  14.765  11.425
 8332W        W78932  14.629  42.019  12.606
 8333W        W78933  26.595   1.327   1.410
 8334W        W78934  15.266  37.843   4.018
 8335W        W78935  15.610  15.300   2.768
 8336W        W78936   7.251   2.817   1.426
 8337W        W78937  13.719  34.562  12.398
 8338W        W78938   7.886  40.908  11.199
 8339W        W78939  12.608  12.304  13.833
 8340W        W78940  26.791   0.299   1.871
 8341W        W78941  30.386   4.709  12.837
 8342W        W78942  30.976  15.355   1.780
 8343W        W78943  22.162  12.358   2.721
 8344W        W78944  12.639  25.456  11.710
 8345W        W78945  15.016  37.859  10.953
 8346W        W78946  37.097   6.936   1.892
 8347W        W78947  10.926  34.103  11.914
 8348W        W78948   2.288  44.448   2.923
 8349W        W78949  41.500   4.498  13.105
 8350W        W78950  25.488   5.661  11.353
 8351W        W78951  11.960   2.357  12.440
 8352W        W78952  38.565  10.165   2.125
 8353W        W78953  19.007  29.878  14.825
 8354W        W78954   6.120  15.558  13.875
 8355W        W78955  19.269   3.660  12.276
 8356W        W78956  16.163   5.332   3.797
 8357W        W78957  21.232  17.006  12.584
 8358W        W78958  27.374  25.509  10.651
 8359W        W78959  34.975  41.788  10.598
 8360W        W78960  42.917   6.372   2.926
 8361W        W78961  31.135  26.101   1.379
 8362W        W78962  16.371   2.389  10.735
 8363W        W78963   3.095  35.705  12.126
 8364W        W78964   0.793   8.206  13.995
 8365W        W78965  40.423   8.255   2.690
 8366W        W78966  32.725  18.273   2.413
 8367W        W78967  44.763   3.437   4.603
 8368W        W78968  32.534   7.199   4.200
 8369W        W78969   7.546   3.419  11.566
 8370W        W78970  35.622  20.040   3.727
 8371W        W78971  23.177  23.535   4.702
 8372W        W78972  42.558   8.381  11.704
 8373W        W78973   9.411  41.780  12.537
 8374W        W78974  41.750  41.298   2.216
 8375W        W78975  11.665  22.973  10.744
 8376W        W78976  26.515  16.327  13.371
 8377W        W78977  37.393   6.883   3.630
 8378W        W78978   4.646  33.128  14.295
 8379W        W78979  30.419  31.474   0.468
 8380W        W78980  33.742   7.357  11.365
 8381W        W78981   6.951  41.113   4.500
 8382W        W78982  21.350   0.830   4.445
 8383W        W78983  30.085   9.255  14.926
 8384W        W78984  10.325  43.830  11.894
 8385W        W78985  24.466  19.128  10.761
 8386W        W78986  18.168  42.428   2.459
 8387W        W78987   4.287   7.424  10.712
 8388W        W78988  11.927   3.500  12.916
 8389W        W78989   9.695  39.109  11.889
 8390W        W78990  35.007  32.104   2.211
 8391W        W78991  26.828  39.137  10.238
 8392W        W78992  21.287  17.679   4.381
 8393W        W78993  34.179   0.694   2.705
 8394W        W78994   7.878  40.141  14.850
 8395W        W78995  32.138  20.727  11.895
 8396W        W78996  31.141  30.102   4.198
 8397W        W78997   7.595  13.798  14.725
 8398W        W78998  21.804   3.998  11.112
 8399W        W78999  24.446   5.738  10.706
 8400W        W79000   5.252   3.782  11.982
 8401W        W79001  31.821  36.629  11.113
 8402W        W79002  37.447  23.427   2.712
 8403W        W79003  33.054   2.876   3.533
 8404W        W79004   1.742   8.671   4.205
 8405W        W79005   8.039  27.823  14.854
 8406W        W79006  19.200  44.467   3.609
 8407W        W79007   0.795   7.703   2.164
 8408W        W79008   6.529  36.154   2.713
 8409W        W79009   4.369  32.534  11.647
 8410W        W79010   3.400  37.317  12.356
 8411W        W79011  20.193  26.832   3.326
 8412W        W79012  23.684  13.339   4.626
 8413W        W79013  16.766  12.320   2.933
 8414W        W79014  39.059  12.896  12.039
 8415W        W79015  16.637  36.161   3.317
 8416W        W79016  29.505   3.711  10.720
 8417W        W79017  14.116  13.289  13.320
 8418W        W79018  12.717  35.595  10.668
 8419W        W79019  15.565  41.110  14.376
 8420W        W79020   0.407  15.508   3.713
 8421W        W79021  42.857   3.385  13.571
 8422W        W79022  15.596  19.359  12.477
 8423W        W79023  21.341  35.490  14.320
 8424W        W79024   0.987  23.979  13.510
 8425W        W79025  20.905  39.520   3.771
 8426W        W79026  13.192  43.801  13.303
 8427W        W79027  40.321  42.136  14.613
 8428W        W79028  29.981  35.660  14.576
 8429W        W79029  23.497  42.481  13.364
 8430W        W79030   9.694  28.043   1.319
 8431W        W79031  26.184  27.379   4.143
 8432W        W79032  10.813  35.278   4.638
 8433W        W79033   5.186  16.802   1.687
 8434W        W79034  32.615  32.106   1.268
 8435W        W79035  10.848  29.564   2.906
 8436W        W79036  23.098  22.568  11.582
 8437W        W79037  23.081   5.827   0.632
 8438W        W79038  28.618  20.397  12.419
 8439W        W79039  21.600  20.125   4.594
 8440W        W79040   2.728   2.777   1.880
 8441W        W79041  29.552  43.770  13.906
 8442W        W79042   0.386  38.702   2.700
 8443W        W79043  32.664  11.714  10.036
 8444W        W79044  44.121  28.216   3.870
 8445W        W79045   9.081   6.647   3.266
 8446W        W79046  16.545  16.667  11.622
 8447W        W79047  16.753  30.146  11.309
 8448W        W79048   9.877  35.852   0.422
 8449W        W79049  28.436  11.759  10.667
 8450W        W79050  17.585  13.713  14.931
 8451W        W79051  12.895   3.246  12.137
 8452W        W79052   1.588   8.844   1.955
 8453W        W79053  15.092  31.786   5.025
 8454W        W79054   9.866  41.894   4.718
 8455W        W79055   6.602  23.268  12.494
 8456W        W79056  23.981  20.158   3.887
 8457W        W79057  39.648  39.024   3.555
 8458W        W79058   5.640  17.004   3.593
 8459W        W79059  37.790  24.438   0.521
 8460W        W79060  27.684  13.778   3.720
 8461W        W79061  34.169   2.401  12.454
 8462W        W79062  35.988   2.863   4.086
 8463W        W79063  38.853  24.658  11.386
 8464W        W79064  12.669  13.606   4.137
 8465W        W79065  25.233  43.199  12.064
 8466W        W79066  12.276  39.910   2.893
 8467W        W79067  18.155   5.742   3.735
 8468W        W79068  33.933   8.435  12.843
 8469W        W79069   2.429   1.241  14.459
 8470W        W79070  23.024   4.981  14.137
 8471W        W79071  29.878   7.202  11.474
 8472W        W79072  27.097  41.810   4.169
 8473W        W79073  22.783   0.857  11.627
 8474W        W79074  14.036   4.192  14.695
 8475W        W79075  28.058  37.463   0.370
 8476W        W79076  10.167   8.631  10.397
 8477W        W79077  21.758   5.707   4.557
 8478W        W79078  24.533  42.715   4.243
 8479W        W79079  16.620  24.778  12.877
 8480W        W79080  36.093  44.896  12.873
 8481W        W79081  23.958  20.295  14.833
 8482W        W79082   9.317  40.504   4.409
 8483W        W79083   0.604  11.188  12.781
 8484W        W79084  43.474  16.849  12.011
 8485W        W79085  10.154   1.199  12.486
 8486W        W79086  23.915  30.969   1.215
 8487W        W79087  23.041  22.122   3.620
 8488W        W79088  40.076  32.532   1.358
 8489W        W79089  39.379  27.745   4.199
 8490W        W79090  30.979   5.430   1.697
 8491W        W79091   8.429  35.183  11.908
 8492W        W79092  41.458   5.766   1.407
 8493W        W79093  28.431  42.309   2.703
 8494W        W79094  18.851   0.644   0.016
 8495W        W79095   7.611  40.710  11.570
 8496W        W79096   3.349  33.449   1.839
 8497W        W79097  21.018  30.762  13.388
 8498W        W79098  42.698  25.962  13.914
 8499W        W79099   2.161  43.577  12.569
 8500W        W79100  30.871  20.449  11.077
 8501W        W79101  20.602  19.701   0.992
 8502W        W79102   1.451  26.337   4.945
 8503W        W79103  32.152   5.357  11.757
 8504W        W79104  42.079  28.891  10.925
 8505W        W79105   5.770  19.272  14.350
 8506W        W79106  38.766  22.623   2.755
 8507W        W79107  40.009  37.468   1.857
 8508W        W79108  13.006  16.206  10.678
 8509W        W79109  34.391  36.405   3.796
 8510W        W79110  41.549   2.235   3.123
 8511W        W79111  29.004  31.023  14.120
 8512W        W79112  35.384  42.884  11.737
 8513W        W79113  15.640  42.072  14.185
 8514W        W79114  39.198   0.584  12.672
 8515W        W79115  40.933  18.249   2.370
 8516W        W79116  16.243  39.513  14.776
 8517W        W79117  36.273  34.374  10.223
 8518W        W79118  10.453   5.615  11.009
 8519W        W79119  16.328  34.121   0.984
 8520W        W79120  30.033  13.591   1.797
 8521W        W79121  18.798  32.854   3.073
 8522W        W79122  24.544  24.704  11.710
 8523W        W79123  26.924  32.509  12.122
 8524W        W79124  36.510  39.945  13.913
 8525W        W79125  44.287  10.350  11.523
 8526W        W79126  34.095  39.412  12.468
 8527W        W79127  16.567  19.511  11.438
 8528W        W79128  33.809   3.829  14.414
 8529W        W79129  28.158   3.822  13.041
 8530W        W79130  26.652   9.217   4.240
 8531W        W79131  31.887  27.930  12.976
 8532W        W79132   5.454  37.166  10.823
 8533W        W79133  42.312  17.625  10.662
 8534W        W79134  35.180  43.394   0.220
 8535W        W79135   6.810  39.778   3.254
 8536W        W79136  19.906  20.715  12.505
 8537W        W79137   4.281   3.978  11.434
 8538W        W79138  43.226   0.247   2.311
 8539W        W79139  43.414  33.109  10.423
 8540W        W79140  28.418  10.325   4.134
 8541W        W79141  24.437  29.062  14.793
 8542W        W79142  17.781   1.433  13.293
 8543W        W79143   7.968  27.436  13.493
 8544W        W79144   7.199  23.270   0.982
 8545W        W79145  30.467  40.084   0.954
 8546W        W79146   6.281   0.370  11.854
 8547W        W79147  22.068  23.740   4.430
 8548W        W79148  31.552   8.345  12.960
 8549W        W79149  31.505  27.183   2.818
 8550W        W79150  37.902  30.042  12.094
 8551W        W79151  13.219  18.119   2.239
 8552W        W79152   8.242  43.560   1.773
 8553W        W79153  17.272  32.123   0.293
 8554W        W79154  44.659   8.944  12.086
 8555W        W79155  20.218  25.479   3.097
 8556W        W79156  16.239  18.117   2.362
 8557W        W79157  10.289  34.126   2.215
 8558W        W79158  39.559   4.118   1.773
 8559W        W79159  31.172   5.110  12.792
 8560W        W79160  35.319  22.127  11.663
 8561W        W79161  22.446   2.922  11.156
 8562W        W79162   2.211  11.492   5.111
 8563W        W79163   4.743   3.609  10.811
 8564W        W79164  15.759  39.511   0.543
 8565W        W79165   9.163   8.726  12.861
 8566W        W79166   7.397  15.139  14.977
 8567W        W79167  33.023   6.696   3.240
 8568W        W79168  18.475   7.203  13.104
 8569W        W79169  34.476  42.839  13.341
 8570W        W79170   2.694  36.086   2.693
 8571W        W79171  27.190  18.508  11.591
 8572W        W79172   4.972   9.722   1.605
 8573W        W79173  19.660   4.609   1.438
 8574W        W79174  43.804  21.222  12.909
 8575W        W79175  36.996  26.369   1.502
 8576W        W79176   2.488  36.398   1.435
 8577W        W79177  29.894   1.093   4.119
 8578W        W79178   5.650  18.226  12.295
 8579W        W79179   9.128  24.333   4.968
 8580W        W79180  28.615  39.640  14.215
 8581W        W79181  11.318  32.722   1.674
 8582W        W79182  16.289  18.293  11.853
 8583W        W79183  18.224  30.436  12.164
 8584W        W79184  22.792  26.012  13.563
 8585W        W79185  30.073   3.348   0.996
 8586W        W79186  23.920  43.450   1.918
 8587W        W79187  22.732  37.331  12.583
 8588W        W79188  43.244  41.327   4.258
 8589W        W79189  24.164  27.286  13.136
 8590W        W79190  11.896  32.349  13.760
 8591W        W79191   8.359  41.526  10.871
 8592W        W79192   1.744   6.333   0.261
 8593W        W79193  41.142  12.900  13.460
 8594W        W79194  21.500  31.684  13.525
 8595W        W79195  31.342   2.543   0.012
 8596W        W79196  28.555  35.170  13.868
 8597W        W79197  25.159  20.714  14.292
 8598W        W79198  18.961  30.976  14.049
 8599W        W79199  20.145  16.580  12.961
 8600W        W79200  38.889   8.924  13.195
 8601W        W79201  24.916  24.096   1.758
 8602W        W79202  38.110   0.528  12.100
 8603W        W79203  40.001  38.507  10.956
 8604W        W79204  12.515  37.794   2.954
 8605W        W79205  26.620  38.951   0.127
 8606W        W79206  24.194  17.786  11.571
 8607W        W79207  13.451  34.155  14.704
 8608W        W79208   9.860  18.315  13.387
 8609W        W79209   2.974  39.309  12.008
 8610W        W79210  43.052  31.380  12.170
 8611W        W79211   0.684  37.509   0.859
 8612W        W79212  15.191  34.542   0.863
 8613W        W79213  31.421  12.394  13.466
 8614W        W79214  21.079  23.228   0.010
 8615W        W79215  25.284  25.582  14.516
 8616W        W79216  11.090  17.714  11.991
 8617W        W79217  20.608  25.918   4.837
 8618W        W79218  31.648   3.355  11.918
 8619W        W79219   7.188  34.507  13.154
 8620W        W79220  20.605   2.358  11.166
 8621W        W79221   8.991  19.332  12.946
 8622W        W79222   1.457  22.774   2.864
 8623W        W79223   8.400  34.913   2.449
 8624W        W79224  31.305   6.240   3.255
 8625W        W79225  15.246   4.296  11.859
 8626W        W79226  19.680  33.785   0.076
 8627W        W79227  35.223  38.877   1.312
 8628W        W79228   0.764   2.180  11.537
 8629W        W79229  23.536  32.728   3.112
 8630W        W79230  27.082  11.673   2.145
 8631W        W79231   5.800   6.356  11.204
 8632W        W79232  39.142  22.891   3.096
 8633W        W79233   5.429   2.166   4.030
 8634W        W79234  11.145   1.448  13.040
 8635W        W79235  19.648  29.547   4.888
 8636W        W79236  26.248  43.323   3.461
 8637W        W79237  17.204   7.430  10.715
 8638W        W79238  20.814  30.501   4.955
 8639W        W79239  31.411   6.674   4.474
 8640W        W79240  31.345  43.311   4.943
 8641W        W79241  17.601   1.919  12.426
 8642W        W79242  38.899  34.918   2.783
 8643W        W79243   6.039  20.609   4.827
 8644W        W79244  33.429  22.918   4.835
 8645W        W79245  17.208  22.088   4.356
 8646W        W79246   7.794   7.163   4.550
 8647W        W79247  24.760  40.298  11.672
 8648W        W79248  11.195  14.363  11.357
 8649W        W79249  14.640  21.017   1.241
 8650W        W79250  25.203   4.680  11.131
 8651W        W79251   9.244  32.262   0.835
 8652W        W79252  27.087  32.959   1.671
 8653W        W79253  30.279  24.590  14.684
 8654W        W79254   4.958  21.304   0.926
 8655W        W79255  36.342  16.597   4.124
 8656W        W79256  26.904  42.088   3.688
 8657W        W79257  27.238  17.665   4.516
 8658W        W79258  39.023  18.252  11.221
 8659W        W79259  30.370   1.709   2.913
 8660W        W79260  18.693  38.346   1.236
 8661W        W79261   2.905  23.024  11.665
 8662W        W79262  26.894  43.224  13.460
 8663W        W79263  11.169   7.003   3.306
 8664W        W79264   5.627  14.624  12.895
 8665W        W79265  39.080  39.711  14.722
 8666W        W79266   7.250  34.396   3.856
 8667W        W79267   5.673  35.787  13.869
 8668W        W79268  16.022  28.667   1.196
 8669W        W79269  43.889  32.824   3.665
 8670W        W79270   8.383  26.638   3.754
 8671W        W79271  41.839   2.485   0.335
 8672W        W79272   8.623  32.717   2.670
 8673W        W79273   0.915  37.039   1.103
 8674W        W79274  15.997  10.703  12.813
 8675W        W79275  15.786  23.015   3.710
 8676W        W79276  35.891   0.497   3.287
 8677W        W79277  21.756  25.914  14.382
 8678W        W79278  33.319  26.687   1.305
 8679W        W79279   3.691   2.282  13.346
 8680W        W79280  34.380  39.100  12.991
 8681W        W79281  20.430  29.318  12.595
 8682W        W79282   0.777  41.267   2.743
 8683W        W79283  31.387  21.887   2.683
 8684W        W79284  20.346  38.522  12.195
 8685W        W79285  30.711  36.454   4.980
 8686W        W79286  24.907  10.328   0.702
 8687W        W79287  34.165  18.286   2.111
 8688W        W79288   6.413  22.644  13.446
 8689W        W79289  43.492  34.898   1.587
 8690W        W79290   1.625  26.454  12.440
 8691W        W79291   9.770  41.990  10.571
 8692W        W79292  21.519  17.574   1.716
 8693W        W79293   4.995  18.834   4.137
 8694W        W79294  22.890  38.372  13.041
 8695W        W79295  18.589  20.041   3.104
 8696W        W79296   1.739  22.639   4.974
 8697W        W79297  18.629  37.352   2.908
 8698W        W79298   0.531  24.375   3.803
 8699W        W79299   1.313  29.632   4.295
 8700W        W79300  12.769  13.683   0.512
 8701W        W79301  24.977  30.366   3.824
 8702W        W79302  42.028   5.311  14.968
 8703W        W79303   8.746  32.553  13.225
 8704W        W79304  21.225  12.794   2.724
 8705W        W79305  35.631   1.863   2.687
 8706W        W79306  40.799  25.717  10.634
 8707W        W79307  22.394   6.419   4.800
 8708W        W79308  22.553  21.568  13.935
 8709W        W79309  12.240  36.854   3.333
 8710W        W79310  22.255  38.085   4.696
 8711W        W79311   9.360  23.163  11.998
 8712W        W79312  39.489  11.180   1.345
 8713W        W79313  28.650  41.910   2.925
 8714W        W79314  13.430  14.650   2.777
 8715W        W79315  32.243  24.478   3.383
 8716W        W79316  26.462  41.546  13.892
 8717W        W79317  29.099  40.267  11.544
 8718W        W79318  16.196  43.404   1.965
 8719W        W79319   9.343  23.974  14.185
 8720W        W79320  19.635   2.323   2.711
 8721W        W79321  36.490   3.463  13.617
 8722W        W79322  28.787  22.964  13.073
 8723W        W79323  13.839  41.578   0.330
 8724W        W79324  32.812  21.096  11.860
 8725W        W79325  32.102   4.470  13.782
 8726W        W79326  23.042   7.074   2.828
 8727W        W79327  23.014  13.584  11.642
 8728W        W79328  23.150   8.429   1.822
 8729W        W79329  18.994  17.155  11.151
 8730W        W79330  32.419  14.304   1.762
 8731W        W79331  40.729  34.422  13.095
 8732W        W79332  34.394  22.075  13.349
 8733W        W79333   9.670  34.005  12.404
 8734W        W79334   9.733  42.183  12.511
 8735W        W79335  31.581  38.576   0.513
 8736W        W79336  38.359  11.845  11.084
 8737W        W79337  32.281   9.873  11.014
 8738W        W79338  21.470  43.745  12.323
 8739W        W79339  35.824   0.021   4.618
 8740W        W79340  20.384  41.833   1.009
 8741W        W79341  38.864  13.049   2.761
 8742W        W79342  26.499  12.953  13.427
 8743W        W79343  21.507   4.307   4.652
 8744W        W79344  22.839  34.972   0.769
 8745W        W79345  19.506  39.954   0.462
 8746W        W79346  32.998  12.176  14.770
 8747W        W79347  37.860  21.070  12.499
 8748W        W79348  40.854  11.294   3.244
 8749W        W79349  20.191   4.409  11.017
 8750W        W79350   2.875   7.229   2.988
 8751W        W79351  31.448  21.148  12.059
 8752W        W79352   4.738   2.875  14.131
 8753W        W79353  41.967  37.988   0.844
 8754W        W79354   5.168   2.345  13.500
 8755W        W79355   2.455   0.379  14.174
 8756W        W79356   8.103  29.286  11.493
 8757W        W79357  28.616   3.947  14.677
 8758W        W79358  41.867  16.025   1.833
 8759W        W79359  34.742  35.127  13.862
 8760W        W79360  10.376  28.380   4.520
 8761W        W79361  17.649  12.750   0.066
 8762W        W79362  26.809   1.990  12.961
 8763W        W79363  25.615  37.668   0.952
 8764W        W79364  25.680   0.906  11.464
 8765W        W79365  26.142   0.404  11.447
 8766W        W79366   5.832   1.358  11.186
 8767W        W79367  11.326  31.476   1.905
 8768W        W79368  26.241  23.621  14.861
 8769W        W79369  23.002  36.331   4.584
 8770W        W79370  18.340  39.460   2.024
 8771W        W79371   2.697  19.811   4.079
 8772W        W79372   9.880  37.003  11.109
 8773W        W79373  17.967   4.457   3.756
 8774W        W79374  27.896   7.378   1.980
 8775W        W79375  11.246   5.731  11.591
 8776W        W79376  23.808  15.146   1.187
 8777W        W79377   4.092  43.294   3.791
 8778W        W79378  34.086  26.057  11.181
 8779W        W79379  38.006  37.565   4.232
 8780W        W79380  14.074  15.236   0.927
 8781W        W79381  36.727  12.795   1.477
 8782W        W79382  25.564   5.257   2.472
 8783W        W79383  13.081  43.810   2.732
 8784W        W79384  24.193  18.741   1.462
 8785W        W79385   9.306  39.853  14.528
 8786W        W79386  16.329   2.865  12.099
 8787W        W79387  22.500  20.402   2.308
 8788W        W79388  29.045  12.802   0.768
 8789W        W79389  32.107   9.289  12.117
 8790W        W79390  27.026  31.575  14.836
 8791W        W79391  29.137  33.988   1.231
 8792W        W79392   9.747  40.299   1.268
 8793W        W79393  21.269  34.026   0.706
 8794W        W79394  23.746  19.802   4.208
 8795W        W79395  43.313   1.227  11.617
 8796W        W79396  11.068  26.670  14.121
 8797W        W79397   2.430   7.223   2.736
 8798W        W79398  35.558  26.209   1.185
 8799W        W79399   0.781  39.411   2.330
 8800W        W79400  11.655  44.514   2.101
 8801W        W79401  30.579  23.217  11.469
 8802W        W79402  27.819  41.895  12.133
 8803W        W79403  16.202  32.494  10.652
 8804W        W79404  26.822  16.026  11.016
 8805W        W79405   4.171  18.681   0.954
 8806W        W79406  10.147  38.447  12.789
 8807W        W79407  40.400  32.097   2.263
 8808W        W79408  22.880  12.229   4.799
 8809W        W79409   5.780   5.318   2.777
 8810W        W79410  16.175  21.801   4.241
 8811W        W79411  24.465   7.313  14.213
 8812W        W79412   0.220  22.764  14.027
 8813W        W79413  27.098  32.982  12.120
 8814W        W79414  27.779  23.003   3.628
 8815W        W79415  27.938   3.741   2.734
 8816W        W79416  21.673  36.272   2.383
 8817W        W79417  20.234  38.937   2.232
 8818W        W79418  36.613  43.930   4.981
 8819W        W79419  37.447  21.594   1.443
 8820W        W79420  38.537  25.263   3.225
 8821W        W79421   0.313  11.421   1.300
 8822W        W79422  29.932  32.586   1.266
 8823W        W79423  37.722  43.922   4.363
 8824W        W79424  10.865   8.577   4.041
 8825W        W79425  37.368  38.709   1.990
 8826W        W79426  36.381  24.721   0.802
 8827W        W79427  43.651  26.133   4.168
 8828W        W79428  21.773  35.714   1.401
 8829W        W79429  22.502  10.424  11.644
 8830W        W79430  41.487  42.349  13.062
 8831W        W79431  10.262   9.333   0.241
 8832W        W79432  26.746  43.299  10.606
 8833W        W79433  38.914  23.736   4.973
 8834W        W79434  30.170  17.659  12.091
 8835W        W79435  40.981  22.969   2.357
 8836W        W79436   4.654   8.926   0.332
 8837W        W79437  13.905  28.550   3.285
 8838W        W79438  22.259  38.556  12.462
 8839W        W79439  23.211   2.365  10.633
 8840W        W79440  14.205  15.966  12.014
 8841W        W79441  22.061  10.226  12.360
 8842W        W79442  23.706  30.660   2.772
 8843W        W79443  42.130  14.264   3.050
 8844W        W79444  12.780  43.015  14.648
 8845W        W79445  34.493  23.716  13.382
 8846W        W79446  42.804  22.779  14.857
 8847W        W79447  15.446  25.675  10.712
 8848W        W79448  35.071  20.104   4.602
 8849W        W79449  23.196  26.608   1.493
 8850W        W79450  22.087  44.280  14.306
 8851W        W79451  22.532  24.597   0.377
 8852W        W79452   2.833  31.412  10.263
 8853W        W79453   8.606  37.085  10.624
 8854W        W79454  40.891  28.146  11.634
 8855W        W79455  30.695   3.429   0.845
 8856W        W79456   5.671  42.006  12.825
 8857W        W79457   7.055   8.694   1.859
 8858W        W79458  13.690  33.802   0.452
 8859W        W79459  23.526  23.517  13.420
 8860W        W79460  38.941  10.405   0.350
 8861W        W79461  41.869  38.695   3.238
 8862W        W79462  14.372   1.038  14.281
 8863W        W79463  21.422  35.056   3.470
 8864W        W79464  13.233  32.203  13.405
 8865W        W79465   9.717  25.651  12.816
 8866W        W79466   3.618  23.010  12.431
 8867W        W79467  41.509  31.416  14.542
 8868W        W79468   7.149  21.661   4.151
 8869W        W79469   8.276   9.216   4.603
 8870W        W79470   6.177  31.533   4.732
 8871W        W79471  16.127  20.390   1.331
 8872W        W79472  10.769  15.894   4.707
 8873W        W79473  42.882  24.068   2.618
 8874W        W79474  33.991  27.894  12.928
 8875W        W79475  36.324  11.189   0.552
 8876W        W79476  17.942  15.055  14.327
 8877W        W79477  19.773   6.220  14.516
 8878W        W79478  33.055  36.433   1.378
 8879W        W79479  18.747  37.379   1.298
 8880W        W79480   4.307   2.851   4.708
 8881W        W79481   0.451  11.774   0.780
 8882W        W79482  44.271  19.588   1.120
 8883W        W79483  15.314  14.306  12.800
 8884W        W79484   5.788  24.611   2.017
 8885W        W79485  43.750  33.584  14.888
 8886W        W79486  23.077  30.433  13.091
 8887W        W79487  28.079   0.214  12.528
 8888W        W79488  22.215  42.846   1.884
 8889W        W79489  23.248  25.993  13.809
 8890W        W79490  24.133  21.715  14.566
 8891W        W79491  11.182   6.513  13.504
 8892W        W79492  22.028  22.584   1.252
 8893W        W79493   4.351   7.242   4.529
 8894W        W79494  38.318  10.084   1.194
 8895W        W79495  29.940  15.812   2.641
 8896W        W79496  15.650   6.474   0.881
 8897W        W79497  34.529  37.505  14.975
 8898W        W79498  26.750  31.423  10.569
 8899W        W79499   8.839   5.973  13.258
 8900W        W79500  20.248  19.477   1.402
 8901W        W79501  17.429  12.640   4.468
 8902W        W79502  16.827  26.723   2.623
 8903W        W79503  18.849  44.306  11.136
 8904W        W79504   1.477  30.892   1.812
 8905W        W79505  37.821  20.568  11.941
 8906W        W79506  37.200   3.740  11.964
 8907W        W79507  33.863  38.748   2.786
 8908W        W79508   3.170  20.177   0.300
 8909W        W79509  28.111  30.116   2.466
 8910W        W79510  34.629  26.758   0.375
 8911W        W79511  35.903   8.546   5.062
 8912W        W79512  29.439  44.327  11.683
 8913W        W79513  28.716  40.853   2.307
 8914W        W79514  13.771  12.956  11.975
 8915W        W79515  38.751  44.338  14.259
 8916W        W79516  44.786  11.942   4.675
 8917W        W79517  33.635  44.397   3.864
 8918W        W79518  42.694  11.709  14.449
 8919W        W79519  26.933   8.197   0.445
 8920W        W79520  27.503  39.515   4.031
 8921W        W79521  18.152  12.766  12.479
 8922W        W79522  31.522  19.500   0.466
 8923W        W79523   2.853  17.689  12.578
 8924W        W79524  37.333  21.124   1.688
 8925W        W79525   6.775  19.134  11.412
 8926W        W79526  10.492  44.867   2.773
 8927W        W79527  31.445  31.109  13.991
 8928W        W79528   7.871   1.296  13.252
 8929W        W79529  15.311  12.239   0.912
 8930W        W79530  39.546  20.139  10.636
 8931W        W79531  30.493   5.780   2.668
 8932W        W79532  24.144  27.093   0.503
 8933W        W79533  29.342  21.752  14.744
 8934W        W79534  27.598  28.041  13.559
 8935W        W79535   6.816  15.404   2.654
 8936W        W79536  28.845  16.589   0.830
 8937W        W79537   2.958  29.414  10.887
 8938W        W79538  30.214  33.817  13.601
 8939W        W79539  13.632   9.399  10.429
 8940W        W79540   9.456  22.747   4.145
 8941W        W79541   5.543  22.990  13.394
 8942W        W79542  11.274  24.191  12.027
 8943W        W79543  17.470  34.915  14.808
 8944W        W79544  19.271  16.770  11.936
 8945W        W79545  33.325  35.858   0.846
 8946W        W79546  16.773  39.057  13.926
 8947W        W79547  44.194  14.844  14.285
 8948W        W79548   2.677  20.658  13.035
 8949W        W79549   7.339  26.465   1.045
 8950W        W79550  39.194  44.577   9.934
 8951W        W79551  22.038  10.583  11.466
 8952W        W79552  41.688   0.823   0.687
 8953W        W79553  36.270  30.719  11.570
 8954W        W79554  15.543  28.082  11.931
 8955W        W79555  42.722  12.509  14.823
 8956W        W79556   8.899  37.558   4.614
 8957W        W79557  28.061  26.134  13.101
 8958W        W79558  22.224  14.723  10.675
 8959W        W79559   1.288  13.089  13.265
 8960W        W79560  26.629   6.718  13.004
 8961W        W79561  44.943  24.745  11.301
 8962W        W79562  12.589   0.814  13.805
 8963W        W79563  13.188  24.032  12.047
 8964W        W79564  44.929   3.373   2.486
 8965W        W79565  35.692  29.190   1.058
 8966W        W79566  40.370  11.702  13.030
 8967W        W79567  29.565  16.927   0.474
 8968W        W79568  25.290  43.775  10.983
 8969W        W79569   7.166  28.062  14.511
 8970W        W79570   1.952   1.399   0.261
 8971W        W79571  23.485  18.768   1.982
 8972W        W79572  27.761  13.463   0.311
 8973W        W79573  21.957  27.520   3.103
 8974W        W79574   8.798  11.962   0.290
 8975W        W79575  36.510  43.533  12.467
 8976W        W79576   7.714  33.390   0.457
 8977W        W79577   6.158  11.463  11.639
 8978W        W79578  12.427  29.061   0.898
 8979W        W79579  43.936  38.060   3.339
 8980W        W79580  38.633  35.222  12.011
 8981W        W79581  13.195  10.573   1.362
 8982W        W79582  15.411   8.895   0.518
 8983W        W79583  14.701  18.404   0.725
 8984W        W79584  36.993  42.219   4.511
 8985W        W79585   7.877  21.373   4.358
 8986W        W79586  23.371   4.881   2.170
 8987W        W79587  30.433  10.391   1.359
 8988W        W79588  25.046  41.114  12.478
 8989W        W79589  31.094  19.509   2.752
 8990W        W79590   2.681  25.023   2.187
 8991W        W79591  31.466  15.715   3.785
 8992W        W79592  13.365  10.126  11.642
 8993W        W79593  41.866  41.016   2.816
 8994W        W79594   2.528  43.204  12.531
 8995W        W79595  15.714  38.835  14.403
 8996W        W79596  30.559  27.702   1.862
 8997W        W79597  19.042  23.577  14.369
 8998W        W79598  25.085  22.682   4.606
 8999W        W79599  35.624   3.439   3.352
 9000W        W79600   9.866  18.987  14.846
 9001W        W79601   3.535  14.081  14.715
 9002W        W79602  15.623  38.150   2.743
 9003W        W79603  31.196  11.736  12.556
 9004W        W79604  25.177  15.044   1.881
 9005W        W79605  31.506  35.392   1.989
 9006W        W79606  17.586  19.313   3.584
 9007W        W79607  31.584  41.299   3.287
 9008W        W79608  13.021  43.940   3.245
 9009W        W79609  18.946  27.676   5.499
 9010W        W79610  15.600  44.999  12.342
 9011W        W79611  36.264  22.349  12.998
 9012W        W79612  26.449   3.356  12.034
 9013W        W79613  11.124  40.986  11.928
 9014W        W79614   9.398   5.753  14.938
 9015W        W79615  40.046  43.272   1.423
 9016W        W79616   6.785   1.430   0.800
 9017W        W79617   4.906  16.115   4.466
 9018W        W79618  40.944  44.353  13.090
 9019W        W79619   8.445   7.495  12.386
 9020W        W79620  19.322  40.009  10.622
 9021W        W79621  25.697  12.983   3.206
 9022W        W79622  40.975  14.720   2.392
 9023W        W79623   8.040  30.912   1.167
 9024W        W79624  35.037  21.035   1.325
 9025W        W79625  38.903  16.471   1.797
 9026W        W79626  34.600   7.877  12.322
 9027W        W79627  19.671  30.502  12.888
 9028W        W79628  21.724  26.244   2.894
 9029W        W79629  19.148   5.547   0.283
 9030W        W79630  12.238   6.686  14.793
 9031W        W79631  42.885  19.250  13.950
 9032W        W79632  38.367  13.254   2.864
 9033W        W79633  22.531  24.003   1.495
 9034W        W79634  33.965  15.085  14.002
 9035W        W79635  27.532  40.010   4.230
 9036W        W79636  36.829  13.508   2.280
 9037W        W79637   9.703  32.594   1.772
 9038W        W79638  34.961  31.600   2.856
 9039W        W79639  17.119   0.038  12.757
 9040W        W79640   8.448   9.387  11.274
 9041W        W79641  36.592  40.993  12.879
 9042W        W79642  28.174  42.356  12.075
 9043W        W79643  40.851  19.610   0.744
 9044W        W79644   8.892  40.838   1.441
 9045W        W79645  22.180   8.242   0.156
 9046W        W79646  21.270   9.764  14.989
 9047W        W79647   3.377   2.995  14.407
 9048W        W79648  15.284  19.497   2.062
 9049W        W79649  18.046  43.826  11.021
 9050W        W79650  41.785  39.129  12.633
 9051W        W79651  12.133  39.170   3.350
 9052W        W79652  23.004   6.620   3.078
 9053W        W79653  35.303  30.925  11.920
 9054W        W79654  34.816   0.725   1.953
 9055W        W79655  40.386  26.657   1.154
 9056W        W79656  32.690  42.381  11.621
 9057W        W79657  13.605  43.868   2.642
 9058W        W79658   3.193  36.478   5.139
 9059W        W79659  19.757   7.182  13.154
 9060W        W79660  10.957  20.049   2.191
 9061W        W79661  27.010  17.073  10.733
 9062W        W79662  34.063  44.314  12.419
 9063W        W79663   7.983  33.060  12.856
 9064W        W79664  25.442   2.435   3.683
 9065W        W79665  13.052   0.783   1.194
 9066W        W79666  44.372  39.660  14.871
 9067W        W79667  13.510  41.395   2.316
 9068W        W79668  10.665   0.567   3.148
 9069W        W79669   0.894  40.824   0.767
 9070W        W79670  31.838  21.177   3.098
 9071W        W79671   7.693  32.503   2.088
 9072W        W79672   4.772  40.800  10.557
 9073W        W79673  40.214  12.832   4.036
 9074W        W79674  23.630  40.978   3.877
 9075W        W79675   6.720  29.459   1.044
 9076W        W79676  39.206   3.325   4.156
 9077W        W79677  25.406  11.298   3.553
 9078W        W79678  12.727  18.953   0.298
 9079W        W79679  38.517  37.120  12.637
 9080W        W79680  25.924  40.008   4.557
 9081W        W79681   1.755  40.265   2.873
 9082W        W79682  36.855   3.995  12.391
 9083W        W79683   0.730   7.922   1.163
 9084W        W79684  41.512  44.325   3.725
 9085W        W79685  28.367  41.798  12.769
 9086W        W79686  22.412  30.989   1.201
 9087W        W79687  16.076  36.596  13.822
 9088W        W79688  10.695  39.793   4.619
 9089W        W79689   0.454  23.578   1.424
 9090W        W79690  13.629  22.029   4.024
 9091W        W79691   9.749   9.873   0.948
 9092W        W79692  31.646   3.286  10.649
 9093W        W79693  42.598   4.221  12.103
 9094W        W79694  18.918  10.709   3.751
 9095W        W79695  41.337  26.399   4.582
 9096W        W79696  34.990  24.572   0.393
 9097W        W79697  14.641  40.723  12.471
 9098W        W79698  10.740   6.368  13.294
 9099W        W79699   6.937  28.969  10.524
 9100W        W79700  18.823  15.136   4.553
 9101W        W79701   1.479   5.355   4.565
 9102W        W79702   1.511   0.939   3.884
 9103W        W79703  19.397  19.136   0.701
 9104W        W79704  34.807  31.908   0.844
 9105W        W79705  10.210   7.988  13.655
 9106W        W79706  11.681  22.670  11.162
 9107W        W79707   2.788  30.983   1.350
 9108W        W79708  44.755  11.309  12.580
 9109W        W79709  24.715  28.022  12.613
 9110W        W79710   0.490  18.144  12.934
 9111W        W79711  35.950  39.887  12.445
 9112W        W79712  38.591  44.308   1.034
 9113W        W79713  36.989  33.780  12.457
 9114W        W79714   2.037   4.008  13.306
 9115W        W79715   4.964  44.218  10.868
 9116W        W79716  28.734  34.349  12.568
 9117W        W79717  19.127  32.407   0.168
 9118W        W79718  34.642  28.931   1.284
 9119W        W79719  43.895  25.147   2.628
 9120W        W79720  33.962  38.015  13.497
 9121W        W79721   6.958   4.552  12.088
 9122W        W79722  12.088   8.814   4.669
 9123W        W79723  29.365  22.252   0.363
 9124W        W79724  26.519  26.183   4.184
 9125W        W79725  13.839  32.666  12.354
 9126W        W79726  31.192  38.829  10.990
 9127W        W79727  18.919  26.567  13.823
 9128W        W79728  18.606  44.340  12.115
 9129W        W79729  37.574  19.683  10.661
 9130W        W79730   7.964  12.212  13.403
 9131W        W79731  19.502   8.446   3.720
 9132W        W79732  42.649   3.652   5.001
 9133W        W79733  20.637   1.465  11.614
 9134W        W79734  23.468  30.414  14.001
 9135W        W79735  34.941  28.408  14.658
 9136W        W79736   5.723   6.090   0.440
 9137W        W79737  10.185  22.746   4.799
 9138W        W79738  23.743  16.357  13.842
 9139W        W79739  24.072  22.500   0.950
 9140W        W79740  14.612  37.328  12.627
 9141W        W79741  17.778  35.041  11.847
 9142W        W79742  33.540  15.812   2.690
 9143W        W79743  40.422  17.287   1.540
 9144W        W79744  34.506   4.129  12.148
 9145W        W79745  19.242  34.633   4.743
 9146W        W79746  41.733  15.070   4.659
 9147W        W79747  20.579   8.966   1.789
 9148W        W79748  32.955  22.982  13.879
 9149W        W79749  18.842   7.324  11.642
 9150W        W79750  16.634  43.381  10.636
 9151W        W79751  26.144  35.404  11.884
 9152W        W79752   4.839  24.635  12.700
 9153W        W79753  25.154  10.620  12.034
 9154W        W79754   6.200  15.778  12.073
 9155W        W79755  28.817  24.995   4.108
 9156W        W79756   6.857  36.887   1.840
 9157W        W79757  34.124  29.091   4.102
 9158W        W79758  37.319  23.397  13.406
 9159W        W79759   6.875  16.517  14.379
 9160W        W79760  44.492   2.521   2.643
 9161W        W79761  32.840   5.180  13.590
 9162W        W79762  32.049  34.142   1.786
 9163W        W79763  40.581   7.725  14.900
 9164W        W79764   2.956  27.271  13.867
 9165W        W79765   6.770  10.742  10.400
 9166W        W79766  29.519  35.619   3.814
 9167W        W79767   4.044   7.465   3.683
 9168W        W79768  28.981  37.981   3.611
 9169W        W79769   7.265  37.029   4.550
 9170W        W79770  36.841  31.550  11.516
 9171W        W79771  19.299   0.322   3.549
 9172W        W79772   2.279  24.507  13.377
 9173W        W79773   2.710  12.670   4.258
 9174W        W79774  19.059   9.928   2.744
 9175W        W79775  34.358   3.226   3.798
 9176W        W79776  31.685  14.813  14.793
 9177W        W79777  13.869   5.715   4.559
 9178W        W79778  27.237  39.114  12.925
 9179W        W79779  18.441  30.963  14.104
 9180W        W79780   0.912  26.613   1.755
 9181W        W79781  43.787  44.252  14.433
 9182W        W79782  13.828  30.548  14.120
 9183W        W79783  15.098  37.542   2.408
 9184W        W79784  19.068   8.188   3.674
 9185W        W79785  36.507  42.313   3.805
 9186W        W79786  25.152   9.794   1.565
 9187W        W79787  37.858   1.110  12.396
 9188W        W79788  14.418  25.915   4.629
 9189W        W79789  31.429   8.438  13.800
 9190W        W79790  14.952  16.549   1.774
 9191W        W79791  18.383  20.753  12.543
 9192W        W79792  19.211  24.471   1.262
 9193W        W79793  17.202   8.464  14.552
 9194W        W79794   8.298  36.791   1.727
 9195W        W79795  17.969  26.932  13.738
 9196W        W79796  44.020  39.826   2.262
 9197W        W79797  10.083  21.637   3.360
 9198W        W79798  22.178  35.106  11.592
 9199W        W79799   2.031  38.449  11.965
 9200W        W79800   3.906  32.023  14.890
 9201W        W79801  20.791  38.659   3.176
 9202W        W79802  25.948   7.401  14.363
 9203W        W79803  37.989  28.101  13.074
 9204W        W79804  39.390  33.390   3.585
 9205W        W79805  23.587  15.412  14.271
 9206W        W79806  35.130  44.425  10.458
 9207W        W79807  22.964  22.986  13.005
 9208W        W79808  34.575  13.531  11.972
 9209W        W79809   6.178  43.736  12.427
 9210W        W79810  28.480  43.358   0.956
 9211W        W79811  33.151  11.619  11.070
 9212W        W79812  21.218   4.811  13.838
 9213W        W79813  19.701  39.655  10.671
 9214W        W79814  42.900  18.688   9.957
 9215W        W79815  36.837  23.691  10.462
 9216W        W79816  27.423  20.707   0.770
 9217W        W79817   3.829  14.819  12.153
 9218W        W79818   6.475  43.403  14.422
 9219W        W79819   9.526  24.649   3.604
 9220W        W79820  10.886   9.535  14.921
 9221W        W79821  36.419  34.632   4.645
 9222W        W79822  36.442  21.644  12.636
 9223W        W79823  33.188  20.467   4.682
 9224W        W79824  10.109   5.278  10.402
 9225W        W79825  15.058  12.576  14.864
 9226W        W79826  21.188  37.255   1.310
 9227W        W79827   9.285  16.482  12.917
 9228W        W79828  44.296  41.982  13.296
 9229W        W79829  37.607  35.860   0.828
 9230W        W79830  13.136  23.559  10.767
 9231W        W79831  41.310   9.255  12.390
 9232W        W79832  24.242  25.198   0.425
 9233W        W79833  32.580   9.663  13.098
 9234W        W79834   0.595  18.991   1.644
 9235W        W79835  30.358  38.889   2.242
 9236W        W79836   3.552  44.475   4.631
 9237W        W79837  28.209  22.152   2.413
 9238W        W79838  35.616  29.143   4.470
 9239W        W79839   0.006   5.570  12.482
 9240W        W79840   3.741  34.640  14.147
 9241W        W79841  24.247  15.983   0.915
 9242W        W79842  33.547  34.574  11.791
 9243W        W79843   3.245  21.242   4.992
 9244W        W79844  15.805  31.041  11.135
 9245W        W79845  12.005  35.844   4.631
 9246W        W79846   4.364  17.585  14.444
 9247W        W79847  25.021  10.827  11.013
 9248W        W79848   6.803  23.690  14.714
 9249W        W79849  41.778  11.242   4.576
 9250W        W79850  14.176  25.487   3.685
 9251W        W79851   2.161  26.113   0.364
 9252W        W79852  30.704   2.023  12.540
 9253W        W79853   2.631   6.713  12.085
 9254W        W79854  19.976  18.986   4.760
 9255W        W79855   9.674  28.555   1.959
 9256W        W79856  40.909  11.091  11.603
 9257W        W79857  10.835  40.555   4.170
 9258W        W79858   5.307  25.150  12.150
 9259W        W79859  26.254   7.549   2.913
 9260W        W79860  42.256  34.091   2.177
 9261W        W79861  38.736   6.244   3.393
 9262W        W79862   1.976  28.647  14.471
 9263W        W79863   8.406  10.541  13.923
 9264W        W79864   3.863  33.357  14.864
 9265W        W79865  41.071  20.426   5.814
 9266W        W79866  34.885  36.322   3.695
 9267W        W79867  30.362  20.231  12.135
 9268W        W79868   9.861  23.236  12.851
 9269W        W79869  20.900  39.739  13.805
 9270W        W79870  42.040  44.512   4.600
 9271W        W79871   3.762   2.744   0.403
 9272W        W79872  39.402  20.419   2.482
 9273W        W79873  43.852  13.799  13.887
 9274W        W79874   2.617  28.284   0.672
 9275W        W79875  10.700  13.865  11.420
 9276W        W79876   8.147  14.347  14.487
 9277W        W79877   3.640  37.304  14.382
 9278W        W79878  35.147  12.229  11.267
 9279W        W79879  44.676  30.420  14.862
 9280W        W79880  15.744   0.714   0.323
 9281W        W79881  34.277  43.011  13.782
 9282W        W79882  29.744   4.218   1.693
 9283W        W79883  20.718  40.285  11.693
 9284W        W79884   9.042  22.672  12.663
 9285W        W79885  36.792  32.758  14.246
 9286W        W79886   1.065  30.487  11.920
 9287W        W79887  17.086  36.825   5.047
 9288W        W79888  43.235  14.593   3.143
 9289W        W79889  17.883  25.709   1.341
 9290W        W79890   6.896  36.502  12.001
 9291W        W79891  25.357  21.857  12.404
 9292W        W79892  25.428  23.205   1.884
 9293W        W79893  15.630  10.755   4.477
 9294W        W79894  37.836  11.253  10.700
 9295W        W79895  34.887  21.814   2.835
 9296W        W79896  35.168  43.434  11.452
 9297W        W79897   9.418   8.451   0.725
 9298W        W79898   2.766  23.150  12.987
 9299W        W79899   8.260  16.857   0.732
 9300W        W79900  39.000  30.370  13.866
 9301W        W79901  40.873  17.060   1.469
 9302W        W79902   5.745  32.014  14.943
 9303W        W79903  14.858  33.191  12.977
 9304W        W79904  17.192  33.409  12.373
 9305W        W79905  29.415  38.052   3.930
 9306W        W79906  44.004  17.581   3.509
 9307W        W79907  17.680  37.252   3.892
 9308W        W79908  23.114  32.537  13.333
 9309W        W79909   4.637   1.820   0.715
 9310W        W79910  24.218   1.774  14.197
 9311W        W79911   7.984   6.488  13.679
 9312W        W79912  19.993  35.033   1.252
 9313W        W79913  39.581  19.686  11.648
 9314W        W79914  21.412  29.500   2.112
 9315W        W79915   3.783   1.276  13.842
 9316W        W79916   1.011   3.960   1.910
 9317W        W79917  42.019  23.004  10.005
 9318W        W79918  23.586   9.784   1.364
 9319W        W79919  25.205  34.492  14.226
 9320W        W79920  26.608  30.207   0.293
 9321W        W79921  25.942   9.749   3.240
 9322W        W79922  13.176   2.690   4.122
 9323W        W79923  12.396  44.390  11.061
 9324W        W79924  36.763  12.667   2.801
 9325W        W79925  34.373  37.253   1.887
 9326W        W79926  11.804  17.211  11.220
 9327W        W79927  17.045  25.459   0.778
 9328W        W79928  27.199  35.734   0.457
 9329W        W79929  25.677  44.042   1.959
 9330W        W79930  32.634   5.220  11.610
 9331W        W79931   6.735  22.163   2.841
 9332W        W79932  37.485  42.438   3.731
 9333W        W79933  14.206  37.660  12.380
 9334W        W79934  27.469   3.556   4.226
 9335W        W79935  30.908  20.677   4.188
 9336W        W79936   2.255  37.495   0.779
 9337W        W79937  38.814   2.407   2.409
 9338W        W79938  23.104  22.408  10.773
 9339W        W79939  25.219   9.863  12.533
 9340W        W79940   4.739   1.814  13.296
 9341W        W79941  26.466  14.709   5.071
 9342W        W79942  39.556  28.972  13.168
 9343W        W79943  28.715  32.036  13.755
 9344W        W79944  19.053  30.901  11.556
 9345W        W79945  22.172  15.543  14.801
 9346W        W79946  31.750  30.935   1.257
 9347W        W79947  31.413  12.058  11.613
 9348W        W79948  34.377  35.448  12.359
 9349W        W79949  20.483  14.632   4.502
 9350W        W79950  16.878  25.659   3.622
 9351W        W79951  33.939  15.528   3.706
 9352W        W79952  26.117  32.162   0.933
 9353W        W79953  13.647  17.655  14.273
 9354W        W79954   3.530  18.162  11.589
 9355W        W79955  10.190   6.216   1.346
 9356W        W79956  12.980  21.452   0.436
 9357W        W79957  15.223  17.758  12.923
 9358W        W79958  19.548  22.136  11.439
 9359W        W79959  24.198   7.731   0.429
 9360W        W79960  37.109  35.071  13.794
 9361W        W79961  14.729  35.598   0.507
 9362W        W79962  42.225   2.407   1.440
 9363W        W79963   3.881  19.138   0.915
 9364W        W79964  14.386  33.944  13.374
 9365W        W79965  34.496   6.371   3.514
 9366W        W79966   0.933  25.651  13.103
 9367W        W79967  20.565   1.938  14.349
 9368W        W79968  38.840   0.654  11.581
 9369W        W79969   5.887  31.420  14.505
 9370W        W79970  18.685   1.065  12.855
 9371W        W79971  34.949  27.035   1.468
 9372W        W79972  41.905  26.535   1.203
 9373W        W79973  43.317  12.855  10.711
 9374W        W79974  10.967  27.206  11.992
 9375W        W79975   3.012  37.378   2.765
 9376W        W79976   6.520  17.642  13.755
 9377W        W79977   4.171   4.294  13.871
 9378W        W79978   2.384  29.139   4.921
 9379W        W79979  34.984  28.288   5.291
 9380W        W79980  40.234  39.418  12.478
 9381W        W79981  33.097  37.436  11.133
 9382W        W79982  10.645  33.945  13.322
 9383W        W79983  20.314   4.412  12.913
 9384W        W79984   6.381  21.718  11.719
 9385W        W79985  28.198  25.917  12.228
 9386W        W79986  43.744  22.654   2.847
 9387W        W79987   8.667  29.614   0.277
 9388W        W79988  19.775  20.252   4.062
 9389W        W79989  36.435  30.674  10.750
 9390W        W79990  12.051  41.852   1.655
 9391W        W79991  13.649  20.987  13.573
 9392W        W79992   7.041  32.310   1.442
 9393W        W79993   0.335   4.574   3.311
 9394W        W79994  24.322  13.160   2.828
 9395W        W79995   8.176  14.849  10.713
 9396W        W79996   0.817  22.507   1.200
 9397W        W79997  34.365  17.588  13.354
 9398W        W79998  13.126   6.008   1.900
 9399W        W79999   3.523  27.500   0.027
 9400W        W80000  12.603   9.714   1.816
 9401W        W80001  43.760  24.484  13.334
 9402W        W80002  34.911   3.696  13.740
 9403W        W80003   9.359  42.717   4.249
 9404W        W80004  23.916  38.524  13.071
 9405W        W80005  42.060  36.060  14.974
 9406W        W80006  34.108   7.844   4.476
 9407W        W80007  29.511  41.483  13.442
 9408W        W80008   7.192  41.639   2.405
 9409W        W80009  29.673  22.675   2.887
 9410W        W80010  39.076  26.461   0.355
 9411W        W80011  36.339  33.463  13.459
 9412W        W80012  41.238   4.709   4.031
 9413W        W80013  38.230  20.076  11.025
 9414W        W80014  33.124  26.839  10.398
 9415W        W80015  18.944  27.629   2.801
 9416W        W80016  16.569  18.062  13.047
 9417W        W80017  35.527  37.273   2.550
 9418W        W80018  34.598  16.140   0.796
 9419W        W80019  34.551  25.764   3.270
 9420W        W80020  14.147   6.350   2.022
 9421W        W80021  14.826  30.362  13.565
 9422W        W80022   7.877  29.771   4.451
 9423W        W80023  38.570  29.436  12.146
 9424W        W80024   2.137  14.400   2.438
 9425W        W80025  37.689  17.262   4.984
 9426W        W80026   8.543  25.048  12.753
 9427W        W80027  44.412  25.194  12.426
 9428W        W80028   7.384  26.464  12.247
 9429W        W80029  36.938  22.417   1.271
 9430W        W80030  19.444  24.212  14.971
 9431W        W80031  31.701  41.019  12.610
 9432W        W80032  28.589  35.833  14.944
 9433W        W80033  40.028  24.414   0.347
 9434W        W80034   4.312  17.054   2.438
 9435W        W80035  40.504  17.195   5.097
 9436W        W80036  14.898  28.387  10.492
 9437W        W80037  31.691  25.405  11.092
 9438W        W80038   9.125  31.954   1.647
 9439W        W80039  16.100  22.908  13.831
 9440W        W80040  27.192  43.323  13.009
 9441W        W80041   1.443  11.148   1.297
 9442W        W80042  41.977  12.275  13.579
 9443W        W80043   1.217  43.511  14.711
 9444W        W80044   1.295  21.711   1.315
 9445W        W80045  13.568  40.616   9.809
 9446W        W80046  12.781  33.397  13.759
 9447W        W80047   6.494   3.743   4.481
 9448W        W80048  28.095  20.789  10.815
 9449W        W80049  36.436   8.636  14.887
 9450W        W80050  37.342  30.184  13.219
 9451W        W80051  44.411  42.938   1.357
 9452W        W80052  40.617  44.049  14.463
 9453W        W80053  44.063  38.314   1.311
 9454W        W80054   3.065  41.454   2.569
 9455W        W80055  33.020  15.963   1.482
 9456W        W80056  36.582  33.125  13.890
 9457W        W80057  15.631  34.845  14.895
 9458W        W80058  20.737   0.273  13.472
 9459W        W80059  14.512   0.400   1.445
 9460W        W80060  35.834  20.617   4.880
 9461W        W80061   2.182  19.054   1.729
 9462W        W80062  25.229  11.030  11.456
 9463W        W80063  13.497   8.758   2.822
 9464W        W80064  42.849  31.117   3.117
 9465W        W80065  10.811  40.624  11.108
 9466W        W80066   4.767   7.693  10.756
 9467W        W80067  32.712  17.689   0.297
 9468W        W80068  26.644   9.642  11.447
 9469W        W80069  44.946   8.320   3.344
 9470W        W80070  42.349   8.609   9.874
 9471W        W80071   7.768  10.515   3.112
 9472W        W80072  11.342  23.964   2.021
 9473W        W80073  14.772   4.065   1.827
 9474W        W80074  23.281  41.751   0.973
 9475W        W80075  39.870  18.557  11.344
 9476W        W80076  41.796  17.603   4.758
 9477W        W80077  21.817  30.795  13.358
 9478W        W80078  32.742  27.060  14.812
 9479W        W80079  38.963  38.566   1.200
 9480W        W80080  23.167  32.029   2.199
 9481W        W80081   8.455   8.200  13.085
 9482W        W80082  41.921   2.188   2.702
 9483W        W80083  12.854  20.519   2.347
 9484W        W80084  35.064  19.708  11.766
 9485W        W80085   6.315   1.774   2.689
 9486W        W80086  31.019  18.959  13.360
 9487W        W80087  31.218  24.801   5.110
 9488W        W80088  11.166  11.835   3.561
 9489W        W80089  44.208  33.967  13.800
 9490W        W80090  43.712  20.750   0.755
 9491W        W80091  34.515  29.130  14.732
 9492W        W80092  10.370  11.582   3.068
 9493W        W80093  32.485  33.969  10.401
 9494W        W80094  21.025  43.567   0.860
 9495W        W80095  41.354  44.031  11.558
 9496W        W80096  36.559  18.393  12.463
 9497W        W80097   3.550  41.249  10.513
 9498W        W80098   1.181  22.527   1.581
 9499W        W80099  15.536  40.993  12.938
 9500W        W80100  40.687  44.980  13.653
 9501W        W80101  28.947   9.904   0.911
 9502W        W80102  30.896  34.001  14.816
 9503W        W80103   7.726  15.426  13.141
 9504W        W80104  20.076   4.416   3.622
 9505W        W80105   2.705  44.179  14.322
 9506W        W80106  20.090  22.585  12.037
 9507W        W80107  15.995  10.176  12.005
 9508W        W80108   9.588  16.543   2.858
 9509W        W80109   0.464  33.945  10.286
 9510W        W80110   4.704  10.264   3.589
 9511W        W80111  36.108  26.645   1.700
 9512W        W80112  11.732  33.127   4.606
 9513W        W80113  32.526  23.610   1.854
 9514W        W80114  31.106  20.756  13.347
 9515W        W80115  19.686  10.938  13.857
 9516W        W80116  27.097   7.010   2.311
 9517W        W80117   1.045  41.323  13.493
 9518W        W80118   1.647  23.752  14.754
 9519W        W80119  25.058  21.485  14.775
 9520W        W80120  19.766  17.486   3.283
 9521W        W80121   4.231  24.408   3.304
 9522W        W80122  22.185  42.881  10.243
 9523W        W80123  26.987   4.678   2.280
 9524W        W80124  15.725  38.549   0.575
 9525W        W80125  40.303  23.569   0.384
 9526W        W80126  16.623  32.139   3.244
 9527W        W80127  19.881  27.706  14.848
 9528W        W80128  24.734  38.273   1.979
 9529W        W80129  15.034  28.747  13.128
 9530W        W80130  44.297  17.339  11.576
 9531W        W80131  39.135  18.004   5.431
 9532W        W80132  20.303  23.539  13.397
 9533W        W80133  27.668   0.321  11.032
 9534W        W80134  30.922  20.244  13.299
 9535W        W80135  32.513  10.293  11.773
 9536W        W80136  26.255  18.761  13.242
 9537W        W80137   9.309  40.529  11.100
 9538W        W80138  30.553  30.495  12.958
 9539W        W80139  13.774  10.130   3.683
 9540W        W80140  39.539  17.584   1.437
 9541W        W80141  43.033  13.757   1.789
 9542W        W80142  30.645   9.255  14.741
 9543W        W80143  15.676  23.472  12.128
 9544W        W80144   6.162   5.301   3.529
 9545W        W80145  13.646  11.838   1.392
 9546W        W80146  25.607  12.593   3.700
 9547W        W80147  41.023  40.432  11.197
 9548W        W80148  33.228  29.754   2.665
 9549W        W80149   4.840  11.227  10.649
 9550W        W80150  18.579  33.275   3.323
 9551W        W80151  44.905  39.539   0.361
 9552W        W80152  27.694  40.067  10.202
 9553W        W80153  15.838  23.969  10.846
 9554W        W80154  18.794  28.634  12.043
 9555W        W80155  20.310  12.865  13.108
 9556W        W80156  20.947  10.167  12.046
 9557W        W80157  27.860  24.220  11.928
 9558W        W80158  17.559  24.520   2.808
 9559W        W80159  25.547  41.987   3.774
 9560W        W80160   9.323  11.050   2.360
 9561W        W80161  36.608  39.334   0.841
 9562W        W80162  17.065  20.794   0.147
 9563W        W80163  37.906  18.834  12.938
 9564W        W80164  42.893  42.733  13.564
 9565W        W80165   0.422  36.127  12.430
 9566W        W80166  40.343  28.074  12.180
 9567W        W80167  15.927  37.991  10.650
 9568W        W80168  42.812  21.953  14.403
 9569W        W80169  38.448  40.057   3.001
 9570W        W80170  18.021  44.404   1.725
 9571W        W80171  32.699  38.452   2.283
 9572W        W80172   3.388  28.309   2.329
 9573W        W80173   4.950  19.807   2.374
 9574W        W80174  20.122  18.398   2.548
 9575W        W80175  10.131  21.769  13.374
 9576W        W80176  22.450  30.335  12.312
 9577W        W80177  36.025  44.443   2.477
 9578W        W80178  23.145  44.519   0.467
 9579W        W80179  33.554  27.005  11.985
 9580W        W80180  19.965  34.346  13.980
 9581W        W80181   2.387  14.799   3.320
 9582W        W80182   1.255  39.874   4.126
 9583W        W80183   5.093  15.112  10.990
 9584W        W80184  15.119  31.965   4.348
 9585W        W80185  10.296  35.531   3.230
 9586W        W80186  20.680  35.020  11.553
 9587W        W80187  38.078  42.242  14.729
 9588W        W80188  17.044  12.686   4.098
 9589W        W80189  29.062  16.666   4.586
 9590W        W80190  33.962   5.980   0.786
 9591W        W80191  27.740  43.724   1.679
 9592W        W80192  37.844  44.311   3.227
 9593W        W80193  10.926  43.698  14.903
 9594W        W80194  27.495  11.086  11.953
 9595W        W80195  38.766   2.736  10.618
 9596W        W80196  15.833  12.157   0.826
 9597W        W80197   1.739   6.706  11.119
 9598W        W80198  14.246  30.711  12.030
 9599W        W80199   0.236  14.646  14.449
 9600W        W80200   9.146  30.952   4.162
 9601W        W80201   7.307  11.205   0.983
 9602W        W80202   6.793   2.454  13.911
 9603W        W80203  16.244  28.120  13.110
 9604W        W80204   5.458  27.030  13.086
 9605W        W80205  16.559   5.260   3.461
 9606W        W80206   3.467  22.055   0.457
 9607W        W80207   3.173  42.793  11.251
 9608W        W80208  23.045  24.462   2.239
 9609W        W80209  16.969  35.354   0.666
 9610W        W80210  21.224  15.023  12.809
 9611W        W80211   1.387  35.119  13.527
 9612W        W80212  41.543  28.801  13.635
 9613W        W80213  36.595   8.641   1.861
 9614W        W80214  40.377  24.494  14.080
 9615W        W80215   6.226  30.040  10.713
 9616W        W80216  35.021   6.948  13.504
 9617W        W80217  32.158  25.639  13.896
 9618W        W80218  11.943  35.006   0.518
 9619W        W80219  41.295  22.096   3.281
 9620W        W80220  14.036  20.943   2.427
 9621W        W80221  25.022  20.710   2.180
 9622W        W80222  30.402   8.513  13.856
 9623W        W80223   1.887  40.779   2.892
 9624W        W80224  30.985  32.525  12.837
 9625W        W80225  19.973  36.950  14.683
 9626W        W80226  26.484  26.605  12.601
 9627W        W80227  13.075  11.165  11.716
 9628W        W80228   3.859  11.600  10.277
 9629W        W80229  35.425  10.299   1.453
 9630W        W80230  10.836  37.395  10.666
 9631W        W80231  19.105  20.186  14.460
 9632W        W80232  31.141  20.031   4.479
 9633W        W80233  43.089  10.302   9.975
 9634W        W80234  33.803  27.741   2.352
 9635W        W80235  24.132  20.293  12.435
 9636W        W80236   4.260  31.996   3.647
 9637W        W80237   2.406   4.894  14.993
 9638W        W80238   6.032   4.943  11.345
 9639W        W80239  17.567   2.782  10.691
 9640W        W80240   4.456  32.004  14.705
 9641W        W80241  22.954  32.124   0.429
 9642W        W80242  36.401  23.487  13.308
 9643W        W80243  26.030  24.458   0.299
 9644W        W80244  40.068  38.769  13.501
 9645W        W80245  36.374   0.268   4.203
 9646W        W80246  11.121  17.039   4.546
 9647W        W80247  19.185   5.286  10.662
 9648W        W80248   9.325  10.923   0.870
 9649W        W80249   2.379  31.742  12.394
 9650W        W80250  19.638  24.514  13.439
 9651W        W80251  44.863   9.637   2.228
 9652W        W80252   0.921  10.904   2.470
 9653W        W80253  28.069  25.365  13.551
 9654W        W80254  11.635  20.592   0.965
 9655W        W80255  29.485   6.649  10.426
 9656W        W80256  22.737  10.643   1.931
 9657W        W80257  30.677   9.229   0.785
 9658W        W80258  29.719  26.192   1.793
 9659W        W80259  12.082  43.573   2.190
 9660W        W80260   4.503  21.385  14.754
 9661W        W80261  13.560  42.922  11.554
 9662W        W80262   7.838   7.354  14.769
 9663W        W80263  44.215  36.895  13.943
 9664W        W80264  37.339  13.327   1.854
 9665W        W80265  29.689  28.080   0.834
 9666W        W80266  36.460   5.475  14.343
 9667W        W80267  20.122  20.683   4.038
 9668W        W80268  14.177   6.640  11.659
 9669W        W80269   2.146  37.016  13.324
 9670W        W80270  37.922  30.043  14.510
 9671W        W80271  19.745  14.433   0.733
 9672W        W80272  38.886  19.527   0.012
 9673W        W80273  37.549  16.839  12.648
 9674W        W80274  23.182  41.637  12.298
 9675W        W80275  17.238  31.451  14.482
 9676W        W80276  32.179  29.764   3.278
 9677W        W80277  31.158  33.958   1.681
 9678W        W80278  13.947  38.365  11.459
 9679W        W80279  44.987  12.132   3.955
 9680W        W80280  21.243  40.637   0.905
 9681W        W80281  18.251  26.797   4.146
 9682W        W80282   5.394  19.222  14.750
 9683W        W80283   3.819   7.824  14.216
 9684W        W80284  28.388  26.597   0.327
 9685W        W80285  14.191   6.638  10.660
 9686W        W80286   1.507  27.747   2.611
 9687W        W80287  32.797  10.685  14.360
 9688W        W80288  39.130  37.339   2.732
 9689W        W80289  25.764  21.731   1.745
 9690W        W80290   3.168   1.557  11.917
 9691W        W80291  25.858   6.354   2.231
 9692W        W80292  27.062   6.356  13.849
 9693W        W80293  23.193  14.901  14.826
 9694W        W80294  35.448   2.203   1.731
 9695W        W80295  27.972  10.061  13.988
 9696W        W80296  20.096  25.988  12.702
 9697W        W80297  20.294  11.693   1.754
 9698W        W80298  31.537  29.434  12.364
 9699W        W80299  15.265  29.703  14.577
 9700W        W80300  15.741  42.079  14.708
 9701W        W80301  37.764   8.945  13.862
 9702W        W80302  43.592   0.744   4.022
 9703W        W80303  44.231  27.399   3.585
 9704W        W80304  23.101  27.483   4.593
 9705W        W80305  16.364   6.438  14.622
 9706W        W80306   8.830  39.579   1.008
 9707W        W80307  41.306  27.753  11.464
 9708W        W80308  25.577   7.811   0.885
 9709W        W80309  22.536  38.747  13.083
 9710W        W80310  15.701   9.494   2.286
 9711W        W80311  31.422   0.908  12.860
 9712W        W80312  29.631  17.761   3.710
 9713W        W80313  30.681  23.777   0.314
 9714W        W80314  27.694  25.937   1.727
 9715W        W80315  39.071   6.167   4.826
 9716W        W80316  36.161  19.297  11.383
 9717W        W80317  32.485  19.224   2.804
 9718W        W80318  38.764   7.622   3.659
 9719W        W80319  36.986  25.433  11.981
 9720W        W80320  28.065  22.790  12.707
 9721W        W80321  30.047  17.863  14.393
 9722W        W80322  21.239  35.050   4.951
 9723W        W80323  25.221  22.094   3.067
 9724W        W80324   4.430   6.372   0.185
 9725W        W80325  36.182  41.052   1.240
 9726W        W80326  27.228  32.338   2.884
 9727W        W80327  33.008  19.552   0.233
 9728W        W80328  37.373  30.398   1.910
 9729W        W80329  34.933  31.702   1.327
 9730W        W80330  28.958   1.359   2.612
 9731W        W80331  12.666  35.168  14.902
 9732W        W80332   2.428  27.430   2.695
 9733W        W80333   5.762  34.534   1.200
 9734W        W80334  10.371   7.744  10.687
 9735W        W80335  44.983  29.186   4.103
 9736W        W80336  22.257   3.274   0.888
 9737W        W80337  20.239  36.684  11.105
 9738W        W80338  20.479  19.693   4.653
 9739W        W80339  43.890  44.894   2.739
 9740W        W80340  22.830  18.216   1.904
 9741W        W80341  13.738  15.075  14.907
 9742W        W80342  27.148  23.901   4.508
 9743W        W80343   6.018  41.288  11.026
 9744W        W80344   8.675   8.187  12.613
 9745W        W80345   8.693  29.324   4.135
 9746W        W80346  39.854  43.353  12.730
 9747W        W80347  31.006  28.052  13.387
 9748W        W80348  38.880  28.637   3.406
 9749W        W80349  44.844  12.795   1.780
 9750W        W80350  25.697  17.002   4.770
 9751W        W80351  19.255   4.921   3.764
 9752W        W80352  18.438   2.272  11.525
 9753W        W80353  16.861   5.890   4.108
 9754W        W80354  35.873  37.944  14.374
 9755W        W80355   1.421  39.473  11.683
 9756W        W80356  28.056  38.255   3.199
 9757W        W80357  18.766  41.474   0.447
 9758W        W80358  43.175  25.684  12.078
 9759W        W80359   6.849  26.326  11.533
 9760W        W80360  15.680  32.137   4.108
 9761W        W80361  35.054  32.162   0.409
 9762W        W80362  16.629  38.864  14.415
 9763W        W80363  40.438  33.838   1.804
 9764W        W80364   0.692   4.318   2.664
 9765W        W80365  40.014   4.032   2.113
 9766W        W80366   5.136  15.904   1.608
 9767W        W80367  21.750  36.630   1.963
 9768W        W80368  43.614  28.424   0.801
 9769W        W80369  28.173  17.810  11.986
 9770W        W80370  38.236  24.906   0.128
 9771W        W80371  11.823  15.836   3.676
 9772W        W80372  41.328  34.410  11.621
 9773W        W80373   6.869  28.932  14.320
 9774W        W80374  37.555  43.784  10.664
 9775W        W80375   8.252   8.826   3.598
 9776W        W80376  23.756  18.995  14.845
 9777W        W80377  14.175  24.341  11.295
 9778W        W80378  41.928  44.595   0.794
 9779W        W80379  11.107  17.325   1.664
 9780W        W80380  30.546  33.121   4.526
 9781W        W80381  31.497  19.003   4.300
 9782W        W80382  26.502  18.217  14.367
 9783W        W80383  17.695   5.961   4.522
 9784W        W80384  31.396   1.486  14.695
 9785W        W80385  36.497   9.903   1.071
 9786W        W80386  18.332  19.871  12.629
 9787W        W80387  33.910  25.263  14.494
 9788W        W80388  14.622  42.547  12.922
 9789W        W80389   2.299  23.226  11.880
 9790W        W80390  15.723  15.444  11.258
 9791W        W80391   9.183  21.476   0.405
 9792W        W80392  41.108  38.825   0.092
 9793W        W80393  17.584   8.175   0.449
 9794W        W80394  40.936  23.731   4.629
 9795W        W80395  41.000  10.564  14.414
 9796W        W80396   1.215  31.909  13.729
 9797W        W80397  33.396  33.019  10.316
 9798W        W80398  30.858  32.086   1.951
 9799W        W80399  41.285   9.256   3.149
 9800W        W80400  34.909   9.277   5.017
 9801W        W80401  12.287  41.039  14.079
 9802W        W80402  35.917  16.786  12.442
 9803W        W80403  38.232  21.800   3.671
 9804W        W80404  33.400   1.370  12.059
 9805W        W80405  40.263  32.920   3.600
 9806W        W80406   6.878  22.067   0.220
 9807W        W80407  34.857  42.343  11.142
 9808W        W80408  28.193  33.961   2.839
 9809W        W80409  16.683  17.569   3.341
 9810W        W80410  16.459  30.625   4.169
 9811W        W80411   4.250  31.119   1.511
 9812W        W80412  15.598  31.585   3.271
 9813W        W80413  32.389  19.093  10.694
 9814W        W80414   2.644  14.271  14.814
 9815W        W80415  37.683  39.848   4.146
 9816W        W80416  30.069   1.135  13.934
 9817W        W80417  30.200  39.000  11.088
 9818W        W80418   7.703   0.547   4.178
 9819W        W80419  42.345   8.189   3.970
 9820W        W80420  21.718  11.826  11.238
 9821W        W80421   6.959   4.296   2.175
 9822W        W80422  33.417   1.289   4.151
 9823W        W80423   1.346   3.461  13.513
 9824W        W80424   0.141   8.365  14.960
 9825W        W80425  31.441   9.388   4.127
 9826W        W80426  34.045  26.579   1.843
 9827W        W80427   5.772  15.338  12.436
 9828W        W80428   2.924  28.191   3.540
 9829W        W80429  22.989  31.843  13.024
 9830W        W80430   8.093   1.683   1.844
 9831W        W80431  29.873  16.684   0.863
 9832W        W80432  21.023  11.801   4.601
 9833W        W80433  35.361   9.847   0.546
 9834W        W80434   9.207   6.199  10.631
 9835W        W80435   7.557  20.832   3.682
 9836W        W80436  27.543  39.381  14.574
 9837W        W80437  39.240  18.206  12.453
 9838W        W80438  24.498  44.783  13.054
 9839W        W80439  43.529  25.158   3.645
 9840W        W80440   3.362  36.090  13.984
 9841W        W80441  40.624  18.210   4.115
 9842W        W80442  40.527  44.469  12.841
 9843W        W80443   6.835  12.101   3.234
 9844W        W80444  22.165  15.216   0.203
 9845W        W80445  34.693  26.617   4.604
 9846W        W80446   7.999  24.509   1.241
 9847W        W80447   2.840  34.590  14.324
 9848W        W80448  13.104  24.766  11.507
 9849W        W80449  16.133  29.472   3.653
 9850W        W80450   3.765  30.590  11.196
 9851W        W80451  35.618  44.683  11.668
 9852W        W80452  37.413  18.311  10.728
 9853W        W80453  12.681  11.830   2.409
 9854W        W80454  27.684  23.598  13.576
 9855W        W80455   3.905  22.164   1.700
 9856W        W80456  30.623  13.742   2.269
 9857W        W80457   6.117  43.405  12.869
 9858W        W80458  13.815  40.892   0.710
 9859W        W80459  35.432  12.350   2.837
 9860W        W80460  30.980  38.289  12.487
 9861W        W80461  41.811  25.732   1.880
 9862W        W80462  39.267  44.304  11.016
 9863W        W80463  23.987  42.195  11.945
 9864W        W80464  11.401  38.451  11.399
 9865W        W80465  11.330  10.301   1.995
 9866W        W80466  32.435  39.207  12.184
 9867W        W80467  42.874  15.218   1.274
 9868W        W80468  26.740  42.151  11.113
 9869W        W80469  37.468  19.706   2.985
 9870W        W80470  26.094  23.245  14.510
 9871W        W80471  38.451   6.912   4.489
 9872W        W80472  44.225  23.465   3.271
 9873W        W80473  23.256  29.544   3.741
 9874W        W80474  26.156   7.436  12.314
 9875W        W80475  36.030  29.025  10.330
 9876W        W80476  35.158  28.696  14.296
 9877W        W80477  20.936   6.743  11.147
 9878W        W80478  31.613   9.960  12.888
 9879W        W80479  30.581   3.785  14.237
 9880W        W80480   6.785  13.254  11.956
 9881W        W80481   7.262   2.336   1.738
 9882W        W80482  42.002  41.872  12.182
 9883W        W80483  41.887  41.505   2.664
 9884W        W80484  26.404   7.693  13.137
 9885W        W80485  23.606   9.183  12.970
 9886W        W80486   6.394  15.161  13.708
 9887W        W80487   9.369  19.794   1.141
 9888W        W80488  32.564  10.883  14.845
 9889W        W80489  29.504  13.463  10.873
 9890W        W80490  22.512   5.125  13.450
 9891W        W80491  31.203   7.443  14.268
 9892W        W80492  32.070  11.817   5.069
 9893W        W80493  36.580  20.356  12.459
 9894W        W80494  25.919   0.742  10.634
 9895W        W80495  37.829  20.496   2.250
 9896W        W80496  25.590  31.643   0.176
 9897W        W80497  18.854   3.004   1.730
 9898W        W80498  27.155  19.954   0.257
 9899W        W80499  19.679   5.672  11.518
 9900W        W80500  12.775  24.680   0.819
 9901W        W80501  44.535  43.267   4.702
 9902W        W80502   8.256  26.559  12.768
 9903W        W80503  40.392  40.329   2.175
 9904W        W80504   0.392  22.738   4.735
 9905W        W80505  29.933   6.834   4.283
 9906W        W80506   1.270  19.094  13.519
 9907W        W80507  44.850   8.733   0.691
 9908W        W80508  44.822   8.498  13.875
 9909W        W80509  23.668  20.758   1.729
 9910W        W80510  13.631  26.866  11.094
 9911W        W80511   6.288  18.019   1.350
 9912W        W80512  42.846   7.195  14.877
 9913W        W80513  22.190  25.900   0.467
 9914W        W80514  40.999   3.270   2.843
 9915W        W80515  44.036   1.181  13.441
 9916W        W80516  43.456  12.220   0.769
 9917W        W80517   3.560  40.934   3.701
 9918W        W80518  10.391  15.650   1.901
 9919W        W80519   8.349  24.078  10.640
 9920W        W80520   1.361  42.885   0.931
 9921W        W80521  16.597  25.197   2.306
 9922W        W80522  21.703  23.172   3.890
 9923W        W80523  23.243   4.062  11.031
 9924W        W80524  39.955  15.410  11.980
 9925W        W80525  14.886  29.613  13.148
 9926W        W80526  28.631   8.417  14.778
 9927W        W80527  11.861  39.610   2.765
 9928W        W80528   8.000  29.794  12.568
 9929W        W80529  37.921  15.290  13.554
 9930W        W80530   2.741  42.883   2.492
 9931W        W80531  20.391   8.020  14.214
 9932W        W80532  27.845  21.489  12.921
 9933W        W80533  35.499  24.248  11.127
 9934W        W80534   3.241  22.427   5.081
 9935W        W80535  26.536  24.690  12.443
 9936W        W80536  25.173   8.367  14.994
 9937W        W80537   0.721  36.037   4.661
 9938W        W80538  29.538  15.878   5.323
 9939W        W80539  43.935  13.910   2.065
 9940W        W80540  31.106  18.726  10.717
 9941W        W80541  31.348  13.912   2.654
 9942W        W80542   5.922  26.686   0.853
 9943W        W80543  14.131  24.381   4.953
 9944W        W80544  14.228  20.502   2.649
 9945W        W80545  38.575  18.815   0.939
 9946W        W80546   2.484  41.656   1.351
 9947W        W80547   9.072  12.236   3.294
 9948W        W80548  29.040  21.997  13.128
 9949W        W80549  36.091  32.488  13.335
 9950W        W80550  10.218  29.496   2.210
 9951W        W80551   0.314  20.001   3.556
 9952W        W80552  37.432  15.582   0.855
 9953W        W80553  31.132  25.080   4.656
 9954W        W80554  15.807  41.494   2.397
 9955W        W80555  41.831  30.067   1.730
 9956W        W80556  25.153  39.090   1.827
 9957W        W80557  34.556   0.939   2.337
 9958W        W80558  33.936  23.150  14.307
 9959W        W80559  13.090   6.983   0.259
 9960W        W80560  36.530  15.691  14.020
 9961W        W80561  37.177  44.241   0.828
 9962W        W80562  31.385  30.039  14.700
 9963W        W80563  19.154   5.744   2.779
 9964W        W80564  30.589   5.386   2.381
 9965W        W80565  41.241   7.913  11.501
 9966W        W80566   3.466  19.716   1.711
 9967W        W80567  40.303  20.560  10.491
 9968W        W80568  26.522  13.090   3.295
 9969W        W80569   4.920   7.153   4.055
 9970W        W80570  32.471  44.074  10.496
 9971W        W80571  43.283  36.344   1.734
 9972W        W80572  29.549  20.721   3.402
 9973W        W80573  38.341  31.831  10.833
 9974W        W80574  35.852   0.225   4.138
 9975W        W80575  36.434  41.182   4.436
 9976W        W80576  14.306  29.691   0.495
 9977W        W80577  21.570  44.046   3.091
 9978W        W80578  42.247   6.331  14.055
 9979W        W80579  44.822  20.318   0.473
 9980W        W80580   9.725  42.286   1.418
 9981W        W80581  15.713  31.840  12.046
 9982W        W80582   3.718  20.303  14.566
 9983W        W80583  26.695  10.141  12.093
 9984W        W80584  39.995  16.812  12.007
 9985W        W80585  29.207  23.967  14.525
 9986W        W80586   9.250  20.301  10.669
 9987W        W80587  14.169  16.212  11.496
 9988W        W80588  42.804  28.094  13.056
 9989W        W80589  31.293  25.459   0.955
 9990W        W80590  26.442  13.373  10.818
 9991W        W80591   0.360  33.127   1.373
 9992W        W80592  26.714   0.806  13.815
 9993W        W80593  22.241  15.667  12.190
 9994W        W80594   4.672  19.307   0.326
 9995W        W80595  11.407  43.675  14.083
 9996W        W80596  11.702  37.567  10.395
 9997W        W80597  27.239  17.579   4.001
 9998W        W80598  38.307   4.062  14.883
 9999W        W80599  10.022  19.168  11.111
10000W        W80600   5.887   1.728   1.401
10001W        W80601  19.254  34.111   4.525
10002W        W80602  29.919  42.466   2.263
10003W        W80603  33.482  23.642   4.922
10004W        W80604  17.001   2.220  13.037
10005W        W80605  29.963  19.324  12.447
10006W        W80606  14.311  32.539  13.525
10007W        W80607  11.690  38.146   2.455
10008W        W80608  40.828  18.853   3.258
10009W        W80609  28.867  31.607  11.640
10010W        W80610  42.447  21.399   0.966
10011W        W80611  27.689  12.306  10.660
10012W        W80612  27.170  32.698   3.778
10013W        W80613  36.475  27.789  11.543
10014W        W80614  39.489  24.044   4.829
10015W        W80615  10.357   6.207   2.408
10016W        W80616  13.130  18.728  14.869
10017W        W80617  21.305  33.582  14.520
10018W        W80618  44.800  42.346   0.987
10019W        W80619  17.087  25.521   4.072
10020W        W80620  16.070  10.199  12.935
10021W        W80621  14.201  37.118  12.399
10022W        W80622  37.350   7.632  10.787
10023W        W80623  23.960  32.965  14.355
10024W        W80624  18.101  44.786  12.933
10025W        W80625  43.099  44.247  13.370
10026W        W80626  27.703  28.868   3.697
10027W        W80627   0.337   6.212   2.712
10028W        W80628   1.412  30.650   4.888
10029W        W80629  20.722   7.939  12.482
10030W        W80630  18.239  11.196  11.017
10031W        W80631  10.249  40.594   4.607
10032W        W80632  33.968  27.544  14.477
10033W        W80633   4.949  14.209  14.342
10034W        W80634  19.242  20.951   0.682
10035W        W80635  22.630   4.995  10.722
10036W        W80636   3.722   7.790   4.355
10037W        W80637  44.499  19.739   2.117
10038W        W80638  20.016  39.383  11.610
10039W        W80639  38.913  25.618  12.073
10040W        W80640   1.839  31.291  13.598
10041W        W80641  31.404  33.447   1.722
10042W        W80642  41.874  43.382  10.587
10043W        W80643   7.721  29.287   4.342
10044W        W80644  33.050  30.363  13.832
10045W        W80645  28.908   6.858   0.317
10046W        W80646  35.844  32.312  14.387
10047W        W80647   9.183  27.437  12.994
10048W        W80648  20.041   1.541   0.428
10049W        W80649  14.742  27.596  11.575
10050W        W80650  43.373  39.985  12.086
10051W        W80651  24.002  36.176  12.893
10052W        W80652  40.387  13.293  14.068
10053W        W80653  41.523  33.961  14.106
10054W        W80654  12.123  34.725   1.969
10055W        W80655  26.702  41.731   4.956
10056W        W80656  18.769  11.221   4.879
10057W        W80657   2.805  26.759   1.716
10058W        W80658  10.863  22.831  12.913
10059W        W80659   1.409  23.644   3.108
10060W        W80660  28.446   5.374   4.128
10061W        W80661  12.171  16.240   2.313
10062W        W80662  23.538   1.746  13.031
10063W        W80663   2.484   5.350   1.010
10064W        W80664  11.896  11.446   1.550
10065W        W80665  10.282  24.044   1.270
10066W        W80666  25.398   0.039  12.900
10067W        W80667  16.067  36.949   3.771
10068W        W80668  14.068  22.093  10.691
10069W        W80669  27.591   3.825   4.665
10070W        W80670   6.705  42.739   0.380
10071W        W80671  26.857  12.764  12.416
10072W        W80672  28.958  19.252  10.437
10073W        W80673  42.908  16.185  14.737
10074W        W80674  21.005  30.121  12.562
10075W        W80675  23.270   7.912   0.642
10076W        W80676   5.692   5.384   3.813
10077W        W80677  22.611  13.439   3.328
10078W        W80678  33.400  43.159  14.206
10079W        W80679   8.172   4.145  12.657
10080W        W80680  30.154  44.522   0.422
10081W        W80681  33.629  34.106   2.908
10082W        W80682   8.232  13.674   1.309
10083W        W80683  23.741   4.213  11.118
10084W        W80684   6.718  10.427   3.973
10085W        W80685  11.557  23.922  12.463
10086W        W80686  29.806  40.964  12.548
10087W        W80687  43.365  20.592  14.252
10088W        W80688  20.049  20.790   2.556
10089W        W80689  22.766   0.951  12.638
10090W        W80690  14.356  29.511  14.458
10091W        W80691   6.542  25.586   4.336
10092W        W80692  24.059  38.023  14.924
10093W        W80693  21.167  12.167  13.898
10094W        W80694  25.613  28.617  12.871
10095W        W80695  25.588  22.605  11.216
10096W        W80696  10.262  15.050   2.303
10097W        W80697  41.315  44.438  10.730
10098W        W80698  34.159   6.914  12.860
10099W        W80699  20.249  21.736  12.996
10100W        W80700   8.114   0.477  13.918
10101W        W80701  29.698  20.140  14.452
10102W        W80702  21.487  13.237   4.844
10103W        W80703   8.256   6.409  13.232
10104W        W80704   3.397   9.218  13.059
10105W        W80705   5.414  18.625   4.527
10106W        W80706  27.148  15.733   0.117
10107W        W80707  41.106  38.393   0.369
10108W        W80708  34.415  40.911  12.158
10109W        W80709  21.359  39.983  13.905
10110W        W80710   8.543  27.677   3.233
10111W        W80711  12.721  33.647   3.524
10112W        W80712   7.059  36.793   0.954
10113W        W80713  20.797  29.675  12.691
10114W        W80714   7.520  36.291  12.412
10115W        W80715   7.266   9.283   0.159
10116W        W80716  13.905  37.810   0.119
10117W        W80717  31.862  14.259  11.070
10118W        W80718  37.307  35.115  12.477
10119W        W80719  10.301  10.107   4.641
10120W        W80720  21.307  20.307  13.424
10121W        W80721  23.756  33.340   1.795
10122W        W80722  18.793  24.911   1.672
10123W        W80723  33.967   7.758   2.290
10124W        W80724  13.128  14.546   2.388
10125W        W80725   2.314  19.045   3.721
10126W        W80726  33.080  10.247  14.427
10127W        W80727  40.785  30.136  11.931
10128W        W80728  17.848  27.735  11.291
10129W        W80729  30.543  43.537  11.107
10130W        W80730  43.784   4.008   1.329
10131W        W80731  37.476  11.889  14.886
10132W        W80732  18.773  41.697   2.183
10133W        W80733  42.856   2.296   4.056
10134W        W80734  28.094  18.763  11.181
10135W        W80735  19.540  34.594  12.101
10136W        W80736   2.952  14.787   1.255
10137W        W80737  15.262  29.697  14.039
10138W        W80738   5.400  39.998  14.339
10139W        W80739  44.401  18.662  14.332
10140W        W80740  25.977  26.892   1.780
10141W        W80741   3.401  41.594  13.852
10142W        W80742   2.838  15.593   3.781
10143W        W80743  41.068  20.696   0.838
10144W        W80744  35.358  38.553  14.960
10145W        W80745  40.864  11.877  10.516
10146W        W80746  12.270  28.076  14.015
10147W        W80747  27.984  39.100   1.618
10148W        W80748  30.983   2.499   1.049
10149W        W80749  33.906  34.924  13.035
10150W        W80750   7.954   8.835   4.037
10151W        W80751  35.266   3.732  11.408
10152W        W80752  37.577   5.729   3.775
10153W        W80753   0.309  16.741  12.513
10154W        W80754  23.249  22.318  13.874
10155W        W80755  27.050  26.074   4.877
10156W        W80756  29.255  27.455   0.132
10157W        W80757  25.184  14.480   3.136
10158W        W80758  13.158  20.457  14.149
10159W        W80759   3.696  23.382   0.749
10160W        W80760   2.282  33.056  13.539
10161W        W80761  31.194  32.900  13.597
10162W        W80762   7.792  41.581  14.801
10163W        W80763  10.670   7.937   1.031
10164W        W80764  38.528  19.134   0.000
10165W        W80765  27.778  20.468  11.580
10166W        W80766   3.523  33.560   3.858
10167W        W80767  16.566  24.480  11.280
10168W        W80768  32.447   4.086   3.939
10169W        W80769  30.098  12.149   3.650
10170W        W80770   0.463  30.941   3.539
10171W        W80771  25.685  25.006   0.181
10172W        W80772  12.561   3.311  13.438
10173W        W80773  40.101  37.113  12.024
10174W        W80774  44.619  22.321  10.496
10175W        W80775  17.874  20.252   1.054
10176W        W80776   4.345  24.103  14.206
10177W        W80777  13.249  32.225  14.313
10178W        W80778  38.438  24.017  12.503
10179W        W80779   9.941  12.763   2.713
10180W        W80780  21.525  11.341   1.278
10181W        W80781  10.865  34.340  13.895
10182W        W80782  38.317  19.334   3.727
10183W        W80783  13.195   2.746   0.244
10184W        W80784   3.683  39.995   2.335
10185W        W80785  41.990  24.171   0.863
10186W        W80786  22.907  41.940  12.648
10187W        W80787  31.603  35.322   2.474
10188W        W80788  18.168  16.372   1.059
10189W        W80789  16.242  33.170   2.271
10190W        W80790   2.451  42.036   4.131
10191W        W80791  39.998  23.971   0.598
10192W        W80792   6.149   1.270   1.495
10193W        W80793  40.450  30.854  13.830
10194W        W80794  21.299  22.728  13.422
10195W        W80795   9.965  30.956  10.655
10196W        W80796  40.845  14.143  13.080
10197W        W80797  11.770  23.162   0.908
10198W        W80798   3.755  30.373   1.437
10199W        W80799  41.232   6.722   1.325
10200W        W80800  19.545  17.871   2.977
10201W        W80801  10.147  29.424   1.181
10202W        W80802  30.990  28.412  13.788
10203W        W80803  27.074  26.290   1.985
10204W        W80804  12.336  22.983   1.761
10205W        W80805  40.030  42.502  12.494
10206W        W80806  27.588   5.290   1.680
10207W        W80807  44.861  44.603  14.008
10208W        W80808   3.847  13.344  13.844
10209W        W80809  42.798  33.464   3.819
10210W        W80810  37.383  29.403   2.739
10211W        W80811  25.519  26.964   1.171
10212W        W80812  37.880  18.870   4.447
10213W        W80813  23.048   5.268   4.431
10214W        W80814  38.186  38.384  11.526
10215W        W80815  39.305  12.880  12.528
10216W        W80816   9.120  28.651   4.030
10217W        W80817   2.492  11.837  14.095
10218W        W80818  39.851   8.755  12.998
10219W        W80819  12.325  27.028  11.193
10220W        W80820  26.922  27.422  14.931
10221W        W80821   3.911  27.188  12.931
10222W        W80822   3.364   0.108  11.622
10223W        W80823   3.771   7.758   2.139
10224W        W80824  32.019   5.582  10.547
10225W        W80825  33.805  15.005   0.882
10226W        W80826  33.348  29.135   3.299
10227W        W80827  38.380   0.427  10.399
10228W        W80828  16.621  20.095   0.809
10229W        W80829  12.577  41.035   4.237
10230W        W80830  19.314  19.189  12.028
10231W        W80831  14.670  30.581   0.842
10232W        W80832   2.266  30.315  10.194
10233W        W80833  41.674  18.134  14.367
10234W        W80834   2.361  29.576  14.746
10235W        W80835   4.119  22.667   1.704
10236W        W80836   7.415  28.539   2.876
10237W        W80837  23.188  10.926  12.047
10238W        W80838  42.972  20.735   3.232
10239W        W80839  13.890  43.025  11.142
10240W        W80840   8.924   4.026   1.464
10241W        W80841  24.581   1.487  11.639
10242W        W80842   1.762  22.684   1.430
10243W        W80843  23.571  43.285  10.401
10244W        W80844  17.313   8.629  12.030
10245W        W80845  14.342  27.609  13.887
10246W        W80846  28.158  40.380   0.973
10247W        W80847   3.775   3.876   2.243
10248W        W80848  25.017  29.017   3.404
10249W        W80849  13.124   2.420   3.694
10250W        W80850  28.639  44.393   2.421
10251W        W80851   0.384  14.120  14.395
10252W        W80852  42.490  16.231   0.328
10253W        W80853  35.617  38.188  10.592
10254W        W80854  42.190   9.421  12.037
10255W        W80855   4.654  15.806  12.013
10256W        W80856  18.760  22.609   4.470
10257W        W80857   6.789   5.765  13.402
10258W        W80858  17.700  13.426  11.485
10259W        W80859  40.124  36.197  12.850
10260W        W80860  14.182   3.789  12.059
10261W        W80861   2.502  43.106   1.135
10262W        W80862  28.713  24.480   1.479
10263W        W80863   2.488   4.293  13.377
10264W        W80864   8.221  15.272  11.967
10265W        W80865  26.105  41.242   2.275
10266W        W80866   7.830  16.549  11.089
10267W        W80867  24.488   5.822  14.258
10268W        W80868  27.094  42.499  14.398
10269W        W80869  28.448  39.318   1.580
10270W        W80870  30.068   8.168   4.022
10271W        W80871  27.190  21.173  12.834
10272W        W80872  20.256  34.997  11.862
10273W        W80873  14.846  13.787  14.513
10274W        W80874  29.196   4.099   1.776
10275W        W80875  36.345   8.324  13.788
10276W        W80876  34.433  39.616  13.012
10277W        W80877  31.959  44.835  12.464
10278W        W80878   7.415   2.742   3.168
10279W        W80879  19.702   3.997   0.919
10280W        W80880  25.751  11.760   1.884
10281W        W80881  40.827   6.466  12.901
10282W        W80882  10.241  18.838   3.229
10283W        W80883  42.221  15.577  12.527
10284W        W80884  15.027  28.751  10.145
10285W        W80885  32.826  39.840  10.561
10286W        W80886  10.491  24.603   0.317
10287W        W80887  32.848  33.475  13.740
10288W        W80888  15.865  18.461  11.614
10289W        W80889   0.523  22.110  14.777
10290W        W80890  40.413  42.351   4.034
10291W        W80891  25.089  31.168   3.125
10292W        W80892  10.830  15.104  13.957
10293W        W80893  33.853  32.381   2.733
10294W        W80894  28.441   4.120  10.854
10295W        W80895  35.321  31.548  13.438
10296W        W80896  31.837  10.380   0.190
10297W        W80897  31.587  28.444   3.249
10298W        W80898  20.596  35.490  14.693
10299W        W80899   5.556   2.327   2.733
10300W        W80900   2.423  11.412   3.105
10301W        W80901  38.330  24.109   3.288
10302W        W80902  21.935  43.035  12.617
10303W        W80903  15.541   5.185   3.157
10304W        W80904  32.377  16.543  13.517
10305W        W80905   3.777  34.901   1.478
10306W        W80906  30.023   4.572   4.653
10307W        W80907  19.506  34.419  10.856
10308W        W80908  34.395  12.631   4.838
10309W        W80909  20.904  16.570   1.847
10310W        W80910   3.302  11.650   4.014
10311W        W80911  21.063  36.639  12.181
10312W        W80912   9.493  31.570  11.702
10313W        W80913  33.368  12.255   2.648
10314W        W80914  10.801  43.434   3.029
10315W        W80915  43.698  12.296   2.062
10316W        W80916   0.480  12.313   3.793
10317W        W80917   2.750  31.606   2.777
10318W        W80918  11.763  29.627   2.148
10319W        W80919   1.888  12.332   2.780
10320W        W80920   9.111  36.453   4.513
10321W        W80921  20.673  21.989   1.431
10322W        W80922  37.835   5.489   1.929
10323W        W80923   3.236  37.564   3.986
10324W        W80924  31.928  40.942   1.846
10325W        W80925  32.579  12.423  14.960
10326W        W80926  37.339  31.627  12.576
10327W        W80927   0.841  21.074   4.178
10328W        W80928  37.571  30.594   4.805
10329W        W80929  15.428  44.564   4.927
10330W        W80930  26.897  28.877  10.136
10331W        W80931   6.912   2.807  11.316
10332W        W80932  31.392  20.503  10.758
10333W        W80933  10.618  26.958  12.788
10334W        W80934  29.245   5.311   1.971
10335W        W80935  41.562   2.354   2.217
10336W        W80936   5.681  15.920   1.656
10337W        W80937  14.023  13.433  14.971
10338W        W80938  22.583   6.766  13.379
10339W        W80939  34.414   5.681  11.926
10340W        W80940  17.093  40.491  14.871
10341W        W80941  24.644  19.180   2.100
10342W        W80942  22.909  32.961   4.315
10343W        W80943   3.289  25.639  11.467
10344W        W80944   3.626  42.442   3.896
10345W        W80945   1.325   9.301   4.892
10346W        W80946  19.954  14.207  14.009
10347W        W80947   1.486  41.068   3.766
10348W        W80948  12.224   6.426  10.733
10349W        W80949  17.148  11.427   2.300
10350W        W80950   0.838  28.881   0.449
10351W        W80951   1.887  24.646   2.749
10352W        W80952  14.115  27.657  14.388
10353W        W80953  43.923  21.804  11.657
10354W        W80954  37.526  26.594  12.177
10355W        W80955  42.328  11.938   3.565
10356W        W80956  23.886  44.849   0.748
10357W        W80957  37.510   9.818   3.103
10358W        W80958  39.845  13.819  11.018
10359W        W80959  23.270  20.532   2.001
10360W        W80960   0.846   2.361  13.276
10361W        W80961  15.517  35.589   0.526
10362W        W80962  37.376  41.477  13.797
10363W        W80963  30.847  37.953  12.881
10364W        W80964  22.626   8.912  11.643
10365W        W80965  13.067  18.613   2.169
10366W        W80966   6.284   1.568   0.093
10367W        W80967  27.160  36.382  14.877
10368W        W80968  10.408  10.753  13.548
10369W        W80969  26.451  25.089   3.587
10370W        W80970  32.788  16.096   3.359
10371W        W80971   8.475  30.680   0.947
10372W        W80972  10.836  27.761  12.707
10373W        W80973   9.757  26.246   4.883
10374W        W80974   0.195  38.509   2.221
10375W        W80975   8.928   2.803  13.113
10376W        W80976   4.934  18.204   3.633
10377W        W80977  18.344  20.713   3.173
10378W        W80978  24.219  23.664   2.320
10379W        W80979  36.009  10.619  11.608
10380W        W80980  26.740  22.143  10.786
10381W        W80981  43.498  10.779  14.196
10382W        W80982  13.369   4.843   2.291
10383W        W80983  23.235  16.266   4.011
10384W        W80984  18.001  34.615  11.406
10385W        W80985  28.664  35.076  12.950
10386W        W80986  43.959  44.811   0.385
10387W        W80987  31.194  17.645  11.204
10388W        W80988  41.053   4.716   3.069
10389W        W80989   5.751  37.580  14.353
10390W        W80990  37.330  40.404   2.059
10391W        W80991  31.352  28.974  12.204
10392W        W80992  11.116  44.429  13.945
10393W        W80993  39.584  34.154   3.247
10394W        W80994  24.910  30.009   2.517
10395W        W80995   0.548  10.179  11.463
10396W        W80996  20.770   7.642   2.828
10397W        W80997  41.047   8.852   4.123
10398W        W80998  42.377  34.023  13.448
10399W        W80999  29.391  35.987   0.573
10400W        W81000  19.105  16.066   3.733
10401W        W81001   8.837   7.941   2.382
10402W        W81002  32.448   1.187   0.430
10403W        W81003  22.625  34.526  10.793
10404W        W81004  11.176  14.417   2.635
10405W        W81005   0.697  13.347  11.209
10406W        W81006  39.842  21.747  14.069
10407W        W81007  40.541  31.380   3.833
10408W        W81008  29.825  24.551  13.300
10409W        W81009   2.688  37.055  14.388
10410W        W81010  12.665  18.021  12.050
10411W        W81011  16.501  13.266  12.864
10412W        W81012  24.404   3.174   3.608
10413W        W81013  41.859  38.582   2.133
10414W        W81014  31.559  13.322  12.489
10415W        W81015  40.464  40.326   4.316
10416W        W81016  29.567  38.960   1.908
10417W        W81017  29.202   9.959   2.331
10418W        W81018  17.326  22.709   3.768
10419W        W81019  30.551  22.500   1.886
10420W        W81020  30.107  43.737  11.294
10421W        W81021  33.366  11.073   3.622
10422W        W81022  13.287  10.724  13.946
10423W        W81023  36.150  18.114  11.076
10424W        W81024  14.453  41.844   4.501
10425W        W81025  13.267  44.473   1.582
10426W        W81026   1.412   3.653  12.618
10427W        W81027  14.127   4.745   2.747
10428W        W81028  44.737  34.077   0.252
10429W        W81029  38.293   1.149  11.423
10430W        W81030   4.834  22.043   2.632
10431W        W81031  31.555  17.381   1.764
10432W        W81032  42.157   4.879  14.270
10433W        W81033  27.436  36.121   2.596
10434W        W81034   1.769  12.169   3.273
10435W        W81035  30.995   9.439  13.422
10436W        W81036  33.411  36.438   2.804
10437W        W81037  39.822  29.093   4.826
10438W        W81038  37.984  20.542  13.855
10439W        W81039  12.390   4.498   0.766
10440W        W81040  37.027  40.803   1.249
10441W        W81041  27.617   4.838  12.158
10442W        W81042  44.474  13.760  10.894
10443W        W81043  36.577  13.396   0.896
10444W        W81044  20.380   4.299  13.790
10445W        W81045  19.265  25.889   1.262
10446W        W81046  25.909  40.516  14.701
10447W        W81047  41.352  36.739   3.603
10448W        W81048  22.263  11.860   1.809
10449W        W81049  21.174  41.459   1.520
10450W        W81050  37.552  41.658  11.227
10451W        W81051   4.770  38.472  12.951
10452W        W81052  43.847  31.409   1.005
10453W        W81053   9.078  24.980  10.256
10454W        W81054  26.202  11.807  13.422
10455W        W81055  41.933  13.140  10.392
10456W        W81056   7.899  37.905   1.204
10457W        W81057  21.212   7.690  14.331
10458W        W81058  33.679   0.918  12.084
10459W        W81059  41.520  25.671   3.382
10460W        W81060  34.351  11.533  12.970
10461W        W81061  29.868  36.869   1.349
10462W        W81062  16.104   9.832  11.135
10463W        W81063  25.197  27.625   2.659
10464W        W81064  36.334   4.423   1.650
10465W        W81065   1.866  43.335   1.051
10466W        W81066  23.957  33.127   1.252
10467W        W81067   8.112   9.289  14.427
10468W        W81068  25.688  18.619   0.387
10469W        W81069   1.338  38.370  12.384
10470W        W81070  15.147  20.534   3.104
10471W        W81071   5.421  17.809   1.723
10472W        W81072  21.810  16.270   3.182
10473W        W81073  17.806  19.028   0.981
10474W        W81074  18.165   1.580  10.609
10475W        W81075  32.486  34.649   4.153
10476W        W81076  24.057  39.204   1.303
10477W        W81077  36.528  19.923   1.381
10478W        W81078  40.067  20.621  13.870
10479W        W81079  19.165  24.010   3.612
10480W        W81080  44.475  28.733  14.468
10481W        W81081  25.048   6.119   1.684
10482W        W81082  22.429  37.542  12.995
10483W        W81083  23.979   7.140   2.421
10484W        W81084  22.713  29.737   5.125
10485W        W81085  33.031  26.625  11.508
10486W        W81086  42.799  28.479  14.694
10487W        W81087  28.887   3.740   3.216
10488W        W81088   2.253  38.374  11.502
10489W        W81089  14.046   0.063   0.279
10490W        W81090  24.950  44.760   0.716
10491W        W81091  11.742  25.769   2.401
10492W        W81092  32.027  10.281  14.205
10493W        W81093  13.892   7.360  11.573
10494W        W81094  12.782  40.892  12.331
10495W        W81095  16.024  24.039   3.518
10496W        W81096  36.136  25.748   1.753
10497W        W81097  10.328  38.721  10.685
10498W        W81098   0.905  41.599   3.107
10499W        W81099  17.426  35.825   3.029
10500W        W81100  33.936  24.717   0.447
10501W        W81101  11.440  19.541  13.576
10502W        W81102  17.748   6.710   2.699
10503W        W81103  16.089   8.338  11.654
10504W        W81104  38.573  27.290  11.658
10505W        W81105  11.315  26.510   2.138
10506W        W81106  19.667  17.780   2.492
10507W        W81107  14.911  23.645   0.374
10508W        W81108  36.264  40.465   0.420
10509W        W81109  39.769  34.498   1.884
10510W        W81110  26.036  37.201  12.562
10511W        W81111  42.883  11.551  14.895
10512W        W81112   0.521  23.121   0.657
10513W        W81113  23.342  29.608   0.346
10514W        W81114   1.830  11.231   0.540
10515W        W81115  34.599  17.080  14.389
10516W        W81116  19.276  29.846  10.582
10517W        W81117  42.669  19.711   2.645
10518W        W81118  28.366   3.030   3.030
10519W        W81119   2.933  28.991   4.211
10520W        W81120  34.111   1.753  10.721
10521W        W81121  35.128  14.767  13.418
10522W        W81122  17.815  25.334  13.855
10523W        W81123   1.341   7.848  13.562
10524W        W81124   1.281  28.681   4.659
10525W        W81125  36.872  24.161  11.764
10526W        W81126  27.336  34.843   4.774
10527W        W81127   8.119  20.153   1.520
10528W        W81128  13.104   5.755  12.920
10529W        W81129  24.508  44.453   0.242
10530W        W81130  14.732   3.094   4.546
10531W        W81131  11.827  17.294  14.855
10532W        W81132  10.326  30.002   2.327
10533W        W81133  29.015   0.360   3.606
10534W        W81134  31.072  29.720   3.256
10535W        W81135  16.382  17.810  13.484
10536W        W81136  29.815   4.542  11.650
10537W        W81137  14.601  33.440  13.414
10538W        W81138  14.764  12.750   9.945
10539W        W81139   4.350  15.835  10.533
10540W        W81140  23.984  38.301  14.461
10541W        W81141   0.628  11.657   2.233
10542W        W81142  39.305  35.258  12.430
10543W        W81143  18.732   5.316  11.757
10544W        W81144   3.351  23.294  14.048
10545W        W81145  17.004  41.100  14.464
10546W        W81146  24.054  16.681   3.145
10547W        W81147   5.570  40.255   1.041
10548W        W81148  44.052   7.282   2.723
10549W        W81149  41.610   1.040  11.530
10550W        W81150  11.157  32.590   3.215
10551W        W81151  12.829   8.234  10.734
10552W        W81152  28.388  34.279  14.871
10553W        W81153   6.460  36.592  13.443
10554W        W81154  38.597  11.391  11.120
10555W        W81155  21.039  21.571   2.754
10556W        W81156  36.832  21.300  12.643
10557W        W81157  21.764  34.088  10.573
10558W        W81158  24.907  24.639  13.387
10559W        W81159  12.123  23.546  11.062
10560W        W81160  31.900  38.321  14.913
10561W        W81161  37.205  19.699  13.508
10562W        W81162   3.696   7.168   0.914
10563W        W81163  20.618   5.256  12.949
10564W        W81164  32.006  22.639  13.350
10565W        W81165   2.059  11.795   2.002
10566W        W81166   0.562  25.006   4.313
10567W        W81167   8.340  36.104  12.882
10568W        W81168  21.548  18.387  11.582
10569W        W81169   2.705  15.314   2.435
10570W        W81170   4.649  26.948   4.607
10571W        W81171  13.071   2.358  11.605
10572W        W81172  38.016  17.590   2.895
10573W        W81173   0.337  10.803   2.925
10574W        W81174  42.528  16.804  11.169
10575W        W81175  39.274  37.870   1.788
10576W        W81176   7.390   9.399  12.384
10577W        W81177  26.430  28.444   2.358
10578W        W81178   1.164  15.847  13.477
10579W        W81179  25.275   1.788   2.123
10580W        W81180  16.104  38.095  14.372
10581W        W81181  11.180   3.914  13.967
10582W        W81182   8.273  18.998  12.947
10583W        W81183   4.677  36.717  12.381
10584W        W81184  39.450   8.521  10.285
10585W        W81185  24.257   3.269  14.707
10586W        W81186   9.515  42.254   0.964
10587W        W81187  38.966   0.753   3.022
10588W        W81188  11.814  20.000   3.693
10589W        W81189  11.320  13.952  14.514
10590W        W81190  26.067   4.629  14.721
10591W        W81191  33.336  32.222  13.227
10592W        W81192  15.682  18.048  12.920
10593W        W81193   7.284  17.410   3.135
10594W        W81194   2.914  21.662  11.529
10595W        W81195  25.480   3.852  10.933
10596W        W81196   9.265  17.864  11.927
10597W        W81197  30.438  26.806  13.428
10598W        W81198  38.371   6.343   0.877
10599W        W81199  17.844  41.567   3.103
10600W        W81200   7.213  23.762  13.623
10601W        W81201  26.067  32.079   4.889
10602W        W81202  22.727  28.025  14.815
10603W        W81203   4.424  33.505   1.269
10604W        W81204  32.479  14.745  14.426
10605W        W81205  35.634  16.806   2.307
10606W        W81206  11.795  37.007  12.111
10607W        W81207   7.773  31.362   1.223
10608W        W81208  27.682  16.780   4.169
10609W        W81209   5.770  24.611   1.501
10610W        W81210   1.849  23.608  13.368
10611W        W81211  14.156  33.036  11.301
10612W        W81212  13.783  11.114   1.880
10613W        W81213  25.571  26.378   1.526
10614W        W81214  38.191  15.032   3.302
10615W        W81215   3.866  22.305  11.934
10616W        W81216  31.993   8.889  11.217
10617W        W81217   8.623   7.737  11.045
10618W        W81218  29.734  28.538   3.551
10619W        W81219  11.292  12.622  12.923
10620W        W81220  15.259  11.022  10.214
10621W        W81221  42.355  20.571  10.746
10622W        W81222  14.827   8.304  12.954
10623W        W81223  18.989  15.162   1.278
10624W        W81224  14.066  15.418   4.027
10625W        W81225  23.927   9.175   4.663
10626W        W81226  27.687  34.837  13.384
10627W        W81227   5.859  38.536  13.826
10628W        W81228  11.570   3.766  14.261
10629W        W81229  40.609  41.336   2.051
10630W        W81230  40.714  12.240   2.171
10631W        W81231  20.837  32.063   2.484
10632W        W81232  20.666  33.094   3.667
10633W        W81233   4.260  16.575   2.723
10634W        W81234  21.112  43.985  13.516
10635W        W81235  29.522  18.221  13.305
10636W        W81236  20.213  26.437   2.889
10637W        W81237  19.183   3.983   1.743
10638W        W81238  31.000  41.633   5.446
10639W        W81239   1.727  37.696   1.601
10640W        W81240  35.921  18.549  11.946
10641W        W81241  42.296  44.917   1.630
10642W        W81242  30.099   3.832  12.681
10643W        W81243  32.380   9.911  14.762
10644W        W81244  17.219  12.233  14.519
10645W        W81245  13.570  30.843   1.492
10646W        W81246  20.496  18.792  14.502
10647W        W81247  13.098  19.054   3.188
10648W        W81248  17.664   7.836  11.284
10649W        W81249  29.417  42.528   3.321
10650W        W81250   0.956  39.541   1.387
10651W        W81251  29.661  15.339  12.490
10652W        W81252  12.906  20.966  10.874
10653W        W81253  17.367  42.912  10.669
10654W        W81254  42.697  32.028   4.571
10655W        W81255  41.941   1.394   1.469
10656W        W81256  26.746   5.341  11.752
10657W        W81257  16.070  42.984  13.936
10658W        W81258   4.955   0.842   1.186
10659W        W81259  14.603  18.678  10.790
10660W        W81260  33.579  20.618   3.279
10661W        W81261  19.916   8.488  14.380
10662W        W81262  26.517  17.982   4.608
10663W        W81263  11.508   6.765  11.619
10664W        W81264  27.083  21.319  13.392
10665W        W81265  19.242   1.263   0.404
10666W        W81266  44.793   7.389  14.712
10667W        W81267   3.773  22.105  14.800
10668W        W81268  35.801  40.264   0.573
10669W        W81269  20.409  25.103  14.561
10670W        W81270  27.088  18.250   3.333
10671W        W81271   7.012  41.849   3.297
10672W        W81272  20.634  38.619   4.074
10673W        W81273  33.438  33.630   4.163
10674W        W81274  31.074  29.782   5.065
10675W        W81275   9.985  21.790  12.101
10676W        W81276  36.315  32.144   4.986
10677W        W81277  12.649  18.583  13.888
10678W        W81278  41.844  32.366  12.928
10679W        W81279  40.888  43.013  12.059
10680W        W81280   7.267   2.042  13.327
10681W        W81281   7.181  18.900  13.441
10682W        W81282  21.013  33.592   0.921
10683W        W81283  27.118  31.943   2.554
10684W        W81284   3.817  11.904  10.705
10685W        W81285  27.589  41.942  14.539
10686W        W81286  38.891  21.624   4.272
10687W        W81287  22.947  31.012  12.106
10688W        W81288   6.668  39.101  12.980
10689W        W81289  16.034   8.280   3.289
10690W        W81290  17.696  15.357   2.723
10691W        W81291  29.544   1.303   1.778
10692W        W81292  32.856   3.407  14.039
10693W        W81293  33.383  12.724   0.682
10694W        W81294  43.149  39.921   2.206
10695W        W81295   1.389   2.275   1.886
10696W        W81296   1.243  41.853   4.554
10697W        W81297  19.269  31.424   2.756
10698W        W81298  25.498   4.686  12.055
10699W        W81299  30.950  23.726  13.866
10700W        W81300  40.960   9.680   1.303
10701W        W81301  19.594  18.284  10.341
10702W        W81302  37.860  32.220  10.775
10703W        W81303   1.437  37.363   0.378
10704W        W81304  17.688  44.656   0.771
10705W        W81305  16.830  20.419  14.854
10706W        W81306   6.975  44.472   9.947
10707W        W81307  19.734   2.700   3.047
10708W        W81308   3.146  14.642   4.003
10709W        W81309   5.930  40.372  12.904
10710W        W81310  13.630  33.109   1.790
10711W        W81311  26.559  29.684   0.334
10712W        W81312   5.143  28.783   3.661
10713W        W81313  44.026  23.534  12.318
10714W        W81314  17.614  16.596  12.686
10715W        W81315  27.665  12.691   0.775
10716W        W81316  31.633   2.863   3.604
10717W        W81317  15.194  34.616  14.661
10718W        W81318  28.194  35.838  10.746
10719W        W81319   7.187   1.710   1.782
10720W        W81320  21.456  39.087   4.202
10721W        W81321   4.205   4.957  12.511
10722W        W81322  39.370  40.443   2.961
10723W        W81323  43.388  23.029  12.817
10724W        W81324   9.660  12.686  10.557
10725W        W81325   7.323  29.885  14.318
10726W        W81326  33.568  40.343   3.587
10727W        W81327  19.085  23.737  10.950
10728W        W81328  20.329  37.673   4.986
10729W        W81329   4.389   0.059  11.364
10730W        W81330   5.914  21.443  13.034
10731W        W81331   2.716  19.397   4.407
10732W        W81332  24.181  18.798  12.374
10733W        W81333  17.002   7.072   0.800
10734W        W81334   7.947   5.039  12.827
10735W        W81335  27.878  31.397   4.545
10736W        W81336  29.515  35.365  13.311
10737W        W81337  22.107  28.544  13.531
10738W        W81338   1.909  42.342   0.405
10739W        W81339  22.622  11.350   4.162
10740W        W81340  19.548  43.845   4.456
10741W        W81341  39.125   2.135   3.461
10742W        W81342  26.533  22.777   4.137
10743W        W81343  26.524   7.979   1.005
10744W        W81344  29.615  38.416   1.246
10745W        W81345  35.465  31.137   3.113
10746W        W81346  30.481  30.257   1.895
10747W        W81347  36.501  34.601   3.761
10748W        W81348  17.058  40.702  10.771
10749W        W81349  23.203   4.532  14.349
10750W        W81350   7.271  44.756   2.323
10751W        W81351  12.149  23.754   4.109
10752W        W81352  11.625  25.255   2.291
10753W        W81353   3.952  32.033  11.081
10754W        W81354   7.727  17.279  14.131
10755W        W81355   5.815   2.822  12.430
10756W        W81356  41.517  37.112   0.397
10757W        W81357  44.222  43.282  14.775
10758W        W81358  43.487  26.528   2.175
10759W        W81359  14.105  12.429   0.205
10760W        W81360   5.421  25.628  13.824
10761W        W81361  26.117  12.546   2.719
10762W        W81362  20.389  16.306  10.683
10763W        W81363  26.648  25.241   1.261
10764W        W81364  32.462  42.023   3.122
10765W        W81365  23.619  10.072   1.932
10766W        W81366   6.839  31.865   1.209
10767W        W81367  38.318   3.964   2.797
10768W        W81368   2.299  15.388  13.442
10769W        W81369   2.542  29.117  10.678
10770W        W81370   2.541   6.339  11.388
10771W        W81371  20.551  25.553  12.043
10772W        W81372  16.876   8.862  12.046
10773W        W81373  32.999   2.820  12.927
10774W        W81374  14.104  35.483   2.735
10775W        W81375  21.770   9.596   2.241
10776W        W81376  13.540  22.215   0.247
10777W        W81377  14.752  26.043   2.993
10778W        W81378  15.140   9.466  14.049
10779W        W81379  39.810  44.883  12.261
10780W        W81380  16.349  36.488   3.618
10781W        W81381   2.310   8.194   2.386
10782W        W81382  35.245  17.352   1.293
10783W        W81383   3.577  14.802   0.454
10784W        W81384  26.758   7.660  14.073
10785W        W81385  10.236   4.133  12.161
10786W        W81386  28.725  10.924  12.107
10787W        W81387  35.101  41.454   0.304
10788W        W81388  11.331  33.869   4.729
10789W        W81389   0.078  43.396  10.600
10790W        W81390  20.562  14.353   2.244
10791W        W81391  36.285  43.511  10.774
10792W        W81392  40.362  18.867  12.998
10793W        W81393  33.535   6.337  10.542
10794W        W81394   3.964  21.977   4.127
10795W        W81395  10.573   0.834  11.983
10796W        W81396  32.974  32.158   3.255
10797W        W81397  36.959   1.289  12.488
10798W        W81398  33.346  29.838  11.580
10799W        W81399  15.040   2.978  11.641
10800W        W81400   7.292  15.785  13.560
10801W        W81401  28.582  16.363   1.374
10802W        W81402  16.638  30.971   0.595
10803W        W81403  40.096  39.371   2.486
10804W        W81404  22.198  41.963  14.987
10805W        W81405  39.909  13.547  14.443
10806W        W81406  40.200  39.829  12.046
10807W        W81407  21.094   8.130   0.671
10808W        W81408  15.586  11.417  10.366
10809W        W81409  18.526  24.686  14.303
10810W        W81410  22.517  23.639  10.700
10811W        W81411  24.708  16.878  11.571
10812W        W81412  11.298  23.058   1.697
10813W        W81413  24.493  32.647   3.380
10814W        W81414  43.350  33.928  13.431
10815W        W81415   2.441  43.080  14.775
10816W        W81416  29.559  18.670   3.564
10817W        W81417  30.363   6.631  10.682
10818W        W81418  32.231  33.912   2.603
10819W        W81419  29.501  20.887  12.623
10820W        W81420  22.049  13.056   0.712
10821W        W81421   5.455  22.644   4.124
10822W        W81422  15.058   0.386   1.357
10823W        W81423  24.949  32.516   2.070
10824W        W81424   7.374  22.964  10.484
10825W        W81425  23.280   9.204   1.306
10826W        W81426  14.160  26.453  12.185
10827W        W81427  19.183  35.083   4.403
10828W        W81428  17.007  23.098  14.962
10829W        W81429  28.060  21.701   1.330
10830W        W81430  20.109  36.139   0.735
10831W        W81431  36.405  21.836   2.826
10832W        W81432  12.661  41.870   0.273
10833W        W81433  19.486  11.688  14.334
10834W        W81434  19.334  44.476  11.162
10835W        W81435   9.829  34.449   4.294
10836W        W81436  28.172  36.860  11.063
10837W        W81437  27.976   3.960  12.128
10838W        W81438   9.892  25.942   2.359
10839W        W81439  22.204  24.496  12.491
10840W        W81440  19.124  16.989  13.263
10841W        W81441  16.707  19.545  10.541
10842W        W81442  29.975  38.037   0.714
10843W        W81443  33.926  42.220   4.118
10844W        W81444  14.149   3.761  14.456
10845W        W81445  34.447  39.183  11.540
10846W        W81446  21.038  31.457   2.843
10847W        W81447  39.855  13.699   3.735
10848W        W81448  44.355  12.263  14.395
10849W        W81449  18.462  33.478   4.836
10850W        W81450  42.023   8.849   1.557
10851W        W81451  12.596   2.924  12.421
10852W        W81452  28.600  41.456   3.818
10853W        W81453  35.089  20.699   4.045
10854W        W81454  35.056  32.968  14.598
10855W        W81455  29.580  35.438   1.338
10856W        W81456  29.198  37.961   1.773
10857W        W81457  27.584  14.550   1.295
10858W        W81458   3.661  20.222   4.843
10859W        W81459  41.947  28.904  13.272
10860W        W81460  18.070  41.355   4.613
10861W        W81461  28.587  43.010   2.233
10862W        W81462  38.295  38.567  13.501
10863W        W81463  30.592  37.624   3.489
10864W        W81464  10.288  43.026   2.751
10865W        W81465  11.677  14.254   2.633
10866W        W81466  42.869   4.114   1.291
10867W        W81467  41.466  26.149  14.705
10868W        W81468  30.490   5.464   0.961
10869W        W81469  37.511  18.649   0.397
10870W        W81470  20.074  20.639   3.046
10871W        W81471   3.975  27.145  12.084
10872W        W81472   4.243  25.241  13.846
10873W        W81473   3.476   6.676  13.832
10874W        W81474  31.463  31.047   1.839
10875W        W81475  41.500  38.795  12.377
10876W        W81476   7.880  31.325   0.229
10877W        W81477  34.983  12.711   4.614
10878W        W81478  17.330  14.292  12.253
10879W        W81479   0.828   0.924  13.546
10880W        W81480  22.123   8.665  14.888
10881W        W81481  22.027  41.469   0.089
10882W        W81482  22.932   2.357   2.445
10883W        W81483  40.308  33.492   2.160
10884W        W81484  11.401   6.300  10.447
10885W        W81485  11.351  20.154  10.371
10886W        W81486  17.171  40.950   3.217
10887W        W81487  33.081   3.362  13.030
10888W        W81488  32.789  25.554   0.673
10889W        W81489  14.679  23.557  13.069
10890W        W81490  38.481  38.327   1.265
10891W        W81491  33.576  22.031   5.065
10892W        W81492   7.216  23.221  14.503
10893W        W81493  34.143  27.107   2.329
10894W        W81494  39.858  15.480   0.050
10895W        W81495  20.671  37.642  11.227
10896W        W81496  33.161  11.586  12.569
10897W        W81497  28.361  27.662   3.690
10898W        W81498  25.194  11.803  14.876
10899W        W81499  27.543   7.613  13.507
10900W        W81500  22.074  36.283  13.205
10901W        W81501  38.598  25.017  11.652
10902W        W81502  23.119  38.316   0.247
10903W        W81503  28.829  42.078  12.958
10904W        W81504  34.020  23.517   2.307
10905W        W81505  16.349   9.684   2.765
10906W        W81506  30.039  38.659  14.358
10907W        W81507  19.380  18.172  12.867
10908W        W81508   3.466  24.028   3.668
10909W        W81509  14.855  19.549   4.108
10910W        W81510   9.695   3.902  12.862
10911W        W81511  29.035  40.029   3.733
10912W        W81512   0.021   7.385  11.441
10913W        W81513  25.122  25.693   1.288
10914W        W81514  35.041   0.551   2.412
10915W        W81515  26.958  25.963   4.347
10916W        W81516  36.430   1.847   4.629
10917W        W81517  38.798  19.669   2.740
10918W        W81518  38.670  24.043   4.189
10919W        W81519  38.539  31.453  14.523
10920W        W81520  14.238   0.432  10.586
10921W        W81521  26.573   7.106   4.477
10922W        W81522  23.463  21.331   2.743
10923W        W81523   8.148  36.058   3.729
10924W        W81524  30.504  40.269   3.109
10925W        W81525  40.281  34.691  13.249
10926W        W81526  17.556  26.131   1.284
10927W        W81527   3.574   4.097   1.807
10928W        W81528  12.858  25.178   0.932
10929W        W81529  43.156   1.883  12.375
10930W        W81530  26.112  26.130   3.178
10931W        W81531  37.600   4.741  12.000
10932W        W81532  12.369  16.075  12.876
10933W        W81533  15.016  44.485  12.039
10934W        W81534  32.146  18.489   1.608
10935W        W81535  40.896  28.014   1.334
10936W        W81536  38.992  28.766   0.785
10937W        W81537  39.497   7.642  11.335
10938W        W81538   5.717  27.322   2.266
10939W        W81539  32.074  14.689   1.965
10940W        W81540  20.084  12.664  11.510
10941W        W81541  11.813  27.452   4.486
10942W        W81542  20.748  25.212   0.415
10943W        W81543   7.345  28.966  14.527
10944W        W81544   0.298   9.532  11.158
10945W        W81545  25.634  10.667  14.208
10946W        W81546  29.373  19.764   3.135
10947W        W81547  27.131  33.828   0.352
10948W        W81548  18.469  13.130  14.775
10949W        W81549  15.139   6.918   2.834
10950W        W81550  16.745  21.802  11.994
10951W        W81551  34.894   2.275  13.101
10952W        W81552  35.503   8.910   2.621
10953W        W81553  38.977  43.932  13.450
10954W        W81554   4.916  27.982  13.968
10955W        W81555  37.600  15.576   1.764
10956W        W81556  36.467  33.911  10.330
10957W        W81557  33.414  39.925   4.919
10958W        W81558  13.591  37.474   0.960
10959W        W81559   8.594  21.474   4.200
10960W        W81560  11.864  22.039  14.657
10961W        W81561  11.187   9.781  14.504
10962W        W81562   5.416  41.835   3.888
10963W        W81563  40.320   5.040  14.103
10964W        W81564   3.904  23.982  14.466
10965W        W81565  27.982   9.347  11.894
10966W        W81566  42.275  43.351  13.087
10967W        W81567  36.624  11.064  12.123
10968W        W81568  15.352   7.908   1.994
10969W        W81569  11.494  29.710   0.405
10970W        W81570  11.970   8.400   0.384
10971W        W81571   8.162  20.664   3.089
10972W        W81572  28.608  42.078  14.354
10973W        W81573  22.996  17.090   4.655
10974W        W81574  38.410  23.923   2.781
10975W        W81575  34.560   0.311   0.842
10976W        W81576  37.647   9.336  10.749
10977W        W81577  19.258  42.521   3.247
10978W        W81578  21.227   8.831  14.518
10979W        W81579  13.624  31.150  13.083
10980W        W81580  33.998  19.261   4.818
10981W        W81581  13.358  19.412  14.052
10982W        W81582  26.488  37.109   1.864
10983W        W81583  20.662  22.697  14.736
10984W        W81584  14.563  19.117   2.679
10985W        W81585  29.643  42.506  14.645
10986W        W81586  36.150   1.952   2.795
10987W        W81587  33.927  41.963   3.358
10988W        W81588   5.160   8.667  13.043
10989W        W81589  12.086  18.141   0.421
10990W        W81590  10.752  34.950  14.985
10991W        W81591   6.757  42.944   2.271
10992W        W81592  44.721   3.002   2.805
10993W        W81593   0.367   4.108  12.879
10994W        W81594  15.064  37.502  12.813
10995W        W81595  13.584   3.881  13.825
10996W        W81596  15.304  14.201   2.658
10997W        W81597  34.909  38.089  12.861
10998W        W81598  18.880   7.383   4.657
10999W        W81599  17.408   9.790  11.132
11000W        W81600   2.864  32.574  13.856
11001W        W81601  34.648  22.626  12.499
11002W        W81602  11.331   1.424   0.350
11003W        W81603   9.316  22.667  12.234
11004W        W81604  21.061  15.747   3.678
11005W        W81605  14.286  18.572  13.397
11006W        W81606  35.507  11.009   2.284
11007W        W81607  25.484  31.427  13.978
11008W        W81608  40.999  42.147   0.393
11009W        W81609  39.604  12.005  11.522
11010W        W81610  17.738  28.840   3.517
11011W        W81611  41.872   4.487  11.621
11012W        W81612  43.334  25.685   0.888
11013W        W81613  39.141  30.639   3.196
11014W        W81614  33.553  21.106   0.935
11015W        W81615  13.031  19.501  12.142
11016W        W81616  24.317  22.120  13.083
11017W        W81617  30.960  13.904   3.104
11018W        W81618  44.497  26.072   0.423
11019W        W81619  19.458   0.721   3.151
11020W        W81620  35.543   6.905   0.075
11021W        W81621  44.858  33.294   1.258
11022W        W81622   4.828  10.851  12.274
11023W        W81623   8.376  37.236   2.937
11024W        W81624  24.917   2.715   1.380
11025W        W81625  21.167  13.312   0.396
11026W        W81626  29.396  18.535  10.753
11027W        W81627  18.758  23.983  11.651
11028W        W81628  41.367  43.188  12.103
11029W        W81629  28.439  18.132  11.692
11030W        W81630  31.484  29.009  10.725
11031W        W81631   3.762  31.082  11.056
11032W        W81632   2.749  44.582  11.179
11033W        W81633   3.369  19.700   0.419
11034W        W81634  20.169  34.339   3.675
11035W        W81635   8.222  22.665   3.743
11036W        W81636   7.884  43.358   4.853
11037W        W81637  28.469  38.415   1.247
11038W        W81638  20.970   2.165  12.606
11039W        W81639  38.927  40.336   2.731
11040W        W81640   7.701  12.581   3.131
11041W        W81641  16.187  16.014  10.217
11042W        W81642  28.255  22.114  12.184
11043W        W81643  25.206  32.647   1.656
11044W        W81644  34.209  13.734  14.459
11045W        W81645  26.077  38.055   1.613
11046W        W81646  40.835  20.762   1.665
11047W        W81647  24.488   4.345   4.598
11048W        W81648  25.805  27.279  13.207
11049W        W81649  43.969   5.677   2.884
11050W        W81650  15.523  39.797   3.880
11051W        W81651   8.843  27.019  13.054
11052W        W81652  25.553  27.847   0.964
11053W        W81653  29.211  22.979   4.728
11054W        W81654  12.076  33.829   2.439
11055W        W81655  29.212   6.091  14.081
11056W        W81656  16.569   1.547   2.100
11057W        W81657  40.657   2.049   0.059
11058W        W81658  43.614   6.308   0.738
11059W        W81659  30.073  31.387  13.019
11060W        W81660  31.069   9.845   1.904
11061W        W81661   6.315  37.990  13.727
11062W        W81662  36.549   5.014   3.914
11063W        W81663   3.518  17.346  13.576
11064W        W81664  42.449   2.976   2.721
11065W        W81665  10.389  11.306   1.839
11066W        W81666  31.142  26.428   2.211
11067W        W81667   9.233  31.468  13.831
11068W        W81668   9.853  15.464   1.392
11069W        W81669   4.416  19.965  11.074
11070W        W81670  31.226  21.570   0.889
11071W        W81671  14.753  18.888  11.250
11072W        W81672  22.423  33.417   3.825
11073W        W81673  39.962  20.984   3.139
11074W        W81674  29.366  36.918   2.666
11075W        W81675   3.889   1.361  13.332
11076W        W81676  19.194  13.859   4.801
11077W        W81677   4.261  37.333   2.545
11078W        W81678  16.978  10.410  14.010
11079W        W81679   6.749  34.452  12.886
11080W        W81680  12.131   7.366  11.017
11081W        W81681  39.120  34.067  14.729
11082W        W81682  27.181   9.930   3.197
11083W        W81683  31.902  11.278  12.065
11084W        W81684  13.877   1.829  13.537
11085W        W81685  44.528  13.726  12.475
11086W        W81686  29.695   8.185  14.423
11087W        W81687  17.550   6.812  11.968
11088W        W81688   1.634  25.455  14.061
11089W        W81689  10.339  34.928  13.304
11090W        W81690   4.293  24.990  11.951
11091W        W81691  16.906  33.812   4.065
11092W        W81692  29.393  21.527   4.633
11093W        W81693  28.721  35.663  13.958
11094W        W81694  16.491  31.101  13.409
11095W        W81695  39.595  41.120   4.415
11096W        W81696  29.986   6.168  14.811
11097W        W81697  40.008  22.245  13.437
11098W        W81698  15.081  25.186  12.441
11099W        W81699   6.786  20.711   2.851
11100W        W81700  14.714  35.870  12.438
11101W        W81701  41.393   1.833   1.363
11102W        W81702  22.950  30.390   3.245
11103W        W81703  23.298   9.439   2.702
11104W        W81704  23.378  19.816   1.805
11105W        W81705  12.656  13.960  13.557
11106W        W81706  17.513  36.074   0.919
11107W        W81707   7.190  17.151   2.695
11108W        W81708  25.942  16.742  15.000
11109W        W81709   2.779  20.774   2.358
11110W        W81710  20.511  31.367  14.258
11111W        W81711  10.523  25.765   2.665
11112W        W81712  24.164   4.687  11.551
11113W        W81713   9.071  14.792  11.002
11114W        W81714  10.078  28.232  12.203
11115W        W81715  30.171   4.485   2.430
11116W        W81716   7.911  21.061   0.955
11117W        W81717   9.482  16.663   1.915
11118W        W81718  30.781  20.310   0.535
11119W        W81719  17.233  15.943  12.052
11120W        W81720   9.906   6.799  11.987
11121W        W81721  21.970   6.165  12.312
11122W        W81722  39.493  29.529  13.782
11123W        W81723  37.516  29.426   4.156
11124W        W81724  37.027  44.773   0.895
11125W        W81725  22.494  18.237  12.477
11126W        W81726  23.593  37.945   1.834
11127W        W81727  34.825  38.920  13.210
11128W        W81728   2.248  12.375   3.178
11129W        W81729   7.147  16.103  11.574
11130W        W81730  41.823  10.309  13.413
11131W        W81731  31.714  29.935   2.501
11132W        W81732  41.753  39.146   4.145
11133W        W81733   8.485  30.224   4.187
11134W        W81734  11.663  25.165   3.205
11135W        W81735  21.162  15.895  13.569
11136W        W81736  41.643  11.117  13.760
11137W        W81737  20.838  25.664   4.022
11138W        W81738   9.627  25.953  14.552
11139W        W81739  16.681  20.625   0.850
11140W        W81740  32.615  26.165  14.764
11141W        W81741   2.136  24.463  14.268
11142W        W81742  21.142  22.091  11.507
11143W        W81743  15.197  29.852  11.080
11144W        W81744  22.843  37.093  10.718
11145W        W81745   1.216  28.064  12.476
11146W        W81746  12.881  35.734   0.806
11147W        W81747  20.268  24.640   1.723
11148W        W81748  12.331   5.810   3.321
11149W        W81749  33.892   7.321   1.965
11150W        W81750  21.568  20.003  13.054
11151W        W81751  32.464  22.238   4.164
11152W        W81752   9.313   0.722  12.403
11153W        W81753  37.566  11.778   3.181
11154W        W81754  18.515  26.167  14.530
11155W        W81755  35.157  36.555  13.513
11156W        W81756  37.645   7.637  12.600
11157W        W81757  13.905   9.577  13.464
11158W        W81758  34.984  19.376  13.991
11159W        W81759  18.500  32.366  10.764
11160W        W81760  26.239  11.238  10.575
11161W        W81761  17.762  37.421   1.965
11162W        W81762  16.634  36.405  14.972
11163W        W81763  15.313  17.396   3.249
11164W        W81764  12.051  38.645  13.531
11165W        W81765  32.610  41.918   2.623
11166W        W81766  17.107   8.080  12.866
11167W        W81767  30.167  34.878  12.464
11168W        W81768   3.914   6.906  11.017
11169W        W81769   6.934  16.253  14.923
11170W        W81770  36.788  18.840  13.025
11171W        W81771   9.320  14.231  10.141
11172W        W81772   7.679  33.657  10.739
11173W        W81773  18.720  30.766   0.950
11174W        W81774  43.246  25.465  11.036
11175W        W81775  26.173  29.233   4.870
11176W        W81776   9.721  33.952   1.503
11177W        W81777  37.566  38.869   1.168
11178W        W81778  27.081  44.965  12.887
11179W        W81779  13.828  24.768   2.252
11180W        W81780  44.034  44.393   4.643
11181W        W81781  25.197  37.482  10.972
11182W        W81782  29.565   5.386  11.163
11183W        W81783  42.760  33.102   0.350
11184W        W81784  17.258  19.197  13.668
11185W        W81785  10.266  16.379   1.410
11186W        W81786  13.327  43.985   1.470
11187W        W81787  41.986  24.564   0.505
11188W        W81788  35.759  24.270   3.273
11189W        W81789  38.523  26.955  13.015
11190W        W81790   7.194  16.505   4.175
11191W        W81791  26.448  31.190   0.217
11192W        W81792   7.331  12.258   1.554
11193W        W81793  20.776  13.460   2.397
11194W        W81794   0.482  29.456  13.467
11195W        W81795  28.448  25.408   1.848
11196W        W81796   7.340   6.647   1.241
11197W        W81797   7.089  32.916  14.964
11198W        W81798  35.596  12.561  10.651
11199W        W81799   3.301   0.983   1.407
11200W        W81800  10.722  31.667   0.689
11201W        W81801   1.988  16.646  11.077
11202W        W81802  22.581   5.796  14.293
11203W        W81803  37.445  32.134  12.476
11204W        W81804  29.484   7.705  12.694
11205W        W81805   5.955  15.663   3.852
11206W        W81806  42.991  40.535   1.692
11207W        W81807   6.130  23.123  14.941
11208W        W81808   0.429  24.154   1.842
11209W        W81809  23.185   2.335  11.619
11210W        W81810  41.478  16.109  14.989
11211W        W81811   6.016  14.572   0.414
11212W        W81812  31.121  29.097   0.406
11213W        W81813  18.492   4.905  12.657
11214W        W81814  13.328  13.752  11.994
11215W        W81815  38.346  33.658  11.168
11216W        W81816  28.077  39.262   4.084
11217W        W81817  18.531  21.139   2.424
11218W        W81818  23.120   6.688   3.574
11219W        W81819   9.701  24.592   1.870
11220W        W81820  36.359  18.492   1.400
11221W        W81821   9.606  25.055  13.542
11222W        W81822  22.046  20.354   1.969
11223W        W81823  12.298  44.679  13.086
11224W        W81824  38.613  43.408   2.402
11225W        W81825  26.525  10.120  13.076
11226W        W81826   6.842  29.513  11.608
11227W        W81827  42.911   8.420   3.216
11228W        W81828   6.910  34.610  11.475
11229W        W81829   5.675  27.717  12.468
11230W        W81830  24.143  11.093   2.192
11231W        W81831  44.239  33.480   2.714
11232W        W81832  27.987  23.059   4.262
11233W        W81833  25.576   4.741   4.208
11234W        W81834  22.614   8.928   3.255
11235W        W81835  38.883  42.584   4.158
11236W        W81836  39.314  18.709  12.467
11237W        W81837   8.313  39.921  12.080
11238W        W81838  41.011  14.737   1.255
11239W        W81839  17.768   3.438  13.506
11240W        W81840  14.303   3.762  13.468
11241W        W81841  14.084   0.193  13.921
11242W        W81842  37.664  35.183   3.170
11243W        W81843  16.470   6.221  11.982
11244W        W81844   9.781  33.178  14.127
11245W        W81845  13.840  35.031   2.680
11246W        W81846   9.739  20.516   1.967
11247W        W81847   3.184  44.985  12.509
11248W        W81848  22.311  30.108  11.218
11249W        W81849  43.636   5.367   2.617
11250W        W81850  17.719  44.878   4.100
11251W        W81851  24.740   6.674   0.912
11252W        W81852  15.332  14.840  11.840
11253W        W81853  15.993  28.269  11.691
11254W        W81854  40.442  44.235   2.496
11255W        W81855   1.220  23.934  14.414
11256W        W81856  31.918  33.353  13.322
11257W        W81857  11.314  22.579   1.447
11258W        W81858   6.869  12.086  12.657
11259W        W81859  25.310  38.104  14.385
11260W        W81860  11.297  21.051  11.335
11261W        W81861  31.380   1.724   0.762
11262W        W81862  20.340  22.999   2.692
11263W        W81863  43.058  13.135   0.962
11264W        W81864  40.364   5.300   0.518
11265W        W81865  37.887  11.181  14.709
11266W        W81866  13.339  42.341  11.552
11267W        W81867  36.210  39.435   3.771
11268W        W81868  16.713  32.487   4.543
11269W        W81869  42.048  21.717  13.795
11270W        W81870  26.415   7.439   3.696
11271W        W81871  28.473  22.624   0.035
11272W        W81872  40.388  14.578  11.971
11273W        W81873   4.724  35.411   3.215
11274W        W81874  25.574  34.287  12.156
11275W        W81875  10.287  17.252  14.677
11276W        W81876  18.988  34.440   1.736
11277W        W81877  44.365   4.371  12.914
11278W        W81878  14.456   6.087   3.897
11279W        W81879   2.346  31.965  13.357
11280W        W81880  29.653  40.158  12.957
11281W        W81881   9.388   7.376   1.850
11282W        W81882  42.572  33.193   0.839
11283W        W81883  17.243  43.360   1.918
11284W        W81884  24.482  43.968  14.385
11285W        W81885   6.364  22.118   0.251
11286W        W81886  30.472   1.931  11.584
11287W        W81887   9.312  37.181   4.195
11288W        W81888  22.508  24.635  12.892
11289W        W81889  17.196   1.985  12.026
11290W        W81890  10.181  41.411   0.984
11291W        W81891  19.008  18.707  13.431
11292W        W81892   4.763   8.260  11.630
11293W        W81893  15.179   0.232  11.494
11294W        W81894  42.784  23.226  12.093
11295W        W81895  22.439  24.245  13.637
11296W        W81896  15.265  26.687   0.322
11297W        W81897  44.836  35.385   0.302
11298W        W81898  30.631  32.421   4.174
11299W        W81899  11.834  24.015   3.779
11300W        W81900  31.107  31.722   1.322
11301W        W81901   4.363   2.311   2.731
11302W        W81902  35.584  30.135  12.376
11303W        W81903  37.993   0.036   3.743
11304W        W81904  15.306   9.345   1.939
11305W        W81905  13.679  35.894  11.676
11306W        W81906  28.179  17.138   1.920
11307W        W81907  35.329  35.071   1.808
11308W        W81908  23.666  34.599   2.383
11309W        W81909  14.562  42.558   3.269
11310W        W81910  32.913  42.653   4.494
11311W        W81911  14.621  41.362   4.611
11312W        W81912  24.088  11.116   3.129
11313W        W81913   3.317  24.201  13.294
11314W        W81914  14.289  20.070   1.481
11315W        W81915  24.644  25.615  11.128
11316W        W81916  24.718  22.059   2.342
11317W        W81917  19.494  40.922  14.584
11318W        W81918  12.439  38.335   2.948
11319W        W81919  34.448  19.550   3.878
11320W        W81920  23.216  10.181   4.033
11321W        W81921  37.795   9.763  12.953
11322W        W81922   5.307  18.529   2.595
11323W        W81923  11.585   3.622   4.537
11324W        W81924  30.651   8.402   3.326
11325W        W81925  41.966  23.251  13.801
11326W        W81926  19.243  33.630  13.010
11327W        W81927   4.772   3.642  11.807
11328W        W81928  27.968  43.922  11.700
11329W        W81929   3.453   2.352   2.878
11330W        W81930  22.748  14.522   4.351
11331W        W81931  36.167  15.619  11.159
11332W        W81932  11.358  27.915   3.289
11333W        W81933  15.847  21.720   3.278
11334W        W81934  30.536  14.238  12.371
11335W        W81935  28.968  42.507  11.695
11336W        W81936  18.748   8.748   0.939
11337W        W81937  33.149   2.876   1.689
11338W        W81938  41.066  16.782  14.932
11339W        W81939  38.513  26.946   2.313
11340W        W81940  33.499  28.256  10.654
11341W        W81941  18.553   8.818  13.519
11342W        W81942  16.244  37.596  10.513
11343W        W81943  44.708  10.753   1.748
11344W        W81944  15.357  28.966  11.672
11345W        W81945  15.285  27.986   0.852
11346W        W81946  24.984  35.885  13.455
11347W        W81947  38.640  36.801   4.141
11348W        W81948  23.514  23.725  11.687
11349W        W81949  43.410   1.693   2.272
11350W        W81950   6.781   1.714   0.325
11351W        W81951  31.841  26.832  14.928
11352W        W81952  34.383  43.772   2.798
11353W        W81953  17.185  29.755   2.825
11354W        W81954  30.599   1.233   0.257
11355W        W81955   5.289  16.114  13.735
11356W        W81956  31.840  42.400   1.359
11357W        W81957  23.449  24.176   2.421
11358W        W81958  15.005  19.551  11.861
11359W        W81959   6.840  28.019   4.184
11360W        W81960   6.346  22.453  14.325
11361W        W81961  38.488   8.311   2.876
11362W        W81962  26.990   2.370   3.751
11363W        W81963  42.461  33.911  14.788
11364W        W81964  19.585  14.488   5.102
11365W        W81965  39.765   1.871  10.784
11366W        W81966  40.980  27.228   3.728
11367W        W81967   0.735  41.340  11.125
11368W        W81968  12.056  26.055  11.157
11369W        W81969   5.888   7.207   2.561
11370W        W81970  17.647  19.632   3.159
11371W        W81971  34.668  11.184   4.826
11372W        W81972   5.436   7.602   1.652
11373W        W81973  18.310  39.388  11.057
11374W        W81974  24.735  27.963  12.093
11375W        W81975  24.634  30.937   3.814
11376W        W81976  36.027  24.074  14.440
11377W        W81977   2.133  14.257   1.140
11378W        W81978  38.804   8.764   4.983
11379W        W81979  26.174  24.624   4.226
11380W        W81980   0.883  40.393  11.118
11381W        W81981  21.198  33.817   2.101
11382W        W81982   3.012  25.314  12.577
11383W        W81983  42.819   0.301   4.263
11384W        W81984   4.443  29.503  14.721
11385W        W81985   4.153  42.565   0.831
11386W        W81986  42.216  10.654  12.487
11387W        W81987   6.793  32.954   3.358
11388W        W81988  42.212  18.067  13.100
11389W        W81989  34.448  34.806   2.186
11390W        W81990   7.315  35.596   3.679
11391W        W81991  13.204   5.020   4.601
11392W        W81992  13.602  26.387  11.685
11393W        W81993  43.814  29.422  12.948
11394W        W81994  28.309   9.447   0.879
11395W        W81995  40.239  28.114  14.502
11396W        W81996  12.123  15.702   3.200
11397W        W81997  12.233  13.405   2.406
11398W        W81998  25.074  39.960  14.410
11399W        W81999  20.573  35.923   0.570
11400W        W82000  18.128  39.153   0.203
11401W        W82001   9.321  12.360   2.233
11402W        W82002  12.827  13.537  12.680
11403W        W82003   8.100  40.731  13.588
11404W        W82004  27.093  18.130  12.469
11405W        W82005   5.966  35.819  11.261
11406W        W82006  30.520  25.177  12.584
11407W        W82007   3.840   7.562   0.212
11408W        W82008  37.365  16.303   0.284
11409W        W82009   2.895  18.722  12.624
11410W        W82010   5.815   1.188   1.965
11411W        W82011  21.821  12.912  11.452
11412W        W82012   8.716  12.392  13.875
11413W        W82013  29.942   6.910  10.628
11414W        W82014  29.927  38.828   3.225
11415W        W82015  18.352   0.300  12.148
11416W        W82016   7.056  36.478   2.758
11417W        W82017  28.090  17.793  13.795
11418W        W82018   0.795   6.453   2.781
11419W        W82019  43.852  26.031   2.657
11420W        W82020  30.404  10.904   1.394
11421W        W82021   1.334   9.623  12.438
11422W        W82022  37.803  14.127  14.433
11423W        W82023  40.868  17.568   1.674
11424W        W82024  37.436  35.134   3.644
11425W        W82025   1.321   0.643  11.889
11426W        W82026  43.297   3.004   2.675
11427W        W82027  28.785  21.067  14.835
11428W        W82028  30.671  11.346  10.431
11429W        W82029  13.137  26.630  10.729
11430W        W82030  12.194  13.535   1.400
11431W        W82031  27.770   8.117   4.083
11432W        W82032  20.272  20.028   1.302
11433W        W82033  21.239  18.805   0.206
11434W        W82034  35.959   5.976  10.986
11435W        W82035  25.911  43.474   2.875
11436W        W82036  35.641  24.719   3.017
11437W        W82037   8.442  19.121  13.830
11438W        W82038   0.740  43.269   1.943
11439W        W82039  43.779  26.204  14.870
11440W        W82040  11.801  21.761   1.284
11441W        W82041  29.954   1.938  10.847
11442W        W82042  16.610   2.863   2.417
11443W        W82043  24.264  37.433   9.693
11444W        W82044  42.015  30.890  13.918
11445W        W82045   3.846  10.803  14.160
11446W        W82046  43.656  27.895  11.110
11447W        W82047  26.451  20.262   3.277
11448W        W82048  30.841  16.201  11.499
11449W        W82049  42.439  36.362   2.375
11450W        W82050   2.706   8.747   1.382
11451W        W82051  33.430   4.198  12.538
11452W        W82052  33.513  28.196  14.428
11453W        W82053  18.526  27.063   0.895
11454W        W82054  24.691  40.369   1.875
11455W        W82055  11.180  41.066  13.443
11456W        W82056  28.243  37.727   3.121
11457W        W82057   0.705  17.929  12.506
11458W        W82058   6.396  13.169  13.648
11459W        W82059  31.932  40.917  14.976
11460W        W82060  20.771  29.113  11.071
11461W        W82061   3.278  11.749   2.999
11462W        W82062  20.201   8.652   0.034
11463W        W82063  42.972   9.455  11.095
11464W        W82064  26.756  30.395  14.415
11465W        W82065   7.309  36.630  14.698
11466W        W82066  12.893  17.601  12.949
11467W        W82067  40.447   2.417   4.821
11468W        W82068  21.358   6.799   1.636
11469W        W82069  26.226  23.479   0.875
11470W        W82070  21.797  28.990   0.760
11471W        W82071   4.530   0.039  14.456
11472W        W82072   0.477  25.122   0.485
11473W        W82073   5.470  38.494   3.176
11474W        W82074  32.920  14.384   1.942
11475W        W82075  44.883  30.902  13.944
11476W        W82076  42.466  33.501   0.219
11477W        W82077  10.827   4.790   2.185
11478W        W82078  18.786  40.941   4.278
11479W        W82079  38.622  38.382   2.135
11480W        W82080  34.164  12.336  12.963
11481W        W82081  13.334  25.892  14.360
11482W        W82082  25.726  14.553   0.258
11483W        W82083  41.764  27.624   4.704
11484W        W82084  43.790  21.541  13.565
11485W        W82085   9.636   2.478   0.431
11486W        W82086  42.657   4.367   3.669
11487W        W82087  15.323  10.923   1.149
11488W        W82088  40.427  15.839  13.030
11489W        W82089  33.056   7.186  13.447
11490W        W82090  40.981   6.384   0.835
11491W        W82091  24.061  18.786  10.614
11492W        W82092  12.782  23.194   4.869
11493W        W82093   6.465  37.466  13.773
11494W        W82094  37.395  21.878   4.987
11495W        W82095  19.695  20.937   3.240
11496W        W82096  41.289  10.152  14.579
11497W        W82097  13.161  24.587  14.142
11498W        W82098  43.076  21.600   4.547
11499W        W82099  41.930  31.681   1.673
11500W        W82100  34.548   6.290   1.267
11501W        W82101  13.696  25.188  10.739
11502W        W82102  15.334  28.614  10.714
11503W        W82103  27.945  17.179   2.371
11504W        W82104  41.843  14.860   2.435
11505W        W82105  16.745  24.036  10.451
11506W        W82106   7.334  27.373  13.017
11507W        W82107  11.123  30.066   0.825
11508W        W82108  40.518  16.579  13.538
11509W        W82109   0.323   8.241   4.660
11510W        W82110   7.667   7.517   2.581
11511W        W82111  33.458  12.954  14.779
11512W        W82112  18.161   4.199   0.877
11513W        W82113  36.536  34.370  13.414
11514W        W82114   3.138  38.986   4.940
11515W        W82115  39.117  35.026   2.321
11516W        W82116  35.374   1.413  13.319
11517W        W82117  17.307   4.997   5.074
11518W        W82118  18.475   8.816   1.394
11519W        W82119  10.276  44.852   0.410
11520W        W82120  43.808  27.376   2.217
11521W        W82121   9.448  29.097   2.824
11522W        W82122  43.340  10.101   2.766
11523W        W82123   2.327  43.365   0.270
11524W        W82124   4.937   2.783  11.238
11525W        W82125   9.473   2.349  11.293
11526W        W82126  11.265  40.964   1.707
11527W        W82127  14.971  17.659   1.420
11528W        W82128   7.200  14.096  13.272
11529W        W82129  17.211  32.344  12.867
11530W        W82130   5.723  39.936   0.213
11531W        W82131  41.242  22.205  13.848
11532W        W82132   4.500   2.242   3.675
11533W        W82133  22.048  42.911   4.290
11534W        W82134  20.194  29.705  12.333
11535W        W82135  22.578   9.534   0.896
11536W        W82136  34.002  29.133  13.498
11537W        W82137  23.138  28.713  13.431
11538W        W82138  36.340  43.234  12.070
11539W        W82139   0.912  35.135   2.783
11540W        W82140  22.757  19.748  12.386
11541W        W82141  28.506   0.815  11.518
11542W        W82142  10.532  39.406  14.118
11543W        W82143  29.845  15.671   4.009
11544W        W82144  17.388  31.368  13.040
11545W        W82145  28.150   8.242  14.024
11546W        W82146  32.399  28.339   4.078
11547W        W82147  35.004  28.061   1.017
11548W        W82148  23.235  42.756   1.810
11549W        W82149  43.494  32.893   4.337
11550W        W82150   0.208  25.193  11.368
11551W        W82151  39.833  32.974  14.571
11552W        W82152   8.991   6.752   1.483
11553W        W82153  44.486   3.115   0.758
11554W        W82154  35.867  23.649   0.289
11555W        W82155   0.878  11.780   0.273
11556W        W82156   5.679  17.685   4.163
11557W        W82157  43.942  31.722   2.701
11558W        W82158  33.428  44.796   5.130
11559W        W82159   1.353  14.659   3.408
11560W        W82160  24.198  17.404   1.213
11561W        W82161  19.292   5.829   3.650
11562W        W82162  18.289  14.116  11.487
11563W        W82163  16.293  11.230   0.022
11564W        W82164  27.533  25.927   0.789
11565W        W82165  29.003   0.559   0.696
11566W        W82166  14.160  39.557  14.941
11567W        W82167  40.109  20.836   4.591
11568W        W82168  29.802  32.153  10.372
11569W        W82169  24.227  28.963   1.346
11570W        W82170  25.000  19.066  10.721
11571W        W82171  38.528   3.660  14.381
11572W        W82172  15.244  42.297   3.826
11573W        W82173  18.382  37.835   0.484
11574W        W82174  15.154  32.649  14.340
11575W        W82175   6.154   8.751  14.036
11576W        W82176  28.674   9.802  10.681
11577W        W82177  38.120  14.836  10.789
11578W        W82178  23.247  22.839   4.215
11579W        W82179  25.159  38.142   2.270
11580W        W82180  30.275  38.294   5.300
11581W        W82181  21.985  31.719   0.963
11582W        W82182  43.687  16.128   2.321
11583W        W82183  36.552  32.467   4.632
11584W        W82184  37.823  31.572  13.457
11585W        W82185  32.579  17.444  10.426
11586W        W82186  24.402  16.325  10.567
11587W        W82187  15.239   9.185  14.473
11588W        W82188   0.520  37.561  10.406
11589W        W82189   7.325  23.957   4.054
11590W        W82190  30.124  23.166   4.282
11591W        W82191  41.339  25.977  10.996
11592W        W82192  27.161   0.876  12.137
11593W        W82193  39.710  10.628   2.315
11594W        W82194   8.704  38.264  11.202
11595W        W82195  30.981  30.455  11.958
11596W        W82196   7.685  25.247   4.212
11597W        W82197  14.066  20.035   1.944
11598W        W82198  28.470  20.758   1.712
11599W        W82199   0.210   6.473  14.560
11600W        W82200  36.040  31.161  14.043
11601W        W82201  26.830  21.338  10.292
11602W        W82202  22.581  26.206  14.507
11603W        W82203  29.544  11.136  12.838
11604W        W82204  30.462  20.103  13.104
11605W        W82205  36.485  38.049   0.474
11606W        W82206  21.001  11.448  13.525
11607W        W82207  28.166  10.236   2.351
11608W        W82208  43.381  19.495  11.659
11609W        W82209   2.228  29.097  14.029
11610W        W82210  32.392  21.878  13.195
11611W        W82211  18.682   8.955   3.309
11612W        W82212  39.978   3.427  10.559
11613W        W82213  18.802  23.943   4.120
11614W        W82214  35.627  13.881   2.737
11615W        W82215  10.726  27.869   2.189
11616W        W82216   1.497  44.328  11.128
11617W        W82217   3.379  38.358   1.482
11618W        W82218  36.430  19.139  12.598
11619W        W82219  39.419  33.177  14.981
11620W        W82220  38.668  21.463  13.390
11621W        W82221  25.894  11.046   2.788
11622W        W82222  18.753  43.371   0.413
11623W        W82223   3.664  23.907   0.825
11624W        W82224  27.386  25.195  11.081
11625W        W82225  38.612  15.272  14.279
11626W        W82226  31.472  26.685   9.868
11627W        W82227   0.947  35.120   1.877
11628W        W82228   5.889   8.833   4.083
11629W        W82229  35.139  25.247  13.392
11630W        W82230   5.637  25.954  12.066
11631W        W82231   6.946  38.009   3.537
11632W        W82232  32.550  21.674   1.086
11633W        W82233  26.595   4.289   2.955
11634W        W82234  15.045  15.208  12.100
11635W        W82235  36.607  40.957   1.557
11636W        W82236  32.031  24.118   2.707
11637W        W82237   2.358  27.517  10.715
11638W        W82238  11.853  36.655  14.510
11639W        W82239  38.786  31.892   3.150
11640W        W82240   2.276   9.119   2.676
11641W        W82241  22.959   7.435  14.311
11642W        W82242  12.202   4.481   1.256
11643W        W82243  21.833  29.737  11.124
11644W        W82244  13.487   5.279  11.083
11645W        W82245   1.478  19.530   5.004
11646W        W82246  37.327  25.565   0.254
11647W        W82247  11.034  43.784   4.505
11648W        W82248  11.678   7.264  12.931
11649W        W82249  35.763   3.992   4.190
11650W        W82250   6.950  30.280   1.836
11651W        W82251   7.186  37.855   2.584
11652W        W82252  26.296   4.901  14.332
11653W        W82253  42.013  14.267   4.252
11654W        W82254  40.220  41.020  13.146
11655W        W82255   1.747   3.214   1.845
11656W        W82256  37.006   1.793  13.751
11657W        W82257  11.361   0.443   1.864
11658W        W82258   0.521   8.232  10.781
11659W        W82259  20.748  44.459   0.479
11660W        W82260  44.964   6.263   5.090
11661W        W82261  33.352  36.048  12.055
11662W        W82262  23.738  12.696   0.377
11663W        W82263  37.523  18.709   0.966
11664W        W82264  12.074  24.118  14.977
11665W        W82265  40.953  17.368  13.581
11666W        W82266   2.902   5.188  11.211
11667W        W82267  29.197  35.655  12.581
11668W        W82268  41.062  16.821   2.709
11669W        W82269  41.793  30.228  11.158
11670W        W82270   6.938   7.838  14.878
11671W        W82271  29.612   4.474   3.120
11672W        W82272  15.124  18.758  11.944
11673W        W82273   8.401  44.021   1.931
11674W        W82274  29.084  36.522   1.304
11675W        W82275  35.832  31.427  10.622
11676W        W82276   5.185  38.934   2.231
11677W        W82277  15.080  19.465   0.268
11678W        W82278  28.355   7.714   3.577
11679W        W82279  16.193   8.692   1.144
11680W        W82280  10.712  32.357   3.451
11681W        W82281  19.494   3.257  12.534
11682W        W82282  22.692  36.406  12.394
11683W        W82283  40.901  29.253   3.429
11684W        W82284  14.722  41.211  12.355
11685W        W82285  17.702   6.296   4.929
11686W        W82286  16.560  39.550  11.622
11687W        W82287   9.830  33.601   3.852
11688W        W82288  42.336  16.680  13.311
11689W        W82289  43.558   6.667   1.741
11690W        W82290  34.630  33.072  11.640
11691W        W82291  41.810   0.634   3.544
11692W        W82292   3.349  12.050   2.171
11693W        W82293  30.486   8.673   3.750
11694W        W82294  41.560  28.034  14.969
11695W        W82295  12.294   0.700  13.029
11696W        W82296  15.264  38.138   1.149
11697W        W82297  44.034  17.042   1.977
11698W        W82298   5.935  25.514   3.151
11699W        W82299   3.382  34.181  14.854
11700W        W82300  40.587  28.614  13.786
11701W        W82301  41.494  36.966  11.456
11702W        W82302  11.849   9.223  10.606
11703W        W82303  42.685   9.910  11.192
11704W        W82304  30.827   8.381  11.668
11705W        W82305  29.079  12.819   0.249
11706W        W82306   4.785  39.352   2.954
11707W        W82307   3.433  34.942   4.201
11708W        W82308  36.598  34.576   1.422
11709W        W82309  23.933  36.444  11.143
11710W        W82310  11.806   1.810  11.477
11711W        W82311  16.535  25.732   2.801
11712W        W82312  15.163  20.980   0.973
11713W        W82313  38.857  37.551   3.692
11714W        W82314  39.203  12.642  11.612
11715W        W82315   2.381  19.026   2.286
11716W        W82316  41.259   5.984   3.777
11717W        W82317   0.269  24.098   4.732
11718W        W82318   1.887  27.501   3.261
11719W        W82319  37.578   8.338   2.390
11720W        W82320  27.939   9.792   4.094
11721W        W82321  44.453  44.922  10.879
11722W        W82322  42.416  18.239  12.665
11723W        W82323   5.520  17.516   3.581
11724W        W82324  13.317   1.425   0.568
11725W        W82325   6.313  42.869  10.976
11726W        W82326   4.381  10.978  10.621
11727W        W82327  10.927  16.607   4.144
11728W        W82328  31.025  26.989  11.442
11729W        W82329   3.651  39.398  13.009
11730W        W82330  43.028  18.466   3.076
11731W        W82331  23.960  18.011  14.240
11732W        W82332  39.552  20.645  13.786
11733W        W82333  38.232  16.324  12.847
11734W        W82334  26.444  13.764   5.015
11735W        W82335   2.813  24.209  12.950
11736W        W82336  20.065   1.764  13.380
11737W        W82337  24.556   9.224  11.961
11738W        W82338  42.945  24.130  14.960
11739W        W82339  39.034   4.611   1.377
11740W        W82340   8.629  15.717   4.736
11741W        W82341  35.991  41.969   0.279
11742W        W82342   4.417  43.264   4.216
11743W        W82343  14.292  35.528  14.685
11744W        W82344  36.833  38.746  13.545
11745W        W82345  27.563   8.334  11.864
11746W        W82346  21.093   6.855  13.039
11747W        W82347  14.889  19.568  13.015
11748W        W82348  36.625  12.984   2.311
11749W        W82349  28.181   1.995  11.156
11750W        W82350  29.979   5.876  10.706
11751W        W82351  35.942  34.054   4.091
11752W        W82352  30.488  32.408  14.450
11753W        W82353  38.698  18.853  12.993
11754W        W82354  42.417   5.706  12.527
11755W        W82355  41.770   1.056  12.905
11756W        W82356  25.952  37.627   3.209
11757W        W82357  23.164  13.536   0.336
11758W        W82358  28.470   4.713   4.687
11759W        W82359   6.282  11.077   3.688
11760W        W82360   7.312  12.005  14.014
11761W        W82361   6.512   3.925   3.735
11762W        W82362  44.978  16.283   0.905
11763W        W82363  11.049  28.144  12.006
11764W        W82364   0.212  12.403  13.137
11765W        W82365  10.007  23.328   1.662
11766W        W82366  42.388  36.157   1.188
11767W        W82367  30.727  33.534  12.799
11768W        W82368  23.625   8.412   2.712
11769W        W82369  41.446  24.659  13.564
11770W        W82370  26.061   0.711   2.497
11771W        W82371  39.948  19.502  12.382
11772W        W82372  12.286   1.960   3.145
11773W        W82373  26.977  12.213   4.380
11774W        W82374  32.936  23.204  11.230
11775W        W82375  25.040   3.824   3.142
11776W        W82376   1.000  18.503   0.394
11777W        W82377   4.749  39.044   4.432
11778W        W82378  38.983  37.534  13.940
11779W        W82379  37.052  39.773   0.367
11780W        W82380  18.181  21.857   1.510
11781W        W82381  26.646   3.640  13.882
11782W        W82382  39.982  25.561   4.637
11783W        W82383  16.699   4.794   4.893
11784W        W82384  26.865  17.135   0.201
11785W        W82385  44.083  41.902  14.991
11786W        W82386  22.310   1.201  13.423
11787W        W82387   8.944   6.886  12.903
11788W        W82388  29.555  36.937   4.532
11789W        W82389  17.743   2.653  13.940
11790W        W82390  14.294   0.238   1.925
11791W        W82391  19.291  35.949   2.729
11792W        W82392  26.208  40.469  11.736
11793W        W82393  14.760  24.937  14.309
11794W        W82394  35.305   6.294  13.177
11795W        W82395  13.652   2.807  12.139
11796W        W82396  17.156  35.885   0.505
11797W        W82397  17.051  27.465  14.321
11798W        W82398   4.480  21.665   2.732
11799W        W82399  11.764  30.678   1.708
11800W        W82400  24.850   7.288  11.134
11801W        W82401   4.445  29.220  11.873
11802W        W82402   8.495  33.125  12.809
11803W        W82403  38.678   0.768  10.677
11804W        W82404  18.771  41.894  13.344
11805W        W82405  38.408   9.350   4.417
11806W        W82406  38.862   7.168   0.753
11807W        W82407  29.506  26.040  13.910
11808W        W82408  38.444  13.125  10.665
11809W        W82409   7.187  27.539  14.709
11810W        W82410  25.776  43.835  14.561
11811W        W82411  24.004  19.097  11.015
11812W        W82412  36.554  28.723  12.060
11813W        W82413  17.849   0.247  12.220
11814W        W82414  40.336  28.841   2.983
11815W        W82415  42.287  38.452  13.516
11816W        W82416   2.245  38.053  13.479
11817W        W82417   7.159  15.082  12.520
11818W        W82418   1.734  39.512  13.896
11819W        W82419   7.573  22.963  12.241
11820W        W82420  44.805  37.313  12.293
11821W        W82421  33.472  31.686  10.559
11822W        W82422  20.721  35.176  12.456
11823W        W82423  24.639   4.728   3.269
11824W        W82424  15.054  39.042   0.853
11825W        W82425  44.243  43.481  13.447
11826W        W82426   8.184  10.762   1.855
11827W        W82427  25.891  17.837  12.094
11828W        W82428  37.297  26.343  14.857
11829W        W82429  30.676  16.523   0.352
11830W        W82430  17.180  22.588   2.422
11831W        W82431  19.604   3.009  13.394
11832W        W82432  36.339  12.641   3.172
11833W        W82433   3.221  40.544   3.693
11834W        W82434  11.805  32.418  14.253
11835W        W82435  36.490   7.442  12.456
11836W        W82436  20.857   7.236  11.020
11837W        W82437  40.092  44.225   0.211
11838W        W82438  19.982  17.117  11.131
11839W        W82439  30.703  38.906  14.879
11840W        W82440  43.840  12.274  14.484
11841W        W82441  31.988  13.208  14.261
11842W        W82442   0.787  23.572   3.928
11843W        W82443  19.598  38.097   1.764
11844W        W82444  21.562  43.419  10.438
11845W        W82445  30.415  32.056   0.381
11846W        W82446   6.970  10.215  11.615
11847W        W82447  44.682  21.300   4.108
11848W        W82448  17.239  18.544  11.628
11849W        W82449  10.392  41.961   4.132
11850W        W82450  30.611  36.846   1.039
11851W        W82451  37.866  41.310   1.132
11852W        W82452  26.238   6.401  13.234
11853W        W82453   5.913  24.704   2.987
11854W        W82454  22.293  31.972  11.446
11855W        W82455   0.412   4.170  11.524
11856W        W82456  38.830   8.337   4.609
11857W        W82457  42.916  43.432   4.501
11858W        W82458   8.602  24.048   4.270
11859W        W82459  28.712  33.847  13.591
11860W        W82460   5.849  18.436  13.760
11861W        W82461  23.992   3.599  11.518
11862W        W82462  42.941  25.150  12.884
11863W        W82463  25.302  35.062   0.777
11864W        W82464  27.925  22.185  13.924
11865W        W82465  29.933  32.523  13.787
11866W        W82466  44.926  20.864   3.922
11867W        W82467  15.258  40.032  13.914
11868W        W82468  27.071  20.524  13.940
11869W        W82469  19.191  20.885  10.108
11870W        W82470   9.270  16.736   3.619
11871W        W82471   7.553  37.274  11.259
11872W        W82472  30.598  33.694  10.648
11873W        W82473  43.245  39.840  14.110
11874W        W82474   5.957  20.342   3.800
11875W        W82475  35.394  41.515   0.830
11876W        W82476  38.672  12.080  10.270
11877W        W82477  35.313  22.213   3.249
11878W        W82478  35.295   4.231  11.279
11879W        W82479  23.771  17.031  12.619
11880W        W82480  23.193   4.877   4.714
11881W        W82481  31.031  20.597   0.936
11882W        W82482  25.147  15.550   0.921
11883W        W82483  10.559   3.893   4.716
11884W        W82484  29.419  16.122  13.034
11885W        W82485  18.197   2.694   4.584
11886W        W82486  32.176  19.802  14.795
11887W        W82487  17.044  21.124  10.932
11888W        W82488  24.925  39.339  12.851
11889W        W82489  40.042  31.085   0.689
11890W        W82490  21.637  15.627  13.504
11891W        W82491   8.654   6.378  10.634
11892W        W82492  12.702  12.332  14.815
11893W        W82493   1.287  25.956  14.284
11894W        W82494  27.661  41.132  13.856
11895W        W82495  43.016   2.713  12.002
11896W        W82496  43.913  31.899  13.740
11897W        W82497  42.283  14.316  13.051
11898W        W82498   8.819  31.523   1.684
11899W        W82499   4.849  12.990  11.049
11900W        W82500  16.778  22.227  14.737
11901W        W82501  24.722  42.047  10.905
11902W        W82502   4.039  19.506  12.477
11903W        W82503  15.727   7.669   4.647
11904W        W82504  18.029  34.595  11.924
11905W        W82505   2.131  38.968  11.995
11906W        W82506  11.207  42.072   4.439
11907W        W82507  25.924  14.402  14.391
11908W        W82508  31.442  40.921   0.792
11909W        W82509   2.900   2.352  13.816
11910W        W82510   1.986  13.829   1.828
11911W        W82511  32.030  20.859   4.509
11912W        W82512  29.126  38.468  14.843
11913W        W82513  17.635  20.169  14.453
11914W        W82514  16.981  20.121  12.817
11915W        W82515  29.483  23.082  14.896
11916W        W82516   7.897  35.654  10.329
11917W        W82517  10.922  19.686   3.977
11918W        W82518  44.432  12.418  11.100
11919W        W82519   7.975   6.128   2.691
11920W        W82520  22.950  32.992   2.395
11921W        W82521  10.271   7.421   1.756
11922W        W82522  15.914  12.235   2.101
11923W        W82523   8.593  35.665  13.054
11924W        W82524  12.337  18.059  14.970
11925W        W82525  36.167  20.254   3.052
11926W        W82526   1.680  23.779  10.803
11927W        W82527  24.399  21.701  12.782
11928W        W82528   1.440  13.189  11.928
11929W        W82529  24.029  38.837   0.350
11930W        W82530   4.893  12.640   4.641
11931W        W82531  12.784  25.171  10.597
11932W        W82532   0.030   5.273   1.239
11933W        W82533  40.500  43.656  11.987
11934W        W82534  27.446   5.113   3.682
11935W        W82535   4.238  39.765  12.042
11936W        W82536   9.768  17.268   0.428
11937W        W82537  29.440  39.808  13.877
11938W        W82538  21.598  26.429   2.406
11939W        W82539  26.580   4.386   2.465
11940W        W82540  25.091   0.122  14.437
11941W        W82541  19.768  17.003  11.574
11942W        W82542  28.207  16.752   4.220
11943W        W82543   4.745   2.835  13.622
11944W        W82544  36.014  13.225  12.026
11945W        W82545   6.306  35.089   1.705
11946W        W82546   1.991   1.854  11.979
11947W        W82547  12.643   5.724  14.196
11948W        W82548  18.467   5.347   4.247
11949W        W82549  32.499  33.109  10.745
11950W        W82550  11.637  10.082  14.669
11951W        W82551  35.501  19.766  14.911
11952W        W82552  35.865  15.846  11.609
11953W        W82553  22.947  17.514  13.488
11954W        W82554   8.120  15.183   0.785
11955W        W82555  12.744  19.744   4.102
11956W        W82556  30.398   3.755  10.682
11957W        W82557  13.652  22.623   4.166
11958W        W82558  23.328   2.717  11.282
11959W        W82559   9.157  23.074  14.056
11960W        W82560  14.171  17.568  14.301
11961W        W82561  34.004  15.150  14.998
11962W        W82562  42.379   4.660  12.489
11963W        W82563  18.097  26.183   1.248
11964W        W82564   9.304  37.070   2.146
11965W        W82565  32.197  36.940   2.847
11966W        W82566  13.107  20.629  11.221
11967W        W82567  14.664   7.291   1.331
11968W        W82568  12.414  31.777   0.293
11969W        W82569  17.747  38.791  13.826
11970W        W82570  25.955  33.221  11.780
11971W        W82571  31.450  30.406   3.825
11972W        W82572   1.743   0.673   2.374
11973W        W82573   6.249  43.984   1.393
11974W        W82574  36.540  18.428   4.046
11975W        W82575  35.395   7.288   4.330
11976W        W82576  21.660  38.551  10.983
11977W        W82577   0.334  34.835   3.653
11978W        W82578  42.883  25.214  11.920
11979W        W82579  15.098  32.040   1.317
11980W        W82580  20.083  44.873   4.955
11981W        W82581  16.297  14.138  13.085
11982W        W82582  39.035  43.334  12.020
11983W        W82583  16.706  10.984   2.863
11984W        W82584  29.669  28.520   1.996
11985W        W82585  44.556  24.329  13.925
11986W        W82586   1.261  20.742   4.140
11987W        W82587  16.705  37.374  10.468
11988W        W82588   1.219  26.690   1.293
11989W        W82589   3.270  31.996  10.407
11990W        W82590  35.348  42.324   0.223
11991W        W82591   1.332  14.740  13.916
11992W        W82592   4.707  34.884   1.261
11993W        W82593  32.633  13.828   1.734
11994W        W82594   2.764  21.185  11.685
11995W        W82595  34.572   2.774  10.576
11996W        W82596  18.951  35.933  10.756
11997W        W82597  15.708   1.937  13.280
11998W        W82598  44.930  35.278  14.792
11999W        W82599  41.292  14.664   4.115
12000W        W82600  13.113   5.816  11.655
12001W        W82601   2.404   7.828  11.658
12002W        W82602  30.142  34.775  14.829
12003W        W82603   5.795  12.153  14.815
12004W        W82604  34.003  42.704   4.169
12005W        W82605  27.902  14.730  13.515
12006W        W82606  19.601  41.886   0.492
12007W        W82607   0.230  35.524   3.097
12008W        W82608  11.366  10.266   3.356
12009W        W82609  21.534   8.786  13.001
12010W        W82610  25.557  35.495   0.761
12011W        W82611   2.101  13.324  13.350
12012W        W82612   9.960  36.588   3.753
12013W        W82613   3.663  36.937   1.603
12014W        W82614  44.975  30.319  10.756
12015W        W82615  21.306  32.159  13.417
12016W        W82616   5.178  11.582  12.363
12017W        W82617  35.790  34.764   4.519
12018W        W82618  43.768  38.589  12.075
12019W        W82619  37.410   8.592  13.986
12020W        W82620  44.254   0.821   2.425
12021W        W82621  44.738  31.066   4.799
12022W        W82622  36.097  40.319   3.692
12023W        W82623  33.420  16.200   0.268
12024W        W82624  44.312  15.161   1.289
12025W        W82625  14.237  23.265   2.607
12026W        W82626  27.683   9.620  12.334
12027W        W82627  23.508  32.038  10.834
12028W        W82628  34.855  42.960   4.665
12029W        W82629   3.667  11.171  14.477
12030W        W82630  29.535  39.445  14.230
12031W        W82631  44.295  21.500   1.172
12032W        W82632  23.418  33.785   1.911
12033W        W82633  11.857  37.688  10.869
12034W        W82634  37.145  36.287   4.138
12035W        W82635  38.835  12.681   4.401
12036W        W82636   1.361  14.114  11.933
12037W        W82637  29.916  18.964  12.050
12038W        W82638  34.006  26.933  12.317
12039W        W82639  41.991  41.612  10.456
12040W        W82640  27.006   8.993  12.307
12041W        W82641  11.611   3.787  11.999
12042W        W82642  44.548  40.489  14.327
12043W        W82643  12.208  25.187  12.815
12044W        W82644   7.918   0.072   2.243
12045W        W82645   1.981  29.482  12.423
12046W        W82646  21.090  17.583  12.602
12047W        W82647  34.609  12.133   1.887
12048W        W82648  19.054   4.407  13.638
12049W        W82649  14.147  17.609  11.016
12050W        W82650  29.957  23.753  11.998
12051W        W82651   9.388  19.502  13.789
12052W        W82652   1.801  38.300   0.725
12053W        W82653   8.424  42.057   3.259
12054W        W82654  36.481  32.838   3.231
12055W        W82655   7.786  36.045  14.749
12056W        W82656  15.145  36.084   5.007
12057W        W82657  23.568  16.732  10.752
12058W        W82658  10.869  43.732  13.282
12059W        W82659  36.159   8.317   1.188
12060W        W82660   2.325   3.278  12.043
12061W        W82661  13.434  23.387  13.425
12062W        W82662  16.540   8.894  13.825
12063W        W82663  10.824  38.448   3.994
12064W        W82664   6.113   6.926   1.608
12065W        W82665  36.860  19.737   4.703
12066W        W82666   7.320  34.322   0.162
12067W        W82667  30.873  42.297   2.721
12068W        W82668  16.088  24.521   4.586
12069W        W82669  22.876  21.949  13.878
12070W        W82670  31.183  30.117   0.190
12071W        W82671  26.568  39.414   2.465
12072W        W82672  35.731  44.785   3.178
12073W        W82673   3.708  19.666  13.023
12074W        W82674  42.468  23.586  13.884
12075W        W82675  40.591  16.334  11.788
12076W        W82676  24.987  26.115   4.101
12077W        W82677  34.206  35.917   1.691
12078W        W82678  30.875  40.149  14.073
12079W        W82679  38.048  39.249   2.329
12080W        W82680  37.386  22.910   4.691
12081W        W82681  17.741  20.470  13.940
12082W        W82682  35.607  20.225  13.079
12083W        W82683  19.860   1.864  11.911
12084W        W82684  12.522  38.385   2.243
12085W        W82685  27.608   6.138   0.619
12086W        W82686   6.098  33.182  10.205
12087W        W82687  32.908  25.912  10.576
12088W        W82688  24.933  32.558  13.361
12089W        W82689  25.531  40.900  12.473
12090W        W82690  31.834  44.504  13.039
12091W        W82691  10.214   0.565   2.003
12092W        W82692   1.191  22.757   3.741
12093W        W82693   7.606  36.266   4.473
12094W        W82694   5.054  33.409   4.230
12095W        W82695  13.718   6.285   2.328
12096W        W82696  24.263   2.891  13.505
12097W        W82697  11.616  43.080   2.536
12098W        W82698  11.738  21.177  11.068
12099W        W82699   7.366  11.686   0.716
12100W        W82700  16.853  28.077  12.007
12101W        W82701  10.539  32.536  12.050
12102W        W82702  21.034  15.792   2.095
12103W        W82703  32.820  19.777  11.366
12104W        W82704  17.034  26.457  14.634
12105W        W82705   9.030  34.849   1.611
12106W        W82706  16.134  37.225   5.080
12107W        W82707  21.046   6.357   1.682
12108W        W82708  41.700  10.897   4.203
12109W        W82709  39.974  26.463   2.025
12110W        W82710  20.223  31.591   0.839
12111W        W82711  16.108  29.211   3.191
12112W        W82712  13.834   4.583   3.131
12113W        W82713  22.131  17.135   0.597
12114W        W82714   6.372  10.374   9.638
12115W        W82715   4.963  31.339  10.496
12116W        W82716   6.421  19.149   3.725
12117W        W82717   3.161  12.186   0.692
12118W        W82718  43.520  38.411  11.660
12119W        W82719   0.393  19.038  14.775
12120W        W82720  40.817  20.699   3.588
12121W        W82721   1.144  38.648  13.251
12122W        W82722  38.485  12.261   1.011
12123W        W82723  33.653  26.957   0.366
12124W        W82724   9.863  33.091  13.608
12125W        W82725  17.284  34.855  12.454
12126W        W82726   3.376   6.189   3.753
12127W        W82727  41.602   2.168  14.916
12128W        W82728   0.302  26.106   2.887
12129W        W82729  19.759  29.471  10.528
12130W        W82730  43.663  17.541  14.846
12131W        W82731  29.246  12.918  13.003
12132W        W82732  43.587  43.320   0.949
12133W        W82733   6.777  38.789   3.139
12134W        W82734  32.014   2.428  13.535
12135W        W82735   8.658   0.940   4.201
12136W        W82736   1.258   0.783  13.234
12137W        W82737  18.495  18.507  14.972
12138W        W82738  15.702   8.461   0.588
12139W        W82739  33.468  43.464  13.787
12140W        W82740  11.811  43.091   3.915
12141W        W82741  36.099  17.592  11.188
12142W        W82742  36.596  43.200   2.840
12143W        W82743  20.132  42.396  14.391
12144W        W82744  40.877  42.553   3.986
12145W        W82745   0.261  14.115   3.607
12146W        W82746  40.341  42.930  11.004
12147W        W82747  44.692  44.373  10.624
12148W        W82748  44.905  20.163  13.467
12149W        W82749  25.556  35.683  14.102
12150W        W82750   7.758  39.043  10.705
12151W        W82751  31.652  31.338   0.908
12152W        W82752  39.305   2.158  14.786
12153W        W82753  19.565   5.433  11.071
12154W        W82754  40.090  40.078  11.601
12155W        W82755  16.207  41.917  11.107
12156W        W82756  28.484  23.438   3.837
12157W        W82757  22.698  38.974  10.205
12158W        W82758  20.859  42.979   3.693
12159W        W82759  19.557  22.641  14.602
12160W        W82760   8.291   6.211   1.384
12161W        W82761   3.207  12.822   1.415
12162W        W82762  35.048  38.604  14.052
12163W        W82763  10.246   3.857   3.782
12164W        W82764  24.567  12.265   0.985
12165W        W82765  34.814  43.954   0.974
12166W        W82766   9.593  12.479  14.120
12167W        W82767  39.534  44.925   0.477
12168W        W82768   3.471  33.608   2.355
12169W        W82769  43.882  28.002   2.975
12170W        W82770  26.667  24.988  10.383
12171W        W82771  11.873   4.915   2.199
12172W        W82772   1.400  15.276   4.761
12173W        W82773  12.501  33.277   3.160
12174W        W82774  37.935  37.885  12.396
12175W        W82775  31.724   0.432  11.601
12176W        W82776  15.164   7.685   3.322
12177W        W82777  29.854  11.276   0.885
12178W        W82778  44.999  17.777  11.113
12179W        W82779   0.655  35.591  11.091
12180W        W82780  39.808  11.632   1.415
12181W        W82781  10.727   9.624   4.173
12182W        W82782   2.953  38.783   2.115
12183W        W82783   6.639   1.690   3.794
12184W        W82784  33.721   1.762  11.131
12185W        W82785   5.641   5.697  10.891
12186W        W82786  40.642  32.645   2.714
12187W        W82787  11.740   2.687   0.695
12188W        W82788  13.272  42.450  12.600
12189W        W82789  15.063   8.758   3.361
12190W        W82790  20.820  24.246   2.871
12191W        W82791  20.361  11.831  11.121
12192W        W82792  26.822  28.144   0.276
12193W        W82793  34.009  11.985  14.788
12194W        W82794  13.551   6.400  12.121
12195W        W82795   0.346  38.480  11.545
12196W        W82796  17.619  16.286  13.987
12197W        W82797  24.198  39.548  12.109
12198W        W82798  29.421  38.887   3.328
12199W        W82799  38.865  23.733   1.607
12200W        W82800  21.862  37.326  14.542
12201W        W82801  15.905   7.833   2.028
12202W        W82802  18.138  34.611  13.932
12203W        W82803   5.236  18.728  12.896
12204W        W82804   6.741  42.339  13.802
12205W        W82805  10.542  39.812  11.381
12206W        W82806   2.788  31.451   3.701
12207W        W82807   9.312  26.663   3.777
12208W        W82808  28.041  10.670  10.376
12209W        W82809  14.659   1.817  12.416
12210W        W82810  21.664  21.637   0.442
12211W        W82811  33.779  18.049  11.632
12212W        W82812  25.873  18.339  12.045
12213W        W82813  26.926   2.130  10.534
12214W        W82814   1.024  19.153  14.946
12215W        W82815  35.050   1.506   3.200
12216W        W82816  19.635  20.251   0.501
12217W        W82817  38.597   9.853  11.582
12218W        W82818  35.067   2.088   2.353
12219W        W82819  29.882  21.155   3.352
12220W        W82820   9.838  37.508  10.912
12221W        W82821  25.683  22.350  13.530
12222W        W82822  39.732  42.347   4.684
12223W        W82823   2.793  27.693  14.996
12224W        W82824  38.945  25.737   2.853
12225W        W82825   7.760  37.336   1.230
12226W        W82826  15.669  12.368   2.968
12227W        W82827  24.025  43.667  14.371
12228W        W82828   6.895  10.692   2.994
12229W        W82829  25.166  19.224   2.227
12230W        W82830   8.439   3.720  11.383
12231W        W82831  11.620  20.258   0.004
12232W        W82832  27.629  15.587   1.297
12233W        W82833  31.534  22.098   2.214
12234W        W82834  17.140   8.822   2.361
12235W        W82835  11.615  31.960  11.281
12236W        W82836   3.469  17.553   1.222
12237W        W82837  20.103  25.083  10.675
12238W        W82838   4.761  35.087  11.513
12239W        W82839   4.539  11.012   4.030
12240W        W82840  43.244  41.330  13.997
12241W        W82841  14.768   7.801  13.047
12242W        W82842  16.083  28.488   4.560
12243W        W82843  29.255   0.407  14.798
12244W        W82844  23.490  21.067   0.413
12245W        W82845  37.891  17.291   0.844
12246W        W82846  13.867  17.426  13.301
12247W        W82847  44.233   6.337   4.060
12248W        W82848  30.331  21.104  10.099
12249W        W82849   2.699   9.668   2.922
12250W        W82850   1.858  34.654  14.274
12251W        W82851  22.289  18.150   3.343
12252W        W82852   2.617  40.306  12.568
12253W        W82853  41.912  18.432  13.513
12254W        W82854  39.927  24.111   1.091
12255W        W82855  43.898   5.899  10.280
12256W        W82856  11.237   1.439  11.680
12257W        W82857  15.279  30.487   2.087
12258W        W82858   6.955  11.190  11.111
12259W        W82859  42.353   8.462   2.645
12260W        W82860   7.427   4.895   0.743
12261W        W82861  25.803   3.223   0.888
12262W        W82862  22.614  43.813  12.158
12263W        W82863  33.084  14.598  13.834
12264W        W82864  44.934  27.884  11.614
12265W        W82865  35.338   9.389  13.884
12266W        W82866  18.757  24.018  14.410
12267W        W82867  30.858  41.939   0.790
12268W        W82868  15.933  32.926   3.518
12269W        W82869  44.597  44.183   0.817
12270W        W82870  17.153  24.268  10.696
12271W        W82871  28.671  24.325  11.915
12272W        W82872  35.117  40.454   0.057
12273W        W82873  34.851   1.849  12.798
12274W        W82874  15.846  37.048  12.964
12275W        W82875  16.341  13.563  14.545
12276W        W82876  42.633  20.611   0.600
12277W        W82877  26.393  42.861  13.021
12278W        W82878  30.967   6.274   2.211
12279W        W82879  15.581  29.201  10.742
12280W        W82880   6.445  35.908   2.181
12281W        W82881   6.844   6.293  11.670
12282W        W82882  42.042  19.242   0.379
12283W        W82883  17.621  31.532  11.049
12284W        W82884  23.602   0.255  12.300
12285W        W82885  34.041  39.485   4.683
12286W        W82886  37.891  33.102   0.698
12287W        W82887  32.499  22.578  11.609
12288W        W82888  22.199  26.744  12.705
12289W        W82889  24.226  37.514   0.843
12290W        W82890  15.025  22.546  14.300
12291W        W82891  29.450  12.479  11.241
12292W        W82892  18.499  12.606   0.413
12293W        W82893   8.474  38.184  11.679
12294W        W82894  12.637   6.928  13.623
12295W        W82895  30.468  20.709   2.910
12296W        W82896  12.193  33.482   1.322
12297W        W82897  26.000  42.452  14.502
12298W        W82898  24.863  23.829  11.481
12299W        W82899  21.084  42.474   1.442
12300W        W82900   7.600  22.359   4.923
12301W        W82901  43.048  36.346   4.412
12302W        W82902  20.978  21.340   3.547
12303W        W82903  41.314  43.909   1.739
12304W        W82904  17.519   3.154  13.068
12305W        W82905  26.517   5.753   2.751
12306W        W82906  27.412  39.993  13.130
12307W        W82907  13.847  11.208   0.563
12308W        W82908   8.299   3.147   2.753
12309W        W82909  26.182  33.931  13.517
12310W        W82910  17.719  38.881   2.669
12311W        W82911  36.334  20.674   1.155
12312W        W82912  28.450  41.866   2.413
12313W        W82913  35.929  26.089   4.298
12314W        W82914  18.072  22.588   0.790
12315W        W82915  41.358  39.068  11.945
12316W        W82916  32.420  18.155   0.464
12317W        W82917  38.128  14.103   1.148
12318W        W82918   3.753   0.527  14.983
12319W        W82919   7.138  11.412  11.562
12320W        W82920  14.411  35.903  11.045
12321W        W82921  21.300  43.682  12.818
12322W        W82922  14.840  24.019   2.751
12323W        W82923  36.196  30.487   0.284
12324W        W82924   7.341  33.162  12.072
12325W        W82925   3.350  29.252   3.841
12326W        W82926  18.894  12.557   4.254
12327W        W82927  44.970  40.999   0.284
12328W        W82928  17.201   4.372  12.239
12329W        W82929   1.240  25.591   1.970
12330W        W82930  37.416  36.058   2.644
12331W        W82931  42.987  15.053   4.292
12332W        W82932  18.183  38.947   3.231
12333W        W82933   7.260  13.236  12.669
12334W        W82934  27.952  29.824   2.907
12335W        W82935   9.372   7.191  11.252
12336W        W82936  26.403   3.729  13.419
12337W        W82937  37.948  35.309   2.744
12338W        W82938  13.825  21.867  13.384
12339W        W82939  43.789  36.132   2.352
12340W        W82940   2.020  17.284  11.560
12341W        W82941   4.735  32.740   5.556
12342W        W82942  34.946  13.125   2.671
12343W        W82943   1.845  22.303  13.376
12344W        W82944   4.119  21.190   1.306
12345W        W82945  12.882  19.596  10.827
12346W        W82946  35.713  17.162  12.137
12347W        W82947  12.236  40.530  13.960
12348W        W82948  42.841  25.592   4.665
12349W        W82949  13.382  29.804   0.452
12350W        W82950  20.007   3.075   2.292
12351W        W82951  19.917  15.592  14.853
12352W        W82952  10.139   0.647  11.798
12353W        W82953  15.076  27.358   3.088
12354W        W82954  25.129  12.010  12.529
12355W        W82955  33.165  17.988  13.472
12356W        W82956  23.183   0.081  10.261
12357W        W82957  38.829  36.469  14.574
12358W        W82958  26.061  28.060  12.945
12359W        W82959   7.919  30.062   1.252
12360W        W82960  32.431  24.932   4.276
12361W        W82961  28.445  36.363   4.598
12362W        W82962  22.032   3.806   3.325
12363W        W82963  38.413  25.421  11.912
12364W        W82964  21.121  36.945  14.917
12365W        W82965  11.103   3.243  14.913
12366W        W82966  11.575  33.971   2.365
12367W        W82967   5.809   6.123   1.726
12368W        W82968  34.421  35.205   1.824
12369W        W82969  21.778   4.284   1.385
12370W        W82970  15.075  10.525  12.872
12371W        W82971  37.135  31.693   4.174
12372W        W82972  34.512  37.343   3.321
12373W        W82973  42.815  38.425   0.136
12374W        W82974  21.087  28.216   0.183
12375W        W82975  20.154   8.476   2.331
12376W        W82976   1.858  30.629   2.589
12377W        W82977  12.134  34.933  11.971
12378W        W82978  27.395  34.385  12.080
12379W        W82979  17.646  29.509  10.454
12380W        W82980  16.995  17.834   1.935
12381W        W82981  14.247   4.281   3.768
12382W        W82982  41.004   5.428   3.696
12383W        W82983  24.562   4.568   1.907
12384W        W82984  17.161  24.997   4.117
12385W        W82985  33.665  21.134   4.980
12386W        W82986  19.647  18.234  13.303
12387W        W82987  30.554  39.275   3.273
12388W        W82988  25.939  24.727  13.307
12389W        W82989  37.300  15.730  14.456
12390W        W82990   2.762   1.901  13.561
12391W        W82991  41.520  35.955  14.262
12392W        W82992  39.314  26.923  14.435
12393W        W82993  14.546  20.463  12.037
12394W        W82994   2.290   5.193   1.499
12395W        W82995  10.122  44.801  11.860
12396W        W82996  10.163   6.176   3.290
12397W        W82997   1.802   4.662   2.692
12398W        W82998  16.636   3.457  11.168
12399W        W82999   8.368   5.056   0.762
12400W        W83000  36.122  41.328   0.416
12401W        W83001  43.784  39.374   0.248
12402W        W83002  31.701  12.611  13.881
12403W        W83003  23.181  36.349   1.775
12404W        W83004   4.886   8.432   0.433
12405W        W83005  15.041  38.987  14.934
12406W        W83006  16.163  22.015  13.581
12407W        W83007  28.654  19.471   2.764
12408W        W83008  35.255  35.230  13.828
12409W        W83009  24.021  25.370  11.486
12410W        W83010  44.942  24.293  14.287
12411W        W83011   0.463  36.665   2.426
12412W        W83012  41.251  33.524   1.680
12413W        W83013  30.060  41.646  10.326
12414W        W83014  13.454  42.761   2.503
12415W        W83015  17.008  38.540  11.673
12416W        W83016  32.055   4.715  14.641
12417W        W83017  18.212  37.315   0.611
12418W        W83018  30.887  43.516   0.344
12419W        W83019  23.917  23.056  11.883
12420W        W83020  23.221  16.721  14.520
12421W        W83021  24.709  38.511   1.484
12422W        W83022  20.982   0.960   4.106
12423W        W83023  16.130  21.978   2.935
12424W        W83024  43.489  21.977  11.966
12425W        W83025  43.996  17.640   4.561
12426W        W83026   6.703  12.909   0.248
12427W        W83027  30.464  37.783   4.137
12428W        W83028  18.809  41.020   0.928
12429W        W83029  17.757   3.445   3.695
12430W        W83030  23.745  32.289  14.589
12431W        W83031  39.968  40.253   4.495
12432W        W83032   6.348  27.576   4.397
12433W        W83033  41.872  17.905  13.499
12434W        W83034  27.777  20.282  13.510
12435W        W83035   0.366  35.465  14.043
12436W        W83036  34.943  12.616   2.703
12437W        W83037  16.137  17.418   4.153
12438W        W83038  42.660  14.813   0.999
12439W        W83039   8.620  37.926   4.875
12440W        W83040  43.342   8.672   3.074
12441W        W83041  13.840  17.266   3.130
12442W        W83042  24.692  39.301  14.906
12443W        W83043   6.399  29.253  13.000
12444W        W83044  26.191   1.995   4.612
12445W        W83045  11.680  35.332   5.227
12446W        W83046  20.293  21.151  10.523
12447W        W83047  15.123   0.330  10.536
12448W        W83048  24.366  33.628  13.218
12449W        W83049   6.742   6.919  13.818
12450W        W83050  38.341  42.458  14.307
12451W        W83051  29.112   3.014   1.816
12452W        W83052  17.354  29.074   3.829
12453W        W83053  24.505   4.756  10.709
12454W        W83054  10.132  30.634   4.525
12455W        W83055  20.260  33.629  13.041
12456W        W83056   0.014  16.466   0.399
12457W        W83057  28.471  25.515  12.385
12458W        W83058  43.022  38.838   0.568
12459W        W83059  10.420  13.160  14.828
12460W        W83060  27.990   5.435   1.394
12461W        W83061  14.882  24.665   1.381
12462W        W83062   4.774  13.828   4.255
12463W        W83063  36.767  36.860  12.316
12464W        W83064  33.559  42.564   3.845
12465W        W83065   7.824  26.455  14.200
12466W        W83066   4.486  43.773  13.834
12467W        W83067  14.864  44.783  13.872
12468W        W83068  20.207  42.407  10.929
12469W        W83069   1.322   4.852  10.616
12470W        W83070  10.739   1.145   1.271
12471W        W83071  40.548  33.332   0.921
12472W        W83072   8.128  30.685   0.021
12473W        W83073  12.856   5.733   2.701
12474W        W83074  14.220  26.815  11.013
12475W        W83075  36.548   4.198  10.706
12476W        W83076  13.604  23.193   3.823
12477W        W83077  23.965  31.789  10.907
12478W        W83078   1.175   3.530  13.051
12479W        W83079  39.886   5.470   1.792
12480W        W83080   4.840   0.404   0.914
12481W        W83081   5.104  21.142  11.616
12482W        W83082  35.013  37.153  12.085
12483W        W83083  23.349  12.777   0.713
12484W        W83084  43.900   5.411  14.406
12485W        W83085  18.466  26.021  13.568
12486W        W83086   1.037  20.143   0.778
12487W        W83087  21.220   0.365  11.230
12488W        W83088  15.280  25.647   0.347
12489W        W83089   5.646  41.630  10.931
12490W        W83090   6.391  28.567  11.111
12491W        W83091  27.139  34.600   0.911
12492W        W83092  13.868  41.530   0.855
12493W        W83093  24.230   5.399  14.415
12494W        W83094   6.367  19.080   1.380
12495W        W83095   2.304  16.532   2.835
12496W        W83096  24.672  17.316  10.627
12497W        W83097   7.168  14.166   3.892
12498W        W83098  34.894   9.929  14.515
12499W        W83099   2.975  39.022  11.570
12500W        W83100  36.215  34.950   0.653
12501W        W83101  10.642  33.454   4.166
12502W        W83102  30.623  26.861  11.166
12503W        W83103   9.203   7.558  14.699
12504W        W83104  17.380   5.960   4.108
12505W        W83105  15.728  36.624   3.082
12506W        W83106   9.974  15.751   4.107
12507W        W83107  44.307  37.098  12.394
12508W        W83108  39.302  14.336  11.398
12509W        W83109  20.625   8.310   0.932
12510W        W83110   3.461  30.924  13.383
12511W        W83111   4.430   8.241   4.648
12512W        W83112  36.905  28.426   1.266
12513W        W83113  22.973  42.672  10.520
12514W        W83114  15.124  28.739   1.259
12515W        W83115  40.056  25.431   0.365
12516W        W83116  15.623   5.844  11.237
12517W        W83117   8.566   2.783   1.746
12518W        W83118  14.615   3.489  14.926
12519W        W83119  24.969  12.182   3.249
12520W        W83120  14.634   6.243   2.254
12521W        W83121  23.069  27.796   0.785
12522W        W83122  31.654   9.260   0.767
12523W        W83123  34.887  11.323  12.129
12524W        W83124  44.804  20.693  11.578
12525W        W83125  40.196  12.094   0.322
12526W        W83126   5.636  33.827   1.821
12527W        W83127  32.887  31.704  12.381
12528W        W83128  21.023  13.183   1.796
12529W        W83129   9.029  39.502  13.152
12530W        W83130  40.043  25.731  12.441
12531W        W83131  44.246   4.304  13.758
12532W        W83132   8.423  40.772   1.251
12533W        W83133  33.989   4.969   1.852
12534W        W83134   2.530  41.973   2.639
12535W        W83135   9.134   7.853  13.823
12536W        W83136  13.621   5.793  11.578
12537W        W83137  16.892  41.809  11.624
12538W        W83138  37.901  20.474   1.232
12539W        W83139  37.325  36.744  14.914
12540W        W83140   1.129  39.146   0.076
12541W        W83141  10.197  22.984   3.362
12542W        W83142   3.155  13.877   0.485
12543W        W83143  20.515   0.191   4.884
12544W        W83144  20.545   2.436   0.553
12545W        W83145  39.774  34.528   2.926
12546W        W83146  34.275  36.359   0.917
12547W        W83147  35.766  40.130   0.101
12548W        W83148  19.786  37.291  14.244
12549W        W83149  33.189   4.423   4.275
12550W        W83150  38.652   0.886   4.007
12551W        W83151  30.099  19.309   1.352
12552W        W83152  43.386  44.889  12.492
12553W        W83153   8.216  43.499  13.894
12554W        W83154  10.389  35.841   1.248
12555W        W83155  36.927  15.046  10.362
12556W        W83156  16.158   8.856   2.632
12557W        W83157   8.404  43.758  14.334
12558W        W83158  14.308  44.701   5.029
12559W        W83159  22.852   7.320  13.815
12560W        W83160  37.917  22.032   0.486
12561W        W83161  18.735  19.755  10.316
12562W        W83162  16.174  24.055   2.996
12563W        W83163   3.496  20.759   3.353
12564W        W83164  41.684  44.223  14.504
12565W        W83165  20.287  16.486  13.440
12566W        W83166   4.033  18.091  13.348
12567W        W83167   5.041   0.775   2.708
12568W        W83168   1.290  34.364  14.751
12569W        W83169  31.691  25.572  12.945
12570W        W83170   4.175  19.484   4.150
12571W        W83171  38.796   8.674   0.430
12572W        W83172  30.236   8.109   3.179
12573W        W83173  43.960   0.693   4.366
12574W        W83174   1.443  32.917   0.570
12575W        W83175  26.802   3.072   4.575
12576W        W83176  34.650  24.113  12.588
12577W        W83177  36.490  29.378  11.216
12578W        W83178  14.914  26.995  13.328
12579W        W83179  35.961  22.081   0.047
12580W        W83180  43.729  31.913   0.872
12581W        W83181  37.335  34.569   2.404
12582W        W83182   5.330  31.459   2.362
12583W        W83183   5.939  42.861   0.956
12584W        W83184  18.715  23.279   1.091
12585W        W83185  11.139  44.943   1.445
12586W        W83186  43.242  22.655   3.073
12587W        W83187  43.430  20.954  13.868
12588W        W83188  37.606  17.233  10.761
12589W        W83189  32.420  43.231  14.514
12590W        W83190  29.728  28.442   2.513
12591W        W83191  28.391  11.685   2.258
12592W        W83192   0.459  25.125  10.540
12593W        W83193  30.000  26.362  14.874
12594W        W83194  27.938   7.362  14.541
12595W        W83195  33.953  21.975   0.473
12596W        W83196  11.708  15.529   0.504
12597W        W83197  28.036  17.047  14.259
12598W        W83198  35.255  27.650  11.211
12599W        W83199  31.815  33.151  10.736
12600W        W83200  33.452  40.861  11.916
12601W        W83201  23.590   0.742  12.102
12602W        W83202  28.082   6.504  11.946
12603W        W83203   2.395  32.643   4.059
12604W        W83204   5.860  38.053  14.069
12605W        W83205  18.155   5.271   2.391
12606W        W83206  37.820   2.977   0.281
12607W        W83207  21.801  14.368  11.539
12608W        W83208   0.229  30.087  12.367
12609W        W83209   1.193  43.467   1.770
12610W        W83210  24.934   9.237   0.681
12611W        W83211   9.534   6.697  13.589
12612W        W83212   5.477  22.551  12.376
12613W        W83213  16.927  25.942  13.504
12614W        W83214  31.918   3.359   0.222
12615W        W83215   1.233   2.375  12.344
12616W        W83216  27.327  39.866  13.625
12617W        W83217   5.992   6.405   1.330
12618W        W83218  13.594  27.938  12.415
12619W        W83219  32.447  38.291   0.030
12620W        W83220  23.538  15.645  11.446
12621W        W83221  20.889  24.164  13.189
12622W        W83222  32.194  29.431  10.594
12623W        W83223  22.233   5.477  11.091
12624W        W83224   4.253  25.502   4.186
12625W        W83225   0.523  16.854   2.525
12626W        W83226  13.802   9.777   4.124
12627W        W83227   2.349  28.456   2.744
12628W        W83228  21.162  34.986  12.308
12629W        W83229  20.713  41.731   1.399
12630W        W83230  25.215  42.508   2.013
12631W        W83231   5.661  42.850   3.214
12632W        W83232   2.966   1.038   0.378
12633W        W83233  21.182   3.553  13.987
12634W        W83234   3.539  33.141  13.741
12635W        W83235  12.358  29.104   3.695
12636W        W83236  13.969  44.870   3.641
12637W        W83237  18.145  33.913   2.505
12638W        W83238  37.883  36.735   1.654
12639W        W83239  35.927   6.121   4.607
12640W        W83240  10.607  41.831   3.149
12641W        W83241  18.548  43.869  11.118
12642W        W83242   6.795   7.461   1.449
12643W        W83243  39.334  23.574   4.647
12644W        W83244  28.207  12.233  11.482
12645W        W83245  44.494  29.667   0.836
12646W        W83246   5.914  13.354   3.334
12647W        W83247  31.955  43.175  11.505
12648W        W83248  34.427  10.622  11.906
12649W        W83249  36.563  37.290   5.112
12650W        W83250  37.364  44.653  11.616
12651W        W83251   7.599  43.468  12.017
12652W        W83252   2.897  32.902  11.101
12653W        W83253  43.215  34.412   2.812
12654W        W83254  29.143  12.811  11.001
12655W        W83255   9.301   1.214   3.228
12656W        W83256  29.623  25.296   1.280
12657W        W83257  10.864  13.189   4.275
12658W        W83258  11.581  15.555   1.323
12659W        W83259  30.169  42.486   1.808
12660W        W83260  21.977   1.679  13.479
12661W        W83261  16.575  18.722   3.022
12662W        W83262  16.338  38.914   1.283
12663W        W83263  12.022  18.760   4.107
12664W        W83264  11.384   5.463  11.074
12665W        W83265  19.783  37.900   3.163
12666W        W83266  26.016  28.521  13.189
12667W        W83267  26.680   8.795  11.866
12668W        W83268  11.123   2.962  13.825
12669W        W83269  40.418  17.207  11.584
12670W        W83270  28.562   4.884   4.206
12671W        W83271  36.385   0.204   2.836
12672W        W83272  37.539  37.122   1.714
12673W        W83273  42.713  28.441   2.233
12674W        W83274   6.149  12.175  11.920
12675W        W83275  12.587   5.543  13.589
12676W        W83276  19.251   6.928   4.629
12677W        W83277   5.462  15.729  11.654
12678W        W83278  35.584   1.726   3.619
12679W        W83279  31.119  12.679   9.934
12680W        W83280  44.813   8.713   2.138
12681W        W83281  12.856  34.589  11.888
12682W        W83282   4.165  34.364   0.762
12683W        W83283   8.280  33.494  13.878
12684W        W83284   1.263  13.639  11.208
12685W        W83285  27.210  23.588   0.019
12686W        W83286  34.687  21.114   5.101
12687W        W83287  38.102  32.819  12.430
12688W        W83288  13.838  29.221  12.533
12689W        W83289   4.973  35.435  13.962
12690W        W83290  29.500  22.788   5.124
12691W        W83291  30.165  14.821  10.731
12692W        W83292  40.955  29.674  12.976
12693W        W83293  10.150  38.924  12.573
12694W        W83294  33.383   4.894   0.994
12695W        W83295  21.301  38.800   1.251
12696W        W83296  42.832  44.454   2.201
12697W        W83297  32.175   2.501  11.460
12698W        W83298  35.635  24.044  14.915
12699W        W83299   6.835  19.479   3.225
12700W        W83300  15.830  15.861   4.584
12701W        W83301  39.977   4.050  13.546
12702W        W83302  17.085   3.728  12.882
12703W        W83303  28.720   3.502  11.450
12704W        W83304  21.977  14.697   3.257
12705W        W83305  25.086  27.582  12.096
12706W        W83306   0.816   3.022   1.477
12707W        W83307   3.858   2.906   1.194
12708W        W83308  15.829  17.559   1.232
12709W        W83309  24.748  25.449   3.198
12710W        W83310  44.436  24.400   1.044
12711W        W83311  10.417   5.696  14.763
12712W        W83312  21.777  27.967  14.839
12713W        W83313  28.954  21.103  13.024
12714W        W83314  26.093   1.804  14.716
12715W        W83315  14.262  30.836   2.275
12716W        W83316  21.807  32.600   0.962
12717W        W83317  19.134  44.017   1.285
12718W        W83318  24.932  25.030  14.685
12719W        W83319  23.727  29.513  10.938
12720W        W83320   2.785  35.594  11.468
12721W        W83321  20.267  44.465   0.726
12722W        W83322  34.854  17.149   4.565
12723W        W83323  39.996  41.268  13.569
12724W        W83324  37.858  16.287  11.509
12725W        W83325  18.576   7.516   2.301
12726W        W83326  35.420  24.032   0.985
12727W        W83327  16.726   0.853  14.569
12728W        W83328   2.737   9.313   2.559
12729W        W83329   4.211  31.081  14.927
12730W        W83330  33.808  27.030  11.009
12731W        W83331  19.261  10.947   0.929
12732W        W83332   7.648  21.631   3.282
12733W        W83333  25.112  20.568   0.215
12734W        W83334  39.571  19.142  12.425
12735W        W83335  19.557  29.607   2.032
12736W        W83336  33.083  28.930   1.252
12737W        W83337  44.921  31.413   2.728
12738W        W83338   1.175  19.222   1.803
12739W        W83339  11.704  43.246   1.534
12740W        W83340  26.068  31.690  11.079
12741W        W83341   9.375  17.816  14.721
12742W        W83342  17.206   0.944  14.342
12743W        W83343   4.972  37.985  12.066
12744W        W83344  16.823  29.036  11.557
12745W        W83345   9.805  33.659  12.033
12746W        W83346   8.195   0.965  14.321
12747W        W83347  15.776  24.958   3.176
12748W        W83348  44.312  42.699   2.858
12749W        W83349  17.249  14.509   3.550
12750W        W83350  14.794  39.988   1.426
12751W        W83351   1.587  44.868  12.857
12752W        W83352  18.620  20.021  13.072
12753W        W83353   0.198  39.952   0.308
12754W        W83354  22.500  44.836  14.253
12755W        W83355  11.582   3.162  13.469
12756W        W83356   3.711  11.872  14.768
12757W        W83357  18.766  38.039   3.285
12758W        W83358  28.226   9.850  13.155
12759W        W83359  25.008   2.308  12.156
12760W        W83360  31.915  19.064   0.428
12761W        W83361  36.461  10.192  14.003
12762W        W83362  23.495   1.096  13.817
12763W        W83363   2.327  24.119   0.502
12764W        W83364   9.836  15.311   0.410
12765W        W83365  35.924  39.893  13.439
12766W        W83366  41.919   9.572  12.863
12767W        W83367  28.302  25.868   4.312
12768W        W83368  43.715   1.230   4.125
12769W        W83369  22.990   6.881  12.008
12770W        W83370  19.581   4.500   0.934
12771W        W83371  43.376   8.801   1.602
12772W        W83372  18.306  28.072  11.925
12773W        W83373   1.475  25.871  10.700
12774W        W83374   9.921  35.496  13.918
12775W        W83375  38.561   2.459   2.920
12776W        W83376  15.379  20.718  13.514
12777W        W83377   8.792  28.343   3.207
12778W        W83378  12.278  11.760   3.857
12779W        W83379   8.934  27.498   2.112
12780W        W83380  24.049  43.706  11.473
12781W        W83381   0.264  14.945  12.043
12782W        W83382  26.921  33.353   0.384
12783W        W83383   3.900   9.210   2.393
12784W        W83384  18.733  24.443   4.921
12785W        W83385  16.047  22.716   4.189
12786W        W83386  33.008  43.068  13.879
12787W        W83387  28.034  14.848   1.392
12788W        W83388   3.688   9.138  12.457
12789W        W83389  25.693   7.131   2.318
12790W        W83390  41.898  21.276  13.552
12791W        W83391   9.789  34.564   2.887
12792W        W83392  41.977  11.202   2.652
12793W        W83393  23.702  15.620   4.297
12794W        W83394  33.194  39.955  13.943
12795W        W83395   4.974   5.247  11.219
12796W        W83396  31.725  29.906  11.140
12797W        W83397  37.724  14.714  13.972
12798W        W83398  19.180  34.221   5.095
12799W        W83399  15.466  42.450   3.256
12800W        W83400   9.300  18.646  10.579
12801W        W83401  41.818  23.983   3.633
12802W        W83402  17.848   4.855   0.851
12803W        W83403  36.217  28.202  11.323
12804W        W83404  38.271   0.238   1.927
12805W        W83405  19.407  15.981   0.963
12806W        W83406  14.521  11.118   0.498
12807W        W83407  29.789  22.547   0.292
12808W        W83408  29.884  18.099   2.694
12809W        W83409  22.560  29.046  11.644
12810W        W83410  18.165  25.531   3.200
12811W        W83411  12.045   0.965   4.181
12812W        W83412  40.292  18.302  12.980
12813W        W83413   0.892  15.408  13.500
12814W        W83414  40.247  39.418  10.546
12815W        W83415   7.500   1.325  10.689
12816W        W83416  14.369   9.818  13.450
12817W        W83417  37.364  42.307   1.801
12818W        W83418  41.506  20.799  14.050
12819W        W83419  20.156  25.777  13.489
12820W        W83420  17.679  18.104   2.719
12821W        W83421   5.004  37.122  14.571
12822W        W83422   3.119  25.667   0.175
12823W        W83423  33.505   5.840   3.984
12824W        W83424  13.863  25.316   2.273
12825W        W83425   9.103  18.868  14.397
12826W        W83426   2.219  40.726   1.336
12827W        W83427  28.570  33.989  10.910
12828W        W83428  26.489   2.384   3.610
12829W        W83429  43.809  23.965  14.979
12830W        W83430  27.729   7.953   2.764
12831W        W83431   6.113  37.019   2.132
12832W        W83432   8.042  41.998  10.717
12833W        W83433  24.924  14.790   1.295
12834W        W83434  39.982  31.047   3.319
12835W        W83435  19.734  16.030  14.601
12836W        W83436  17.858  13.037   2.110
12837W        W83437  14.618  35.068  13.904
12838W        W83438  34.330  14.544   0.867
12839W        W83439  23.233  25.266   1.382
12840W        W83440  33.907  27.082   1.852
12841W        W83441  10.868  21.983   2.414
12842W        W83442  21.081  10.947  13.535
12843W        W83443  34.996  40.442  12.423
12844W        W83444  28.670  30.066   1.392
12845W        W83445  10.033  27.896   0.497
12846W        W83446  28.949   8.858  13.340
12847W        W83447  40.058  23.819  13.879
12848W        W83448  28.863  11.622  14.426
12849W        W83449  15.348  11.766   1.661
12850W        W83450  18.280  30.888  14.580
12851W        W83451  34.031  14.040  10.654
12852W        W83452  11.456  12.983   2.799
12853W        W83453  35.036   1.280   4.127
12854W        W83454  32.066  37.868  10.649
12855W        W83455  24.894  14.232   4.660
12856W        W83456  27.783   9.804   2.695
12857W        W83457   9.233   6.915   2.765
12858W        W83458   1.804   4.900   4.514
12859W        W83459  20.982  44.954  14.474
12860W        W83460  11.865  23.714  12.100
12861W        W83461  13.009   9.889  11.930
12862W        W83462  29.596  10.715   2.315
12863W        W83463  16.839  19.095   3.241
12864W        W83464   0.402  22.934  14.496
12865W        W83465  41.060   1.713   4.604
12866W        W83466  35.431  41.273  13.421
12867W        W83467   8.251  24.306   1.670
12868W        W83468   7.668  30.674   4.769
12869W        W83469  20.575  16.847  12.918
12870W        W83470  19.909   6.717  11.146
12871W        W83471   9.285  44.873   0.246
12872W        W83472  14.015  14.391   1.088
12873W        W83473  38.904  30.041   1.983
12874W        W83474  18.520  41.274   2.330
12875W        W83475  39.999  42.865  13.425
12876W        W83476   6.248  10.224   4.502
12877W        W83477   0.323  13.098   4.086
12878W        W83478  29.181  36.151  12.811
12879W        W83479  37.611  32.431  13.887
12880W        W83480   3.495  16.420   3.072
12881W        W83481   3.752  30.916  13.963
12882W        W83482  28.385   9.699  11.976
12883W        W83483  31.373  23.421  14.761
12884W        W83484   7.155   1.522  12.459
12885W        W83485  33.857  42.318   2.702
12886W        W83486   3.174  40.882  11.247
12887W        W83487  14.027  40.858   9.823
12888W        W83488   9.844  19.260   4.725
12889W        W83489  20.727   7.729  11.548
12890W        W83490  35.936  20.201  13.509
12891W        W83491   3.196  34.511   2.265
12892W        W83492  24.361  30.587   4.605
12893W        W83493  10.265  12.102   3.153
12894W        W83494  36.661   2.784   2.836
12895W        W83495  21.645  20.217  10.709
12896W        W83496  41.295  33.422  14.717
12897W        W83497  22.359  43.503  13.744
12898W        W83498   6.277  37.805  11.541
12899W        W83499  39.674   6.165  13.454
12900W        W83500  18.220  41.147   3.172
12901W        W83501   2.687  32.995  14.884
12902W        W83502   8.238  23.975   0.384
12903W        W83503   5.802  14.363   4.528
12904W        W83504  40.532  12.816  11.614
12905W        W83505   0.437  25.656  11.463
12906W        W83506  14.590   3.408   0.957
12907W        W83507  42.815  27.944  10.638
12908W        W83508  25.280   0.807  13.475
12909W        W83509  11.331  37.566   2.680
12910W        W83510   0.701  31.160   2.314
12911W        W83511  37.498  43.323   4.970
12912W        W83512  37.912  16.886   1.691
12913W        W83513  10.303  44.784  10.732
12914W        W83514  42.329  17.850   0.648
12915W        W83515  15.572  30.097  10.415
12916W        W83516  31.798  15.850  14.165
12917W        W83517   6.658  16.700  12.076
12918W        W83518   9.078  17.171  12.442
12919W        W83519   5.878   1.675   3.255
12920W        W83520  13.154  33.429  12.959
12921W        W83521  11.178  31.625  12.275
12922W        W83522  41.388  39.215  10.895
12923W        W83523   7.973  44.349   1.870
12924W        W83524  20.094   5.643  14.002
12925W        W83525   8.236  34.035  13.448
12926W        W83526  23.041  35.450   0.856
12927W        W83527  32.023  16.282  13.926
12928W        W83528   2.653   3.177  14.691
12929W        W83529  42.219  25.965   0.669
12930W        W83530  36.901  11.597  11.827
12931W        W83531   5.187  34.973   3.189
12932W        W83532  20.352   7.194   4.700
12933W        W83533  37.959   2.463   0.250
12934W        W83534  19.573  10.189  13.495
12935W        W83535  30.878   2.043   0.782
12936W        W83536  28.235   7.755  14.233
12937W        W83537   6.353   2.665   3.842
12938W        W83538  30.991  33.576   0.835
12939W        W83539  34.482  33.790  14.427
12940W        W83540  42.851  35.675  14.034
12941W        W83541  28.940   8.925  13.947
12942W        W83542  30.164  41.002   3.516
12943W        W83543   7.830  44.683   4.582
12944W        W83544  25.572  13.111   3.713
12945W        W83545   9.771   8.867  14.604
12946W        W83546  20.173  20.557  13.824
12947W        W83547  37.041  43.777  10.614
12948W        W83548  25.101  30.061  11.882
12949W        W83549  11.917  44.884   3.266
12950W        W83550  41.536   3.313  10.686
12951W        W83551   8.669  35.110  10.887
12952W        W83552  29.725  28.953   2.238
12953W        W83553  13.299  38.524   2.724
12954W        W83554  34.061  28.466  12.033
12955W        W83555  36.586  39.949   2.130
12956W        W83556   0.617  15.319  12.020
12957W        W83557  29.674  15.059  11.489
12958W        W83558  22.523  18.280   3.801
12959W        W83559  15.689  26.679   4.640
12960W        W83560  38.628  16.816  12.010
12961W        W83561  19.569  32.936  13.416
12962W        W83562  20.980  30.624  14.920
12963W        W83563  31.477  37.328   3.449
12964W        W83564  28.975  22.046  11.180
12965W        W83565  33.887  25.481   1.384
12966W        W83566  41.915  26.684   2.218
12967W        W83567  38.568   7.800   0.510
12968W        W83568  19.243  39.240  14.336
12969W        W83569  40.009  26.972   1.823
12970W        W83570  38.946  18.137  14.388
12971W        W83571   3.464  44.967   0.573
12972W        W83572   8.611  18.648   0.444
12973W        W83573  16.290  15.330   1.625
12974W        W83574  25.589  27.862  10.996
12975W        W83575  14.440  26.450   2.746
12976W        W83576  29.220  29.085   3.107
12977W        W83577  22.543  33.669  10.548
12978W        W83578   2.369  36.020  12.492
12979W        W83579  42.036   8.233   2.186
12980W        W83580  16.851  41.218   1.242
12981W        W83581   7.195  22.761  12.558
12982W        W83582  25.733  11.152  11.467
12983W        W83583  37.432  17.024   3.198
12984W        W83584  32.476  18.378   2.846
12985W        W83585   1.153  30.687   0.758
12986W        W83586  15.751  16.345   1.935
12987W        W83587  30.730  17.833   4.079
12988W        W83588  21.338  10.170  10.847
12989W        W83589   7.862   7.612   0.244
12990W        W83590  44.677  30.769   3.596
12991W        W83591   0.468  17.517   1.658
12992W        W83592  37.206   6.307   5.055
12993W        W83593  44.826  18.375  14.308
12994W        W83594  20.239  11.809  10.285
12995W        W83595   1.390  17.775   2.635
12996W        W83596  43.759  10.306   4.816
12997W        W83597  39.860  31.155  11.448
12998W        W83598   1.003  16.853   2.715
12999W        W83599  14.355  25.701  14.133
13000W        W83600  40.404  12.935  10.229
13001W        W83601  17.297  41.215   0.422
13002W        W83602  28.065  41.843   2.787
13003W        W83603   0.278  26.698   3.664
13004W        W83604  37.343  44.151  10.347
13005W        W83605  24.004  38.830   4.524
13006W        W83606  11.693  14.623  14.240
13007W        W83607  14.882  29.667  11.798
13008W        W83608   6.499   4.684   2.315
13009W        W83609  26.527  22.775   1.407
13010W        W83610   7.376  16.942  14.362
13011W        W83611  29.212  15.678  14.517
13012W        W83612  10.243  24.160   0.361
13013W        W83613  22.681  18.361   4.725
13014W        W83614   0.350   9.736  11.652
13015W        W83615  28.446  39.575   5.048
13016W        W83616  11.651  38.802  12.602
13017W        W83617  13.793  33.592  13.850
13018W        W83618  34.685  44.116  11.047
13019W        W83619  31.140   5.721  13.560
13020W        W83620  28.372   2.509   3.138
13021W        W83621  26.176  12.659  13.750
13022W        W83622  41.804  41.877   0.839
13023W        W83623  23.669   1.255   4.506
13024W        W83624  42.237   0.818  12.821
13025W        W83625  31.845  44.683   3.179
13026W        W83626  24.966  42.774  12.937
13027W        W83627  40.959  43.941  11.881
13028W        W83628  11.853  33.907   1.427
13029W        W83629  43.715  18.328   2.375
13030W        W83630  20.154  40.279  14.537
13031W        W83631   1.920   8.871   4.678
13032W        W83632  12.979   2.490  12.598
13033W        W83633  22.278  12.177   4.148
13034W        W83634   4.255  34.363  10.032
13035W        W83635   3.404  28.298   3.689
13036W        W83636  37.978  38.538  10.683
13037W        W83637  16.256  31.014   0.260
13038W        W83638  15.767   1.619   4.867
13039W        W83639   1.895  14.603  14.842
13040W        W83640  24.515  41.293   2.674
13041W        W83641  35.116   7.400  10.725
13042W        W83642  30.148  26.929  12.021
13043W        W83643  12.694  31.059  11.839
13044W        W83644  14.944   8.737  10.758
13045W        W83645  42.404  22.895   3.027
13046W        W83646  40.750   7.265   3.694
13047W        W83647  16.781   9.862   3.661
13048W        W83648  19.264  22.043   3.872
13049W        W83649   2.418  24.349   0.989
13050W        W83650  43.790  27.783   4.970
13051W        W83651   4.992  40.990  11.007
13052W        W83652  17.062  32.959   0.803
13053W        W83653  10.697   9.384  10.705
13054W        W83654   8.297  19.304  14.660
13055W        W83655  13.746   9.190   3.820
13056W        W83656  35.953   1.648   1.936
13057W        W83657  33.067  39.056  10.765
13058W        W83658  39.060  21.120   0.851
13059W        W83659  11.719  44.579   0.306
13060W        W83660  15.994   6.781   3.792
13061W        W83661  44.827  26.998  10.689
13062W        W83662  10.801  31.035  14.813
13063W        W83663  33.250  36.422  14.834
13064W        W83664  13.217  20.432  12.006
13065W        W83665  25.774  42.414  13.506
13066W        W83666   5.830  15.334  14.278
13067W        W83667  23.072  35.106  10.584
13068W        W83668  34.618  34.548  12.441
13069W        W83669  33.890   9.184  11.603
13070W        W83670  34.915  31.707  14.219
13071W        W83671   4.593   5.967   4.508
13072W        W83672  14.232  16.839   0.019
13073W        W83673  18.038   6.932  14.502
13074W        W83674  37.109  24.495  12.103
13075W        W83675  18.156   8.428   1.341
13076W        W83676  36.536   3.982   3.110
13077W        W83677  21.751  36.422  12.639
13078W        W83678  36.144   6.250  14.458
13079W        W83679  12.085   5.452  11.940
13080W        W83680  11.896   5.327   3.717
13081W        W83681  40.778  27.591   4.052
13082W        W83682  38.822  24.108   3.677
13083W        W83683   9.384  30.688  14.544
13084W        W83684  44.560   8.156   1.283
13085W        W83685  32.808  31.027   4.247
13086W        W83686  38.335  36.054   4.726
13087W        W83687  43.802  25.643  14.911
13088W        W83688  38.795  33.144   3.776
13089W        W83689  19.631  39.551  14.527
13090W        W83690   2.415  13.051  11.363
13091W        W83691  20.751  12.760  14.056
13092W        W83692  27.604  44.167   5.110
13093W        W83693   2.833  44.979   4.686
13094W        W83694  30.778  12.109  12.478
13095W        W83695  35.796  42.108  11.497
13096W        W83696   3.862  28.426   2.677
13097W        W83697  35.874  38.435   4.801
13098W        W83698  20.839  24.658  12.042
13099W        W83699  23.615  27.416  13.095
13100W        W83700  13.116  26.651   1.424
13101W        W83701  16.796   6.440  13.883
13102W        W83702  20.668  36.328  11.662
13103W        W83703  13.287  25.530   0.499
13104W        W83704  40.852  30.777  13.054
13105W        W83705  29.983  31.573  12.548
13106W        W83706  26.172  20.157  13.468
13107W        W83707   2.003   2.309   3.767
13108W        W83708  31.203   5.777   1.063
13109W        W83709  14.170   6.087  14.927
13110W        W83710   3.477   3.197  13.898
13111W        W83711  34.143  11.357   2.305
13112W        W83712  35.118   2.435   3.257
13113W        W83713  40.492  13.833   1.264
13114W        W83714  18.309  30.461   0.804
13115W        W83715  40.069  40.048  14.866
13116W        W83716  27.911  32.742   4.106
13117W        W83717  37.769  42.018   3.657
13118W        W83718  30.001   3.246   2.986
13119W        W83719  32.192   7.626   1.946
13120W        W83720   6.362  36.846   3.272
13121W        W83721  22.876  40.881   4.636
13122W        W83722  34.392  34.574   4.887
13123W        W83723  22.958  15.352  14.690
13124W        W83724  22.555  38.644  14.390
13125W        W83725  16.604  27.576   3.711
13126W        W83726   1.895   1.546   2.750
13127W        W83727   6.705  43.839  14.556
13128W        W83728  22.497  22.736   2.877
13129W        W83729   3.616  23.690   1.748
13130W        W83730  30.168  13.054   3.705
13131W        W83731  14.427   0.933   2.660
13132W        W83732  12.107  30.155   2.765
13133W        W83733  27.684  20.153  11.178
13134W        W83734  33.538  10.140  11.137
13135W        W83735  22.014  34.904   0.394
13136W        W83736  35.559  19.933  14.407
13137W        W83737  31.523  42.823  14.333
13138W        W83738  36.093  36.347  13.332
13139W        W83739  29.091  13.653   3.139
13140W        W83740  31.331  44.532   3.949
13141W        W83741  40.628   2.503  13.864
13142W        W83742  35.106  21.605   4.093
13143W        W83743  33.652  28.978   0.326
13144W        W83744  34.369  10.273  11.525
13145W        W83745  42.391  42.273   0.899
13146W        W83746  32.424   4.402  13.396
13147W        W83747  12.654  13.907   3.075
13148W        W83748  14.627  44.544   5.521
13149W        W83749  13.845  32.143  10.592
13150W        W83750  15.157   9.643  12.674
13151W        W83751   9.208  20.456   0.537
13152W        W83752  16.450  20.800   1.355
13153W        W83753   3.495  35.818   1.011
13154W        W83754  30.396  20.297   1.843
13155W        W83755  28.867   7.468   4.606
13156W        W83756   5.596   3.379  12.015
13157W        W83757   0.421  10.727  14.865
13158W        W83758  24.142  31.264   4.542
13159W        W83759   1.986   4.479   3.166
13160W        W83760  22.486  21.271   3.680
13161W        W83761  14.254  34.268   4.193
13162W        W83762  12.759  23.889  11.648
13163W        W83763  43.146  28.199  12.673
13164W        W83764   4.886   2.832   1.931
13165W        W83765  44.521  40.574  11.749
13166W        W83766  41.004  39.780   1.646
13167W        W83767  21.380   5.586   1.325
13168W        W83768  13.504  44.184   1.951
13169W        W83769  38.806   1.334   4.195
13170W        W83770  44.202  18.126   2.281
13171W        W83771   3.356  12.785  12.508
13172W        W83772  39.813  38.076   2.703
13173W        W83773   7.229  29.251  13.514
13174W        W83774  32.283  16.329   2.979
13175W        W83775  18.452  40.293   0.728
13176W        W83776  23.885   5.203   0.442
13177W        W83777  11.564  14.903  10.690
13178W        W83778  33.196  26.737  14.117
13179W        W83779  14.373  22.286   2.879
13180W        W83780  44.872  31.854   1.494
13181W        W83781  19.511   0.205   3.099
13182W        W83782  34.893   3.507  14.965
13183W        W83783   8.092  38.483   2.941
13184W        W83784   8.605  12.833  11.354
13185W        W83785  44.452   4.920  12.426
13186W        W83786   1.316   0.928  14.364
13187W        W83787   4.345  42.010   2.389
13188W        W83788   8.398  36.881  11.564
13189W        W83789  19.212  22.205   1.362
13190W        W83790  30.259   5.805   1.292
13191W        W83791   0.867   7.278   4.401
13192W        W83792   5.905  43.686  10.949
13193W        W83793   1.895  21.011  10.097
13194W        W83794  18.197  44.536   3.099
13195W        W83795  22.136  33.161   1.022
13196W        W83796  27.245  25.679  13.125
13197W        W83797  29.563  38.093   4.432
13198W        W83798  33.836  37.089   2.231
13199W        W83799   1.245  30.974   2.688
13200W        W83800   0.674  20.560  14.055
13201W        W83801  31.231   6.253   4.193
13202W        W83802   6.188  24.812  12.564
13203W        W83803  29.659  34.565  11.540
13204W        W83804  28.893  27.540   1.293
13205W        W83805  35.644  23.519   0.773
13206W        W83806  26.135  20.207   0.082
13207W        W83807  21.739  40.011  11.603
13208W        W83808  14.491  24.360  12.646
13209W        W83809  24.074  27.427  12.134
13210W        W83810   9.691   7.294   4.705
13211W        W83811  35.132  31.085   2.747
13212W        W83812  25.682  22.645   0.816
13213W        W83813  26.140  24.472   2.788
13214W        W83814  14.122   8.980  12.261
13215W        W83815  29.960  31.387   0.883
13216W        W83816  10.553  12.947   3.167
13217W        W83817  42.093  27.620  12.934
13218W        W83818  38.577   0.370   2.369
13219W        W83819  28.960  38.301   4.039
13220W        W83820  21.248  35.771   1.240
13221W        W83821  42.595  20.959   0.100
13222W        W83822   1.779  15.316   1.739
13223W        W83823  38.313  43.064   0.996
13224W        W83824  26.176   2.845  11.522
13225W        W83825  42.744  35.560   2.869
13226W        W83826  15.351   2.968  13.932
13227W        W83827   2.691  11.623   4.843
13228W        W83828  35.990  33.913   0.281
13229W        W83829   1.227  26.777  13.822
13230W        W83830  39.064  34.033   3.441
13231W        W83831  38.055  39.892  11.833
13232W        W83832  35.646  25.166  14.507
13233W        W83833  11.394  29.725  14.487
13234W        W83834  29.976   3.400   0.142
13235W        W83835   0.147  36.961  13.088
13236W        W83836  14.756  38.983   1.285
13237W        W83837  15.812  11.592   0.824
13238W        W83838  13.130  17.556  12.485
13239W        W83839  31.152  15.865   2.507
13240W        W83840  42.817  23.203   2.434
13241W        W83841  36.422  44.515  14.176
13242W        W83842   6.961  44.452   1.447
13243W        W83843  10.551  28.361  10.659
13244W        W83844  32.499  44.308  12.463
13245W        W83845  12.717  36.076   3.681
13246W        W83846  31.086  14.613   1.351
13247W        W83847  13.611   9.354  13.861
13248W        W83848   5.358  38.624   2.680
13249W        W83849  32.971   5.656  13.408
13250W        W83850   7.811  15.570  14.987
13251W        W83851  37.699   7.150  14.885
13252W        W83852  39.629   6.781   2.868
13253W        W83853  29.676  43.010  13.365
13254W        W83854   6.709  33.124  13.463
13255W        W83855  15.327  26.196  12.599
13256W        W83856  29.054   9.394  12.658
13257W        W83857  10.421   0.455  13.822
13258W        W83858  38.538  40.980  12.318
13259W        W83859  16.631   9.102  11.653
13260W        W83860  31.166  27.453  13.833
13261W        W83861  20.770  12.937  12.870
13262W        W83862  27.216   1.699  12.308
13263W        W83863  28.354   2.486  11.217
13264W        W83864  33.864   4.276   2.643
13265W        W83865  36.016  27.312  14.080
13266W        W83866  25.004  43.207  11.104
13267W        W83867  26.184  33.058  12.579
13268W        W83868  31.609  23.202  11.211
13269W        W83869   7.578  43.282   2.306
13270W        W83870  27.141  28.236   0.766
13271W        W83871  44.755   5.696  14.040
13272W        W83872  16.289  17.087   4.533
13273W        W83873  39.373  25.917   3.088
13274W        W83874  32.405   8.972  10.868
13275W        W83875  10.132   4.976   0.679
13276W        W83876  20.817  43.936   0.434
13277W        W83877  20.707  21.220  10.814
13278W        W83878  21.969  16.060  12.020
13279W        W83879  43.040  14.348   1.814
13280W        W83880  20.853  14.641  14.468
13281W        W83881  36.454   3.313   0.407
13282W        W83882  28.936   3.333   2.200
13283W        W83883   4.736  10.997   0.498
13284W        W83884  34.777  26.179   3.630
13285W        W83885   5.142   4.789  11.015
13286W        W83886  38.868  14.311  10.619
13287W        W83887  42.755  21.079   3.551
13288W        W83888  21.605  23.281   1.803
13289W        W83889  32.802  23.666  13.004
13290W        W83890  33.505  16.692   4.223
13291W        W83891  17.981  20.015   4.978
13292W        W83892   2.670  12.435  11.536
13293W        W83893  17.359  44.953   1.285
13294W        W83894  13.283  43.982  12.363
13295W        W83895  17.107  16.136  13.912
13296W        W83896  24.426   9.337  10.254
13297W        W83897   9.156   9.283  13.555
13298W        W83898  17.722  39.919   3.710
13299W        W83899   5.375   1.505   1.876
13300W        W83900  32.788  22.389   2.808
13301W        W83901  14.116  20.844  13.818
13302W        W83902  30.223  34.730  10.992
13303W        W83903   0.210   4.760  11.940
13304W        W83904  22.518  43.187   4.604
13305W        W83905  38.972  21.905   1.130
13306W        W83906   4.002  38.977  12.957
13307W        W83907  39.610  30.408  11.425
13308W        W83908  18.710   0.530   4.052
13309W        W83909   2.507   6.729  14.560
13310W        W83910  25.991  17.783   0.974
13311W        W83911   2.251  12.234  13.884
13312W        W83912  17.266  13.579   3.436
13313W        W83913  24.874  40.981   0.387
13314W        W83914   7.956   7.580  14.308
13315W        W83915  20.999  26.614   1.237
13316W        W83916   1.761  29.145  12.074
13317W        W83917  32.010  36.007  10.991
13318W        W83918   0.001  23.125   1.360
13319W        W83919   9.666  43.135  11.512
13320W        W83920  41.942  40.090  14.061
13321W        W83921  10.824  40.078   2.854
13322W        W83922  16.735  30.490   0.463
13323W        W83923  29.374   8.870  12.008
13324W        W83924  32.902  16.719   2.658
13325W        W83925  20.425  19.715  11.264
13326W        W83926   0.002  36.783  10.701
13327W        W83927  37.014  37.013  11.241
13328W        W83928   0.353  15.626  12.446
13329W        W83929  14.924  12.707  10.812
13330W        W83930   9.775  40.602  13.935
13331W        W83931  42.742  33.380  12.178
13332W        W83932  13.666  16.425   0.328
13333W        W83933  34.650   9.339  11.935
13334W        W83934  33.016  21.030   4.708
13335W        W83935  28.796  16.204   4.653
13336W        W83936  19.647  18.628   2.291
13337W        W83937   9.919  30.974  13.997
13338W        W83938  20.307  27.073  11.624
13339W        W83939  29.873  42.048  14.745
13340W        W83940  16.787  29.900   2.280
13341W        W83941  24.442  34.021   0.832
13342W        W83942  14.759  42.833  13.544
13343W        W83943  16.844  25.560   1.228
13344W        W83944  29.927  22.620  13.596
13345W        W83945  39.619  12.794  13.382
13346W        W83946  24.519  11.923   4.855
13347W        W83947  13.377  24.573  11.138
13348W        W83948  27.071  22.033   4.188
13349W        W83949   8.430   7.130   2.329
13350W        W83950  32.465  29.868  10.656
13351W        W83951  41.436  36.008   0.683
13352W        W83952  28.933  38.011  10.603
13353W        W83953  29.558   3.322  11.636
13354W        W83954  19.157  11.829   3.655
13355W        W83955   3.925  28.761  12.927
13356W        W83956  26.201  18.651  10.525
13357W        W83957  40.001  23.179   1.197
13358W        W83958  36.917   1.378  13.377
13359W        W83959   1.367  35.514  10.761
13360W        W83960  23.591   5.440  12.908
13361W        W83961   5.240  31.474   4.592
13362W        W83962  36.202  31.958   3.531
13363W        W83963  18.567  18.344  14.232
13364W        W83964  11.356  37.172   3.519
13365W        W83965  26.704   3.796  11.964
13366W        W83966  35.758   5.203  11.168
13367W        W83967  23.700  15.402   1.800
13368W        W83968  30.317  10.140  14.448
13369W        W83969  26.987  18.094  10.732
13370W        W83970  42.049  32.885   4.688
13371W        W83971  24.033  26.469  13.864
13372W        W83972  33.897   9.643   1.396
13373W        W83973  28.776  20.239   4.757
13374W        W83974   9.696  22.077   0.650
13375W        W83975  25.934  30.442   3.292
13376W        W83976   5.726   4.293   2.092
13377W        W83977   8.428  28.018   2.587
13378W        W83978  43.942   1.747  11.822
13379W        W83979  30.532  23.102   3.380
13380W        W83980  36.808  20.997  14.927
13381W        W83981  39.731  35.898   3.675
13382W        W83982   9.742  28.225   2.355
13383W        W83983  13.190  31.621  11.834
13384W        W83984   1.998  18.256  12.676
13385W        W83985  10.541  40.283   2.454
13386W        W83986  19.548  16.029   1.459
13387W        W83987   6.424  40.525  10.979
13388W        W83988  13.179  17.133   2.381
13389W        W83989  41.992  35.209  12.957
13390W        W83990   2.859  20.754   0.784
13391W        W83991   6.339   6.738   0.438
13392W        W83992  22.963  37.407   4.740
13393W        W83993  13.217  16.316  11.935
13394W        W83994  23.237  21.641  11.718
13395W        W83995  39.395  14.785  14.359
13396W        W83996  21.176  29.397  12.913
13397W        W83997  32.449  15.678   4.035
13398W        W83998  28.392  31.970   5.020
13399W        W83999  42.985  12.353  12.841
13400W        W84000  17.360  39.071   4.157
13401W        W84001  36.375  17.700  10.772
13402W        W84002  13.684  13.089   4.448
13403W        W84003   9.247  39.423  10.359
13404W        W84004  41.562  21.820  13.862
13405W        W84005   4.764  10.529   3.144
13406W        W84006  40.123  12.753  13.424
13407W        W84007  26.906  16.764   1.954
13408W        W84008  34.712   6.553  14.500
13409W        W84009  34.429   2.316  14.484
13410W        W84010  17.663  13.365   1.708
13411W        W84011  34.475  34.896   0.331
13412W        W84012  20.594   3.482   1.157
13413W        W84013  12.079  15.796  11.227
13414W        W84014   2.521  15.866   4.077
13415W        W84015  32.182  37.941  14.709
13416W        W84016  10.647  16.265   3.614
13417W        W84017  43.742  44.758  13.484
13418W        W84018  37.778  23.677  11.970
13419W        W84019   1.925   0.433  10.245
13420W        W84020  25.153   3.751  12.922
13421W        W84021   7.785  19.648   3.314
13422W        W84022  38.793  34.959   1.809
13423W        W84023  23.732   9.687  13.940
13424W        W84024  32.521  41.324  11.566
13425W        W84025  35.853  28.405  11.673
13426W        W84026  37.010  19.748   1.690
13427W        W84027   6.535  38.104   0.800
13428W        W84028  39.549  21.118  10.923
13429W        W84029  10.075  13.755   2.784
13430W        W84030  32.599   1.703   3.797
13431W        W84031  43.178  28.241  12.139
13432W        W84032  22.762   7.806   0.732
13433W        W84033  38.525  34.908  10.679
13434W        W84034   9.793  43.506  13.074
13435W        W84035  41.816  30.481  14.225
13436W        W84036  16.838  36.817  13.013
13437W        W84037  15.841  43.886  14.966
13438W        W84038   0.462  24.210  11.604
13439W        W84039  44.128   5.226   2.700
13440W        W84040  22.285  30.634  13.444
13441W        W84041  16.182  19.023  11.179
13442W        W84042  33.457  25.616   4.608
13443W        W84043  23.574  44.276   3.608
13444W        W84044   9.317   4.850  11.682
13445W        W84045  33.447  19.755  14.456
13446W        W84046   7.233  23.506   2.833
13447W        W84047  36.444  16.104  12.997
13448W        W84048   5.698  26.594   4.203
13449W        W84049  40.909  19.145  13.763
13450W        W84050  26.719  28.978  14.250
13451W        W84051   7.361  33.479  13.913
13452W        W84052  21.128  33.582  11.620
13453W        W84053   7.779   1.859   0.114
13454W        W84054  18.162  41.854   1.397
13455W        W84055   4.397  24.735  11.252
13456W        W84056  19.294  36.826   2.675
13457W        W84057  43.950  18.660  12.063
13458W        W84058  17.403  30.413   2.300
13459W        W84059   5.789   2.640  10.679
13460W        W84060  44.713   8.660  10.970
13461W        W84061  43.436  30.587  14.067
13462W        W84062   5.826   4.590  14.145
13463W        W84063   9.204  13.493   2.651
13464W        W84064  14.791  31.733   2.660
13465W        W84065  10.862  33.822  14.738
13466W        W84066  22.052  12.049  11.587
13467W        W84067   5.863  29.224  12.353
13468W        W84068  16.036   3.343   3.560
13469W        W84069  30.528  42.722   3.475
13470W        W84070  20.974  24.641   2.516
13471W        W84071  34.616  28.620   0.482
13472W        W84072  15.322   0.722  14.867
13473W        W84073  21.570  11.238   0.734
13474W        W84074  29.594  18.296   0.169
13475W        W84075  32.047  27.702  11.218
13476W        W84076  14.926   1.835  14.323
13477W        W84077   0.901  17.911   0.966
13478W        W84078  20.745   6.155  14.406
13479W        W84079  11.251  26.681   2.621
13480W        W84080  23.960  44.357   3.237
13481W        W84081   4.940   1.892   0.267
13482W        W84082  38.863   4.413   1.812
13483W        W84083  17.652  17.593   2.569
13484W        W84084   8.755  39.331   4.919
13485W        W84085  39.468   1.513   0.894
13486W        W84086  22.445  41.533   0.396
13487W        W84087  16.241  33.438  10.023
13488W        W84088  10.922  31.220  13.838
13489W        W84089  34.874   7.464   1.917
13490W        W84090   1.378  42.318  12.609
13491W        W84091  13.779  18.047  13.934
13492W        W84092  33.061   7.007   0.239
13493W        W84093  19.944  24.162  10.620
13494W        W84094  12.650   2.825   1.467
13495W        W84095  44.782  10.332   3.288
13496W        W84096  31.504  10.704   1.787
13497W        W84097  24.608  43.396   1.525
13498W        W84098   5.108  32.925   4.439
13499W        W84099   7.356  40.708  13.388
13500W        W84100  24.283  19.089   4.331
13501W        W84101  20.915  13.859   1.290
13502W        W84102  26.527  44.775  10.934
13503W        W84103  27.693  13.227  14.820
13504W        W84104  12.093  20.196   1.348
13505W        W84105  19.535  32.093  12.909
13506W        W84106  38.020   2.090  12.877
13507W        W84107  14.155  26.395  14.958
13508W        W84108  27.466  31.935  10.731
13509W        W84109  44.386  14.227   3.111
13510W        W84110  19.722   4.923  11.006
13511W        W84111  26.221  30.056  10.661
13512W        W84112   2.333  40.909   0.773
13513W        W84113  32.874  30.834  14.727
13514W        W84114   4.846  28.445  14.188
13515W        W84115   2.505   0.278  14.651
13516W        W84116  28.923  39.503   9.860
13517W        W84117   5.435  19.184   0.697
13518W        W84118  29.491  27.904  12.983
13519W        W84119  40.080   7.715   3.275
13520W        W84120  29.467  30.980  10.514
13521W        W84121  32.209   1.424   4.812
13522W        W84122  15.941   8.919   0.461
13523W        W84123  43.248  15.055   3.365
13524W        W84124  20.251  16.857  12.516
13525W        W84125  13.822  27.930   1.824
13526W        W84126  41.921  17.524   0.459
13527W        W84127  26.422  24.766   0.490
13528W        W84128  14.951  17.378  12.121
13529W        W84129  44.226  29.010   2.830
13530W        W84130  22.952  36.957   0.553
13531W        W84131  21.104  22.258   1.493
13532W        W84132  34.812  24.289   4.159
13533W        W84133  41.273   0.826   0.324
13534W        W84134  15.238  33.955   0.016
13535W        W84135  35.996   2.692  14.300
13536W        W84136   2.186  29.797  10.171
13537W        W84137  38.421  14.558  14.711
13538W        W84138   5.287   6.720   0.361
13539W        W84139  36.143   9.732  13.594
13540W        W84140  42.585  19.168  12.596
13541W        W84141  10.232  22.648  11.296
13542W        W84142  37.312   7.400   3.843
13543W        W84143  11.434  19.026  13.620
13544W        W84144  32.452  26.353   0.251
13545W        W84145  22.996   1.846   2.594
13546W        W84146  39.643  23.434   4.224
13547W        W84147  12.862   7.173   1.172
13548W        W84148  41.333   2.935   1.428
13549W        W84149  16.031  30.977   1.255
13550W        W84150   3.751   2.784   2.137
13551W        W84151  29.741  40.949   3.193
13552W        W84152  35.057  30.296   4.624
13553W        W84153  36.276  23.576  11.126
13554W        W84154   9.286  26.048  12.689
13555W        W84155  21.296  22.315  14.276
13556W        W84156   8.233  14.698   4.020
13557W        W84157   5.839  37.537   2.788
13558W        W84158  22.635   5.205   3.158
13559W        W84159  23.078  24.797  13.574
13560W        W84160   8.182  37.108   2.247
13561W        W84161  32.597  40.952  12.422
13562W        W84162   4.179  14.570   1.833
13563W        W84163  14.776  38.042  14.074
13564W        W84164  33.512  30.611  13.761
13565W        W84165  33.013  43.276   1.101
13566W        W84166  12.871  24.562   0.308
13567W        W84167  20.239  29.680  13.783
13568W        W84168  35.041  37.656  14.908
13569W        W84169  25.184  29.699   3.126
13570W        W84170   3.967  34.986  12.431
13571W        W84171  43.872  19.166  14.059
13572W        W84172  17.607   3.773  10.755
13573W        W84173  44.183  11.139  13.821
13574W        W84174  18.581  32.561   2.678
13575W        W84175  23.124   8.151   0.193
13576W        W84176   4.970  19.691  14.040
13577W        W84177  17.928  37.607  12.400
13578W        W84178  27.667  17.640  13.026
13579W        W84179  31.450  14.085   0.829
13580W        W84180  32.023  44.764  13.972
13581W        W84181  33.560  17.874  10.652
13582W        W84182  17.867  12.773  13.539
13583W        W84183   5.279  11.687   0.334
13584W        W84184  18.052  39.434   4.131
13585W        W84185  10.974  29.576   3.404
13586W        W84186  31.558  26.562   4.470
13587W        W84187  30.515  34.193   4.684
13588W        W84188  30.064  25.682  10.944
13589W        W84189   2.181   5.865  12.110
13590W        W84190  34.563  22.444  11.623
13591W        W84191  36.294   6.639  12.071
13592W        W84192  43.287  43.960   1.857
13593W        W84193  28.956  25.234   0.896
13594W        W84194  43.224   1.736   0.849
13595W        W84195  22.778  12.189   4.306
13596W        W84196  17.383  36.440   5.284
13597W        W84197  15.644   3.757  12.946
13598W        W84198  38.090  37.923   0.460
13599W        W84199  13.593  17.828  12.189
13600W        W84200  39.060  44.655  11.803
13601W        W84201   5.962  17.101   4.865
13602W        W84202   2.473   6.459   4.075
13603W        W84203  33.554  31.951   2.020
13604W        W84204  26.380  23.857  13.452
13605W        W84205  30.172   3.401  11.925
13606W        W84206  39.490  32.472  12.666
13607W        W84207  25.947   1.688   1.660
13608W        W84208  42.041  10.685   2.692
13609W        W84209  27.516  27.244   1.269
13610W        W84210  38.041   8.737  13.471
13611W        W84211  19.137  18.123   2.690
13612W        W84212  34.877   0.956  14.323
13613W        W84213  13.997  16.152   3.699
13614W        W84214   0.315  42.370   0.232
13615W        W84215  16.713  32.871  13.115
13616W        W84216  14.286  32.450  12.520
13617W        W84217  11.187  31.973  14.068
13618W        W84218  11.719  36.514  11.765
13619W        W84219  31.955  35.541   1.770
13620W        W84220  29.227  24.207   0.382
13621W        W84221  15.656  15.828   1.881
13622W        W84222  24.281  15.762  13.902
13623W        W84223  40.731  41.358  14.703
13624W        W84224   5.969  44.523   4.963
13625W        W84225  34.891  37.884   3.352
13626W        W84226  26.083   4.891  13.094
13627W        W84227  21.200  14.185  13.074
13628W        W84228  12.461  24.496   3.939
13629W        W84229  38.844  41.910  10.610
13630W        W84230  29.490  12.691  13.424
13631W        W84231  36.087  35.443   1.313
13632W        W84232  24.024   2.037   3.159
13633W        W84233  11.084  18.263   0.189
13634W        W84234  21.009  33.173   1.378
13635W        W84235  15.630   3.690  14.041
13636W        W84236  31.092  12.112   2.703
13637W        W84237  27.182  23.958  14.632
13638W        W84238  28.418   5.872   0.778
13639W        W84239  26.627  14.459   4.571
13640W        W84240  34.113   2.360  14.972
13641W        W84241  44.588  16.507   3.991
13642W        W84242  19.113  11.522  11.604
13643W        W84243   0.609  35.641  12.106
13644W        W84244  21.868  22.147  12.022
13645W        W84245  15.577  18.555  10.723
13646W        W84246  19.830   4.860   5.022
13647W        W84247   7.895  10.405   0.612
13648W        W84248  34.043  40.366  11.976
13649W        W84249  38.408  32.889  14.916
13650W        W84250   7.931  34.405   3.164
13651W        W84251  28.978  35.063   3.701
13652W        W84252  23.535  21.601   1.316
13653W        W84253  10.282  33.625  12.980
13654W        W84254   5.177  40.039   4.571
13655W        W84255  44.882  14.421   1.466
13656W        W84256  38.836  32.705   3.495
13657W        W84257  40.101   0.193   3.788
13658W        W84258  10.181  39.748  13.041
13659W        W84259  17.744  13.759   3.705
13660W        W84260   1.724  15.257   2.381
13661W        W84261  40.053  17.346  11.171
13662W        W84262  40.060  16.202   3.562
13663W        W84263  38.435  26.043  14.637
13664W        W84264  23.024   1.913  14.397
13665W        W84265  24.245  34.644  11.667
13666W        W84266  14.290   4.828   0.390
13667W        W84267  11.161  40.050   4.598
13668W        W84268  38.945  30.640   0.991
13669W        W84269  37.322   6.822   1.447
13670W        W84270  33.611  30.155  11.937
13671W        W84271  22.003  14.924   0.590
13672W        W84272   0.663  29.497  11.817
13673W        W84273  39.422  37.179  11.582
13674W        W84274   3.921  21.533   3.247
13675W        W84275  21.490  11.739   2.170
13676W        W84276  19.976  12.156   0.969
13677W        W84277   1.278  33.069   5.065
13678W        W84278  16.207  32.972  14.286
13679W        W84279  28.061   5.983   0.424
13680W        W84280   0.868  20.427   3.931
13681W        W84281   1.061   9.092  11.072
13682W        W84282  27.745   5.053   0.314
13683W        W84283  10.635  18.706  10.740
13684W        W84284  10.697  30.546  14.947
13685W        W84285   5.864  25.590  14.100
13686W        W84286   9.652  35.069  10.925
13687W        W84287  17.648  32.493   0.240
13688W        W84288  30.476  29.541   1.383
13689W        W84289  34.009  33.003   0.817
13690W        W84290  39.710  22.153   4.452
13691W        W84291  26.695   9.655   4.547
13692W        W84292  22.464  36.012  12.954
13693W        W84293  34.878  12.144  13.931
13694W        W84294  38.953  23.115   4.668
13695W        W84295   6.347  33.065   4.125
13696W        W84296   7.938  40.218  12.429
13697W        W84297  15.870  22.037  14.694
13698W        W84298  38.898  39.090   1.327
13699W        W84299  42.564   3.914   3.070
13700W        W84300  11.313  13.150   0.194
13701W        W84301  42.871  10.929  12.971
13702W        W84302  33.113   2.797   0.215
13703W        W84303  44.426  23.962  11.201
13704W        W84304  28.110  24.213   3.305
13705W        W84305  16.305  40.828   2.295
13706W        W84306  42.356  25.988   3.730
13707W        W84307  44.547   2.668   3.168
13708W        W84308  20.168  34.563  14.418
13709W        W84309   7.190  33.760  11.321
13710W        W84310  28.534  16.873   0.375
13711W        W84311  37.956  26.424  13.501
13712W        W84312  36.000  30.460   4.118
13713W        W84313  40.471  43.897   0.356
13714W        W84314  39.094  28.725  12.532
13715W        W84315  44.612  29.432  13.318
13716W        W84316   3.275  14.394  13.763
13717W        W84317  23.339  30.287   1.733
13718W        W84318  36.048   4.654   0.274
13719W        W84319  29.536   5.285   2.468
13720W        W84320  33.838  29.167   1.743
13721W        W84321   5.007  38.012  12.965
13722W        W84322  27.911  12.288  11.891
13723W        W84323  25.581  25.175   2.641
13724W        W84324  15.638  13.635  14.079
13725W        W84325  34.863  13.668  12.498
13726W        W84326   9.360  29.972   4.041
13727W        W84327  12.103   8.803  10.423
13728W        W84328  34.857  12.570   1.821
13729W        W84329  43.162  27.955  11.006
13730W        W84330   7.696  11.095   4.519
13731W        W84331  19.263   9.195   3.201
13732W        W84332   8.944   9.266   0.974
13733W        W84333  41.886  23.534   2.685
13734W        W84334  31.869  33.171  11.657
13735W        W84335  38.893  38.647  12.553
13736W        W84336   9.873   5.032   1.360
13737W        W84337  15.820   3.388  14.947
13738W        W84338  22.390  35.042   3.103
13739W        W84339  19.666  34.465   2.752
13740W        W84340  17.727  36.101  14.405
13741W        W84341  37.580  42.819   1.806
13742W        W84342  44.076   0.025   3.193
13743W        W84343  23.826   4.213   2.738
13744W        W84344  35.783  37.117   0.946
13745W        W84345  32.814   3.279   4.929
13746W        W84346  18.192  33.600  13.834
13747W        W84347   2.853  31.916  12.009
13748W        W84348   9.971  26.846   3.278
13749W        W84349   3.755  11.740   3.206
13750W        W84350  39.149  33.525  13.626
13751W        W84351  18.257  31.539  12.933
13752W        W84352  14.061  35.015   3.175
13753W        W84353  20.395   4.272   4.004
13754W        W84354   6.223  22.148   2.658
13755W        W84355   9.717  20.121  10.712
13756W        W84356   7.211  36.494   0.294
13757W        W84357  36.570   9.597  13.305
13758W        W84358  37.319  28.314  12.372
13759W        W84359  18.351  23.154  13.543
13760W        W84360  14.767   5.242   2.428
13761W        W84361  14.743  28.183  10.929
13762W        W84362   0.882  23.151   3.656
13763W        W84363  37.245  15.103   0.919
13764W        W84364  30.884  41.329  10.702
13765W        W84365  37.070  30.633  14.863
13766W        W84366   4.131  11.140   4.401
13767W        W84367  27.591  25.393  12.863
13768W        W84368  12.645  26.580  13.058
13769W        W84369   2.952  29.733   3.296
13770W        W84370  16.747  28.088   1.911
13771W        W84371  28.878  44.499  12.002
13772W        W84372   6.642  20.124   0.514
13773W        W84373  30.525  43.458  10.206
13774W        W84374  42.013   7.919   1.691
13775W        W84375  13.806   0.144   2.136
13776W        W84376  13.926  22.117   3.112
13777W        W84377   1.273   6.927   0.528
13778W        W84378   1.497  18.268  12.869
13779W        W84379  37.428   8.309   4.817
13780W        W84380   3.890  40.195  11.494
13781W        W84381  33.814  41.074  11.302
13782W        W84382  11.125  21.085  12.386
13783W        W84383  33.510  23.062   1.755
13784W        W84384  23.061  27.793  11.953
13785W        W84385   8.684  31.976   1.915
13786W        W84386  17.014  14.332   2.310
13787W        W84387  23.046  32.057   2.756
13788W        W84388  35.628  17.227  14.397
13789W        W84389  30.637   4.514  13.808
13790W        W84390   0.759   5.870  12.098
13791W        W84391  33.545  27.228   1.492
13792W        W84392  32.999  38.641  12.350
13793W        W84393  17.438  33.121  14.462
13794W        W84394  34.805  37.967  12.355
13795W        W84395  23.547  44.844  11.984
13796W        W84396   8.267  34.844   1.909
13797W        W84397  42.388  41.782  13.942
13798W        W84398   4.607  36.577  10.808
13799W        W84399   7.194  39.740   3.666
13800W        W84400  11.681  30.366  10.277
13801W        W84401   1.208  13.922  12.939
13802W        W84402  26.229  23.755  12.389
13803W        W84403  37.896  43.848   2.995
13804W        W84404  15.751  17.571  11.607
13805W        W84405  18.702  41.763   1.364
13806W        W84406  36.651  43.486  10.426
13807W        W84407  40.872  23.230   4.503
13808W        W84408   2.089  16.313  10.628
13809W        W84409  24.761  37.011   3.900
13810W        W84410  37.012   6.830   1.001
13811W        W84411  37.179  10.629  12.970
13812W        W84412   8.823  25.096  14.053
13813W        W84413   1.312   7.312  14.401
13814W        W84414  26.471  41.155  11.485
13815W        W84415   3.324  28.806   3.567
13816W        W84416   5.199  42.265   2.150
13817W        W84417   8.303  28.006  12.891
13818W        W84418   3.297   5.879   0.886
13819W        W84419  30.122  33.561   1.232
13820W        W84420   1.744  33.329  14.839
13821W        W84421  39.465  43.068  13.490
13822W        W84422   5.950   2.145  14.506
13823W        W84423   8.795  23.182   1.157
13824W        W84424   9.106  21.136   2.781
13825W        W84425   7.343  34.426   4.390
13826W        W84426  17.497  23.559  10.426
13827W        W84427  29.473  12.542   0.493
13828W        W84428   8.830  38.887  11.322
13829W        W84429  37.132  27.041   2.287
13830W        W84430  22.396  12.522  14.328
13831W        W84431  18.166  19.165   4.439
13832W        W84432  22.617  28.198   3.682
13833W        W84433  36.644  35.774   5.035
13834W        W84434  42.702  33.116  10.796
13835W        W84435  21.955  38.837  13.949
13836W        W84436  22.189  22.935  11.625
13837W        W84437  26.508  34.084  14.752
13838W        W84438  40.907  34.293   4.061
13839W        W84439   8.650  39.301  11.541
13840W        W84440  23.509  18.190  13.294
13841W        W84441   6.223  42.269  13.070
13842W        W84442   1.981  21.201   2.246
13843W        W84443  34.539  18.382  11.552
13844W        W84444  40.032  23.055   0.683
13845W        W84445   8.338  43.626   3.872
13846W        W84446  21.189  38.299  11.025
13847W        W84447  37.637  21.200  11.629
13848W        W84448  27.008   9.371   3.309
13849W        W84449  42.890  25.689   3.164
13850W        W84450  35.456  13.625   2.284
13851W        W84451  29.436   0.988   1.389
13852W        W84452   7.248  35.650  12.095
13853W        W84453  25.209   5.368  11.675
13854W        W84454  41.256   8.168  11.041
13855W        W84455  42.380  21.148  14.604
13856W        W84456  42.349  13.802  13.064
13857W        W84457   2.545  23.134   4.292
13858W        W84458   3.910  12.376  14.979
13859W        W84459  44.977  10.425  10.349
13860W        W84460  44.375  29.990   4.554
13861W        W84461  35.034  17.750  13.875
13862W        W84462   2.689   7.417   0.248
13863W        W84463  25.689  33.908  11.817
13864W        W84464  44.725  36.808   0.091
13865W        W84465  34.121  37.398  11.121
13866W        W84466   7.721  32.119   4.835
13867W        W84467   7.887  28.676   1.476
13868W        W84468  12.112  18.567  13.939
13869W        W84469   5.593  35.177   0.326
13870W        W84470   7.190  36.986   3.632
13871W        W84471  15.147  43.260  14.820
13872W        W84472  26.543   3.328   3.150
13873W        W84473  38.368  30.096  11.461
13874W        W84474  29.151  19.003  14.760
13875W        W84475  12.686  20.528   1.834
13876W        W84476   3.226   1.789   1.810
13877W        W84477  27.676  15.584  11.984
13878W        W84478   6.403  33.734   0.978
13879W        W84479  44.964  16.781  12.098
13880W        W84480  14.391   1.828  14.344
13881W        W84481  35.488   6.848  13.254
13882W        W84482  34.574  12.658   1.376
13883W        W84483  35.530  43.385   4.076
13884W        W84484  32.900  32.424   3.707
13885W        W84485  25.845  33.487  12.650
13886W        W84486  24.015   6.753  10.043
13887W        W84487   1.366   7.730  11.081
13888W        W84488  10.424  30.069   3.765
13889W        W84489   2.738  32.114   1.268
13890W        W84490  11.302   1.049   4.606
13891W        W84491  39.430  16.709   0.286
13892W        W84492  24.671  23.085   4.631
13893W        W84493  43.313  25.878   3.411
13894W        W84494  23.645  14.079  12.414
13895W        W84495   3.736   4.784  12.464
13896W        W84496   5.361  39.865  12.352
13897W        W84497  32.662  29.159   0.331
13898W        W84498  38.817   0.453  10.119
13899W        W84499  32.179  12.168   0.182
13900W        W84500  29.908  31.109   3.082
13901W        W84501  14.693  28.417  11.843
13902W        W84502  40.463  17.444  14.861
13903W        W84503  33.905  18.433   1.670
13904W        W84504  24.573  20.312  13.482
13905W        W84505   8.246  24.263   3.050
13906W        W84506  32.648  16.880  13.837
13907W        W84507  40.777   4.926  13.882
13908W        W84508  34.934  28.257   1.498
13909W        W84509  25.726   1.742  11.376
13910W        W84510   0.551   3.243  11.215
13911W        W84511  23.124  34.516   2.305
13912W        W84512   3.318   3.547   1.023
13913W        W84513  38.845  15.299  12.667
13914W        W84514   5.806  17.776   2.111
13915W        W84515  40.915  23.769   2.845
13916W        W84516  39.918  12.130   1.567
13917W        W84517  29.557  18.814  13.435
13918W        W84518  24.920  43.352   2.777
13919W        W84519  10.156  21.481   2.878
13920W        W84520  44.314  28.162  12.903
13921W        W84521  43.678  26.945   2.993
13922W        W84522  14.335   8.986  11.813
13923W        W84523   8.229   0.983  12.770
13924W        W84524   7.612   8.825   3.668
13925W        W84525  17.796  42.977  13.053
13926W        W84526  17.148  12.984  12.838
13927W        W84527   8.941  34.025  14.011
13928W        W84528  21.276  29.198  11.614
13929W        W84529  15.055   0.857  12.942
13930W        W84530  26.568  31.552   4.041
13931W        W84531  31.208  34.857  13.521
13932W        W84532  19.134  28.546   5.137
13933W        W84533  43.429   9.720   0.026
13934W        W84534  22.545  19.444   0.202
13935W        W84535  25.007  16.053  13.216
13936W        W84536  36.400  17.121  13.998
13937W        W84537  14.333  39.535   1.843
13938W        W84538  38.603  30.616   3.246
13939W        W84539  25.574  39.390   1.999
13940W        W84540   7.745  41.789  11.528
13941W        W84541  14.924  17.808  14.793
13942W        W84542  32.229  22.231   1.668
13943W        W84543  31.092   6.439  14.303
13944W        W84544  39.064  27.631   3.166
13945W        W84545   6.704  27.434   1.787
13946W        W84546  30.142   5.015   3.340
13947W        W84547  43.426   1.021  14.319
13948W        W84548  37.321  19.718  14.531
13949W        W84549  13.091  17.641   3.226
13950W        W84550   9.852  14.260   3.259
13951W        W84551  25.534  19.024   3.223
13952W        W84552  29.551   3.469   3.751
13953W        W84553  21.131  20.707   1.388
13954W        W84554  18.376  26.507  12.545
13955W        W84555  42.024  32.545  14.705
13956W        W84556  33.891   8.669  11.601
13957W        W84557  30.323  17.094  11.148
13958W        W84558  24.226   3.119  11.443
13959W        W84559  31.456   9.612  14.810
13960W        W84560   7.505  18.966  13.042
13961W        W84561  12.241  13.360  11.615
13962W        W84562  43.217  15.234  13.994
13963W        W84563  32.583  13.287   2.876
13964W        W84564  43.845  42.953  11.583
13965W        W84565  31.103  23.631  10.651
13966W        W84566  37.127  19.138  12.330
13967W        W84567  19.748  42.501  11.916
13968W        W84568   1.851  24.536   3.253
13969W        W84569  25.135  35.180   2.330
13970W        W84570  14.196   2.774   3.238
13971W        W84571  37.487  24.132   2.064
13972W        W84572  17.073  29.226  12.834
13973W        W84573  17.727  39.040  14.866
13974W        W84574  20.732   0.582   1.725
13975W        W84575  34.393  41.485  13.552
13976W        W84576  39.099  20.172   0.214
13977W        W84577  39.215  41.250  13.930
13978W        W84578  35.623   1.814   0.533
13979W        W84579   7.661  21.862  13.425
13980W        W84580  25.625  11.859   2.829
13981W        W84581   5.267  17.486  13.459
13982W        W84582   3.110  44.720  12.952
13983W        W84583  28.706  11.222   2.200
13984W        W84584  13.666  33.610  12.883
13985W        W84585   8.472  30.401  11.476
13986W        W84586  15.635   2.320   0.676
13987W        W84587  16.135  10.727  10.932
13988W        W84588  18.786  35.994  11.946
13989W        W84589  26.449  17.256   0.486
13990W        W84590  17.746  25.563  14.428
13991W        W84591  26.249  18.116  13.908
13992W        W84592  29.497  10.994  11.350
13993W        W84593  17.940  38.239   3.716
13994W        W84594  19.235  30.701   3.912
13995W        W84595  27.225  19.184   0.919
13996W        W84596  29.634  13.366  11.382
13997W        W84597   0.017  33.998   4.029
13998W        W84598  39.197  38.412  13.856
13999W        W84599   0.520  31.117  14.810
14000W        W84600  23.624  25.972  12.646
14001W        W84601  36.249  14.105  14.476
14002W        W84602   1.834  26.162  13.434
14003W        W84603  34.794   4.297  10.855
14004W        W84604  37.679   9.990  14.331
14005W        W84605  28.423  23.170   2.980
14006W        W84606  35.976   8.731   4.586
14007W        W84607  13.257  39.683   0.057
14008W        W84608   1.322   9.401   4.383
14009W        W84609  19.596   4.373  13.476
14010W        W84610  24.035  39.720   1.390
14011W        W84611  15.906  17.632   4.974
14012W        W84612  37.351  16.101  10.651
14013W        W84613  30.082   9.802  11.130
14014W        W84614  24.754   7.020   4.098
14015W        W84615  31.147  38.993   1.764
14016W        W84616  13.374  19.158   3.641
14017W        W84617  35.861  23.593  12.005
14018W        W84618  26.386  44.928  12.295
14019W        W84619  34.590  33.009   3.654
14020W        W84620  28.023  38.855  12.461
14021W        W84621   9.312  20.281  13.390
14022W        W84622  22.007  21.163  11.101
14023W        W84623   8.681  35.699  11.096
14024W        W84624   4.361  23.598   2.126
14025W        W84625  34.544  35.086   4.013
14026W        W84626   6.739  40.679  13.529
14027W        W84627  15.584  23.047  12.450
14028W        W84628   0.843  21.520  11.708
14029W        W84629  30.130  28.161  11.297
14030W        W84630  23.364  38.436   0.948
14031W        W84631   5.758  39.564  11.549
14032W        W84632  26.044   8.410  14.410
14033W        W84633  31.722  26.337  10.174
14034W        W84634   0.444  19.844   1.646
14035W        W84635  44.334  38.961   0.986
14036W        W84636  28.773  21.019   2.633
14037W        W84637   4.327  12.179  13.817
14038W        W84638  36.101   7.423   1.262
14039W        W84639  16.816  15.631  12.041
14040W        W84640  34.527  14.033  11.921
14041W        W84641  23.988  18.001   3.782
14042W        W84642  10.694  17.137   3.438
14043W        W84643  41.260   2.426  13.523
14044W        W84644  21.064  39.904  14.826
14045W        W84645  25.239  16.970  13.410
14046W        W84646   3.772  39.254   2.156
14047W        W84647  39.751  44.890   0.002
14048W        W84648  31.200  38.527  10.578
14049W        W84649  15.287  38.980   1.338
14050W        W84650  31.101  13.071  12.410
14051W        W84651   6.371  21.599   2.345
14052W        W84652  42.031  25.292  13.912
14053W        W84653   3.888   6.106  13.450
14054W        W84654  11.659  43.769   3.326
14055W        W84655  31.628   9.458  13.030
14056W        W84656  21.664  18.900  11.577
14057W        W84657  38.921  44.533  11.326
14058W        W84658  26.156  41.552  12.603
14059W        W84659  18.873  29.165  13.866
14060W        W84660  27.618  39.724  14.204
14061W        W84661  42.224  44.989   4.709
14062W        W84662  28.561  43.948   1.638
14063W        W84663  27.749   9.141  12.526
14064W        W84664  41.318   4.252   3.182
14065W        W84665  41.375  18.277   2.694
14066W        W84666  14.176  35.642  10.663
14067W        W84667  39.444  39.188   0.493
14068W        W84668  21.535  39.534  11.640
14069W        W84669  17.136  38.151   4.455
14070W        W84670  24.139  43.236  13.427
14071W        W84671  40.293  13.071   2.845
14072W        W84672  25.143  16.496  14.490
14073W        W84673  12.582   9.710  13.017
14074W        W84674  29.093  17.273   3.258
14075W        W84675  23.082  19.378   1.721
14076W        W84676  26.662  34.617  14.035
14077W        W84677  20.616  36.544   1.409
14078W        W84678  34.477  35.438   0.436
14079W        W84679  41.890  17.532  12.511
14080W        W84680  17.288   8.615   9.863
14081W        W84681   2.361   8.293  10.397
14082W        W84682  10.072   7.128  14.968
14083W        W84683  18.722  16.785   3.412
14084W        W84684  15.033  16.225  12.922
14085W        W84685  32.848   5.380   1.335
14086W        W84686  12.046   6.320  13.516
14087W        W84687  44.505  36.135  13.511
14088W        W84688  40.340   0.776   2.438
14089W        W84689   5.734   1.720  11.623
14090W        W84690  44.451  39.454   3.268
14091W        W84691  35.299  39.492  11.071
14092W        W84692  13.531  14.626  14.780
14093W        W84693  29.550  25.714  14.438
14094W        W84694  28.997  43.579  10.934
14095W        W84695  29.076  15.206  14.319
14096W        W84696  30.462  11.841  10.666
14097W        W84697  17.395  41.973  14.306
14098W        W84698  26.297  20.025   2.858
14099W        W84699  28.970  15.550   0.004
14100W        W84700   5.410   8.890  13.463
14101W        W84701   9.186   4.836   1.833
14102W        W84702   8.411  11.994   3.851
14103W        W84703   1.456  25.532  11.078
14104W        W84704  24.973  33.032   2.166
14105W        W84705   3.395  37.235  13.746
14106W        W84706  29.838  25.371   0.820
14107W        W84707  28.390  17.229  13.052
14108W        W84708   3.943  26.964   3.732
14109W        W84709   1.545  18.132   1.702
14110W        W84710  12.343   4.546   2.187
14111W        W84711   0.684  13.926   2.852
14112W        W84712  35.898   4.840   4.277
14113W        W84713  30.986  38.518   0.403
14114W        W84714   8.277  27.080   0.080
14115W        W84715   7.403  37.787  11.167
14116W        W84716   4.279  24.047   0.219
14117W        W84717  12.704  27.995  12.840
14118W        W84718  38.329   3.776   1.448
14119W        W84719  28.737  29.199  12.942
14120W        W84720  41.738  10.053  10.224
14121W        W84721  27.369  12.638  12.471
14122W        W84722  34.901  27.254   3.820
14123W        W84723  13.497  19.865   1.224
14124W        W84724  16.161  35.600  13.427
14125W        W84725  35.638  37.589  13.484
14126W        W84726  31.469  41.506   0.409
14127W        W84727  19.218  29.646  12.562
14128W        W84728   4.256  26.455  14.908
14129W        W84729  26.397  22.373  14.824
14130W        W84730  29.472  37.895   3.457
14131W        W84731   9.775  16.641  12.919
14132W        W84732   9.615   7.832   1.907
14133W        W84733  32.406  31.302  13.274
14134W        W84734  18.516  20.306   3.895
14135W        W84735   3.068  16.587  11.205
14136W        W84736  26.271  34.647  11.287
14137W        W84737  34.966  34.525  11.539
14138W        W84738  23.459  14.200   0.817
14139W        W84739  30.476   2.377  14.408
14140W        W84740  34.549  20.168   4.534
14141W        W84741  27.600  21.975  14.879
14142W        W84742   7.701  42.792   4.293
14143W        W84743  17.114  13.389   2.284
14144W        W84744  23.285  33.789   4.169
14145W        W84745  15.539  29.579   2.364
14146W        W84746  11.643  39.137   9.964
14147W        W84747  19.094  29.459  13.027
14148W        W84748   9.753   6.415   4.582
14149W        W84749  17.714  36.623  14.427
14150W        W84750   6.766  16.159   3.362
14151W        W84751  11.261  30.020   3.253
14152W        W84752   4.401  17.367   3.345
14153W        W84753  21.495  17.197   1.353
14154W        W84754  44.923   0.045  13.102
14155W        W84755  42.582  38.000   0.378
14156W        W84756  11.671   0.740   1.032
14157W        W84757   0.840  31.576  13.942
14158W        W84758  26.860   3.440   2.767
14159W        W84759  25.048  26.566  14.145
14160W        W84760  15.533   5.264   1.299
14161W        W84761   8.452   9.824   3.481
14162W        W84762  34.850  42.616  12.876
14163W        W84763  34.475  29.483   4.153
14164W        W84764  14.054  42.948  13.699
14165W        W84765  15.322  37.622  10.575
14166W        W84766   7.870  42.274   0.726
14167W        W84767  36.159  16.791  11.577
14168W        W84768   9.307  11.624   4.051
14169W        W84769  33.827  13.832   2.211
14170W        W84770   0.280   5.273   1.817
14171W        W84771  38.636   6.113  13.558
14172W        W84772   0.324  44.255   0.260
14173W        W84773  41.403   9.426  12.892
14174W        W84774  37.233  43.930  12.032
14175W        W84775  20.583  41.881   4.545
14176W        W84776  32.552  20.797  12.617
14177W        W84777   2.786  36.122  13.386
14178W        W84778   2.466  17.507  14.033
14179W        W84779  26.024  42.564   1.789
14180W        W84780   6.955  44.183  13.331
14181W        W84781  18.552  25.111   1.247
14182W        W84782  10.361  34.341   4.109
14183W        W84783  31.031  25.992   1.898
14184W        W84784   6.547  26.673  10.574
14185W        W84785  10.809  10.923  10.646
14186W        W84786  35.886  35.071   4.108
14187W        W84787  25.535  12.106   3.913
14188W        W84788  32.361  16.520  11.204
14189W        W84789  30.994  20.809   1.409
14190W        W84790  34.390  28.649   4.116
14191W        W84791  13.918  35.875   3.024
14192W        W84792  16.553  20.745   0.359
14193W        W84793   0.386  44.216  11.893
14194W        W84794  14.668   0.191  10.755
14195W        W84795  41.398   6.216  12.338
14196W        W84796  12.912  33.450   0.751
14197W        W84797  35.008  40.942  13.915
14198W        W84798  30.919  18.665   4.874
14199W        W84799  37.306   6.883   3.124
14200W        W84800  14.113  34.183   0.355
14201W        W84801  19.769  30.830  10.908
14202W        W84802  23.200   2.876  13.416
14203W        W84803  38.287  39.042   0.818
14204W        W84804  36.531  13.641  12.757
14205W        W84805  38.225  27.560   3.460
14206W        W84806  22.585  39.020  11.210
14207W        W84807  30.355  41.057  14.333
14208W        W84808   3.558  40.497  12.278
14209W        W84809  34.547  17.571   0.888
14210W        W84810   3.729  42.462   1.248
14211W        W84811  43.661  15.752   3.648
14212W        W84812  28.427  26.876  11.424
14213W        W84813  30.904  34.431  13.269
14214W        W84814  42.826  16.537   0.654
14215W        W84815   6.435  27.508   4.913
14216W        W84816  35.748  29.917   2.379
14217W        W84817  32.267   6.721   0.071
14218W        W84818  32.950  20.517   0.456
14219W        W84819  37.542  38.591   2.805
14220W        W84820   4.409  41.945  13.170
14221W        W84821  35.617  17.307  11.378
14222W        W84822  20.820  28.977   2.334
14223W        W84823   1.830  12.149   0.496
14224W        W84824  26.233  19.594   1.341
14225W        W84825  42.111  21.511  11.992
14226W        W84826  26.119   8.101   3.770
14227W        W84827   1.928  13.919   2.342
14228W        W84828  14.789  10.888   0.103
14229W        W84829  21.509  15.880   2.265
14230W        W84830  39.143  40.250  14.875
14231W        W84831   6.199  16.801   0.859
14232W        W84832  35.229  21.152  12.155
14233W        W84833  41.643  26.552   2.830
14234W        W84834  30.038   8.920   3.593
14235W        W84835  26.980   6.315  11.449
14236W        W84836  36.319  35.865  14.424
14237W        W84837  19.101  43.845  11.120
14238W        W84838  17.721  18.570  11.420
14239W        W84839   4.844  40.575   2.016
14240W        W84840   0.310  21.585   3.620
14241W        W84841  17.343  20.116  13.820
14242W        W84842  12.892  11.122   4.394
14243W        W84843  18.357  11.239   3.357
14244W        W84844   8.780  19.576  10.783
14245W        W84845  32.356  28.750  11.592
14246W        W84846  21.558  14.572  11.944
14247W        W84847   7.101   3.225   4.310
14248W        W84848  38.959   2.390  14.472
14249W        W84849  23.965  18.191   2.872
14250W        W84850  36.463   9.434   0.793
14251W        W84851  15.629   5.361   2.662
14252W        W84852   1.922  35.002  13.477
14253W        W84853  19.510   8.201  11.688
14254W        W84854  37.570  28.956  14.345
14255W        W84855   0.655   7.737   0.666
14256W        W84856  44.759  37.133   0.491
14257W        W84857  30.040  14.754  12.233
14258W        W84858  26.516   6.881  10.643
14259W        W84859  37.481  36.611   2.675
14260W        W84860  19.137  38.771  12.294
14261W        W84861  28.556  29.166  14.282
14262W        W84862  38.822  39.627  10.885
14263W        W84863   3.994  24.777  13.831
14264W        W84864  16.286  41.079  13.916
14265W        W84865  24.079  23.016  12.377
14266W        W84866  34.339  14.592   4.988
14267W        W84867   5.495  44.535   3.665
14268W        W84868  19.149  25.752   0.783
14269W        W84869  40.529  23.561  13.914
14270W        W84870   3.760  16.202   2.263
14271W        W84871   8.219  21.819  12.510
14272W        W84872  43.758   0.026   3.593
14273W        W84873  11.755  30.400   3.081
14274W        W84874  23.085  29.736  11.506
14275W        W84875  30.656  21.125   2.104
14276W        W84876  33.918  13.581  10.437
14277W        W84877  21.750   7.131   1.685
14278W        W84878   2.755  24.013  11.540
14279W        W84879   0.525   6.340   3.232
14280W        W84880   1.014  44.455   2.391
14281W        W84881  41.775  13.069   2.358
14282W        W84882   4.491  19.394  13.362
14283W        W84883  29.363  27.658  14.625
14284W        W84884  16.855  15.131   2.831
14285W        W84885  31.850  24.981   2.371
14286W        W84886   6.131  18.667   3.741
14287W        W84887  44.730  29.176  14.537
14288W        W84888   2.961  26.071   0.924
14289W        W84889   2.703  24.514   1.450
14290W        W84890  31.600   4.799   2.886
14291W        W84891   5.219  27.938  14.374
14292W        W84892  42.938  43.361  10.377
14293W        W84893  18.116  15.629   2.855
14294W        W84894   5.716  10.838   2.544
14295W        W84895  24.353  18.263  12.913
14296W        W84896  34.416  37.009  11.514
14297W        W84897  37.039   8.641   4.582
14298W        W84898  14.556   2.946  12.179
14299W        W84899  14.683  13.088  13.009
14300W        W84900  16.199  27.278   1.373
14301W        W84901  26.046  32.106  11.545
14302W        W84902  32.606  28.658  13.067
14303W        W84903  31.155  38.314  14.345
14304W        W84904  39.194  25.683   0.760
14305W        W84905  13.231  13.846  12.510
14306W        W84906   3.428  32.003  11.360
14307W        W84907  43.072  43.847  12.113
14308W        W84908  35.488  33.160  14.378
14309W        W84909  38.255   2.944  10.368
14310W        W84910   2.988  15.345  12.438
14311W        W84911  33.939  24.697  10.740
14312W        W84912  40.672  22.579  12.366
14313W        W84913  23.171  33.984   2.771
14314W        W84914  16.748  11.760   2.270
14315W        W84915  13.845  11.588  11.534
14316W        W84916  32.038  16.333   2.302
14317W        W84917   3.469  14.529  11.947
14318W        W84918  43.021  38.985   3.769
14319W        W84919   1.850   6.146   3.789
14320W        W84920  19.522  22.081  12.410
14321W        W84921  44.842   9.226  13.324
14322W        W84922  38.396   1.592  11.192
14323W        W84923   0.661   8.612   5.141
14324W        W84924   1.000   3.275   3.606
14325W        W84925   2.719  18.529  13.092
14326W        W84926  22.020  25.200   1.043
14327W        W84927  13.828  16.036  13.378
14328W        W84928  13.320  33.802  10.037
14329W        W84929   8.730  36.516  14.744
14330W        W84930   4.197  10.483  11.133
14331W        W84931  40.433   4.010  13.937
14332W        W84932  12.934  20.134   0.963
14333W        W84933  42.959   6.451  12.061
14334W        W84934  17.778   6.275   1.936
14335W        W84935  28.608  16.402   1.898
14336W        W84936   9.316  38.016  14.927
14337W        W84937  19.999   5.353  10.246
14338W        W84938  23.273  27.001  12.942
14339W        W84939  14.769  13.068   0.279
14340W        W84940  37.340  18.671   2.331
14341W        W84941  30.430   2.214   0.320
14342W        W84942  33.363  42.116  13.946
14343W        W84943   2.893  42.236  13.595
14344W        W84944  21.231  16.333   2.208
14345W        W84945  40.240  21.919  13.787
14346W        W84946  38.521  41.758   3.328
14347W        W84947   9.859  18.680   4.310
14348W        W84948  31.794  43.618  13.337
14349W        W84949  14.023  22.394  14.377
14350W        W84950  21.024  36.770   1.704
14351W        W84951  29.614  36.080  12.059
14352W        W84952  17.055   8.166  14.131
14353W        W84953  37.610  11.379   4.584
14354W        W84954  27.711  37.619   5.320
14355W        W84955   6.906   8.373  14.917
14356W        W84956  28.937  31.911   0.321
14357W        W84957  33.106  19.510   0.739
14358W        W84958   4.128  37.741   5.085
14359W        W84959  23.175  10.851   1.702
14360W        W84960  33.455  38.966   5.067
14361W        W84961  23.018  20.208  11.185
14362W        W84962  37.894  40.092   0.484
14363W        W84963   5.758  24.306   2.433
14364W        W84964  32.799   1.698   3.255
14365W        W84965   7.127  27.478   3.600
14366W        W84966  22.729  15.692  12.064
14367W        W84967  13.692  40.738   1.383
14368W        W84968  40.153  35.712  13.872
14369W        W84969  42.044  16.120   3.287
14370W        W84970  14.727  28.875   4.516
14371W        W84971   0.903  34.105   2.770
14372W        W84972  26.192   1.856  11.578
14373W        W84973   6.835  39.080   1.320
14374W        W84974  36.498  37.745   1.561
14375W        W84975  34.967  27.598  13.317
14376W        W84976  42.516  11.076  13.393
14377W        W84977  36.392  34.170   0.109
14378W        W84978  27.687  29.278   2.911
14379W        W84979   6.166   8.711  12.937
14380W        W84980  35.336  40.457   1.467
14381W        W84981  40.993  15.834  13.401
14382W        W84982  29.126   4.268   4.553
14383W        W84983   4.992  21.120   2.943
14384W        W84984  39.272  11.043   3.357
14385W        W84985  39.540  24.594   0.355
14386W        W84986  30.764   4.848   9.734
14387W        W84987  27.693  20.859  10.045
14388W        W84988  10.161   8.446   2.782
14389W        W84989  15.894  36.545  12.816
14390W        W84990  13.636  34.025   0.965
14391W        W84991  35.650   9.497  14.279
14392W        W84992  44.518  10.831  14.972
14393W        W84993  42.937  17.607   2.783
14394W        W84994  32.844  43.949   0.373
14395W        W84995  41.925  32.094   1.263
14396W        W84996  30.994  24.251  13.965
14397W        W84997  32.442  28.463   0.973
14398W        W84998  43.488   0.259  14.969
14399W        W84999  41.049  32.224  12.513
14400W        W85000   6.008   6.596   3.316
14401W        W85001   3.967  30.688  14.385
14402W        W85002  34.736   2.747  12.985
14403W        W85003  17.405   0.681   0.739
14404W        W85004  11.850  37.175   2.339
14405W        W85005  21.687   8.344   0.324
14406W        W85006  21.111  16.884  11.586
14407W        W85007  16.176  11.158   2.739
14408W        W85008  21.707  21.551  13.876
14409W        W85009  43.890   3.757   2.751
14410W        W85010  34.972  25.702  14.234
14411W        W85011  42.433  32.977  12.407
14412W        W85012   4.809  26.113  12.485
14413W        W85013  24.729  28.930  11.944
14414W        W85014   9.868  28.678  11.249
14415W        W85015  26.174   0.718   3.442
14416W        W85016   7.775  26.485  12.952
14417W        W85017  43.840  10.331   2.897
14418W        W85018  15.346  24.518   2.247
14419W        W85019   4.674   9.432  13.256
14420W        W85020  21.364  36.783  10.723
14421W        W85021  44.526  36.813   4.152
14422W        W85022  13.406  24.887  13.791
14423W        W85023   7.760  21.040  12.398
14424W        W85024  20.798  25.738   0.355
14425W        W85025  16.062  19.204  13.315
14426W        W85026   7.743  23.937  12.932
14427W        W85027  43.311  18.305   2.052
14428W        W85028  40.519  23.115   0.466
14429W        W85029  33.932  42.076  11.181
14430W        W85030  29.031   1.280   1.691
14431W        W85031  40.814  37.384  14.051
14432W        W85032  30.966   3.815  14.578
14433W        W85033   8.310  42.991  11.792
14434W        W85034  40.314  29.480  13.534
14435W        W85035  13.974  33.047   3.098
14436W        W85036   1.918  33.300   0.816
14437W        W85037  15.777   8.203   2.368
14438W        W85038  36.001  34.339   3.653
14439W        W85039  35.562  31.437   4.066
14440W        W85040  30.551   7.000   2.131
14441W        W85041  34.177  43.089   0.389
14442W        W85042  33.168   3.265   3.137
14443W        W85043  15.551  13.591   4.053
14444W        W85044   0.306  32.470   2.810
14445W        W85045  41.497   0.381   0.442
14446W        W85046  25.708  36.971  13.730
14447W        W85047  44.057  21.620   2.394
14448W        W85048   7.452  16.638  13.489
14449W        W85049  17.771   9.689   2.770
14450W        W85050  16.240  16.405   4.048
14451W        W85051   2.316  12.350   1.198
14452W        W85052  12.361  14.156  12.933
14453W        W85053   0.427  31.604   0.922
14454W        W85054  36.469  26.558  13.765
14455W        W85055  25.898  19.886  12.300
14456W        W85056  19.216  23.226   1.847
14457W        W85057  20.528  36.786  13.264
14458W        W85058   4.769  16.829  11.536
14459W        W85059  14.205  18.941   1.737
14460W        W85060  14.561  44.275  13.937
14461W        W85061  18.704   1.956   2.611
14462W        W85062   1.421  37.106  13.762
14463W        W85063  21.001   5.798  14.104
14464W        W85064   2.937  19.563  11.537
14465W        W85065  16.154   9.261  14.479
14466W        W85066  19.406  20.469  11.621
14467W        W85067   3.713  18.500  13.468
14468W        W85068  10.777   3.347  13.887
14469W        W85069  10.230  27.247  14.440
14470W        W85070   8.822  41.740  10.755
14471W        W85071  12.347  18.128  11.660
14472W        W85072   6.184  24.927   1.486
14473W        W85073   4.974  44.002   4.247
14474W        W85074  11.755   4.522   3.834
14475W        W85075  33.001  30.964   1.839
14476W        W85076  42.532  29.909   1.243
14477W        W85077   9.641  43.884  13.404
14478W        W85078  25.321  35.163   4.100
14479W        W85079  21.659  17.955  11.888
14480W        W85080   6.239  20.528  14.889
14481W        W85081   6.363   1.275   0.499
14482W        W85082  35.965  29.032   2.939
14483W        W85083  11.819  18.074  13.930
14484W        W85084  39.817  24.736   4.268
14485W        W85085  26.465   6.734  14.392
14486W        W85086  28.150  15.237  10.553
14487W        W85087  15.205  35.128  14.742
14488W        W85088  12.602  24.054   2.344
14489W        W85089  30.716  28.139  14.440
14490W        W85090  34.712  29.935   4.272
14491W        W85091  29.453  31.407  10.842
14492W        W85092  14.414  29.069   2.716
14493W        W85093  29.228  42.760   0.378
14494W        W85094   2.320  16.869  11.652
14495W        W85095   2.540  21.100   1.774
14496W        W85096  28.000  11.726   1.874
14497W        W85097  38.955  24.098  14.825
14498W        W85098  20.134   8.826   0.966
14499W        W85099  41.687  18.192   1.150
14500W        W85100  18.081  33.222  12.120
14501W        W85101  27.112  33.857  14.020
14502W        W85102  29.151  17.211  11.924
14503W        W85103  17.716  13.619  13.002
14504W        W85104  41.614  24.083  13.548
14505W        W85105  36.125  28.720   3.493
14506W        W85106  43.550  12.783   2.709
14507W        W85107  29.377  29.443   4.025
14508W        W85108  20.126  18.576  12.068
14509W        W85109   8.412   6.763  13.803
14510W        W85110   9.439   4.069   3.336
14511W        W85111  20.231  19.767  12.565
14512W        W85112   8.549  40.575   1.730
14513W        W85113  42.621   6.388  13.556
14514W        W85114  15.189  21.538  11.448
14515W        W85115  40.792  32.573  12.801
14516W        W85116  20.789  27.600  13.849
14517W        W85117  42.258   7.428   2.555
14518W        W85118  37.918  30.026   2.223
14519W        W85119  29.621  26.612  11.092
14520W        W85120  37.588  37.795  12.029
14521W        W85121  20.562  33.317  11.015
14522W        W85122  40.866  16.056  13.866
14523W        W85123  41.234  15.489  12.572
14524W        W85124  22.691  36.352  13.272
14525W        W85125  13.309  10.071   2.382
14526W        W85126   9.376  26.721   2.152
14527W        W85127  16.258  16.653   3.608
14528W        W85128  29.555  17.347  12.663
14529W        W85129  14.163   4.076   1.976
14530W        W85130   7.357   8.428   2.181
14531W        W85131  42.485  33.160   4.590
14532W        W85132   8.600  14.700   3.351
14533W        W85133  14.405   0.191   5.097
14534W        W85134   1.019  19.067   3.616
14535W        W85135   3.521   0.790   0.985
14536W        W85136  35.284  37.087  14.332
14537W        W85137  29.518   5.877   3.624
14538W        W85138  26.779  32.007  12.174
14539W        W85139  35.454   4.766   2.227
14540W        W85140  40.861   8.098  14.286
14541W        W85141  18.288  37.676  13.601
14542W        W85142  22.819  14.150  13.072
14543W        W85143  34.398  43.928  10.656
14544W        W85144  29.168  21.265  12.591
14545W        W85145  38.085   2.439  12.006
14546W        W85146  33.102  43.313  13.424
14547W        W85147  38.250  34.408  14.592
14548W        W85148   0.540   3.839  11.049
14549W        W85149  13.669  14.563   0.742
14550W        W85150  43.341  25.170  14.395
14551W        W85151  35.413  39.007  13.877
14552W        W85152  38.586   4.247  12.609
14553W        W85153  10.652  38.874  14.557
14554W        W85154  44.808  22.266  12.561
14555W        W85155  35.960  35.362  12.655
14556W        W85156  19.657  20.802  11.237
14557W        W85157  16.074  31.063  13.083
14558W        W85158   8.193  27.738  14.350
14559W        W85159  23.696  14.063  13.893
14560W        W85160  17.997  38.545  12.535
14561W        W85161  40.780  29.112   4.944
14562W        W85162  40.761  11.810   1.276
14563W        W85163  13.708  24.410  11.501
14564W        W85164  14.622  15.813   4.620
14565W        W85165  18.175  38.525  13.390
14566W        W85166  10.147  34.103  12.656
14567W        W85167   6.777  25.320   0.379
14568W        W85168   4.932  27.223   4.245
14569W        W85169  28.351   4.436  11.813
14570W        W85170  29.328  18.119  12.848
14571W        W85171  37.953   2.726   3.054
14572W        W85172  29.477   7.749   3.564
14573W        W85173  28.152  13.240   2.465
14574W        W85174  37.482   0.230   0.430
14575W        W85175  23.627  10.357   4.344
14576W        W85176  33.554   4.288  14.433
14577W        W85177  38.422  13.334   1.894
14578W        W85178  29.000   6.171  11.833
14579W        W85179  29.677  30.425  12.533
14580W        W85180   9.406  38.997  11.091
14581W        W85181  18.472  44.953  14.903
14582W        W85182   5.468  42.455   0.356
14583W        W85183  25.824  13.779   0.670
14584W        W85184  23.859  22.195  11.820
14585W        W85185  38.756  29.987  13.101
14586W        W85186  43.760   8.707  14.879
14587W        W85187  31.498  11.948  12.929
14588W        W85188  28.919  16.720   1.655
14589W        W85189   3.691  15.893  11.125
14590W        W85190   7.301  13.061  10.918
14591W        W85191  17.520  35.114  13.437
14592W        W85192  25.731  14.805  11.683
14593W        W85193  14.226  44.160  14.929
14594W        W85194   1.059   0.347  14.841
14595W        W85195  22.745  41.536   3.133
14596W        W85196  20.993  28.547  14.511
14597W        W85197  25.759  16.341  12.915
14598W        W85198  34.013  23.262   1.840
14599W        W85199  19.390   5.817  12.443
14600W        W85200  22.850  43.653  13.721
14601W        W85201  11.645   3.657   1.299
14602W        W85202   5.158   2.835  13.298
14603W        W85203  13.114   4.849   3.568
14604W        W85204  36.953  28.409  10.682
14605W        W85205   0.293  27.690  13.267
14606W        W85206  19.129  32.075   4.232
14607W        W85207  30.559   7.729   1.602
14608W        W85208   0.962  11.046  11.951
14609W        W85209  41.311   7.708   1.403
14610W        W85210  15.346   7.187   3.221
14611W        W85211  32.094   3.848  11.703
14612W        W85212  35.691  42.353   3.226
14613W        W85213   5.201  20.312  11.514
14614W        W85214  33.191  28.722   0.374
14615W        W85215  31.221  33.317   0.412
14616W        W85216  39.251   6.309   2.178
14617W        W85217  26.492  31.651  12.410
14618W        W85218  31.768  14.770  13.113
14619W        W85219  20.771  30.057  12.111
14620W        W85220  17.001  41.984   0.796
14621W        W85221  12.799   9.079   4.919
14622W        W85222  44.512  19.657  14.221
14623W        W85223  14.101  25.691   4.972
14624W        W85224  34.633  27.390   3.402
14625W        W85225  42.369   8.704   4.673
14626W        W85226  32.663   4.944  12.864
14627W        W85227  43.507  38.139   4.089
14628W        W85228  30.704   5.999  11.162
14629W        W85229   8.779  33.953   1.192
14630W        W85230  36.114   5.268  13.131
14631W        W85231  21.156  33.048   3.756
14632W        W85232   2.225   0.859   4.624
14633W        W85233  24.647   2.305   2.461
14634W        W85234  16.898  40.487  13.363
14635W        W85235  33.510  26.510   4.132
14636W        W85236  10.419  35.678   3.697
14637W        W85237   2.001  13.426   0.678
14638W        W85238  42.509  17.507  14.365
14639W        W85239   3.755  44.447   2.627
14640W        W85240  11.131  13.208  12.908
14641W        W85241  12.217  21.180  13.473
14642W        W85242  13.431  36.458  14.010
14643W        W85243   4.396  38.535  14.968
14644W        W85244  16.849   8.204   2.231
14645W        W85245  12.190  33.805   0.285
14646W        W85246   8.993   2.518   1.325
14647W        W85247  41.599  11.553  12.279
14648W        W85248  38.465  38.459   3.920
14649W        W85249  15.062  38.761  11.125
14650W        W85250  16.133  21.685   0.879
14651W        W85251  24.600  22.519  12.966
14652W        W85252   1.057  26.940  14.311
14653W        W85253  10.251  32.384   1.415
14654W        W85254   3.922  42.773  10.150
14655W        W85255   6.765  30.612   3.911
14656W        W85256   6.346  10.391   0.046
14657W        W85257  10.907  20.826  12.902
14658W        W85258  42.344  11.567  13.470
14659W        W85259  20.639  35.877  11.923
14660W        W85260  10.157  39.818  11.000
14661W        W85261  42.856  11.632   4.076
14662W        W85262  16.755  11.167  11.150
14663W        W85263  12.760  16.581  12.002
14664W        W85264  19.240   5.277  14.831
14665W        W85265  30.103  32.801   0.808
14666W        W85266  30.097  38.452   2.399
14667W        W85267  20.513  21.502   3.701
14668W        W85268  10.807  43.654  12.017
14669W        W85269  16.217  39.120  10.377
14670W        W85270  17.284  44.438  13.387
14671W        W85271  20.669  30.164  10.376
14672W        W85272  35.786  40.226   5.018
14673W        W85273   0.741  31.156  11.493
14674W        W85274  20.517  23.570  11.208
14675W        W85275  39.342   5.409   0.483
14676W        W85276  14.582   7.371   0.344
14677W        W85277  20.978   3.454  11.520
14678W        W85278  12.813  32.020  13.100
14679W        W85279  20.781   6.731  12.604
14680W        W85280   4.970   3.919   2.007
14681W        W85281  23.656  34.189   2.829
14682W        W85282  18.082   6.575   4.106
14683W        W85283  12.160  30.202  10.502
14684W        W85284  18.896  36.927  10.905
14685W        W85285   4.731  32.135   0.534
14686W        W85286  35.078  27.387  12.812
14687W        W85287  24.879   3.633   1.800
14688W        W85288  15.342  41.964  11.419
14689W        W85289   0.908  31.581   0.706
14690W        W85290  38.096  38.409   2.091
14691W        W85291   6.435   7.222   3.797
14692W        W85292   8.919  20.579  11.569
14693W        W85293  21.985   4.210  13.565
14694W        W85294   8.300  25.132   2.419
14695W        W85295  26.108  28.541  14.687
14696W        W85296  43.314  20.748  12.411
14697W        W85297  25.792  36.865  12.919
14698W        W85298  11.132  27.910   4.595
14699W        W85299  19.273  34.133   3.999
14700W        W85300  17.828  17.246   2.147
14701W        W85301  42.050  40.694   3.214
14702W        W85302  18.700  17.486  12.484
14703W        W85303  11.172  18.832  14.019
14704W        W85304  24.413  31.931   3.797
14705W        W85305  31.124  20.068  14.205
14706W        W85306  34.338  43.582  12.982
14707W        W85307  26.101   9.269   3.410
14708W        W85308  14.409  18.540  12.533
14709W        W85309  25.034  26.657  11.690
14710W        W85310   7.406  12.817   4.361
14711W        W85311  20.465  42.040   0.302
14712W        W85312  30.065   1.675  14.718
14713W        W85313  15.698  26.456  14.356
14714W        W85314  24.697  18.725   1.442
14715W        W85315  20.174   1.303   3.626
14716W        W85316   6.257  18.681   2.789
14717W        W85317  38.412  36.965   4.577
14718W        W85318  38.634  18.641   1.856
14719W        W85319  28.602  21.076   3.110
14720W        W85320   2.189  23.393   4.582
14721W        W85321  26.142  13.643   2.081
14722W        W85322   7.082  41.744  14.417
14723W        W85323  25.548  41.066  13.917
14724W        W85324   2.345  22.709  11.140
14725W        W85325  12.827  16.882   3.811
14726W        W85326  32.086  30.988  11.794
14727W        W85327   6.590  41.801   0.451
14728W        W85328   7.881   4.394   1.307
14729W        W85329   8.997  33.622  11.175
14730W        W85330   8.300  31.936  14.786
14731W        W85331  18.637  15.157   2.256
14732W        W85332  30.776  18.700  12.546
14733W        W85333   8.789  14.151   1.691
14734W        W85334  18.254  15.220  12.935
14735W        W85335  20.163  41.103   4.014
14736W        W85336  31.893  41.024  14.434
14737W        W85337  26.688  33.566  13.978
14738W        W85338  27.050  18.345   2.819
14739W        W85339  38.085   4.842  12.117
14740W        W85340  23.292  24.297  11.905
14741W        W85341  19.560  19.093  14.546
14742W        W85342  40.020   6.906   1.845
14743W        W85343  42.161  21.174   2.782
14744W        W85344  29.025  13.087  13.447
14745W        W85345  29.086  31.607   2.174
14746W        W85346  21.999  38.879   2.801
14747W        W85347  27.432  24.710  11.230
14748W        W85348  23.954  39.950   2.471
14749W        W85349   0.053  38.435   1.725
14750W        W85350   8.292  33.062   4.665
14751W        W85351  11.838  22.303   2.175
14752W        W85352  14.737  31.661   0.887
14753W        W85353   4.244  26.343  13.082
14754W        W85354  40.977  37.877  12.615
14755W        W85355   1.004  12.313  14.454
14756W        W85356  38.129  27.522   2.946
14757W        W85357  11.720  17.461  14.371
14758W        W85358  20.235  31.550  12.954
14759W        W85359  39.248  27.219  13.573
14760W        W85360  40.580  41.924   3.196
14761W        W85361  29.471   4.840  14.852
14762W        W85362   0.023   3.734   2.133
14763W        W85363  12.847  35.333   4.274
14764W        W85364   2.880  24.249  13.551
14765W        W85365  37.895   5.234  14.035
14766W        W85366  22.829  43.482  11.854
14767W        W85367  30.449   8.875   1.241
14768W        W85368  13.795  29.034   4.914
14769W        W85369   4.728  12.492   3.336
14770W        W85370   6.461   6.149   1.321
14771W        W85371  39.925  25.545   2.981
14772W        W85372  36.338  21.536  13.899
14773W        W85373  19.317  30.626  11.183
14774W        W85374  38.328  12.472   4.133
14775W        W85375  36.017  10.832   0.315
14776W        W85376  23.828  38.643   3.030
14777W        W85377  28.113  21.262   3.117
14778W        W85378  26.716   0.015   4.758
14779W        W85379  43.795  34.886   2.889
14780W        W85380   5.928  31.832   3.203
14781W        W85381  23.620  13.849   4.408
14782W        W85382  42.545  13.636   3.434
14783W        W85383  38.072  22.080  10.968
14784W        W85384  15.990  31.996  12.479
14785W        W85385   8.728  16.280   2.989
14786W        W85386  11.746  27.232  13.970
14787W        W85387   4.626   1.452  12.460
14788W        W85388  44.384   4.803   9.951
14789W        W85389  32.545  41.086   5.192
14790W        W85390  25.684  33.944   0.982
14791W        W85391   6.897  36.551  14.394
14792W        W85392   2.020  10.423  13.032
14793W        W85393  44.586  13.093   2.253
14794W        W85394  22.314   9.240   4.123
14795W        W85395  21.315  13.664   4.147
14796W        W85396  15.816  33.029  14.616
14797W        W85397   4.429  32.702  10.791
14798W        W85398  14.404  11.517  10.313
14799W        W85399   9.269  14.250  11.010
14800W        W85400  41.427  31.429   3.432
14801W        W85401  34.554   1.946  13.341
14802W        W85402   6.100  40.828   2.750
14803W        W85403  34.651   8.644  12.679
14804W        W85404  28.633  40.479  11.651
14805W        W85405   4.561  16.145   2.628
14806W        W85406  41.103   0.663   1.801
14807W        W85407   1.009  26.415   0.883
14808W        W85408  37.968  35.503  11.786
14809W        W85409  28.400  29.583  14.780
14810W        W85410  22.753  44.331   2.842
14811W        W85411   0.162   4.444   0.073
14812W        W85412  40.445  20.379   0.237
14813W        W85413  37.776  38.051   4.273
14814W        W85414   3.892  41.811  14.775
14815W        W85415  23.164  20.733  11.311
14816W        W85416   8.905   9.869  13.747
14817W        W85417  25.205  15.330  11.065
14818W        W85418  23.479  18.028   2.859
14819W        W85419  20.290  42.302   1.817
14820W        W85420  13.742   7.229   0.934
14821W        W85421   6.276  27.604  13.849
14822W        W85422  18.203  11.752  11.697
14823W        W85423  21.656  25.334   2.723
14824W        W85424  20.620  17.173  13.464
14825W        W85425   0.749  41.816   4.339
14826W        W85426  37.878  42.396   1.749
14827W        W85427  35.888  32.833  14.352
14828W        W85428   4.471  44.813   2.330
14829W        W85429  36.610  22.785  13.070
14830W        W85430  31.736   7.921   3.355
14831W        W85431  26.848   2.312  11.125
14832W        W85432  43.889  19.347  13.236
14833W        W85433  27.579  19.597  12.018
14834W        W85434  39.041  34.295  12.952
14835W        W85435  16.226  32.659  13.855
14836W        W85436  38.646   6.502   4.720
14837W        W85437  14.765   7.432   3.705
14838W        W85438   2.258  43.901   3.627
14839W        W85439   7.473  10.211   2.463
14840W        W85440   5.368  18.983  11.215
14841W        W85441  25.132  35.381  12.275
14842W        W85442  27.919  15.584   0.837
14843W        W85443  29.867  14.289   3.666
14844W        W85444  15.245  36.419  11.292
14845W        W85445   2.201   5.192   3.790
14846W        W85446  36.584  39.205  12.396
14847W        W85447  12.129  24.671  10.660
14848W        W85448  23.542  43.353  14.245
14849W        W85449   7.767  26.480  14.704
14850W        W85450  37.121  20.616  13.324
14851W        W85451   0.565  42.387   4.200
14852W        W85452  39.684  21.285   2.255
14853W        W85453  36.453  28.179   4.269
14854W        W85454  27.335  17.069   0.399
14855W        W85455  17.570  44.376  12.353
14856W        W85456  36.271  22.426   0.332
14857W        W85457  26.765  35.383  11.501
14858W        W85458  21.485  38.519   4.501
14859W        W85459  26.135  15.896  13.750
14860W        W85460  16.279  32.915   1.782
14861W        W85461  43.991  20.677   3.368
14862W        W85462   6.927  16.261  10.599
14863W        W85463   7.866  13.674  14.301
14864W        W85464  41.315  34.282   2.778
14865W        W85465   9.903  12.198  14.442
14866W        W85466  44.904  23.587   2.673
14867W        W85467  42.483  41.285  12.983
14868W        W85468  18.284   4.837  13.693
14869W        W85469  27.092  12.288  13.931
14870W        W85470  35.855  12.722   2.872
14871W        W85471  24.923   0.922   4.839
14872W        W85472  39.283  24.762  14.899
14873W        W85473  41.002  26.325  14.899
14874W        W85474  28.627   0.484  11.000
14875W        W85475  14.097  36.063  12.445
14876W        W85476  22.574  16.515  11.402
14877W        W85477  40.566   0.536  12.378
14878W        W85478  12.159  32.438  12.997
14879W        W85479   7.398  11.919   4.543
14880W        W85480  18.758   0.209   2.769
14881W        W85481  37.641   7.290  11.925
14882W        W85482   0.993   3.278   4.584
14883W        W85483  24.317  25.153   3.350
14884W        W85484  30.324   7.249   1.748
14885W        W85485  20.738  31.401  12.042
14886W        W85486   3.511  28.845  10.454
14887W        W85487  20.694   2.993   2.705
14888W        W85488  13.130  28.860   2.280
14889W        W85489   1.007  25.121  10.334
14890W        W85490   5.212  19.510  11.208
14891W        W85491  24.447  12.126   3.195
14892W        W85492  21.087  37.367  11.227
14893W        W85493  37.304  29.051   4.742
14894W        W85494   8.231  37.246   0.031
14895W        W85495  19.640  44.112   4.936
14896W        W85496  12.712  19.819   3.107
14897W        W85497  22.453  13.651  12.914
14898W        W85498   3.286  27.869  12.130
14899W        W85499  29.547   8.369  11.986
14900W        W85500  21.496  13.739   4.634
14901W        W85501  35.360  24.941  12.918
14902W        W85502  10.839   5.324  11.139
14903W        W85503   9.297  17.759  11.032
14904W        W85504  44.985   1.792   0.475
14905W        W85505  29.016  12.655  11.476
14906W        W85506  19.210  44.839  14.385
14907W        W85507  44.157   6.208   1.200
14908W        W85508  30.484  10.748   4.517
14909W        W85509  39.387  38.798  12.496
14910W        W85510   2.295   2.291  10.695
14911W        W85511  43.603  44.734   3.159
14912W        W85512  14.321  20.065   0.453
14913W        W85513   0.434   1.610  12.591
14914W        W85514  10.813  31.959   3.772
14915W        W85515  37.079  36.558   0.401
14916W        W85516  10.375  20.475  14.017
14917W        W85517  38.035  15.765  14.968
14918W        W85518  42.054   0.551   1.961
14919W        W85519   4.956  42.006  13.326
14920W        W85520   9.628  10.188  13.441
14921W        W85521  16.166  13.383   2.334
14922W        W85522  36.077  40.902  11.093
14923W        W85523  17.882  21.210   1.362
14924W        W85524  39.620   8.707   2.438
14925W        W85525   7.871  21.720  13.863
14926W        W85526   1.497  35.588   1.354
14927W        W85527  19.186  40.022   4.116
14928W        W85528   4.981  17.100   4.145
14929W        W85529  10.157  11.159  11.481
14930W        W85530  37.519  38.888  11.005
14931W        W85531  33.652  31.094   2.907
14932W        W85532  30.024  33.991   4.623
14933W        W85533  27.414  27.400  12.148
14934W        W85534  16.155  26.689  12.061
14935W        W85535   4.763  42.404  14.021
14936W        W85536  19.081  18.328  14.351
14937W        W85537   9.067  39.025  10.701
14938W        W85538  26.465   5.176   3.447
14939W        W85539   2.167  34.145  12.189
14940W        W85540  19.114  26.602  13.312
14941W        W85541   6.912   4.011   3.381
14942W        W85542  14.623   1.782   4.621
14943W        W85543  11.165   7.565  13.809
14944W        W85544   9.890  22.227   1.150
14945W        W85545  25.594  35.365   2.628
14946W        W85546  27.224   9.848  12.551
14947W        W85547  43.733  27.143  13.826
14948W        W85548  26.092   5.824  13.938
14949W        W85549  30.759   7.188   4.136
14950W        W85550  28.514  43.860   1.127
14951W        W85551   9.275   7.905  13.251
14952W        W85552   5.890  19.321  10.556
14953W        W85553   9.671  42.687  13.774
14954W        W85554  30.459  12.519   0.091
14955W        W85555  20.512  40.464   2.880
14956W        W85556  24.193  36.986   2.787
14957W        W85557  27.007  31.674   0.773
14958W        W85558  25.630   8.753   4.901
14959W        W85559  17.056   5.422   3.245
14960W        W85560  13.704   3.282  10.503
14961W        W85561   1.895  42.995  11.026
14962W        W85562  33.612  14.092  11.821
14963W        W85563  40.252  36.790  14.959
14964W        W85564  17.185  40.314   2.495
14965W        W85565  39.133  37.412  11.997
14966W        W85566  20.552  30.391  11.670
14967W        W85567  43.789  16.313  12.123
14968W        W85568  15.366  38.416   1.885
14969W        W85569   7.763  41.260   4.080
14970W        W85570  12.744  22.222  12.130
14971W        W85571  39.810   7.220  11.230
14972W        W85572  26.616  34.079   3.084
14973W        W85573   2.469  44.310   1.617
14974W        W85574  18.236  33.173   1.916
14975W        W85575   4.330  39.444  14.370
14976W        W85576  38.223   2.957   3.868
14977W        W85577  42.422  24.163   1.201
14978W        W85578  37.731  19.964  11.121
14979W        W85579  20.204  32.443   4.653
14980W        W85580   8.005  25.583  14.841
14981W        W85581  29.035  13.320  14.488
14982W        W85582  25.159   8.175   3.127
14983W        W85583  15.757   3.712   0.903
14984W        W85584   4.890  13.688  12.681
14985W        W85585  31.038  40.885  13.789
14986W        W85586  37.272  14.646   3.359
14987W        W85587  41.450  10.364  13.045
14988W        W85588  20.850  20.285   0.871
14989W        W85589  33.393  12.622   0.169
14990W        W85590   6.678   9.291  12.213
14991W        W85591  33.927   7.812  11.174
14992W        W85592  37.113   8.726   1.900
14993W        W85593   9.449  21.605  12.975
14994W        W85594  39.894   0.730  13.933
14995W        W85595  13.996   2.950   4.216
14996W        W85596  29.693  26.500   1.374
14997W        W85597  33.589  31.161   1.433
14998W        W85598   3.869  35.112   0.877
14999W        W85599   5.979  25.434   0.001
15000W        W85600  34.403  29.152   4.545
15001W        W85601  12.352  35.853   2.374
15002W        W85602   3.819   6.217   2.957
15003W        W85603   2.000   7.198   1.883
15004W        W85604  42.618  17.653   4.129
15005W        W85605  32.753  22.004   1.433
15006W        W85606  11.339  40.642  12.661
15007W        W85607  44.302  40.293   1.433
15008W        W85608  17.632  22.513   1.834
15009W        W85609  18.284  15.695  13.147
15010W        W85610   6.842  44.763   3.234
15011W        W85611   4.869  36.454   3.518
15012W        W85612  14.046  41.518   5.446
15013W        W85613  41.531  15.978   3.161
15014W        W85614   6.736   2.962  10.834
15015W        W85615  14.449  16.463   1.698
15016W        W85616  44.644  36.962   1.367
15017W        W85617  37.816  43.561  13.299
15018W        W85618  40.309   3.798  14.434
15019W        W85619  34.326  15.370  11.200
15020W        W85620  31.115  28.887  11.096
15021W        W85621  23.731  25.559  12.348
15022W        W85622  12.727  13.391   3.192
15023W        W85623  22.004  15.495   3.629
15024W        W85624  14.048  44.838  14.351
15025W        W85625  30.919  30.232   1.224
15026W        W85626  39.524  19.707  12.140
15027W        W85627  20.250  17.548  14.305
15028W        W85628  16.314  41.802  10.612
15029W        W85629  40.523  28.213  14.085
15030W        W85630  21.826  25.220  11.119
15031W        W85631  42.270  25.899  11.012
15032W        W85632  37.365   5.834  12.568
15033W        W85633  44.693  24.238   2.369
15034W        W85634  35.599  39.062   1.602
15035W        W85635  27.225  36.950   4.251
15036W        W85636  40.470  18.369  10.894
15037W        W85637   5.703  16.614  14.076
15038W        W85638   2.276   9.887  11.023
15039W        W85639  10.759  34.648  14.312
15040W        W85640  16.972   7.319  11.637
15041W        W85641  18.381   0.421   0.739
15042W        W85642  39.065  21.624   0.357
15043W        W85643  15.530   6.460  10.493
15044W        W85644  43.051  19.802  12.869
15045W        W85645  35.522  17.638  14.771
15046W        W85646   9.169  21.069   1.374
15047W        W85647  40.789  29.545  10.625
15048W        W85648  39.018  14.335  12.604
15049W        W85649  23.271  17.293  13.851
15050W        W85650  35.390   6.445   4.841
15051W        W85651   6.426  25.425   2.989
15052W        W85652   1.208   3.799  11.598
15053W        W85653  44.038   8.406   3.707
15054W        W85654   1.927  34.118  12.968
15055W        W85655   7.427  28.396  13.258
15056W        W85656   0.951  35.007   0.230
15057W        W85657   8.400  14.084   2.286
15058W        W85658  27.139   8.465  10.958
15059W        W85659  20.023   1.069   4.247
15060W        W85660   3.056  33.571  11.416
15061W        W85661  15.144  25.841   4.056
15062W        W85662   8.578  43.491  12.963
15063W        W85663  32.591  12.124   3.896
15064W        W85664  10.727   2.399  12.470
15065W        W85665  29.064   8.144  14.006
15066W        W85666  19.653  32.711  13.896
15067W        W85667   5.264   8.374  13.463
15068W        W85668  35.391  23.147  11.289
15069W        W85669  38.935  13.903  12.049
15070W        W85670   2.187  14.121  11.236
15071W        W85671  30.958  34.105  11.975
15072W        W85672  41.441  43.402   1.262
15073W        W85673   7.831  11.114  11.977
15074W        W85674   5.640  19.591  10.940
15075W        W85675  43.302  35.975   2.205
15076W        W85676  44.507  31.157   3.916
15077W        W85677  28.125  31.975  11.023
15078W        W85678   6.816  27.489   3.172
15079W        W85679   8.420  34.888   0.822
15080W        W85680  12.313  42.369  13.614
15081W        W85681  22.329  13.039  11.414
15082W        W85682  40.962  22.052  14.743
15083W        W85683   3.960  42.493  14.484
15084W        W85684  21.521   1.445  13.126
15085W        W85685  24.208  18.989   3.833
15086W        W85686  19.715   1.245   3.868
15087W        W85687  32.695  15.741  14.375
15088W        W85688  23.045  43.373   4.580
15089W        W85689  30.494  11.320  13.058
15090W        W85690  25.107   1.274  13.424
15091W        W85691  43.974   7.782   3.738
15092W        W85692  40.479  31.628   1.266
15093W        W85693  26.983  42.310   4.194
15094W        W85694  19.121  37.633   0.958
15095W        W85695  36.453  20.672  11.609
15096W        W85696  27.383   4.137   3.918
15097W        W85697  21.509   0.248   0.713
15098W        W85698  24.622  18.728   3.968
15099W        W85699  25.227  41.364   3.838
15100W        W85700  41.916  42.705  13.576
15101W        W85701   3.968  22.179   4.614
15102W        W85702  40.403  22.335  14.706
15103W        W85703   2.897   0.983  10.453
15104W        W85704   3.840   0.251  11.478
15105W        W85705   1.489  13.741   3.231
15106W        W85706  28.563  28.152   3.723
15107W        W85707  41.514   0.174  10.542
15108W        W85708  19.128  30.367   2.278
15109W        W85709   1.961  37.506  14.027
15110W        W85710  31.405  22.513   2.486
15111W        W85711  20.817  40.973  14.404
15112W        W85712  31.875  23.638  11.149
15113W        W85713   7.694  10.599   2.205
15114W        W85714  23.231  40.535  13.445
15115W        W85715  30.335   9.517   2.230
15116W        W85716  43.298  25.082  13.854
15117W        W85717  23.083  26.506  12.869
15118W        W85718   8.411  32.913  14.887
15119W        W85719  42.291  17.381  14.802
15120W        W85720   3.730  38.592   4.123
15121W        W85721  12.177  28.106  13.491
15122W        W85722   5.378   0.159   2.070
15123W        W85723  42.892  40.969  13.762
15124W        W85724   6.701  19.685   0.834
15125W        W85725  10.066   3.862  14.475
15126W        W85726   6.837  23.756   0.269
15127W        W85727  28.724  10.627  12.943
15128W        W85728  34.975   2.064  12.319
15129W        W85729  33.958  21.977   3.181
15130W        W85730  11.088   3.167  13.337
15131W        W85731   1.414  28.189   0.753
15132W        W85732  27.177  27.294  10.649
15133W        W85733  37.802  10.789  12.103
15134W        W85734   3.330  23.772   4.310
15135W        W85735  10.173   5.607  13.309
15136W        W85736  14.115  32.641  14.515
15137W        W85737  29.550  17.221   2.971
15138W        W85738   4.712  28.880  13.948
15139W        W85739  41.988  30.515   0.904
15140W        W85740   1.811   8.751  14.902
15141W        W85741  21.776   1.441   3.350
15142W        W85742   6.184  14.803  12.015
15143W        W85743  12.102  10.049  11.115
15144W        W85744  44.479  40.726  10.693
15145W        W85745  14.808  12.746  14.277
15146W        W85746  14.644   9.433   0.673
15147W        W85747  16.759  34.885  10.909
15148W        W85748  32.914  26.694   4.115
15149W        W85749   5.467  23.472   0.883
15150W        W85750  40.875   1.936  11.847
15151W        W85751   2.451  23.936   4.856
15152W        W85752  27.144   6.771   3.670
15153W        W85753   7.998   2.696  13.305
15154W        W85754  21.296  28.993   2.134
15155W        W85755  25.681  20.530  10.620
15156W        W85756  41.252  31.876   4.138
15157W        W85757  43.348  34.923   4.096
15158W        W85758  41.899  11.202   0.229
15159W        W85759  28.538   5.342  12.868
15160W        W85760  25.650  19.602  10.492
15161W        W85761   7.795  36.510   4.045
15162W        W85762  14.272   2.735   0.313
15163W        W85763   5.149  35.559  14.905
15164W        W85764   0.331   1.773  11.732
15165W        W85765  30.953  42.966   4.205
15166W        W85766   6.106  44.123  11.494
15167W        W85767  43.741  19.421   1.266
15168W        W85768  41.863  13.561   4.660
15169W        W85769  37.484  33.623  14.765
15170W        W85770   0.059  38.566   4.171
15171W        W85771  13.143  12.987   1.430
15172W        W85772  31.890   7.710  12.031
15173W        W85773   3.675   1.981  14.485
15174W        W85774  27.918  17.547  12.361
15175W        W85775  41.292  12.913   0.834
15176W        W85776   0.022   2.711  13.854
15177W        W85777  11.319  34.627   3.450
15178W        W85778  26.134  22.511   3.762
15179W        W85779  41.857   6.312   0.937
15180W        W85780   4.794  34.932   4.108
15181W        W85781  12.015  21.096   2.314
15182W        W85782  26.980  28.463  14.877
15183W        W85783  19.087   8.754  12.530
15184W        W85784  14.415   8.350   2.833
15185W        W85785  18.116  20.477   4.831
15186W        W85786   3.347   9.343  10.743
15187W        W85787  12.365  32.935  11.137
15188W        W85788   3.385  41.341   3.426
15189W        W85789  29.517  38.917  10.167
15190W        W85790  34.134   0.418   3.406
15191W        W85791  14.575  12.817  12.454
15192W        W85792  38.260  28.164   1.242
15193W        W85793  42.114   3.649   4.944
15194W        W85794  16.569   3.270   0.763
15195W        W85795   3.997  35.852   4.925
15196W        W85796   0.979  42.065  12.907
15197W        W85797   4.327  44.353  11.415
15198W        W85798  17.436  27.992  11.089
15199W        W85799  25.657  13.858   1.930
15200W        W85800  29.137  34.746   0.712
15201W        W85801  18.658  35.814   4.552
15202W        W85802  23.222   8.019  13.355
15203W        W85803  32.737  23.020   3.452
15204W        W85804  12.846  23.587   2.425
15205W        W85805  12.981  23.696   3.667
15206W        W85806  25.808   3.310   2.621
15207W        W85807   2.885   1.695   2.822
15208W        W85808   3.770  36.358  12.362
15209W        W85809  11.058   4.392  12.235
15210W        W85810  31.049  37.014  13.844
15211W        W85811  12.244  18.322  14.515
15212W        W85812  11.099  32.492   0.836
15213W        W85813  29.071  42.650  11.214
15214W        W85814  29.469  39.993  11.234
15215W        W85815  37.498  10.439   4.556
15216W        W85816   4.948   9.384   3.894
15217W        W85817  44.896  26.975  12.477
15218W        W85818  20.935   9.728  14.286
15219W        W85819  13.800  24.261  13.371
15220W        W85820  22.481  41.912   2.293
15221W        W85821  41.489  44.756  12.050
15222W        W85822   2.727  36.678   4.264
15223W        W85823  28.432   7.242   3.787
15224W        W85824  44.826  10.627   2.862
15225W        W85825  21.087  27.465   2.711
15226W        W85826   5.946  14.616   4.100
15227W        W85827  24.726   7.771   1.304
15228W        W85828  41.412  28.520  14.245
15229W        W85829   7.402  18.199   1.898
15230W        W85830  44.472   3.915  11.206
15231W        W85831   9.726  42.045   3.240
15232W        W85832  36.816  13.715  11.212
15233W        W85833  32.552  43.645   2.265
15234W        W85834  29.343  21.225  14.123
15235W        W85835  12.380  11.416   0.761
15236W        W85836   6.116  44.756   1.555
15237W        W85837   9.804   8.453   4.653
15238W        W85838  21.709  22.837  11.768
15239W        W85839   2.647  20.876   4.121
15240W        W85840  23.859  23.725   1.261
15241W        W85841   6.413  29.950  12.589
15242W        W85842  16.670  32.081  14.934
15243W        W85843  42.901  24.676   0.859
15244W        W85844  19.064  28.758  12.521
15245W        W85845  12.376  12.345  10.764
15246W        W85846  17.316   8.703   5.234
15247W        W85847  23.267  30.231  14.471
15248W        W85848   7.886   8.934   2.810
15249W        W85849  12.654  32.315  10.675
15250W        W85850  28.760  29.945   0.873
15251W        W85851  27.628  27.039   1.729
15252W        W85852   0.422  43.749  13.745
15253W        W85853  10.622  41.980  11.775
15254W        W85854  27.426  34.463  10.754
15255W        W85855  42.411  41.984   2.248
15256W        W85856   1.401  28.634  12.658
15257W        W85857   7.828  43.573  13.407
15258W        W85858  11.263   8.675   1.460
15259W        W85859  20.158  24.135   4.146
15260W        W85860  25.811   2.013   1.282
15261W        W85861   4.954  22.094   0.177
15262W        W85862   0.360  14.196  11.130
15263W        W85863  27.444  44.032   2.301
15264W        W85864  16.912  18.974  14.076
15265W        W85865  19.526  39.965   9.935
15266W        W85866   4.293  24.073   2.353
15267W        W85867  40.394  23.986  14.230
15268W        W85868  27.668  34.948   3.900
15269W        W85869  18.597  42.699  14.354
15270W        W85870  31.101  34.501  11.573
15271W        W85871  25.255  16.691   4.798
15272W        W85872  26.740  10.596  12.447
15273W        W85873   3.984  29.470  14.090
15274W        W85874  11.481   6.409  13.083
15275W        W85875   9.645  20.452  12.444
15276W        W85876  11.840   7.721   0.489
15277W        W85877  42.047  27.685  12.405
15278W        W85878  18.757  41.835   4.623
15279W        W85879  39.836   6.718   1.355
15280W        W85880  29.617  40.468  12.517
15281W        W85881  43.846  43.312  14.421
15282W        W85882  32.622   2.507  14.921
15283W        W85883  28.226  36.623  10.600
15284W        W85884  42.923  11.357   0.795
15285W        W85885  36.932  37.294  12.560
15286W        W85886  35.442  29.626   4.628
15287W        W85887  18.007   7.296   0.497
15288W        W85888   1.034   0.731   3.848
15289W        W85889  40.776  10.198  14.729
15290W        W85890  25.889  20.105   3.153
15291W        W85891   6.200   1.778  10.757
15292W        W85892  15.257  21.194  10.679
15293W        W85893  24.703  22.076   3.075
15294W        W85894   0.968  33.035   2.921
15295W        W85895  12.045  42.314  10.590
15296W        W85896  38.003  17.829  12.379
15297W        W85897  44.610  34.366  10.350
15298W        W85898   9.821  22.970  11.469
15299W        W85899  35.081   1.768   0.676
15300W        W85900  44.322  42.102   0.977
15301W        W85901   7.946  37.427  10.060
15302W        W85902  23.122  43.437   3.631
15303W        W85903  34.283  36.567   4.849
15304W        W85904  20.128  27.974  12.645
15305W        W85905  41.572   8.414   0.875
15306W        W85906  18.730  20.793   4.548
15307W        W85907   1.442  20.759  12.041
15308W        W85908  25.818   1.019   0.472
15309W        W85909  27.500  17.814  12.528
15310W        W85910  11.823  28.176   3.262
15311W        W85911  26.552  33.400  11.688
15312W        W85912   4.365   8.435  10.533
15313W        W85913   4.240   9.153  11.221
15314W        W85914  10.172  39.179  11.650
15315W        W85915  44.203  15.782   2.766
15316W        W85916  34.011  25.792  11.607
15317W        W85917  41.037  18.055  12.532
15318W        W85918   7.729  19.500  12.463
15319W        W85919   1.439  39.405   0.434
15320W        W85920  22.670  15.503   4.100
15321W        W85921  29.774  38.204  14.401
15322W        W85922   8.236  31.030   1.863
15323W        W85923  26.406  35.605  13.043
15324W        W85924  14.289  29.386  10.775
15325W        W85925  36.624  12.150  13.095
15326W        W85926   8.294  19.347  10.725
15327W        W85927  26.577  37.565  14.830
15328W        W85928  26.553  44.404   0.937
15329W        W85929  18.623  10.828  10.738
15330W        W85930  22.092   8.391  10.550
15331W        W85931  36.619  26.750  14.220
15332W        W85932  31.168  42.530   4.999
15333W        W85933  16.057  11.415   3.752
15334W        W85934  12.914  34.154  11.607
15335W        W85935  21.610   4.693  14.390
15336W        W85936   7.181  38.991  13.076
15337W        W85937  24.230  35.489  11.976
15338W        W85938  14.422   0.595  14.532
15339W        W85939  27.955   6.776  13.419
15340W        W85940  38.402  34.456   3.939
15341W        W85941  19.839  41.302   4.697
15342W        W85942  27.633  26.521   4.457
15343W        W85943  18.072  42.137  13.115
15344W        W85944  25.802   9.090  10.080
15345W        W85945  32.450  35.159  11.064
15346W        W85946  22.764  21.020   5.084
15347W        W85947  42.890  28.842  14.311
15348W        W85948  38.798  37.507   2.334
15349W        W85949  43.793   5.212   3.092
15350W        W85950  37.933  19.578   0.154
15351W        W85951   3.302  41.014   0.354
15352W        W85952  13.768  44.185  10.651
15353W        W85953  43.282  36.884  13.938
15354W        W85954  30.064  34.294  13.527
15355W        W85955  21.903   2.365  12.865
15356W        W85956  22.057   3.867   1.289
15357W        W85957  13.731  44.937   4.507
15358W        W85958  36.784  21.117   3.566
15359W        W85959  40.393  32.285  14.004
15360W        W85960  28.644   7.671   4.092
15361W        W85961  26.230  23.978   2.713
15362W        W85962  16.299  34.065  11.316
15363W        W85963  23.444  28.460   1.264
15364W        W85964  15.579   2.727   3.162
15365W        W85965  15.639  28.889   1.438
15366W        W85966  41.093  16.173   2.266
15367W        W85967  17.996   4.313   2.769
15368W        W85968  25.226  41.971   1.642
15369W        W85969  19.554  28.603   0.301
15370W        W85970  25.932   2.453   1.069
15371W        W85971  11.342   1.992   4.625
15372W        W85972   9.192  33.501  11.638
15373W        W85973  22.797  20.299  14.382
15374W        W85974  44.987  37.475   2.319
15375W        W85975   7.359  31.757  14.104
15376W        W85976  24.022  10.835   2.689
15377W        W85977  29.216  32.637  12.270
15378W        W85978  27.019  17.621  12.438
15379W        W85979  39.103  18.623  14.495
15380W        W85980  42.321  20.452   2.292
15381W        W85981  14.237  15.308  12.745
15382W        W85982  11.178  10.496  12.178
15383W        W85983  22.127   2.294   4.523
15384W        W85984  15.607  14.730   2.622
15385W        W85985  15.020  41.063  13.179
15386W        W85986  14.639  28.895   0.394
15387W        W85987   5.828  39.267   1.442
15388W        W85988  29.927  16.598   1.888
15389W        W85989  16.691  38.835  12.312
15390W        W85990  26.394  26.726   1.469
15391W        W85991  13.793  41.997   0.648
15392W        W85992  24.296  36.555   4.738
15393W        W85993  36.768  30.173   1.827
15394W        W85994  38.347  44.673  14.935
15395W        W85995  10.096  35.099   3.117
15396W        W85996  28.132  11.438  10.327
15397W        W85997  26.040  38.872   9.973
15398W        W85998  28.650  41.062   0.997
15399W        W85999  33.437  11.236   2.646
15400W        W86000   7.083  14.684  14.998
15401W        W86001   2.835   9.056  13.919
15402W        W86002  19.275   2.043  11.298
15403W        W86003  32.666  44.986   1.164
15404W        W86004  35.628  43.545   0.466
15405W        W86005  17.791   8.192   4.517
15406W        W86006  38.084  35.856  11.426
15407W        W86007  25.625  33.968   2.970
15408W        W86008  29.194  40.519   0.496
15409W        W86009   9.207  12.162  13.983
15410W        W86010  18.506   4.472   3.793
15411W        W86011  44.955  17.051   4.475
15412W        W86012   8.782  42.296   1.733
15413W        W86013   0.195   0.295   3.678
15414W        W86014  27.450   1.344   2.669
15415W        W86015   1.648   2.707   1.705
15416W        W86016  14.314   5.757   0.316
15417W        W86017  28.480   8.751   0.288
15418W        W86018  11.088  38.553  13.938
15419W        W86019  33.122  43.256  11.388
15420W        W86020  17.750  13.725  14.045
15421W        W86021  26.988  44.345  12.873
15422W        W86022  31.137  30.844  13.412
15423W        W86023  20.547  11.583   4.639
15424W        W86024  31.757  26.772  10.944
15425W        W86025   0.952  33.702  14.075
15426W        W86026  18.601  11.094   3.766
15427W        W86027  36.832   0.517  10.537
15428W        W86028  13.808  19.976   0.749
15429W        W86029   7.943  29.387  13.819
15430W        W86030  41.830  21.758  10.738
15431W        W86031  32.686  34.002   2.809
15432W        W86032  17.587  40.282  12.741
15433W        W86033  39.969  38.441  12.869
15434W        W86034  15.174   4.834  10.346
15435W        W86035  10.222  19.933  14.973
15436W        W86036  25.105  42.066  11.737
15437W        W86037  31.513  27.953   4.170
15438W        W86038  25.374   4.174  14.091
15439W        W86039  29.468  26.326   5.010
15440W        W86040  31.582  31.257  14.937
15441W        W86041  18.073   7.159  14.990
15442W        W86042  19.691  26.973   3.549
15443W        W86043   9.235   9.549   3.279
15444W        W86044  31.152  23.118  13.141
15445W        W86045   5.946   1.928  14.980
15446W        W86046  25.451  18.628  13.744
15447W        W86047  17.842  39.334   1.973
15448W        W86048  40.965   6.953   5.079
15449W        W86049  26.546  38.011   1.888
15450W        W86050   2.748  17.699  10.694
15451W        W86051  25.248  41.746   0.014
15452W        W86052  12.222   5.591   4.549
15453W        W86053  16.884  43.346  13.850
15454W        W86054   3.256  39.710   0.906
15455W        W86055  40.493  24.163   0.446
15456W        W86056  16.529  16.182   3.624
15457W        W86057   0.877  10.835  13.534
15458W        W86058  12.324  22.732  13.587
15459W        W86059  22.127  23.161   0.629
15460W        W86060  30.871  43.757  12.369
15461W        W86061  10.102  20.686  14.402
15462W        W86062  12.178   2.716  11.620
15463W        W86063  18.619  23.443   1.815
15464W        W86064  12.100  40.362   2.738
15465W        W86065  14.193   1.883  12.070
15466W        W86066   7.793  29.137   3.839
15467W        W86067  12.793  16.229  11.622
15468W        W86068  29.447  14.064  13.029
15469W        W86069  18.791  27.929  13.306
15470W        W86070  38.500  14.751   0.196
15471W        W86071  18.398   6.442  11.106
15472W        W86072  24.706   9.167   1.430
15473W        W86073   9.745  11.335   2.247
15474W        W86074  24.458  26.128   0.396
15475W        W86075  28.628   3.221   3.728
15476W        W86076   5.619  32.979  10.243
15477W        W86077  39.262   5.791  11.151
15478W        W86078  37.196   3.227  12.048
15479W        W86079  11.569  34.922   1.275
15480W        W86080  31.131   6.242  11.295
15481W        W86081  43.993  28.500  12.657
15482W        W86082  41.773  16.751   0.469
15483W        W86083  34.592  42.609   0.926
15484W        W86084  34.820  15.435   4.962
15485W        W86085  10.826  21.164   1.661
15486W        W86086  44.152   4.408   3.821
15487W        W86087  27.875  11.704   4.262
15488W        W86088  30.075  22.491   3.535
15489W        W86089  16.329  38.060  12.997
15490W        W86090  34.052  22.553  11.668
15491W        W86091  20.546  40.966  10.670
15492W        W86092  41.561  25.598   2.346
15493W        W86093   7.966  43.926   2.217
15494W        W86094  26.472  23.548   4.875
15495W        W86095  10.323  37.570   4.430
15496W        W86096  14.969   6.012   3.769
15497W        W86097  44.646   9.315  12.865
15498W        W86098  22.544  33.021  12.429
15499W        W86099  16.172  33.096  12.904
15500W        W86100  42.685  14.789   4.620
15501W        W86101  40.945  26.424   3.353
15502W        W86102  24.679  27.417  13.995
15503W        W86103   3.909  21.470   4.125
15504W        W86104   6.156  22.710   3.315
15505W        W86105  23.992  41.611   4.280
15506W        W86106  36.947  16.722   3.618
15507W        W86107  15.886  33.342   0.695
15508W        W86108  40.771  31.825   0.861
15509W        W86109  23.587  29.141   0.143
15510W        W86110  39.459  30.916  12.993
15511W        W86111  37.590  24.638  12.164
15512W        W86112  29.601   8.217  13.559
15513W        W86113  10.649  11.298   0.938
15514W        W86114  35.191   2.490  12.716
15515W        W86115   4.442   4.967  12.044
15516W        W86116  22.077  13.217   3.204
15517W        W86117  19.218   2.941  11.562
15518W        W86118  33.653   1.590   2.799
15519W        W86119  10.514  37.366   1.910
15520W        W86120   4.288  33.468   2.367
15521W        W86121  44.621   6.351   4.417
15522W        W86122  13.135  14.648   3.186
15523W        W86123  14.177  30.578   3.477
15524W        W86124  28.352  16.325  13.886
15525W        W86125  16.539  24.635  14.256
15526W        W86126  12.043  32.177   1.749
15527W        W86127  37.206  31.878   3.684
15528W        W86128  25.213  36.430   0.935
15529W        W86129   3.930  32.807   0.791
15530W        W86130  34.606  43.940   0.478
15531W        W86131  36.619  28.489   3.786
15532W        W86132   9.617  19.468  10.389
15533W        W86133  15.546  38.305   0.144
15534W        W86134  38.938  26.168  10.526
15535W        W86135  35.485  13.242   0.325
15536W        W86136  22.108  30.472   2.231
15537W        W86137  44.069   0.361   2.593
15538W        W86138  40.877  27.701  13.365
15539W        W86139  31.498  30.749   0.009
15540W        W86140  42.911   4.389  11.724
15541W        W86141  43.034  28.932   0.331
15542W        W86142   5.939  15.325   4.604
15543W        W86143  15.602  20.783   3.222
15544W        W86144   4.690  15.329  10.739
15545W        W86145  43.931  28.642   4.566
15546W        W86146  38.285  30.684  11.145
15547W        W86147   6.217   7.201   4.266
15548W        W86148   6.397   4.487  13.370
15549W        W86149  28.538  14.760   2.685
15550W        W86150  10.590  37.413  11.522
15551W        W86151  28.587   9.690  12.784
15552W        W86152  43.779  25.230   1.746
15553W        W86153  11.234   4.327  13.657
15554W        W86154  27.167   1.915   3.655
15555W        W86155  40.272   1.199   1.360
15556W        W86156  38.139   0.071  11.679
15557W        W86157  41.061   3.846  11.536
15558W        W86158  44.074   6.270  14.254
15559W        W86159  43.190  39.450   3.966
15560W        W86160  35.551   5.429  13.436
15561W        W86161  40.085  21.952  11.210
15562W        W86162  37.027  32.376   1.370
15563W        W86163  10.231  43.439  13.964
15564W        W86164  20.772  35.074  10.664
15565W        W86165  43.526   4.723  14.229
15566W        W86166  20.347  33.571   4.340
15567W        W86167  11.766  13.183  11.736
15568W        W86168  22.114  44.401  14.835
15569W        W86169  27.948  11.180  11.192
15570W        W86170   8.744  33.740  11.621
15571W        W86171   3.961  31.253  14.350
15572W        W86172  28.822  14.112   2.668
15573W        W86173   8.324  15.061   4.391
15574W        W86174  29.073  39.343  14.415
15575W        W86175   5.004  35.871  11.312
15576W        W86176   9.627   0.872  13.540
15577W        W86177  21.802  42.372   4.328
15578W        W86178  24.854  30.727   1.629
15579W        W86179  22.308  40.367   0.831
15580W        W86180  34.825  37.291   4.934
15581W        W86181  19.687   5.603   1.309
15582W        W86182  11.723  21.408   0.356
15583W        W86183  44.323  25.503  12.906
15584W        W86184   7.838  20.195   0.506
15585W        W86185  42.049  32.418  13.780
15586W        W86186  20.573  27.066  14.994
15587W        W86187  33.296  35.106  12.280
15588W        W86188   1.224  36.559   1.881
15589W        W86189  44.306  20.338   0.411
15590W        W86190   0.011  35.961   2.060
15591W        W86191   3.613   0.735  11.562
15592W        W86192  10.627  39.397   2.576
15593W        W86193  25.126  32.105   2.885
15594W        W86194  11.379  10.923  12.390
15595W        W86195  18.754  35.831  12.891
15596W        W86196  19.765  17.695  12.060
15597W        W86197  38.538  18.311   2.861
15598W        W86198  14.787  26.963  14.443
15599W        W86199   1.338   9.844  10.935
15600W        W86200  20.994  18.990  12.274
15601W        W86201   4.790  26.381   2.336
15602W        W86202  26.668   6.646   0.794
15603W        W86203  40.023  42.550  13.023
15604W        W86204  41.144   8.513  10.225
15605W        W86205  20.601   4.139   4.815
15606W        W86206  27.804  23.335   0.340
15607W        W86207  35.963   5.215  11.638
15608W        W86208  28.572  34.917  10.911
15609W        W86209  11.157  15.879   5.103
15610W        W86210  13.560  30.332   1.678
15611W        W86211   8.314  33.156  11.159
15612W        W86212  23.925   8.526   3.613
15613W        W86213  11.947  11.349   1.041
15614W        W86214  30.050  36.012  13.798
15615W        W86215  11.710  33.389  11.832
15616W        W86216  19.937  18.727  14.852
15617W        W86217  34.300  14.233   1.359
15618W        W86218  19.353  19.185   1.307
15619W        W86219  25.527  33.807  12.357
15620W        W86220  14.382   0.893   3.809
15621W        W86221   8.846  25.162  10.697
15622W        W86222  13.195  12.817  12.748
15623W        W86223  36.056   0.887  14.238
15624W        W86224  14.907   3.206  12.502
15625W        W86225   6.133  17.757  11.163
15626W        W86226  26.428   1.043   1.021
15627W        W86227  11.611  12.707  14.496
15628W        W86228   8.193  33.972   0.358
15629W        W86229   9.026  27.895   0.378
15630W        W86230  24.171  37.890  12.041
15631W        W86231   0.840  32.369  11.998
15632W        W86232  37.539  13.282   0.607
15633W        W86233   9.382  41.892  13.907
15634W        W86234  23.796   5.224  13.334
15635W        W86235  32.317  44.683  14.404
15636W        W86236   1.704   8.794   1.446
15637W        W86237  35.486  20.268  11.942
15638W        W86238  19.603  24.297   3.653
15639W        W86239  17.236  11.353  11.180
15640W        W86240  13.800  27.185   0.367
15641W        W86241  22.228   5.228   4.134
15642W        W86242  10.780  37.060  11.210
15643W        W86243  42.772  42.769  14.108
15644W        W86244   5.308  25.616  10.903
15645W        W86245  13.727  39.121  11.243
15646W        W86246   5.752  15.261   2.171
15647W        W86247  27.620   3.760   3.663
15648W        W86248  10.265  33.566  14.015
15649W        W86249  10.349   3.909  12.591
15650W        W86250  22.054  42.938   1.209
15651W        W86251  33.642  10.336   0.267
15652W        W86252   1.793  13.426   2.281
15653W        W86253  20.099  24.685   2.233
15654W        W86254   2.777  24.716  14.802
15655W        W86255  29.864  17.675   0.088
15656W        W86256  33.807  19.689   5.109
15657W        W86257   6.326   0.202  12.438
15658W        W86258   6.830  32.663  12.138
15659W        W86259   3.380  25.614   2.099
15660W        W86260  39.574   7.084   1.619
15661W        W86261  15.062  20.537  12.011
15662W        W86262  16.044  31.216  10.724
15663W        W86263  12.115  27.922  11.145
15664W        W86264  28.736  15.037   2.192
15665W        W86265  39.632  25.004   2.352
15666W        W86266   9.663  25.162  11.076
15667W        W86267   2.958  26.305  12.816
15668W        W86268  37.526  37.429   4.585
15669W        W86269   4.770  44.925   2.749
15670W        W86270  11.266  25.084  14.710
15671W        W86271  18.794  11.591   5.256
15672W        W86272  33.989  29.491   4.388
15673W        W86273  17.730  12.132   2.515
15674W        W86274  35.701  16.123   2.783
15675W        W86275  17.524  30.381   4.329
15676W        W86276  36.892  17.351   2.127
15677W        W86277  26.307  37.848   3.792
15678W        W86278  14.578  44.995  11.228
15679W        W86279  37.824  12.345  12.458
15680W        W86280  28.516   0.438   2.959
15681W        W86281  19.775   8.460   0.255
15682W        W86282   2.756   3.430  10.997
15683W        W86283  30.566  30.962   2.395
15684W        W86284  42.025  29.184  11.846
15685W        W86285  17.533  20.386  11.637
15686W        W86286  28.098  33.488   3.731
15687W        W86287  41.430  21.757  10.326
15688W        W86288  34.388  33.055   4.802
15689W        W86289   4.458  37.344   1.030
15690W        W86290  34.429  34.737  13.113
15691W        W86291   8.099  38.036  13.657
15692W        W86292  44.027  31.743  14.789
15693W        W86293   8.767  14.254  11.184
15694W        W86294  36.316  15.172  14.112
15695W        W86295  37.125   7.290   1.223
15696W        W86296  35.718   2.424   0.795
15697W        W86297  37.346  16.224  11.619
15698W        W86298  34.153  27.894   2.723
15699W        W86299  29.968   8.142  12.959
15700W        W86300  34.363   6.911   4.573
15701W        W86301   3.564  15.603   9.819
15702W        W86302   7.186  18.557   2.192
15703W        W86303  39.537  30.020   1.300
15704W        W86304   5.158  36.115   3.749
15705W        W86305  10.163   1.878  11.198
15706W        W86306   4.222   0.270  11.854
15707W        W86307  30.898   2.848  13.389
15708W        W86308   3.807  19.533   2.758
15709W        W86309  34.233   2.638   4.114
15710W        W86310  26.103  19.740  12.797
15711W        W86311  44.524  12.105   4.173
15712W        W86312  17.354  35.988   2.124
15713W        W86313  27.004  29.653  10.606
15714W        W86314  39.083   6.368   0.394
15715W        W86315   1.299  17.246  14.465
15716W        W86316  15.164  12.194   2.866
15717W        W86317  29.564  17.860  12.493
15718W        W86318  37.941  16.035   1.311
15719W        W86319   4.202  17.551  11.649
15720W        W86320   8.667   0.296  13.033
15721W        W86321   8.859  26.243  12.414
15722W        W86322  44.368  11.885  14.027
15723W        W86323  35.929  16.534   1.880
15724W        W86324  38.896  24.882   1.046
15725W        W86325  15.688  33.631  13.463
15726W        W86326  30.579  31.708   3.706
15727W        W86327  17.328  37.527  10.254
15728W        W86328   5.416  10.612   4.121
15729W        W86329  32.039  17.575   2.769
15730W        W86330  41.941  19.088   3.491
15731W        W86331  27.882  39.878  11.563
15732W        W86332   8.648  30.220  13.883
15733W        W86333   7.247  17.208   4.455
15734W        W86334  38.210  30.180   0.324
15735W        W86335  17.520  23.014   1.798
15736W        W86336   9.072  19.123   4.181
15737W        W86337  39.730   2.476  14.859
15738W        W86338   0.720  31.612  14.842
15739W        W86339  16.144  37.377   2.777
15740W        W86340  43.527  16.643  12.498
15741W        W86341   8.601  40.797  13.454
15742W        W86342  29.608  16.265  12.105
15743W        W86343  14.504   5.185  14.336
15744W        W86344  10.809   5.731   4.133
15745W        W86345  22.798   5.955  11.981
15746W        W86346  15.237  32.325  14.754
15747W        W86347  26.463  42.953  11.977
15748W        W86348   1.288   3.705   0.805
15749W        W86349  14.795  10.167  13.070
15750W        W86350   0.677   1.690   3.612
15751W        W86351   2.400  30.155  12.485
15752W        W86352  37.173  38.787   0.362
15753W        W86353  32.693  28.286  13.873
15754W        W86354   3.533  21.813   1.941
15755W        W86355  28.888   5.551  13.429
15756W        W86356   9.790  12.332   0.926
15757W        W86357  33.009   4.199   1.312
15758W        W86358   1.409  12.523   3.184
15759W        W86359  29.203   3.116  12.379
15760W        W86360  16.124  15.141   4.823
15761W        W86361  11.940   2.305   1.854
15762W        W86362  34.594  36.506   1.297
15763W        W86363   9.245  23.391  14.854
15764W        W86364  20.075  33.208  14.567
15765W        W86365  26.491  15.280  14.500
15766W        W86366   6.303  26.097  13.523
15767W        W86367   2.472  42.403  11.688
15768W        W86368   8.889  17.271  10.236
15769W        W86369  22.056  33.990   1.933
15770W        W86370  36.793  27.422   0.344
15771W        W86371  12.645  25.023  11.420
15772W        W86372  22.567   2.886   0.418
15773W        W86373  27.449  12.006   4.338
15774W        W86374  25.771  36.512   4.416
15775W        W86375  36.930  18.999  14.781
15776W        W86376  16.006  25.642  12.741
15777W        W86377  43.293  29.793  10.619
15778W        W86378  35.030   2.454   3.784
15779W        W86379  19.950  12.510  13.419
15780W        W86380  34.460  14.243   2.234
15781W        W86381   4.702  20.110  13.840
15782W        W86382   5.332  38.801  11.525
15783W        W86383  13.635  36.628   0.534
15784W        W86384  27.229  12.325  12.902
15785W        W86385  38.490  23.154   0.401
15786W        W86386  38.070   4.385  10.683
15787W        W86387  22.051  20.545   2.512
15788W        W86388  37.818  22.775   2.563
15789W        W86389  21.617  26.513  11.866
15790W        W86390  35.759  37.867  12.785
15791W        W86391  19.043  27.169   0.817
15792W        W86392   5.864   6.376   0.837
15793W        W86393  32.151  24.210   1.733
15794W        W86394  39.091  40.752  13.990
15795W        W86395   6.449  39.816   4.117
15796W        W86396  32.237  22.877  14.007
15797W        W86397   1.444  14.275   0.988
15798W        W86398   4.925  35.930   3.221
15799W        W86399  17.829   1.194  12.826
15800W        W86400  30.833  17.309  12.560
15801W        W86401  10.477  23.255   4.287
15802W        W86402   8.862  21.098   3.237
15803W        W86403  26.528  36.567   3.687
15804W        W86404  31.932   6.718   4.628
15805W        W86405  39.826  36.337  10.728
15806W        W86406  34.983  21.274   0.859
15807W        W86407  19.450  31.082   1.784
15808W        W86408  16.296  13.902   0.462
15809W        W86409  17.037  31.516  13.960
15810W        W86410  34.316  38.943  12.455
15811W        W86411  41.210  23.131  10.644
15812W        W86412  12.236  34.549   3.064
15813W        W86413  11.378  36.846  12.451
15814W        W86414  14.153  34.591   0.675
15815W        W86415  15.797  32.513   3.248
15816W        W86416  40.290   8.949  10.522
15817W        W86417  31.684  36.104  14.669
15818W        W86418   4.657  19.258   4.136
15819W        W86419  19.738   4.902   3.999
15820W        W86420  16.193  23.605  14.387
15821W        W86421  15.686  37.790  14.406
15822W        W86422  31.044  44.648   1.746
15823W        W86423   9.752   9.326  13.269
15824W        W86424   4.337   5.874  11.610
15825W        W86425  28.552  18.217   2.366
15826W        W86426   5.915  28.746  12.518
15827W        W86427  27.697  34.874  12.007
15828W        W86428  21.542  42.461   0.623
15829W        W86429  17.949  44.868  14.898
15830W        W86430  38.342  35.518   4.674
15831W        W86431  34.242  41.679  11.944
15832W        W86432   9.169  27.136  11.262
15833W        W86433  31.082  39.500   4.021
15834W        W86434   8.269  24.664   2.696
15835W        W86435   5.702  44.147   3.240
15836W        W86436  36.029  38.941   4.828
15837W        W86437  35.227  17.682  12.412
15838W        W86438  39.999  13.727   2.342
15839W        W86439  41.735  14.522   3.345
15840W        W86440  17.358  18.854   0.807
15841W        W86441   6.830   4.466  14.968
15842W        W86442  18.372  18.980  11.047
15843W        W86443   7.669  20.604   3.223
15844W        W86444  37.568  16.102   1.722
15845W        W86445  22.923  26.007  11.611
15846W        W86446  11.319  18.672  12.500
15847W        W86447  40.102   8.427   4.091
15848W        W86448   3.876  44.247  11.639
15849W        W86449  28.246  41.962   3.264
15850W        W86450   4.406   8.277   0.222
15851W        W86451  44.870  20.047   4.255
15852W        W86452  21.102  31.077   0.990
15853W        W86453  22.488  42.797   2.358
15854W        W86454  33.312  44.364   3.442
15855W        W86455  32.604  15.743  12.075
15856W        W86456  12.747   0.319  14.748
15857W        W86457   2.263  12.187   4.056
15858W        W86458  34.090  18.730  14.840
15859W        W86459  19.742  14.694   0.267
15860W        W86460   6.763  17.146  13.923
15861W        W86461  38.717  19.260   1.141
15862W        W86462  23.309  39.804  12.906
15863W        W86463  44.266  23.449   0.419
15864W        W86464  31.099  23.656   1.334
15865W        W86465  28.027  25.655   0.543
15866W        W86466  22.101  37.875  14.739
15867W        W86467  27.577  25.672   1.276
15868W        W86468   3.297  42.310  11.886
15869W        W86469  16.145  36.856   3.286
15870W        W86470  27.370  24.328   0.500
15871W        W86471   5.150  10.976  10.976
15872W        W86472  32.272  43.908  14.263
15873W        W86473   5.592  14.755   0.654
15874W        W86474   3.269  32.424   5.487
15875W        W86475  20.574  17.728  12.668
15876W        W86476  18.014  40.905   0.084
15877W        W86477  30.097  33.717  10.767
15878W        W86478   3.191  40.784  13.934
15879W        W86479   4.732  40.726   9.995
15880W        W86480  21.089  10.726  13.050
15881W        W86481  23.692  14.804  10.739
15882W        W86482  24.718   5.373  11.620
15883W        W86483   3.463  27.643   2.785
15884W        W86484  42.328  41.269   2.768
15885W        W86485   0.311  14.661  12.475
15886W        W86486  15.671  15.033  12.674
15887W        W86487  10.759  17.169  12.976
15888W        W86488  40.636  10.164  10.975
15889W        W86489  28.977  37.373  14.951
15890W        W86490  18.705  36.037   2.410
15891W        W86491   8.364   2.925   1.278
15892W        W86492  43.214  18.263  12.216
15893W        W86493   4.120   7.322  14.818
15894W        W86494  11.628  32.012   0.846
15895W        W86495  11.846  25.488  11.694
15896W        W86496  29.750  43.849   0.867
15897W        W86497   3.020  37.402   1.261
15898W        W86498   0.842   1.682  11.710
15899W        W86499   1.923  42.852   1.795
15900W        W86500  15.416  28.214  12.522
15901W        W86501  15.624  29.196  11.286
15902W        W86502  42.483  35.816  14.799
15903W        W86503   4.038  44.904   1.421
15904W        W86504  12.951  40.752  10.639
15905W        W86505  20.516   8.793   3.582
15906W        W86506   9.618  44.262  14.702
15907W        W86507  22.685  20.221   0.685
15908W        W86508   3.760  42.887  12.073
15909W        W86509  31.003  31.535  12.118
15910W        W86510  17.851  11.255   0.775
15911W        W86511  10.846  41.389   0.052
15912W        W86512   3.324  18.687   3.125
15913W        W86513  30.923   5.410   0.684
15914W        W86514   5.121  25.634  13.363
15915W        W86515  11.302  23.452  11.438
15916W        W86516   2.017  44.572   0.304
15917W        W86517  25.633  29.406  14.427
15918W        W86518  27.602  18.440  11.894
15919W        W86519  13.214  22.768   0.861
15920W        W86520  44.058   6.610   1.945
15921W        W86521  31.138  33.020   1.826
15922W        W86522  26.544   1.957  10.197
15923W        W86523  37.903  14.287   2.237
15924W        W86524   0.785  18.544  14.523
15925W        W86525  12.184  22.879   0.485
15926W        W86526  17.178  27.952   2.843
15927W        W86527  26.729  38.986   4.224
15928W        W86528   3.189  41.509   1.972
15929W        W86529   5.833  15.810   2.131
15930W        W86530  35.144  23.020   2.900
15931W        W86531  43.497   8.957   3.782
15932W        W86532  11.197  34.604  14.881
15933W        W86533  30.858  13.304  11.992
15934W        W86534  41.613   9.166   0.813
15935W        W86535  19.243  21.551   4.535
15936W        W86536   2.021  16.588  13.913
15937W        W86537  22.761  25.746   2.158
15938W        W86538  13.592  28.029   2.731
15939W        W86539  22.280  34.428   0.326
15940W        W86540  34.311  30.502   3.509
15941W        W86541  36.459  30.615   1.608
15942W        W86542  21.980  31.930  11.850
15943W        W86543  24.879   1.851  13.007
15944W        W86544   1.423   3.382   1.302
15945W        W86545  32.564  20.171  14.282
15946W        W86546  42.125  43.052  14.381
15947W        W86547  10.919  32.258  13.738
15948W        W86548  32.562  20.101   0.800
15949W        W86549  34.448  30.511   2.725
15950W        W86550  11.610  38.502  13.186
15951W        W86551  23.205  22.018  12.369
15952W        W86552  26.528  14.368  13.549
15953W        W86553  16.650  23.355   2.917
15954W        W86554   6.363  37.928  12.821
15955W        W86555  24.399  32.132  14.546
15956W        W86556  24.974  31.405  13.875
15957W        W86557  40.066  24.136   2.095
15958W        W86558  25.168  41.405   0.419
15959W        W86559  12.537  41.869  12.296
15960W        W86560  10.605  22.574  14.324
15961W        W86561  29.152   0.042  13.975
15962W        W86562  33.860  37.568  11.553
15963W        W86563  27.036   9.221  14.719
15964W        W86564   9.617  28.580  14.872
15965W        W86565  28.864  21.014  13.913
15966W        W86566   6.265  13.231  12.687
15967W        W86567  23.887  16.568  11.853
15968W        W86568  24.071  35.359  12.460
15969W        W86569  44.736  22.975  10.245
15970W        W86570  15.556  31.016  13.989
15971W        W86571  34.147  21.576  11.312
15972W        W86572  38.059  20.950   2.375
15973W        W86573  10.039  32.386  12.047
15974W        W86574  31.026   1.932  14.443
15975W        W86575   0.540  35.454   0.817
15976W        W86576  25.914  26.714   4.808
15977W        W86577  10.697   1.628   2.185
15978W        W86578  38.979  37.387  14.806
15979W        W86579  18.845  25.710   2.559
15980W        W86580  27.906   9.444  14.562
15981W        W86581  16.978  36.365  13.675
15982W        W86582  36.901  10.100  14.829
15983W        W86583   2.165   9.315  12.695
15984W        W86584  22.444   4.454   2.726
15985W        W86585  33.734   1.964  13.773
15986W        W86586  28.641  23.498   3.339
15987W        W86587  40.410   0.264  11.971
15988W        W86588  24.027   4.596   4.574
15989W        W86589  28.239  22.580  11.902
15990W        W86590  12.638   6.120  12.022
15991W        W86591   2.284   3.344   4.102
15992W        W86592  18.759  10.432  11.050
15993W        W86593  43.925   9.993  11.594
15994W        W86594  41.340  16.506  10.739
15995W        W86595   8.006  40.617  14.720
15996W        W86596   5.809  12.699  12.451
15997W        W86597  26.698  21.178  13.084
15998W        W86598   8.624   6.825   1.859
15999W        W86599  32.385  40.069   0.158
16000W        W86600  17.658  42.016   1.442
16001W        W86601   9.405  21.340   4.024
16002W        W86602  39.777  21.553   3.912
16003W        W86603  20.608  44.756   2.347
16004W        W86604  33.663  28.462   0.267
16005W        W86605  11.752  28.083  13.819
16006W        W86606   5.692  32.986  13.464
16007W        W86607  34.535  20.759  11.730
16008W        W86608  44.280   2.124   4.579
16009W        W86609  28.156  33.017  10.619
16010W        W86610   3.791   7.664  11.481
16011W        W86611   0.414  12.391  11.204
16012W        W86612  33.093  24.485   3.136
16013W        W86613  21.153  17.854   3.196
16014W        W86614  35.904  23.563  14.299
16015W        W86615  15.478  16.267   3.675
16016W        W86616  22.628  22.412  10.033
16017W        W86617  44.712  35.884  10.234
16018W        W86618  27.420  27.921  14.902
16019W        W86619  19.148   0.350  14.272
16020W        W86620   0.980  35.374  14.855
16021W        W86621  15.859  30.471   1.939
16022W        W86622  28.525   8.590  13.889
16023W        W86623  18.112  42.535  11.405
16024W        W86624  17.545   3.467  11.171
16025W        W86625   2.822   4.204  14.321
16026W        W86626  16.832  15.412   4.598
16027W        W86627  38.347   0.815   2.211
16028W        W86628  29.557   7.905  14.847
16029W        W86629  18.070  39.674   3.262
16030W        W86630  41.457  33.249  12.884
16031W        W86631  24.112  31.356   3.154
16032W        W86632  39.406  34.447  14.508
16033W        W86633  25.134  15.940  13.705
16034W        W86634  22.819  19.017  11.863
16035W        W86635  20.382   2.455   0.052
16036W        W86636  43.447  30.964   1.362
16037W        W86637  40.468  11.357  11.641
16038W        W86638  26.180  36.573   2.347
16039W        W86639  32.074  42.861   1.320
16040W        W86640   9.294  44.318   1.392
16041W        W86641   5.051  10.089   4.879
16042W        W86642  12.325  24.566  14.954
16043W        W86643   1.162  25.061   1.770
16044W        W86644  38.429  35.347   0.670
16045W        W86645  17.530  29.985   0.237
16046W        W86646   0.414  34.150   4.838
16047W        W86647   1.358  30.201   0.270
16048W        W86648  34.070  16.329  11.091
16049W        W86649  10.191  34.101  13.156
16050W        W86650  28.038  28.042   3.788
16051W        W86651   0.486  13.603  12.504
16052W        W86652  28.086  37.357   4.363
16053W        W86653  37.162  26.593  13.230
16054W        W86654  15.300  18.708   0.763
16055W        W86655  36.987  21.272  11.078
16056W        W86656   7.823  23.655   1.434
16057W        W86657  43.820  29.567   1.361
16058W        W86658   7.666  38.568  13.054
16059W        W86659  12.765  19.588   1.659
16060W        W86660  18.068  38.796  14.603
16061W        W86661  35.118  16.071  13.330
16062W        W86662   8.388  31.183   0.904
16063W        W86663  15.892  12.556  11.591
16064W        W86664  38.300   2.735  10.838
16065W        W86665  44.760   6.849  13.771
16066W        W86666  37.474  41.708   1.001
16067W        W86667  42.896  27.668  14.726
16068W        W86668  39.444   7.874  12.299
16069W        W86669  25.537  35.849   3.223
16070W        W86670  39.117  33.605   4.236
16071W        W86671  41.250  12.652   4.269
16072W        W86672  44.034  13.800  11.149
16073W        W86673  13.510   6.675   3.711
16074W        W86674  26.528   6.240   2.544
16075W        W86675   9.639  19.231  11.779
16076W        W86676   2.466  34.036  14.843
16077W        W86677  33.535  36.912   0.569
16078W        W86678  31.864  21.706   4.895
16079W        W86679  21.307  41.036   0.326
16080W        W86680  41.932  13.562   2.325
16081W        W86681  13.830  13.972  11.869
16082W        W86682  10.301  14.736  14.883
16083W        W86683  21.782  35.391  11.788
16084W        W86684  43.533  12.037  13.017
16085W        W86685  12.258  40.277  10.652
16086W        W86686  34.217  33.949  13.523
16087W        W86687  23.567  19.701  10.457
16088W        W86688   7.914  19.365   2.000
16089W        W86689  21.428  30.111   0.264
16090W        W86690  34.216   0.915   4.116
16091W        W86691  20.435  18.684  12.490
16092W        W86692   7.117  21.517   3.276
16093W        W86693   4.833  20.993   1.765
16094W        W86694   4.358  12.747  10.403
16095W        W86695   7.190  41.916  10.920
16096W        W86696  44.400  37.819   3.348
16097W        W86697  18.799  44.762  12.335
16098W        W86698   5.087  33.044  14.848
16099W        W86699   9.313  11.855   4.539
16100W        W86700  29.584  26.219  13.421
16101W        W86701  28.534  21.697  14.511
16102W        W86702  10.086  14.027  13.438
16103W        W86703  19.642  19.984  12.919
16104W        W86704  11.889  26.233   2.669
16105W        W86705  20.116  31.937  13.753
16106W        W86706  33.172  19.383  11.287
16107W        W86707  20.620  42.532  13.099
16108W        W86708  42.294  34.405   1.273
16109W        W86709   2.762  34.015  11.259
16110W        W86710   3.552  30.066  13.246
16111W        W86711  44.739  15.588  10.728
16112W        W86712  35.032  43.946   1.438
16113W        W86713  38.807  17.090   1.816
16114W        W86714   6.919  35.559   0.335
16115W        W86715   3.906  44.257  12.578
16116W        W86716  30.601  15.403  11.543
16117W        W86717  12.075  42.889   2.258
16118W        W86718   1.717  12.847   3.942
16119W        W86719  19.457  27.579   1.903
16120W        W86720  32.505  30.245   1.405
16121W        W86721   6.391  27.989   0.006
16122W        W86722   6.761  17.607  12.004
16123W        W86723  41.397   1.782  14.579
16124W        W86724  39.292  39.027   2.557
16125W        W86725  33.670   8.452   4.295
16126W        W86726   1.842  37.492  11.202
16127W        W86727   6.199  25.752  11.137
16128W        W86728  19.992  13.122  11.274
16129W        W86729   0.186   3.413  13.522
16130W        W86730  23.303  28.029   5.040
16131W        W86731  14.193   6.776  13.299
16132W        W86732   4.308   4.859  13.440
16133W        W86733  42.401  14.279   4.644
16134W        W86734  25.109  35.739  10.917
16135W        W86735  40.838  12.794  12.117
16136W        W86736  25.675  19.399   5.060
16137W        W86737  14.122   5.034   3.165
16138W        W86738  37.634  35.003   2.465
16139W        W86739  21.673  30.609  12.669
16140W        W86740  28.553  25.277  13.377
16141W        W86741  41.869  40.471   1.081
16142W        W86742  35.974  24.157   4.703
16143W        W86743  36.843  36.887   0.047
16144W        W86744  40.031   5.708  12.509
16145W        W86745   1.448  16.055   2.731
16146W        W86746  27.464  39.705   5.513
16147W        W86747   8.931  11.964   4.172
16148W        W86748   8.770  28.261   4.054
16149W        W86749  29.471   6.257  12.161
16150W        W86750  19.248  22.847  13.394
16151W        W86751   4.725   6.649  13.868
16152W        W86752  26.030  20.537   3.452
16153W        W86753   2.280  35.909   4.459
16154W        W86754  32.656  40.483  12.214
16155W        W86755   1.282  25.721  11.522
16156W        W86756   1.590  36.380   4.641
16157W        W86757  28.176   9.889  10.726
16158W        W86758  32.930   7.681   3.577
16159W        W86759  16.550  29.437   2.191
16160W        W86760  12.098   1.559   1.072
16161W        W86761   5.375  30.294   3.407
16162W        W86762  10.571  25.641   3.973
16163W        W86763   5.826  34.901   2.941
16164W        W86764  35.699   7.809  14.053
16165W        W86765  24.990  38.619   2.319
16166W        W86766  19.236   0.986  14.956
16167W        W86767  27.543  27.596   4.288
16168W        W86768  44.192  33.724  11.983
16169W        W86769  12.441  12.784  14.713
16170W        W86770  43.070  40.830   1.265
16171W        W86771  20.195  33.590   4.837
16172W        W86772  32.501  19.976  12.900
16173W        W86773  11.824  38.499  11.687
16174W        W86774   0.461   2.302  13.917
16175W        W86775  21.681  42.371   2.368
16176W        W86776  40.778  39.767  14.318
16177W        W86777  29.944  34.755   3.887
16178W        W86778  22.581  24.495   1.337
16179W        W86779  20.980   3.232   1.416
16180W        W86780  34.383  22.824   0.335
16181W        W86781  11.576  28.147   3.708
16182W        W86782  40.344  13.103  13.070
16183W        W86783  13.346  35.409   3.394
16184W        W86784   7.195  19.073   4.774
16185W        W86785  23.894   8.793   1.657
16186W        W86786  29.623   8.697   1.083
16187W        W86787  23.672  15.200  14.743
16188W        W86788  33.099  11.262  13.029
16189W        W86789  32.561   1.244   4.486
16190W        W86790  35.961  30.304  12.008
16191W        W86791   1.716   0.919  11.690
16192W        W86792   3.833  44.511  14.763
16193W        W86793   3.239   8.720   1.405
16194W        W86794  14.134  29.188  11.220
16195W        W86795  20.403  33.167  13.301
16196W        W86796   0.307  44.778   3.705
16197W        W86797   7.832  40.561   4.636
16198W        W86798  26.624  15.052  11.184
16199W        W86799   4.938   7.504   1.403
16200W        W86800  33.591  30.039   1.763
16201W        W86801  10.867  37.654  13.627
16202W        W86802  39.028  28.254   0.055
16203W        W86803   2.991  15.256   2.861
16204W        W86804   7.455  39.860  14.279
16205W        W86805  12.330  41.320  10.645
16206W        W86806  32.317  10.118   4.816
16207W        W86807  11.729  37.277  12.536
16208W        W86808  18.810  37.160  12.131
16209W        W86809  15.768   9.561   1.776
16210W        W86810  28.523  15.042  11.293
16211W        W86811  31.905  43.226   0.998
16212W        W86812  29.630   3.728  11.227
16213W        W86813  25.065  39.752  13.890
16214W        W86814  30.594  41.914  12.999
16215W        W86815  10.557  41.070   0.788
16216W        W86816  31.868   8.656  14.800
16217W        W86817  12.010  29.584   0.343
16218W        W86818   2.908  30.853  13.490
16219W        W86819  11.087  19.662  11.534
16220W        W86820  26.036  29.037   4.330
16221W        W86821  21.117   5.452   2.363
16222W        W86822  29.475  38.913   1.421
16223W        W86823  34.837  33.887  11.221
16224W        W86824  15.496  43.876   1.767
16225W        W86825  36.351   4.815   2.451
16226W        W86826  24.694  39.427  13.301
16227W        W86827  39.570  31.192  13.434
16228W        W86828  31.275  25.221  12.126
16229W        W86829  12.625  38.924  11.162
16230W        W86830  44.997  27.483   1.414
16231W        W86831  16.051  22.054   4.995
16232W        W86832  24.571   9.720  13.044
16233W        W86833   4.387  16.036  13.159
16234W        W86834  13.222  14.893  11.103
16235W        W86835  22.341   8.168   3.537
16236W        W86836   2.954  27.234   0.795
16237W        W86837   4.661  14.819  11.910
16238W        W86838   7.853   8.241  13.901
16239W        W86839  27.045  27.727   0.809
16240W        W86840  40.931   3.324   3.375
16241W        W86841   4.222  32.089   1.741
16242W        W86842  19.951  38.743  10.757
16243W        W86843  26.664  17.199   5.062
16244W        W86844  30.628   2.436  12.822
16245W        W86845  29.074   0.154   2.169
16246W        W86846   2.871  26.237   1.813
16247W        W86847  14.382   2.518  13.934
16248W        W86848  13.583  14.676   3.632
16249W        W86849   7.240  20.223   2.728
16250W        W86850  33.905   4.882  12.725
16251W        W86851  40.113  41.429  10.513
16252W        W86852  26.948  42.344   3.228
16253W        W86853  44.697  24.103   4.679
16254W        W86854  36.658  12.572   3.590
16255W        W86855   7.464  31.350  11.577
16256W        W86856  43.855  16.271  14.446
16257W        W86857  10.641  22.146   3.612
16258W        W86858   3.867   9.908   3.262
16259W        W86859  24.243  43.917  14.831
16260W        W86860   9.426  37.573   2.361
16261W        W86861  28.534  28.738   1.824
16262W        W86862  35.440   6.930  12.246
16263W        W86863  39.133  32.067  10.979
16264W        W86864  11.340  24.954  12.408
16265W        W86865   9.831  33.934   2.029
16266W        W86866  35.804  36.605   2.341
16267W        W86867  26.476   6.934   1.719
16268W        W86868  24.229  44.866   3.546
16269W        W86869  22.904  20.075   2.497
16270W        W86870  42.976  28.604  11.110
16271W        W86871   5.628  25.820   0.041
16272W        W86872   2.287  40.607  10.408
16273W        W86873   0.802  23.759   0.904
16274W        W86874  37.782  43.937  10.180
16275W        W86875  38.315  16.520   3.271
16276W        W86876   7.350  40.241   1.487
16277W        W86877  32.482  38.844   3.291
16278W        W86878  38.974  21.657   3.293
16279W        W86879  24.183   4.317   0.431
16280W        W86880   2.370   0.322  10.777
16281W        W86881   2.020  39.045   3.608
16282W        W86882  35.874   7.226  14.057
16283W        W86883  19.089   4.567  12.070
16284W        W86884  36.084  19.824  11.522
16285W        W86885  20.424   0.369   3.318
16286W        W86886  41.005  28.378  12.075
16287W        W86887   7.644  11.397  11.566
16288W        W86888  38.506  35.414  12.901
16289W        W86889  43.463  11.532  13.169
16290W        W86890   1.736   0.326  13.845
16291W        W86891  16.690  28.201   2.419
16292W        W86892   9.255  43.063  12.491
16293W        W86893  32.615  19.526  14.879
16294W        W86894   9.117  12.763   3.098
16295W        W86895   7.935   0.355   1.808
16296W        W86896  33.811  44.060   1.733
16297W        W86897  29.350  19.650   2.193
16298W        W86898  23.962  39.369  11.608
16299W        W86899  20.516  42.962  11.759
16300W        W86900  23.672  18.776  12.492
16301W        W86901  25.500  19.140  13.535
16302W        W86902  23.122   3.703   2.718
16303W        W86903  36.964   4.997   0.640
16304W        W86904  20.145  16.773   2.320
16305W        W86905   8.724  23.197  13.782
16306W        W86906  15.443  44.877   3.703
16307W        W86907   7.941  10.350   3.847
16308W        W86908  29.585  20.501   1.900
16309W        W86909  39.789  10.083  14.537
16310W        W86910  33.849   2.282  10.725
16311W        W86911  27.046  39.374  10.652
16312W        W86912  29.052   7.680  13.059
16313W        W86913  26.245   1.276   4.366
16314W        W86914  22.989  11.214  11.133
16315W        W86915  31.043   0.086  14.759
16316W        W86916  19.278   5.679  13.328
16317W        W86917  21.787  42.064   3.659
16318W        W86918  43.381  21.887  14.889
16319W        W86919   1.051  33.419   3.273
16320W        W86920  19.018   9.721  14.473
16321W        W86921   7.607  32.088   2.765
16322W        W86922  35.067  22.072   1.979
16323W        W86923  10.460  38.244   0.831
16324W        W86924  10.356   8.827   1.626
16325W        W86925  10.669  42.265   2.890
16326W        W86926  11.112   9.246  12.468
16327W        W86927  42.436  33.676  11.898
16328W        W86928   6.264  21.717   1.752
16329W        W86929  15.750  29.470  11.720
16330W        W86930   8.741  37.539   3.147
16331W        W86931  12.241  10.701  12.917
16332W        W86932  40.237  22.141  12.146
16333W        W86933  37.304  20.557  12.027
16334W        W86934   8.300  35.980  10.863
16335W        W86935  25.471  40.914   3.171
16336W        W86936  21.529  36.380  12.157
16337W        W86937  31.361   2.497  11.100
16338W        W86938  28.677   6.945  14.867
16339W        W86939  21.557  13.904   5.115
16340W        W86940  38.304   6.936   3.999
16341W        W86941  38.808  12.660  12.410
16342W        W86942  16.574   0.232  14.823
16343W        W86943  25.139  14.485  14.837
16344W        W86944   9.086  32.463  11.171
16345W        W86945  28.714  34.478  11.151
16346W        W86946  34.944  43.487   1.671
16347W        W86947  22.541  43.004   3.268
16348W        W86948  28.636  29.033   0.456
16349W        W86949  12.338  43.719  14.960
16350W        W86950  13.119  20.036  10.631
16351W        W86951  28.005  30.348   2.935
16352W        W86952   9.389   1.420  10.772
16353W        W86953  20.184   6.093  14.211
16354W        W86954  35.414   8.245  13.908
16355W        W86955   4.374  17.111   1.432
16356W        W86956  23.968   0.885   2.890
16357W        W86957  20.187  43.230  12.027
16358W        W86958  17.651  34.807   3.590
16359W        W86959  19.941   5.716  14.505
16360W        W86960  42.524  39.931   4.471
16361W        W86961  33.535   2.982  10.733
16362W        W86962  34.165  43.280   2.804
16363W        W86963   6.759  37.539   1.258
16364W        W86964   0.923  18.596   3.325
16365W        W86965  23.576  34.421   4.639
16366W        W86966  35.977  41.156  11.522
16367W        W86967  34.387  18.324   1.502
16368W        W86968  28.991   2.504  12.021
16369W        W86969  34.154   0.480   4.718
16370W        W86970   4.704  21.360  14.266
16371W        W86971  29.617   3.959   3.835
16372W        W86972   4.786  25.555   4.020
16373W        W86973  24.549   4.819   2.366
16374W        W86974  22.850   6.362  12.975
16375W        W86975  12.675   1.060   1.435
16376W        W86976  16.245  42.218   4.314
16377W        W86977  33.643  23.168   2.226
16378W        W86978  10.831  24.205  11.696
16379W        W86979   0.516  40.806   2.435
16380W        W86980  30.503  19.300  11.090
16381W        W86981  18.590   5.247  13.695
16382W        W86982  33.115   1.988   1.911
16383W        W86983  44.741  43.421   1.775
16384W        W86984  11.384  44.348   4.135
16385W        W86985  36.605  33.571   3.769
16386W        W86986  26.485   2.854  11.938
16387W        W86987   6.069   3.406  11.097
16388W        W86988   8.684  31.550  11.982
16389W        W86989  21.605  12.829  12.581
16390W        W86990  26.594   8.543   3.071
16391W        W86991  44.823  13.303   1.663
16392W        W86992  11.126  25.773  12.857
16393W        W86993  32.229   2.352  13.986
16394W        W86994  31.619  33.687  13.080
16395W        W86995  12.905  29.950   0.686
16396W        W86996  35.918  15.169   4.610
16397W        W86997  24.264   6.912   2.804
16398W        W86998  13.829   6.789  14.867
16399W        W86999  12.014   4.778  12.528
16400W        W87000  32.071  29.598   3.755
16401W        W87001  41.851  28.191  12.463
16402W        W87002   6.223  19.575   2.367
16403W        W87003  32.085  23.174   2.663
16404W        W87004  42.285  33.140  11.069
16405W        W87005  27.875  33.035   0.166
16406W        W87006  39.901  40.652   3.590
16407W        W87007   6.769   2.505   1.786
16408W        W87008  44.043  16.996  13.071
16409W        W87009  19.773  28.491  11.952
16410W        W87010   5.244  37.041  13.042
16411W        W87011  15.066   1.098   3.177
16412W        W87012  36.583   5.350  12.374
16413W        W87013  23.489  39.676   3.406
16414W        W87014  11.710  10.462   0.024
16415W        W87015  44.156  11.636  14.894
16416W        W87016  12.642  27.683   2.260
16417W        W87017   5.644  15.590  13.039
16418W        W87018   5.046  27.449  10.737
16419W        W87019  17.225  44.501   4.997
16420W        W87020  21.142  32.433   3.053
16421W        W87021  23.102   2.262  11.126
16422W        W87022  13.144  37.044   2.630
16423W        W87023  34.636  30.157   3.796
16424W        W87024   9.719  22.972  12.348
16425W        W87025  30.305  37.290   4.240
16426W        W87026  13.551  37.073  11.184
16427W        W87027  28.251  11.063   4.883
16428W        W87028  11.610   1.249  12.604
16429W        W87029  19.127  13.589  11.012
16430W        W87030  19.441  27.923   2.383
16431W        W87031   6.447  16.085  13.042
16432W        W87032  23.597  31.546  13.470
16433W        W87033   4.526  28.761   0.469
16434W        W87034   8.675  15.074   2.154
16435W        W87035  35.421   6.243   2.898
16436W        W87036  27.432  24.821   0.307
16437W        W87037  18.592  21.819  12.635
16438W        W87038  31.127  26.587  13.973
16439W        W87039  40.283   1.974  12.649
16440W        W87040  26.546  37.103  14.295
16441W        W87041  28.011  24.413  13.559
16442W        W87042   6.600  34.892   1.289
16443W        W87043   9.863  20.866  10.232
16444W        W87044   3.344  39.409   3.657
16445W        W87045  13.645  18.616  14.885
16446W        W87046  18.732   1.570  12.956
16447W        W87047  25.637   4.640   3.289
16448W        W87048  33.064  18.048   4.590
16449W        W87049  27.023  36.207  13.533
16450W        W87050  26.048   5.912   1.223
16451W        W87051   7.304  19.788  14.352
16452W        W87052  34.081  18.850   4.046
16453W        W87053  38.516   4.677   1.284
16454W        W87054   2.767  42.808   4.239
16455W        W87055   4.439   2.388   4.587
16456W        W87056  36.631  36.959  10.867
16457W        W87057  40.981  18.631   0.519
16458W        W87058  28.573  35.276  14.790
16459W        W87059  14.589   2.563   1.779
16460W        W87060  39.554  25.040  12.600
16461W        W87061   7.300  24.952   0.075
16462W        W87062  33.969  24.884  12.457
16463W        W87063  19.654  39.444   0.959
16464W        W87064  14.759  11.696  13.358
16465W        W87065  15.949  17.211   3.728
16466W        W87066  25.556  37.297   1.331
16467W        W87067  30.799   8.299  12.594
16468W        W87068  27.649  19.122  12.937
16469W        W87069   6.975   5.418  12.179
16470W        W87070  33.509  43.933   4.636
16471W        W87071   4.466  23.791   1.364
16472W        W87072  36.724   0.540  12.126
16473W        W87073  21.654  30.658   2.667
16474W        W87074  22.586  29.036  12.658
16475W        W87075   3.848   0.418   2.791
16476W        W87076  29.926  21.575   2.666
16477W        W87077  38.968  33.142  12.366
16478W        W87078  36.463  32.202  11.982
16479W        W87079  40.851  37.499   3.789
16480W        W87080  25.559  41.591   3.414
16481W        W87081  16.463  24.943   1.889
16482W        W87082   4.582  25.357   3.126
16483W        W87083  26.550  12.207  12.951
16484W        W87084  28.562   6.558  13.535
16485W        W87085  27.138  37.552  12.816
16486W        W87086  37.899  36.161   5.039
16487W        W87087  15.926  44.560   2.206
16488W        W87088  41.469  14.802  13.947
16489W        W87089  35.048  35.345  14.585
16490W        W87090   2.764  27.671   4.712
16491W        W87091  19.772   4.979   9.933
16492W        W87092   0.507  31.648  11.517
16493W        W87093  23.528   2.663  14.507
16494W        W87094  41.498  32.036  11.107
16495W        W87095  23.016   3.761   1.152
16496W        W87096   7.510  35.810   1.370
16497W        W87097  35.539  35.668   2.681
16498W        W87098  36.956  22.910   0.947
16499W        W87099  20.959  31.105   4.670
16500W        W87100  41.795  28.133   4.525
16501W        W87101  14.048  22.877  14.572
16502W        W87102  25.996   5.192   1.681
16503W        W87103  42.684  29.282   3.691
16504W        W87104  16.290   6.501  11.546
16505W        W87105  44.944   2.381  14.241
16506W        W87106  44.684  43.942  11.196
16507W        W87107  37.298  22.086   4.073
16508W        W87108   0.228  30.064  12.892
16509W        W87109  40.926  35.170  12.878
16510W        W87110   4.427  34.973  12.158
16511W        W87111   9.958  25.473   0.419
16512W        W87112  19.966  27.395   2.771
16513W        W87113   8.165  30.105   1.725
16514W        W87114  28.320  26.453   5.005
16515W        W87115  41.780  42.214  13.525
16516W        W87116  41.840  33.580  10.242
16517W        W87117   0.501  29.597  14.491
16518W        W87118  34.921  28.359  11.633
16519W        W87119  40.352  44.937  14.071
16520W        W87120  22.666   4.573  10.386
16521W        W87121   9.224   7.306   4.932
16522W        W87122  23.252   7.767  11.640
16523W        W87123  36.398  34.869  13.431
16524W        W87124   7.486  32.945  12.895
16525W        W87125  37.542   8.106  14.988
16526W        W87126   2.759  16.986  11.874
16527W        W87127  27.983   7.316   4.741
16528W        W87128  20.856   6.881   1.791
16529W        W87129  28.828  42.515  10.768
16530W        W87130   9.408   8.662   3.121
16531W        W87131  29.265   3.876   0.928
16532W        W87132   4.677  13.362   1.229
16533W        W87133  43.368  13.860  10.592
16534W        W87134  32.671  20.514   0.018
16535W        W87135  25.646  13.532  14.450
16536W        W87136  40.248  43.070  14.414
16537W        W87137  44.825   7.708   1.180
16538W        W87138  39.043  37.904   0.551
16539W        W87139  10.232  18.130   0.199
16540W        W87140  35.026  43.688  10.995
16541W        W87141  27.954  39.073  11.968
16542W        W87142  11.858  23.244   4.106
16543W        W87143   6.252  28.915  10.188
16544W        W87144  32.452   8.255   0.750
16545W        W87145  40.953   8.170  12.482
16546W        W87146  23.667  14.671  14.837
16547W        W87147  18.282  32.166  10.342
16548W        W87148  28.222  14.366  14.882
16549W        W87149  12.141  24.636  12.013
16550W        W87150  16.258  44.725  10.425
16551W        W87151  33.669  14.458   0.241
16552W        W87152  35.901  23.039   0.885
16553W        W87153  42.011   0.462   0.927
16554W        W87154  38.038   2.998  12.154
16555W        W87155  26.020  11.540   2.769
16556W        W87156  21.497  38.287  11.677
16557W        W87157  40.299  39.049  11.273
16558W        W87158  17.283   4.937   3.281
16559W        W87159  26.641  15.031  13.019
16560W        W87160   0.130  29.530  13.101
16561W        W87161  43.749  14.151   1.461
16562W        W87162  40.092  24.174   4.051
16563W        W87163  44.265  38.489   4.637
16564W        W87164   4.525  34.914   5.299
16565W        W87165   5.793  19.588   3.326
16566W        W87166  20.156  34.554   2.913
16567W        W87167  17.855  42.875   1.215
16568W        W87168   2.047   1.967  14.033
16569W        W87169  33.530  39.777  14.315
16570W        W87170  38.810  19.878   5.029
16571W        W87171  16.806   5.346   1.997
16572W        W87172  35.999  30.963  14.516
16573W        W87173  21.105  44.332   3.211
16574W        W87174  29.403  10.654  13.511
16575W        W87175  15.601  25.727  14.958
16576W        W87176   7.430  27.979  14.063
16577W        W87177  42.548  32.129   3.683
16578W        W87178  10.291  36.402  13.792
16579W        W87179  15.535  10.285   4.204
16580W        W87180   4.737  35.926  13.081
16581W        W87181  10.563  11.632  12.593
16582W        W87182  25.252  35.427  13.323
16583W        W87183  39.025  15.470  14.008
16584W        W87184   1.026  43.497   0.424
16585W        W87185  26.713  17.223   4.195
16586W        W87186  42.981   8.425  12.674
16587W        W87187  27.052   3.329   2.181
16588W        W87188  23.169  44.835  10.730
16589W        W87189  30.920  14.749   3.202
16590W        W87190   8.290  21.207  14.476
16591W        W87191  41.588  20.765   4.618
16592W        W87192  30.894   0.029  11.039
16593W        W87193  20.418  37.516   2.454
16594W        W87194  24.585  36.119   3.862
16595W        W87195  18.821  20.501   2.955
16596W        W87196  11.133  29.983   1.769
16597W        W87197   1.743  37.683   0.078
16598W        W87198  13.155  15.352   2.824
16599W        W87199  12.785  29.420   0.038
16600W        W87200  27.223  40.700  13.834
16601W        W87201   4.905  17.103  11.121
16602W        W87202   6.211   2.424  14.870
16603W        W87203  31.099  34.944   4.320
16604W        W87204   4.626   1.279   1.518
16605W        W87205   8.752   3.386   3.333
16606W        W87206  23.487  21.247  10.876
16607W        W87207   7.250  12.612  11.846
16608W        W87208  42.359  13.083  11.114
16609W        W87209  41.480  18.420   0.302
16610W        W87210  29.716  17.164   0.031
16611W        W87211  31.473   8.238   3.732
16612W        W87212  44.023   8.854  13.651
16613W        W87213  36.020  31.228   0.936
16614W        W87214  10.726  26.696  11.133
16615W        W87215   4.438   4.313   4.185
16616W        W87216  44.450  25.966  11.157
16617W        W87217  43.485  29.549   3.954
16618W        W87218  29.422  17.057  10.697
16619W        W87219  37.875  31.035  13.048
16620W        W87220   5.743  25.476  11.164
16621W        W87221   6.368  19.691   4.065
16622W        W87222   8.979   5.881   3.759
16623W        W87223  32.518   4.800  10.640
16624W        W87224  36.766  37.880   3.185
16625W        W87225  17.618  12.518  11.053
16626W        W87226   4.471  30.459  10.709
16627W        W87227  32.619  37.751   3.051
16628W        W87228   4.093  24.546  11.631
16629W        W87229  19.559   0.335   4.402
16630W        W87230  34.635  33.575   1.443
16631W        W87231  35.343  31.295  10.748
16632W        W87232   5.301  15.024   3.790
16633W        W87233  14.743  11.222  12.467
16634W        W87234  23.757  24.145  13.074
16635W        W87235  29.859  19.203   1.880
16636W        W87236   3.026  31.468   2.322
16637W        W87237  17.580   3.213   2.269
16638W        W87238  42.737  26.677   3.687
16639W        W87239  24.952  16.080  11.319
16640W        W87240   6.951  20.786  14.390
16641W        W87241  41.326   4.113  13.503
16642W        W87242   3.847  37.447  13.886
16643W        W87243  34.651   7.349  11.564
16644W        W87244  31.090  32.119   0.972
16645W        W87245  22.167  43.622  11.125
16646W        W87246  15.875  34.126  11.652
16647W        W87247  15.242  17.365  14.888
16648W        W87248  12.732  27.511   4.632
16649W        W87249  23.524  37.899  10.820
16650W        W87250  34.413  30.972   0.928
16651W        W87251   0.278   6.794   3.395
16652W        W87252   6.434  15.756   9.948
16653W        W87253   1.574  34.655   5.267
16654W        W87254  32.948   5.237   3.603
16655W        W87255  36.193  18.079   3.236
16656W        W87256   3.573   2.047   2.137
16657W        W87257   7.603  18.690  14.786
16658W        W87258   4.549  42.930  11.484
16659W        W87259  15.210  14.157  11.083
16660W        W87260  17.257  38.876  13.985
16661W        W87261   3.279  29.575   1.416
16662W        W87262   5.279   6.756   1.458
16663W        W87263  18.159  40.045   1.966
16664W        W87264   6.178  33.159  11.103
16665W        W87265  19.976   6.232  12.347
16666W        W87266  41.914  13.618  14.801
16667W        W87267   0.730  12.144  14.013
16668W        W87268   0.400  37.729   1.428
16669W        W87269  15.424  30.192   2.930
16670W        W87270  28.122  19.486   2.758
16671W        W87271  40.046  26.405   0.069
16672W        W87272  30.672  42.569  14.425
16673W        W87273  39.576  18.359  12.817
16674W        W87274  43.903  10.122  10.623
16675W        W87275  17.581  38.554  14.743
16676W        W87276  27.064  25.690   3.681
16677W        W87277  25.727  30.495   1.395
16678W        W87278  19.521   6.117   4.407
16679W        W87279  20.938  39.121   2.970
16680W        W87280  11.843  26.874   3.766
16681W        W87281  12.680  41.518  13.500
16682W        W87282  31.900  28.968   0.755
16683W        W87283  34.806  24.361   1.547
16684W        W87284  12.300  39.389   2.925
16685W        W87285  40.780  38.870   2.739
16686W        W87286  37.680  40.052  12.164
16687W        W87287  15.129  43.081  12.137
16688W        W87288  40.871  22.945   1.361
16689W        W87289  40.789  44.122  13.553
16690W        W87290  30.622  20.038   4.294
16691W        W87291   0.084   1.828   2.172
16692W        W87292  23.201  34.510  11.627
16693W        W87293  41.252  33.847   2.371
16694W        W87294  38.232   2.432   1.464
16695W        W87295   1.878  15.354  14.344
16696W        W87296   6.282  19.450   5.020
16697W        W87297  44.192  25.623   3.256
16698W        W87298  43.955  27.981   0.730
16699W        W87299  44.993   8.180  11.074
16700W        W87300  15.352  12.989  10.130
16701W        W87301  21.601  15.148  13.982
16702W        W87302  26.423  36.800   4.563
16703W        W87303  33.077  33.997   3.633
16704W        W87304  23.684   9.624   4.747
16705W        W87305  26.777  22.739  14.812
16706W        W87306  12.779   5.185   2.637
16707W        W87307   6.841  44.229   3.337
16708W        W87308  39.072  41.395   0.335
16709W        W87309  14.319  10.063   3.732
16710W        W87310  35.079  34.732  13.855
16711W        W87311  29.582  35.996   2.746
16712W        W87312   9.259  16.825  12.089
16713W        W87313  18.355  32.310   3.108
16714W        W87314  21.032  21.184  12.093
16715W        W87315  34.342  31.976   2.723
16716W        W87316  19.646  38.970  12.509
16717W        W87317  32.063  21.377   4.543
16718W        W87318  18.768   5.665  13.931
16719W        W87319  34.351  29.067  11.640
16720W        W87320  31.571  14.461   1.168
16721W        W87321  38.864  14.413  12.121
16722W        W87322  38.815  44.423  14.766
16723W        W87323  28.549  38.878   0.860
16724W        W87324   9.311  34.637  12.623
16725W        W87325  40.332  42.822   9.901
16726W        W87326  19.648  10.716   2.211
16727W        W87327   7.702  41.498   4.538
16728W        W87328   2.529  20.300  14.892
16729W        W87329   2.013  42.521   3.675
16730W        W87330  40.795  30.369  14.843
16731W        W87331  12.392   6.696   1.773
16732W        W87332   7.685  23.315  14.733
16733W        W87333   3.915  44.826  11.974
16734W        W87334  18.223  15.615   1.438
16735W        W87335  21.554  21.735   2.694
16736W        W87336  16.244  28.011  12.085
16737W        W87337   5.921  19.134   3.091
16738W        W87338  24.445  44.370   2.089
16739W        W87339  22.019  42.767   0.723
16740W        W87340  25.389  14.886   4.218
16741W        W87341  30.317  19.004  10.695
16742W        W87342  27.698   0.393  10.511
16743W        W87343  31.333  25.647   0.051
16744W        W87344  13.322  41.458  12.130
16745W        W87345  23.639  13.649  12.105
16746W        W87346   7.699   0.016  10.710
16747W        W87347  39.550  25.539  12.455
16748W        W87348  26.754  23.706  14.778
16749W        W87349  37.893  34.135   4.568
16750W        W87350  23.491  42.887  12.428
16751W        W87351  19.871  41.900   0.970
16752W        W87352  17.308   5.309   4.620
16753W        W87353   3.918   6.211   0.950
16754W        W87354   1.326  33.406   0.355
16755W        W87355  38.842  16.214   4.455
16756W        W87356  30.131   4.429   1.347
16757W        W87357  17.090  12.226   4.311
16758W        W87358  23.958  18.835   1.013
16759W        W87359   7.702  39.475  14.625
16760W        W87360   1.793  43.008  14.231
16761W        W87361  17.545   3.937   4.577
16762W        W87362   4.290  26.365   1.384
16763W        W87363   2.502  12.071  12.507
16764W        W87364  39.554  11.215   2.350
16765W        W87365  35.937  44.470  14.002
16766W        W87366  40.747  40.102   2.592
16767W        W87367  42.926  39.207  12.351
16768W        W87368  33.471  26.679   0.789
16769W        W87369   9.483  44.717   3.042
16770W        W87370   3.310   9.764  13.397
16771W        W87371  14.565  32.443   3.992
16772W        W87372  37.231   8.287  14.369
16773W        W87373  16.662  10.883   3.696
16774W        W87374  16.837  43.057  13.411
16775W        W87375  40.983  16.355  13.456
16776W        W87376  15.715  14.294   3.652
16777W        W87377  22.420  38.546  10.056
16778W        W87378  22.640  35.357  13.964
16779W        W87379  22.758  22.395  14.100
16780W        W87380  27.334   3.726  14.319
16781W        W87381  33.007  11.650  14.819
16782W        W87382   8.948  13.803  11.038
16783W        W87383  22.730  31.400  13.026
16784W        W87384  31.650  40.373   4.052
16785W        W87385  29.429  39.448  11.290
16786W        W87386  25.594   6.698  12.845
16787W        W87387  18.404   2.354   2.738
16788W        W87388  20.245  32.050   1.624
16789W        W87389  38.348  37.999   0.896
16790W        W87390   6.674  37.055   3.628
16791W        W87391  31.607  32.004   3.291
16792W        W87392  35.510   8.745  14.773
16793W        W87393  42.983  29.003   2.426
16794W        W87394  26.986  21.165  11.500
16795W        W87395  44.844  10.115  14.457
16796W        W87396  24.949   9.233  10.231
16797W        W87397  18.497  30.117   1.295
16798W        W87398  44.769  30.262   3.726
16799W        W87399  26.579  20.492  13.000
16800W        W87400  42.881   1.030  14.664
16801W        W87401  26.476  12.605   1.544
16802W        W87402  29.906  43.888  12.143
16803W        W87403  19.196  36.084  12.851
16804W        W87404  34.386  15.238   0.362
16805W        W87405  13.463  30.511  10.341
16806W        W87406  19.374  33.178   4.219
16807W        W87407  26.493  22.229   5.010
16808W        W87408  19.124  11.239   1.330
16809W        W87409  43.413  14.730  11.131
16810W        W87410  37.149   7.380   2.173
16811W        W87411   1.212  35.140   1.436
16812W        W87412  19.732  32.447  13.370
16813W        W87413   2.465  27.758  13.078
16814W        W87414   3.816  42.338  10.428
16815W        W87415  30.977  26.057  13.353
16816W        W87416  19.542  13.605   0.397
16817W        W87417   6.853  12.366   3.694
16818W        W87418  34.100  11.227   0.925
16819W        W87419  18.850  33.108   4.155
16820W        W87420  17.872  33.387  14.472
16821W        W87421  31.239   4.120   4.149
16822W        W87422   4.309   0.822   0.854
16823W        W87423  35.120  44.758   0.925
16824W        W87424  22.786  26.184   4.613
16825W        W87425  41.060  20.342   4.727
16826W        W87426  34.672  23.002  12.089
16827W        W87427  42.707  31.582   1.172
16828W        W87428  22.937  14.764  11.234
16829W        W87429  44.267  22.800  13.860
16830W        W87430  23.692   6.127   1.689
16831W        W87431   7.740   5.379  11.446
16832W        W87432  37.619  33.011  13.061
16833W        W87433  40.076   0.757   1.649
16834W        W87434  39.592   0.985  11.926
16835W        W87435  42.885  25.937  14.937
16836W        W87436  26.768  37.512   0.946
16837W        W87437  38.276  31.035   3.358
16838W        W87438   7.771  25.786  11.580
16839W        W87439  32.527  24.664   4.702
16840W        W87440   7.511   2.444   1.173
16841W        W87441  14.200  17.704   4.089
16842W        W87442  39.118  29.643  11.747
16843W        W87443  31.528  35.196   4.590
16844W        W87444  35.035  21.465  12.968
16845W        W87445  18.062  41.441   0.823
16846W        W87446  38.638  22.166  12.868
16847W        W87447  39.098  19.929  11.475
16848W        W87448   3.925  40.689  11.343
16849W        W87449  27.041  30.191  11.262
16850W        W87450  24.821  17.818   1.763
16851W        W87451   0.336  43.001   3.346
16852W        W87452  20.715  44.454   1.009
16853W        W87453  29.212  12.447  14.405
16854W        W87454  27.675  30.955  13.728
16855W        W87455  34.135  29.877  11.064
16856W        W87456  43.582  38.319   3.630
16857W        W87457  31.476  11.438  12.859
16858W        W87458  44.501  10.337  14.863
16859W        W87459   5.306  43.537   0.369
16860W        W87460   4.830  18.231  12.001
16861W        W87461  33.408  12.883   1.750
16862W        W87462  40.176  28.893  11.884
16863W        W87463  16.052   5.237   3.295
16864W        W87464  19.758  31.200  14.104
16865W        W87465  36.357  32.938  12.452
16866W        W87466  43.587  42.893  14.915
16867W        W87467  41.258  24.140   4.713
16868W        W87468  43.865  14.575  12.043
16869W        W87469  42.038  17.142   4.723
16870W        W87470  13.271   9.443  12.495
16871W        W87471  36.058  13.875  13.423
16872W        W87472  20.717  34.858  12.058
16873W        W87473  37.350   9.186   1.796
16874W        W87474   8.770   8.629   3.187
16875W        W87475   4.710  43.327  12.786
16876W        W87476  21.409  44.823  13.966
16877W        W87477  28.492   8.890  11.516
16878W        W87478   7.852  26.572   1.819
16879W        W87479   5.719  37.984   3.051
16880W        W87480  24.170  33.838  10.715
16881W        W87481  30.848  19.832   0.031
16882W        W87482  16.055   2.152   1.953
16883W        W87483  12.612  14.581   4.593
16884W        W87484  25.564  22.188  14.002
16885W        W87485  20.640  32.364   4.322
16886W        W87486   2.821  32.597   4.334
16887W        W87487   9.450  36.030   1.323
16888W        W87488  21.513   3.985   4.248
16889W        W87489  13.255  17.276   0.726
16890W        W87490   4.547  10.787   3.560
16891W        W87491  44.531  35.502  12.979
16892W        W87492  14.349   4.054   1.506
16893W        W87493  11.854   0.222  13.696
16894W        W87494  39.922  33.766  12.189
16895W        W87495   5.643   1.389  12.519
16896W        W87496   5.392  31.970   2.339
16897W        W87497   8.374   1.356   1.212
16898W        W87498  10.502  31.744   4.168
16899W        W87499  32.648  16.826  12.821
16900W        W87500  17.283   7.262  12.057
16901W        W87501  22.518  13.591   1.780
16902W        W87502  43.370   7.638   3.321
16903W        W87503  34.308  33.115  14.930
16904W        W87504  31.383  10.190   4.523
16905W        W87505   5.675   3.614  12.743
16906W        W87506  39.355  17.844  14.212
16907W        W87507  25.792  40.034  14.933
16908W        W87508  17.969   9.188   2.856
16909W        W87509  17.257  40.988   0.875
16910W        W87510  34.797  34.887   4.701
16911W        W87511   4.134  20.934   2.798
16912W        W87512  37.363  31.234   2.266
16913W        W87513  33.903  35.087  14.448
16914W        W87514   2.832  27.168   2.505
16915W        W87515  30.018  43.063   2.691
16916W        W87516   1.997   5.408   3.097
16917W        W87517  14.637  29.841  12.313
16918W        W87518  44.019  37.135  14.389
16919W        W87519  29.480  27.394  11.660
16920W        W87520  18.745  10.603  12.373
16921W        W87521  13.831   3.313  14.293
16922W        W87522   0.388  29.875   2.708
16923W        W87523  36.338  29.158   1.049
16924W        W87524  30.628  10.137   1.836
16925W        W87525   8.424   4.551  10.696
16926W        W87526   8.686   3.269   2.409
16927W        W87527  20.244  32.235  13.340
16928W        W87528  25.596  36.833   3.439
16929W        W87529  29.553  14.275  11.147
16930W        W87530  32.031  24.513   4.773
16931W        W87531   7.940  22.065   2.021
16932W        W87532  30.878  17.729  14.771
16933W        W87533  15.301  33.626   2.145
16934W        W87534  28.123  35.810   1.884
16935W        W87535  29.571  39.356   2.227
16936W        W87536  15.586  35.321   0.964
16937W        W87537  17.680  10.222  10.959
16938W        W87538  13.159  31.021  12.610
16939W        W87539  43.881   3.615  10.544
16940W        W87540  44.451  42.614  10.916
16941W        W87541  35.277   6.668  14.667
16942W        W87542  29.393  14.328  10.430
16943W        W87543  41.776  34.995  12.479
16944W        W87544  41.826  21.232   4.528
16945W        W87545  17.752  25.156  12.983
16946W        W87546  28.470  33.135  13.815
16947W        W87547   8.698  24.899   0.461
16948W        W87548   6.287  33.173   0.439
16949W        W87549  36.774  29.977   0.979
16950W        W87550   6.750  40.359   0.777
16951W        W87551  29.954   4.641   0.901
16952W        W87552  37.986  30.425  14.908
16953W        W87553  44.193   6.833  11.195
16954W        W87554  21.459   3.249  11.525
16955W        W87555   2.545  24.044   2.846
16956W        W87556   6.217  14.961   4.348
16957W        W87557  37.644  17.050  14.595
16958W        W87558  37.430  44.276   0.037
16959W        W87559  29.255   0.840   1.850
16960W        W87560   5.924  13.935  13.616
16961W        W87561  29.470   0.456   1.422
16962W        W87562  28.234  10.482   4.587
16963W        W87563  20.288  18.030  14.497
16964W        W87564  31.191  37.118   0.233
16965W        W87565  23.507  17.600   1.177
16966W        W87566  21.069   8.903  13.242
16967W        W87567  21.544  12.601  11.134
16968W        W87568  41.365  11.352   1.895
16969W        W87569  39.117   4.191   0.987
16970W        W87570  15.792  39.835   4.870
16971W        W87571  38.318   8.250   4.440
16972W        W87572   2.195  20.894  13.445
16973W        W87573  10.663  28.437  13.516
16974W        W87574  10.666  17.115   1.456
16975W        W87575  43.447  31.573   4.582
16976W        W87576  20.152  38.468   4.064
16977W        W87577   5.711  28.959   0.042
16978W        W87578  18.568  12.150  11.602
16979W        W87579   0.161  36.173  12.891
16980W        W87580   0.798   5.994  13.047
16981W        W87581  27.213  36.655   0.823
16982W        W87582   7.913   8.837  11.918
16983W        W87583  29.344  24.951   5.024
16984W        W87584  30.401   7.166  10.606
16985W        W87585  27.770  12.948   0.293
16986W        W87586  44.547  36.768   2.171
16987W        W87587  38.286  14.588   2.472
16988W        W87588   7.033  26.701  12.557
16989W        W87589  11.672  13.659  11.575
16990W        W87590  12.411  43.049   0.444
16991W        W87591  25.252   0.255   0.923
16992W        W87592  25.957  44.890  10.240
16993W        W87593  36.436  17.631   4.363
16994W        W87594   5.993  38.538  14.749
16995W        W87595  25.374   7.888  12.378
16996W        W87596   4.725   4.859   5.027
16997W        W87597  17.925  36.597  13.569
16998W        W87598  43.998  10.627   3.304
16999W        W87599  26.622  30.143   1.701
17000W        W87600  26.634  21.749   4.066
17001W        W87601  44.931  24.020   1.940
17002W        W87602  24.111  25.258  12.549
17003W        W87603  20.509  11.688   2.234
17004W        W87604   8.898  38.403   4.618
17005W        W87605  11.803  31.072  13.842
17006W        W87606  32.004  30.383  14.152
17007W        W87607  16.601  29.939  12.870
17008W        W87608   1.855   7.949  10.983
17009W        W87609  18.026  37.574   4.154
17010W        W87610  34.833  40.057   1.347
17011W        W87611  14.222  35.802   4.471
17012W        W87612  15.759  19.426   4.972
17013W        W87613  15.736  27.848  10.738
17014W        W87614  33.187  20.194   3.509
17015W        W87615   7.237  38.895   1.929
17016W        W87616  37.838  18.598   1.409
17017W        W87617  29.022  44.675   3.040
17018W        W87618  10.883   6.624   3.651
17019W        W87619  35.953  26.942  14.481
17020W        W87620   9.105  16.524   2.713
17021W        W87621  21.622   6.617   2.434
17022W        W87622   4.682   7.464  11.988
17023W        W87623  42.910   4.628   1.322
17024W        W87624  41.536  26.091  13.226
17025W        W87625  39.324  32.368   4.492
17026W        W87626  36.054  14.974  10.359
17027W        W87627  26.439  31.865  10.699
17028W        W87628  43.036  16.559  10.661
17029W        W87629  39.917  37.303   0.437
17030W        W87630   5.138  38.127   1.803
17031W        W87631   8.567   1.713   4.850
17032W        W87632  35.951  27.865  11.586
17033W        W87633  30.803  23.865  11.935
17034W        W87634   8.224  21.279  12.538
17035W        W87635  18.581  44.546  13.131
17036W        W87636  23.599  11.114   1.859
17037W        W87637  39.993  15.282   3.829
17038W        W87638  43.420   7.569  11.696
17039W        W87639  42.720  42.873   4.172
17040W        W87640  24.424   8.179   0.202
17041W        W87641   0.972  34.129  11.441
17042W        W87642  22.235   2.667  13.462
17043W        W87643   5.973  39.530   0.457
17044W        W87644  25.438  40.042   3.266
17045W        W87645   2.913  38.945   2.595
17046W        W87646  38.642   2.365  12.020
17047W        W87647  40.026  13.082  10.582
17048W        W87648  31.967  36.259   1.043
17049W        W87649  44.501  38.997   0.453
17050W        W87650  25.086  21.715   2.181
17051W        W87651  38.153  42.791  13.034
17052W        W87652  34.101  12.893   4.507
17053W        W87653  30.093  43.766  13.081
17054W        W87654  36.677  38.265   1.513
17055W        W87655  35.919   0.670   1.088
17056W        W87656   1.301  35.999   0.387
17057W        W87657  26.677  29.383  11.789
17058W        W87658  32.787  10.157  12.334
17059W        W87659  38.802  35.868   3.816
17060W        W87660  11.259  32.121  12.121
17061W        W87661  22.677  37.444   1.217
17062W        W87662   7.906   7.340   0.916
17063W        W87663  31.965  20.451   2.696
17064W        W87664  14.275  33.964  12.042
17065W        W87665  13.658  35.944  12.172
17066W        W87666   4.833  16.338   1.664
17067W        W87667  41.095  20.426  12.014
17068W        W87668  29.443  29.492  12.138
17069W        W87669  12.654  17.796  12.511
17070W        W87670  11.593   7.755   1.860
17071W        W87671  27.647  13.104   3.789
17072W        W87672  16.221  36.636  14.745
17073W        W87673  34.416   3.791  10.667
17074W        W87674  35.488  35.928   3.141
17075W        W87675  40.729  23.409   3.806
17076W        W87676  44.218  24.465  14.809
17077W        W87677  21.247  21.906  11.032
17078W        W87678  11.323  44.913   3.325
17079W        W87679  27.145  35.183  13.251
17080W        W87680  20.783  44.008  10.773
17081W        W87681  43.971   7.203   4.402
17082W        W87682  39.486  23.303   0.049
17083W        W87683   7.260   6.257  11.954
17084W        W87684  20.547  25.481   1.665
17085W        W87685  12.278  36.802  12.122
17086W        W87686  39.142  35.576  10.690
17087W        W87687   4.776   8.511  13.516
17088W        W87688  32.391  41.499   4.279
17089W        W87689   0.280  40.890  14.870
17090W        W87690  35.992   5.639  11.345
17091W        W87691  12.923  43.266   3.620
17092W        W87692   6.458  33.085   1.762
17093W        W87693  12.116  41.909   4.900
17094W        W87694   1.853  12.711  14.928
17095W        W87695  41.078  42.024   3.320
17096W        W87696  25.241  37.288  14.713
17097W        W87697  19.054  22.731  11.959
17098W        W87698  42.036  22.273   4.153
17099W        W87699  10.103  40.516   5.093
17100W        W87700  37.424  13.331  10.712
17101W        W87701  31.518   4.373   2.576
17102W        W87702  23.755   1.668  12.022
17103W        W87703  40.880  21.745  12.459
17104W        W87704  40.938  25.689   2.416
17105W        W87705   4.216   4.787   4.207
17106W        W87706  29.080  27.902  14.964
17107W        W87707  19.591  23.761  11.122
17108W        W87708  31.871  13.822   4.164
17109W        W87709  20.130   5.781   0.115
17110W        W87710  33.338  31.047   4.307
17111W        W87711  35.545   0.738   2.319
17112W        W87712   7.256  24.678  12.577
17113W        W87713  30.653  24.397   1.745
17114W        W87714  43.860  44.019  11.520
17115W        W87715  29.127  20.439   0.273
17116W        W87716  15.167   2.894   4.784
17117W        W87717  35.479  11.582   3.240
17118W        W87718  25.801  13.376   2.850
17119W        W87719  19.205  42.814   2.391
17120W        W87720  13.457  27.779  11.377
17121W        W87721   9.362  26.689  14.282
17122W        W87722  10.277  28.335  14.096
17123W        W87723  25.455  34.173   0.561
17124W        W87724  12.237  19.097  12.604
17125W        W87725   7.178  23.587   2.291
17126W        W87726  13.970  41.557   1.378
17127W        W87727  42.154   0.872   3.861
17128W        W87728  44.379  31.543  12.165
17129W        W87729  26.144  34.035   3.347
17130W        W87730  29.532   5.113  10.725
17131W        W87731  35.007  14.227  11.198
17132W        W87732  21.065   9.455   3.780
17133W        W87733  27.386   8.847   2.560
17134W        W87734  23.241  35.453  13.134
17135W        W87735  38.895  43.205   0.710
17136W        W87736   9.883   5.379  11.632
17137W        W87737   6.790  41.267   1.153
17138W        W87738  22.825  17.107   4.163
17139W        W87739   6.798   0.017   4.352
17140W        W87740  40.160  34.842  10.372
17141W        W87741  42.942   7.688  11.459
17142W        W87742  16.751  29.184  12.435
17143W        W87743  32.269  10.613  11.427
17144W        W87744  22.252  33.263  11.988
17145W        W87745  28.670  41.976   1.946
17146W        W87746   4.875  34.149  12.334
17147W        W87747  11.243  27.414   3.261
17148W        W87748  22.959  28.552   2.120
17149W        W87749   5.166  40.887   2.391
17150W        W87750  10.647  36.683   4.677
17151W        W87751  24.052  43.067   2.233
17152W        W87752   7.411  26.848  12.932
17153W        W87753  42.438  35.050   3.588
17154W        W87754  32.152   9.226  14.004
17155W        W87755  21.362  11.788  10.585
17156W        W87756  18.723  13.417  10.248
17157W        W87757  26.467  22.728   0.248
17158W        W87758  36.578  35.974  14.889
17159W        W87759  37.609   0.769  12.061
17160W        W87760  20.601   9.883   1.575
17161W        W87761  35.418  26.231   4.209
17162W        W87762  30.874  36.586  10.738
17163W        W87763  30.853   8.899  11.763
17164W        W87764  31.405  16.643  10.934
17165W        W87765  37.942  16.789  11.454
17166W        W87766   9.826  43.735   4.035
17167W        W87767  17.342   3.398  12.460
17168W        W87768  44.302  20.325   3.203
17169W        W87769  25.178   8.164   0.891
17170W        W87770  29.925  24.274   4.917
17171W        W87771   6.878   5.889  12.008
17172W        W87772  38.789  26.249  13.840
17173W        W87773  30.365  12.847   0.484
17174W        W87774  15.059  31.239  12.038
17175W        W87775  29.941  32.412   2.771
17176W        W87776  20.201  38.113   2.716
17177W        W87777   5.474  10.166  10.810
17178W        W87778  33.878   7.586   2.802
17179W        W87779   7.097  29.977  10.664
17180W        W87780   1.322  17.941  10.891
17181W        W87781  15.249   0.686  14.337
17182W        W87782  27.191  14.092   3.333
17183W        W87783  14.215  37.516  14.788
17184W        W87784   7.823  34.689  14.934
17185W        W87785  37.804  43.835  12.076
17186W        W87786   1.955  20.290   2.912
17187W        W87787  32.387  25.699   3.689
17188W        W87788  22.159  12.815   0.286
17189W        W87789   9.327  28.078   2.632
17190W        W87790  16.510  39.964  10.999
17191W        W87791   9.189  29.298   4.800
17192W        W87792   3.245  26.353   2.710
17193W        W87793  19.403  31.408   0.478
17194W        W87794  42.559  16.495  14.443
17195W        W87795  37.825  14.015  12.910
17196W        W87796   3.919  40.427   2.170
17197W        W87797   3.496   3.898  10.775
17198W        W87798  43.867  33.213  11.539
17199W        W87799  24.283   1.454   1.447
17200W        W87800  25.554  19.526   4.538
17201W        W87801  33.522  19.994  14.954
17202W        W87802  14.315  10.870  13.434
17203W        W87803  27.511   8.602   3.246
17204W        W87804   8.453  42.821   4.940
17205W        W87805  33.047  23.716  14.554
17206W        W87806   2.736  36.074  11.581
17207W        W87807   7.308  26.542   1.562
17208W        W87808   7.679  22.929  12.737
17209W        W87809  44.529  23.197  11.636
17210W        W87810  38.337  31.461   3.912
17211W        W87811  34.322   1.965   4.180
17212W        W87812  38.542  26.536  10.500
17213W        W87813  11.208  23.047  10.476
17214W        W87814  29.871  39.820   1.357
17215W        W87815  40.979  44.041  10.604
17216W        W87816   5.318  35.596  13.505
17217W        W87817  38.817  19.165   2.723
17218W        W87818  29.599  44.933   0.265
17219W        W87819  13.654  28.674   0.318
17220W        W87820  31.868  38.535  12.464
17221W        W87821  17.760  30.365   1.932
17222W        W87822  16.152  29.651  12.967
17223W        W87823  29.946   5.974   3.350
17224W        W87824  43.788  10.432  11.378
17225W        W87825  36.462   6.193  10.788
17226W        W87826  24.180  22.193  13.583
17227W        W87827  25.945  39.439  12.833
17228W        W87828  44.080  13.724  13.425
17229W        W87829  12.139  40.802   4.062
17230W        W87830  44.235  33.465  12.436
17231W        W87831  30.520  12.093  14.792
17232W        W87832  39.365  13.394  12.628
17233W        W87833  11.785   1.600  14.425
17234W        W87834  28.586   5.935  14.790
17235W        W87835   1.487   5.413   3.107
17236W        W87836  31.641  25.701  13.850
17237W        W87837  23.352  30.865   4.190
17238W        W87838  44.595  40.393  13.423
17239W        W87839  33.441  24.753   4.525
17240W        W87840   9.937  13.582  10.966
17241W        W87841  42.397  21.069  13.635
17242W        W87842   9.931   1.766  10.676
17243W        W87843   0.897   9.595  14.055
17244W        W87844   0.182  42.723  11.963
17245W        W87845  30.647  23.261   0.285
17246W        W87846  33.432  25.285   0.328
17247W        W87847  24.199  31.145   4.037
17248W        W87848  18.317  21.845  13.525
17249W        W87849  29.529  26.056   4.040
17250W        W87850   7.620  39.396   3.648
17251W        W87851  21.316  15.277  13.253
17252W        W87852  19.120  33.962   2.255
17253W        W87853  41.977  44.872  12.113
17254W        W87854   4.982   8.197  12.991
17255W        W87855  21.812  38.864  13.401
17256W        W87856  42.358  23.983  12.622
17257W        W87857  36.578   7.759   1.822
17258W        W87858  21.164  42.667  12.996
17259W        W87859  14.734   8.907   2.534
17260W        W87860  37.102  38.836  10.123
17261W        W87861  31.009  27.050   1.413
17262W        W87862  25.295  39.457  14.269
17263W        W87863  30.666  18.892  11.618
17264W        W87864  22.008  26.504   1.325
17265W        W87865  13.745   3.328  14.952
17266W        W87866  16.809   2.254   4.703
17267W        W87867  23.735  39.358  13.389
17268W        W87868  17.110   1.723   2.757
17269W        W87869  27.481  17.162  13.068
17270W        W87870  27.696  44.598  13.958
17271W        W87871  42.004  33.008  14.912
17272W        W87872   8.112  36.465  14.754
17273W        W87873  15.275  33.007   2.907
17274W        W87874  36.960  11.994   1.429
17275W        W87875  35.116  32.116   3.165
17276W        W87876  12.085  19.307  13.057
17277W        W87877  10.284   6.248  13.482
17278W        W87878  21.222  12.686  10.734
17279W        W87879  11.797  35.415   3.923
17280W        W87880  21.661   9.094   2.138
17281W        W87881  17.592  37.973   4.623
17282W        W87882  31.416  10.941  12.877
17283W        W87883   2.805  14.265  14.009
17284W        W87884   6.500  17.748   0.070
17285W        W87885  32.096   8.335  12.988
17286W        W87886  42.763  26.584   0.996
17287W        W87887  16.448   4.341   0.982
17288W        W87888  31.146  25.228   0.309
17289W        W87889   0.351  27.458   1.817
17290W        W87890  25.698  12.411  10.269
17291W        W87891  28.976   4.473   1.470
17292W        W87892  21.761  38.161   3.274
17293W        W87893   6.148   9.800   1.351
17294W        W87894   3.282  23.337   2.744
17295W        W87895  16.490  29.918  14.812
17296W        W87896   2.886  43.093   0.765
17297W        W87897  29.976   0.802   2.889
17298W        W87898   0.837  34.861   2.315
17299W        W87899  13.577  13.083   0.698
17300W        W87900   5.384  17.976   3.839
17301W        W87901  27.869  44.655   1.804
17302W        W87902  17.795   4.451   0.494
17303W        W87903  28.071  10.787  10.877
17304W        W87904  28.614  37.081   0.927
17305W        W87905  19.022   4.521   2.914
17306W        W87906  44.834  19.006  12.618
17307W        W87907  29.979   1.168  14.970
17308W        W87908  18.967  17.683   4.662
17309W        W87909  39.299  20.265   3.196
17310W        W87910  28.038  28.467   1.172
17311W        W87911  42.961  33.575   0.414
17312W        W87912   2.927  10.124  14.010
17313W        W87913  31.653  19.828  12.550
17314W        W87914  38.370   0.835   0.962
17315W        W87915   9.640  15.871   2.360
17316W        W87916  25.569   0.496   1.253
17317W        W87917  15.660  15.659  12.335
17318W        W87918  13.203  12.908  11.390
17319W        W87919   5.318   3.507  10.614
17320W        W87920  23.717  33.059   4.563
17321W        W87921  44.540  22.919  12.058
17322W        W87922  26.767  11.129  12.357
17323W        W87923   4.842  38.570   1.880
17324W        W87924  42.858  13.246   1.856
17325W        W87925  19.735  14.545  13.660
17326W        W87926  41.534  40.525  12.002
17327W        W87927  30.391  23.164  14.017
17328W        W87928  19.069   1.780  12.191
17329W        W87929  32.649  14.371   3.641
17330W        W87930   4.164  27.605  12.013
17331W        W87931  14.763  12.530   4.968
17332W        W87932  42.483  23.940  13.116
17333W        W87933  20.671  28.218   4.013
17334W        W87934   1.192  36.404  12.191
17335W        W87935  24.978  25.760  11.879
17336W        W87936   7.720  23.273   4.716
17337W        W87937  37.017  39.454   4.856
17338W        W87938  41.567  17.166   0.696
17339W        W87939   6.728  26.496   2.762
17340W        W87940  12.723  36.464   1.072
17341W        W87941  17.008  21.771   3.715
17342W        W87942  36.929   0.962   3.790
17343W        W87943   2.980  10.645  14.197
17344W        W87944   8.232  12.310   1.704
17345W        W87945   7.962  13.156  12.606
17346W        W87946  40.430  18.773  14.294
17347W        W87947  35.404   1.010   1.899
17348W        W87948   1.917  32.416  14.360
17349W        W87949   6.850  41.116  11.465
17350W        W87950  17.348  12.106   1.053
17351W        W87951  24.715  37.413   0.716
17352W        W87952  16.862  41.961   4.992
17353W        W87953  15.539  23.730  13.042
17354W        W87954  40.907  16.221   1.779
17355W        W87955  36.809  43.514  14.122
17356W        W87956  17.295  33.962  14.927
17357W        W87957  36.897   9.800   2.364
17358W        W87958  25.427  16.714   3.715
17359W        W87959  34.960   5.638  12.158
17360W        W87960   6.875  16.360   2.858
17361W        W87961  29.870  22.117  10.979
17362W        W87962  41.869  30.198   2.883
17363W        W87963  16.586  14.780  12.917
17364W        W87964   4.796  16.996   0.720
17365W        W87965  15.853  12.874  11.125
17366W        W87966  27.334   0.244   4.151
17367W        W87967  35.048  12.519   4.127
17368W        W87968  26.240   4.906   1.274
17369W        W87969   6.635   2.433  12.472
17370W        W87970   8.114   1.707   0.915
17371W        W87971  18.571  19.575   0.805
17372W        W87972  32.309  35.957  10.021
17373W        W87973  44.459  10.352   2.622
17374W        W87974   2.410  43.964   3.139
17375W        W87975  30.633   6.238  12.519
17376W        W87976  32.961  31.278  10.710
17377W        W87977  22.045  38.856   3.727
17378W        W87978  30.029  15.606   3.451
17379W        W87979  15.810   2.709  13.784
17380W        W87980   0.941  14.077  13.399
17381W        W87981  43.323  16.137   3.400
17382W        W87982  44.774  13.851   0.771
17383W        W87983  17.287   0.817   4.600
17384W        W87984  22.740  13.097   4.911
17385W        W87985  13.949  38.284   2.281
17386W        W87986   8.902   1.032   3.741
17387W        W87987  41.782   4.937   0.240
17388W        W87988  20.566  38.141   3.802
17389W        W87989  26.457   6.198   0.993
17390W        W87990   5.018  38.976  11.111
17391W        W87991  15.231  40.302   4.245
17392W        W87992  32.084   7.729   2.448
17393W        W87993  35.488  13.595  12.041
17394W        W87994  43.298   6.827  14.555
17395W        W87995  33.922   6.921   4.891
17396W        W87996   1.899   2.072   1.099
17397W        W87997   6.399  32.376  11.197
17398W        W87998  31.996  32.555   4.161
17399W        W87999  21.965  17.040  13.045
17400W        W88000   7.056   1.465  11.608
17401W        W88001  29.949   2.113   3.277
17402W        W88002  39.837  12.401  12.484
17403W        W88003  32.581   1.373  14.508
17404W        W88004  17.658  33.861   0.724
17405W        W88005   8.454  25.986   1.336
17406W        W88006   5.754  17.375   1.294
17407W        W88007  20.653  41.878  13.901
17408W        W88008  13.438  27.921   2.249
17409W        W88009   9.383  36.383  10.737
17410W        W88010  30.176  15.099  11.570
17411W        W88011  15.727   8.127  11.964
17412W        W88012  33.777  33.346  14.107
17413W        W88013  27.955  39.581   2.700
17414W        W88014  44.212  18.153   1.223
17415W        W88015  36.511   9.765   2.718
17416W        W88016  15.349  26.995   2.810
17417W        W88017  16.264  33.672  12.193
17418W        W88018  28.919  34.310  14.847
17419W        W88019   2.241  32.024  10.608
17420W        W88020  28.053  18.822  13.016
17421W        W88021  38.452  36.639  11.888
17422W        W88022   8.095  34.441  13.064
17423W        W88023  24.998  25.754   3.565
17424W        W88024  29.750  13.106   3.177
17425W        W88025  18.277  27.077   3.094
17426W        W88026   7.206  26.910   0.795
17427W        W88027  41.446  38.984  13.870
17428W        W88028  29.083  37.912   0.915
17429W        W88029  21.666  44.527   2.219
17430W        W88030  12.793  44.979  13.081
17431W        W88031  13.399   7.666  10.735
17432W        W88032   4.401   6.282   1.236
17433W        W88033  22.728  22.200   4.045
17434W        W88034  32.939   1.313  11.150
17435W        W88035  34.939  36.207  12.358
17436W        W88036  33.433  24.545   2.725
17437W        W88037  41.787  37.466   3.183
17438W        W88038  37.472  19.196   4.430
17439W        W88039  43.016  22.768  13.075
17440W        W88040  35.481   1.839   2.163
17441W        W88041   7.746  25.493  14.389
17442W        W88042  23.971  28.926   4.278
17443W        W88043  12.193  26.593   0.025
17444W        W88044  39.982  20.479  13.357
17445W        W88045  33.687   8.630   2.353
17446W        W88046  35.418   2.263  10.534
17447W        W88047  44.825  30.142   4.761
17448W        W88048   0.466  43.992   0.835
17449W        W88049  25.606  34.918  11.481
17450W        W88050   6.752  26.686  14.893
17451W        W88051  21.201  35.004  10.314
17452W        W88052  18.152  32.829  11.321
17453W        W88053   1.880  17.838   2.852
17454W        W88054  40.797  15.101  10.654
17455W        W88055   4.645  22.471   4.526
17456W        W88056  20.400  41.084  14.096
17457W        W88057  33.291  29.498   2.192
17458W        W88058  40.824  28.169  13.596
17459W        W88059  36.971   1.698  15.000
17460W        W88060  10.858  29.181   1.645
17461W        W88061  26.600  27.415   4.668
17462W        W88062  34.398  37.455  10.707
17463W        W88063  42.467  36.937  12.848
17464W        W88064  11.389  14.144  11.839
17465W        W88065  17.684  13.164  12.787
17466W        W88066  27.690  26.973   2.742
17467W        W88067   3.928   2.891  12.518
17468W        W88068  25.534  31.693   2.231
17469W        W88069  28.973  19.999  14.006
17470W        W88070   8.088   0.504   0.284
17471W        W88071  25.145   8.952  10.628
17472W        W88072   5.164  36.510  13.756
17473W        W88073  39.477  36.548  14.990
17474W        W88074  23.764  39.946  14.821
17475W        W88075  26.104  35.028  14.377
17476W        W88076   3.932  17.312   1.193
17477W        W88077  14.702  32.657  12.135
17478W        W88078  18.601  31.976   2.784
17479W        W88079  12.661  11.860  11.990
17480W        W88080   5.251  30.331  14.427
17481W        W88081  40.619  43.306  11.240
17482W        W88082  28.979  38.645   2.651
17483W        W88083   6.776  36.344   1.025
17484W        W88084  42.344   1.902  12.020
17485W        W88085  21.495   6.595  12.838
17486W        W88086   9.447  25.466  11.410
17487W        W88087  12.312  13.917   2.259
17488W        W88088  29.906  28.104   2.164
17489W        W88089  28.317  10.191   5.020
17490W        W88090  12.860   6.449  12.965
17491W        W88091   4.497  25.875   2.751
17492W        W88092  18.326   0.087  11.560
17493W        W88093  29.703  40.160   2.672
17494W        W88094  17.023  31.604   5.020
17495W        W88095  34.310  16.567   0.971
17496W        W88096  32.880  27.573   3.148
17497W        W88097   6.319  13.764   4.250
17498W        W88098  30.796  41.790   4.243
17499W        W88099   9.530   9.233   2.985
17500W        W88100  26.513  24.218   0.286
17501W        W88101  32.538  27.902  11.358
17502W        W88102  12.812  15.932  14.906
17503W        W88103  36.510  21.455  14.789
17504W        W88104  30.952  15.250  14.407
17505W        W88105   1.629  39.122  14.916
17506W        W88106  18.002   6.667  13.445
17507W        W88107  41.731  37.734   4.155
17508W        W88108  40.217   9.231  11.929
17509W        W88109  28.681   0.762   1.874
17510W        W88110  15.211  32.538   1.228
17511W        W88111   9.607  33.065  10.670
17512W        W88112  33.624  15.891   1.227
17513W        W88113   6.890   0.443  14.801
17514W        W88114  24.009  33.077   0.394
17515W        W88115  27.528  24.724   3.770
17516W        W88116  41.945   7.721  10.839
17517W        W88117  24.587  32.592   0.896
17518W        W88118  39.327  12.562   3.154
17519W        W88119  11.351  28.628  11.095
17520W        W88120  14.470  36.852  11.420
17521W        W88121  33.299  38.367  11.452
17522W        W88122  35.833  12.599  14.738
17523W        W88123  21.243  15.339   3.438
17524W        W88124   9.815  20.092   0.875
17525W        W88125  39.076  17.109  10.738
17526W        W88126  38.496  27.959   0.795
17527W        W88127  34.943  36.090  13.972
17528W        W88128  39.985   2.986   2.929
17529W        W88129   4.911  38.659   0.277
17530W        W88130  34.207   2.676  14.103
17531W        W88131   8.849   7.201   0.441
17532W        W88132  15.572  40.604   2.204
17533W        W88133   4.933  39.076  13.305
17534W        W88134   3.956  35.794   0.225
17535W        W88135  23.083  40.872  12.473
17536W        W88136  42.763  41.824   1.894
17537W        W88137   2.920  26.806  13.006
17538W        W88138  12.267  42.693  12.857
17539W        W88139   6.434  36.137   1.709
17540W        W88140  14.181  17.224  11.671
17541W        W88141  33.165   8.709  12.529
17542W        W88142   7.266  43.755  10.747
17543W        W88143  15.311  27.516  13.387
17544W        W88144  30.194   2.735   0.472
17545W        W88145  30.313  37.917  10.573
17546W        W88146  33.491  28.605  13.029
17547W        W88147  12.982   4.652   0.808
17548W        W88148  43.174  30.639  14.565
17549W        W88149  39.880   4.653   0.434
17550W        W88150  28.084  35.512  13.548
17551W        W88151  41.426  33.152   4.576
17552W        W88152  20.320  15.621   1.249
17553W        W88153   4.019  44.257  10.735
17554W        W88154   8.665  11.638  10.683
17555W        W88155  21.545  16.503   0.260
17556W        W88156   4.976  44.456   2.798
17557W        W88157  43.805  36.887  14.836
17558W        W88158  41.489  12.807   1.304
17559W        W88159   1.928   3.851  10.659
17560W        W88160  41.064  14.022  13.869
17561W        W88161   9.241  42.062  10.666
17562W        W88162  16.687  39.307   3.354
17563W        W88163   8.906   2.036   1.427
17564W        W88164  13.221  41.326   1.848
17565W        W88165  43.459  23.108  13.326
17566W        W88166   3.849   0.307  14.268
17567W        W88167  23.127  38.510  13.500
17568W        W88168  42.962  43.380  11.406
17569W        W88169  14.889   0.368  14.543
17570W        W88170   7.452  16.740  11.911
17571W        W88171  38.824   1.709   3.430
17572W        W88172  36.849  14.795  14.928
17573W        W88173  22.128  40.551  11.960
17574W        W88174  10.032  21.533   4.650
17575W        W88175  15.343   8.632   2.424
17576W        W88176  19.201  38.169   3.713
17577W        W88177  42.297   9.110  12.972
17578W        W88178  12.219   4.217  10.759
17579W        W88179  14.817   5.722  13.581
17580W        W88180  38.474  40.441  14.520
17581W        W88181  10.698  16.105   1.380
17582W        W88182  22.255  16.190   3.926
17583W        W88183  28.028  19.331  11.992
17584W        W88184  39.050  15.868  14.797
17585W        W88185   2.234  44.566  13.938
17586W        W88186  41.226  42.876   3.745
17587W        W88187  28.225  23.542  11.557
17588W        W88188   5.274  37.513  12.145
17589W        W88189  38.214  28.569   4.611
17590W        W88190   7.882  25.606   1.691
17591W        W88191  23.182   3.506   3.672
17592W        W88192  38.585  32.021   1.808
17593W        W88193  43.336  20.978  12.880
17594W        W88194  33.026   2.421   3.886
17595W        W88195  39.326  35.234   2.793
17596W        W88196  24.606  17.563  12.805
17597W        W88197  18.202  39.816  14.668
17598W        W88198  15.093   5.308  13.390
17599W        W88199   5.328  10.820   1.751
17600W        W88200  42.701   9.732  12.480
17601W        W88201  13.684   6.241   1.778
17602W        W88202  41.184   4.357   2.701
17603W        W88203   1.878  28.788   1.994
17604W        W88204   5.979  39.070   4.298
17605W        W88205  39.947  12.486   0.595
17606W        W88206  11.121  19.950  12.877
17607W        W88207  37.317  22.025  12.220
17608W        W88208  21.780  37.071  10.612
17609W        W88209  32.714  23.504  11.573
17610W        W88210   3.932  44.903   4.560
17611W        W88211   5.325  37.646   3.076
17612W        W88212  36.792  23.618  10.996
17613W        W88213  31.657  18.689  12.158
17614W        W88214  30.032  27.900   3.719
17615W        W88215  23.869   9.984   0.929
17616W        W88216  25.084  38.552  13.109
17617W        W88217  24.127  28.382   4.165
17618W        W88218  13.865  18.215  10.753
17619W        W88219  17.512   2.205  12.978
17620W        W88220  31.482   3.170   1.046
17621W        W88221  24.049  15.661  11.575
17622W        W88222  23.964   3.337   2.292
17623W        W88223   3.933  33.451  13.623
17624W        W88224  31.665  25.272   0.226
17625W        W88225  44.842  41.534  10.595
17626W        W88226   9.562  27.991   4.488
17627W        W88227  21.755  11.779  14.282
17628W        W88228  11.325  22.229  12.022
17629W        W88229  16.523  27.173   0.984
17630W        W88230   3.768  18.327   0.351
17631W        W88231  44.739   0.465   1.257
17632W        W88232  37.557  22.018  14.688
17633W        W88233  36.828  14.843   3.481
17634W        W88234   3.847  28.615  13.847
17635W        W88235  44.321  40.535   0.966
17636W        W88236  41.534   8.584  11.055
17637W        W88237  38.483   0.287  12.387
17638W        W88238  11.754   1.306  10.469
17639W        W88239  14.802   3.998   4.215
17640W        W88240  42.889  44.820  12.280
17641W        W88241  35.351  18.642  12.912
17642W        W88242  19.246  35.749   0.711
17643W        W88243   0.207   5.600  14.303
17644W        W88244  26.672  22.223   0.229
17645W        W88245  14.550  33.867   3.945
17646W        W88246  13.624  21.172  11.658
17647W        W88247  35.182  37.377   2.153
17648W        W88248  15.850  40.874   4.620
17649W        W88249  36.488  13.137  13.553
17650W        W88250   9.214  21.286  13.480
17651W        W88251  23.066  21.675  11.236
17652W        W88252  42.303  13.594   1.173
17653W        W88253  29.182  37.898  11.047
17654W        W88254   6.779  20.835   2.353
17655W        W88255  32.518  21.512   0.595
17656W        W88256  28.852   9.346  14.306
17657W        W88257  38.560  41.446   0.291
17658W        W88258  20.293   9.398  12.018
17659W        W88259  13.238  31.874   4.566
17660W        W88260  43.476  30.572   1.049
17661W        W88261  30.441  30.054   1.401
17662W        W88262  18.114  44.661  14.458
17663W        W88263   6.874  38.899   4.511
17664W        W88264   4.526  42.037   1.333
17665W        W88265  32.921   8.047   0.244
17666W        W88266  42.833  37.456   0.465
17667W        W88267   8.774  40.130   1.868
17668W        W88268   9.681  10.876  13.025
17669W        W88269  30.720  38.452   3.835
17670W        W88270  32.564  35.301   0.633
17671W        W88271   1.955   6.793   0.203
17672W        W88272  20.051  30.394  10.647
17673W        W88273  43.453  11.392  10.580
17674W        W88274  28.902  28.054  12.541
17675W        W88275   3.413  44.316   1.265
17676W        W88276  22.033  11.204  10.693
17677W        W88277  39.298  27.084   1.345
17678W        W88278  24.489  34.532  13.095
17679W        W88279   2.268  14.775   3.831
17680W        W88280   0.340  12.786  14.793
17681W        W88281  12.121  38.306   0.453
17682W        W88282  13.343   5.381  12.497
17683W        W88283  16.242  12.999   2.708
17684W        W88284  32.037  34.335   0.501
17685W        W88285  36.098  39.268  10.763
17686W        W88286  40.539  20.995  10.688
17687W        W88287  20.583  10.161   0.873
17688W        W88288  10.927  42.324  11.558
17689W        W88289  33.272   9.815  10.728
17690W        W88290  35.407  20.705  13.995
17691W        W88291   2.483  28.937   2.933
17692W        W88292  23.648   1.869   1.204
17693W        W88293   8.408  14.644   4.728
17694W        W88294  38.027  43.500  11.555
17695W        W88295   1.740   1.259   3.258
17696W        W88296  33.663   9.643  11.957
17697W        W88297  44.039  44.927  12.866
17698W        W88298  25.921  41.427  13.036
17699W        W88299  28.756  32.823  13.473
17700W        W88300   3.106  40.814  13.001
17701W        W88301   7.868  16.769  14.399
17702W        W88302  43.373  27.984  13.081
17703W        W88303   8.947   4.986   5.018
17704W        W88304  22.173   5.383   0.284
17705W        W88305   8.146  44.750   2.665
17706W        W88306  28.723  35.432   0.257
17707W        W88307  41.912  20.092   2.224
17708W        W88308   9.477  23.841   3.392
17709W        W88309  36.899  42.925  11.044
17710W        W88310  40.765  32.989  14.567
17711W        W88311   0.595   2.198  11.043
17712W        W88312   0.367  10.885   1.302
17713W        W88313  43.334   4.638  13.379
17714W        W88314  38.198   8.589  11.816
17715W        W88315  10.737  23.162   0.229
17716W        W88316  24.374   2.416   3.292
17717W        W88317  19.055   0.582  11.639
17718W        W88318   4.261  20.389  13.363
17719W        W88319  11.112   4.903   2.633
17720W        W88320   7.737  39.751   3.306
17721W        W88321  39.436  13.225  12.150
17722W        W88322  31.459  16.542  14.419
17723W        W88323   2.970  18.706  11.690
17724W        W88324   4.283  25.425   0.753
17725W        W88325  37.181  24.161   1.648
17726W        W88326  19.283  19.025   2.235
17727W        W88327  34.856  20.117  11.131
17728W        W88328  39.859  14.192   0.967
17729W        W88329  12.269  19.191   4.560
17730W        W88330  43.899  10.596  10.850
17731W        W88331  14.958  43.973   0.439
17732W        W88332   0.726   7.705  10.968
17733W        W88333  21.785  18.135   3.342
17734W        W88334  22.157   2.468  12.016
17735W        W88335  25.661  41.382  12.591
17736W        W88336  39.464  34.891   3.700
17737W        W88337   6.187  37.465   2.395
17738W        W88338  14.165  15.686  10.678
17739W        W88339  18.567   7.763  11.526
17740W        W88340  17.551  35.423   3.801
17741W        W88341  20.668  40.978   4.173
17742W        W88342  36.400   0.795  13.861
17743W        W88343  15.893  30.948   5.005
17744W        W88344   6.391  24.078  11.381
17745W        W88345  30.219  13.171   4.717
17746W        W88346  30.609  40.915   4.272
17747W        W88347  13.670   4.070   3.147
17748W        W88348   0.027   6.092   4.176
17749W        W88349  25.528   0.627   5.411
17750W        W88350  40.091  29.544   3.497
17751W        W88351  13.327   7.154  10.671
17752W        W88352   3.370   7.359   1.765
17753W        W88353  15.321   8.836   1.423
17754W        W88354  29.587  44.139  14.856
17755W        W88355   2.009  38.459  13.913
17756W        W88356   0.325  28.863  12.407
17757W        W88357  40.475  11.709  13.545
17758W        W88358  42.523   0.574   0.511
17759W        W88359   9.798  33.722   2.491
17760W        W88360  43.807  32.665  14.860
17761W        W88361  15.804  23.501   3.880
17762W        W88362   4.793  11.401   2.335
17763W        W88363  41.773  41.080   4.173
17764W        W88364   4.895  39.164   3.446
17765W        W88365  11.939  19.785  12.933
17766W        W88366  41.424  16.621  13.420
17767W        W88367  43.591  43.510  13.884
17768W        W88368   7.635  15.346  14.555
17769W        W88369  18.523   3.320   0.789
17770W        W88370  12.715  16.898   4.613
17771W        W88371  33.371  16.222  13.058
17772W        W88372   5.755   0.540  13.388
17773W        W88373  44.819  25.384  12.133
17774W        W88374   7.670  15.293   1.348
17775W        W88375  28.854  10.813   0.420
17776W        W88376   4.516  19.044  11.165
17777W        W88377  38.156  21.220  12.913
17778W        W88378  40.612  42.801   3.155
17779W        W88379  12.524  40.714  14.417
17780W        W88380  13.847   1.345   0.494
17781W        W88381  16.472   4.372   4.559
17782W        W88382  10.741  12.839  10.666
17783W        W88383  24.990  33.369   1.186
17784W        W88384  23.033   7.408  14.814
17785W        W88385  17.587   4.344   2.315
17786W        W88386  30.092  22.234   4.470
17787W        W88387  32.168  37.075  11.894
17788W        W88388   1.770  32.555   0.331
17789W        W88389  36.571   5.564   4.038
17790W        W88390  42.936  38.729   4.690
17791W        W88391  26.965  40.043   0.417
17792W        W88392  42.045  10.298   3.422
17793W        W88393  42.582  24.490  11.831
17794W        W88394  24.144  26.728   1.782
17795W        W88395  17.796  39.376  11.114
17796W        W88396  18.591  25.722  14.878
17797W        W88397  11.149  21.133   4.700
17798W        W88398  28.204  23.792  12.594
17799W        W88399   4.368  25.985  12.742
17800W        W88400  38.619   7.699   5.076
17801W        W88401  38.963  30.885  11.919
17802W        W88402  24.563  13.311  14.282
17803W        W88403   6.522  38.322  11.190
17804W        W88404  22.660  23.567  11.204
17805W        W88405  29.386  34.411   3.193
17806W        W88406   5.891  36.396  12.057
17807W        W88407  31.504  38.383   0.984
17808W        W88408  13.033   6.384   3.438
17809W        W88409   4.124  32.729  12.989
17810W        W88410  21.027  19.426  13.487
17811W        W88411   8.150  43.187   3.146
17812W        W88412   5.304  37.765   2.128
17813W        W88413   8.823  32.719  10.638
17814W        W88414   2.513  38.118  11.137
17815W        W88415   3.801  27.910  11.536
17816W        W88416  32.626  13.063  13.024
17817W        W88417  18.581  40.359   2.084
17818W        W88418   7.946  40.849  14.235
17819W        W88419  38.610  10.103  14.458
17820W        W88420  21.642   5.762  12.152
17821W        W88421  25.230  43.502   3.170
17822W        W88422  14.875   6.706   0.499
17823W        W88423  20.567  13.203  13.809
17824W        W88424  30.253  41.833   4.256
17825W        W88425  39.005   2.280  10.701
17826W        W88426  16.483   1.968  12.562
17827W        W88427  28.978  32.365   2.854
17828W        W88428   1.989   3.307  14.080
17829W        W88429  20.632   1.260   3.866
17830W        W88430  15.988  33.095   4.527
17831W        W88431  43.186  30.469   9.911
17832W        W88432   0.001   9.117  11.075
17833W        W88433  38.888  14.603   3.740
17834W        W88434  22.938  14.251   1.751
17835W        W88435  34.575   0.800  14.749
17836W        W88436   1.873  14.761   3.204
17837W        W88437   9.265   9.326   1.976
17838W        W88438   6.425  36.612   1.945
17839W        W88439  16.674   0.025  13.049
17840W        W88440  20.334  25.509   0.341
17841W        W88441   1.349  40.297   3.318
17842W        W88442  22.737  42.360   2.246
17843W        W88443  26.587  13.873  13.421
17844W        W88444  39.407  27.455   0.544
17845W        W88445   0.008  17.621   1.333
17846W        W88446  29.029  15.848   3.839
17847W        W88447  21.588  42.226  12.445
17848W        W88448  25.152  15.567   1.842
17849W        W88449  27.893  43.306   0.893
17850W        W88450  20.702  44.355  12.542
17851W        W88451  42.950  19.541  11.392
17852W        W88452  25.231  28.959   0.551
17853W        W88453  26.098   3.236   2.178
17854W        W88454   5.911  15.209  10.699
17855W        W88455   5.598   4.434   0.820
17856W        W88456  23.657  24.331   0.061
17857W        W88457  22.510  10.953  12.495
17858W        W88458  22.017  37.851  13.134
17859W        W88459  44.879   0.555   1.752
17860W        W88460  42.054  18.047  10.478
17861W        W88461  10.700  11.533   0.479
17862W        W88462  32.851   9.798  14.543
17863W        W88463  19.268   3.310  14.793
17864W        W88464  41.724  35.511   0.752
17865W        W88465  29.983   7.623  12.832
17866W        W88466  10.955  11.299  12.533
17867W        W88467   0.234   2.625   4.581
17868W        W88468  34.650  14.788  14.346
17869W        W88469  11.901  39.198   4.979
17870W        W88470  26.243   4.344  14.223
17871W        W88471  40.891   2.737  11.144
17872W        W88472   6.628  29.959   3.723
17873W        W88473   1.951  29.900  13.391
17874W        W88474   9.916  42.754  14.936
17875W        W88475  21.718  23.556  13.423
17876W        W88476  24.498  44.428   3.105
17877W        W88477  37.858   3.252  14.844
17878W        W88478  37.082  40.802   2.314
17879W        W88479  17.046  36.092   3.670
17880W        W88480  37.022  30.682   4.116
17881W        W88481  19.816  13.612   0.857
17882W        W88482   3.514  44.770   1.502
17883W        W88483  10.662  23.710   4.160
17884W        W88484   1.520  24.562  12.217
17885W        W88485  22.143  30.895   3.154
17886W        W88486  10.276  35.478  11.016
17887W        W88487  44.416  41.930  12.801
17888W        W88488  37.616   3.217   2.703
17889W        W88489   1.901  17.378   1.671
17890W        W88490  16.150  15.075   0.763
17891W        W88491  14.678  19.788   3.186
17892W        W88492  41.755  38.028  14.826
17893W        W88493  37.279  27.884   2.822
17894W        W88494   3.734   5.782   3.329
17895W        W88495  43.800  32.169   0.014
17896W        W88496   8.584  35.855  14.357
17897W        W88497  39.242  27.362  12.476
17898W        W88498  41.855  11.329   0.729
17899W        W88499   6.440  13.640  12.432
17900W        W88500  37.555  44.748   0.236
17901W        W88501  37.997  31.369   4.670
17902W        W88502  40.451  35.798   4.518
17903W        W88503  25.652  12.136  11.277
17904W        W88504   9.818  26.350  12.420
17905W        W88505  38.050  20.552   0.347
17906W        W88506   4.508  23.717  14.897
17907W        W88507  14.040  16.088   0.235
17908W        W88508  29.608  23.536   2.251
17909W        W88509  11.270  13.214   4.747
17910W        W88510  16.136   8.862  11.508
17911W        W88511  14.706  37.983  12.987
17912W        W88512  20.536  28.833  12.368
17913W        W88513  11.891  43.055   0.325
17914W        W88514   9.884  32.245   2.115
17915W        W88515  28.815  21.730   1.877
17916W        W88516  10.889   6.467  14.755
17917W        W88517  27.654  13.738  13.951
17918W        W88518   2.690  41.966  10.399
17919W        W88519  34.874  21.132   4.216
17920W        W88520  43.227  34.972  10.701
17921W        W88521  34.221  27.445  11.577
17922W        W88522  35.188   8.511  12.859
17923W        W88523  35.416  27.424   0.495
17924W        W88524  15.694  23.606  10.277
17925W        W88525  29.646  13.432   2.210
17926W        W88526  20.604  42.866   3.223
17927W        W88527  23.974  31.468  14.872
17928W        W88528  21.066  29.407   2.486
17929W        W88529  40.716  16.113   1.253
17930W        W88530  11.878  21.963   1.756
17931W        W88531  19.199  31.370   4.663
17932W        W88532  11.278  18.944   1.323
17933W        W88533  12.211  20.659   0.648
17934W        W88534  30.454  16.318  14.936
17935W        W88535   4.831  23.715  12.082
17936W        W88536  11.830   5.687  10.887
17937W        W88537  40.777  30.367  11.199
17938W        W88538   8.874  29.342   0.686
17939W        W88539  37.279  10.383   2.281
17940W        W88540  23.629  20.688  13.909
17941W        W88541  12.345  38.954   4.846
17942W        W88542  21.526   2.000  12.560
17943W        W88543   7.963  28.440   4.636
17944W        W88544  20.729  16.183  13.504
17945W        W88545  33.919  24.171  14.456
17946W        W88546  37.590  24.445  14.384
17947W        W88547  14.508  40.417   0.451
17948W        W88548  22.561  31.400   0.403
17949W        W88549  11.187  39.509  14.952
17950W        W88550  33.373  12.024  14.422
17951W        W88551  26.149  42.034   1.743
17952W        W88552  26.670  24.624   3.236
17953W        W88553  36.598   1.309   4.208
17954W        W88554  33.002  12.000   3.631
17955W        W88555  34.377  28.756  12.805
17956W        W88556  31.715   0.783   3.746
17957W        W88557  33.468  39.225  12.222
17958W        W88558  16.288   2.451  13.879
17959W        W88559  30.676  12.568  12.892
17960W        W88560  19.501  36.436   4.240
17961W        W88561   1.319  23.720   0.754
17962W        W88562  15.511  37.376  12.510
17963W        W88563  13.015  22.592  11.116
17964W        W88564  41.113  40.829  12.959
17965W        W88565  25.748  30.183   2.392
17966W        W88566   3.759   8.731  10.743
17967W        W88567  31.060  23.630   2.364
17968W        W88568  11.152  21.338  13.838
17969W        W88569  24.137  43.490   5.481
17970W        W88570  21.713  24.247  10.635
17971W        W88571  18.170  28.055   2.817
17972W        W88572  42.952  26.317   2.837
17973W        W88573   4.690  20.661  13.546
17974W        W88574  25.421  31.066   3.493
17975W        W88575   2.751  16.826   4.553
17976W        W88576  41.415  29.336   0.259
17977W        W88577  43.821  17.157  13.517
17978W        W88578  44.535  34.453   3.512
17979W        W88579  16.038  23.788   1.395
17980W        W88580  32.815   3.418  14.550
17981W        W88581   8.141  44.384  12.821
17982W        W88582  33.015  31.338   2.218
17983W        W88583  36.323  10.617  12.166
17984W        W88584   6.175  14.093  12.401
17985W        W88585  21.531  29.374   4.970
17986W        W88586   3.008  43.377  12.560
17987W        W88587  26.368  31.671  11.478
17988W        W88588  16.988  18.619   3.356
17989W        W88589   2.720  37.094  11.587
17990W        W88590  42.415  22.060  13.826
17991W        W88591   2.687  21.153  14.427
17992W        W88592  40.573   7.279  14.233
17993W        W88593  31.763   9.824  13.398
17994W        W88594  16.273  27.246   4.208
17995W        W88595  37.872  42.650   4.522
17996W        W88596  13.571  13.752  14.890
17997W        W88597  17.557   8.841  10.263
17998W        W88598  36.562  15.013  14.529
17999W        W88599  42.885  33.399  13.980
18000W        W88600  27.635  35.090   2.892
18001W        W88601  40.829  40.308  14.150
18002W        W88602  27.253  20.436  11.095
18003W        W88603  10.884   8.868  10.672
18004W        W88604  37.995   1.881  13.787
18005W        W88605  21.744  28.238  11.181
18006W        W88606  25.949  11.050  13.994
18007W        W88607  41.612  21.941   0.402
18008W        W88608  11.059  44.080   3.782
18009W        W88609  39.289  19.660   4.938
18010W        W88610  28.063   5.703  14.465
18011W        W88611   5.388  10.293  14.510
18012W        W88612  40.795  32.095   3.852
18013W        W88613  15.738  37.863   4.211
18014W        W88614  15.827  30.384  14.948
18015W        W88615  14.116  22.747  13.959
18016W        W88616  44.757  32.722  13.448
18017W        W88617  42.485  12.670   1.656
18018W        W88618   4.517  42.839   1.609
18019W        W88619  19.560   1.719  12.289
18020W        W88620  11.254  24.212   4.569
18021W        W88621  20.878   7.431  14.901
18022W        W88622  19.237  13.580  14.964
18023W        W88623  43.980  23.638  13.893
18024W        W88624  16.665  42.941  11.477
18025W        W88625  11.987  40.500  13.463
18026W        W88626  28.105  43.993   1.935
18027W        W88627  24.207  18.786  13.605
18028W        W88628  28.095  42.226  14.397
18029W        W88629   0.701  41.744  12.449
18030W        W88630  40.866  44.803   4.111
18031W        W88631   7.897  17.700  13.847
18032W        W88632  11.247  35.103   0.021
18033W        W88633  12.955  16.055   3.438
18034W        W88634  14.674   0.444  10.305
18035W        W88635  16.926  36.844   4.079
18036W        W88636  20.617  11.901   4.244
18037W        W88637  37.427  24.188   1.190
18038W        W88638  41.263  43.386   2.296
18039W        W88639  13.399   6.363  14.529
18040W        W88640  11.894  18.470   3.693
18041W        W88641  20.596   9.328   3.607
18042W        W88642  16.146   7.775   3.252
18043W        W88643   8.233  43.043   1.717
18044W        W88644  39.012  34.156   0.754
18045W        W88645  20.136  32.675  14.595
18046W        W88646  16.622  29.094  11.077
18047W        W88647  35.403   2.055  11.028
18048W        W88648   7.535  31.468   1.687
18049W        W88649   9.595  40.728   3.321
18050W        W88650  11.608  17.708  12.061
18051W        W88651  43.920  12.264  11.030
18052W        W88652  14.791  39.776  13.995
18053W        W88653  17.341   6.140  14.426
18054W        W88654  10.096  32.136  13.924
18055W        W88655  40.431   2.259   1.387
18056W        W88656  37.533  25.197  12.629
18057W        W88657   5.584  44.017   2.030
18058W        W88658  38.349  43.379  14.824
18059W        W88659  16.081  30.898   1.764
18060W        W88660  42.864   7.449  11.010
18061W        W88661  30.177  18.269   4.259
18062W        W88662  42.872  25.241  14.148
18063W        W88663  35.032  11.337   2.140
18064W        W88664  32.627  24.277  13.464
18065W        W88665  16.005  13.189  11.966
18066W        W88666  11.177  17.838  11.112
18067W        W88667  10.628  17.288   0.832
18068W        W88668  22.309  12.822   4.728
18069W        W88669  37.414  24.206  11.147
18070W        W88670  44.929   6.349  13.776
18071W        W88671   8.876  42.273  13.832
18072W        W88672  30.601  18.238   3.325
18073W        W88673  44.505  25.254  13.349
18074W        W88674  29.064  22.643   0.758
18075W        W88675   8.404  43.233  14.321
18076W        W88676  29.628  21.739  12.091
18077W        W88677  24.689   8.445  14.241
18078W        W88678  39.303  35.214   0.060
18079W        W88679  41.573   2.828  13.534
18080W        W88680  25.000  13.883  13.932
18081W        W88681  27.132  35.211  12.735
18082W        W88682  43.273  39.357   4.922
18083W        W88683  42.352  36.476  13.064
18084W        W88684  28.018  32.008   3.192
18085W        W88685   7.148   3.653  12.059
18086W        W88686  16.576  43.518  13.431
18087W        W88687  19.206  42.905   0.173
18088W        W88688  22.996  11.106  13.930
18089W        W88689  27.458   1.218  11.148
18090W        W88690  16.736  18.992   0.123
18091W        W88691  10.891   3.355   3.346
18092W        W88692   2.980  10.873   1.985
18093W        W88693  40.364  37.539  13.803
18094W        W88694  23.119  43.230   3.157
18095W        W88695   2.705   5.176   4.004
18096W        W88696   6.968  30.637  12.827
18097W        W88697  27.997   2.153   4.213
18098W        W88698  21.081  26.155   4.037
18099W        W88699  19.664  20.659  13.719
18100W        W88700  28.097  15.240  13.607
18101W        W88701  28.181  10.834   1.686
18102W        W88702  30.143  43.361  14.989
18103W        W88703  33.841  12.754  11.009
18104W        W88704  30.340  19.534  10.665
18105W        W88705  30.600  21.725   0.316
18106W        W88706   6.963  16.524  11.242
18107W        W88707  28.604  37.613   3.708
18108W        W88708   5.732  33.786   4.490
18109W        W88709  21.586  16.804  10.587
18110W        W88710  17.296  34.189   1.421
18111W        W88711  18.551  44.248   2.774
18112W        W88712  14.264   2.510   1.304
18113W        W88713  14.330  14.277   1.470
18114W        W88714  40.272   5.900   2.845
18115W        W88715  43.771  13.330  11.190
18116W        W88716  28.137  34.685  14.643
18117W        W88717  13.653  17.294   0.388
18118W        W88718  18.425  15.765   5.058
18119W        W88719  20.328  36.899   4.147
18120W        W88720  33.458   2.584   3.655
18121W        W88721   6.752  39.248  11.166
18122W        W88722   5.251  15.735  14.843
18123W        W88723   1.119   5.362   2.576
18124W        W88724  37.808   8.870  13.029
18125W        W88725   4.439  15.729  11.504
18126W        W88726  26.475   5.090   4.728
18127W        W88727  44.001  27.637  14.736
18128W        W88728  17.172  26.978   2.243
18129W        W88729  14.996   8.200   3.196
18130W        W88730  33.575   1.563   3.679
18131W        W88731  18.575  26.318   0.419
18132W        W88732   6.331   3.467  11.538
18133W        W88733   9.475   7.293   3.625
18134W        W88734  27.335  32.958   2.124
18135W        W88735  38.441  34.808  14.342
18136W        W88736  28.381  42.217  10.747
18137W        W88737  35.089  25.630  10.940
18138W        W88738  19.295  25.421  10.065
18139W        W88739  35.616   7.226   2.264
18140W        W88740  16.111  21.195   2.122
18141W        W88741  40.352  22.445  11.434
18142W        W88742  27.915  16.574   4.592
18143W        W88743  16.916  44.188   3.079
18144W        W88744   7.871  21.557   0.844
18145W        W88745  34.623  11.106   2.356
18146W        W88746   0.489   1.216   2.770
18147W        W88747  31.192   0.824   4.209
18148W        W88748  40.091  26.271  13.478
18149W        W88749   1.644   5.447   2.624
18150W        W88750  31.854  30.644   2.120
18151W        W88751  14.810  22.219   4.719
18152W        W88752  23.635  35.309  10.696
18153W        W88753  31.828  19.803   0.175
18154W        W88754  15.199   8.155  10.679
18155W        W88755   6.816   0.952  14.810
18156W        W88756  36.137  21.660  13.456
18157W        W88757  10.404  25.712   0.504
18158W        W88758  23.566  30.640  11.225
18159W        W88759  41.856  40.015   1.934
18160W        W88760   2.913  21.513  12.813
18161W        W88761  35.637  18.619  14.342
18162W        W88762   0.337  44.758   2.791
18163W        W88763   0.720  21.118  14.777
18164W        W88764  28.680  41.563  14.387
18165W        W88765  30.582   4.474   0.664
18166W        W88766  29.275  20.316   4.597
18167W        W88767  25.513  10.018   3.205
18168W        W88768  41.010  35.078  11.985
18169W        W88769  32.655  44.195   4.172
18170W        W88770  41.144  38.166  13.915
18171W        W88771  44.444  27.062  13.569
18172W        W88772  43.003  18.606  14.871
18173W        W88773  13.254   9.346   0.716
18174W        W88774   7.778  10.355  13.045
18175W        W88775  43.220   9.426   3.730
18176W        W88776  35.879  26.670   5.011
18177W        W88777   3.975  36.126   3.130
18178W        W88778  37.958  16.659  10.483
18179W        W88779  15.152  23.308  12.990
18180W        W88780  27.543  36.123  12.852
18181W        W88781  23.963  17.846   1.198
18182W        W88782  22.579   2.996  12.941
18183W        W88783  26.704  10.125   3.218
18184W        W88784  30.960  31.525   0.334
18185W        W88785   0.959  11.183   2.040
18186W        W88786  11.699  19.775  11.574
18187W        W88787  27.225  40.301   3.234
18188W        W88788  19.544   2.737  13.838
18189W        W88789  20.020   3.002   3.333
18190W        W88790  35.194   5.165  12.272
18191W        W88791  31.737   0.522  12.139
18192W        W88792  37.623   7.707   4.181
18193W        W88793  19.839  15.073  13.591
18194W        W88794  32.031  27.929   2.696
18195W        W88795  16.336  19.887   1.290
18196W        W88796  36.181  17.599  14.016
18197W        W88797  38.077  37.496  14.827
18198W        W88798  38.039   8.400  13.067
18199W        W88799  41.191  12.288   1.992
18200W        W88800  16.020   3.892  10.698
18201W        W88801  33.078   0.764   2.194
18202W        W88802  36.819   3.154   0.759
18203W        W88803  18.748  25.089  11.156
18204W        W88804  34.582  39.556  14.790
18205W        W88805  23.673  24.969  14.207
18206W        W88806   4.720  18.666   3.252
18207W        W88807   1.758  30.180  12.984
18208W        W88808  34.010  32.413  13.838
18209W        W88809  12.796  39.802  14.459
18210W        W88810  16.387   5.587  14.496
18211W        W88811   9.863  10.126   4.405
18212W        W88812   9.391  10.467  10.578
18213W        W88813  25.996  32.887   0.355
18214W        W88814  28.586  19.561   1.450
18215W        W88815  38.039  37.111   0.777
18216W        W88816  32.407  22.593   0.791
18217W        W88817  10.863  26.617  12.456
18218W        W88818   3.478  13.668   3.253
18219W        W88819  35.021   9.919  11.220
18220W        W88820  23.486   0.525   0.993
18221W        W88821   3.242  23.835  11.557
18222W        W88822  22.987   4.572  10.803
18223W        W88823   0.189  28.946  11.037
18224W        W88824   5.228  40.591  10.445
18225W        W88825  12.008  30.898   0.898
18226W        W88826  21.547   9.253  13.817
18227W        W88827  42.270  16.329  11.207
18228W        W88828  43.848  30.521   3.415
18229W        W88829   9.159  39.075  13.419
18230W        W88830  12.367  23.299   4.180
18231W        W88831  10.870   9.240   0.351
18232W        W88832  21.582   1.020  13.912
18233W        W88833  39.526  30.495   0.203
18234W        W88834  39.396  39.489   2.793
18235W        W88835  24.532  30.160   4.955
18236W        W88836   6.984  36.244  13.334
18237W        W88837  39.389   4.440  12.144
18238W        W88838  19.030  37.436   4.182
18239W        W88839  38.467  43.882  13.380
18240W        W88840  18.847  23.198  13.407
18241W        W88841   3.993   3.942  13.506
18242W        W88842  11.691  44.237   1.668
18243W        W88843   7.100  25.230   1.849
18244W        W88844  11.930  13.784   0.982
18245W        W88845  32.170  36.569  10.743
18246W        W88846  34.042  16.063   4.582
18247W        W88847   1.776  14.373  11.084
18248W        W88848  43.570  20.710  11.139
18249W        W88849  29.319  41.525  12.948
18250W        W88850  37.012  18.228   3.575
18251W        W88851   4.703  38.345   0.941
18252W        W88852  18.358  18.096   2.182
18253W        W88853  44.957  42.552  10.719
18254W        W88854   6.694   3.316  11.202
18255W        W88855  18.223  11.381   1.586
18256W        W88856   8.957  38.896   2.659
18257W        W88857   7.404   9.913  14.388
18258W        W88858   9.379  26.622  11.216
18259W        W88859  37.530   1.464  10.545
18260W        W88860  42.142  44.332  11.270
18261W        W88861  20.685  28.484  14.935
18262W        W88862  33.027  29.504   4.516
18263W        W88863  33.211  23.723  12.677
18264W        W88864  22.912  37.550   2.777
18265W        W88865  38.862  15.289  11.162
18266W        W88866  44.071  43.537   4.552
18267W        W88867  25.190   9.446  10.706
18268W        W88868   9.372   2.969  10.769
18269W        W88869   3.803  39.939   0.775
18270W        W88870  31.872  37.014  14.272
18271W        W88871   6.921  33.190  13.926
18272W        W88872  43.330  21.791  13.388
18273W        W88873  11.176  25.601  10.729
18274W        W88874  27.498  22.671   4.813
18275W        W88875   7.479  33.656  13.449
18276W        W88876  11.337  32.502  13.959
18277W        W88877  40.609   1.802   4.317
18278W        W88878  32.407  10.337  10.760
18279W        W88879   5.312  28.035   1.638
18280W        W88880  39.115  22.719  14.356
18281W        W88881  15.708  44.090   2.249
18282W        W88882  31.604  21.008   3.555
18283W        W88883  34.337   7.364   3.681
18284W        W88884  18.817  39.135  13.701
18285W        W88885  15.585   5.888  11.743
18286W        W88886  27.112  20.126   1.813
18287W        W88887   8.768  44.008   0.795
18288W        W88888   5.890  18.140  14.493
18289W        W88889  41.056  13.660  13.076
18290W        W88890  28.473   6.488  11.528
18291W        W88891  40.913  26.456   4.227
18292W        W88892  12.782   0.460   4.342
18293W        W88893  21.131   4.698  11.030
18294W        W88894  16.115  28.568   0.694
18295W        W88895  14.897  29.723   4.067
18296W        W88896  23.665  21.339  11.922
18297W        W88897   2.403  26.612  11.396
18298W        W88898  35.518   8.569  11.180
18299W        W88899  16.370  41.252  10.151
18300W        W88900  12.856  12.578   1.914
18301W        W88901  13.757  29.710  12.405
18302W        W88902  15.622   4.471  12.497
18303W        W88903  19.449  44.703   2.296
18304W        W88904  42.264  32.994   0.374
18305W        W88905  42.858  24.169   0.866
18306W        W88906  20.657  21.155   4.106
18307W        W88907  41.395  14.667  12.080
18308W        W88908  18.709  13.461   4.036
18309W        W88909  11.374  33.440  13.383
18310W        W88910  39.570  25.025  10.798
18311W        W88911  29.623  10.214   5.006
18312W        W88912  36.696  14.784  14.084
18313W        W88913  11.558   9.304  12.814
18314W        W88914  23.113  29.927   1.428
18315W        W88915  41.367  43.409   1.796
18316W        W88916  25.134   9.541   4.991
18317W        W88917  34.345  20.588   2.871
18318W        W88918  20.003  33.128   2.903
18319W        W88919  14.335  44.582   4.170
18320W        W88920  11.677  20.292  12.486
18321W        W88921  20.056  16.370   1.949
18322W        W88922   0.910  32.442   4.152
18323W        W88923  28.091  33.586   1.033
18324W        W88924   2.366  15.768  13.850
18325W        W88925  28.804  17.784  13.200
18326W        W88926  30.437  43.830   1.497
18327W        W88927  39.533   8.053   0.476
18328W        W88928  31.987  10.612  10.623
18329W        W88929  35.753   1.049   2.662
18330W        W88930  23.523   0.763  13.016
18331W        W88931  22.433   3.038   3.914
18332W        W88932  25.776  39.040   0.687
18333W        W88933  32.575  10.635   4.609
18334W        W88934   7.854  12.103  10.762
18335W        W88935  12.932  29.192   1.793
18336W        W88936  39.035  26.200   1.797
18337W        W88937  11.155   7.489   1.829
18338W        W88938  35.439   0.786   3.836
18339W        W88939  21.504  11.863   1.168
18340W        W88940  31.534  22.493  10.620
18341W        W88941  18.138   1.393   2.307
18342W        W88942  21.737  11.277   2.312
18343W        W88943  33.513  42.505   4.342
18344W        W88944  12.323  39.315   3.927
18345W        W88945  43.375  20.285   4.069
18346W        W88946   0.979   3.589  11.126
18347W        W88947  29.998  44.524  12.941
18348W        W88948  37.048  30.924  13.181
18349W        W88949  12.246  14.662  11.173
18350W        W88950  22.294  27.010   1.994
18351W        W88951  43.880  29.914  13.106
18352W        W88952   6.238   2.959   2.537
18353W        W88953  13.101  23.999   2.202
18354W        W88954  25.358  14.539   1.073
18355W        W88955  39.788  14.407  12.025
18356W        W88956   2.184  30.859   3.658
18357W        W88957   3.547  25.253   4.112
18358W        W88958  27.715  44.831  11.385
18359W        W88959  19.841  29.529  11.919
18360W        W88960   8.292   3.425  14.398
18361W        W88961  25.677   5.687  12.356
18362W        W88962   1.450  29.126   3.187
18363W        W88963   9.849  34.375   0.548
18364W        W88964  41.528  20.513   0.931
18365W        W88965  35.447  11.402  11.249
18366W        W88966  10.235  25.673  13.014
18367W        W88967  36.899  27.905  10.633
18368W        W88968  30.117  11.846   3.214
18369W        W88969  36.577  16.256   3.220
18370W        W88970  25.677  42.100   3.279
18371W        W88971  41.855  25.466   0.364
18372W        W88972  13.831  22.219  12.014
18373W        W88973   7.950  22.574   2.183
18374W        W88974   0.983  33.559  13.583
18375W        W88975   6.419   8.849  12.401
18376W        W88976  36.044  26.959   0.004
18377W        W88977  14.936  34.883  13.323
18378W        W88978  34.382  14.229  14.374
18379W        W88979  30.539   7.301  14.801
18380W        W88980  33.021  33.528   3.849
18381W        W88981  24.693   9.289   4.957
18382W        W88982  41.791  34.695  11.663
18383W        W88983   9.742  14.572   1.674
18384W        W88984  34.648  18.352   4.766
18385W        W88985   9.353  40.956   2.163
18386W        W88986  13.708  17.095  11.491
18387W        W88987  39.353  20.939   2.441
18388W        W88988  32.320   8.326  10.744
18389W        W88989   3.254   1.506   1.375
18390W        W88990  30.458   5.540  11.077
18391W        W88991  35.661   5.382   1.244
18392W        W88992  43.996  20.292   0.936
18393W        W88993  21.132  10.931  12.582
18394W        W88994  40.012  15.483   1.785
18395W        W88995  37.350  43.197   2.803
18396W        W88996  38.983  18.639  13.428
18397W        W88997   6.130  35.993  13.398
18398W        W88998  19.173  28.894  14.381
18399W        W88999  19.080  37.431   2.181
18400W        W89000   5.033  18.129   1.833
18401W        W89001  23.090  37.957  11.095
18402W        W89002  11.683  22.407  12.906
18403W        W89003  28.699  38.122   4.927
18404W        W89004  26.621  36.475  10.660
18405W        W89005   7.089  27.028  13.916
18406W        W89006  22.665  12.672  11.537
18407W        W89007  40.104  42.971  11.484
18408W        W89008  20.770  13.194   3.713
18409W        W89009   5.388  29.370   0.228
18410W        W89010  29.448  15.468   0.231
18411W        W89011  25.619  44.588   1.485
18412W        W89012   1.002  16.688   3.573
18413W        W89013   0.542   3.734  14.635
18414W        W89014  25.071   4.377  11.550
18415W        W89015  40.852  16.246  10.166
18416W        W89016  24.622  12.269   3.654
18417W        W89017  23.475  31.435   0.087
18418W        W89018   6.782  10.080  12.391
18419W        W89019  24.636  22.692  11.644
18420W        W89020  13.579   2.296  14.399
18421W        W89021   7.625  34.565  12.865
18422W        W89022  13.375  12.718  13.751
18423W        W89023  14.120  16.577   0.885
18424W        W89024  21.960  25.434  13.601
18425W        W89025  31.348   9.071  11.689
18426W        W89026  35.659  28.515  12.927
18427W        W89027  25.439  12.888  11.302
18428W        W89028  13.614  27.928  11.863
18429W        W89029  15.361  26.995  13.605
18430W        W89030  27.942  20.765   1.763
18431W        W89031  13.501  31.504  13.905
18432W        W89032   7.671  32.133  11.638
18433W        W89033  23.758   6.892  11.339
18434W        W89034  29.639  39.919  13.420
18435W        W89035   5.181   4.941   1.752
18436W        W89036   8.437  29.378   2.330
18437W        W89037   6.274  10.394  14.534
18438W        W89038  23.288  24.223  12.868
18439W        W89039  34.604  16.311  11.147
18440W        W89040  40.519  41.128  14.265
18441W        W89041  40.697   0.903   1.563
18442W        W89042  44.206  41.310   2.767
18443W        W89043  14.882   4.218  14.496
18444W        W89044  40.670  35.980  14.806
18445W        W89045  13.295   6.829   4.967
18446W        W89046  27.523  10.845   0.386
18447W        W89047  11.623  34.876  11.975
18448W        W89048   8.622  12.146  14.806
18449W        W89049  37.078  22.663  12.897
18450W        W89050   3.756  34.469   3.757
18451W        W89051  34.492  14.625  10.537
18452W        W89052   8.606  25.580   4.565
18453W        W89053  44.847   9.893   4.191
18454W        W89054  35.800  23.442   3.491
18455W        W89055  40.524  17.988   2.151
18456W        W89056   8.211  14.261   4.392
18457W        W89057  12.233  42.153  10.142
18458W        W89058  30.710  40.479  11.275
18459W        W89059  34.579  18.557   0.849
18460W        W89060  36.111  23.019   3.396
18461W        W89061  25.779   2.036   4.262
18462W        W89062  28.738  13.708   2.332
18463W        W89063   7.757   0.753  14.533
18464W        W89064  13.211  37.224   3.367
18465W        W89065  10.605  35.848  11.111
18466W        W89066  25.445  44.566   1.968
18467W        W89067  10.273  37.615  14.502
18468W        W89068  41.795  37.519   0.721
18469W        W89069   6.368   0.796   3.747
18470W        W89070  12.269  37.393   2.107
18471W        W89071  25.423  38.138   0.802
18472W        W89072  29.951  37.302  12.561
18473W        W89073  13.258  34.923   3.550
18474W        W89074  22.260  26.743  13.664
18475W        W89075   3.711  15.199  10.670
18476W        W89076  37.853  16.365   4.117
18477W        W89077   6.107  20.348   0.867
18478W        W89078  21.410  29.716  11.921
18479W        W89079  18.098  33.511  10.718
18480W        W89080  21.200   2.931   2.805
18481W        W89081  14.226   7.149  12.528
18482W        W89082  11.779  18.691  12.205
18483W        W89083  26.915   0.410  12.052
18484W        W89084  32.272   3.369  11.459
18485W        W89085  15.767  29.616  13.910
18486W        W89086  41.212  39.981   4.961
18487W        W89087  16.157   6.924   1.450
18488W        W89088   5.825  38.396   3.888
18489W        W89089  41.488  24.677  12.068
18490W        W89090  36.801  28.764  11.613
18491W        W89091  18.971  13.218  13.889
18492W        W89092  21.254   5.821  11.371
18493W        W89093  37.392  21.639  11.634
18494W        W89094  35.720  39.697   0.375
18495W        W89095  26.486  29.628  10.564
18496W        W89096  28.432  17.824  12.412
18497W        W89097  37.247  38.064   4.098
18498W        W89098  19.098  28.869   0.334
18499W        W89099   9.791  39.878  14.718
18500W        W89100  15.607   9.026  11.499
18501W        W89101  30.904  18.740   2.130
18502W        W89102  13.935  18.619  14.449
18503W        W89103  16.991  44.473   3.554
18504W        W89104  22.642  30.939  11.178
18505W        W89105   8.976   1.477   2.898
18506W        W89106  34.084  25.348   0.856
18507W        W89107  19.309  36.332  14.446
18508W        W89108  24.643  36.469   2.143
18509W        W89109  32.931  33.954   0.040
18510W        W89110  29.436   6.842   4.121
18511W        W89111  14.226  27.422   1.173
18512W        W89112  30.748  26.966  14.800
18513W        W89113   4.412  16.521  14.473
18514W        W89114  40.456   3.090   0.128
18515W        W89115  22.585  33.389   2.362
18516W        W89116  17.665   3.966  11.235
18517W        W89117  31.032  12.246  14.456
18518W        W89118  27.954  23.106   2.188
18519W        W89119  39.324  29.288   0.799
18520W        W89120  10.211  11.855   4.541
18521W        W89121   9.535  27.944   0.359
18522W        W89122   5.006   5.701  13.896
18523W        W89123   2.870  23.513  12.536
18524W        W89124  31.333  19.243  12.042
18525W        W89125  30.166  31.390   1.748
18526W        W89126  43.871  33.459  12.847
18527W        W89127  31.981  28.608  11.274
18528W        W89128   1.496  12.260   1.381
18529W        W89129  24.577  17.850   4.107
18530W        W89130  33.133  15.595  14.654
18531W        W89131   4.107  26.128  11.238
18532W        W89132  26.972   7.394   4.674
18533W        W89133  41.205   3.372   1.107
18534W        W89134  40.555  14.698  14.005
18535W        W89135  24.977   3.838   4.603
18536W        W89136  26.700  12.770   2.028
18537W        W89137   7.028   3.375  11.628
18538W        W89138   4.051  36.614   1.419
18539W        W89139  14.302  29.556  14.986
18540W        W89140  42.188  34.377  11.647
18541W        W89141   0.339  11.900  13.114
18542W        W89142   0.407  15.062   2.724
18543W        W89143  13.299  34.514  11.617
18544W        W89144   6.271  16.471  10.691
18545W        W89145  44.699  30.854  12.177
18546W        W89146  34.453  21.994   0.745
18547W        W89147   9.060  44.265  13.843
18548W        W89148  40.966  41.129  10.529
18549W        W89149   4.914  10.888  14.985
18550W        W89150  18.174  25.046   0.898
18551W        W89151  39.520  21.283  12.410
18552W        W89152  10.232   9.868  11.113
18553W        W89153  25.184  38.400  14.805
18554W        W89154   3.868  16.791   3.089
18555W        W89155  37.466  35.414  13.613
18556W        W89156   7.102  41.556   1.892
18557W        W89157   5.883  24.294  12.990
18558W        W89158  24.999  27.139  10.593
18559W        W89159  28.714   1.806   4.685
18560W        W89160  35.463  10.837   1.397
18561W        W89161  22.582  40.589   2.755
18562W        W89162  23.047  12.619   3.167
18563W        W89163  41.753  34.398   1.359
18564W        W89164  10.835  36.699  12.556
18565W        W89165  38.070  27.435  11.597
18566W        W89166  20.019  29.638  13.331
18567W        W89167  13.379  21.991   1.347
18568W        W89168  41.410  17.793  12.815
18569W        W89169  30.025  17.162   3.244
18570W        W89170  10.192  19.605  13.143
18571W        W89171  22.467  16.138  10.800
18572W        W89172  43.797  40.628  13.815
18573W        W89173   4.689  17.567  13.417
18574W        W89174  20.944  27.449  12.063
18575W        W89175   9.642   6.389  12.758
18576W        W89176  40.371  30.398   1.401
18577W        W89177  28.312   5.820   2.747
18578W        W89178  33.358  17.707   0.719
18579W        W89179  25.824  13.169  14.887
18580W        W89180  44.407  23.445  13.051
18581W        W89181  18.789   4.301   1.944
18582W        W89182  37.458  32.734  13.464
18583W        W89183  32.980  19.194  10.651
18584W        W89184   8.358  13.849  14.210
18585W        W89185   6.011  38.331  12.827
18586W        W89186  34.020  30.328  11.282
18587W        W89187  40.429  43.222  13.877
18588W        W89188  32.548  28.104  12.249
18589W        W89189   1.527  32.292  13.537
18590W        W89190  35.883  40.249  10.466
18591W        W89191  37.882  20.233   4.263
18592W        W89192  34.624  37.329  11.159
18593W        W89193  38.800  17.935   3.685
18594W        W89194  21.749   5.126   2.766
18595W        W89195  11.681  37.891   0.415
18596W        W89196  19.661  19.734  13.752
18597W        W89197  31.907  25.504   3.792
18598W        W89198  42.785  17.559   1.764
18599W        W89199   1.481  24.207   0.921
18600W        W89200  13.363   0.845  12.082
18601W        W89201  38.491   7.273  14.412
18602W        W89202   3.926  37.296  12.418
18603W        W89203   9.342  25.487  13.420
18604W        W89204   8.835  39.793  14.301
18605W        W89205  20.522  37.389   4.605
18606W        W89206  19.124  17.774  12.552
18607W        W89207  10.618  26.359  13.410
18608W        W89208   9.093  21.215  12.978
18609W        W89209  20.384  16.803  14.861
18610W        W89210  14.135  43.251  14.586
18611W        W89211   6.925  19.241   0.026
18612W        W89212   8.446  26.545   2.835
18613W        W89213  37.514  12.261  13.956
18614W        W89214  10.460  42.809   5.045
18615W        W89215  41.862  35.818   4.706
18616W        W89216  24.788  37.370   1.773
18617W        W89217  34.676   5.364   4.126
18618W        W89218  34.841  22.593  10.640
18619W        W89219  19.793   1.233   2.183
18620W        W89220  44.254  10.365   4.988
18621W        W89221  40.572  28.896  12.819
18622W        W89222   2.529  42.012   3.167
18623W        W89223  10.615  14.054  12.545
18624W        W89224  34.051   2.974  14.503
18625W        W89225  36.317  30.734  12.106
18626W        W89226  36.399  17.588   3.840
18627W        W89227  24.101  16.269   1.827
18628W        W89228  21.014   3.972  11.550
18629W        W89229  33.090  40.901   3.816
18630W        W89230  28.407  28.901   3.278
18631W        W89231  13.365   7.635  14.067
18632W        W89232  43.353  10.930   2.384
18633W        W89233  28.931  38.792   4.139
18634W        W89234  42.928   5.806  10.856
18635W        W89235  44.787   0.066   1.909
18636W        W89236  21.439   6.290   2.046
18637W        W89237   3.451  17.907   0.413
18638W        W89238  23.987  23.149   2.864
18639W        W89239   5.820  26.242   1.830
18640W        W89240  36.061  22.167   2.272
18641W        W89241  26.647   2.996  12.950
18642W        W89242  32.598  44.689   0.302
18643W        W89243  28.094   0.353   2.670
18644W        W89244   4.581   8.531  11.051
18645W        W89245  43.796  18.125   4.758
18646W        W89246  21.806  20.635   4.600
18647W        W89247  32.939  32.001   2.748
18648W        W89248  26.110  24.987  10.540
18649W        W89249  35.422   0.245   3.201
18650W        W89250  22.427   1.868   4.745
18651W        W89251  12.569  38.584  12.896
18652W        W89252  14.858  21.466  13.879
18653W        W89253  27.911  42.044   3.774
18654W        W89254  13.160  15.138   1.010
18655W        W89255  37.010   0.819  14.861
18656W        W89256   3.456  18.221  10.716
18657W        W89257  19.149   2.817   2.140
18658W        W89258  32.612  17.026   2.384
18659W        W89259   9.242  26.259   1.997
18660W        W89260  20.121  25.698  14.853
18661W        W89261  14.049  14.530  12.834
18662W        W89262  23.788  28.114   4.868
18663W        W89263  44.775  39.056   3.268
18664W        W89264  35.068  22.592  11.515
18665W        W89265  34.902  26.617  13.421
18666W        W89266  32.049  41.385   5.147
18667W        W89267  22.707  26.548  13.482
18668W        W89268  28.376  19.938   2.772
18669W        W89269  16.909  43.243   9.751
18670W        W89270  20.118  15.852   0.831
18671W        W89271  32.495  25.394   0.287
18672W        W89272  33.392  20.032  12.922
18673W        W89273  26.478  37.496   0.523
18674W        W89274  42.756  44.332   0.185
18675W        W89275  31.934   3.151   2.230
18676W        W89276   5.669  11.642  14.742
18677W        W89277  19.864  23.208  14.634
18678W        W89278  21.571  41.208  12.445
18679W        W89279   8.572   4.348  12.421
18680W        W89280  26.553   5.753   1.249
18681W        W89281  30.033  34.831   0.846
18682W        W89282  14.819  17.015   4.176
18683W        W89283  17.255  32.165   2.192
18684W        W89284  24.794  25.517  14.348
18685W        W89285  17.075  41.004  15.000
18686W        W89286  26.948  39.752   3.748
18687W        W89287  26.434  22.966   3.664
18688W        W89288  19.061  42.953  11.151
18689W        W89289   5.439  28.529  12.538
18690W        W89290  19.639   7.293  10.712
18691W        W89291  32.550  21.414   3.610
18692W        W89292   7.629   8.408  12.051
18693W        W89293  26.606   6.374  10.669
18694W        W89294  16.110   0.973  14.269
18695W        W89295   5.671  11.322   0.401
18696W        W89296   7.559  27.508  11.641
18697W        W89297  20.712  18.527  11.208
18698W        W89298  38.013  16.308   0.828
18699W        W89299  44.746  43.860   1.485
18700W        W89300  25.779  25.729  14.612
18701W        W89301  20.016  43.312   3.616
18702W        W89302  39.328   1.145  14.960
18703W        W89303   1.848  30.096  11.013
18704W        W89304  17.516   6.853   0.732
18705W        W89305  29.893  38.068   3.691
18706W        W89306  33.394   8.887   5.167
18707W        W89307  13.046  36.064  13.376
18708W        W89308  30.777   8.762  10.417
18709W        W89309  24.499   4.358   0.846
18710W        W89310  22.742  29.989   0.628
18711W        W89311  30.146  42.945   3.728
18712W        W89312   3.270  40.369  14.269
18713W        W89313  38.779  26.977  13.549
18714W        W89314  12.061  37.015   2.798
18715W        W89315   4.455  35.639   0.333
18716W        W89316  44.945  14.693   0.549
18717W        W89317  38.501   3.398  10.244
18718W        W89318  22.014  41.636  13.674
18719W        W89319   1.270  27.664   3.565
18720W        W89320  43.227   7.138  13.502
18721W        W89321  19.183  40.046  14.816
18722W        W89322  41.934  12.499  13.106
18723W        W89323  38.847   3.459   3.799
18724W        W89324  30.966  27.863  14.946
18725W        W89325  16.170   8.877  13.086
18726W        W89326  21.695  41.744   1.836
18727W        W89327  19.953  24.092  13.556
18728W        W89328   2.935   5.564   1.136
18729W        W89329  17.999  19.755   2.293
18730W        W89330   8.930  33.445   1.233
18731W        W89331  41.512  44.633   2.944
18732W        W89332  29.984  29.529  12.703
18733W        W89333  21.076  41.426  14.561
18734W        W89334  26.474  20.805   1.871
18735W        W89335  35.622   1.988  14.004
18736W        W89336   3.382  43.885   1.007
18737W        W89337   3.965  39.550  13.493
18738W        W89338  10.191   2.723  11.081
18739W        W89339   9.251  42.494   1.485
18740W        W89340  27.256  40.828   0.971
18741W        W89341   0.440  10.730   2.410
18742W        W89342  14.229   7.584  14.894
18743W        W89343  14.457  12.043   0.246
18744W        W89344  35.117  42.777  11.309
18745W        W89345  38.930   2.443   1.883
18746W        W89346  32.082  32.606   3.115
18747W        W89347  13.071  25.442  14.496
18748W        W89348  28.087  21.681  13.992
18749W        W89349  27.814  33.805  13.493
18750W        W89350  44.591  11.872   0.720
18751W        W89351  31.176  36.119  14.731
18752W        W89352  23.233  17.435   1.727
18753W        W89353  43.036  29.553  13.696
18754W        W89354   4.405  36.590  14.902
18755W        W89355   0.122  20.054  14.886
18756W        W89356   6.337  37.779  14.199
18757W        W89357  26.953  31.891  10.685
18758W        W89358  29.993  33.869   0.007
18759W        W89359  44.698  35.024  10.627
18760W        W89360  27.956  19.740   5.350
18761W        W89361  28.459  32.574  12.073
18762W        W89362   7.641  32.050   1.792
18763W        W89363   0.119  15.463  12.014
18764W        W89364  29.071  17.844   0.808
18765W        W89365  37.535  20.636  10.675
18766W        W89366  31.205  38.303   3.243
18767W        W89367  27.644   5.692   0.253
18768W        W89368  42.588   8.870  11.921
18769W        W89369   7.048  44.185  14.451
18770W        W89370  44.023   8.046  12.019
18771W        W89371  39.230  20.176   4.973
18772W        W89372  26.687  28.166   1.884
18773W        W89373  10.188  19.133   2.784
18774W        W89374  42.396  33.148  11.903
18775W        W89375  19.905  23.351   0.165
18776W        W89376  37.873  35.812   2.717
18777W        W89377   7.390   6.287  12.871
18778W        W89378   7.603   3.160  10.585
18779W        W89379   6.807  18.615  11.533
18780W        W89380   9.838  15.592  14.321
18781W        W89381  25.560  32.408  14.760
18782W        W89382  14.943  35.132  12.858
18783W        W89383  13.709  14.701  11.133
18784W        W89384  29.173  33.309  14.819
18785W        W89385  44.546  43.935   0.367
18786W        W89386  10.625  17.045   3.949
18787W        W89387   6.506  18.056  11.982
18788W        W89388   8.876  32.132   1.229
18789W        W89389   8.885  16.558   1.892
18790W        W89390   4.725  21.612   1.333
18791W        W89391   8.894   7.247   1.868
18792W        W89392  39.868   3.561  13.459
18793W        W89393   7.025  22.947   1.697
18794W        W89394  29.505  41.327  11.839
18795W        W89395   4.850   6.993   1.304
18796W        W89396  40.103  17.841  10.999
18797W        W89397  11.342  44.801   2.426
18798W        W89398  38.367  11.540   2.056
18799W        W89399   5.689  28.943   1.502
18800W        W89400  18.015  44.412  12.583
18801W        W89401  15.314  19.251  14.009
18802W        W89402   9.652   2.372   2.325
18803W        W89403   3.261  28.509  13.314
18804W        W89404   9.790  43.116   1.695
18805W        W89405  10.620  11.807   1.837
18806W        W89406  33.117  30.643  13.404
18807W        W89407  33.388  12.695   4.761
18808W        W89408  12.899  10.210  10.740
18809W        W89409  28.074  25.575   1.047
18810W        W89410  19.022  16.176   3.161
18811W        W89411  10.184  24.515  12.210
18812W        W89412  41.862  17.388  13.440
18813W        W89413   9.967  22.767  13.271
18814W        W89414   4.769  11.384  13.102
18815W        W89415   4.085  15.794   3.152
18816W        W89416  32.418  39.495   3.696
18817W        W89417  12.300  13.133   3.372
18818W        W89418  27.102  10.673  10.573
18819W        W89419   8.756   0.983   0.333
18820W        W89420  18.667  35.373  12.530
18821W        W89421   9.573  30.648  13.428
18822W        W89422   4.813  24.939   2.857
18823W        W89423  17.139  17.277   3.201
18824W        W89424  40.097  13.990   1.880
18825W        W89425  41.915   0.662  10.285
18826W        W89426  31.476  13.563   0.788
18827W        W89427   9.695  42.811  11.092
18828W        W89428  39.401   2.968  11.244
18829W        W89429  15.279  21.322  10.196
18830W        W89430   3.836  39.531   1.105
18831W        W89431  25.910  30.975  13.339
18832W        W89432  33.789  26.671   5.032
18833W        W89433  23.551  24.670   2.305
18834W        W89434  41.877  23.322  11.938
18835W        W89435   8.268  31.431   3.577
18836W        W89436  35.610  21.712   4.077
18837W        W89437  36.375  29.990   0.008
18838W        W89438   6.869   6.393  12.722
18839W        W89439  38.387   5.041  11.677
18840W        W89440  18.606  26.627  14.796
18841W        W89441  15.134  34.552  12.028
18842W        W89442  38.356  24.777   3.279
18843W        W89443  13.536  10.331  14.707
18844W        W89444  11.606   7.336   4.204
18845W        W89445  17.979   7.812  14.369
18846W        W89446   3.286  35.770  14.421
18847W        W89447  30.517   5.792   3.161
18848W        W89448  32.031   6.732   1.033
18849W        W89449  11.811  13.829   0.470
18850W        W89450  43.621  30.982   3.643
18851W        W89451  20.959  14.915   3.357
18852W        W89452   7.413  39.334   2.581
18853W        W89453   6.759  42.083   3.762
18854W        W89454   6.255  21.271  12.566
18855W        W89455  39.310  39.722  12.103
18856W        W89456  35.958  29.924  14.234
18857W        W89457  15.933   8.868   3.637
18858W        W89458  30.184  17.590  11.212
18859W        W89459  43.301  32.646  11.966
18860W        W89460   1.554   8.669  10.814
18861W        W89461  19.550  23.986  13.117
18862W        W89462  39.844  22.270  13.979
18863W        W89463  25.344  34.315   3.236
18864W        W89464  33.497   4.825   4.056
18865W        W89465  23.822   2.703  11.967
18866W        W89466  29.349  34.513  13.866
18867W        W89467   4.255  15.222   4.473
18868W        W89468  19.041  31.812   3.044
18869W        W89469  25.415  13.798  14.839
18870W        W89470  33.343  18.308  11.600
18871W        W89471  39.562   6.366   0.206
18872W        W89472  39.047  12.920   1.415
18873W        W89473  27.142   2.990  13.096
18874W        W89474  24.589   5.145   4.168
18875W        W89475   3.388   0.176   1.802
18876W        W89476  32.388   9.667   1.793
18877W        W89477  21.330  32.602   0.048
18878W        W89478   0.983  30.873   4.117
18879W        W89479  41.368  36.042   4.634
18880W        W89480   8.850  24.860  13.149
18881W        W89481  29.778   0.074   1.195
18882W        W89482  10.798  22.518  11.098
18883W        W89483  37.132  28.479  12.929
18884W        W89484   5.174  28.001  13.504
18885W        W89485  14.610  11.181   2.813
18886W        W89486   2.813  35.449  14.816
18887W        W89487   7.448  30.996  13.849
18888W        W89488  11.556   9.740   0.467
18889W        W89489  11.223  34.520   1.422
18890W        W89490  42.412  32.426  12.543
18891W        W89491  17.653  19.571   1.805
18892W        W89492   4.009  38.865  11.732
18893W        W89493  39.753   9.188  13.473
18894W        W89494  19.349  21.434  11.417
18895W        W89495  40.991  15.615  10.787
18896W        W89496  23.599  35.420   0.820
18897W        W89497  33.113  41.868  14.376
18898W        W89498   0.136   1.839  14.103
18899W        W89499  19.974  27.154  12.106
18900W        W89500  14.366  20.657   2.151
18901W        W89501  13.849  29.656   0.263
18902W        W89502  20.484  31.765   0.366
18903W        W89503  23.924  34.070   0.820
18904W        W89504  39.112  20.133   0.791
18905W        W89505  44.392  21.245  14.107
18906W        W89506  12.974   8.278  13.559
18907W        W89507  21.278  37.601   1.887
18908W        W89508   6.163  32.168   0.514
18909W        W89509  44.367  34.930   3.651
18910W        W89510  19.100  18.799   1.046
18911W        W89511  14.211  21.275   1.388
18912W        W89512   3.859  30.086  11.948
18913W        W89513  10.838  24.345  14.461
18914W        W89514  26.953   8.975   4.612
18915W        W89515  22.133  33.440  14.370
18916W        W89516  23.675  38.615  13.508
18917W        W89517  17.074  19.219  10.714
18918W        W89518  28.067  41.991  11.698
18919W        W89519  41.893  23.732   4.670
18920W        W89520  20.053   8.181   2.781
18921W        W89521   7.804  24.991  14.399
18922W        W89522  44.208  16.004  12.042
18923W        W89523  20.237  27.706   3.688
18924W        W89524  17.219  17.807   0.915
18925W        W89525  27.918  35.357  10.598
18926W        W89526  13.274  30.811   0.346
18927W        W89527   7.473  36.035  13.424
18928W        W89528  28.138  22.544  11.405
18929W        W89529  39.505  17.771   3.530
18930W        W89530  21.085   1.797   0.193
18931W        W89531  15.608  43.313  12.170
18932W        W89532  43.793  20.210   3.216
18933W        W89533   4.399  27.427  14.859
18934W        W89534   0.249  18.538  14.815
18935W        W89535  26.726   3.328  13.372
18936W        W89536  20.881  33.130   0.693
18937W        W89537  17.436  37.731   1.713
18938W        W89538   9.665  41.444  11.218
18939W        W89539  21.542  12.347   4.271
18940W        W89540  29.510  41.986  10.622
18941W        W89541  36.927  30.957  12.681
18942W        W89542  17.193  29.899   4.230
18943W        W89543   6.200  32.954  12.557
18944W        W89544  34.144  10.385   0.276
18945W        W89545  18.103  35.481  11.826
18946W        W89546  10.130  41.934  13.485
18947W        W89547  30.927  31.245   1.193
18948W        W89548  32.251  23.194   9.881
18949W        W89549   5.710   6.609   1.714
18950W        W89550  30.384   4.164  11.034
18951W        W89551  36.026  14.379  13.013
18952W        W89552   3.530  13.747   4.095
18953W        W89553  26.750  12.999   4.635
18954W        W89554  16.676  33.119   1.453
18955W        W89555  40.763  26.992  10.400
18956W        W89556  43.882  31.393  12.066
18957W        W89557  25.503  23.579  10.711
18958W        W89558  23.740  23.500  12.079
18959W        W89559  38.374  39.804  13.060
18960W        W89560  16.777  18.435   0.311
18961W        W89561  43.572  19.249   0.320
18962W        W89562  41.654  37.396  10.914
18963W        W89563  26.637  14.587   0.374
18964W        W89564  24.094  30.860   3.049
18965W        W89565  42.916   7.248  12.885
18966W        W89566  18.706   5.161  11.261
18967W        W89567  32.364  13.674   4.126
18968W        W89568   3.019  24.019  12.454
18969W        W89569  24.896   0.668   2.587
18970W        W89570  39.129  42.295   1.681
18971W        W89571  12.638  10.679  11.414
18972W        W89572  29.836  35.877   2.282
18973W        W89573  12.955   9.831  12.420
18974W        W89574  35.887  17.336   4.562
18975W        W89575  17.948  35.769   4.964
18976W        W89576  32.898  28.477  12.363
18977W        W89577  34.540   5.448  13.983
18978W        W89578   1.831  11.008   3.772
18979W        W89579  34.132  37.334   4.504
18980W        W89580  35.461   8.634   3.124
18981W        W89581  35.175  19.326   3.372
18982W        W89582  41.027   6.156   4.266
18983W        W89583   1.759  15.563   3.964
18984W        W89584  37.121   9.569  11.986
18985W        W89585  22.637  42.156   3.854
18986W        W89586  33.528  21.308  13.427
18987W        W89587  21.019   8.957   1.256
18988W        W89588   1.472  16.584  11.195
18989W        W89589  30.389  43.459   0.480
18990W        W89590  29.955  21.162   0.793
18991W        W89591   4.437   2.785  10.643
18992W        W89592  44.107  37.345  13.639
18993W        W89593  28.184   6.207  13.354
18994W        W89594   3.330   5.001  14.301
18995W        W89595   4.168  15.305   0.883
18996W        W89596  18.453  40.756  12.894
18997W        W89597   8.597  37.626   2.652
18998W        W89598  17.510  11.817   3.696
18999W        W89599  17.801  33.863   3.363
19000W        W89600   1.402  38.563   2.886
19001W        W89601  19.280  35.348  14.930
19002W        W89602  23.368  35.020  11.926
19003W        W89603   3.910   9.609   4.183
19004W        W89604   8.823  16.470  11.322
19005W        W89605  37.084  16.181   3.416
19006W        W89606  26.582  15.676   2.938
19007W        W89607  15.344   7.395   3.703
19008W        W89608  18.187  30.068  10.674
19009W        W89609  12.117  12.096  12.964
19010W        W89610   9.764   6.137   0.357
19011W        W89611  23.966   3.175   5.353
19012W        W89612  38.536   1.114  14.386
19013W        W89613  12.891  42.570   3.243
19014W        W89614  15.157  40.410   1.217
19015W        W89615  28.830  25.631  12.015
19016W        W89616  11.097   5.260   4.173
19017W        W89617  39.612  40.264   3.924
19018W        W89618  24.092  23.712  10.011
19019W        W89619  26.006   9.280  11.966
19020W        W89620  31.485  21.422   1.752
19021W        W89621   0.343  24.608   3.358
19022W        W89622  24.747   5.319  10.756
19023W        W89623  34.584  27.754   0.771
19024W        W89624   5.319   2.744   4.565
19025W        W89625  22.304   1.800   4.253
19026W        W89626  15.008   7.427   2.865
19027W        W89627  30.159   9.449  13.506
19028W        W89628  25.482  42.502  11.240
19029W        W89629  16.178  42.256   1.334
19030W        W89630  10.323  30.568  10.817
19031W        W89631   0.610  26.376  13.742
19032W        W89632  19.580  32.836  11.909
19033W        W89633   6.703  29.151   0.224
19034W        W89634  26.578  35.263   2.772
19035W        W89635  37.633  32.847  11.121
19036W        W89636  28.955  31.108   4.657
19037W        W89637  33.923  24.010   1.333
19038W        W89638  15.382  26.036  13.468
19039W        W89639  11.097  16.204   3.875
19040W        W89640  22.229  34.783  11.019
19041W        W89641  38.905  36.532  12.194
19042W        W89642  23.608  34.933   4.764
19043W        W89643  18.127  28.547   4.068
19044W        W89644  30.528  24.762   1.355
19045W        W89645  26.932  15.578   0.607
19046W        W89646  43.526  36.961  14.397
19047W        W89647  41.384   4.229  11.141
19048W        W89648  15.759   5.618  14.762
19049W        W89649  19.459  30.157   1.283
19050W        W89650  34.884  38.060  11.059
19051W        W89651  15.166  24.931   1.974
19052W        W89652  44.977   5.263  14.802
19053W        W89653  34.533  23.997  10.706
19054W        W89654  10.682  36.425   0.100
19055W        W89655  38.580  26.440   1.710
19056W        W89656  16.712  24.531  10.767
19057W        W89657  16.378  29.176   4.056
19058W        W89658   3.887  24.270  13.933
19059W        W89659  15.042   7.679   2.401
19060W        W89660   3.402  25.068  14.449
19061W        W89661  42.541   3.447  11.645
19062W        W89662  21.054  38.464  11.503
19063W        W89663   0.051  18.517   2.454
19064W        W89664  24.000  21.290  11.548
19065W        W89665  20.535  41.700   2.358
19066W        W89666  39.072  22.181   4.802
19067W        W89667  36.899  22.054   0.851
19068W        W89668  37.920  11.726  11.994
19069W        W89669  41.254  43.330  14.278
19070W        W89670  26.492  43.805  12.546
19071W        W89671  40.419  26.861   2.723
19072W        W89672   1.913  40.312  11.935
19073W        W89673  21.275  35.032  10.838
19074W        W89674  22.536  32.618   4.619
19075W        W89675  28.087  41.572   3.832
19076W        W89676   7.811  29.820  14.096
19077W        W89677  44.126  28.656  10.744
19078W        W89678  27.704  16.400   1.778
19079W        W89679  30.077   3.447  13.856
19080W        W89680   0.911  34.445  12.912
19081W        W89681   7.242  17.226  11.399
19082W        W89682  15.191  27.157   0.574
19083W        W89683  14.344  39.763  14.283
19084W        W89684  28.694   5.828   1.227
19085W        W89685  18.607   9.909   2.960
19086W        W89686  38.819  10.965  14.540
19087W        W89687  22.491  31.079   4.513
19088W        W89688  26.687  31.177   3.185
19089W        W89689   9.552  35.385  13.547
19090W        W89690  38.508   0.697   1.737
19091W        W89691  10.084  35.585   4.541
19092W        W89692  15.710  18.765  11.218
19093W        W89693  27.289  20.529  12.364
19094W        W89694  14.115  40.588   3.192
19095W        W89695  14.865  38.114   3.241
19096W        W89696  39.702  24.710  11.199
19097W        W89697  26.642  35.610  13.929
19098W        W89698  30.104  10.895  14.505
19099W        W89699  37.022  44.049   2.766
19100W        W89700  25.567  17.430  12.044
19101W        W89701  16.851  34.553  13.292
19102W        W89702  37.476  39.383  10.872
19103W        W89703   2.776   0.815   3.173
19104W        W89704  18.752  27.366   0.450
19105W        W89705   5.443  41.222  11.817
19106W        W89706  40.485  34.522  14.148
19107W        W89707  28.653   8.399   1.822
19108W        W89708   0.732  21.007   2.825
19109W        W89709  42.033  20.980  11.036
19110W        W89710  35.958  30.016   0.306
19111W        W89711  28.583  41.235  13.991
19112W        W89712  27.424  39.809   0.508
19113W        W89713  43.581  37.608   2.707
19114W        W89714   4.997  44.380  10.380
19115W        W89715  44.001  24.694  14.373
19116W        W89716  23.704  34.514  13.937
19117W        W89717   1.771   8.840   0.929
19118W        W89718  16.569   5.301   1.057
19119W        W89719   0.041  15.519   4.104
19120W        W89720  44.508  16.125  10.743
19121W        W89721  10.794  11.677  13.062
19122W        W89722  41.186  19.519   1.732
19123W        W89723  37.241  12.271  14.476
19124W        W89724  25.476   4.555   0.906
19125W        W89725  31.980  15.730  11.372
19126W        W89726  30.145  14.682   0.901
19127W        W89727  31.961  11.274   3.207
19128W        W89728  36.972   4.874  10.922
19129W        W89729  27.762  23.297  11.552
19130W        W89730  32.116  36.771  12.995
19131W        W89731  30.930  21.255  10.192
19132W        W89732  42.694  31.781  12.995
19133W        W89733  19.711  31.310   4.273
19134W        W89734  41.303  35.871   3.589
19135W        W89735   4.220  41.077   3.151
19136W        W89736  26.433  24.606   3.732
19137W        W89737  16.469  10.029  11.643
19138W        W89738  37.358  31.978  12.983
19139W        W89739  22.856  33.197  14.785
19140W        W89740  19.003  20.650   0.271
19141W        W89741   5.200   1.496   3.804
19142W        W89742  41.879  22.852  11.664
19143W        W89743   7.697  43.894   1.759
19144W        W89744  39.060   1.781  11.892
19145W        W89745  35.315  34.901  10.640
19146W        W89746  29.513  22.983   4.125
19147W        W89747  18.527   6.939   3.558
19148W        W89748  11.097  20.500   0.362
19149W        W89749  37.985  44.537   3.841
19150W        W89750   9.625  15.623  12.573
19151W        W89751  23.018  35.303   2.738
19152W        W89752   5.772  19.197   2.591
19153W        W89753   4.426   7.741  13.407
19154W        W89754  16.651  18.244   0.790
19155W        W89755  18.941  43.952   0.798
19156W        W89756   0.957   2.552  11.022
19157W        W89757  25.648   5.155  12.984
19158W        W89758   3.225  42.285  11.021
19159W        W89759  27.994   9.142  13.416
19160W        W89760  36.275  42.507  11.589
19161W        W89761   2.419   4.427   0.951
19162W        W89762  25.591  32.198  13.541
19163W        W89763   0.877  31.587   1.229
19164W        W89764  35.830  34.174  10.937
19165W        W89765  29.705   6.854   3.671
19166W        W89766  10.270  25.837  11.220
19167W        W89767  40.221  38.035  13.041
19168W        W89768  22.071  22.489  13.034
19169W        W89769  26.601  29.898  14.317
19170W        W89770  35.531  11.814   0.970
19171W        W89771  13.793  37.441  12.597
19172W        W89772  19.208  19.612   3.834
19173W        W89773  13.213  21.741   1.765
19174W        W89774  13.028  28.430   2.004
19175W        W89775  17.735   6.675   4.543
19176W        W89776  31.391  34.091  11.669
19177W        W89777  43.125  22.560   4.778
19178W        W89778  15.769   1.187   1.778
19179W        W89779  21.181  11.934  13.452
19180W        W89780  10.251   5.798  12.844
19181W        W89781  11.875  19.769   2.933
19182W        W89782   5.907  10.810   1.534
19183W        W89783  23.601   6.845   2.212
19184W        W89784  10.321  36.553   0.801
19185W        W89785  16.951   9.382  12.825
19186W        W89786  28.202  37.856   4.570
19187W        W89787   4.349  28.635  10.698
19188W        W89788  23.720  25.519   4.059
19189W        W89789  33.847  14.843  11.179
19190W        W89790   9.256  35.341   4.217
19191W        W89791  30.169   5.511   3.383
19192W        W89792  22.269  11.586   4.970
19193W        W89793  41.343  22.675  13.698
19194W        W89794  21.115  31.674  14.824
19195W        W89795  15.155   4.026   1.467
19196W        W89796  30.254  28.465   2.732
19197W        W89797  41.956  26.410  13.396
19198W        W89798  35.789  27.753   0.353
19199W        W89799  11.392  32.529  12.380
19200W        W89800  44.803  26.029  11.545
19201W        W89801  28.933  24.683  12.848
19202W        W89802  38.081  35.012  11.472
19203W        W89803  37.575  31.964   0.349
19204W        W89804   8.341  28.574   4.960
19205W        W89805   2.884  11.577   3.269
19206W        W89806  26.259  16.145   3.778
19207W        W89807  10.152  38.006  13.062
19208W        W89808  41.398  17.132   5.458
19209W        W89809  26.080  42.999   3.074
19210W        W89810   2.025  11.591   1.504
19211W        W89811  31.709  37.521  13.461
19212W        W89812  44.406  10.395  10.818
19213W        W89813  16.655  28.576   0.686
19214W        W89814  30.058  36.755  11.528
19215W        W89815  13.022   4.185  11.926
19216W        W89816  19.349   1.935   3.188
19217W        W89817  38.883  11.471  14.591
19218W        W89818  18.656   4.992   1.296
19219W        W89819  29.471  34.513   3.760
19220W        W89820  27.454  10.905  13.091
19221W        W89821  42.247  27.026  10.694
19222W        W89822  31.868  10.420   4.458
19223W        W89823  26.743  10.427   1.355
19224W        W89824  43.913  44.911  12.370
19225W        W89825   9.987   3.336   2.447
19226W        W89826  33.402   1.853   0.831
19227W        W89827   5.857   4.892   0.893
19228W        W89828   0.062  24.500  11.787
19229W        W89829  18.241  11.555  13.068
19230W        W89830   9.823   4.476   4.075
19231W        W89831  16.534   0.705   1.861
19232W        W89832  38.069  41.070  14.360
19233W        W89833  32.482  28.924   3.313
19234W        W89834  18.668   5.425   3.283
19235W        W89835  25.419  44.216   3.331
19236W        W89836  21.249  44.231   0.419
19237W        W89837   6.647  44.257   4.819
19238W        W89838  23.527   2.620   3.460
19239W        W89839  44.430  40.509  12.738
19240W        W89840  13.878  33.969  10.667
19241W        W89841  30.817  13.292  14.870
19242W        W89842  34.600  12.830   0.208
19243W        W89843   2.310  28.626   4.802
19244W        W89844  41.918  43.426   3.287
19245W        W89845   0.866   4.896   5.096
19246W        W89846  36.504  10.593   0.257
19247W        W89847   4.499  37.154   0.291
19248W        W89848  28.207  32.152   1.360
19249W        W89849   6.311   6.197  12.419
19250W        W89850   8.004  31.034  13.315
19251W        W89851  42.443  15.472   2.290
19252W        W89852  34.063  23.547  13.133
19253W        W89853  19.715  31.463   4.759
19254W        W89854  30.985   0.664  13.981
19255W        W89855  18.021  42.534  14.472
19256W        W89856   4.044  23.941  12.689
19257W        W89857   5.749  13.084   2.885
19258W        W89858  14.197   7.171  10.411
19259W        W89859   8.780  14.238   3.614
19260W        W89860  24.463  30.210   2.321
19261W        W89861  37.534   0.927   4.226
19262W        W89862  21.424  12.104  14.502
19263W        W89863  24.721  18.114  13.877
19264W        W89864   6.722  40.050   3.736
19265W        W89865  25.578   7.301   0.094
19266W        W89866  11.581  44.822   4.053
19267W        W89867  19.719  25.275  14.058
19268W        W89868   1.093   8.119  11.895
19269W        W89869  27.494  15.852   4.582
19270W        W89870   8.560  11.128   1.735
19271W        W89871  43.210   6.211  10.715
19272W        W89872  27.357  32.609  12.932
19273W        W89873  31.415  25.519  13.400
19274W        W89874  36.977  17.125  10.618
19275W        W89875  35.513  24.761  11.156
19276W        W89876  26.783   3.551   1.809
19277W        W89877  43.871  10.019  12.397
19278W        W89878  21.268  24.002   3.609
19279W        W89879  10.360  24.098   4.340
19280W        W89880   5.908   6.333  10.690
19281W        W89881  32.046  40.558  12.900
19282W        W89882  42.306  20.979   2.317
19283W        W89883   7.219   1.967   2.659
19284W        W89884   8.130  29.149   0.052
19285W        W89885  11.075  19.959   1.195
19286W        W89886  15.882   1.958  11.576
19287W        W89887  18.162   1.068  10.597
19288W        W89888  42.059  19.835  12.201
19289W        W89889  19.186  14.529  11.971
19290W        W89890  32.932  14.544   2.467
19291W        W89891  32.395  13.647  10.660
19292W        W89892  17.015   0.477  11.949
19293W        W89893  14.049  20.349  12.203
19294W        W89894  21.870  42.822  11.716
19295W        W89895  36.555  12.369   0.021
19296W        W89896   1.958  26.488   4.960
19297W        W89897   8.804  15.941  12.476
19298W        W89898  18.146   5.247  12.499
19299W        W89899  32.478   2.711  12.544
19300W        W89900  44.409  30.710   4.594
19301W        W89901  12.593   1.162  14.985
19302W        W89902   4.206   2.701   2.421
19303W        W89903  32.416  27.743   1.825
19304W        W89904  10.868  38.000   1.910
19305W        W89905  11.737  37.285   4.112
19306W        W89906  14.595  25.605  11.627
19307W        W89907  31.014  37.378  11.267
19308W        W89908  14.799  22.224   2.582
19309W        W89909  15.817  20.065   2.683
19310W        W89910   4.868  37.836   4.495
19311W        W89911  17.622  15.839   4.520
19312W        W89912  18.265  19.244  12.027
19313W        W89913  12.901  20.734   4.806
19314W        W89914  39.478  13.589  13.115
19315W        W89915  10.726  33.298  13.910
19316W        W89916  34.441  20.051   4.032
19317W        W89917  16.115  14.196  12.543
19318W        W89918  21.717   3.251  11.978
19319W        W89919  38.033  29.103  14.003
19320W        W89920  30.431  29.038   1.512
19321W        W89921  26.065   0.288  12.521
19322W        W89922   0.843  41.860  10.967
19323W        W89923   6.245  37.096  14.751
19324W        W89924  25.073  28.165   3.337
19325W        W89925   8.800  26.864  14.194
19326W        W89926  33.560   8.652  12.001
19327W        W89927  10.636  10.470  14.973
19328W        W89928  29.054  19.313   1.271
19329W        W89929  34.360  44.476  12.809
19330W        W89930  37.366  25.101  12.137
19331W        W89931  13.780  30.062   4.523
19332W        W89932  14.774  37.437  10.776
19333W        W89933  37.367  42.952   3.624
19334W        W89934  32.563  17.495   4.167
19335W        W89935   3.556  20.421   1.339
19336W        W89936  11.183  29.946   4.253
19337W        W89937   9.974  11.336   4.604
19338W        W89938  30.095  39.341   2.220
19339W        W89939  16.985  30.504   9.967
19340W        W89940  32.221  35.978   1.806
19341W        W89941  12.842  20.128  14.417
19342W        W89942  38.467  26.918  12.011
19343W        W89943  42.480  32.164  11.232
19344W        W89944   8.907  38.473  11.620
19345W        W89945  23.260   1.485  11.978
19346W        W89946  20.530   1.310  10.705
19347W        W89947  30.822  34.927  13.177
19348W        W89948  14.677  11.184  14.603
19349W        W89949  41.686  34.198  14.552
19350W        W89950  37.968  29.120   1.000
19351W        W89951  13.980  33.271   4.148
19352W        W89952  43.507   8.444  12.729
19353W        W89953  17.452   9.771  14.441
19354W        W89954  32.810  14.796   4.071
19355W        W89955  29.592  16.826   3.293
19356W        W89956  24.049  26.861   0.042
19357W        W89957   5.426  20.755  11.566
19358W        W89958  21.342  24.050   4.134
19359W        W89959  20.627  11.189   0.836
19360W        W89960  34.759  31.218  10.445
19361W        W89961  14.350   2.293   2.651
19362W        W89962  36.803   8.642   2.341
19363W        W89963  21.289  13.183   3.918
19364W        W89964  40.506   0.434   1.446
19365W        W89965  20.616  15.674   0.283
19366W        W89966  12.177   1.778  14.722
19367W        W89967  41.523   1.284  11.978
19368W        W89968  43.480  37.079   4.137
19369W        W89969  26.594  40.339   1.495
19370W        W89970  41.003   7.881   4.323
19371W        W89971   0.263   9.482  14.250
19372W        W89972  20.494   3.307  11.677
19373W        W89973  19.913  20.476   1.333
19374W        W89974  41.666  40.791  11.574
19375W        W89975  21.542   8.204  12.093
19376W        W89976  25.036  43.331  14.826
19377W        W89977   7.233  18.098  13.808
19378W        W89978   5.182  43.250  12.037
19379W        W89979  17.679  44.969   4.620
19380W        W89980   8.329  21.929  11.618
19381W        W89981  38.408  14.189  11.932
19382W        W89982   1.457  20.281  11.746
19383W        W89983   0.817   5.760   0.486
19384W        W89984  11.373   3.912  12.416
19385W        W89985  11.413  22.619  14.148
19386W        W89986   8.244  40.527  12.791
19387W        W89987  19.029  29.465   3.181
19388W        W89988   9.408  12.870   0.743
19389W        W89989  40.008   2.106  11.666
19390W        W89990  29.354   4.656  11.456
19391W        W89991  17.294  43.625  12.512
19392W        W89992  28.459  12.797   2.271
19393W        W89993  24.707   2.360  13.030
19394W        W89994  29.900  12.160   1.461
19395W        W89995  27.389  23.302   2.778
19396W        W89996   9.736   0.885   1.800
19397W        W89997  11.077   5.005   3.546
19398W        W89998  13.799  21.033   0.480
19399W        W89999  23.408  14.248   2.665
19400W        W90000  42.344  22.981   2.334
19401W        W90001   2.542  17.038   0.973
19402W        W90002  15.402  42.846   2.365
19403W        W90003   2.810  13.876  12.244
19404W        W90004  28.981   8.587   2.752
19405W        W90005  16.932   9.512   1.977
19406W        W90006  39.059   7.913   1.883
19407W        W90007  21.092  27.576   5.002
19408W        W90008  24.304  27.976  13.370
19409W        W90009  22.002  18.676   4.464
19410W        W90010  35.511  22.601   0.836
19411W        W90011  32.407  15.133   3.888
19412W        W90012  28.429  25.187  13.918
19413W        W90013  41.128  34.924  14.230
19414W        W90014  12.622  27.981  11.037
19415W        W90015   6.168  31.740  14.833
19416W        W90016  15.762   8.308  14.734
19417W        W90017  29.659   6.872   0.759
19418W        W90018  43.379  40.425   1.346
19419W        W90019   9.753   0.452   2.234
19420W        W90020  35.885  18.342  10.482
19421W        W90021  11.196   7.890  13.390
19422W        W90022   5.163  36.281  14.232
19423W        W90023  28.501  18.681   3.171
19424W        W90024   4.146  17.807   4.707
19425W        W90025   1.502  38.881   0.357
19426W        W90026   1.793  28.239  10.710
19427W        W90027  36.930  12.440  11.561
19428W        W90028  26.464  28.742   0.032
19429W        W90029  42.386   6.834  10.681
19430W        W90030   9.786  40.393   4.609
19431W        W90031   2.340  14.072  12.260
19432W        W90032  24.579  17.331   1.772
19433W        W90033   9.060   9.774   0.274
19434W        W90034   2.455  44.052  13.436
19435W        W90035  41.080  35.671  14.902
19436W        W90036  10.829  39.953  13.866
19437W        W90037   9.769  18.046   0.908
19438W        W90038  35.576  13.069  10.700
19439W        W90039   6.206   2.800   4.324
19440W        W90040  16.018  13.902   3.174
19441W        W90041  33.446  13.332  14.409
19442W        W90042  17.572  31.116   1.591
19443W        W90043  31.572  42.301  14.286
19444W        W90044  14.274  42.313   2.151
19445W        W90045  15.145  35.872   0.222
19446W        W90046  10.749   0.823  14.750
19447W        W90047  19.569  18.154   3.770
19448W        W90048  13.682  26.337   2.122
19449W        W90049  27.388   8.654   4.448
19450W        W90050  31.030  18.065   1.943
19451W        W90051  38.010  35.085  13.208
19452W        W90052  10.148   5.745   1.143
19453W        W90053  14.719  25.963  14.429
19454W        W90054  26.080   7.844  10.624
19455W        W90055  23.696  12.810  14.848
19456W        W90056  14.491  33.889  12.503
19457W        W90057  28.698  32.565   4.701
19458W        W90058   5.223  11.061   0.401
19459W        W90059  38.097  31.155   1.189
19460W        W90060  31.415  18.747   2.230
19461W        W90061  37.172   1.165  12.959
19462W        W90062  38.967   3.469  10.824
19463W        W90063  36.972   3.830   4.022
19464W        W90064   2.235  23.520  14.325
19465W        W90065  44.448  21.299   2.261
19466W        W90066  43.032  40.363   3.472
19467W        W90067  39.910  41.903  13.880
19468W        W90068   5.501  17.278   1.736
19469W        W90069  17.587   5.689   2.771
19470W        W90070  21.138  37.790  10.960
19471W        W90071  33.293  43.484  12.073
19472W        W90072   6.214   2.998  13.646
19473W        W90073   1.855  42.191  13.910
19474W        W90074  12.955  28.264   0.888
19475W        W90075  33.532   6.674  10.120
19476W        W90076  42.217  13.277   3.249
19477W        W90077  42.668  29.572  14.822
19478W        W90078  19.809   2.110   4.991
19479W        W90079  11.614  14.583  13.725
19480W        W90080  29.749   1.526  13.940
19481W        W90081  39.106  20.085   2.735
19482W        W90082  29.871  26.970  10.828
19483W        W90083   1.299  10.632   1.198
19484W        W90084  34.422  32.464  10.581
19485W        W90085  25.777  20.509  13.307
19486W        W90086  43.023   2.778   4.151
19487W        W90087  23.147   2.537   1.484
19488W        W90088  44.252   1.673  12.698
19489W        W90089  10.226   1.394  13.000
19490W        W90090  11.306  15.918   2.568
19491W        W90091  23.951  28.607  12.069
19492W        W90092   3.917  30.413   4.047
19493W        W90093  22.945  32.520   1.736
19494W        W90094  10.639  21.262   2.845
19495W        W90095  31.823   8.915  13.679
19496W        W90096  30.149  41.949  13.340
19497W        W90097  27.194   7.868  11.613
19498W        W90098   2.265  23.133  14.815
19499W        W90099   5.454  31.255  13.328
19500W        W90100  39.411  43.981   3.358
19501W        W90101  25.593  15.679  11.621
19502W        W90102  10.738  34.442   2.368
19503W        W90103  18.097  40.277   3.803
19504W        W90104  21.302  23.039  14.042
19505W        W90105  26.716  15.610   4.294
19506W        W90106  17.748  34.368  13.613
19507W        W90107  24.073  33.632   0.488
19508W        W90108  16.070   6.524   2.252
19509W        W90109   9.364  20.857   1.837
19510W        W90110  38.932  32.968  12.844
19511W        W90111   6.970  26.196  12.390
19512W        W90112  42.445  29.118  11.205
19513W        W90113  27.667  34.285  12.544
19514W        W90114  38.426  19.586   0.254
19515W        W90115  26.447  39.530  12.865
19516W        W90116  20.589   3.429   1.696
19517W        W90117  32.092  28.422  13.913
19518W        W90118  39.786  36.983  14.821
19519W        W90119  44.387  30.690  13.848
19520W        W90120   1.586  42.185   2.279
19521W        W90121  29.805   3.531  12.971
19522W        W90122  33.442  23.860   0.438
19523W        W90123  44.280  23.694  10.768
19524W        W90124  32.043  14.752  11.679
19525W        W90125  29.049  22.013  11.695
19526W        W90126  10.749  30.977   1.461
19527W        W90127  40.220  36.364   4.310
19528W        W90128  12.480  34.667   2.619
19529W        W90129  22.915  23.188   4.418
19530W        W90130  21.162  20.859   3.660
19531W        W90131  26.219   5.593  12.436
19532W        W90132  40.352   0.956   0.698
19533W        W90133  20.158   0.438  10.428
19534W        W90134   0.730  36.444  14.407
19535W        W90135   6.317  24.487   3.242
19536W        W90136  17.144   2.027  13.504
19537W        W90137  30.932  14.351  11.141
19538W        W90138  23.107  41.677   4.157
19539W        W90139  14.347  32.191  14.472
19540W        W90140   6.363  43.435   5.013
19541W        W90141  11.374  18.298   3.705
19542W        W90142  29.740  26.654   4.676
19543W        W90143  29.725  10.684  13.086
19544W        W90144  37.852  39.206  14.007
19545W        W90145  43.742  17.164   2.715
19546W        W90146  28.202  12.240  10.661
19547W        W90147  17.712  16.088   3.188
19548W        W90148  15.481   7.615  11.916
19549W        W90149  30.710  38.912  13.998
19550W        W90150  43.580  31.078   0.337
19551W        W90151  35.468  43.007  13.900
19552W        W90152  43.817   4.395  12.126
19553W        W90153  35.664   7.429  11.580
19554W        W90154  16.278  18.430  11.281
19555W        W90155  23.056  41.532  13.494
19556W        W90156  17.093  12.666  13.374
19557W        W90157  10.671  13.804   4.147
19558W        W90158  11.747  39.926  10.634
19559W        W90159  25.443  30.516  14.761
19560W        W90160   0.602  34.159   0.360
19561W        W90161   7.473  31.301  12.433
19562W        W90162  40.074  21.191  10.779
19563W        W90163  14.738  40.777  14.884
19564W        W90164   8.851  23.636   1.410
19565W        W90165  39.873   9.227   0.780
19566W        W90166  25.796  31.890   4.470
19567W        W90167   5.270  11.630  11.854
19568W        W90168  10.465  16.711  12.465
19569W        W90169  22.774   0.099  10.919
19570W        W90170  32.934  29.086   0.764
19571W        W90171  44.909  35.028   3.886
19572W        W90172  20.764  33.930  13.888
19573W        W90173  42.001  35.573   2.237
19574W        W90174  32.712  19.279  11.070
19575W        W90175  18.098  44.894  11.968
19576W        W90176  13.575  43.397   2.851
19577W        W90177   4.066   1.738  12.088
19578W        W90178  35.612  40.025   4.208
19579W        W90179   6.102  42.831   1.455
19580W        W90180  21.129  15.611   0.639
19581W        W90181  12.319  27.185  10.716
19582W        W90182  13.115  37.035  12.880
19583W        W90183  36.934  42.335  12.969
19584W        W90184  40.199  26.624   4.925
19585W        W90185  18.936  24.768  13.359
19586W        W90186   5.681  43.057  12.103
19587W        W90187   6.265  30.141   2.405
19588W        W90188   1.146  39.282  10.548
19589W        W90189  23.585  12.498  13.857
19590W        W90190  35.641   1.230  12.919
19591W        W90191  41.356   7.354   3.070
19592W        W90192  19.248  16.534   3.874
19593W        W90193  43.066  12.617  14.444
19594W        W90194  29.593  22.422   0.779
19595W        W90195  30.375  13.357  10.678
19596W        W90196  16.254  19.641  12.029
19597W        W90197  10.114   4.188   4.781
19598W        W90198   3.280  19.562   2.204
19599W        W90199  38.090  13.800  11.690
19600W        W90200  37.384  12.632  11.807
19601W        W90201  24.665   9.652   2.370
19602W        W90202   1.451  24.975   3.106
19603W        W90203  26.681  41.945   1.637
19604W        W90204  23.169   2.032   2.113
19605W        W90205   4.338  42.497  13.284
19606W        W90206  31.470  30.342  11.317
19607W        W90207  17.246  31.949   0.772
19608W        W90208  39.564  40.078  11.472
19609W        W90209  15.522   5.896  14.002
19610W        W90210  21.078  25.929   2.897
19611W        W90211  32.988   0.719  13.921
19612W        W90212  33.397  26.250   3.495
19613W        W90213  10.319  20.731  12.130
19614W        W90214  42.204  40.538  12.619
19615W        W90215  15.769   3.951  12.482
19616W        W90216  34.573   1.951  10.915
19617W        W90217   9.390   1.305   4.610
19618W        W90218  25.175  31.452   3.754
19619W        W90219  29.225  16.347   3.709
19620W        W90220   4.788  43.525  13.482
19621W        W90221   6.826  14.828  14.267
19622W        W90222  34.551  40.653  13.878
19623W        W90223  26.120  37.461  10.916
19624W        W90224  37.125  40.783   4.144
19625W        W90225  31.540  20.893   4.411
19626W        W90226  36.718  26.633   4.737
19627W        W90227  31.645   9.814   2.201
19628W        W90228  17.608  37.518  13.827
19629W        W90229  41.737  43.904   4.406
19630W        W90230  12.088  15.042   4.609
19631W        W90231  42.266  43.803   2.633
19632W        W90232  31.936  18.707   2.130
19633W        W90233  17.109   2.419   1.097
19634W        W90234  20.127  21.336   1.806
19635W        W90235   7.729  14.021   0.771
19636W        W90236  14.567  14.856   2.233
19637W        W90237   6.421  21.154   0.362
19638W        W90238  25.446  11.343   1.937
19639W        W90239  29.000  41.878  10.644
19640W        W90240  31.125  12.438   1.920
19641W        W90241   1.923   7.762  11.832
19642W        W90242  12.692   5.967   2.183
19643W        W90243  36.686  20.246   0.335
19644W        W90244  15.838  27.082  12.134
19645W        W90245  24.424  14.664  12.975
19646W        W90246   2.809  43.207   3.339
19647W        W90247  23.552  36.095  11.165
19648W        W90248  31.115   1.075   1.473
19649W        W90249  34.774  13.479   4.164
19650W        W90250  19.074  34.580  13.603
19651W        W90251  12.251   0.422   0.411
19652W        W90252  15.946  42.035   1.749
19653W        W90253   6.650  11.453  11.435
19654W        W90254  14.659   7.813   0.057
19655W        W90255   9.965   2.840   4.179
19656W        W90256  38.335  35.578  11.065
19657W        W90257  34.179  25.600  13.031
19658W        W90258  30.636   1.920   3.802
19659W        W90259   1.711  10.757   0.228
19660W        W90260  18.724  16.150   4.600
19661W        W90261  21.525  39.267   2.202
19662W        W90262  41.761  42.055  14.433
19663W        W90263  33.103  24.754  14.464
19664W        W90264  30.164  36.267   4.259
19665W        W90265  34.549  31.404   3.109
19666W        W90266  19.085  23.994   2.378
19667W        W90267   1.746  18.600  11.897
19668W        W90268  23.327   4.432   3.357
19669W        W90269  44.837  22.179   4.596
19670W        W90270  30.005  25.397   2.914
19671W        W90271  34.031  37.060   4.064
19672W        W90272  16.210  16.263   1.738
19673W        W90273  44.120   5.219  12.110
19674W        W90274  11.840  16.227   1.730
19675W        W90275  29.112  25.680  12.991
19676W        W90276  24.095  37.646  12.945
19677W        W90277   5.066   7.397   3.593
19678W        W90278   4.504  22.249   4.073
19679W        W90279  23.196  41.860  13.852
19680W        W90280  24.958  33.940   2.292
19681W        W90281  10.765   8.214   0.472
19682W        W90282  30.990  32.523  11.854
19683W        W90283  27.148  28.912   2.735
19684W        W90284  13.824  25.558   1.403
19685W        W90285  43.089  37.555   3.675
19686W        W90286   0.968  11.553   4.164
19687W        W90287  18.752  40.884  13.870
19688W        W90288   5.419  13.230  11.675
19689W        W90289   2.001   5.195   0.200
19690W        W90290  20.674  33.087  10.561
19691W        W90291  11.235  38.078   2.727
19692W        W90292  14.233  44.122   4.878
19693W        W90293   7.463  35.676  14.965
19694W        W90294  16.536  36.725   2.351
19695W        W90295  16.288  31.426   2.659
19696W        W90296  17.613  25.347  10.018
19697W        W90297  11.054  27.138   4.106
19698W        W90298  25.293  13.352  12.163
19699W        W90299  40.377  24.549  10.489
19700W        W90300  37.163  39.802   2.179
19701W        W90301  21.299  44.208  12.834
19702W        W90302  11.322  33.398  12.879
19703W        W90303  37.670  42.669  12.916
19704W        W90304  10.600  24.049  12.593
19705W        W90305   2.216  41.506  13.291
19706W        W90306   0.271  27.184  12.766
19707W        W90307   9.600  23.200  14.495
19708W        W90308   1.199  36.912   0.218
19709W        W90309  10.993  12.042   2.818
19710W        W90310  32.200  18.338   2.384
19711W        W90311   4.874  40.346  10.796
19712W        W90312  32.086  10.139  11.539
19713W        W90313   3.281   6.822   1.838
19714W        W90314  15.330  33.978  13.599
19715W        W90315  43.561  29.147   1.124
19716W        W90316   6.742  17.474   3.255
19717W        W90317  33.332  28.397   2.878
19718W        W90318  17.764  22.183   1.410
19719W        W90319   3.209  40.921   2.750
19720W        W90320  29.596  37.384   3.252
19721W        W90321  38.039  34.098  11.532
19722W        W90322   0.241   1.489   3.278
19723W        W90323  30.358  41.826   0.736
19724W        W90324  36.575  15.485  13.388
19725W        W90325  31.620  44.923  11.542
19726W        W90326  18.761  18.676  13.884
19727W        W90327   8.742  34.987   1.997
19728W        W90328  34.154  29.123   1.282
19729W        W90329  15.610   1.357  14.044
19730W        W90330  27.094  30.156  12.094
19731W        W90331  43.833   1.108  14.718
19732W        W90332  14.542  15.581   0.189
19733W        W90333  32.450  36.379  13.038
19734W        W90334  28.546  34.075   0.776
19735W        W90335  14.351   5.285  11.664
19736W        W90336  18.756  14.034   2.312
19737W        W90337   8.688  44.936  10.706
19738W        W90338   8.742  27.705  12.945
19739W        W90339  28.920   0.902  10.654
19740W        W90340  37.839  18.027   4.183
19741W        W90341   4.360  10.802  12.484
19742W        W90342  28.905  33.562   3.289
19743W        W90343  41.643   6.101   0.270
19744W        W90344  11.107  14.228   1.324
19745W        W90345  18.706  42.670   2.272
19746W        W90346   8.297  10.506   4.217
19747W        W90347  31.937   4.327  14.252
19748W        W90348   4.137   7.870   2.943
19749W        W90349  10.193  40.096   3.670
19750W        W90350  14.107  26.002   1.416
19751W        W90351  16.637  32.121   1.380
19752W        W90352   4.623  20.513   1.993
19753W        W90353  29.467  12.111  12.688
19754W        W90354  15.744  34.398  14.681
19755W        W90355  20.604  43.056   2.745
19756W        W90356  24.151  10.057   3.054
19757W        W90357  10.650  17.925  11.074
19758W        W90358  41.843  22.483   2.855
19759W        W90359  15.115  18.774  13.918
19760W        W90360  23.912  20.335  10.775
19761W        W90361  43.758  30.953  12.442
19762W        W90362  25.645   0.656   9.811
19763W        W90363  17.414  38.657  12.841
19764W        W90364  39.130  41.801   0.809
19765W        W90365   3.716  38.543   3.140
19766W        W90366   0.332  17.198  12.882
19767W        W90367  32.648   5.538  14.300
19768W        W90368  40.977  44.747   1.979
19769W        W90369  16.179  35.341   3.644
19770W        W90370  11.696  40.795   1.912
19771W        W90371  22.684  38.377   2.719
19772W        W90372   3.145  25.157  11.691
19773W        W90373  11.821  26.504  10.250
19774W        W90374  20.268  14.312  10.789
19775W        W90375  22.647  24.894  11.435
19776W        W90376   6.672  40.886  14.918
19777W        W90377  18.258  23.525   2.627
19778W        W90378  11.477   4.772  13.546
19779W        W90379  26.121  17.311  12.781
19780W        W90380  29.868  13.107   1.664
19781W        W90381  36.381  38.056  14.473
19782W        W90382  40.234  41.275  14.874
19783W        W90383  28.624  26.483  14.411
19784W        W90384  42.010   9.621  13.361
19785W        W90385  22.789  25.164  11.919
19786W        W90386  35.843  21.239  13.520
19787W        W90387  23.427  16.530   4.756
19788W        W90388  38.123  29.492  11.441
19789W        W90389  38.789  35.773   4.780
19790W        W90390  39.329  11.696  14.351
19791W        W90391  10.227  11.127   2.293
19792W        W90392  36.460  37.391   1.151
19793W        W90393  34.143  23.222   3.706
19794W        W90394  41.050  21.867   2.786
19795W        W90395   9.704  39.359   2.800
19796W        W90396   6.650  30.364  14.258
19797W        W90397  30.968  29.137  10.687
19798W        W90398  42.608   5.199   0.811
19799W        W90399  43.940  12.369  12.970
19800W        W90400  42.247   5.559   0.741
19801W        W90401   0.418  35.319  13.034
19802W        W90402  32.188   7.646  14.943
19803W        W90403  44.953  34.349  14.408
19804W        W90404  21.134  41.414  11.192
19805W        W90405  31.877   8.101   1.792
19806W        W90406  28.477   6.991  11.471
19807W        W90407  32.874   1.768   0.843
19808W        W90408  10.702  26.491  10.420
19809W        W90409  21.570  30.478   2.163
19810W        W90410  28.670   7.244   1.451
19811W        W90411  31.150  32.467  13.881
19812W        W90412   2.899  30.801   1.847
19813W        W90413   5.888  26.223  11.672
19814W        W90414   2.204  24.141   3.264
19815W        W90415  17.801  22.750   4.549
19816W        W90416  18.961  36.832  14.973
19817W        W90417  31.806  10.842   0.415
19818W        W90418  26.393   6.455   2.032
19819W        W90419  29.456   0.338  12.627
19820W        W90420  31.190  14.734   3.629
19821W        W90421  29.317  19.092   3.740
19822W        W90422   1.749  34.382   2.273
19823W        W90423  10.599  10.544   4.617
19824W        W90424  42.878  30.700   4.689
19825W        W90425   1.701  22.361  11.989
19826W        W90426  32.583  36.799  11.192
19827W        W90427  38.851  32.203   0.874
19828W        W90428   4.413   4.444  14.374
19829W        W90429  28.971  29.609  11.471
19830W        W90430  20.998  13.108  11.123
19831W        W90431  27.791  12.369  14.453
19832W        W90432  23.230  14.061   0.328
19833W        W90433  17.796   5.857   0.045
19834W        W90434   0.420  22.209  11.384
19835W        W90435  40.130  37.138  12.897
19836W        W90436  16.028  25.382   4.911
19837W        W90437  35.439  29.431  10.918
19838W        W90438  21.638  33.359   4.017
19839W        W90439  42.703   3.834   3.683
19840W        W90440  11.835  25.640   3.296
19841W        W90441   5.886   9.961  11.033
19842W        W90442  39.036   6.238  11.889
19843W        W90443  10.736  10.108   4.355
19844W        W90444  11.695  33.503   1.150
19845W        W90445  17.990  32.319  13.461
19846W        W90446  42.339  38.124   1.439
19847W        W90447  23.077  37.822   1.729
19848W        W90448  11.181  22.069  10.663
19849W        W90449  20.291  41.420   1.386
19850W        W90450  36.813  34.425  14.959
19851W        W90451  24.298   6.789   4.134
19852W        W90452  23.730  12.412   4.329
19853W        W90453   0.013  23.181  11.471
19854W        W90454  37.986  36.028  13.319
19855W        W90455   9.559  24.065   1.788
19856W        W90456  27.766  22.316  14.407
19857W        W90457  12.461  22.666  12.107
19858W        W90458   1.024  32.056   0.549
19859W        W90459  23.103  29.124  14.377
19860W        W90460  14.388  41.418   5.081
19861W        W90461  19.063  21.370   2.802
19862W        W90462  10.396  16.802  10.664
19863W        W90463  20.017  43.790  14.558
19864W        W90464  16.064  36.310   9.775
19865W        W90465   3.011   7.440   1.400
19866W        W90466   8.632   7.653  13.809
19867W        W90467   2.850   7.369   2.444
19868W        W90468  10.227  23.444   3.680
19869W        W90469  24.044  26.226   0.817
19870W        W90470  35.437  34.366   4.160
19871W        W90471   6.385   9.137  13.172
19872W        W90472  30.486  35.121  12.832
19873W        W90473  43.948  23.591   1.867
19874W        W90474  14.011  27.958  13.123
19875W        W90475  28.387  27.683   2.842
19876W        W90476  12.567  35.455  14.477
19877W        W90477  12.730  14.486  11.252
19878W        W90478  15.117   8.693  14.450
19879W        W90479  13.617  14.885   4.499
19880W        W90480  44.810   2.250   1.238
19881W        W90481  17.586  44.800  12.031
19882W        W90482   4.201  40.013   2.335
19883W        W90483  42.881   8.746   0.466
19884W        W90484  23.407  27.176   2.808
19885W        W90485   9.676  19.913  12.485
19886W        W90486   7.354   2.660  12.144
19887W        W90487   5.313  23.558  11.921
19888W        W90488  37.403  10.143  14.946
19889W        W90489   3.219   9.641   3.760
19890W        W90490  44.893  19.819   3.788
19891W        W90491  10.138  15.358  11.555
19892W        W90492  15.654  19.624  10.938
19893W        W90493  37.531  10.902  11.648
19894W        W90494  28.665   1.546  14.933
19895W        W90495   5.902  38.424   2.879
19896W        W90496  33.340  10.343  13.970
19897W        W90497  22.982  37.719  10.007
19898W        W90498  30.682  21.681   3.323
19899W        W90499  30.750  40.291   0.441
19900W        W90500  16.495  25.736  12.928
19901W        W90501   9.915  21.800  12.889
19902W        W90502  23.134   6.202   4.412
19903W        W90503  30.740  17.118  11.904
19904W        W90504  16.352   9.724  14.251
19905W        W90505  23.600  19.131  13.005
19906W        W90506  41.509  35.073   5.054
19907W        W90507  26.535  16.719   4.120
19908W        W90508  39.901  10.398   4.163
19909W        W90509  10.411  15.803  11.593
19910W        W90510  28.663   3.246   2.613
19911W        W90511  26.396  32.595  13.325
19912W        W90512  32.887  29.027   3.021
19913W        W90513   2.802  24.527   2.337
19914W        W90514  13.560  15.584  13.612
19915W        W90515  26.724  25.327   4.489
19916W        W90516  31.642  11.132   0.925
19917W        W90517  27.357  22.016   0.996
19918W        W90518  11.388  12.272  14.329
19919W        W90519  39.366  16.292  11.455
19920W        W90520  31.581  15.905  10.527
19921W        W90521  13.747  11.820  13.309
19922W        W90522   3.761  43.801  10.778
19923W        W90523  19.986   9.174  11.080
19924W        W90524  18.017  26.014  14.470
19925W        W90525  18.149  16.141   2.877
19926W        W90526   1.734  38.486   2.472
19927W        W90527  33.997  19.203   1.941
19928W        W90528   0.431  29.111   2.227
19929W        W90529  20.852  40.463  10.772
19930W        W90530   7.396  18.661   2.659
19931W        W90531  35.299   3.609   3.739
19932W        W90532  37.785  14.611   3.368
19933W        W90533  21.566  42.846   0.976
19934W        W90534   7.330  13.353   3.231
19935W        W90535  24.250  29.483   1.348
19936W        W90536  39.394  15.158  10.424
19937W        W90537   1.763  27.032  12.931
19938W        W90538  42.442   7.775  10.996
19939W        W90539   1.942  31.158   1.928
19940W        W90540  26.451   1.198   0.485
19941W        W90541  12.266  23.302  14.904
19942W        W90542  27.193  19.858  11.783
19943W        W90543  34.916  20.111   1.643
19944W        W90544  27.626  17.643  13.565
19945W        W90545   1.976  18.189  11.652
19946W        W90546  25.023  27.881  11.108
19947W        W90547  27.661  40.885  12.854
19948W        W90548  24.127  39.887  12.643
19949W        W90549   1.822  12.740   2.437
19950W        W90550  33.070  33.002  12.965
19951W        W90551   9.204  40.701   2.994
19952W        W90552  13.506   2.875  14.829
19953W        W90553  26.656  22.237   3.246
19954W        W90554  13.095  22.806  10.074
19955W        W90555  26.439  43.100   5.128
19956W        W90556  30.186  22.490  14.518
19957W        W90557  31.223  27.730  12.994
19958W        W90558   9.579  19.070  14.405
19959W        W90559  25.994  35.814   3.726
19960W        W90560  28.101   9.213   1.874
19961W        W90561  25.694   1.989   2.320
19962W        W90562  32.544  25.098   0.749
19963W        W90563  16.647  13.720   2.741
19964W        W90564  25.092  16.761  12.548
19965W        W90565  42.085  29.998  11.510
19966W        W90566  29.033  31.539  14.037
19967W        W90567  40.905  17.283   5.416
19968W        W90568   5.665  44.455   2.277
19969W        W90569  13.838   1.513   3.190
19970W        W90570  18.745   2.624  13.085
19971W        W90571   6.510  37.386   1.985
19972W        W90572  31.118   3.409  13.360
19973W        W90573  42.410   2.325   3.686
19974W        W90574  21.085  25.703  14.902
19975W        W90575  25.198  27.955  12.914
19976W        W90576  19.277  27.372  11.624
19977W        W90577   7.773  12.404  14.843
19978W        W90578  40.914  36.420   4.724
19979W        W90579  38.510  17.810   2.808
19980W        W90580  15.209   9.876   0.244
19981W        W90581  21.787  33.699  14.627
19982W        W90582  37.646  44.676  11.147
19983W        W90583   7.745   9.114   0.504
19984W        W90584   8.246  24.807   1.707
19985W        W90585  29.530   7.732  10.563
19986W        W90586  23.269  36.599   2.271
19987W        W90587  35.372  14.066  12.261
19988W        W90588  10.445   6.244  14.934
19989W        W90589  30.070  43.341  14.472
19990W        W90590  39.068   1.407  12.875
19991W        W90591  18.518   4.018  12.545
19992W        W90592  42.765  40.572   2.546
19993W        W90593  26.977  21.686  10.644
19994W        W90594  11.319  24.148  14.455
19995W        W90595  20.516  18.075   1.239
19996W        W90596  16.073  25.056  14.011
19997W        W90597   2.453   8.691   0.412
19998W        W90598  34.025   9.370  13.155
19999W        W90599   0.529  32.554   3.279
20000W        W90600  33.962  39.009  11.567
20001W        W90601  36.992  16.328   0.770
20002W        W90602   0.963  26.733  11.175
20003W        W90603  10.339  34.185  13.983
20004W        W90604  29.456  34.467  14.759
20005W        W90605  41.974   6.175   2.325
20006W        W90606  23.609  24.622  13.808
20007W        W90607   4.776  40.247   1.515
20008W        W90608  44.268  34.271   9.945
20009W        W90609   8.660  27.667  10.170
20010W        W90610  34.090  33.607   1.461
20011W        W90611  20.118   2.855  13.367
20012W        W90612  26.285  22.608  14.365
20013W        W90613  19.747  19.048  13.108
20014W        W90614  18.296  41.553  12.095
20015W        W90615  44.015  35.533  13.319
20016W        W90616  11.156  24.483   4.155
20017W        W90617  38.311  44.847   4.111
20018W        W90618   9.631  41.885  11.930
20019W        W90619  12.825  22.577  13.420
20020W        W90620  14.120  12.379   0.736
20021W        W90621   3.831  15.631   2.683
20022W        W90622   7.181  29.406   1.848
20023W        W90623   3.484   0.472   4.127
20024W        W90624  11.695  30.627  11.265
20025W        W90625  19.512  32.784  11.058
20026W        W90626  26.177  33.860  11.028
20027W        W90627  30.801  44.247  11.498
20028W        W90628   4.236   9.202   0.485
20029W        W90629  32.983   7.316   3.928
20030W        W90630  12.348  20.259  14.482
20031W        W90631  27.434  27.419   0.001
20032W        W90632  20.817   2.272   1.446
20033W        W90633  38.901  20.037   1.722
20034W        W90634  34.415   8.265  14.072
20035W        W90635  28.359   6.350   1.429
20036W        W90636  18.491  36.441   2.758
20037W        W90637  15.299  15.174  13.037
20038W        W90638  34.010  26.284  13.725
20039W        W90639   4.504  34.463  14.930
20040W        W90640  23.397   5.542  12.430
20041W        W90641  28.377   2.218  13.558
20042W        W90642  29.612  36.420  14.282
20043W        W90643  32.938  38.352   2.762
20044W        W90644  24.015  40.406  11.054
20045W        W90645  11.936   3.457   1.901
20046W        W90646   7.744  41.635   3.627
20047W        W90647  43.219  24.441   3.297
20048W        W90648  18.938  23.245  12.018
20049W        W90649  27.679  34.848   0.986
20050W        W90650  18.275  11.680  10.738
20051W        W90651  33.878  27.971   3.646
20052W        W90652  17.585  21.757  12.957
20053W        W90653   8.863  12.166   2.319
20054W        W90654  24.283  36.947   3.728
20055W        W90655  12.133  20.663  10.481
20056W        W90656  37.932  40.301   2.255
20057W        W90657  10.233  34.616   3.147
20058W        W90658  17.652  17.096   3.351
20059W        W90659  33.373  20.284  13.344
20060W        W90660   9.263  39.100  12.544
20061W        W90661   9.953  15.828  11.397
20062W        W90662  26.007  31.521   2.194
20063W        W90663  15.258  43.794   1.307
20064W        W90664  24.364  44.804   1.778
20065W        W90665  33.857  13.724  14.079
20066W        W90666  39.823  20.802   1.268
20067W        W90667  25.362  10.345  12.441
20068W        W90668  42.375  27.013   2.457
20069W        W90669   7.730  18.804  12.122
20070W        W90670  42.550   5.455  13.816
20071W        W90671   0.463  15.232   1.764
20072W        W90672   7.523  35.414  10.636
20073W        W90673   1.961  30.796   0.073
20074W        W90674  12.623  21.658  14.285
20075W        W90675   1.824  42.370  14.874
20076W        W90676  21.693  31.450  10.374
20077W        W90677  18.792  39.922   4.447
20078W        W90678  21.097  12.872  14.435
20079W        W90679  21.829  37.294   3.695
20080W        W90680  28.159  29.867  11.147
20081W        W90681  28.520  25.008   2.884
20082W        W90682  30.901  44.516  11.919
20083W        W90683   1.411  32.966   0.059
20084W        W90684   9.312   8.569   4.850
20085W        W90685  11.294  34.304   0.913
20086W        W90686  39.591  37.125   2.218
20087W        W90687  30.912   6.657   3.329
20088W        W90688  32.661   2.640   4.424
20089W        W90689   2.800  20.218   1.637
20090W        W90690   1.806  22.707  10.505
20091W        W90691  13.286  18.622  11.106
20092W        W90692  13.890  31.684   1.851
20093W        W90693  39.065  22.731   0.368
20094W        W90694   6.108  11.888  13.517
20095W        W90695  28.563  22.163  10.893
20096W        W90696  16.245  23.579  14.971
20097W        W90697  14.609  24.254   1.235
20098W        W90698  39.046  18.209   2.299
20099W        W90699   5.437  44.971   0.823
20100W        W90700   9.758   2.655   4.650
20101W        W90701  30.059  28.945  11.667
20102W        W90702  16.051  22.583  12.137
20103W        W90703  13.248  34.498  13.964
20104W        W90704  26.446  11.150   1.950
20105W        W90705  25.230  40.298   4.122
20106W        W90706  18.196  42.726   4.441
20107W        W90707  12.656  11.897   3.262
20108W        W90708  29.689  10.200   2.299
20109W        W90709  15.398  32.537  12.775
20110W        W90710  12.355  16.207  11.873
20111W        W90711  21.343  28.468   4.033
20112W        W90712  17.775   8.121   1.285
20113W        W90713  41.045  35.977  10.556
20114W        W90714   8.959  35.796  13.435
20115W        W90715  38.902  16.275  11.216
20116W        W90716  39.075   2.786   4.073
20117W        W90717  38.526  28.956  14.069
20118W        W90718  28.962  25.999  11.185
20119W        W90719  23.024  27.020  10.773
20120W        W90720  36.350   7.706  12.882
20121W        W90721  14.289   8.556   0.479
20122W        W90722  23.398  15.661  12.665
20123W        W90723   1.495  20.054   2.745
20124W        W90724  20.257  34.590   1.271
20125W        W90725  33.124   0.077   1.394
20126W        W90726  43.383  42.020   3.688
20127W        W90727  43.030  39.578  13.312
20128W        W90728  21.289  17.322   3.104
20129W        W90729  16.969  15.195   1.563
20130W        W90730  10.224  12.231  11.753
20131W        W90731  14.020  31.571  13.991
20132W        W90732  36.650  29.241  12.122
20133W        W90733   6.845   6.707   4.731
20134W        W90734  31.434  17.638   1.251
20135W        W90735  20.601  11.714   3.210
20136W        W90736  25.187  32.306   1.271
20137W        W90737   3.738  43.274   3.406
20138W        W90738  28.861  44.341   1.805
20139W        W90739  38.907  32.708   4.041
20140W        W90740  30.547   4.309   4.738
20141W        W90741  36.791  12.143   2.410
20142W        W90742   1.275  38.770   4.594
20143W        W90743  38.757  41.858   3.770
20144W        W90744  21.047  35.935  13.525
20145W        W90745  35.123   4.649  11.548
20146W        W90746   5.103  41.433   4.629
20147W        W90747  34.759  32.528  11.655
20148W        W90748   0.778  19.026   2.112
20149W        W90749  10.646  38.339  11.889
20150W        W90750  40.849  27.983  10.701
20151W        W90751  40.353   6.296  12.855
20152W        W90752  38.923  26.674   3.624
20153W        W90753   5.737  19.737   1.730
20154W        W90754  15.584  38.961   1.787
20155W        W90755  43.032  39.829   4.805
20156W        W90756   3.268  44.065   2.886
20157W        W90757  14.960  15.562  11.737
20158W        W90758  23.680   0.876  14.786
20159W        W90759  24.127  43.631   0.253
20160W        W90760  32.738   8.779   0.012
20161W        W90761  44.255   4.673  13.395
20162W        W90762  22.187  16.869  12.584
20163W        W90763  44.360  20.479   1.323
20164W        W90764  18.385   2.797   3.647
20165W        W90765  22.046  38.375  13.373
20166W        W90766   5.511  40.681  13.010
20167W        W90767   3.160  25.233   1.772
20168W        W90768   2.602   4.209   3.662
20169W        W90769  39.751  41.138   3.530
20170W        W90770  14.630   2.206   3.930
20171W        W90771   2.909  25.477   2.292
20172W        W90772  17.483  23.751   0.424
20173W        W90773  33.014  33.871   1.572
20174W        W90774  35.027  38.846   2.315
20175W        W90775  20.140  41.049  10.980
20176W        W90776  26.832   4.952  14.259
20177W        W90777  15.053  14.714  12.986
20178W        W90778  10.213  13.850  10.633
20179W        W90779  23.547  28.565  14.891
20180W        W90780   3.348  42.612   3.360
20181W        W90781  13.291  35.528   0.566
20182W        W90782   3.488  11.903  11.219
20183W        W90783  44.844  20.832   2.321
20184W        W90784  43.928   1.971   3.114
20185W        W90785   7.717  29.360  12.686
20186W        W90786  28.083  28.902  14.261
20187W        W90787  38.867   2.412   3.788
20188W        W90788  16.299  11.589   4.161
20189W        W90789  14.869   6.908   1.989
20190W        W90790  30.148  23.416   0.356
20191W        W90791   2.040  11.685  13.923
20192W        W90792  12.131  38.767   1.784
20193W        W90793   4.788  25.834  12.048
20194W        W90794  10.813  13.691  14.039
20195W        W90795   5.967  11.069   2.981
20196W        W90796  33.500  19.484  14.917
20197W        W90797  37.178  19.628   4.300
20198W        W90798  21.703   5.795   3.626
20199W        W90799   3.261  41.030   1.735
20200W        W90800   9.405  18.610  13.623
20201W        W90801   2.210  41.531   3.718
20202W        W90802  13.660   1.591  12.817
20203W        W90803  36.490   6.415  10.325
20204W        W90804  14.838   0.441  11.171
20205W        W90805  35.523  29.966  13.329
20206W        W90806   0.976  12.211  13.566
20207W        W90807  29.092  14.062  13.711
20208W        W90808  26.652  17.361  13.595
20209W        W90809   0.846  16.745  11.145
20210W        W90810  29.081  34.800  14.826
20211W        W90811  35.657  39.129   0.304
20212W        W90812  43.956   2.747  13.339
20213W        W90813  40.356  33.954  12.425
20214W        W90814  39.886  17.160   3.713
20215W        W90815  14.798  34.581   0.497
20216W        W90816  35.092   7.925   3.798
20217W        W90817  18.723  20.218   2.180
20218W        W90818  42.509  19.120  13.147
20219W        W90819  16.853  35.501  12.109
20220W        W90820   0.543  37.857   0.270
20221W        W90821  25.166  28.158   1.892
20222W        W90822   2.980  18.603   1.724
20223W        W90823  33.838  40.753   3.720
20224W        W90824   5.954  15.067   0.341
20225W        W90825  10.407  40.858   4.197
20226W        W90826  37.586  43.897   0.823
20227W        W90827   6.827  12.349   1.689
20228W        W90828  10.801  16.406   4.599
20229W        W90829  30.683  24.783  14.326
20230W        W90830   1.842  22.455  11.001
20231W        W90831  15.122  11.146   5.279
20232W        W90832  32.324  15.154  11.991
20233W        W90833  25.493  24.431   3.068
20234W        W90834  16.747  13.073  12.464
20235W        W90835   9.427  29.199  13.465
20236W        W90836   8.210  18.002   2.305
20237W        W90837  13.116  10.219   2.853
20238W        W90838  13.598   0.643  12.956
20239W        W90839  38.435  43.994  11.952
20240W        W90840  43.516  26.987  14.289
20241W        W90841  16.674  13.539   1.676
20242W        W90842   4.059  12.188  12.445
20243W        W90843  15.677   1.529   4.022
20244W        W90844  33.840  21.532   4.654
20245W        W90845  44.866  39.276  12.542
20246W        W90846   4.878  26.732   5.043
20247W        W90847   3.212  14.524   2.884
20248W        W90848  19.716  11.304  12.956
20249W        W90849  31.253  43.785   2.749
20250W        W90850   3.885  40.578  13.463
20251W        W90851  10.067   8.026  14.224
20252W        W90852  40.025  16.030  13.360
20253W        W90853  36.590   4.309   4.602
20254W        W90854  34.424   7.477  12.019
20255W        W90855  34.799  26.996   0.975
20256W        W90856  14.893  10.993  12.900
20257W        W90857   3.910   1.887  12.585
20258W        W90858  26.231  23.450   3.642
20259W        W90859  30.080   9.144   3.133
20260W        W90860  20.578  43.296   0.833
20261W        W90861   1.893  16.184   4.596
20262W        W90862  11.860   8.488  14.361
20263W        W90863  10.215   7.742   0.773
20264W        W90864  19.543  21.189   2.795
20265W        W90865  24.813  23.765   0.462
20266W        W90866  20.299  10.050   0.376
20267W        W90867  34.449  14.373   2.817
20268W        W90868   5.557  43.998  13.157
20269W        W90869  10.671  31.808   2.608
20270W        W90870  10.293  35.282  10.537
20271W        W90871  43.439  26.778   1.674
20272W        W90872  31.850  10.830   1.355
20273W        W90873  44.467   8.615  13.038
20274W        W90874  24.488  34.089  13.415
20275W        W90875  34.040  12.875   3.323
20276W        W90876  15.782  30.416   4.891
20277W        W90877  11.394  30.920   4.877
20278W        W90878   9.753   4.941  11.401
20279W        W90879   5.635  10.899  14.799
20280W        W90880  35.171   5.702  12.626
20281W        W90881   4.210   7.394  13.723
20282W        W90882  31.233  37.816  14.311
20283W        W90883  19.832   4.149  14.317
20284W        W90884   7.447  37.932   3.593
20285W        W90885  22.988  17.660  10.689
20286W        W90886  13.176   7.225  14.335
20287W        W90887  33.782  24.400  12.444
20288W        W90888  10.126  40.668  14.311
20289W        W90889   6.997  43.181   0.377
20290W        W90890  36.090  40.374   2.611
20291W        W90891  30.609  32.863   0.921
20292W        W90892  24.125   1.451  12.975
20293W        W90893  11.416  28.349   0.491
20294W        W90894  33.744   0.912  11.221
20295W        W90895  41.396   5.720  12.548
20296W        W90896  12.846  13.773   2.119
20297W        W90897  28.114  40.981  12.565
20298W        W90898  15.608   4.009  13.605
20299W        W90899   3.261  28.697  13.807
20300W        W90900  28.070  42.847  13.174
20301W        W90901  13.611  39.483   0.858
20302W        W90902   1.804  27.615  13.445
20303W        W90903  11.691  12.018   2.230
20304W        W90904  28.069  14.574   2.913
20305W        W90905  35.242   0.890   2.787
20306W        W90906  14.650  25.671  14.878
20307W        W90907  39.846   1.545   1.356
20308W        W90908  41.360  35.456  14.351
20309W        W90909  38.489  42.324  11.164
20310W        W90910   1.670  22.376  14.712
20311W        W90911  18.979  24.611  10.988
20312W        W90912   9.353  42.767   2.434
20313W        W90913  37.315  11.857   3.620
20314W        W90914  25.027  23.570  10.488
20315W        W90915  29.727  27.903   4.995
20316W        W90916   6.819  28.228  11.167
20317W        W90917  32.592  14.125  12.906
20318W        W90918  21.116  36.317   3.180
20319W        W90919  30.151  16.299   1.083
20320W        W90920  26.481  13.770  14.862
20321W        W90921  22.210   3.516  13.884
20322W        W90922  13.339   4.539   3.225
20323W        W90923  32.887  15.742  12.697
20324W        W90924  33.587  18.793   3.773
20325W        W90925  22.908  40.442   1.380
20326W        W90926  29.941  28.000   0.380
20327W        W90927  44.080   2.184  12.061
20328W        W90928  14.473  32.862  13.104
20329W        W90929  43.330  33.583   3.760
20330W        W90930  17.550  21.123  14.504
20331W        W90931  17.847  35.432   1.240
20332W        W90932   0.826  23.523  11.371
20333W        W90933  11.453  29.962   1.233
20334W        W90934  41.405   4.320  13.964
20335W        W90935  15.781  16.133   1.464
20336W        W90936  39.768  41.042  14.918
20337W        W90937  19.614   7.580   4.098
20338W        W90938  11.182  11.780   0.413
20339W        W90939  37.350   4.774  14.725
20340W        W90940  30.682   1.284   2.795
20341W        W90941  24.406  35.532   1.707
20342W        W90942  16.612   8.361   1.186
20343W        W90943  40.315  43.886  14.848
20344W        W90944  42.632  29.967  13.397
20345W        W90945   7.653  15.595  11.684
20346W        W90946  17.646  21.468   2.729
20347W        W90947  28.225  21.272  11.609
20348W        W90948  38.024  11.825   0.905
20349W        W90949   0.516   1.825   0.424
20350W        W90950  24.769  26.111   1.748
20351W        W90951  15.846  12.862  14.590
20352W        W90952  38.748   4.726   2.233
20353W        W90953  29.953  25.754   4.664
20354W        W90954   9.387  16.509  13.420
20355W        W90955  42.399   1.289  12.596
20356W        W90956  19.904   3.599   2.317
20357W        W90957   0.973  22.285   3.703
20358W        W90958  23.732  20.514   2.226
20359W        W90959  23.923  14.733   3.182
20360W        W90960  12.827  44.095  12.102
20361W        W90961  24.989  25.497  14.937
20362W        W90962  34.075  25.567  12.062
20363W        W90963  42.461  24.668   0.298
20364W        W90964  22.149  39.143  13.119
20365W        W90965  28.489  34.338   4.586
20366W        W90966  21.606  22.769   2.919
20367W        W90967  30.653  19.623  12.959
20368W        W90968  18.074  44.862  11.144
20369W        W90969   6.685  28.385   4.951
20370W        W90970  26.228   8.861   1.258
20371W        W90971  42.397  14.335  11.266
20372W        W90972  28.911  23.838  12.004
20373W        W90973  43.191  29.056   3.810
20374W        W90974  44.700  13.805   3.767
20375W        W90975   2.313  10.765  12.515
20376W        W90976  35.490  17.085   2.739
20377W        W90977  30.210  37.538  14.009
20378W        W90978   6.323  38.562  13.602
20379W        W90979  25.908  15.645  13.354
20380W        W90980   9.313  44.840  10.598
20381W        W90981   0.385  16.525   2.141
20382W        W90982   0.752  19.622   0.548
20383W        W90983  29.591   6.779  11.402
20384W        W90984  25.593  11.659  12.565
20385W        W90985  31.433  28.496   4.156
20386W        W90986  20.734  43.872  11.777
20387W        W90987   4.683  38.276  11.724
20388W        W90988   8.780  22.435   3.332
20389W        W90989  35.054  32.046  14.863
20390W        W90990  18.300  41.006   0.978
20391W        W90991  21.942  14.095  14.051
20392W        W90992  38.379  34.054   0.483
20393W        W90993  11.330  12.279  12.516
20394W        W90994  35.657   0.685   0.581
20395W        W90995  36.386  43.952   4.446
20396W        W90996  17.318   5.336   1.881
20397W        W90997  30.598   2.390  13.326
20398W        W90998  21.096   3.014  13.890
20399W        W90999   5.245  41.962  12.525
20400W        W91000  42.813  10.779   1.427
20401W        W91001  34.711  33.462   3.141
20402W        W91002  34.735   8.495  14.425
20403W        W91003  44.961  38.480   1.220
20404W        W91004  11.223  39.055  10.786
20405W        W91005  41.266  10.264   0.150
20406W        W91006   8.019  25.941  12.233
20407W        W91007   5.542   3.802   3.304
20408W        W91008  44.676  16.120  11.844
20409W        W91009   3.784  34.437  11.541
20410W        W91010  26.239  19.789   0.474
20411W        W91011  33.192  37.653  14.423
20412W        W91012  36.872  24.084   3.309
20413W        W91013  10.024  30.923  12.167
20414W        W91014   6.312  39.874  14.476
20415W        W91015  27.483  17.808  10.846
20416W        W91016  24.008   8.501   0.278
20417W        W91017  17.296   0.301   4.602
20418W        W91018  15.260   3.760  13.304
20419W        W91019  27.715  23.617   4.300
20420W        W91020  44.874  27.899  14.025
20421W        W91021   0.539  17.400   9.963
20422W        W91022  13.898   8.148  13.439
20423W        W91023  30.144   0.931   0.847
20424W        W91024   2.431   8.595  10.831
20425W        W91025  11.778  13.836  12.038
20426W        W91026  19.732  44.755  12.476
20427W        W91027  42.036  28.223  13.875
20428W        W91028  18.363  25.892   4.169
20429W        W91029  26.464  14.201   2.880
20430W        W91030  38.603  14.724  11.171
20431W        W91031  39.277  12.208   2.182
20432W        W91032  10.429  18.687   2.732
20433W        W91033   4.602   0.759  14.716
20434W        W91034   3.244  37.873   1.700
20435W        W91035  21.741  26.376  11.377
20436W        W91036  35.960  37.467  13.953
20437W        W91037  29.134  22.177  12.674
20438W        W91038  12.128  30.381  14.800
20439W        W91039  43.181  13.440  11.996
20440W        W91040   8.120  23.278   4.207
20441W        W91041  21.567  31.612  11.920
20442W        W91042  19.553  15.190  14.904
20443W        W91043  18.726  37.798  12.549
20444W        W91044  26.245   5.969   3.144
20445W        W91045  36.679  42.263   3.306
20446W        W91046  30.428  21.104  13.373
20447W        W91047  30.081   3.897   1.957
20448W        W91048  21.932  34.386  11.117
20449W        W91049   9.754  43.848   0.409
20450W        W91050  24.884  17.726  10.390
20451W        W91051   1.367  33.919  12.664
20452W        W91052  43.201  28.438  14.401
20453W        W91053  26.034  23.153   0.533
20454W        W91054  41.465  38.231   1.866
20455W        W91055  17.537  43.036  11.128
20456W        W91056  25.392  12.226  13.506
20457W        W91057   3.251  36.303  11.630
20458W        W91058  29.152  23.509  11.663
20459W        W91059  20.138  14.809   1.672
20460W        W91060  40.385  14.338   0.402
20461W        W91061  26.722  24.871   0.898
20462W        W91062  34.103  10.706  14.847
20463W        W91063  20.014  22.685  12.994
20464W        W91064  31.001   1.898  13.870
20465W        W91065  44.307  40.516  13.840
20466W        W91066  20.699   1.728   3.098
20467W        W91067  42.470   0.768   3.447
20468W        W91068  30.603  21.269  10.990
20469W        W91069  30.637  17.786   1.778
20470W        W91070  41.600  40.534   1.534
20471W        W91071  32.768  30.501  11.709
20472W        W91072  24.338   4.950  11.151
20473W        W91073  27.598  43.058  13.994
20474W        W91074  29.715  19.732  13.211
20475W        W91075   1.507  28.767   3.790
20476W        W91076   0.220   9.124  12.018
20477W        W91077   9.299  27.040   0.926
20478W        W91078  34.592  35.570   1.497
20479W        W91079  15.170  25.938  13.010
20480W        W91080  25.654  10.711  13.691
20481W        W91081  39.304  24.483   1.653
20482W        W91082   8.688  13.383  13.145
20483W        W91083   5.287  19.706  14.479
20484W        W91084   1.783  26.452   1.339
20485W        W91085  25.433  29.630  14.857
20486W        W91086  27.505  23.631   4.788
20487W        W91087  18.149  20.270   2.942
20488W        W91088  18.053  17.566  11.216
20489W        W91089  38.828  10.363  11.708
20490W        W91090  11.390   9.307   0.263
20491W        W91091  22.168  41.429   4.852
20492W        W91092  31.516  36.498   2.895
20493W        W91093  27.643  35.107  13.974
20494W        W91094  34.476  13.006  11.135
20495W        W91095  21.171  39.963   3.828
20496W        W91096  12.743  28.342   2.834
20497W        W91097  38.919  42.846  14.273
20498W        W91098   6.952  19.018  12.366
20499W        W91099  11.745  19.918   4.568
20500W        W91100  43.176  20.725   0.707
20501W        W91101   7.780  15.838   2.688
20502W        W91102  20.222   4.238   1.149
20503W        W91103  18.115  42.253  13.632
20504W        W91104  40.503  15.994  12.171
20505W        W91105  11.287  22.634   2.379
20506W        W91106  15.545  39.439  11.622
20507W        W91107  44.060  16.787   2.557
20508W        W91108  25.549  37.353   2.271
20509W        W91109  15.750  41.231   3.880
20510W        W91110  19.709  11.194   0.766
20511W        W91111  21.238   5.365   1.846
20512W        W91112   5.997  36.419  14.447
20513W        W91113  11.131  23.903  13.313
20514W        W91114  21.548  15.167  14.523
20515W        W91115  30.925  22.034   4.517
20516W        W91116  19.495  44.371   2.702
20517W        W91117  29.504  44.422  13.098
20518W        W91118   1.686  12.871   3.447
20519W        W91119   6.263  31.097   2.887
20520W        W91120  25.259   9.334  12.553
20521W        W91121  14.542   9.308   1.159
20522W        W91122  28.589  39.155  14.444
20523W        W91123   2.233  24.776  13.852
20524W        W91124   3.015   2.564   2.719
20525W        W91125  42.431  42.316   2.713
20526W        W91126  33.079  33.636  11.359
20527W        W91127  44.950   2.076  11.851
20528W        W91128   0.971   7.864  11.409
20529W        W91129  16.683  38.021  11.241
20530W        W91130  21.737  34.867  11.570
20531W        W91131  37.327   8.929  10.683
20532W        W91132  25.700  29.126  11.088
20533W        W91133  37.799  37.347  13.842
20534W        W91134  20.258  12.766   1.716
20535W        W91135  41.769  40.943  11.013
20536W        W91136   1.920  31.804  14.925
20537W        W91137  21.549  12.709   4.662
20538W        W91138  31.450  36.482   0.862
20539W        W91139  27.042  36.864   0.048
20540W        W91140  40.031  12.411   3.735
20541W        W91141  39.397   3.794   4.197
20542W        W91142   0.769  11.694  12.876
20543W        W91143  33.467   4.205  10.739
20544W        W91144  31.592  22.727   0.406
20545W        W91145   3.289  25.738   4.107
20546W        W91146   9.288  38.931  10.224
20547W        W91147  10.552  18.409  11.182
20548W        W91148  39.319   5.765   3.260
20549W        W91149  22.192  30.699   3.625
20550W        W91150  43.494  18.847  12.189
20551W        W91151   1.006  16.364  13.585
20552W        W91152   9.556   6.277  14.853
20553W        W91153  14.751   2.734  13.169
20554W        W91154  13.836  24.636  14.973
20555W        W91155   9.592  11.634  12.058
20556W        W91156  18.317  27.620  10.366
20557W        W91157   3.181  41.969   4.678
20558W        W91158  11.617   4.803   2.656
20559W        W91159  28.342  25.550  11.861
20560W        W91160  31.656  17.063  11.267
20561W        W91161  27.562  14.351   0.776
20562W        W91162  17.538  23.492   5.036
20563W        W91163  42.034   3.413   4.489
20564W        W91164  16.720  12.661  12.122
20565W        W91165  19.830  36.960   4.093
20566W        W91166  40.879  38.614   2.268
20567W        W91167  44.906   4.806  14.103
20568W        W91168  35.822  34.614  14.592
20569W        W91169   3.421  40.788  13.448
20570W        W91170  16.692  12.643   0.663
20571W        W91171  18.027  31.101  11.898
20572W        W91172  43.191  25.954  11.220
20573W        W91173  21.580  22.363  11.654
20574W        W91174  32.481  27.892   3.249
20575W        W91175  11.921  33.927  12.685
20576W        W91176  24.593  39.481  12.472
20577W        W91177  14.746  42.407  13.943
20578W        W91178  14.553  16.040  12.900
20579W        W91179  41.458   3.041   2.708
20580W        W91180  20.847   5.775  11.045
20581W        W91181   6.283  23.557   3.363
20582W        W91182   0.732  37.440   3.155
20583W        W91183   4.263  16.162   2.221
20584W        W91184   1.269  10.651  12.270
20585W        W91185  43.967  20.096  13.728
20586W        W91186   8.622  21.810   2.223
20587W        W91187  21.531  30.181   4.206
20588W        W91188  41.037   9.371   2.173
20589W        W91189  23.443  16.001   3.134
20590W        W91190  17.001  32.027  11.558
20591W        W91191  15.813   0.407  13.106
20592W        W91192   3.425  11.697   5.090
20593W        W91193  27.157  29.253  14.438
20594W        W91194  42.578  44.506  12.559
20595W        W91195  28.020  30.554  13.330
20596W        W91196  29.000  24.057   1.358
20597W        W91197  12.102  17.219   1.854
20598W        W91198  36.098  29.474  11.572
20599W        W91199  19.977   8.626  11.014
20600W        W91200  36.705  15.649  11.918
20601W        W91201   0.944  24.048   4.665
20602W        W91202  44.911  24.716   2.442
20603W        W91203  40.814  41.261   1.191
20604W        W91204   5.914  23.160  13.914
20605W        W91205   4.417   8.933  10.332
20606W        W91206  39.032  26.464   4.571
20607W        W91207  13.167  14.709   0.708
20608W        W91208  23.007  23.446  10.705
20609W        W91209  14.548   8.924   0.744
20610W        W91210   3.400   3.730   3.711
20611W        W91211  29.940   6.432   2.255
20612W        W91212  26.770  26.785   2.831
20613W        W91213  17.758  16.580   0.810
20614W        W91214   0.400  24.570  14.232
20615W        W91215  40.079   7.320  14.328
20616W        W91216  41.701   3.312   1.291
20617W        W91217  38.602  24.257  14.499
20618W        W91218  42.357  21.433  11.578
20619W        W91219  23.556  20.168  13.038
20620W        W91220  31.697  16.719   3.703
20621W        W91221  41.479  25.851   4.423
20622W        W91222   5.763  35.351   4.089
20623W        W91223  26.115  44.792   2.313
20624W        W91224  41.784  44.004  12.450
20625W        W91225  21.738  37.579  11.229
20626W        W91226   7.961  26.468  11.045
20627W        W91227  27.992  38.139   0.085
20628W        W91228  17.155  15.626  13.785
20629W        W91229  17.380  21.686   0.717
20630W        W91230  36.101   9.788   1.931
20631W        W91231   6.000  42.547  12.544
20632W        W91232  24.307  24.211   4.631
20633W        W91233  43.498  16.850   0.081
20634W        W91234  16.773  42.523   0.442
20635W        W91235  35.335  41.986   4.458
20636W        W91236  21.576  26.867  11.488
20637W        W91237  13.803   7.704  12.523
20638W        W91238  38.553  42.701  11.530
20639W        W91239  43.394   6.204  11.996
20640W        W91240  30.458  43.399  13.181
20641W        W91241  28.594  19.386   0.968
20642W        W91242  33.485  39.230  11.695
20643W        W91243   2.464  36.251  11.108
20644W        W91244  14.352  31.992  11.945
20645W        W91245  35.571  10.804   2.765
20646W        W91246  23.468   2.729   2.750
20647W        W91247  38.332  10.872   0.748
20648W        W91248  42.293  21.746  14.263
20649W        W91249   1.968   7.919   3.707
20650W        W91250  37.818   4.191  10.254
20651W        W91251   9.875  10.560  12.562
20652W        W91252  33.992  27.979   4.523
20653W        W91253  18.767  10.923   4.239
20654W        W91254  44.527  27.083   0.799
20655W        W91255  41.352  33.973   3.972
20656W        W91256  19.769   8.717  13.814
20657W        W91257  19.230  21.862  11.144
20658W        W91258   2.830  43.434   2.340
20659W        W91259  38.018   8.660  12.623
20660W        W91260  13.700  42.956   3.123
20661W        W91261  41.375  19.805   2.735
20662W        W91262   7.246   8.301   0.348
20663W        W91263  24.975  11.481   1.267
20664W        W91264  27.114   2.101   3.149
20665W        W91265   7.415  35.032  13.761
20666W        W91266  33.882  26.043  12.019
20667W        W91267  30.928  41.712  12.647
20668W        W91268  11.425  39.517  10.594
20669W        W91269   9.630  37.852   4.945
20670W        W91270  35.085   9.223   2.594
20671W        W91271   2.282  19.691   4.465
20672W        W91272  31.567   0.032  14.000
20673W        W91273  43.182  25.159  13.350
20674W        W91274   4.335  13.535  11.843
20675W        W91275   3.425  23.536  11.147
20676W        W91276  12.942  33.551  14.294
20677W        W91277  11.779  15.661   1.819
20678W        W91278  24.078  25.067  14.524
20679W        W91279  21.431  39.517   3.900
20680W        W91280  10.859  39.068  12.997
20681W        W91281  22.483   8.299  14.120
20682W        W91282  18.561  11.573   2.438
20683W        W91283  34.065   7.247   2.434
20684W        W91284   3.758  18.232  13.911
20685W        W91285  16.557  27.141  13.069
20686W        W91286  40.584  24.225   2.912
20687W        W91287   5.331  17.628  10.784
20688W        W91288  13.337  44.424  11.111
20689W        W91289   3.361   4.619   5.034
20690W        W91290   4.932  23.222   3.195
20691W        W91291  35.421  35.499  14.234
20692W        W91292  22.927  12.513  14.295
20693W        W91293  43.794  17.635   0.419
20694W        W91294  13.408  23.772   1.030
20695W        W91295  44.762  42.059   2.344
20696W        W91296  18.782  42.376   1.816
20697W        W91297  40.513  28.897   3.471
20698W        W91298  34.095  12.594  10.600
20699W        W91299   8.326  41.684  14.471
20700W        W91300  13.785  24.092   0.242
20701W        W91301  32.557  23.097  10.885
20702W        W91302  38.581  25.572  14.403
20703W        W91303  43.848   6.810   4.042
20704W        W91304  42.001   3.729  10.243
20705W        W91305   7.952  42.808   0.683
20706W        W91306  30.182  17.557   1.772
20707W        W91307   4.222  19.060  11.594
20708W        W91308  17.542  11.173  10.758
20709W        W91309  35.585  41.296   3.849
20710W        W91310   5.550  15.237  13.460
20711W        W91311   2.273  31.921   2.899
20712W        W91312  20.523  25.973   0.783
20713W        W91313  29.415  42.349   2.828
20714W        W91314  13.230  11.445   0.358
20715W        W91315   6.143   5.980   2.637
20716W        W91316  38.050  44.751   0.909
20717W        W91317  20.646  16.574   3.312
20718W        W91318  16.448  21.124   3.223
20719W        W91319  15.141  44.157  14.991
20720W        W91320  13.672   1.595  10.745
20721W        W91321  22.540  36.104   2.788
20722W        W91322   7.948  43.974  14.444
20723W        W91323  31.359  31.881   4.703
20724W        W91324  35.329  42.810   4.082
20725W        W91325  10.185  13.086   3.531
20726W        W91326  17.586  15.579  10.493
20727W        W91327  15.343  16.843   1.159
20728W        W91328  35.829  43.930   3.821
20729W        W91329  13.062  33.666   1.537
20730W        W91330  25.734  17.703   0.516
20731W        W91331  28.967  42.388   4.330
20732W        W91332   9.814   4.532   5.071
20733W        W91333  24.177  28.397  13.636
20734W        W91334  24.814  36.538   4.100
20735W        W91335  10.222   3.901   2.428
20736W        W91336   5.932  23.688   0.779
20737W        W91337  16.252  36.864  11.106
20738W        W91338  13.835  27.584   2.795
20739W        W91339   5.042  27.260  12.951
20740W        W91340  26.666  29.415  14.517
20741W        W91341   9.642   0.806   3.231
20742W        W91342  15.234  30.516  12.448
20743W        W91343  13.801  25.168   4.594
20744W        W91344  37.405  34.500  13.066
20745W        W91345  36.873   1.493   1.402
20746W        W91346  31.351  40.587  10.733
20747W        W91347  12.505  33.407  14.539
20748W        W91348  18.236  44.901  14.009
20749W        W91349  16.769  26.098   1.707
20750W        W91350  40.829  18.856  13.351
20751W        W91351  20.032  29.028  14.436
20752W        W91352   5.791  12.264  13.379
20753W        W91353  24.779  23.190  11.645
20754W        W91354  44.369  11.285   0.479
20755W        W91355   4.276  40.487   0.816
20756W        W91356   6.230  41.058   0.881
20757W        W91357  19.928  18.811  12.479
20758W        W91358   7.276  17.616   4.116
20759W        W91359  19.242  13.519   2.822
20760W        W91360  18.881  20.127   1.215
20761W        W91361  27.725   5.798   2.268
20762W        W91362  40.484  17.854  12.118
20763W        W91363   3.820  23.904  10.506
20764W        W91364  28.397  31.939   3.554
20765W        W91365  28.929  41.759   0.626
20766W        W91366   9.206   2.404   4.079
20767W        W91367  12.647   0.383   0.752
20768W        W91368  29.685  12.258  14.179
20769W        W91369  37.502  24.694   1.418
20770W        W91370  36.605  18.952   4.137
20771W        W91371  37.626  44.382   1.045
20772W        W91372  26.000   6.337   3.405
20773W        W91373  12.346  25.082   3.289
20774W        W91374   8.721  42.857  13.435
20775W        W91375   4.244  24.493  12.132
20776W        W91376  15.252   4.195   3.983
20777W        W91377   9.758  19.293   0.299
20778W        W91378  11.225   1.928  13.784
20779W        W91379  33.156  18.564   2.793
20780W        W91380  18.051  19.009   2.036
20781W        W91381  15.898  11.172   3.330
20782W        W91382  40.308  36.503  10.712
20783W        W91383  37.966  13.544   0.872
20784W        W91384  24.259   3.656  13.023
20785W        W91385  29.468   0.857  11.383
20786W        W91386  16.322  42.512  12.157
20787W        W91387  40.986  37.010  11.583
20788W        W91388   1.948  26.540   4.316
20789W        W91389  43.561  17.119  12.969
20790W        W91390  28.902   1.737   1.500
20791W        W91391  20.927  13.997  12.091
20792W        W91392  20.579   2.540   1.063
20793W        W91393   2.499  23.170  10.896
20794W        W91394   9.438  17.272  11.118
20795W        W91395  16.741  41.022   4.646
20796W        W91396  25.748  25.155  12.505
20797W        W91397  36.854   7.399   2.649
20798W        W91398  38.921  43.305  11.232
20799W        W91399  37.853  12.665  12.012
20800W        W91400  41.632  19.579  12.086
20801W        W91401   4.109  35.816   2.700
20802W        W91402   9.248  12.859  14.861
20803W        W91403  39.998  37.473  12.481
20804W        W91404  29.435  30.232   2.720
20805W        W91405  24.991  23.386  12.549
20806W        W91406   1.869  42.582  12.484
20807W        W91407   3.799  26.414   3.753
20808W        W91408  24.725   3.321   4.606
20809W        W91409  36.755  12.976   3.259
20810W        W91410  18.718  22.998  10.532
20811W        W91411   7.604   2.476   4.120
20812W        W91412  14.613  10.593   0.506
20813W        W91413  30.223  32.063  13.612
20814W        W91414  15.232  40.943  14.992
20815W        W91415  15.759  25.870   3.184
20816W        W91416  35.679  41.220  11.086
20817W        W91417   7.320  44.224  12.922
20818W        W91418  22.237  17.221  13.819
20819W        W91419  17.111  42.393  12.808
20820W        W91420  11.960   9.447   3.533
20821W        W91421  29.701  17.830  11.234
20822W        W91422  17.327  39.373  14.878
20823W        W91423  22.767  28.169  11.137
20824W        W91424  25.901  15.074   2.289
20825W        W91425  24.656  27.051   1.233
20826W        W91426   6.303  18.278  11.519
20827W        W91427  34.431  41.037   3.230
20828W        W91428   6.314  14.172   0.310
20829W        W91429  41.986  24.946  14.314
20830W        W91430  24.648  22.352   0.221
20831W        W91431  30.851  30.022   4.634
20832W        W91432  39.532  11.883   1.813
20833W        W91433   5.231   6.679   4.686
20834W        W91434  37.529  41.120  14.318
20835W        W91435  32.562  30.492   4.136
20836W        W91436  38.989  27.732  14.915
20837W        W91437   6.498  41.443  10.129
20838W        W91438   9.322  35.075   4.654
20839W        W91439  29.407  26.483   3.761
20840W        W91440  18.060  34.813   0.522
20841W        W91441  26.083  38.306  14.713
20842W        W91442  20.295  13.432  14.951
20843W        W91443   8.257  32.419  14.969
20844W        W91444   3.986  38.120   4.067
20845W        W91445  16.187  12.877   2.199
20846W        W91446  11.271  18.513   4.585
20847W        W91447  39.644  18.414  14.918
20848W        W91448  38.469   5.147  14.295
20849W        W91449  25.754  43.908  11.123
20850W        W91450  20.874  15.352  11.539
20851W        W91451  31.579  41.298  12.169
20852W        W91452   5.264  27.542   4.499
20853W        W91453  19.870  10.238   4.711
20854W        W91454  23.114  16.358   2.473
20855W        W91455  28.595   4.424  14.489
20856W        W91456  13.275  34.052   1.843
20857W        W91457  37.405   9.111   2.865
20858W        W91458  35.573  24.916   4.895
20859W        W91459  42.534  44.549  10.234
20860W        W91460  26.932  26.093  11.180
20861W        W91461  38.290  25.889   4.648
20862W        W91462  43.482  21.600   3.678
20863W        W91463  28.758   4.669  13.637
20864W        W91464  32.646  14.743   4.941
20865W        W91465   2.044  40.009  14.426
20866W        W91466  16.011  38.730  11.141
20867W        W91467  35.570  16.716   0.442
20868W        W91468  38.911  30.136  12.619
20869W        W91469   5.622   4.169   1.605
20870W        W91470  10.209  35.088   0.804
20871W        W91471   0.490   6.288  12.750
20872W        W91472   2.665  37.964  12.553
20873W        W91473   6.850  22.192   4.438
20874W        W91474  33.872  39.297  13.875
20875W        W91475  18.126  42.695  13.348
20876W        W91476   5.338  42.470  14.269
20877W        W91477  14.271   5.581  14.805
20878W        W91478  22.822  22.336  13.545
20879W        W91479  34.352  21.262   0.084
20880W        W91480  31.539  15.217   0.749
20881W        W91481  20.351  23.529   0.402
20882W        W91482  36.836  14.322  11.328
20883W        W91483  40.401   7.742   2.753
20884W        W91484  29.959  16.211   1.543
20885W        W91485  30.620  27.395  11.410
20886W        W91486  10.572  40.769   3.445
20887W        W91487  32.103  20.783   1.679
20888W        W91488  12.465   2.440  12.579
20889W        W91489  27.858   3.004  12.058
20890W        W91490  13.574  27.335   2.427
20891W        W91491  20.237  13.916   2.241
20892W        W91492  18.586  27.366  12.994
20893W        W91493  11.947  18.973  10.861
20894W        W91494  21.246  19.051   2.117
20895W        W91495  10.891  21.315  14.709
20896W        W91496  12.292  27.936   1.869
20897W        W91497  19.226  20.494  14.837
20898W        W91498   0.840   5.788   0.996
20899W        W91499  30.802  32.610   1.767
20900W        W91500  18.865   4.943  10.454
20901W        W91501  43.922  43.496   1.398
20902W        W91502   2.425  24.042   1.411
20903W        W91503  38.792  32.458  12.830
20904W        W91504  42.146  13.514  14.309
20905W        W91505  14.575  12.711   0.932
20906W        W91506   4.261  33.555   3.355
20907W        W91507  16.201   8.354  13.058
20908W        W91508   9.440  10.408  11.498
20909W        W91509   4.450   8.763   2.903
20910W        W91510  22.119  40.254  10.444
20911W        W91511  11.277  17.702   1.382
20912W        W91512  34.058  40.298   0.631
20913W        W91513  10.649  32.161   1.656
20914W        W91514  31.574  11.213   0.140
20915W        W91515  28.986  41.486  11.612
20916W        W91516   8.334   7.985  12.286
20917W        W91517  21.883  24.309   4.285
20918W        W91518  30.509   8.312  14.774
20919W        W91519  22.149  16.580  12.132
20920W        W91520  28.744   9.058   4.460
20921W        W91521  32.599  32.643   2.268
20922W        W91522   2.201   3.216  14.911
20923W        W91523  16.063   4.988   0.318
20924W        W91524  41.707  28.439   2.225
20925W        W91525  44.848  44.058  13.011
20926W        W91526   3.470  31.480  13.073
20927W        W91527   3.220   1.524   4.093
20928W        W91528   3.872  36.593   0.714
20929W        W91529   7.192  38.284   3.887
20930W        W91530  30.991   7.877  13.497
20931W        W91531  17.950   2.762  11.077
20932W        W91532  36.829   4.734  13.996
20933W        W91533  21.541  23.754   1.932
20934W        W91534  17.720  34.017   0.232
20935W        W91535  35.083  23.541  11.488
20936W        W91536   9.186  25.207   0.990
20937W        W91537   0.721  37.564   1.821
20938W        W91538  42.005  43.889   3.958
20939W        W91539   5.975   4.759   2.213
20940W        W91540  28.460  23.111  10.325
20941W        W91541  13.194  21.103  13.342
20942W        W91542  16.207  28.986   2.204
20943W        W91543  15.387  41.346   3.297
20944W        W91544  25.716  38.909   1.190
20945W        W91545  17.172   3.633   4.734
20946W        W91546  41.866  30.669   0.256
20947W        W91547  41.382   8.320   1.347
20948W        W91548  38.377  17.035   3.212
20949W        W91549  26.303  43.873   0.904
20950W        W91550  21.049  18.507   4.898
20951W        W91551  12.439  35.969   0.994
20952W        W91552  40.542  10.413  10.498
20953W        W91553  18.456  27.678   2.639
20954W        W91554   7.604   7.806  13.981
20955W        W91555  40.307  15.344  12.952
20956W        W91556  10.336  36.796   0.308
20957W        W91557   7.771   9.312   0.001
20958W        W91558  11.627  34.575   2.924
20959W        W91559  25.183  19.214  13.115
20960W        W91560  34.087  26.231  14.215
20961W        W91561  26.683  14.107  13.973
20962W        W91562  34.189   3.473  14.452
20963W        W91563  41.937  21.289   0.955
20964W        W91564  24.617  40.162   4.637
20965W        W91565   5.737   2.913  13.834
20966W        W91566  20.735  40.309   4.823
20967W        W91567  24.703  18.604  13.614
20968W        W91568  35.914   1.773   4.619
20969W        W91569  18.822   3.936  11.637
20970W        W91570  27.067  20.649  12.817
20971W        W91571  28.612  43.779   3.754
20972W        W91572  18.261   8.857  12.197
20973W        W91573  23.097  34.521   0.898
20974W        W91574  30.434  25.895   4.505
20975W        W91575  26.993   0.530   2.280
20976W        W91576   2.430  16.719   2.282
20977W        W91577  14.779  18.886  10.277
20978W        W91578  39.370   4.726  13.856
20979W        W91579   4.919  18.524   4.572
20980W        W91580  18.432   1.268  14.500
20981W        W91581  21.221  28.146   3.283
20982W        W91582  15.949   1.925  14.739
20983W        W91583  37.931  27.019   2.974
20984W        W91584  21.192  17.258  14.858
20985W        W91585  14.796  31.359   1.321
20986W        W91586  39.585  20.270   1.073
20987W        W91587   2.754  27.208   2.004
20988W        W91588  25.286   6.812   1.038
20989W        W91589  22.290  29.796  12.427
20990W        W91590  43.987   7.459  13.899
20991W        W91591  28.163  27.871  14.251
20992W        W91592  18.798   9.124  12.262
20993W        W91593  41.344  20.447  11.520
20994W        W91594  20.003  27.075   2.362
20995W        W91595  25.910  26.659   1.273
20996W        W91596   1.467   1.964   4.157
20997W        W91597  27.979  36.290  13.057
20998W        W91598   3.843   5.180   3.007
20999W        W91599  25.766  15.592  12.113
21000W        W91600  32.536  29.981   1.869
21001W        W91601   8.194  12.725   3.156
21002W        W91602  31.086   8.172  12.078
21003W        W91603  32.854  32.458  11.641
21004W        W91604  11.774  22.779   2.410
21005W        W91605  19.030  44.950   0.767
21006W        W91606  13.356  29.639  14.435
21007W        W91607  23.549  12.328   0.920
21008W        W91608  19.056  18.095   3.725
21009W        W91609  14.634  35.839   1.838
21010W        W91610   5.183  41.353  11.388
21011W        W91611   3.376   1.037   3.984
21012W        W91612   3.509  34.905   2.810
21013W        W91613   5.764  36.068   0.414
21014W        W91614   7.410   4.000   4.128
21015W        W91615  24.014  13.120  13.056
21016W        W91616   5.307  15.219   4.269
21017W        W91617   3.594  31.457   2.309
21018W        W91618   7.682  36.509   0.051
21019W        W91619  12.917  12.748  13.989
21020W        W91620   3.674  44.562   2.111
21021W        W91621   5.074  20.223   4.889
21022W        W91622   4.707   3.349  12.357
21023W        W91623  27.196  31.075  13.841
21024W        W91624  28.932  37.114  14.482
21025W        W91625  10.829  40.763  12.499
21026W        W91626  41.400   6.115   0.713
21027W        W91627  25.571  34.927   0.330
21028W        W91628   7.784  11.700   1.166
21029W        W91629   7.899  20.585   1.163
21030W        W91630  19.207  23.250   1.295
21031W        W91631  36.744  42.768   3.167
21032W        W91632  15.027  13.642   4.030
21033W        W91633   6.272  10.604  10.217
21034W        W91634  20.117  43.225   2.728
21035W        W91635  31.289   7.970   3.119
21036W        W91636   6.839   5.852   4.568
21037W        W91637  25.563  29.508  12.168
21038W        W91638  23.605  13.055  12.015
21039W        W91639  17.588   8.700   2.629
21040W        W91640  16.301  19.796  10.726
21041W        W91641  29.587  33.850   2.934
21042W        W91642   2.965  16.682   2.279
21043W        W91643  16.797  21.714   1.487
21044W        W91644  12.773  37.989  13.997
21045W        W91645  10.194  41.023   1.561
21046W        W91646  33.004  36.829  12.603
21047W        W91647  24.621  37.808  13.093
21048W        W91648  41.304  26.664   1.459
21049W        W91649  28.468  27.161   3.756
21050W        W91650  32.820  16.327   1.810
21051W        W91651   2.029  13.669  12.465
21052W        W91652   0.827  32.068  12.969
21053W        W91653  42.030  12.837  13.506
21054W        W91654  43.946  14.820  12.956
21055W        W91655  34.487  17.627   1.863
21056W        W91656  30.459  25.570  12.245
21057W        W91657  26.600   5.748   0.337
21058W        W91658   9.720  22.199   4.006
21059W        W91659  30.578  26.632   0.862
21060W        W91660  34.139  18.029   2.558
21061W        W91661  40.757  32.911   0.453
21062W        W91662  24.680  14.282  13.953
21063W        W91663  30.153  26.736  12.931
21064W        W91664  27.710  24.664  11.685
21065W        W91665  32.473   0.841  13.505
21066W        W91666   4.769   9.423   4.381
21067W        W91667  39.070   8.100  10.283
21068W        W91668   7.293  34.291  11.300
21069W        W91669  35.320  20.304   1.378
21070W        W91670  18.491  18.930   2.678
21071W        W91671  28.460   0.614   9.922
21072W        W91672  13.314  23.477   4.174
21073W        W91673   4.491  19.813  12.536
21074W        W91674  22.120  16.662  11.620
21075W        W91675  40.457  14.765   1.178
21076W        W91676  40.005  37.902  13.497
21077W        W91677  25.629  36.897   2.915
21078W        W91678  30.552  19.561  14.482
21079W        W91679  27.624  35.826   0.770
21080W        W91680  14.798  25.166   2.235
21081W        W91681  42.461  12.473   0.512
21082W        W91682  18.220  23.535  12.053
21083W        W91683   8.240  40.174   4.610
21084W        W91684   5.276  40.602  11.888
21085W        W91685  22.742  44.325  11.151
21086W        W91686  22.995  31.640   0.242
21087W        W91687  41.948  29.980  14.166
21088W        W91688  39.399  29.061  14.200
21089W        W91689   4.865  34.107   3.631
21090W        W91690  36.766  13.554   0.040
21091W        W91691  24.699  15.284   1.812
21092W        W91692   9.708  11.637   0.342
21093W        W91693  32.503  16.527   3.388
21094W        W91694   8.441  25.998  14.887
21095W        W91695  33.534  29.496  13.558
21096W        W91696  38.938   3.407  12.076
21097W        W91697  22.600  44.010   4.116
21098W        W91698   0.014   1.379   1.255
21099W        W91699  15.216  43.387   1.666
21100W        W91700  36.924   2.058   1.320
21101W        W91701  13.768  44.290   1.491
21102W        W91702  29.186  29.536   1.834
21103W        W91703  31.435  23.006   0.807
21104W        W91704  29.685   9.142   0.798
21105W        W91705  31.789   0.439   1.711
21106W        W91706   9.415  32.011   1.223
21107W        W91707  19.176  24.124   1.700
21108W        W91708   3.898  38.534   4.623
21109W        W91709   0.168  15.544  10.429
21110W        W91710  39.759  27.224  13.500
21111W        W91711  36.302  30.208  11.627
21112W        W91712   0.261  18.712   2.925
21113W        W91713  38.437  19.517   5.015
21114W        W91714  31.426  14.787   4.073
21115W        W91715  20.660   6.161   2.347
21116W        W91716   4.196  44.172   2.735
21117W        W91717  21.529  23.522  11.049
21118W        W91718   2.806  20.267  10.554
21119W        W91719  24.986  22.018   4.063
21120W        W91720  14.789   5.281  13.879
21121W        W91721  41.028  21.211   0.212
21122W        W91722  21.802  40.944  12.030
21123W        W91723   2.757  23.396   3.124
21124W        W91724  38.582  41.281   2.396
21125W        W91725  18.515  16.360   2.092
21126W        W91726  19.326  34.129  12.955
21127W        W91727  40.597  32.587   1.366
21128W        W91728  32.884   0.192   4.575
21129W        W91729  24.381   3.199  10.868
21130W        W91730  36.554  42.355  13.589
21131W        W91731  18.048  34.619   3.276
21132W        W91732  25.066   0.485  14.087
21133W        W91733  30.012  31.375  10.684
21134W        W91734  18.176  43.018  14.311
21135W        W91735  17.298   5.741  11.514
21136W        W91736   5.121   9.387   1.963
21137W        W91737  35.040  23.325  10.970
21138W        W91738  27.752   5.222  13.379
21139W        W91739  37.927  16.656   4.612
21140W        W91740  39.429  32.995  12.544
21141W        W91741  43.754  37.139   0.319
21142W        W91742  23.584  33.390   0.369
21143W        W91743  35.920  44.329   4.564
21144W        W91744  37.749   8.422  14.359
21145W        W91745  25.168  25.300  12.004
21146W        W91746   7.225   1.817  12.871
21147W        W91747  37.967  41.878   4.137
21148W        W91748   2.480  16.056   4.580
21149W        W91749  24.098  36.443   3.714
21150W        W91750   2.968   3.929  13.542
21151W        W91751  19.681  43.740   3.542
21152W        W91752  22.488  20.742   2.714
21153W        W91753  22.056  39.354  12.512
21154W        W91754  28.764  18.332  13.838
21155W        W91755  34.868   3.174   4.601
21156W        W91756  35.379   4.757   4.148
21157W        W91757  16.532   3.208  14.286
21158W        W91758  32.597  31.060  12.452
21159W        W91759   0.901  43.833  14.458
21160W        W91760   4.967  44.075  11.365
21161W        W91761  28.892   5.226  12.467
21162W        W91762  42.917  26.315  11.498
21163W        W91763   0.286  41.054  13.440
21164W        W91764  21.055  35.787  14.671
21165W        W91765   0.787  35.076   4.479
21166W        W91766  13.495  30.435   4.255
21167W        W91767  15.170   2.346  12.118
21168W        W91768   3.533  14.383   3.819
21169W        W91769   8.160  31.079  14.274
21170W        W91770  33.342  21.082   3.327
21171W        W91771  17.676  29.971  13.689
21172W        W91772  11.104  29.624  12.900
21173W        W91773   9.769  36.068   3.779
21174W        W91774  28.706  32.760  14.837
21175W        W91775  24.646  13.053  13.832
21176W        W91776   0.938   3.405   1.155
21177W        W91777  30.999   9.606  10.773
21178W        W91778   7.690   3.293   3.693
21179W        W91779  29.760  14.692   3.992
21180W        W91780   7.328   0.670   1.843
21181W        W91781   0.952  20.583   1.791
21182W        W91782  25.214  20.193  14.277
21183W        W91783   3.232  44.877   3.427
21184W        W91784  26.690  26.883   4.646
21185W        W91785   9.791   2.783  14.164
21186W        W91786  36.836  18.672   1.278
21187W        W91787   2.728   2.933  13.812
21188W        W91788  26.274  38.770   4.060
21189W        W91789  33.971  37.364  12.325
21190W        W91790  39.337  26.293   2.733
21191W        W91791  31.367  22.955  14.971
21192W        W91792  17.671  40.344   2.792
21193W        W91793  30.210   3.306  10.438
21194W        W91794  44.913  23.941  11.015
21195W        W91795  11.343  37.928  14.462
21196W        W91796   5.590   4.669  11.236
21197W        W91797  36.483  38.298   4.115
21198W        W91798  37.950  40.764  14.789
21199W        W91799  24.292  10.858   3.527
21200W        W91800  18.720  16.497   1.409
21201W        W91801  19.125   2.720   4.842
21202W        W91802  32.504  34.807  10.688
21203W        W91803  18.328  25.481   2.352
21204W        W91804   2.930   5.210   2.645
21205W        W91805   1.678  20.590  13.285
21206W        W91806  17.006  25.511   5.026
21207W        W91807  27.575   1.953  14.013
21208W        W91808  37.888  20.206  12.578
21209W        W91809  44.753   9.790   1.737
21210W        W91810   5.964   6.528  12.608
21211W        W91811  15.247   8.458   0.310
21212W        W91812  11.019   2.477  14.372
21213W        W91813  25.080  21.106  11.660
21214W        W91814  40.210  26.223   2.441
21215W        W91815   9.926  29.600  10.796
21216W        W91816   5.923   8.205  11.345
21217W        W91817   3.409  34.302  12.294
21218W        W91818   4.413  37.804  13.845
21219W        W91819  28.947  17.321   3.792
21220W        W91820  39.931   1.964  13.065
21221W        W91821   8.771  29.371  11.857
21222W        W91822  30.945  36.031   4.571
21223W        W91823  44.909  24.537   1.823
21224W        W91824  19.514  34.111  14.097
21225W        W91825  44.548  36.349   4.379
21226W        W91826  41.436  44.620   0.591
21227W        W91827   6.862  37.048  10.809
21228W        W91828  26.205  26.420   1.858
21229W        W91829  18.170   1.847   0.967
21230W        W91830   0.802  33.189  13.902
21231W        W91831  30.625  22.971  13.130
21232W        W91832  13.278  15.103   3.627
21233W        W91833   5.988  25.430   2.186
21234W        W91834  43.988  36.725  10.752
21235W        W91835  23.207  15.774  10.522
21236W        W91836  40.713   7.355  11.186
21237W        W91837  24.201   2.729  14.830
21238W        W91838  25.057  21.747  14.285
21239W        W91839  19.436  35.030   0.340
21240W        W91840   8.206  20.288  12.371
21241W        W91841  27.917  17.296  13.828
21242W        W91842   6.057  21.036  14.690
21243W        W91843  34.163  18.708   3.129
21244W        W91844  20.877   7.194   4.538
21245W        W91845  30.737   6.804  13.408
21246W        W91846   6.690  18.600  12.516
21247W        W91847  24.544   0.790  13.923
21248W        W91848  24.052  24.250  10.457
21249W        W91849  22.612   7.179   1.725
21250W        W91850  20.885  14.117  11.569
21251W        W91851   7.374  26.220  14.221
21252W        W91852  20.501   3.829   0.328
21253W        W91853   5.399  37.415  11.296
21254W        W91854  42.703   9.423  12.893
21255W        W91855  18.742  16.323  13.483
21256W        W91856   2.033  20.626  14.780
21257W        W91857  43.229  18.052  12.698
21258W        W91858   1.521  42.346   1.397
21259W        W91859  27.665  36.117   4.161
21260W        W91860  36.069  41.976  12.980
21261W        W91861   0.430  32.635   4.570
21262W        W91862  17.148   4.429   3.244
21263W        W91863  32.211   5.021   0.039
21264W        W91864  27.562  21.625   4.806
21265W        W91865  23.185   1.253   3.235
21266W        W91866  10.236  32.567   1.898
21267W        W91867  44.417  26.692   2.549
21268W        W91868  32.472  19.672  14.382
21269W        W91869  33.678  18.673   0.786
21270W        W91870  26.055  11.309  11.066
21271W        W91871  18.668  31.360  10.761
21272W        W91872  22.259  22.121  12.340
21273W        W91873   1.270  32.985   4.564
21274W        W91874  35.462   1.221  10.698
21275W        W91875  32.036  38.794  10.730
21276W        W91876  30.685  34.826  12.427
21277W        W91877   4.189  37.981  14.284
21278W        W91878  11.708   8.792  12.975
21279W        W91879  18.569  44.008  12.933
21280W        W91880  16.035   6.045  11.503
21281W        W91881  28.134   2.449   2.225
21282W        W91882   9.978  42.466  10.699
21283W        W91883  20.666  29.348  13.064
21284W        W91884  10.684  13.099   3.665
21285W        W91885   8.829  43.745   2.003
21286W        W91886  21.989  36.400   3.511
21287W        W91887  18.775  38.833  14.642
21288W        W91888  36.479  39.446   3.340
21289W        W91889  13.291  36.338   1.850
21290W        W91890  41.746  30.682   4.347
21291W        W91891   1.024   9.382   2.342
21292W        W91892  23.632  22.266  14.240
21293W        W91893  36.507   5.250   4.434
21294W        W91894  44.635  22.976  11.153
21295W        W91895   4.248  26.181  14.018
21296W        W91896  41.102  20.513  13.833
21297W        W91897  20.876   9.048   5.370
21298W        W91898  22.415  40.315   1.351
21299W        W91899   1.666  29.465  13.360
21300W        W91900  10.986  28.995   4.564
21301W        W91901  27.530  22.279   4.190
21302W        W91902   8.901   2.207   3.699
21303W        W91903  28.443  16.852   2.829
21304W        W91904   7.407  16.614   0.240
21305W        W91905  12.152  12.847   3.766
21306W        W91906   3.967  24.482   2.839
21307W        W91907  28.893  28.076   1.277
21308W        W91908  42.622  23.189   4.234
21309W        W91909  12.125   3.362   3.625
21310W        W91910  41.454   0.042  14.271
21311W        W91911  37.407   4.227  11.996
21312W        W91912   8.833  17.266  12.959
21313W        W91913  25.619  35.129   1.632
21314W        W91914  19.529   5.350   2.758
21315W        W91915  22.146  33.856   3.451
21316W        W91916  43.096   7.545   2.334
21317W        W91917  26.024  17.814  12.597
21318W        W91918  19.518  10.177  11.543
21319W        W91919   6.376  41.911   1.374
21320W        W91920  23.815   4.307   4.206
21321W        W91921  16.003  13.190  12.872
21322W        W91922   4.666  42.838  12.564
21323W        W91923   8.937  22.039  14.658
21324W        W91924  34.565  39.515   0.810
21325W        W91925   9.042   0.771  14.909
21326W        W91926  26.060  33.788   3.801
21327W        W91927  18.891  28.056   0.931
21328W        W91928  29.049  14.607   2.950
21329W        W91929  19.023  31.933  12.573
21330W        W91930  17.650  43.893   4.106
21331W        W91931  21.659  27.535  10.719
21332W        W91932  44.802  36.398   3.685
21333W        W91933  12.872   3.910  10.689
21334W        W91934  43.863  24.428   4.040
21335W        W91935  43.380  22.563  11.283
21336W        W91936  13.315  29.138  14.824
21337W        W91937  22.610  33.529   2.885
21338W        W91938  42.250  39.847   3.561
21339W        W91939  32.152  21.249  14.806
21340W        W91940  40.829  24.152   1.254
21341W        W91941  19.266  26.687   1.741
21342W        W91942  16.678  41.376   3.821
21343W        W91943  15.882  44.185  12.704
21344W        W91944  18.273  21.631   3.157
21345W        W91945  36.774  12.698  14.665
21346W        W91946   8.603  39.029  10.482
21347W        W91947  26.722  34.340  11.296
21348W        W91948  21.122  42.771   3.270
21349W        W91949  14.251  17.180   4.113
21350W        W91950  15.777  11.617   4.189
21351W        W91951  36.402  13.620  13.781
21352W        W91952  15.410   4.455   1.578
21353W        W91953  22.347  18.019   0.805
21354W        W91954  39.275  40.971   1.179
21355W        W91955  36.521  28.893   1.455
21356W        W91956  13.822  34.341   1.385
21357W        W91957   8.322  37.981  13.192
21358W        W91958  16.173  17.075   2.408
21359W        W91959  38.643  39.440   0.805
21360W        W91960  12.735  36.740  14.251
21361W        W91961  31.133  36.534  14.439
21362W        W91962  34.943  14.320  10.704
21363W        W91963   5.805  22.242   3.312
21364W        W91964  37.029  19.577   3.763
21365W        W91965  15.549  37.559   1.509
21366W        W91966  14.834  37.806  14.543
21367W        W91967   5.921  21.691  11.018
21368W        W91968   1.482  14.263   3.719
21369W        W91969  14.538  32.853   0.040
21370W        W91970  20.484   0.078  14.554
21371W        W91971  39.277  10.625   0.024
21372W        W91972   8.422  35.283   1.648
21373W        W91973  12.530  11.301   3.744
21374W        W91974  20.660  16.400   0.780
21375W        W91975  15.607  21.729   0.899
21376W        W91976   8.556  10.898  14.376
21377W        W91977   1.448  21.484   1.781
21378W        W91978  13.669   7.163   3.619
21379W        W91979   9.671  11.789  13.543
21380W        W91980  39.152   8.413   1.394
21381W        W91981  43.267  42.957  10.436
21382W        W91982  14.275  29.083  13.747
21383W        W91983  43.842  15.072  11.174
21384W        W91984  32.879   3.686   0.741
21385W        W91985   4.060  42.999   2.268
21386W        W91986  25.987  24.164   2.279
21387W        W91987   3.738  22.532  14.305
21388W        W91988  40.809   6.924   1.519
21389W        W91989  18.685   3.606   0.337
21390W        W91990   5.312  33.832  11.574
21391W        W91991  18.133  19.561  13.916
21392W        W91992  31.184  27.869  10.993
21393W        W91993   2.820  40.062   4.606
21394W        W91994  30.406  32.208   2.892
21395W        W91995  41.229  13.533  11.616
21396W        W91996  32.994  44.964   2.698
21397W        W91997  29.167   2.664  14.524
21398W        W91998  11.828  38.077  10.524
21399W        W91999  32.225  33.430   0.396
21400W        W92000   7.993  30.250  10.295
21401W        W92001  18.202  44.019   3.214
21402W        W92002  13.921  42.930   0.519
21403W        W92003  28.057  32.981   3.680
21404W        W92004  19.056  29.710   3.704
21405W        W92005  40.998  35.804  13.581
21406W        W92006  17.728  35.446  12.166
21407W        W92007  14.200  11.168  14.814
21408W        W92008  37.891  16.570  11.924
21409W        W92009  37.543   7.792  11.738
21410W        W92010  22.037  19.643  12.122
21411W        W92011  27.069   5.813  12.617
21412W        W92012  39.523  18.195   0.846
21413W        W92013  23.295  36.389  14.612
21414W        W92014  41.659  38.921   0.760
21415W        W92015  43.821   8.622  10.483
21416W        W92016   9.453  43.413  11.907
21417W        W92017   1.023  39.624  12.408
21418W        W92018  42.519  44.503   3.858
21419W        W92019  41.118  16.729   1.800
21420W        W92020   3.422   2.861  12.585
21421W        W92021   8.704  44.462   0.554
21422W        W92022   4.239  15.028   0.456
21423W        W92023   6.855  34.016   0.919
21424W        W92024   2.870  11.049  13.833
21425W        W92025   2.523   3.143  11.600
21426W        W92026  10.110  25.931  12.553
21427W        W92027  37.354  32.438   3.167
21428W        W92028  18.241   7.769   0.498
21429W        W92029  41.754  38.572   2.645
21430W        W92030  31.240  12.273  13.963
21431W        W92031   9.447  41.539   0.284
21432W        W92032  21.299   4.538  12.553
21433W        W92033  30.980  22.198   2.559
21434W        W92034   2.314  14.337   0.206
21435W        W92035  20.745  30.492  14.478
21436W        W92036   1.258   2.436  11.530
21437W        W92037  43.093  44.803   3.074
21438W        W92038  21.753  10.771   3.328
21439W        W92039  11.570  42.775  13.963
21440W        W92040   5.698  17.163  11.552
21441W        W92041   6.923   4.329   1.323
21442W        W92042  35.332  31.230   2.210
21443W        W92043  17.466   8.518  14.114
21444W        W92044  15.640   3.873   1.422
21445W        W92045   0.685   8.612   1.786
21446W        W92046  21.780  29.128   1.999
21447W        W92047  34.399  13.155   4.177
21448W        W92048   0.991  34.071   1.860
21449W        W92049  13.830  11.026   1.038
21450W        W92050   2.549  32.960  13.979
21451W        W92051  44.897  12.346  13.567
21452W        W92052  18.215  11.411  12.088
21453W        W92053   0.113  33.646  13.476
21454W        W92054  36.457  44.493  13.615
21455W        W92055  12.312  32.361  14.455
21456W        W92056   9.559  37.924   3.904
21457W        W92057  17.925  32.274  12.565
21458W        W92058   4.321   0.324  12.764
21459W        W92059  26.158  18.311  12.490
21460W        W92060  43.995  32.379  14.432
21461W        W92061   6.312   0.251   4.510
21462W        W92062  25.748  25.213  13.366
21463W        W92063  33.549  29.388   2.862
21464W        W92064  19.059  44.895   3.331
21465W        W92065  23.144  30.208  10.847
21466W        W92066  29.508  31.091   0.809
21467W        W92067   0.413  23.591  11.673
21468W        W92068  12.820  39.493  14.861
21469W        W92069  13.655  33.158  13.573
21470W        W92070  23.589  18.507  14.858
21471W        W92071  26.611  35.551   3.632
21472W        W92072  21.049  43.891   4.692
21473W        W92073  37.410  19.342   0.996
21474W        W92074  11.635  14.688   2.345
21475W        W92075  26.000  39.770  11.125
21476W        W92076  30.650   2.911   0.296
21477W        W92077   4.294  31.343  12.139
21478W        W92078  15.375  25.712   3.519
21479W        W92079  33.374  43.013   3.178
21480W        W92080  19.487   9.199  14.874
21481W        W92081  32.110  12.981  12.408
21482W        W92082  32.202   0.794  11.162
21483W        W92083  31.875   9.807   3.251
21484W        W92084  38.414  16.214   1.433
21485W        W92085  38.888  29.362   5.396
21486W        W92086   7.778  17.951  12.480
21487W        W92087  30.904  14.176  14.474
21488W        W92088  32.814  43.664  14.932
21489W        W92089  12.245  23.432   3.276
21490W        W92090  31.144  38.149   9.714
21491W        W92091  26.395   2.625  13.839
21492W        W92092  14.093  23.247   1.293
21493W        W92093   1.715  21.429  11.107
21494W        W92094  15.291  37.752   0.817
21495W        W92095   5.775  18.362   0.501
21496W        W92096  28.141  13.576  11.963
21497W        W92097  42.523  23.127  10.805
21498W        W92098  35.903   1.564  10.757
21499W        W92099   0.162  39.053   4.426
21500W        W92100  34.840  35.833  12.024
21501W        W92101  23.098  10.287   2.118
21502W        W92102  18.586   9.816   2.379
21503W        W92103  14.339  15.081  14.523
21504W        W92104  20.052  17.236   1.427
21505W        W92105  27.574   0.789   3.290
21506W        W92106  37.372  29.082   3.758
21507W        W92107  41.803   9.152  13.120
21508W        W92108   9.626  37.613  14.835
21509W        W92109  27.001   6.950   1.666
21510W        W92110  37.547  39.410  14.386
21511W        W92111   6.225  22.925  11.076
21512W        W92112  13.950  27.198  11.261
21513W        W92113  22.320  40.320  14.048
21514W        W92114  43.560  40.218   2.326
21515W        W92115  41.416  11.031   2.354
21516W        W92116  30.146  11.647  12.871
21517W        W92117  37.630  28.619  10.555
21518W        W92118  26.068  41.084  12.381
21519W        W92119  40.834  38.433  10.779
21520W        W92120  39.261   9.321  13.313
21521W        W92121  33.664  23.277   3.184
21522W        W92122   2.204  20.100  13.521
21523W        W92123  35.339  31.974   2.729
21524W        W92124  42.280  13.848   4.910
21525W        W92125   1.029   6.413   3.253
21526W        W92126  32.177  38.457   1.395
21527W        W92127  40.955  16.233  12.165
21528W        W92128  34.981   0.394   1.175
21529W        W92129  30.706  41.487  14.889
21530W        W92130  42.242  41.669  14.437
21531W        W92131   5.434  26.302   1.313
21532W        W92132  12.310   3.906  14.990
21533W        W92133  22.243  21.277   3.207
21534W        W92134  18.343  24.883   9.856
21535W        W92135   7.805  42.078  12.483
21536W        W92136  12.477   9.700  12.474
21537W        W92137  13.229   3.787  12.919
21538W        W92138  22.884  23.545   3.411
21539W        W92139  44.907  14.567  12.052
21540W        W92140  11.094  28.147   1.305
21541W        W92141  27.329  17.538  11.624
21542W        W92142  18.504  13.531   0.525
21543W        W92143   0.798  17.103   0.174
21544W        W92144  10.874  19.103   2.427
21545W        W92145   8.232  36.779   3.158
21546W        W92146   9.256  27.950  12.775
21547W        W92147  27.066  16.179   4.730
21548W        W92148  43.955   2.002   1.352
21549W        W92149   6.263   5.678  10.642
21550W        W92150   2.001   8.129  14.204
21551W        W92151  39.990   8.508  14.917
21552W        W92152   3.432   4.435  13.125
21553W        W92153  36.488  26.452  12.447
21554W        W92154  19.490  13.244   1.666
21555W        W92155  35.333  27.451   2.265
21556W        W92156  26.929  33.392   3.334
21557W        W92157  36.927  38.565  12.118
21558W        W92158   9.336  36.589  13.456
21559W        W92159  37.661  26.860   1.679
21560W        W92160  36.200  13.040   0.863
21561W        W92161  15.577  12.577  14.937
21562W        W92162  21.750  19.778   5.025
21563W        W92163  42.862   4.127  13.094
21564W        W92164  42.800  42.349   2.296
21565W        W92165  17.655   7.123  12.369
21566W        W92166  15.549  28.493  13.483
21567W        W92167  36.795  20.775   0.410
21568W        W92168   7.156   2.861   0.923
21569W        W92169  38.819  13.012  11.601
21570W        W92170   5.785  38.075  14.587
21571W        W92171  17.471   3.157   4.006
21572W        W92172  27.244   4.675   0.355
21573W        W92173   2.180  43.901  10.577
21574W        W92174  16.736  41.102   2.090
21575W        W92175  17.368  28.195  13.822
21576W        W92176  43.024  38.521  13.042
21577W        W92177  41.400  42.451  14.432
21578W        W92178  15.905  28.100  14.480
21579W        W92179  19.226  36.386  10.746
21580W        W92180  29.507  33.021   4.245
21581W        W92181   0.447   2.766   1.228
21582W        W92182  19.479  33.459  13.435
21583W        W92183   9.435   4.354  13.029
21584W        W92184  19.160  16.751  14.156
21585W        W92185  19.539  37.087  12.498
21586W        W92186  11.279  32.070  12.628
21587W        W92187  18.138  32.570   3.720
21588W        W92188  13.576   3.267  13.417
21589W        W92189   3.262  17.821   3.219
21590W        W92190  35.908  43.801  11.193
21591W        W92191  34.128   7.223   3.188
21592W        W92192  29.150   8.153   2.481
21593W        W92193  27.654  35.812  13.273
21594W        W92194   3.701  19.165  13.859
21595W        W92195  33.122   6.244   3.840
21596W        W92196  32.571  20.240   1.313
21597W        W92197  26.420  42.649  14.715
21598W        W92198  21.051  22.473  12.218
21599W        W92199   3.468  19.694   3.700
21600W        W92200  35.414   9.348   4.875
21601W        W92201  38.079   5.598   3.772
21602W        W92202  13.392   0.805  10.738
21603W        W92203  41.881  16.666   0.990
21604W        W92204   1.389  35.375   4.532
21605W        W92205   9.616  19.715   3.128
21606W        W92206  19.735  21.459   3.203
21607W        W92207  29.595  40.253  11.660
21608W        W92208  34.889  11.295  10.392
21609W        W92209  35.040   5.332   2.627
21610W        W92210  26.001  36.098   1.225
21611W        W92211  44.742  32.418  13.881
21612W        W92212  25.614   3.749   2.370
21613W        W92213   0.440   8.923  12.488
21614W        W92214   3.503   0.254   3.184
21615W        W92215  24.280  23.802   0.435
21616W        W92216  39.323  38.783  11.057
21617W        W92217  24.265  32.131   0.998
21618W        W92218  32.687  42.852  12.004
21619W        W92219  23.882  17.590  11.200
21620W        W92220  12.118  20.234  13.122
21621W        W92221   2.794   5.678   4.209
21622W        W92222  18.580  29.078  11.851
21623W        W92223  22.522  34.496  13.038
21624W        W92224  26.956  16.372   3.338
21625W        W92225  16.168   5.415   4.308
21626W        W92226   7.729   0.807   0.047
21627W        W92227  33.923   3.274   2.106
21628W        W92228   8.250  30.190   3.242
21629W        W92229  26.044  13.875  14.351
21630W        W92230   4.227  11.984  10.357
21631W        W92231   0.097   4.310   1.197
21632W        W92232  26.412  31.655   3.141
21633W        W92233  41.794  44.380   1.249
21634W        W92234   5.585   5.788   0.038
21635W        W92235  39.391   9.695   2.456
21636W        W92236   4.115  22.901  12.421
21637W        W92237   0.051  21.730  10.727
21638W        W92238  12.358   9.675  13.778
21639W        W92239  24.954  28.160   3.853
21640W        W92240  27.076  30.439   2.977
21641W        W92241  38.318  26.727   0.341
21642W        W92242   8.865   2.913   0.032
21643W        W92243  18.845  18.552   2.828
21644W        W92244   2.391  43.458  12.110
21645W        W92245   1.356  37.333  11.429
21646W        W92246  30.565   9.734  13.281
21647W        W92247  35.420  27.087  14.490
21648W        W92248  10.202  27.968   1.366
21649W        W92249  21.514  33.983   0.252
21650W        W92250   0.195   7.906   0.530
21651W        W92251  40.027  10.754   1.917
21652W        W92252  42.885   4.184  14.023
21653W        W92253  41.786   6.731   4.627
21654W        W92254  12.696  30.973  13.857
21655W        W92255  36.501  14.753   3.091
21656W        W92256  16.229  16.651   2.126
21657W        W92257  25.295  32.147  12.460
21658W        W92258  21.949  13.693  12.816
21659W        W92259  12.903  31.166   4.464
21660W        W92260  38.489  43.995   0.644
21661W        W92261  43.297   7.177   1.537
21662W        W92262  18.605  39.478  10.645
21663W        W92263   4.333   4.944   0.884
21664W        W92264  37.321  36.000   3.698
21665W        W92265  26.668  34.399   0.818
21666W        W92266   2.300  23.585   0.479
21667W        W92267  36.102  15.541   5.013
21668W        W92268   5.942  39.260   2.148
21669W        W92269  31.637  32.319   4.578
21670W        W92270  39.927  17.081  11.591
21671W        W92271  41.807   9.155  12.601
21672W        W92272  43.951  42.627   0.285
21673W        W92273  37.942  24.233   3.687
21674W        W92274   2.401  30.198   1.364
21675W        W92275  43.330   1.519  10.704
21676W        W92276  22.744  37.811  11.444
21677W        W92277   2.637  25.125  13.956
21678W        W92278   1.978  44.358   1.837
21679W        W92279  21.476  30.319   0.728
21680W        W92280  31.930  38.348   4.105
21681W        W92281  18.472  17.419   9.641
21682W        W92282  44.197   9.489  13.024
21683W        W92283  33.438  30.087  12.802
21684W        W92284  28.389  40.981   4.217
21685W        W92285   0.475  15.395  12.904
21686W        W92286   9.373  25.168   4.551
21687W        W92287  43.019  13.635   3.142
21688W        W92288  35.878  43.520   1.698
21689W        W92289  33.350  13.652  13.991
21690W        W92290  39.493  37.800   3.587
21691W        W92291  42.553   8.353   0.376
21692W        W92292  21.980  21.237   3.709
21693W        W92293   3.683   4.158   3.561
21694W        W92294  28.245  26.500   2.585
21695W        W92295  14.174  43.289   2.241
21696W        W92296  12.597  38.500   0.673
21697W        W92297   4.014  26.445  13.572
21698W        W92298  33.890  30.006   1.259
21699W        W92299  40.919  39.580   3.149
21700W        W92300  22.509  31.983   4.141
21701W        W92301  13.925  27.155  12.034
21702W        W92302  27.209  17.060   2.879
21703W        W92303  29.609  22.295   4.216
21704W        W92304  17.439   5.940  13.939
21705W        W92305   5.355  44.786  10.360
21706W        W92306   6.482  31.038  13.501
21707W        W92307  34.042  43.485  13.975
21708W        W92308  14.317   1.998   1.273
21709W        W92309  36.943  43.744   1.848
21710W        W92310  35.860   6.137   3.166
21711W        W92311  35.885  27.955  14.781
21712W        W92312   4.705  24.251  11.994
21713W        W92313  35.875  42.402  10.671
21714W        W92314  42.024  33.464   0.492
21715W        W92315   5.903  32.348   3.159
21716W        W92316   5.803  23.259  12.982
21717W        W92317  30.058  40.933  12.090
21718W        W92318   1.816  42.320   1.816
21719W        W92319  31.178  15.766   1.478
21720W        W92320  22.559  18.388  11.989
21721W        W92321  41.973  37.620  13.034
21722W        W92322  16.149  26.945  12.534
21723W        W92323  31.638   7.278  14.037
21724W        W92324  24.746  12.267   2.782
21725W        W92325  28.055   5.003   4.287
21726W        W92326  32.261  22.269  14.916
21727W        W92327  10.714  27.795   1.343
21728W        W92328   0.518  28.215   0.572
21729W        W92329  43.611  19.855  10.089
21730W        W92330  35.062   9.002  12.767
21731W        W92331   6.828   1.181   0.290
21732W        W92332  32.250   8.962  14.948
21733W        W92333  29.264  28.191  10.317
21734W        W92334   7.497  38.014   1.518
21735W        W92335  26.201  30.479   2.831
21736W        W92336  30.888  14.116  11.602
21737W        W92337  28.710   2.795  14.271
21738W        W92338  28.445  23.979   2.135
21739W        W92339  11.176  38.033   3.234
21740W        W92340  10.030  33.646  12.499
21741W        W92341  13.390  12.214  13.275
21742W        W92342  31.040  25.712   0.556
21743W        W92343  12.279   9.710   0.245
21744W        W92344  19.488  21.616   0.942
21745W        W92345  39.786  34.965  14.836
21746W        W92346  44.511  42.779   1.852
21747W        W92347  35.876  18.066   2.827
21748W        W92348  44.413  40.600   3.289
21749W        W92349   8.778  27.194  12.202
21750W        W92350  29.388  13.735  13.427
21751W        W92351  13.266  29.550  10.684
21752W        W92352  28.129   6.418  14.803
21753W        W92353  25.978  15.211  14.380
21754W        W92354  25.741  37.805  12.050
21755W        W92355   1.984  10.701   4.173
21756W        W92356  12.154  12.869   4.514
21757W        W92357   0.121  22.058   3.628
21758W        W92358   7.133   4.071  10.714
21759W        W92359   1.738  40.510   1.295
21760W        W92360   6.881  30.450  10.618
21761W        W92361   9.896  25.381  12.382
21762W        W92362  22.811  18.439  11.050
21763W        W92363  39.822  30.028   0.845
21764W        W92364  13.844  23.434   0.761
21765W        W92365  42.927  43.974  12.959
21766W        W92366  31.866  27.683   2.264
21767W        W92367   0.910  10.589  14.899
21768W        W92368  18.711  21.928   3.151
21769W        W92369  16.204  12.527  11.120
21770W        W92370  10.412  31.379   2.496
21771W        W92371  23.068  16.843  12.091
21772W        W92372  32.671  16.914  11.135
21773W        W92373  10.861  24.575  13.487
21774W        W92374  17.631  35.162  10.834
21775W        W92375   7.388   7.761   0.434
21776W        W92376   0.499  15.869  10.684
21777W        W92377  33.046   3.400  12.443
21778W        W92378   3.334  32.185   1.910
21779W        W92379  40.893  29.258  12.582
21780W        W92380  11.228  24.449   2.199
21781W        W92381   4.929   8.547  12.599
21782W        W92382   0.988  22.974   2.769
21783W        W92383  40.930  14.531  12.247
21784W        W92384  33.991  39.970  10.585
21785W        W92385   9.720  23.656   2.486
21786W        W92386  39.735  13.587   1.836
21787W        W92387  27.647  38.533  14.279
21788W        W92388   2.745  18.854  12.122
21789W        W92389  23.181  37.245   4.275
21790W        W92390  15.643  32.553  14.492
21791W        W92391  12.779   1.540  11.128
21792W        W92392  31.111   4.436   1.897
21793W        W92393  10.414  42.464  11.505
21794W        W92394  38.027   1.737   2.676
21795W        W92395  41.864  12.688  12.173
21796W        W92396  11.773  23.093  14.091
21797W        W92397  16.659  12.846  14.843
21798W        W92398  33.107  33.690  12.376
21799W        W92399   8.106   2.959   3.886
21800W        W92400  15.253  36.892   4.347
21801W        W92401  44.193  10.371  13.333
21802W        W92402  23.221  22.541   0.288
21803W        W92403  22.808  29.974  13.123
21804W        W92404  32.952  19.165  12.138
21805W        W92405  26.073  41.014   1.781
21806W        W92406  39.505  26.887   3.332
21807W        W92407  33.873  15.350   0.461
21808W        W92408  29.038  44.074  10.757
21809W        W92409   2.700  21.306   2.736
21810W        W92410  41.958  29.597  12.665
21811W        W92411  26.451   1.230  13.343
21812W        W92412  32.488  43.927   4.586
21813W        W92413   8.250   6.934   2.921
21814W        W92414   9.939  25.032   3.588
21815W        W92415  20.485  15.746  11.520
21816W        W92416   9.907   0.971  13.093
21817W        W92417   9.128  21.552   3.118
21818W        W92418  22.326  23.958  11.086
21819W        W92419   5.267  37.151   3.871
21820W        W92420   1.089  26.155  12.988
21821W        W92421  19.697  23.812  14.009
21822W        W92422  20.119  33.797   3.533
21823W        W92423  36.584  24.575   3.427
21824W        W92424   4.271  18.278  13.977
21825W        W92425  43.816  11.323  11.980
21826W        W92426  16.186   7.177  10.844
21827W        W92427  38.892  36.847   1.366
21828W        W92428  32.684  37.504   1.376
21829W        W92429  12.841   5.359  11.604
21830W        W92430   7.463   0.686   4.974
21831W        W92431  21.181  27.142   1.830
21832W        W92432  17.480  25.073  13.480
21833W        W92433  27.551  39.246   2.768
21834W        W92434   7.839  34.170  14.836
21835W        W92435  16.730  27.193   1.999
21836W        W92436  16.568   7.850  11.169
21837W        W92437   9.180   0.255  13.062
21838W        W92438  32.154  41.159  12.469
21839W        W92439  17.551  25.424  11.497
21840W        W92440  19.052  21.608  12.330
21841W        W92441  22.310  41.400   2.880
21842W        W92442  36.087   0.632   2.813
21843W        W92443  27.105   0.175   3.625
21844W        W92444   6.408  44.904  11.661
21845W        W92445   3.772  34.275  14.541
21846W        W92446  36.479  33.686  11.600
21847W        W92447  29.586  25.380   2.176
21848W        W92448  42.340  39.520  10.558
21849W        W92449  19.082  14.986  14.893
21850W        W92450  35.504  35.140  11.070
21851W        W92451  31.485  32.387   0.742
21852W        W92452  24.446  14.722  13.503
21853W        W92453   8.835  18.167   0.434
21854W        W92454  16.689  12.175   1.363
21855W        W92455   4.978   4.921  12.838
21856W        W92456  29.626  18.804  13.966
21857W        W92457  26.760  12.251   0.365
21858W        W92458  21.201  32.493   2.487
21859W        W92459  13.886  37.280  13.082
21860W        W92460  28.542  44.897   2.937
21861W        W92461  39.508  27.204  12.930
21862W        W92462  20.582  31.218   1.172
21863W        W92463  34.398  29.526   1.930
21864W        W92464  15.172  42.488   2.670
21865W        W92465  20.714  12.420  10.527
21866W        W92466  31.562  26.280   0.548
21867W        W92467   4.519  32.070   4.096
21868W        W92468   8.197  18.512   2.332
21869W        W92469  35.991  43.668  13.507
21870W        W92470  25.490  44.204  12.972
21871W        W92471  27.295  44.947  11.083
21872W        W92472   1.130  26.226   0.408
21873W        W92473  12.666   6.745   3.292
21874W        W92474   0.749  43.774   1.823
21875W        W92475   6.874  15.647   1.264
21876W        W92476  27.686   6.805   3.674
21877W        W92477  14.023  34.083   3.200
21878W        W92478  17.675  23.801   2.099
21879W        W92479  33.552  36.911   4.131
21880W        W92480  21.531  23.121  13.208
21881W        W92481  30.476  37.572  14.468
21882W        W92482  29.170  21.207  11.088
21883W        W92483  20.236   6.169   5.163
21884W        W92484  13.658  20.587  10.996
21885W        W92485  35.194  13.333   0.854
21886W        W92486  30.504   0.890  13.840
21887W        W92487  33.611  35.373  11.522
21888W        W92488  12.763  11.000  13.996
21889W        W92489  42.499  41.221  14.482
21890W        W92490  11.881   5.259  14.478
21891W        W92491  43.678  30.952   1.808
21892W        W92492  35.913  42.022  11.018
21893W        W92493  16.720  36.196   4.573
21894W        W92494   8.423  43.442  11.076
21895W        W92495  31.648  21.710   0.119
21896W        W92496  44.190  28.321  14.425
21897W        W92497  12.318  16.651  13.969
21898W        W92498   7.979   7.337  12.576
21899W        W92499  36.580   6.236   1.855
21900W        W92500  13.778  10.215   0.133
21901W        W92501  13.086  17.071  14.707
21902W        W92502  11.767   4.725  14.524
21903W        W92503  16.274  10.354   0.014
21904W        W92504   9.679   3.008  14.595
21905W        W92505  26.559  16.785   0.673
21906W        W92506  31.234  14.900   1.763
21907W        W92507   6.904  42.046   4.654
21908W        W92508  22.261  34.085  10.744
21909W        W92509  14.169  32.555  10.634
21910W        W92510  42.295  15.719   1.845
21911W        W92511  39.355   2.408  13.427
21912W        W92512   9.262   5.438   3.705
21913W        W92513  23.947  30.564   0.862
21914W        W92514  21.108  26.762  13.598
21915W        W92515  31.609  34.675   9.911
21916W        W92516   4.379  42.832  14.275
21917W        W92517   2.874  11.319   0.923
21918W        W92518  10.681  12.163  12.646
21919W        W92519   8.664  33.200  10.406
21920W        W92520  17.754  10.409   9.964
21921W        W92521   0.903  37.934   0.633
21922W        W92522  44.921  31.409  12.891
21923W        W92523  38.364  23.082  12.813
21924W        W92524  28.327  18.945  14.476
21925W        W92525  28.204  19.805  12.882
21926W        W92526   5.590  10.216  12.041
21927W        W92527   5.761  19.032  12.953
21928W        W92528  27.696  31.015   2.342
21929W        W92529  40.805  21.699  14.327
21930W        W92530  38.003  29.493   4.078
21931W        W92531  39.354  29.361  11.385
21932W        W92532  36.853   0.358   3.081
21933W        W92533   2.495  27.725  14.029
21934W        W92534   8.842   9.876  13.245
21935W        W92535  29.002  36.587  12.207
21936W        W92536  38.960  24.650  14.506
21937W        W92537  39.306  35.684  11.647
21938W        W92538  14.548  18.084   2.742
21939W        W92539   8.927  25.760  14.842
21940W        W92540   5.542   8.145  13.099
21941W        W92541  44.767  33.502  14.773
21942W        W92542  39.338  15.146  10.933
21943W        W92543  43.625  35.342   2.726
21944W        W92544  36.049  19.173   2.168
21945W        W92545  19.034  11.880  11.954
21946W        W92546  30.394  28.112  13.052
21947W        W92547  24.161  18.062   2.026
21948W        W92548  29.074  20.173   2.353
21949W        W92549  24.017  37.735  10.892
21950W        W92550  19.412   6.565  11.191
21951W        W92551  44.436  35.366  14.911
21952W        W92552  42.295  22.393   3.182
21953W        W92553  10.389   1.163  10.689
21954W        W92554   9.090   0.674   4.070
21955W        W92555  31.967   3.304  11.036
21956W        W92556  40.574  30.600   2.181
21957W        W92557   7.418  34.444  10.786
21958W        W92558   2.886  24.599   0.983
21959W        W92559   2.848  42.081  11.871
21960W        W92560  35.309  15.907  11.584
21961W        W92561  36.122  22.178   4.328
21962W        W92562  43.737  34.915  10.717
21963W        W92563  32.874  22.368   0.782
21964W        W92564  25.174   9.032   5.064
21965W        W92565  27.457  30.609  11.223
21966W        W92566   8.197   9.603  14.011
21967W        W92567  34.066  17.017  14.414
21968W        W92568  30.412  11.431   1.405
21969W        W92569  24.251  33.028   0.837
21970W        W92570  33.013  10.602  12.456
21971W        W92571   5.913  38.963  10.717
21972W        W92572   2.083  40.539  12.389
21973W        W92573  17.590  32.104  14.875
21974W        W92574   2.993  33.373  14.497
21975W        W92575  12.667  35.937  13.733
21976W        W92576  20.911  12.862  13.569
21977W        W92577  40.891   2.017   1.411
21978W        W92578  33.491  24.355   1.326
21979W        W92579  32.737  15.706   3.004
21980W        W92580  18.169  13.745  12.810
21981W        W92581  29.435   4.743   0.716
21982W        W92582  37.800  30.626   1.115
21983W        W92583  16.684  19.800   0.396
21984W        W92584   2.296  37.665  14.405
21985W        W92585  30.024  32.559  11.816
21986W        W92586  29.034  15.209   0.401
21987W        W92587   6.927   8.954   4.156
21988W        W92588   9.616  44.735   4.394
21989W        W92589  21.322  35.518  11.043
21990W        W92590   6.131  26.592  12.507
21991W        W92591   7.336  23.905   0.378
21992W        W92592  34.174  22.339   4.890
21993W        W92593   0.892  34.559  14.076
21994W        W92594  31.473  22.972  11.674
21995W        W92595  33.571  28.547  11.911
21996W        W92596  22.665  42.211   4.867
21997W        W92597  28.797  11.293   3.156
21998W        W92598  36.622  37.378   4.206
21999W        W92599   3.255  13.664   1.905
22000W        W92600  23.102  11.878  14.281
22001W        W92601  18.783  32.434  10.339
22002W        W92602  38.993  16.676   0.933
22003W        W92603  22.764  15.524   1.824
22004W        W92604  31.476  44.009  10.669
22005W        W92605  29.999  20.976  12.187
22006W        W92606  27.214   0.551  14.530
22007W        W92607  44.364  33.451   1.263
22008W        W92608  17.023  27.164   0.360
22009W        W92609  25.534  31.931  11.550
22010W        W92610  32.994  19.935   1.039
22011W        W92611  21.019  31.419  12.521
22012W        W92612  43.708  29.152   3.725
22013W        W92613  20.316  40.914   2.099
22014W        W92614  30.897   1.764  11.325
22015W        W92615  27.874  26.920  11.581
22016W        W92616  22.195  36.126   2.237
22017W        W92617  35.940  12.900   3.893
22018W        W92618  35.737  18.334   3.325
22019W        W92619  43.508  43.147   2.247
22020W        W92620  42.422  25.989   3.207
22021W        W92621  11.008  34.329   3.755
22022W        W92622  22.859   1.704  13.926
22023W        W92623   3.312  15.072  11.063
22024W        W92624  40.372  26.608   1.731
22025W        W92625  11.409  35.881   3.860
22026W        W92626  39.936  24.033  11.047
22027W        W92627  10.300  17.514  11.085
22028W        W92628   1.039  16.652  12.986
22029W        W92629  43.795  22.173   0.146
22030W        W92630  28.416  22.686   1.395
22031W        W92631  16.968  24.881   1.765
22032W        W92632  32.935   2.869  14.713
22033W        W92633  29.443   0.349   0.882
22034W        W92634   3.660   7.877   2.661
22035W        W92635  40.868  18.587  11.658
22036W        W92636  34.119  44.455   1.948
22037W        W92637  23.687   1.406   0.972
22038W        W92638   5.702  33.934  13.992
22039W        W92639  43.025   6.483   3.809
22040W        W92640   8.540   2.847   4.159
22041W        W92641  17.263  10.879  10.438
22042W        W92642  28.037   7.911  11.959
22043W        W92643  33.365  37.885  11.202
22044W        W92644   8.467  15.960   5.180
22045W        W92645  30.118  10.490  13.449
22046W        W92646  31.915   5.687  11.040
22047W        W92647  42.424   9.270  12.478
22048W        W92648  16.224  30.054   2.918
22049W        W92649  35.432  32.477   3.356
22050W        W92650  32.952  30.115   0.914
22051W        W92651  11.607  36.359  11.204
22052W        W92652  30.400  43.241   3.388
22053W        W92653   0.477  13.273  14.785
22054W        W92654  20.268  37.391  10.355
22055W        W92655  31.941   6.789  12.384
22056W        W92656  27.456  34.740   0.540
22057W        W92657  17.825   7.613   1.351
22058W        W92658  33.521   6.991  13.321
22059W        W92659  42.672  14.040  14.383
22060W        W92660  29.256  24.681   4.214
22061W        W92661  40.830  19.059  12.877
22062W        W92662  21.262  19.450  10.627
22063W        W92663  43.542  20.925  11.974
22064W        W92664  13.072  23.631  12.526
22065W        W92665  38.045   2.047  12.359
22066W        W92666   5.465  16.408   4.245
22067W        W92667  30.561  15.817  13.378
22068W        W92668   4.934  18.212   3.111
22069W        W92669   7.260   4.863  10.625
22070W        W92670  22.272  11.226  12.864
22071W        W92671  25.897   6.853  13.515
22072W        W92672  33.668  40.030  12.166
22073W        W92673  34.907  19.193  13.504
22074W        W92674  41.032  37.447   0.007
22075W        W92675   0.809   4.321  13.051
22076W        W92676  15.592  14.550   4.113
22077W        W92677   5.383  28.241  11.113
22078W        W92678  31.397  33.272   2.211
22079W        W92679  37.981  34.289   1.824
22080W        W92680  28.114  13.625   3.032
22081W        W92681  15.401  38.789   2.238
22082W        W92682   5.196  36.852   2.498
22083W        W92683  19.577  35.182  12.556
22084W        W92684  35.047   3.179   0.336
22085W        W92685   0.661  19.864   0.030
22086W        W92686  17.213  11.770   4.125
22087W        W92687   7.295  32.432   2.460
22088W        W92688  42.168  18.301  14.406
22089W        W92689  44.470  14.826  12.959
22090W        W92690  19.204  28.477   9.835
22091W        W92691  12.725   3.301   2.865
22092W        W92692  13.279  33.618   0.149
22093W        W92693  11.815  24.316  13.225
22094W        W92694  10.069  12.086  11.048
22095W        W92695  39.474  29.635   1.687
22096W        W92696  20.646  36.314  11.149
22097W        W92697  24.484  15.523   3.839
22098W        W92698  18.056  38.922  11.120
22099W        W92699   3.653   3.401  10.867
22100W        W92700  16.913  26.402  13.804
22101W        W92701  31.659   6.309  12.093
22102W        W92702  33.658  23.795  12.927
22103W        W92703  14.358  23.955   1.874
22104W        W92704  34.125   5.285  12.138
22105W        W92705  36.466  33.198  12.005
22106W        W92706   2.885  29.985   4.747
22107W        W92707  37.888  10.203  14.765
22108W        W92708  18.768  15.881  14.773
22109W        W92709  43.252   8.282  14.463
22110W        W92710  18.065  42.566  12.833
22111W        W92711   7.817  23.133  13.267
22112W        W92712   1.223  42.937   4.369
22113W        W92713  36.050  42.066   2.165
22114W        W92714   1.261  29.124  12.188
22115W        W92715   8.406  36.385   2.880
22116W        W92716  24.097  24.692   3.163
22117W        W92717  38.800  18.543  11.609
22118W        W92718  32.646  24.705  13.791
22119W        W92719  18.622  11.107  13.500
22120W        W92720   6.891   9.691  11.121
22121W        W92721  44.307  34.879  14.737
22122W        W92722   7.827  31.805  13.852
22123W        W92723  35.579  34.629   1.692
22124W        W92724  35.727  41.649   2.793
22125W        W92725  27.947   4.657   4.662
22126W        W92726   1.016  32.183   3.683
22127W        W92727  37.649   7.940  14.486
22128W        W92728   7.485  26.601  11.225
22129W        W92729  36.517  22.473  11.151
22130W        W92730  22.534  13.568  14.736
22131W        W92731  31.923   2.912   0.923
22132W        W92732  26.080   6.896   4.558
22133W        W92733  10.484  17.485   2.405
22134W        W92734  26.886  19.415   2.712
22135W        W92735   6.147  15.717  14.910
22136W        W92736  29.080  28.869  14.727
22137W        W92737  28.712  43.332   4.859
22138W        W92738  44.785  42.020  13.473
22139W        W92739   2.363  23.426  12.587
22140W        W92740  30.090  44.885   0.053
22141W        W92741  18.697  38.493   1.734
22142W        W92742   6.718  25.242   1.334
22143W        W92743  23.731   5.933  13.052
22144W        W92744  42.142  16.241  14.235
22145W        W92745  33.976  15.680  14.997
22146W        W92746  20.072   8.307   1.030
22147W        W92747   0.918  33.485  13.087
22148W        W92748  36.790  31.340   2.304
22149W        W92749  36.372  25.695  11.173
22150W        W92750   0.197  17.886  11.589
22151W        W92751  19.543  22.058  13.294
22152W        W92752  23.560  12.335   0.026
22153W        W92753  30.870  41.849  11.549
22154W        W92754  37.604   2.677   2.672
22155W        W92755   3.430  19.302   4.689
22156W        W92756   6.044   5.312   2.269
22157W        W92757  17.685  32.411  14.256
22158W        W92758   2.255  13.797   0.925
22159W        W92759  41.834  44.357   3.255
22160W        W92760   0.146  19.854  13.999
22161W        W92761  43.786  14.062   4.712
22162W        W92762   5.925  42.171   1.482
22163W        W92763  12.175  14.871   0.838
22164W        W92764  35.395   6.805   2.078
22165W        W92765  36.742  17.185   3.967
22166W        W92766  42.924  22.739  12.543
22167W        W92767   7.724  39.459  13.605
22168W        W92768  40.465  19.178   0.840
22169W        W92769  31.983  17.074   2.791
22170W        W92770  14.694  37.836   1.845
22171W        W92771  33.080  14.090  13.874
22172W        W92772  18.215  39.295  14.619
22173W        W92773   2.889   2.980  10.699
22174W        W92774   9.861  27.078   0.223
22175W        W92775  14.127  12.881  10.650
22176W        W92776  18.126  15.820   4.653
22177W        W92777  33.014  12.110  13.898
22178W        W92778  24.627   7.829   4.491
22179W        W92779  16.513   4.217  14.912
22180W        W92780  39.609  38.547   2.379
22181W        W92781  24.534  34.547   2.917
22182W        W92782  42.293  24.685   2.292
22183W        W92783  43.932  42.876   2.151
22184W        W92784  36.388  18.134   2.730
22185W        W92785  38.297  39.482  13.993
22186W        W92786  10.263  39.860   0.650
22187W        W92787  23.628  28.567   4.182
22188W        W92788   8.676  39.883   3.132
22189W        W92789  24.853  15.678  11.018
22190W        W92790  33.531  16.138   0.774
22191W        W92791  20.122  34.035  11.363
22192W        W92792   1.749  16.664   0.724
22193W        W92793  38.220  14.554  10.353
22194W        W92794  39.460  32.846  13.976
22195W        W92795  39.933  33.033  14.061
22196W        W92796  15.254   6.721  11.725
22197W        W92797  34.389  12.050  11.983
22198W        W92798  22.348  20.039  14.452
22199W        W92799  25.952   7.764  11.126
22200W        W92800   4.739  27.746  13.532
22201W        W92801  39.128  16.619   4.625
22202W        W92802  32.628  33.756  12.196
22203W        W92803  11.803  15.440  12.972
22204W        W92804  38.531  24.526   0.984
22205W        W92805  35.517  27.069  12.943
22206W        W92806  27.379  36.411  12.471
22207W        W92807  20.117  12.173  14.921
22208W        W92808  34.398  34.515   0.987
22209W        W92809  23.749  11.447   2.239
22210W        W92810   4.875  14.833  12.406
22211W        W92811  36.845  20.830  11.298
22212W        W92812  24.067   3.547  10.614
22213W        W92813   9.639  18.278   2.209
22214W        W92814  42.886   4.426  13.559
22215W        W92815   7.950  41.975   4.584
22216W        W92816  44.411   2.367  10.355
22217W        W92817   0.756   8.361   4.355
22218W        W92818  33.247  21.426   5.033
22219W        W92819   3.913  44.743  14.317
22220W        W92820  23.541  26.519  11.588
22221W        W92821  11.094  26.331  11.197
22222W        W92822  36.446  24.001  12.092
22223W        W92823   9.085  15.937   0.230
22224W        W92824   5.403  13.615  13.598
22225W        W92825  16.692  28.679  13.347
22226W        W92826   9.338  12.759   3.565
22227W        W92827   8.438   5.047   2.435
22228W        W92828  28.184  15.503  12.979
22229W        W92829  17.362  35.584  13.933
22230W        W92830  37.379  41.376   3.175
22231W        W92831  40.823  43.371  11.700
22232W        W92832   3.736  33.840  14.995
22233W        W92833  15.328  38.147  10.628
22234W        W92834   6.914   9.877  13.341
22235W        W92835  20.426   7.567  11.085
22236W        W92836  15.782   8.744  11.119
22237W        W92837  18.561  15.414  14.889
22238W        W92838  34.946  25.551   2.975
22239W        W92839  10.745  20.475  11.941
22240W        W92840  37.944  44.546  11.545
22241W        W92841  25.834  11.703  10.773
22242W        W92842  25.672   8.329   0.940
22243W        W92843  37.654   1.332  12.858
22244W        W92844  30.004  23.092  12.541
22245W        W92845   4.002  40.533   4.141
22246W        W92846  39.821  18.124  14.112
22247W        W92847  41.043  35.141   2.445
22248W        W92848  28.189  23.773   3.547
22249W        W92849  10.807  35.502   3.240
22250W        W92850  44.638  31.829   2.403
22251W        W92851  19.119  38.433  10.811
22252W        W92852  39.307  44.993   4.097
22253W        W92853  40.531  44.909   1.441
22254W        W92854  26.640  21.283   1.813
22255W        W92855  13.888  31.498   3.594
22256W        W92856  30.151  42.227   0.962
22257W        W92857  36.550  42.991  12.464
22258W        W92858  20.574  43.959  12.243
22259W        W92859  30.836  44.708  14.442
22260W        W92860  30.551  36.953   4.874
22261W        W92861   0.522  34.929  13.368
22262W        W92862   4.693  23.696   0.918
22263W        W92863   3.708  29.852   1.318
22264W        W92864   2.298  40.423  14.563
22265W        W92865  44.203  18.768   0.866
22266W        W92866  12.345  14.131  11.214
22267W        W92867  24.727  32.846  11.984
22268W        W92868  34.395   4.406  13.485
22269W        W92869  27.516  26.021   2.680
22270W        W92870  18.481  37.965   2.428
22271W        W92871  24.624  36.909  11.517
22272W        W92872  39.894   5.999   4.424
22273W        W92873  40.332  27.635  14.700
22274W        W92874  34.077   4.324  14.454
22275W        W92875  14.811  16.737   4.613
22276W        W92876  26.717  15.719   2.425
22277W        W92877  32.433   0.808   2.815
22278W        W92878  28.576  22.988   3.444
22279W        W92879   0.870   6.126   0.136
22280W        W92880   9.797   6.542   1.221
22281W        W92881  31.066   8.886   4.628
22282W        W92882  40.408  21.818  14.685
22283W        W92883  18.679   5.248  14.215
22284W        W92884  23.209  34.812   2.713
22285W        W92885  27.953  12.031   2.319
22286W        W92886  31.577  42.913   0.504
22287W        W92887  41.993   8.952  14.917
22288W        W92888  40.804  30.600  14.385
22289W        W92889  20.855  24.881  11.129
22290W        W92890  21.616  27.240  14.119
22291W        W92891  21.104   4.737   3.821
22292W        W92892   9.393  16.059   2.797
22293W        W92893  26.129   0.796   4.566
22294W        W92894  20.212  26.268   1.986
22295W        W92895  22.487  30.838  12.203
22296W        W92896  13.616   5.009  12.940
22297W        W92897   3.617  42.967   1.967
22298W        W92898  40.037  15.036  14.820
22299W        W92899   2.729  16.829   2.738
22300W        W92900  41.434   8.841  14.320
22301W        W92901  10.313  10.625   2.348
22302W        W92902  22.634  39.972   3.706
22303W        W92903  19.677  43.589  12.575
22304W        W92904  30.960   8.596  10.917
22305W        W92905  42.914   9.910   1.638
22306W        W92906  28.003  18.684   3.021
22307W        W92907  40.059  25.930   0.280
22308W        W92908   5.716  15.383  14.938
22309W        W92909   3.994   4.349  12.583
22310W        W92910   8.816   6.868   4.699
22311W        W92911  18.010  39.010  13.429
22312W        W92912  42.365  42.535   0.447
22313W        W92913  40.313  39.068   2.854
22314W        W92914  25.561  42.611  13.955
22315W        W92915  11.625   9.201  11.062
22316W        W92916  21.977  24.834   4.200
22317W        W92917  10.011   0.213   0.164
22318W        W92918  23.458  29.489   3.260
22319W        W92919   9.208   1.109  13.339
22320W        W92920  22.866  17.660   2.071
22321W        W92921   2.469  14.427  11.521
22322W        W92922  22.053  11.124   3.606
22323W        W92923  40.005  19.299   2.205
22324W        W92924  13.856  25.801  14.249
22325W        W92925  12.739   5.005   3.260
22326W        W92926  21.960  36.675   4.562
22327W        W92927  26.237   4.394  12.969
22328W        W92928  27.680  30.085   4.212
22329W        W92929  23.568   8.906   3.550
22330W        W92930  44.353  26.766  10.662
22331W        W92931  29.607   1.142   2.881
22332W        W92932   7.882   8.332   4.209
22333W        W92933  19.938   6.822  13.481
22334W        W92934  32.517  42.371   4.361
22335W        W92935  19.975  27.005  12.965
22336W        W92936  11.537  20.701  11.037
22337W        W92937  34.965  30.532   3.615
22338W        W92938  36.610  10.296  10.990
22339W        W92939  28.455  39.575   2.266
22340W        W92940  10.138  22.539  14.538
22341W        W92941  21.736   3.767  12.009
22342W        W92942  35.147  10.748  11.497
22343W        W92943  12.887  33.490   2.510
22344W        W92944   3.412  29.557  11.991
22345W        W92945  34.835  11.670   1.793
22346W        W92946  30.608  44.777  10.644
22347W        W92947   3.920  17.296   3.225
22348W        W92948  16.211  39.443   1.405
22349W        W92949  40.474  25.337   4.606
22350W        W92950  36.986  23.429   0.995
22351W        W92951  26.613  23.060  13.416
22352W        W92952  18.099  22.739  14.406
22353W        W92953   6.894  38.185   2.301
22354W        W92954  15.794  36.317  14.480
22355W        W92955  26.628  36.683   5.059
22356W        W92956  12.465  33.650  14.075
22357W        W92957  31.889  33.069  14.222
22358W        W92958   3.458  30.601  11.618
22359W        W92959  42.721   0.419  13.430
22360W        W92960   4.230  29.097   3.112
22361W        W92961  25.500  10.193   2.667
22362W        W92962  35.842  22.199   3.223
22363W        W92963   1.797  40.804   1.997
22364W        W92964  29.688  22.781  11.092
22365W        W92965  11.769  22.153  11.061
22366W        W92966  33.098  39.218   4.626
22367W        W92967   0.739  34.372   1.400
22368W        W92968  43.540  22.175   4.083
22369W        W92969  39.524   6.416  10.394
22370W        W92970  14.730  20.719   3.399
22371W        W92971   2.000  32.184  13.726
22372W        W92972  13.576  29.100  13.525
22373W        W92973  16.629  33.120  10.162
22374W        W92974   0.701  14.374   5.043
22375W        W92975  33.121  40.420  13.504
22376W        W92976  26.605  37.091   2.913
22377W        W92977   9.247  33.266   2.743
22378W        W92978  28.721  42.782   0.351
22379W        W92979   2.697  36.781   0.165
22380W        W92980  26.628   6.361  13.565
22381W        W92981  32.182   8.932   2.312
22382W        W92982   0.503   1.508  10.916
22383W        W92983  11.274  43.304  10.472
22384W        W92984  39.886  13.959  12.259
22385W        W92985  26.447  10.731  11.075
22386W        W92986   9.403  12.130  14.474
22387W        W92987   9.941  19.599   2.750
22388W        W92988   4.821  34.709   4.909
22389W        W92989  41.748  29.178   4.576
22390W        W92990  36.945  23.173   4.545
22391W        W92991   2.808  16.317  14.974
22392W        W92992  33.524  31.457   2.226
22393W        W92993   3.014   4.154   2.737
22394W        W92994  33.984  41.314   0.659
22395W        W92995   9.305  40.404  13.858
22396W        W92996   9.925  18.257   4.640
22397W        W92997  38.020  41.605  10.545
22398W        W92998  22.046  11.283   1.400
22399W        W92999  27.019  36.958   2.608
22400W        W93000  42.341  38.045  12.156
22401W        W93001  32.104   4.868   1.429
22402W        W93002   3.035  40.216  12.916
22403W        W93003   3.683  36.467   3.409
22404W        W93004  14.141  26.954   3.679
22405W        W93005  22.688  30.505  10.816
22406W        W93006  15.042   1.946  10.746
22407W        W93007   8.324  28.968   3.746
22408W        W93008  38.257  25.172  14.308
22409W        W93009   9.203  39.830   3.147
22410W        W93010  33.872  13.203   4.153
22411W        W93011  40.295  27.753   4.033
22412W        W93012  10.197  44.038   4.265
22413W        W93013  17.501  42.491   1.284
22414W        W93014  43.008   1.173   3.470
22415W        W93015  34.361   9.979  12.656
22416W        W93016  11.658  25.393   4.869
22417W        W93017  21.790  28.128   0.914
22418W        W93018   2.869  36.428   0.510
22419W        W93019  25.587  17.265  10.680
22420W        W93020  41.916  31.193   0.287
22421W        W93021   4.945  23.745   3.884
22422W        W93022   2.834  37.590  11.522
22423W        W93023  39.863  13.366  12.872
22424W        W93024  22.475  32.069   2.910
22425W        W93025  20.050  17.554  12.846
22426W        W93026  19.133  18.723   3.234
22427W        W93027  41.665  22.462   0.438
22428W        W93028  12.699  10.276   1.239
22429W        W93029  31.199  38.847  14.988
22430W        W93030  16.166  20.108  13.707
22431W        W93031  23.969  19.946  12.807
22432W        W93032  13.299  25.445  12.064
22433W        W93033  25.304   1.857   1.296
22434W        W93034  35.171  14.638   4.873
22435W        W93035  33.972  29.052   2.770
22436W        W93036  15.190   7.322  12.952
22437W        W93037  30.802  22.184  13.397
22438W        W93038  18.162  43.732  12.789
22439W        W93039   1.392  32.511   3.794
22440W        W93040   2.328  37.597   2.151
22441W        W93041   2.219   3.787  12.848
22442W        W93042  38.134  19.335  12.392
22443W        W93043  12.191  25.156   2.796
22444W        W93044   5.911  30.722   0.721
22445W        W93045  17.277  38.244  12.020
22446W        W93046   4.425  37.398   1.539
22447W        W93047  31.507  21.050   2.277
22448W        W93048  18.725  24.826  13.836
22449W        W93049   8.305  39.080   1.203
22450W        W93050  35.478  23.912   0.483
22451W        W93051  43.028  18.236  14.047
22452W        W93052   9.130  26.952  10.785
22453W        W93053  21.766  14.704  12.420
22454W        W93054  41.391  40.084  14.953
22455W        W93055   3.744  18.838  14.341
22456W        W93056  39.545   5.196   3.848
22457W        W93057  34.912  38.556  11.100
22458W        W93058  40.023  30.040  13.398
22459W        W93059  30.487  10.193  11.672
22460W        W93060  26.569  26.530   3.637
22461W        W93061  21.618   7.345   2.619
22462W        W93062  27.144  29.703  13.183
22463W        W93063  29.116  36.380   4.110
22464W        W93064   1.340  10.708   2.191
22465W        W93065  11.876  38.528  14.036
22466W        W93066  38.689  40.651   5.024
22467W        W93067  15.386  43.311   1.166
22468W        W93068   7.530  41.996   3.332
22469W        W93069   0.845  28.430  13.826
22470W        W93070   9.326  18.071  10.619
22471W        W93071  14.871  40.295   1.883
22472W        W93072   3.419  33.157  10.199
22473W        W93073  10.015  33.541  11.162
22474W        W93074  22.442  10.927  11.658
22475W        W93075  31.730  33.440  12.641
22476W        W93076  42.368   6.711   4.276
22477W        W93077  37.611   5.886  11.150
22478W        W93078  44.102   5.658   9.832
22479W        W93079  26.117  19.137   4.920
22480W        W93080  43.809  31.097  10.927
22481W        W93081   5.965  40.684   5.271
22482W        W93082  24.945  18.171  10.696
22483W        W93083   2.015   9.851  14.896
22484W        W93084  28.393   7.296  10.594
22485W        W93085   9.387   0.270  12.611
22486W        W93086  36.650  39.826   1.274
22487W        W93087  24.604  41.497   0.236
22488W        W93088  13.236  42.359  13.647
22489W        W93089  26.931  24.602  13.593
22490W        W93090  27.942   0.310  14.937
22491W        W93091   5.116  19.987   3.209
22492W        W93092  24.090  13.761  11.043
22493W        W93093  12.173  10.940  14.379
22494W        W93094  26.427  11.223   2.788
22495W        W93095  44.438   3.391  12.074
22496W        W93096  17.181  41.551   4.101
22497W        W93097  22.383  21.067  12.303
22498W        W93098   5.354  28.759  11.132
22499W        W93099  41.515   6.303   5.462
22500W        W93100  37.887  22.945  10.721
22501W        W93101  22.139   4.992  11.057
22502W        W93102   7.323  29.722   4.553
22503W        W93103  12.337  37.802  10.672
22504W        W93104   7.733  22.584  10.519
22505W        W93105  35.612  38.014  11.486
22506W        W93106  33.601  12.409  13.466
22507W        W93107  40.081  44.466  12.084
22508W        W93108  43.001  29.363  14.200
22509W        W93109  30.892   2.209   1.968
22510W        W93110  26.153  27.909   4.153
22511W        W93111  26.606  30.893   4.742
22512W        W93112  22.007  42.497   1.504
22513W        W93113  25.552  39.315   1.487
22514W        W93114  26.903  18.092  11.552
22515W        W93115  44.376  19.016  14.836
22516W        W93116  28.138   3.811   1.321
22517W        W93117  23.154  12.950   1.821
22518W        W93118  40.735  14.827   4.313
22519W        W93119   8.202  43.847  12.567
22520W        W93120  34.719   0.718   2.766
22521W        W93121  16.365  30.478  14.651
22522W        W93122  14.642   1.224  10.776
22523W        W93123   5.121  12.568   1.291
22524W        W93124  15.134  29.264   3.241
22525W        W93125  37.526   8.783  11.919
22526W        W93126  24.954  31.075   2.646
22527W        W93127  31.125  10.748   0.966
22528W        W93128  19.817  43.550   4.043
22529W        W93129  38.825  30.610   2.782
22530W        W93130  34.428  33.025  13.671
22531W        W93131  13.705  28.976   3.100
22532W        W93132  18.235  18.815   3.119
22533W        W93133  32.713  33.567  10.639
22534W        W93134  20.243  23.510  14.805
22535W        W93135  30.531  19.414   0.153
22536W        W93136  37.504  33.186  12.093
22537W        W93137  13.632  22.536  14.045
22538W        W93138   3.242  28.947   3.091
22539W        W93139  30.424   3.843   4.996
22540W        W93140   4.840  32.623   1.404
22541W        W93141  30.594  36.187   2.878
22542W        W93142  41.482  36.720  13.795
22543W        W93143  37.050   6.662  11.749
22544W        W93144  43.293  19.561   3.634
22545W        W93145  14.794  35.997   3.245
22546W        W93146   8.605  33.405  12.387
22547W        W93147  42.879  14.583   4.147
22548W        W93148  30.651  27.468   3.244
22549W        W93149   0.865  30.955   3.197
22550W        W93150   5.957  19.110  14.811
22551W        W93151  20.738   4.177   1.232
22552W        W93152  11.149  26.693  12.019
22553W        W93153   6.376  26.096  11.534
22554W        W93154  32.319  23.631  14.897
22555W        W93155  36.068  20.691   3.314
22556W        W93156  31.264  25.650  11.209
22557W        W93157  21.345  20.083   5.043
22558W        W93158   7.637  41.052   1.368
22559W        W93159  24.799  27.650  10.680
22560W        W93160  19.744   7.749   1.686
22561W        W93161  41.440  28.915  13.141
22562W        W93162  19.865  26.017  14.495
22563W        W93163  27.755  18.205  14.843
22564W        W93164  20.178  10.950   2.383
22565W        W93165  24.793   1.844  12.405
22566W        W93166  20.303  29.182  13.986
22567W        W93167   1.930  25.604  13.659
22568W        W93168   6.932   3.442  10.723
22569W        W93169   0.877  43.211   0.837
22570W        W93170  40.634  10.287   4.643
22571W        W93171  40.637  23.819   0.083
22572W        W93172  37.572   1.324   2.195
22573W        W93173  25.339  44.708   9.587
22574W        W93174  39.434  11.385   1.840
22575W        W93175  27.721  15.137  13.957
22576W        W93176  29.904   9.898   3.466
22577W        W93177  36.369  26.396   5.026
22578W        W93178   2.400  16.249  14.076
22579W        W93179  11.917  36.097  11.546
22580W        W93180   7.927   8.617  14.261
22581W        W93181   9.339  30.472   4.107
22582W        W93182  37.505  16.920  10.362
22583W        W93183  27.873   8.574   4.275
22584W        W93184   6.202  27.402   2.431
22585W        W93185  36.506   6.896  14.050
22586W        W93186  39.965  36.351   0.022
22587W        W93187  11.913  30.495  13.127
22588W        W93188  38.941  44.341   2.412
22589W        W93189  29.338  43.044  12.366
22590W        W93190  42.227  28.451   2.454
22591W        W93191   3.948  27.395   2.774
22592W        W93192   6.247   3.817  14.928
22593W        W93193  16.582  39.337   0.163
22594W        W93194  28.922   6.700  12.988
22595W        W93195  27.778  35.070  11.540
22596W        W93196  31.150   5.696  10.927
22597W        W93197  13.309  28.437  11.928
22598W        W93198  23.768  42.332   1.246
22599W        W93199  16.213  18.312   0.382
22600W        W93200  40.469  27.145   3.188
22601W        W93201  25.392  19.017   0.506
22602W        W93202  29.411  14.090  11.713
22603W        W93203  24.189  31.088   0.800
22604W        W93204   4.297   9.635   3.162
22605W        W93205  34.742   6.287  13.235
22606W        W93206  24.426  22.640  13.702
22607W        W93207  14.876  23.467   5.040
22608W        W93208  30.493   2.195   5.008
22609W        W93209  43.026   1.273   2.963
22610W        W93210  19.327  15.215  13.654
22611W        W93211   0.982  33.046  13.389
22612W        W93212  30.719  44.013  14.800
22613W        W93213   7.791   2.397   3.228
22614W        W93214   8.484  15.124  13.476
22615W        W93215   5.829  26.265  12.785
22616W        W93216  21.124   3.360   0.933
22617W        W93217   0.049  19.741  11.160
22618W        W93218  28.215  21.819  13.018
22619W        W93219  38.500  17.616   1.466
22620W        W93220   3.783  16.338   1.348
22621W        W93221   2.487  37.120  14.854
22622W        W93222  30.077  35.908  13.294
22623W        W93223   1.055  43.759   1.367
22624W        W93224  12.773  15.031  12.931
22625W        W93225  34.199  24.842   0.889
22626W        W93226  41.947  34.634   2.257
22627W        W93227  30.545  32.288   0.854
22628W        W93228  31.334  22.199  13.457
22629W        W93229  37.509  16.232   2.361
22630W        W93230  25.934  18.701  14.925
22631W        W93231  10.592  18.050   2.389
22632W        W93232  12.203   7.427   3.660
22633W        W93233  11.754  29.167  12.601
22634W        W93234  11.391  13.075   0.909
22635W        W93235  33.314  16.381   3.341
22636W        W93236  10.539  38.017   4.247
22637W        W93237  20.534   2.344  12.954
22638W        W93238  35.026  29.675  13.386
22639W        W93239   3.441  44.931  14.334
22640W        W93240  15.218  32.252  11.410
22641W        W93241  28.498   7.316  14.438
22642W        W93242  38.125  26.053  11.787
22643W        W93243   9.160  16.063  13.218
22644W        W93244   6.148  35.451   2.220
22645W        W93245  11.369  33.948   1.285
22646W        W93246   9.621   4.817  14.464
22647W        W93247  13.170  22.410  13.831
22648W        W93248  44.964  34.046  10.991
22649W        W93249  33.595  36.436   4.892
22650W        W93250  28.559   2.277  10.782
22651W        W93251  34.057  36.876   1.754
22652W        W93252  21.936  10.483   0.954
22653W        W93253  14.246  35.060  14.900
22654W        W93254  11.306  24.233  10.748
22655W        W93255  30.620  30.408   4.895
22656W        W93256  43.536   6.647  14.985
22657W        W93257  34.553  44.767   3.526
22658W        W93258  38.842  42.758   0.243
22659W        W93259   4.369  42.542  11.203
22660W        W93260  14.868   8.001   0.993
22661W        W93261  23.715  44.395  13.459
22662W        W93262  16.662  36.968   1.439
22663W        W93263  37.763  39.356   4.094
22664W        W93264  18.232  43.492  14.604
22665W        W93265  37.946  18.553   4.033
22666W        W93266  34.049  20.671   3.873
22667W        W93267  34.018  28.970  10.683
22668W        W93268  42.446  25.543   3.423
22669W        W93269  36.440   4.779   4.847
22670W        W93270  12.360  17.299   4.552
22671W        W93271  38.739   8.109   1.497
22672W        W93272  31.994   2.974  12.402
22673W        W93273  38.118   5.912   1.907
22674W        W93274  31.878  15.276   2.427
22675W        W93275  18.177  42.525   2.980
22676W        W93276  42.041  38.427   4.628
22677W        W93277  36.936  17.589  11.648
22678W        W93278   0.184   3.694  13.107
22679W        W93279  30.941  10.705  13.566
22680W        W93280  23.531  20.718  13.089
22681W        W93281  14.101  40.921   1.725
22682W        W93282   7.422  18.551  10.561
22683W        W93283  39.346  44.281  13.409
22684W        W93284  31.991  31.543   4.564
22685W        W93285  19.690   5.133  11.489
22686W        W93286  37.639   0.927   0.490
22687W        W93287  37.600  15.736   4.672
22688W        W93288  17.262  35.400  14.794
22689W        W93289  29.006  12.274  14.864
22690W        W93290  36.962   3.156   3.225
22691W        W93291  36.787   3.517  12.188
22692W        W93292  25.700  36.025  12.893
22693W        W93293   0.718  21.859   3.825
22694W        W93294  30.909   6.852  11.949
22695W        W93295  15.599   2.875  10.694
22696W        W93296  17.071   0.249  11.492
22697W        W93297   6.412   1.143   4.366
22698W        W93298  26.253  26.937  10.312
22699W        W93299  29.879   5.437   1.300
22700W        W93300   3.023  11.280  12.071
22701W        W93301  31.155   0.701  14.514
22702W        W93302  10.791  26.406   2.112
22703W        W93303   4.642  41.334  14.300
22704W        W93304  39.241  21.524   1.788
22705W        W93305  42.326  27.385  11.497
22706W        W93306   1.548  38.053   4.217
22707W        W93307  18.644   3.866   1.705
22708W        W93308  24.300  39.454  14.495
22709W        W93309  33.148  22.781   3.698
22710W        W93310  40.298  35.703   0.691
22711W        W93311   8.309  42.485  11.942
22712W        W93312  25.079   6.800   1.910
22713W        W93313   8.187  39.329   3.685
22714W        W93314  16.608  15.604   2.942
22715W        W93315  26.715  28.558  11.334
22716W        W93316  13.414   3.409   0.813
22717W        W93317  21.956  25.911  11.423
22718W        W93318   4.391  40.351   1.890
22719W        W93319  26.543   0.989   2.199
22720W        W93320   2.437  35.067  13.438
22721W        W93321   0.939  13.535  10.794
22722W        W93322  35.967  35.849  12.503
22723W        W93323  25.896   4.364   1.659
22724W        W93324  30.399  35.795  14.206
22725W        W93325  41.181  35.910   2.678
22726W        W93326  12.910  19.848  13.412
22727W        W93327  18.736  33.084   2.577
22728W        W93328  27.671   3.347  12.391
22729W        W93329   4.493  36.209   3.204
22730W        W93330   2.708   6.770   2.757
22731W        W93331   3.152  20.170  10.969
22732W        W93332  41.818   8.700   4.646
22733W        W93333  10.440   9.233  14.752
22734W        W93334  40.373  11.658   4.613
22735W        W93335  16.452   4.114   2.791
22736W        W93336   5.191   5.885   2.403
22737W        W93337  44.346   0.427  10.605
22738W        W93338   6.187  33.494  11.912
22739W        W93339   3.013  26.438  13.364
22740W        W93340  32.461  12.331   0.829
22741W        W93341  14.197  44.537   0.313
22742W        W93342  21.012  20.464   3.390
22743W        W93343   9.933  34.739  14.585
22744W        W93344   8.944  30.219   2.327
22745W        W93345  29.327   0.044   2.832
22746W        W93346   1.748  35.698   0.379
22747W        W93347  15.548  28.871  12.985
22748W        W93348  22.140  23.968  10.565
22749W        W93349  11.069  29.126   3.127
22750W        W93350  42.405  20.991  12.647
22751W        W93351   3.921   2.372   1.839
22752W        W93352   1.459   1.900  12.417
22753W        W93353  41.541   9.388  10.603
22754W        W93354  26.626  18.058   2.094
22755W        W93355  30.012  31.093  11.889
22756W        W93356  13.076  25.072  14.878
22757W        W93357  38.919  12.961  12.874
22758W        W93358  18.127  30.687  13.805
22759W        W93359  36.381  35.550  13.117
22760W        W93360  22.397   9.926   9.545
22761W        W93361  13.302  11.831  11.543
22762W        W93362   6.758  34.928  13.049
22763W        W93363  14.374  27.010  13.365
22764W        W93364  22.586  24.285  14.214
22765W        W93365   8.925  14.737   4.807
22766W        W93366  28.558  30.862   4.919
22767W        W93367  40.523  17.122   2.417
22768W        W93368   2.720  20.565  12.482
22769W        W93369  43.080  23.086   1.548
22770W        W93370  10.852  30.075  12.902
22771W        W93371  36.710   3.296  14.635
22772W        W93372  32.915  39.983   3.180
22773W        W93373  36.833   5.704  14.928
22774W        W93374   4.729   6.139   1.672
22775W        W93375  14.720  14.580   1.267
22776W        W93376  15.329  30.094   1.205
22777W        W93377  44.272  13.262   3.274
22778W        W93378  41.015  10.428   3.415
22779W        W93379  10.741  43.165  12.213
22780W        W93380  34.829  30.169   2.781
22781W        W93381  22.271  27.060  11.970
22782W        W93382  32.304  31.808  11.142
22783W        W93383   7.719   8.111   0.225
22784W        W93384  29.450  43.572   1.263
22785W        W93385   0.410   7.042  11.538
22786W        W93386  17.488  31.983  12.549
22787W        W93387  16.036   5.700  12.871
22788W        W93388   7.212  28.635   2.323
22789W        W93389   7.861  23.088   2.154
22790W        W93390  17.056  19.555   2.328
22791W        W93391  20.140  19.260  12.513
22792W        W93392  27.010  44.279   2.044
22793W        W93393  40.516   0.199  12.773
22794W        W93394  13.703  43.711  13.118
22795W        W93395  38.815  39.167   4.164
22796W        W93396  31.747   7.352  12.894
22797W        W93397  39.504  43.951  13.023
22798W        W93398  10.363  29.032   0.906
22799W        W93399  18.773  34.453   0.044
22800W        W93400  26.643  17.733   3.790
22801W        W93401  34.457  42.911   3.994
22802W        W93402   7.818  16.508  14.952
22803W        W93403  13.713  43.502   3.881
22804W        W93404  25.453   4.351   1.952
22805W        W93405  22.222   8.558   4.523
22806W        W93406  24.544  24.044   2.188
22807W        W93407  12.394  13.927   3.857
22808W        W93408   2.770  37.701   0.298
22809W        W93409  41.894  10.104   3.870
22810W        W93410  33.164   0.866  12.017
22811W        W93411  33.628  42.799  14.523
22812W        W93412  19.590  37.549  13.775
22813W        W93413  36.225  41.801   2.685
22814W        W93414  38.997  20.707  12.082
22815W        W93415  39.131  25.101   3.716
22816W        W93416  41.017  15.315  13.377
22817W        W93417  43.777  16.536  11.490
22818W        W93418  13.313  37.295  10.722
22819W        W93419  34.166  37.576   2.257
22820W        W93420  10.805   2.552   3.733
22821W        W93421  37.906  34.998  10.553
22822W        W93422  43.051   6.501  13.307
22823W        W93423  10.049  41.135  14.527
22824W        W93424   4.543  37.219   2.976
22825W        W93425   0.445  27.742   4.129
22826W        W93426  32.607  26.987  12.389
22827W        W93427   6.626  11.159   2.858
22828W        W93428  20.103  21.469  13.960
22829W        W93429  14.870  27.677   0.758
22830W        W93430  23.025  16.996  13.500
22831W        W93431  37.436  42.520  12.150
22832W        W93432  21.720  19.510  14.333
22833W        W93433  26.237  13.221  13.072
22834W        W93434  23.517  32.476   0.006
22835W        W93435  30.426   1.944  10.647
22836W        W93436  20.990  35.802  12.975
22837W        W93437  32.666  37.412   4.133
22838W        W93438  38.083   6.683   1.825
22839W        W93439   2.173   1.718  14.477
22840W        W93440  27.472  37.635   4.608
22841W        W93441   0.399  35.390   2.631
22842W        W93442  31.895  19.738  13.914
22843W        W93443   7.390  30.115   1.276
22844W        W93444  35.369  20.012  13.494
22845W        W93445  26.165   2.170  14.062
22846W        W93446  23.530  35.584  11.118
22847W        W93447  34.433  31.636  14.391
22848W        W93448  12.732  27.481  12.714
22849W        W93449  20.029  44.807   1.061
22850W        W93450   8.796  14.739  13.305
22851W        W93451  17.041  16.210  14.840
22852W        W93452  14.500  26.052  12.201
22853W        W93453  18.243  18.707  11.459
22854W        W93454  30.013  43.601   2.715
22855W        W93455  12.774  11.824  13.753
22856W        W93456  39.033  38.904   0.376
22857W        W93457  20.692  35.415  12.890
22858W        W93458   1.986  33.431   3.206
22859W        W93459  36.798  20.689  12.007
22860W        W93460   6.310  28.679   4.167
22861W        W93461  35.609  20.010  11.481
22862W        W93462   8.658  14.575   0.020
22863W        W93463  17.138  14.364  12.713
22864W        W93464   6.864  22.919  14.267
22865W        W93465  12.636  29.310  14.551
22866W        W93466   6.758  20.664  14.854
22867W        W93467  23.980  11.281   4.109
22868W        W93468  24.292  28.173  12.881
22869W        W93469  13.010  22.324  11.579
22870W        W93470  23.522  18.791  14.432
22871W        W93471   5.376  17.688   2.622
22872W        W93472  41.528   9.826  13.239
22873W        W93473  19.971   1.353   4.674
22874W        W93474  44.261   4.353  10.236
22875W        W93475  14.719  11.398   0.061
22876W        W93476  35.131  34.565   1.997
22877W        W93477   6.719  43.870   0.823
22878W        W93478  14.846   7.152   3.278
22879W        W93479  29.472  43.828  10.948
22880W        W93480  26.295  31.825   1.908
22881W        W93481   7.489   3.203  12.046
22882W        W93482  29.464  38.869  11.989
22883W        W93483  24.344   7.324   4.891
22884W        W93484   3.799  28.111  10.254
22885W        W93485  29.899  23.043  13.923
22886W        W93486  32.921  38.579   4.090
22887W        W93487  22.637  37.935   3.016
22888W        W93488  37.820  34.792   5.072
22889W        W93489  36.438  17.148   3.545
22890W        W93490  31.624  42.455   0.217
22891W        W93491  36.648  24.090  10.737
22892W        W93492   3.248  13.626   0.901
22893W        W93493   1.690  11.290   2.869
22894W        W93494  17.174   6.027  11.114
22895W        W93495  38.848  16.665  14.440
22896W        W93496   2.789  44.296   2.780
22897W        W93497  43.323   7.554  13.153
22898W        W93498  35.537  18.555  11.532
22899W        W93499  42.113  44.009  13.942
22900W        W93500   2.008  12.266   2.275
22901W        W93501  33.831  31.994  14.041
22902W        W93502  33.353  24.840   1.191
22903W        W93503  22.198  37.427   4.085
22904W        W93504   8.818  43.515  14.499
22905W        W93505   3.310   2.987   2.453
22906W        W93506   4.271  25.604  11.341
22907W        W93507  37.746  26.501   2.092
22908W        W93508  42.359  26.503  14.815
22909W        W93509  31.524  28.084  10.680
22910W        W93510  41.457   8.321  12.501
22911W        W93511   4.496  26.595  14.288
22912W        W93512  30.571  13.567  13.049
22913W        W93513  41.497  37.969   2.322
22914W        W93514   0.514  38.119   4.862
22915W        W93515  26.979  44.929   0.324
22916W        W93516   4.146  36.662  11.061
22917W        W93517  40.903  29.540   2.993
22918W        W93518  39.976  38.612   1.108
22919W        W93519  19.557  35.390  14.480
22920W        W93520  24.218  29.057  11.968
22921W        W93521   2.853  25.540  13.258
22922W        W93522   8.304  18.759  10.622
22923W        W93523  22.731  20.239  13.554
22924W        W93524  39.904  13.357  13.882
22925W        W93525  22.021  11.089  12.401
22926W        W93526   7.926  25.569   0.751
22927W        W93527  15.620  13.628  14.971
22928W        W93528  42.544   0.883  14.215
22929W        W93529  37.587   6.371  11.338
22930W        W93530  29.549  24.399  10.416
22931W        W93531  13.199  18.317  14.550
22932W        W93532  15.761  21.497  10.109
22933W        W93533  21.096  38.835  14.868
22934W        W93534  22.188   0.267  12.464
22935W        W93535  44.778   3.285   1.474
22936W        W93536   0.207  16.058   2.296
22937W        W93537   7.417  11.726   1.551
22938W        W93538   8.050  41.956  14.128
22939W        W93539   9.209  34.780   2.823
22940W        W93540  42.341  14.623  11.695
22941W        W93541  26.932   7.419   3.639
22942W        W93542  19.008  12.931  12.717
22943W        W93543  39.127  37.558  10.645
22944W        W93544  31.333  31.163   4.134
22945W        W93545  36.874  41.106  13.396
22946W        W93546   1.877  23.230  12.638
22947W        W93547  36.824  19.106   3.667
22948W        W93548  21.202  37.781   1.377
22949W        W93549  23.222  36.856   2.868
22950W        W93550   7.307   4.998   4.160
22951W        W93551   8.213   0.459  14.426
22952W        W93552  34.137  41.179  11.734
22953W        W93553  21.002  17.374   4.110
22954W        W93554  38.813  13.571   4.620
22955W        W93555   6.116  38.800  14.311
22956W        W93556   0.382  22.133  11.879
22957W        W93557  15.275  42.938  14.409
22958W        W93558  18.487  21.496  13.023
22959W        W93559  37.426  15.090  11.052
22960W        W93560  41.194  15.649  11.673
22961W        W93561  18.627   8.318  11.238
22962W        W93562  33.658   4.817   1.450
22963W        W93563  25.579   6.578   1.420
22964W        W93564  18.420  30.931  12.167
22965W        W93565  25.569  21.768  13.530
22966W        W93566  14.626  30.933  14.174
22967W        W93567  44.828  30.392  12.938
22968W        W93568   5.017  23.795   4.387
22969W        W93569  21.205  11.142  14.075
22970W        W93570   0.199   9.105   2.846
22971W        W93571  21.453   1.220   4.122
22972W        W93572  37.014   0.972   4.326
22973W        W93573   3.325  32.648   3.665
22974W        W93574  17.306  25.590   2.230
22975W        W93575  17.077   7.724  12.075
22976W        W93576  18.190  22.686  11.646
22977W        W93577  33.929   7.221  10.374
22978W        W93578  32.391   9.305   3.862
22979W        W93579  38.611  19.168   2.229
22980W        W93580  19.527  17.182  12.940
22981W        W93581  17.696   1.964   0.306
22982W        W93582  42.055  24.954  12.432
22983W        W93583  21.394   4.918   4.205
22984W        W93584   5.470  16.216  11.941
22985W        W93585  38.262  34.884  11.972
22986W        W93586  16.606   0.118   3.320
22987W        W93587  15.372   4.883  13.573
22988W        W93588  39.785  19.278  11.968
22989W        W93589  27.393  11.664   0.456
22990W        W93590  24.722  32.180   3.223
22991W        W93591  19.457  39.365   3.289
22992W        W93592  30.560  10.914  12.235
22993W        W93593  33.504  42.632  14.036
22994W        W93594  24.539  11.204  14.938
22995W        W93595  29.284   1.817   4.703
22996W        W93596  34.167  14.565   1.727
22997W        W93597  18.223  16.821   3.256
22998W        W93598  14.343  35.469   0.188
22999W        W93599   2.675   1.056   0.820
23000W        W93600   5.864  16.801   0.453
23001W        W93601   1.443  15.029   2.009
23002W        W93602  15.362   5.666   3.257
23003W        W93603  24.034   7.105   4.532
23004W        W93604   5.198  18.656   3.085
23005W        W93605  28.892  10.651  13.440
23006W        W93606  39.468  27.684  12.038
23007W        W93607  18.706  28.464  11.564
23008W        W93608  39.486   6.817  11.207
23009W        W93609  28.125  13.926  10.646
23010W        W93610  33.401  39.506   1.472
23011W        W93611  17.388   3.811  14.355
23012W        W93612  43.407  35.844   0.217
23013W        W93613   5.433   6.391  12.536
23014W        W93614  17.361  44.387   3.214
23015W        W93615  42.801   8.880  13.916
23016W        W93616  36.070   1.869   3.711
23017W        W93617   2.742  42.082  14.946
23018W        W93618  28.781  22.974   0.372
23019W        W93619  43.075  37.242   3.271
23020W        W93620  21.792  18.451  13.879
23021W        W93621   3.920  41.828   3.520
23022W        W93622  28.632  24.906   3.457
23023W        W93623  24.471  42.475  13.132
23024W        W93624  13.590  38.784  14.954
23025W        W93625   7.289  32.819   2.113
23026W        W93626  27.535   5.740  14.425
23027W        W93627  44.969  11.655   3.224
23028W        W93628  44.999   3.914  11.009
23029W        W93629  27.464  11.140   2.835
23030W        W93630   7.582   9.131   1.532
23031W        W93631  28.500   9.230   2.197
23032W        W93632  36.597   6.428  12.675
23033W        W93633  21.084  38.141   2.806
23034W        W93634  30.060  15.595  11.655
23035W        W93635  14.816  21.697   4.749
23036W        W93636  23.718  28.623   2.810
23037W        W93637  16.915  30.087   4.650
23038W        W93638   8.271  44.318   2.933
23039W        W93639  35.050  27.376  13.787
23040W        W93640  15.093  30.886   0.783
23041W        W93641  27.973  18.071   4.143
23042W        W93642  35.071  29.020  10.823
23043W        W93643  16.536  22.540   4.209
23044W        W93644  19.630   3.371  13.020
23045W        W93645   8.260  29.480   3.744
23046W        W93646  28.389  15.647  13.459
23047W        W93647   3.940  21.611  10.609
23048W        W93648  16.610  10.834   4.563
23049W        W93649   5.456  28.554   2.686
23050W        W93650  20.515  23.579   1.696
23051W        W93651  43.943  37.060   3.402
23052W        W93652  17.672  14.703  12.449
23053W        W93653   5.301   6.791   4.182
23054W        W93654  32.883  15.184  14.378
23055W        W93655  17.687  30.455   4.872
23056W        W93656  22.169   2.682   4.169
23057W        W93657   9.223  24.514   1.726
23058W        W93658  21.032  28.855   4.210
23059W        W93659  33.999  19.435  13.812
23060W        W93660   9.825  27.578   0.150
23061W        W93661  19.736  37.246  10.637
23062W        W93662   3.844  23.244  11.071
23063W        W93663   8.436  35.457  13.974
23064W        W93664   1.744  10.685  10.531
23065W        W93665  44.401  27.060  12.577
23066W        W93666  11.164  19.442   1.229
23067W        W93667  14.638  10.789  14.271
23068W        W93668  40.942   8.967   2.911
23069W        W93669  43.308  35.950  12.562
23070W        W93670  13.756  40.546  14.324
23071W        W93671  20.740  19.340   4.932
23072W        W93672  26.227  20.343  10.923
23073W        W93673  15.246  11.661  10.074
23074W        W93674  36.090   4.133  14.351
23075W        W93675  32.345  29.987   2.791
23076W        W93676  24.770  43.785  14.792
23077W        W93677  22.657  19.710   5.028
23078W        W93678  15.308  28.128  13.822
23079W        W93679  12.811  31.622   4.673
23080W        W93680   0.481  30.371  10.598
23081W        W93681  21.608  38.537   2.959
23082W        W93682  43.012  31.228   1.374
23083W        W93683  34.367  18.226   3.855
23084W        W93684   6.451  22.619   2.889
23085W        W93685  18.439  31.560   1.491
23086W        W93686  37.653  19.092   0.168
23087W        W93687   6.818  36.985  12.214
23088W        W93688  18.452  15.163  14.294
23089W        W93689   5.832  15.819  12.613
23090W        W93690  28.745  24.505  12.394
23091W        W93691  17.365   5.785  13.425
23092W        W93692  26.043  43.537  12.622
23093W        W93693  27.750  22.520   0.744
23094W        W93694  24.592  19.563  14.345
23095W        W93695  11.280  13.705  13.783
23096W        W93696  27.685  18.250   1.007
23097W        W93697  33.121  24.209  13.933
23098W        W93698  28.282  20.111  13.504
23099W        W93699  17.204  10.580  13.333
23100W        W93700  28.946  37.804   4.086
23101W        W93701  36.966  14.751  12.636
23102W        W93702  14.125  28.731   3.742
23103W        W93703   7.616  37.897  10.705
23104W        W93704   1.317  25.204  11.465
23105W        W93705  23.721  37.319  13.394
23106W        W93706  39.477  27.776   2.884
23107W        W93707  33.052   4.187  11.062
23108W        W93708  14.766  37.837   4.232
23109W        W93709  18.148  29.725   1.289
23110W        W93710  33.756  39.003   3.533
23111W        W93711  32.525  40.350   2.359
23112W        W93712   1.863  31.508  12.530
23113W        W93713  35.442  40.026   2.893
23114W        W93714   5.349  41.856   0.899
23115W        W93715  12.861  40.329   1.912
23116W        W93716  31.562  18.045   4.945
23117W        W93717   4.768  15.392  13.954
23118W        W93718  23.241  32.824  12.898
23119W        W93719   8.855  26.411   3.689
23120W        W93720   6.253  43.896  14.348
23121W        W93721  28.197  35.784   4.149
23122W        W93722  33.989  22.527   4.381
23123W        W93723  31.993  10.281  14.726
23124W        W93724   2.469  44.384   0.154
23125W        W93725  36.283  37.928  10.912
23126W        W93726  42.454  10.852   2.404
23127W        W93727  38.102  27.158  14.717
23128W        W93728  31.673  38.114   1.950
23129W        W93729  19.114  18.971  14.780
23130W        W93730  36.443  42.712  12.040
23131W        W93731  36.721  42.581   4.226
23132W        W93732  12.233   8.690  12.524
23133W        W93733  19.248  26.879   3.280
23134W        W93734  25.173  19.083   3.845
23135W        W93735   2.190   6.757   2.749
23136W        W93736  16.153   6.326   0.146
23137W        W93737  34.378  38.768   3.703
23138W        W93738   3.534  37.280   1.189
23139W        W93739  43.925  33.089   4.135
23140W        W93740  18.274   1.376  12.040
23141W        W93741  28.388  26.281   2.129
23142W        W93742  16.613  18.249   4.565
23143W        W93743  20.528  21.264  12.142
23144W        W93744  30.715  34.054   2.235
23145W        W93745  40.493   2.311  10.475
23146W        W93746  23.751  31.360   2.075
23147W        W93747   0.675  22.685   3.565
23148W        W93748  41.990  42.565  12.571
23149W        W93749  32.808  15.246  12.109
23150W        W93750  38.961   0.500  13.583
23151W        W93751  41.875  16.882  13.395
23152W        W93752   4.897  13.709  14.489
23153W        W93753  11.394  23.555   3.725
23154W        W93754  19.734  16.501   3.083
23155W        W93755  41.911  14.074   0.317
23156W        W93756  33.267  15.540  12.397
23157W        W93757  43.875  10.451   3.816
23158W        W93758  12.092   4.767   1.723
23159W        W93759  23.177   7.954  14.336
23160W        W93760  18.572  42.072  13.787
23161W        W93761  37.106  44.516   4.144
23162W        W93762  36.023  30.482  12.960
23163W        W93763  34.130  27.078  10.612
23164W        W93764  33.916  29.419  13.032
23165W        W93765   8.062  34.370   1.758
23166W        W93766  43.717  14.798  12.496
23167W        W93767  32.999  16.285   4.645
23168W        W93768  34.412  28.445  12.417
23169W        W93769  27.662  40.823   4.939
23170W        W93770  29.376  41.499  10.804
23171W        W93771  25.409  32.899  10.498
23172W        W93772  10.863   7.296  12.065
23173W        W93773  19.203  25.559   3.868
23174W        W93774  13.919  11.657   2.010
23175W        W93775  44.111  31.489  14.045
23176W        W93776  40.009  44.447   4.181
23177W        W93777  43.481  27.718  14.820
23178W        W93778  37.956   8.893  12.175
23179W        W93779  29.086  37.920   4.587
23180W        W93780   2.514  32.512   3.154
23181W        W93781  19.721  33.212   2.129
23182W        W93782   9.156  13.540  13.313
23183W        W93783  29.164   9.446   2.840
23184W        W93784  18.070  39.622   4.619
23185W        W93785  24.988  24.025  12.346
23186W        W93786  38.074  29.453  13.332
23187W        W93787   6.390  24.038  14.367
23188W        W93788  16.699  25.443  10.190
23189W        W93789  12.106  10.730   1.190
23190W        W93790  44.255  16.341  11.644
23191W        W93791  10.715  14.292   0.920
23192W        W93792   5.707  23.459  14.847
23193W        W93793   7.431   9.848  13.366
23194W        W93794  44.977  29.120   1.857
23195W        W93795   0.284  41.792   2.241
23196W        W93796  16.010  42.917   3.047
23197W        W93797   6.932  17.272  12.542
23198W        W93798  23.089  28.188  14.365
23199W        W93799  23.023  15.631   1.391
23200W        W93800  11.126  34.597  13.505
23201W        W93801  39.883  41.082   2.216
23202W        W93802  25.088  39.533   2.183
23203W        W93803  44.236  25.491  11.088
23204W        W93804   6.913  44.349   1.949
23205W        W93805  16.177   3.669  11.141
23206W        W93806  39.772  16.198   3.986
23207W        W93807  35.855  22.518   2.607
23208W        W93808  23.718  36.536  14.327
23209W        W93809  28.638   6.278   1.875
23210W        W93810   2.209  27.223   1.357
23211W        W93811   3.957  13.816  14.858
23212W        W93812  28.964  12.761   3.636
23213W        W93813  18.631  12.201   0.136
23214W        W93814  40.288  30.153  14.799
23215W        W93815  39.912  29.541   0.522
23216W        W93816   6.779   6.342  12.206
23217W        W93817   2.717  30.370  13.387
23218W        W93818  39.032  17.208  11.729
23219W        W93819  38.357  15.545   3.366
23220W        W93820  15.794  34.419   1.169
23221W        W93821  40.865  15.246   2.240
23222W        W93822   7.313  31.044   1.899
23223W        W93823   9.843  34.653  12.089
23224W        W93824  29.097  16.730  14.288
23225W        W93825   9.395  36.082  13.352
23226W        W93826   7.653  28.302   2.258
23227W        W93827  33.336  16.587   2.456
23228W        W93828  11.834  37.469   1.812
23229W        W93829  31.929  32.024   1.932
23230W        W93830  14.815  41.502   5.397
23231W        W93831  18.432  28.229   2.171
23232W        W93832  28.895  30.131  11.619
23233W        W93833  28.945  44.006  11.758
23234W        W93834  26.437  31.999   3.822
23235W        W93835  13.717  12.594  10.685
23236W        W93836  12.606   4.791   1.665
23237W        W93837  31.476   9.917  12.032
23238W        W93838  41.988  39.550  12.461
23239W        W93839  36.494  22.528  10.147
23240W        W93840  43.343  11.745   0.010
23241W        W93841  11.233  33.848  11.607
23242W        W93842  33.527   7.373   2.356
23243W        W93843  35.491   9.269   2.981
23244W        W93844   9.230  32.350  13.330
23245W        W93845  36.010   1.922   0.902
23246W        W93846  35.569  22.112  12.610
23247W        W93847   4.644  20.223   4.595
23248W        W93848   2.394  24.528   2.862
23249W        W93849  36.091  40.738   2.229
23250W        W93850  26.702  33.872  10.993
23251W        W93851  33.331  36.364   0.674
23252W        W93852   4.380   6.379  10.317
23253W        W93853  18.218  41.035   1.820
23254W        W93854  27.435  37.928  10.708
23255W        W93855  23.636  36.447  14.990
23256W        W93856  38.776   9.415  13.384
23257W        W93857   3.837  35.656  14.260
23258W        W93858   1.790  23.676   2.736
23259W        W93859   4.476   2.166   0.278
23260W        W93860  38.579  35.043  13.899
23261W        W93861  12.086  30.185  14.299
23262W        W93862  25.054  17.586   3.437
23263W        W93863   7.825  38.810  11.555
23264W        W93864  24.609  24.459   3.070
23265W        W93865  36.970  13.318  13.331
23266W        W93866  12.405  10.196   0.344
23267W        W93867   6.792   2.460  10.721
23268W        W93868  29.730   7.316   2.478
23269W        W93869  14.046  41.526  13.985
23270W        W93870  19.742  37.568   1.336
23271W        W93871  30.143   8.472  14.405
23272W        W93872  37.057  31.432  12.968
23273W        W93873  28.961   1.761   0.357
23274W        W93874  36.789  37.860   4.034
23275W        W93875  41.332   7.832   4.719
23276W        W93876   6.163  34.254   5.046
23277W        W93877  31.211  37.987  14.798
23278W        W93878  17.759  43.393   1.276
23279W        W93879  41.000  19.551  12.899
23280W        W93880  19.739  40.544  14.332
23281W        W93881  26.363  31.023  13.001
23282W        W93882  10.757  33.909   3.271
23283W        W93883  31.035  19.662  12.214
23284W        W93884  38.928  33.036  11.458
23285W        W93885  27.000  18.602   0.813
23286W        W93886  30.384   9.614  12.390
23287W        W93887  32.032  22.713   1.751
23288W        W93888  17.795  41.948   3.536
23289W        W93889  40.436   4.500   3.329
23290W        W93890   5.495   7.328  12.613
23291W        W93891  27.906   2.724   0.766
23292W        W93892   9.166  26.608   0.231
23293W        W93893   4.691  22.714  14.027
23294W        W93894   0.806  26.134   2.733
23295W        W93895  15.499  30.469  10.047
23296W        W93896  13.229  29.514  11.980
23297W        W93897   8.736  43.568   0.007
23298W        W93898   5.871  43.845   0.044
23299W        W93899  25.210  11.039  10.582
23300W        W93900   2.126  42.830  10.587
23301W        W93901  17.673  40.423  11.464
23302W        W93902   7.409  13.780  11.083
23303W        W93903  39.182  29.169   2.457
23304W        W93904  13.981  17.275   1.346
23305W        W93905  31.876  39.092   3.405
23306W        W93906  24.752   3.625   5.045
23307W        W93907  41.027  38.558  13.045
23308W        W93908  26.690   4.477   1.461
23309W        W93909  42.558  22.241   4.120
23310W        W93910  43.998   9.840   4.785
23311W        W93911   1.789   7.438  10.875
23312W        W93912   0.117  25.696  12.476
23313W        W93913   8.620  10.669  11.040
23314W        W93914   4.051  28.154  13.756
23315W        W93915  26.453   2.218  14.816
23316W        W93916  34.187   9.776   2.762
23317W        W93917  10.619   9.887  11.567
23318W        W93918  24.807  11.862  11.525
23319W        W93919  30.016  18.704   4.880
23320W        W93920  31.228  15.806   2.001
23321W        W93921  11.640  29.424   1.207
23322W        W93922  14.380  27.213   1.616
23323W        W93923  42.792   3.730  12.064
23324W        W93924  20.048  20.313  13.052
23325W        W93925   4.432   6.735  13.456
23326W        W93926  37.321   0.890  11.595
23327W        W93927  32.903  39.969  13.374
23328W        W93928  30.637  36.450  14.536
23329W        W93929  24.543   8.306  12.004
23330W        W93930   3.506   4.886  12.895
23331W        W93931  19.339  22.013   2.354
23332W        W93932  39.456  36.437   3.619
23333W        W93933   1.270  36.329  10.824
23334W        W93934  32.587  39.413   4.680
23335W        W93935  38.763  21.538   2.820
23336W        W93936  31.995   0.232   3.988
23337W        W93937  26.058  11.395   4.650
23338W        W93938  23.864  44.884   3.173
23339W        W93939  27.066  43.685  13.345
23340W        W93940  32.578  13.309   0.531
23341W        W93941  29.182  33.487  12.957
23342W        W93942  22.718  24.963   3.479
23343W        W93943  36.259  37.899  12.876
23344W        W93944  31.405   9.739  13.762
23345W        W93945  15.544  39.431   1.337
23346W        W93946  34.090  39.831   0.874
23347W        W93947  30.374  11.430   2.297
23348W        W93948  42.785  22.673   2.299
23349W        W93949   1.161  24.481  12.568
23350W        W93950   0.452  15.827   4.116
23351W        W93951  28.904  16.040  14.846
23352W        W93952   5.915  25.220   2.696
23353W        W93953  43.034  11.108  11.950
23354W        W93954  33.281  22.773   1.384
23355W        W93955  21.467  28.857   5.083
23356W        W93956   2.818  27.593  13.461
23357W        W93957  38.586   7.329  10.343
23358W        W93958  17.532  23.210   4.598
23359W        W93959  35.170   2.234   4.239
23360W        W93960  28.899  42.761   1.907
23361W        W93961  34.961  39.801  11.629
23362W        W93962  29.130  16.731  13.784
23363W        W93963  42.345  39.868   1.859
23364W        W93964  25.652  15.844  14.881
23365W        W93965  14.544  36.338  13.496
23366W        W93966   0.377  37.940  13.945
23367W        W93967  17.071  43.168  14.656
23368W        W93968   6.925  18.415   4.034
23369W        W93969  42.148  30.112  13.308
23370W        W93970  37.911  29.802   3.655
23371W        W93971   8.268   8.667   1.235
23372W        W93972  21.146   5.892  12.894
23373W        W93973  31.131  42.488   0.398
23374W        W93974  13.561  29.242   0.321
23375W        W93975  32.638  25.180  11.172
23376W        W93976  25.470  21.152   2.832
23377W        W93977   2.506  13.528  11.521
23378W        W93978   9.425  21.486   2.605
23379W        W93979  37.682  36.350   1.300
23380W        W93980   9.816   8.838   1.758
23381W        W93981  43.762  30.570   0.377
23382W        W93982   0.821  36.457  11.791
23383W        W93983  17.291   8.135  11.872
23384W        W93984  35.630  13.414  12.951
23385W        W93985   0.791  25.017  14.042
23386W        W93986  27.949  31.039   4.150
23387W        W93987  40.441  36.298   3.245
23388W        W93988  25.195   7.317  13.137
23389W        W93989  19.537  33.155   0.734
23390W        W93990  10.074   6.382   2.824
23391W        W93991  29.590  36.430   1.396
23392W        W93992   5.634  26.299  10.818
23393W        W93993  10.631  30.229   0.912
23394W        W93994  22.534  23.190  10.419
23395W        W93995  41.219  18.741  13.015
23396W        W93996  40.915   9.439   0.256
23397W        W93997  23.081  13.524  14.468
23398W        W93998  14.889   2.805   0.820
23399W        W93999  23.175  41.393   2.321
23400W        W94000  30.556  30.435   3.262
23401W        W94001  35.182   3.693  12.348
23402W        W94002  29.599   4.642   1.272
23403W        W94003  14.665   4.894  11.452
23404W        W94004  29.517  35.467  14.360
23405W        W94005   6.625   3.045  11.714
23406W        W94006   1.926  26.917   4.668
23407W        W94007  17.241  26.938  14.457
23408W        W94008  41.634  44.690  10.404
23409W        W94009  31.473   0.785   2.895
23410W        W94010  39.029  38.275  12.931
23411W        W94011  20.004  29.749   1.844
23412W        W94012  38.938  44.619   5.020
23413W        W94013  16.512   7.102   1.079
23414W        W94014   5.897  39.762   3.148
23415W        W94015   4.145  22.039  12.927
23416W        W94016  16.109  31.591   3.115
23417W        W94017   3.024  23.281   0.244
23418W        W94018   5.667  12.815   3.318
23419W        W94019  15.264   5.468  12.464
23420W        W94020   5.834  30.630   2.235
23421W        W94021   7.798  33.528   2.437
23422W        W94022  25.253  44.083  12.214
23423W        W94023  41.521  30.032  11.531
23424W        W94024  36.812   7.462  14.717
23425W        W94025   9.927  28.351  14.476
23426W        W94026   7.349   8.825  11.542
23427W        W94027  34.537  35.183  12.830
23428W        W94028   4.084  10.584   0.902
23429W        W94029  25.927  13.572   1.129
23430W        W94030  37.288  29.415  14.350
23431W        W94031  34.048  17.211  10.624
23432W        W94032  33.045   7.795   1.195
23433W        W94033  26.046   7.959   4.684
23434W        W94034  42.923  30.650  11.549
23435W        W94035   6.959  39.720   4.125
23436W        W94036  44.034  41.476   3.681
23437W        W94037  13.072   6.443   0.895
23438W        W94038   9.076  42.101   1.195
23439W        W94039  34.965  42.662   3.735
23440W        W94040   5.783  13.338  12.902
23441W        W94041  13.150  38.824  12.395
23442W        W94042  43.352  38.895  11.763
23443W        W94043   2.319  37.196   2.475
23444W        W94044  23.279   0.488   0.509
23445W        W94045  35.868  26.123   1.969
23446W        W94046  40.832  43.982  14.936
23447W        W94047  21.040  12.212   4.313
23448W        W94048  36.432  40.447  14.478
23449W        W94049  41.086   8.833   3.376
23450W        W94050  10.125  42.777  13.230
23451W        W94051  34.625  23.055   1.756
23452W        W94052  29.750  43.877  10.515
23453W        W94053  36.085   3.672   4.453
23454W        W94054  22.519  38.907   2.778
23455W        W94055  23.193  19.280  11.562
23456W        W94056  30.678  25.353   0.485
23457W        W94057  44.931  15.719  11.597
23458W        W94058   5.945  39.846  11.163
23459W        W94059  22.507  31.794  10.554
23460W        W94060  44.784  32.118  12.439
23461W        W94061  25.924  43.488   3.852
23462W        W94062   5.086  24.109   4.778
23463W        W94063  19.024  16.239   0.717
23464W        W94064   3.267  27.165   2.868
23465W        W94065   7.743  15.492  11.188
23466W        W94066  11.248  35.984   1.808
23467W        W94067  29.088  22.967  11.693
23468W        W94068  28.875   1.984  13.836
23469W        W94069  34.414  22.525   2.664
23470W        W94070  25.180  25.228  11.111
23471W        W94071   4.939  30.138   0.239
23472W        W94072  18.143  43.719   1.166
23473W        W94073  34.874  36.147   0.958
23474W        W94074  21.012   5.389  12.630
23475W        W94075  24.245  28.668  13.023
23476W        W94076  17.646  38.954  11.401
23477W        W94077  10.097  14.108   3.799
23478W        W94078  44.330  41.327   0.404
23479W        W94079  41.325  32.004   2.712
23480W        W94080  13.071  35.363  14.511
23481W        W94081  11.272   7.927  11.900
23482W        W94082  39.525   9.111  13.978
23483W        W94083  29.056  10.674  13.938
23484W        W94084  31.626  25.182  12.505
23485W        W94085  35.076  14.226   3.555
23486W        W94086  44.496  23.426  12.114
23487W        W94087  14.382  12.573   3.683
23488W        W94088   7.713  20.352   3.698
23489W        W94089  19.924  22.528   0.586
23490W        W94090  25.590  43.324  12.801
23491W        W94091  26.702  26.290  13.825
23492W        W94092  44.496   7.127  10.733
23493W        W94093   6.728  25.728  13.904
23494W        W94094  13.104  15.464  13.227
23495W        W94095  11.374  30.992  11.126
23496W        W94096   4.905   2.690  14.989
23497W        W94097  34.091  14.147  11.651
23498W        W94098  43.981  24.165   0.903
23499W        W94099  38.881  39.820   2.831
23500W        W94100  33.070  10.879  10.869
23501W        W94101  40.799  19.706  12.445
23502W        W94102  11.733  23.116  13.047
23503W        W94103  12.651  23.647  13.856
23504W        W94104  30.693  41.390  13.011
23505W        W94105  15.221  15.749   0.842
23506W        W94106   9.313  17.022   5.106
23507W        W94107  14.109   3.713  14.995
23508W        W94108  30.647   1.471  10.605
23509W        W94109  28.912  24.958  13.594
23510W        W94110  11.203  22.423   0.963
23511W        W94111   1.904  41.391  14.201
23512W        W94112  19.608  34.809  12.923
23513W        W94113   6.748  35.109  10.626
23514W        W94114  20.361  41.959  11.625
23515W        W94115  42.752  23.656   1.386
23516W        W94116  18.685  15.336   3.569
23517W        W94117  35.431   6.501   3.902
23518W        W94118   3.454  34.927  12.469
23519W        W94119  18.595   4.955   4.536
23520W        W94120  27.619  25.675  13.863
23521W        W94121  18.134  35.914  11.142
23522W        W94122  23.770  24.184   3.861
23523W        W94123  25.043  11.962  10.702
23524W        W94124  15.389  29.785  11.928
23525W        W94125   3.470  35.087   1.893
23526W        W94126   2.809   1.270   3.871
23527W        W94127  19.636  33.624  14.288
23528W        W94128   2.983  35.623   4.705
23529W        W94129  32.112   4.341   2.272
23530W        W94130   0.980  44.237   0.827
23531W        W94131  30.844  41.743  14.008
23532W        W94132  38.423  33.425   4.551
23533W        W94133  27.547   5.168   2.729
23534W        W94134  42.402  35.834  11.523
23535W        W94135   0.791   0.215   1.707
23536W        W94136  11.400   0.369   0.684
23537W        W94137   6.235   8.648  11.963
23538W        W94138  44.877   1.457  14.354
23539W        W94139  22.229  34.839   2.336
23540W        W94140  26.659  23.766  13.019
23541W        W94141  31.625  20.059   1.411
23542W        W94142  31.841  24.457  10.771
23543W        W94143  10.344  39.336  12.797
23544W        W94144  40.694  12.624   4.159
23545W        W94145  30.406   2.296   1.760
23546W        W94146  10.712  37.897   1.143
23547W        W94147  25.065  15.788   0.464
23548W        W94148  23.012  20.626  14.746
23549W        W94149  22.735  36.022   0.909
23550W        W94150   6.838   2.672  12.029
23551W        W94151   7.230  24.372  12.001
23552W        W94152  17.940  30.067  12.396
23553W        W94153  41.369  42.548  13.525
23554W        W94154  36.626  22.648  13.887
23555W        W94155  22.765  37.303  11.260
23556W        W94156  28.937   6.289   2.336
23557W        W94157  30.855  41.848  10.641
23558W        W94158  28.667  21.097  13.444
23559W        W94159  18.590  17.203  14.578
23560W        W94160  33.368  18.234   3.132
23561W        W94161   8.712  13.759   3.410
23562W        W94162  35.529  33.826   2.318
23563W        W94163  17.138  26.072   2.297
23564W        W94164   1.484   3.087  13.156
23565W        W94165  38.907  26.123   0.715
23566W        W94166  30.628   9.000  13.816
23567W        W94167   0.740  18.728  14.995
23568W        W94168  35.922  24.677   0.383
23569W        W94169  29.025  20.283  10.697
23570W        W94170   9.370  40.924  13.942
23571W        W94171  44.865  13.377   4.088
23572W        W94172  12.001  32.227  11.478
23573W        W94173  20.620   7.599   2.308
23574W        W94174   8.216  34.200  14.449
23575W        W94175  15.211  19.739  13.946
23576W        W94176  44.541  10.760   4.166
23577W        W94177  21.148  21.407  10.988
23578W        W94178  44.782   2.261   3.905
23579W        W94179  34.855   0.190   4.254
23580W        W94180   5.657  28.034  12.029
23581W        W94181  43.358  18.751   0.241
23582W        W94182  25.616  32.145   0.181
23583W        W94183  23.043  31.821   4.124
23584W        W94184  24.122   6.594   4.598
23585W        W94185  23.308  28.504  10.450
23586W        W94186  18.117  33.844  11.238
23587W        W94187  36.701  36.189  11.512
23588W        W94188  42.937   5.978   3.825
23589W        W94189  27.354  28.258   0.296
23590W        W94190   2.535  20.778   3.601
23591W        W94191  39.002   0.293   3.696
23592W        W94192   8.722  35.078  14.895
23593W        W94193   2.479  24.924   1.216
23594W        W94194   1.183   8.931  12.261
23595W        W94195   6.614  29.145  11.908
23596W        W94196  20.834  40.399   3.793
23597W        W94197  24.404   7.358   2.619
23598W        W94198  41.985  10.105  11.538
23599W        W94199  14.245  10.623  13.919
23600W        W94200  25.625   9.143  10.588
23601W        W94201  44.586  34.578   4.015
23602W        W94202  43.662  26.526  14.478
23603W        W94203  40.377  21.978  11.661
23604W        W94204  10.869  13.568   3.719
23605W        W94205  13.552   7.845  14.549
23606W        W94206  41.936  43.507  12.381
23607W        W94207  33.937   0.259  13.805
23608W        W94208  32.898   2.830   3.055
23609W        W94209  42.061  36.632   4.102
23610W        W94210   5.887  12.215   1.465
23611W        W94211   3.205   7.911  12.904
23612W        W94212  32.774  36.387  11.474
23613W        W94213  14.554  15.248  12.347
23614W        W94214   1.739  37.234   0.788
23615W        W94215   7.246  14.093   2.728
23616W        W94216  33.943   9.906   0.214
23617W        W94217   6.348  23.508   4.748
23618W        W94218  12.662   0.766   0.303
23619W        W94219  31.409  40.889   1.708
23620W        W94220  15.700   3.726  14.554
23621W        W94221  31.164  11.706   4.067
23622W        W94222   7.136  37.939  13.445
23623W        W94223   8.132  38.553  13.802
23624W        W94224  16.380  17.110  11.204
23625W        W94225   6.177  27.847   1.711
23626W        W94226  41.997   7.591  13.052
23627W        W94227  12.042  42.276   4.540
23628W        W94228  39.034  31.526  14.664
23629W        W94229  37.306   6.901   0.233
23630W        W94230  18.728  35.696  10.350
23631W        W94231  26.665   0.303  10.753
23632W        W94232  15.894  41.385  12.917
23633W        W94233  13.826  34.266  13.959
23634W        W94234  16.666   9.377   0.895
23635W        W94235  23.168  23.037  12.522
23636W        W94236  11.823  11.794   4.118
23637W        W94237  11.325  17.194  14.707
23638W        W94238  13.710   9.683  12.605
23639W        W94239   0.934  35.874   0.049
23640W        W94240  16.192  42.570  12.657
23641W        W94241   8.905  34.767   2.420
23642W        W94242  16.978   0.839  10.734
23643W        W94243  24.127  28.463   5.144
23644W        W94244  33.841  42.585  11.168
23645W        W94245  15.264  44.937  11.934
23646W        W94246  25.137   6.374   0.749
23647W        W94247  14.581  21.039  14.485
23648W        W94248  41.459  23.734  12.802
23649W        W94249   4.296   2.712  13.849
23650W        W94250  33.476  35.257   2.189
23651W        W94251  36.136  40.725  14.151
23652W        W94252  34.819   5.297  10.868
23653W        W94253  17.562  44.282  13.876
23654W        W94254  22.074  26.666  11.660
23655W        W94255  40.065   0.789  12.037
23656W        W94256   7.022  27.659  14.229
23657W        W94257  37.276  34.072   2.216
23658W        W94258  20.054  36.633   0.918
23659W        W94259  34.987   8.796   1.636
23660W        W94260   5.417  29.172  13.857
23661W        W94261  34.070  24.617  12.032
23662W        W94262  37.775  34.543  11.600
23663W        W94263  28.693   7.348   3.363
23664W        W94264  17.652   3.479   1.809
23665W        W94265  27.215  28.712   3.685
23666W        W94266  40.209  22.725  13.392
23667W        W94267  12.400  43.269  13.589
23668W        W94268   8.149  22.458  14.369
23669W        W94269   5.856  39.591  14.437
23670W        W94270   6.009  13.843  11.116
23671W        W94271   3.074   7.012   9.915
23672W        W94272  10.278  31.460   1.997
23673W        W94273  43.370  25.303   4.177
23674W        W94274  28.427   1.493   3.515
23675W        W94275  37.009  39.976  14.257
23676W        W94276  35.826   3.306  13.543
23677W        W94277   7.969  42.038  14.645
23678W        W94278  19.764   1.848  13.841
23679W        W94279  34.055  22.231  13.975
23680W        W94280   4.242   7.883  13.904
23681W        W94281  36.612  24.567   1.972
23682W        W94282  18.081  11.406   3.771
23683W        W94283  11.255   7.264   2.335
23684W        W94284   8.293   3.706  12.400
23685W        W94285  10.917  14.853   2.749
23686W        W94286  20.595  38.147  13.017
23687W        W94287  23.059  33.531  13.552
23688W        W94288  29.960  14.836   4.449
23689W        W94289  32.472  15.626   0.323
23690W        W94290  29.360  35.979   1.498
23691W        W94291  23.059  32.522  14.754
23692W        W94292  40.189   0.215  14.889
23693W        W94293  28.356  11.568  14.428
23694W        W94294   7.702  40.816   0.647
23695W        W94295  32.502   7.125  14.321
23696W        W94296  23.739  38.942   4.098
23697W        W94297  24.232  31.923  13.542
23698W        W94298   5.739  25.236   4.452
23699W        W94299  24.342  24.984  12.167
23700W        W94300  33.453  24.040   2.657
23701W        W94301  10.623  29.640   1.917
23702W        W94302   0.714  43.785   3.572
23703W        W94303  39.233   0.373   3.237
23704W        W94304  32.074  35.510   3.233
23705W        W94305  40.141  37.637   2.796
23706W        W94306  27.190  30.936   0.074
23707W        W94307  16.374  20.228   0.361
23708W        W94308  20.611  35.316   1.879
23709W        W94309   6.454  36.842   0.339
23710W        W94310  43.562  20.184  11.159
23711W        W94311   9.826   2.848   2.302
23712W        W94312  43.880  24.155   1.840
23713W        W94313  22.131  12.598   3.194
23714W        W94314  38.757  10.815   2.174
23715W        W94315  25.518   2.544  10.989
23716W        W94316  44.239  15.269   0.385
23717W        W94317  24.704  41.461   0.752
23718W        W94318  15.790   3.412  10.029
23719W        W94319   9.306  18.059   1.892
23720W        W94320  40.348  11.068  14.479
23721W        W94321   2.369  31.173  10.958
23722W        W94322   6.894  31.824  12.098
23723W        W94323  29.213  13.076   3.263
23724W        W94324  15.250  40.109  10.748
23725W        W94325  22.673  35.425  10.490
23726W        W94326  42.821  40.361   4.502
23727W        W94327   2.786  18.763   1.222
23728W        W94328  34.066  28.212  11.125
23729W        W94329  23.162   6.154   2.879
23730W        W94330  36.059   5.114   4.672
23731W        W94331  39.060  14.715  10.876
23732W        W94332  20.631  42.459  10.589
23733W        W94333  20.723  42.494  11.082
23734W        W94334   2.246  29.984  12.971
23735W        W94335   4.984  38.584  13.420
23736W        W94336  22.786  33.578  12.624
23737W        W94337  37.848  14.769  13.473
23738W        W94338   8.546   5.920   2.791
23739W        W94339   1.365  14.043   2.824
23740W        W94340  28.593  12.540  12.975
23741W        W94341  27.600   1.481  13.086
23742W        W94342  44.520  15.697  12.860
23743W        W94343  11.380  39.585   3.689
23744W        W94344  16.207  23.170   3.940
23745W        W94345  44.850  23.084   1.877
23746W        W94346  23.297   0.186   1.848
23747W        W94347   7.818  41.260   0.887
23748W        W94348  10.169  43.472   1.790
23749W        W94349  40.520  35.546   1.664
23750W        W94350  21.674  44.356   1.719
23751W        W94351  30.154   8.916   0.364
23752W        W94352  38.071   7.600   1.894
23753W        W94353  11.480  26.664  14.496
23754W        W94354  35.523   5.285  10.706
23755W        W94355  37.637  15.003   4.190
23756W        W94356  31.400   7.726   3.721
23757W        W94357  11.257  11.640   2.601
23758W        W94358  11.746  43.002  14.801
23759W        W94359  39.528   3.731   2.127
23760W        W94360  34.115  35.566  14.436
23761W        W94361  38.290  34.144  12.628
23762W        W94362  32.940  24.232  11.560
23763W        W94363  42.441  38.328  11.067
23764W        W94364  41.102  42.693  13.001
23765W        W94365  44.204  22.257  14.336
23766W        W94366   9.164   3.825   3.722
23767W        W94367   0.358   7.346   3.735
23768W        W94368  42.562   7.240  13.743
23769W        W94369  39.839   2.573   3.752
23770W        W94370  11.279  10.301  14.319
23771W        W94371  20.625  41.281  11.624
23772W        W94372  24.747  16.860   1.894
23773W        W94373  37.409  31.053  12.824
23774W        W94374  21.841   6.974   4.179
23775W        W94375  37.021  34.019   0.742
23776W        W94376  42.393  11.431   0.814
23777W        W94377   3.787  26.456   4.970
23778W        W94378  16.268  36.384  14.272
23779W        W94379  43.097   9.237  14.792
23780W        W94380  41.957  27.415  13.432
23781W        W94381  17.193  42.234   0.301
23782W        W94382  44.747  25.028  10.473
23783W        W94383   5.458  34.960   4.520
23784W        W94384  43.560   4.431   4.644
23785W        W94385   3.639  23.295   3.106
23786W        W94386  40.374  14.244   4.222
23787W        W94387   1.832  18.815   1.140
23788W        W94388   5.710   5.310   3.310
23789W        W94389  41.310   3.921  14.403
23790W        W94390  14.302  25.054   2.178
23791W        W94391   2.140  26.097  13.019
23792W        W94392  24.409   8.755  12.403
23793W        W94393   2.868  13.086   4.583
23794W        W94394  32.234   3.311  10.544
23795W        W94395  27.893   6.825   4.897
23796W        W94396  30.436  25.013  13.925
23797W        W94397  23.604  32.699   2.294
23798W        W94398  22.365  24.586  10.418
23799W        W94399  44.647   2.683   1.002
23800W        W94400  30.750  34.948  10.844
23801W        W94401   1.515   7.196  11.272
23802W        W94402  40.027  29.478   2.978
23803W        W94403  19.097  15.989  13.265
23804W        W94404  22.985  14.360  14.881
23805W        W94405  25.603  15.732   2.752
23806W        W94406  28.697  20.449   3.914
23807W        W94407  10.383  44.805   2.253
23808W        W94408  37.713  37.302  12.078
23809W        W94409  14.080   8.475  12.181
23810W        W94410   9.610   8.518  12.666
23811W        W94411  23.761  32.021   0.850
23812W        W94412  26.302   4.730  11.790
23813W        W94413  29.998  17.982  13.366
23814W        W94414   2.776  25.387   0.429
23815W        W94415  38.113   8.807   3.345
23816W        W94416  39.602   9.907   3.927
23817W        W94417  17.022   1.760  12.555
23818W        W94418  41.304  14.696  14.876
23819W        W94419  41.015  27.003  12.908
23820W        W94420  37.900  40.093  13.382
23821W        W94421  34.365   4.053   2.591
23822W        W94422  44.070  16.089  13.453
23823W        W94423   2.726  21.083  10.789
23824W        W94424  28.606  19.212   3.241
23825W        W94425  19.018  35.563  12.213
23826W        W94426  14.496  43.048   1.299
23827W        W94427  12.953  43.665   9.687
23828W        W94428  24.640   0.235  13.879
23829W        W94429  44.973   0.763  14.515
23830W        W94430  44.010  14.482   3.328
23831W        W94431  34.221  22.409  11.207
23832W        W94432  24.502   9.488   4.091
23833W        W94433  22.087  32.340   0.263
23834W        W94434  20.640   4.165  11.840
23835W        W94435   5.869   8.328  12.720
23836W        W94436  33.101  24.509  13.499
23837W        W94437  25.462  22.678  13.883
23838W        W94438   5.609  36.288  13.930
23839W        W94439  32.549   8.451   3.367
23840W        W94440  13.617   1.769   4.448
23841W        W94441  16.123  21.253  13.337
23842W        W94442   9.255  30.674  12.531
23843W        W94443  17.086  17.389  12.092
23844W        W94444  19.465  27.071  13.008
23845W        W94445  27.979  40.440   5.077
23846W        W94446  26.891  33.687  14.483
23847W        W94447   3.391   4.890   3.049
23848W        W94448  44.255   1.164  12.662
23849W        W94449  34.305  24.956  14.518
23850W        W94450  22.757  16.853  11.092
23851W        W94451  40.970  23.531  12.838
23852W        W94452  29.007  35.617  10.911
23853W        W94453  40.081   8.730  14.437
23854W        W94454  16.348  30.194   3.379
23855W        W94455  32.464  23.874  10.680
23856W        W94456   7.096  21.113  12.907
23857W        W94457  11.526  40.294   3.615
23858W        W94458  44.311  42.023  11.807
23859W        W94459   5.873  13.592   2.839
23860W        W94460   7.681  11.239  13.425
23861W        W94461   6.304  44.233  12.569
23862W        W94462  37.388  33.079  14.801
23863W        W94463  35.279   0.502   1.951
23864W        W94464  10.282   8.209   2.336
23865W        W94465   9.299   2.364   4.575
23866W        W94466  22.661  24.505   3.730
23867W        W94467  22.773  10.866   4.191
23868W        W94468  31.150  18.322   2.357
23869W        W94469  10.576   9.738   0.289
23870W        W94470   6.356   9.725  11.127
23871W        W94471   3.182  15.216  12.918
23872W        W94472  24.520   2.309  11.882
23873W        W94473  38.365   6.628   2.274
23874W        W94474  15.751  25.894   0.447
23875W        W94475  28.119  14.750  10.346
23876W        W94476  19.124   9.623   1.447
23877W        W94477  12.221  25.056  14.776
23878W        W94478   0.002  18.867  11.109
23879W        W94479  18.473   3.506  14.394
23880W        W94480  44.177   9.788  10.318
23881W        W94481  15.265  23.686  11.947
23882W        W94482  14.880  28.282  12.914
23883W        W94483  20.257   1.411   3.118
23884W        W94484  20.299  13.436   3.625
23885W        W94485   2.234  22.198  11.223
23886W        W94486  10.559  39.904  14.302
23887W        W94487  40.392   1.474   2.708
23888W        W94488  31.129  15.160   0.422
23889W        W94489  13.198   4.357   2.326
23890W        W94490  42.407   3.405  12.945
23891W        W94491  42.296  39.825  12.834
23892W        W94492  41.363   8.764   2.611
23893W        W94493  33.844  10.205  11.586
23894W        W94494  25.472   1.219  14.022
23895W        W94495  41.810   4.249   3.331
23896W        W94496   8.148   6.266  10.905
23897W        W94497   4.862   4.852  14.306
23898W        W94498  12.340  37.024   4.881
23899W        W94499  27.968  32.358   1.853
23900W        W94500  10.395  10.882  14.776
23901W        W94501  24.117  15.368   2.446
23902W        W94502  27.138  28.131  13.807
23903W        W94503   1.288  10.643   2.708
23904W        W94504  31.946   7.929  12.516
23905W        W94505  37.545   3.866  11.596
23906W        W94506  14.138  10.930  14.340
23907W        W94507  31.989  19.451  12.618
23908W        W94508  16.840  16.977  10.537
23909W        W94509  10.794  18.647  14.489
23910W        W94510  36.328  36.481  11.673
23911W        W94511  27.661  36.348  14.750
23912W        W94512   7.916  42.699  11.635
23913W        W94513  26.111  10.733   1.991
23914W        W94514   9.318  21.937  14.284
23915W        W94515   2.272  44.087  12.561
23916W        W94516  11.747   6.944  14.547
23917W        W94517  27.526   6.134  13.412
23918W        W94518   3.397   8.937  10.435
23919W        W94519   5.173  22.854  13.928
23920W        W94520  35.066  42.653   1.758
23921W        W94521   6.927   3.280  14.473
23922W        W94522  28.126   0.289  10.769
23923W        W94523  26.960   8.678   2.096
23924W        W94524   1.539  13.654  11.660
23925W        W94525   2.579  18.385  11.959
23926W        W94526  34.008  10.751   3.488
23927W        W94527  15.138   0.441  13.870
23928W        W94528  15.836  12.945   1.312
23929W        W94529  37.947  22.539   1.293
23930W        W94530  30.381  33.122   2.377
23931W        W94531   9.806  26.927  14.314
23932W        W94532  33.692  27.158  13.290
23933W        W94533   9.311   6.627   2.338
23934W        W94534  20.091  16.233   4.305
23935W        W94535   3.954  28.514   1.115
23936W        W94536  40.658  40.595  12.908
23937W        W94537  37.451  32.612   2.708
23938W        W94538  16.290   0.891  11.432
23939W        W94539  28.695  18.607   1.179
23940W        W94540   7.398  23.255   1.910
23941W        W94541  29.370  30.143  14.857
23942W        W94542  37.250  13.602  14.882
23943W        W94543  37.883  18.450  11.050
23944W        W94544   0.797  21.152   9.799
23945W        W94545   8.618   5.801  14.235
23946W        W94546  12.049  38.495   2.615
23947W        W94547  44.958  10.191   4.633
23948W        W94548  36.549  38.837   4.144
23949W        W94549  15.730  43.079   2.053
23950W        W94550  39.102   9.825  13.391
23951W        W94551   5.307  36.133   0.157
23952W        W94552   9.869  30.272   2.331
23953W        W94553   5.673  33.854  14.522
23954W        W94554  12.842  12.574  10.633
23955W        W94555  34.026  11.914  13.903
23956W        W94556  28.707  43.775   0.654
23957W        W94557  14.109   5.159  10.353
23958W        W94558  15.843  43.482  13.907
23959W        W94559  20.328   4.955  11.665
23960W        W94560  42.763  17.079  14.842
23961W        W94561   2.293  37.785   5.009
23962W        W94562  19.316  14.258   4.310
23963W        W94563  32.329  12.952   5.026
23964W        W94564   7.833  41.003  11.961
23965W        W94565  37.998  37.315  11.443
23966W        W94566  25.930  18.138   0.244
23967W        W94567  21.589  10.531   0.177
23968W        W94568   9.828  14.183  11.708
23969W        W94569  36.076  20.544  14.710
23970W        W94570  32.419   3.629  12.561
23971W        W94571  36.933  15.153  11.871
23972W        W94572   4.904   1.921  11.797
23973W        W94573  37.977  27.623  11.132
23974W        W94574  20.473   2.736  12.037
23975W        W94575  29.555   2.257  10.796
23976W        W94576  43.405  38.953   4.633
23977W        W94577   2.795  16.570  14.484
23978W        W94578  44.427  39.803   2.625
23979W        W94579  40.310  41.541  12.336
23980W        W94580  16.287  10.809   2.342
23981W        W94581   4.856  15.488   0.992
23982W        W94582  11.779  37.866  11.374
23983W        W94583  16.100  16.462  10.423
23984W        W94584  38.041  40.562   2.717
23985W        W94585  33.682  38.056  11.561
23986W        W94586  21.269  34.022  14.800
23987W        W94587  40.463  36.687  12.961
23988W        W94588  31.161  25.699  12.984
23989W        W94589  39.488  15.136  11.949
23990W        W94590  37.024  29.858   3.845
23991W        W94591   7.484  36.893  11.614
23992W        W94592  34.351  34.878   4.455
23993W        W94593  32.472   4.612   0.873
23994W        W94594  32.961  15.774  13.198
23995W        W94595  16.703  15.913   4.487
23996W        W94596  27.201   4.654  14.476
23997W        W94597  32.646  18.462  12.666
23998W        W94598   9.398   1.643   0.438
23999W        W94599  25.462  34.992  12.360
24000W        W94600   0.926  27.020  14.828
24001W        W94601  34.935   0.748   4.041
24002W        W94602  43.795   7.116   1.816
24003W        W94603  15.340   3.600  12.448
24004W        W94604  13.391   5.372   2.316
24005W        W94605  29.138  41.604  12.078
24006W        W94606   9.354   5.079   4.593
24007W        W94607  18.910  13.940   0.863
24008W        W94608   6.160  22.679  13.881
24009W        W94609  21.154  30.646   4.578
24010W        W94610   4.853  31.622  12.808
24011W        W94611   5.900  20.348   2.335
24012W        W94612  27.551  26.449   3.935
24013W        W94613   9.368  23.070  12.677
24014W        W94614  26.085   5.946  12.934
24015W        W94615  12.092  39.551   4.659
24016W        W94616   4.460  27.779   1.427
24017W        W94617   8.874  27.944  13.492
24018W        W94618   9.591  24.638  13.001
24019W        W94619  36.931  25.507  14.813
24020W        W94620  12.954  12.512   1.232
24021W        W94621   5.981  33.389   4.735
24022W        W94622  25.582   7.101  10.720
24023W        W94623  42.985   2.640  14.936
24024W        W94624   4.216  15.415  13.819
24025W        W94625  35.344  19.255  12.814
24026W        W94626  25.341  13.317   5.198
24027W        W94627  30.030  12.679   2.311
24028W        W94628  11.391  23.229  14.434
24029W        W94629  34.686  36.378  13.618
24030W        W94630   0.988  24.621  12.110
24031W        W94631  11.926  30.088   0.408
24032W        W94632   4.846  10.655  12.792
24033W        W94633   4.481  41.533   1.340
24034W        W94634  40.732  29.579  11.519
24035W        W94635   2.984  44.308  10.770
24036W        W94636  12.520   4.460   4.096
24037W        W94637  29.659   7.224  12.071
24038W        W94638  34.564  13.927  11.036
24039W        W94639  19.765  23.610   2.672
24040W        W94640  21.939  42.195   1.933
24041W        W94641  39.387   7.595  10.663
24042W        W94642  15.478   5.923   3.731
24043W        W94643  24.723   5.383  13.092
24044W        W94644   9.989  16.843  14.018
24045W        W94645  18.699  38.597  12.117
24046W        W94646  42.079   8.252   4.760
24047W        W94647  32.396  18.638   1.162
24048W        W94648  38.603  31.930   2.656
24049W        W94649  15.707   6.274  14.879
24050W        W94650  15.519  21.308   3.172
24051W        W94651  12.195  22.140   3.738
24052W        W94652   5.899  24.800  13.013
24053W        W94653  10.863   4.794  10.038
24054W        W94654   6.320   7.547   3.036
24055W        W94655  34.924   1.461  14.447
24056W        W94656   8.126   7.282   1.412
24057W        W94657  32.968  15.188  11.628
24058W        W94658  37.807   3.503   5.276
24059W        W94659  35.525  34.074   0.407
24060W        W94660  20.048  15.212   2.845
24061W        W94661   2.827  25.209  10.732
24062W        W94662  30.981  32.535   0.677
24063W        W94663  41.895  32.828  11.141
24064W        W94664  33.718  16.880   4.796
24065W        W94665   2.788   6.232   2.292
24066W        W94666  10.382  26.962   1.467
24067W        W94667   7.520  44.109   3.943
24068W        W94668  30.460  15.036  14.451
24069W        W94669  33.160  27.163   2.947
24070W        W94670  30.068   4.965   1.299
24071W        W94671  22.068  39.444   4.572
24072W        W94672  36.753   2.562   1.385
24073W        W94673  24.041  31.589   0.819
24074W        W94674  17.674  32.195  13.032
24075W        W94675  15.830  12.321  13.516
24076W        W94676  20.475  25.489   2.624
24077W        W94677  33.017  28.017  11.536
24078W        W94678  37.023  18.126  12.449
24079W        W94679  43.890  14.426   1.874
24080W        W94680  42.829  16.289   2.197
24081W        W94681  31.962  35.449  11.099
24082W        W94682  41.845  16.158   2.792
24083W        W94683  36.040  26.796  10.749
24084W        W94684   2.818  43.258  13.503
24085W        W94685   8.307  13.227   3.238
24086W        W94686  39.713  29.228   3.761
24087W        W94687  19.808  22.022  12.841
24088W        W94688   3.576   6.194  14.988
24089W        W94689   9.181  33.195   4.894
24090W        W94690  41.242  19.098   4.111
24091W        W94691   3.451  44.957   2.341
24092W        W94692  34.663   8.900  14.762
24093W        W94693  44.940  28.503   3.702
24094W        W94694   8.007  12.108  12.076
24095W        W94695  40.607  38.507   0.311
24096W        W94696  10.174  14.705   1.936
24097W        W94697   3.208  20.058   1.354
24098W        W94698  20.176   6.257  11.146
24099W        W94699  32.578   2.353   2.615
24100W        W94700  14.351  38.959  12.877
24101W        W94701   0.838  15.311  11.113
24102W        W94702  34.327  35.501  14.919
24103W        W94703  20.995   3.556  12.397
24104W        W94704  12.846   7.248   3.168
24105W        W94705  31.069   1.256  11.551
24106W        W94706  17.664  12.356  14.748
24107W        W94707  39.631  26.068   0.006
24108W        W94708   5.697   1.615  10.756
24109W        W94709  30.980   2.811  10.901
24110W        W94710  35.492  24.396   0.262
24111W        W94711   7.331   9.056   5.003
24112W        W94712  40.969  15.663   1.380
24113W        W94713  25.114  12.150   0.967
24114W        W94714  18.580  21.547   2.752
24115W        W94715  15.074  35.528  12.500
24116W        W94716   8.282  16.005   2.918
24117W        W94717  36.940  32.493   2.629
24118W        W94718  13.283  11.262   3.416
24119W        W94719   8.755   8.436   1.194
24120W        W94720  26.637  20.541   3.668
24121W        W94721  39.342   9.434   3.868
24122W        W94722   7.677  27.717   2.753
24123W        W94723  20.023  43.463   1.678
24124W        W94724  23.994  30.342   3.097
24125W        W94725  17.605  17.401   0.828
24126W        W94726  37.658  34.093  11.922
24127W        W94727  27.487  24.098  12.892
24128W        W94728  19.174  13.260   4.149
24129W        W94729  17.740  17.571   4.084
24130W        W94730  39.359  39.049  13.029
24131W        W94731  16.076  43.009  14.808
24132W        W94732   6.151   1.455  12.524
24133W        W94733  20.618  31.025  10.957
24134W        W94734  12.089  19.696  14.527
24135W        W94735  18.172   1.964  14.818
24136W        W94736  10.265  15.131   0.723
24137W        W94737  31.901  41.468   2.783
24138W        W94738  33.794  30.975  12.926
24139W        W94739  14.757   7.468   0.846
24140W        W94740   2.682  25.229   3.751
24141W        W94741  23.609   6.734   3.738
24142W        W94742  39.106  39.473   2.253
24143W        W94743  26.202  24.003  14.062
24144W        W94744  22.228   7.681  12.487
24145W        W94745  15.771  21.448  10.622
24146W        W94746   6.716  23.298   2.132
24147W        W94747   5.939  13.937   3.244
24148W        W94748  25.917  43.840   4.572
24149W        W94749   1.080   8.940   2.609
24150W        W94750  29.180   0.536   4.907
24151W        W94751   7.592  34.147  11.679
24152W        W94752  17.693  23.973  11.646
24153W        W94753  44.020  12.181   4.085
24154W        W94754  11.871  17.779   2.543
24155W        W94755  32.407   8.754  12.783
24156W        W94756   5.474  15.215   2.646
24157W        W94757  36.119   4.359  11.579
24158W        W94758  24.572  18.248   4.644
24159W        W94759  24.657  36.528   1.101
24160W        W94760  38.440  40.995  12.811
24161W        W94761  17.414  30.502  10.577
24162W        W94762  28.399  27.279   2.479
24163W        W94763  16.223  44.698   3.328
24164W        W94764  25.615  12.067   4.428
24165W        W94765  25.999  12.215  11.948
24166W        W94766  32.154  41.840   3.893
24167W        W94767  13.610  41.362  13.779
24168W        W94768   2.488  15.764   2.230
24169W        W94769  18.549  34.624  11.312
24170W        W94770  14.803   7.339  14.295
24171W        W94771  11.943  30.603  11.740
24172W        W94772  10.280   3.735   4.297
24173W        W94773  36.008  26.534   4.072
24174W        W94774  39.847  20.398  11.127
24175W        W94775  32.643  25.165   2.859
24176W        W94776  32.988  10.215   3.140
24177W        W94777  13.253  24.634   3.348
24178W        W94778  24.812  17.314  14.280
24179W        W94779  42.726  14.867   0.414
24180W        W94780  19.137  29.495   4.630
24181W        W94781   9.829  11.065   1.235
24182W        W94782   4.735  26.479  13.842
24183W        W94783   5.235  17.542  12.163
24184W        W94784  44.566  15.206  14.359
24185W        W94785  20.695  32.980   1.778
24186W        W94786  42.341  39.122  12.320
24187W        W94787  18.203  28.096  10.603
24188W        W94788  27.468  35.963   3.100
24189W        W94789  22.570  12.607  12.957
24190W        W94790   4.227  18.623  10.947
24191W        W94791  24.677  19.219   3.757
24192W        W94792  26.485  38.441   1.613
24193W        W94793  21.580  28.150   3.654
24194W        W94794  21.233  41.128  13.249
24195W        W94795  23.970  43.695   5.013
24196W        W94796  39.606   7.264  12.956
24197W        W94797   2.446  11.173   2.625
24198W        W94798  13.099   4.866   1.830
24199W        W94799  10.145   4.808  12.720
24200W        W94800  15.861  35.736  12.130
24201W        W94801  24.097  20.635   4.695
24202W        W94802  16.708   0.016   4.174
24203W        W94803  11.883  29.521   3.184
24204W        W94804  18.470  31.440  12.111
24205W        W94805  23.549  33.237  11.518
24206W        W94806  33.042  17.256  12.608
24207W        W94807  20.032   2.768  14.823
24208W        W94808   4.159  30.462   1.790
24209W        W94809  28.775  27.849  11.095
24210W        W94810   6.504  43.734  12.848
24211W        W94811  21.156   8.130   1.651
24212W        W94812  24.107  35.998   4.005
24213W        W94813  31.466  14.731   2.643
24214W        W94814  43.549  25.320  12.597
24215W        W94815  39.013  25.820   0.298
24216W        W94816  35.693  28.486  10.505
24217W        W94817  39.771   0.494   1.288
24218W        W94818   5.168  31.565   0.033
24219W        W94819   7.052   7.800   4.584
24220W        W94820   6.588   2.673  13.457
24221W        W94821  26.654  33.626  14.973
24222W        W94822  26.169  22.825  14.809
24223W        W94823  10.814  42.796   0.366
24224W        W94824  41.717  34.171  12.897
24225W        W94825  25.283   3.414   4.521
24226W        W94826  43.051  14.616   0.740
24227W        W94827  13.052   1.400  14.894
24228W        W94828  34.331   5.280   3.250
24229W        W94829  28.078  14.431  10.750
24230W        W94830  24.156  34.175   3.163
24231W        W94831  32.495  26.266   1.633
24232W        W94832  23.625  17.959   0.793
24233W        W94833   4.916  18.619   1.776
24234W        W94834  15.716  30.625  11.921
24235W        W94835  36.244  15.369   0.881
24236W        W94836   8.229   7.909   1.883
24237W        W94837  40.912   4.749  11.942
24238W        W94838  12.139   0.530   2.277
24239W        W94839  29.955  21.985   3.504
24240W        W94840   5.779   3.754   0.166
24241W        W94841  37.849   7.613   3.712
24242W        W94842  38.388   7.373   0.751
24243W        W94843  14.846  43.389  11.755
24244W        W94844  43.578   3.435  12.446
24245W        W94845  26.643  37.891   0.237
24246W        W94846  32.088  35.167  14.061
24247W        W94847  14.326  15.871   1.531
24248W        W94848  26.150  23.721   3.158
24249W        W94849  18.132   7.274  10.468
24250W        W94850  16.180  22.727  14.828
24251W        W94851  17.204  37.621   4.560
24252W        W94852  39.781  42.909  14.271
24253W        W94853  15.289   3.677   1.808
24254W        W94854   8.261  27.010  11.961
24255W        W94855   3.716  29.513  13.596
24256W        W94856  25.060  10.199  13.461
24257W        W94857  24.986  31.826   1.369
24258W        W94858   9.305  30.625   3.198
24259W        W94859  15.342  18.365   4.093
24260W        W94860  14.495   2.936  11.565
24261W        W94861  43.788  24.179   3.594
24262W        W94862  20.342  44.172   4.423
24263W        W94863  31.885  34.721   2.730
24264W        W94864  18.201  13.049  14.338
24265W        W94865  25.951  40.910   0.440
24266W        W94866  28.874  43.290   2.608
24267W        W94867  42.042  38.618  14.029
24268W        W94868  35.934  44.008   2.836
24269W        W94869  11.560  24.269   4.958
24270W        W94870   7.452  26.552   3.798
24271W        W94871   2.489   5.635   3.817
24272W        W94872  22.261  38.263   0.565
24273W        W94873  39.013   9.050  13.701
24274W        W94874  25.679  31.589   3.615
24275W        W94875  32.339   8.898   4.631
24276W        W94876  11.060  36.694  14.845
24277W        W94877  12.931  30.613  14.600
24278W        W94878  36.641   3.197  13.051
24279W        W94879  43.722   3.193  13.475
24280W        W94880  26.810  22.087  14.602
24281W        W94881   4.460   3.857   3.272
24282W        W94882  40.617  31.140  12.133
24283W        W94883  12.771  24.470  12.747
24284W        W94884  30.122  42.383  10.738
24285W        W94885  18.311  33.906   4.371
24286W        W94886  41.874  14.673  12.353
24287W        W94887  38.971  41.401   1.711
24288W        W94888  37.613  36.813  12.023
24289W        W94889   8.846  44.525   3.661
24290W        W94890  25.695  36.661  14.323
24291W        W94891  35.641  31.083  13.357
24292W        W94892   6.604  33.960   4.037
24293W        W94893  15.604  30.143  10.919
24294W        W94894  34.803  23.752  11.069
24295W        W94895  42.155   0.023  14.925
24296W        W94896  18.679  39.438   0.431
24297W        W94897  40.116  38.327   0.282
24298W        W94898  14.362  43.529   0.429
24299W        W94899  34.753  26.559  10.667
24300W        W94900   0.004  28.886  13.931
24301W        W94901  22.909  35.711   5.163
24302W        W94902   8.407  33.609   1.192
24303W        W94903  13.374   7.844   0.042
24304W        W94904  21.621  34.240   4.587
24305W        W94905  22.275   9.618  14.911
24306W        W94906  24.835  12.365  11.509
24307W        W94907  28.003  17.858   2.893
24308W        W94908  23.648  36.425  10.705
24309W        W94909  42.470  35.897  10.632
24310W        W94910  44.917  33.476  13.004
24311W        W94911  31.916  30.430  13.641
24312W        W94912   5.358  27.714  11.074
24313W        W94913  18.260  20.542  13.879
24314W        W94914  18.087   8.789  10.305
24315W        W94915  40.290  16.149   4.060
24316W        W94916  43.331  30.642  13.577
24317W        W94917  37.450  26.037  11.723
24318W        W94918  38.945  41.434  10.838
24319W        W94919  28.124  14.504   5.227
24320W        W94920  39.243  36.286  12.566
24321W        W94921  22.998  10.705   0.318
24322W        W94922  37.133  31.172   4.147
24323W        W94923   0.955  18.740   1.359
24324W        W94924   8.983  30.533  14.184
24325W        W94925  29.805  40.397   1.763
24326W        W94926   4.210  32.847  14.272
24327W        W94927  40.565  39.350   2.325
24328W        W94928   6.733  16.336   2.308
24329W        W94929  19.113  30.484  13.912
24330W        W94930  14.249   4.117  11.096
24331W        W94931  34.929  22.227  14.996
24332W        W94932  33.934  14.104   1.010
24333W        W94933  43.860  30.563  13.608
24334W        W94934   1.931   4.711   3.624
24335W        W94935  30.187  29.168   3.252
24336W        W94936   2.649  24.711   3.748
24337W        W94937  38.322   7.953  13.061
24338W        W94938   3.159   8.319   4.156
24339W        W94939   0.875  30.694   4.600
24340W        W94940  44.306  14.094   2.632
24341W        W94941  28.543  40.776   1.430
24342W        W94942  41.968  11.657  13.846
24343W        W94943  37.959   6.665   0.811
24344W        W94944  31.421  15.906  12.523
24345W        W94945   5.690  10.300   0.759
24346W        W94946  21.254  16.383  11.624
24347W        W94947   3.999  14.742   3.907
24348W        W94948  17.118  30.309   1.371
24349W        W94949  21.284  27.583   4.519
24350W        W94950  28.577  22.264  11.397
24351W        W94951  10.618  23.491   3.325
24352W        W94952  19.698   8.702   3.125
24353W        W94953   8.791   3.452   0.005
24354W        W94954  14.380  22.120  13.064
24355W        W94955   2.473  22.720  12.928
24356W        W94956   6.078  32.043  13.468
24357W        W94957   4.836  21.272   2.189
24358W        W94958  11.781   0.524   4.084
24359W        W94959  11.516  26.883   1.756
24360W        W94960  20.264  43.324   4.239
24361W        W94961  36.595   4.665   0.850
24362W        W94962  21.042  29.933   2.497
24363W        W94963   0.239  13.913  12.040
24364W        W94964  16.437  15.768   2.383
24365W        W94965  36.402  19.272  13.485
24366W        W94966  32.245  12.966  10.274
24367W        W94967   8.946   8.343  13.122
24368W        W94968  32.474   9.487  10.724
24369W        W94969  43.072  19.289   2.271
24370W        W94970  44.809  18.692  12.143
24371W        W94971  10.612  21.777   2.803
24372W        W94972  21.360   6.705  11.778
24373W        W94973  18.760  21.419   3.239
24374W        W94974  11.192  25.822  14.696
24375W        W94975  42.010  10.278  10.621
24376W        W94976  25.145   4.812   3.292
24377W        W94977   0.026  34.496   4.282
24378W        W94978  44.544  43.553   5.113
24379W        W94979   5.497  31.626   1.469
24380W        W94980  12.420  24.594   2.397
24381W        W94981  35.928  42.742  13.448
24382W        W94982  38.095  20.624   3.776
24383W        W94983  17.058  26.006  14.919
24384W        W94984  14.628   4.801  13.078
24385W        W94985  25.904   2.365   2.883
24386W        W94986  13.306  24.411   3.824
24387W        W94987  22.868   1.025   4.923
24388W        W94988  18.459   3.603   9.746
24389W        W94989  36.960  43.532   2.786
24390W        W94990  20.626  14.816  10.787
24391W        W94991  44.305  11.194  13.322
24392W        W94992  21.519  18.733   4.723
24393W        W94993  34.108   5.112   2.793
24394W        W94994   5.243   5.407  13.026
24395W        W94995  16.447  19.428   2.719
24396W        W94996  40.806  27.063  10.911
24397W        W94997  35.045  18.727  12.502
24398W        W94998  36.434  37.339   2.389
24399W        W94999  37.416  13.374   1.187
24400W        W95000  27.456  36.635   2.505
24401W        W95001  13.294   8.413  12.765
24402W        W95002  24.002  21.525  13.088
24403W        W95003   6.445  30.695  12.811
24404W        W95004  25.691  17.271  13.878
24405W        W95005  28.554  12.866  13.393
24406W        W95006  35.011  18.029  14.313
24407W        W95007  35.039  19.285  11.474
24408W        W95008  18.076  27.398  14.309
24409W        W95009  34.421  13.035  11.993
24410W        W95010  18.655   2.877  12.606
24411W        W95011   5.647  43.368   3.524
24412W        W95012  29.913  31.626  13.476
24413W        W95013  22.754  23.930  11.587
24414W        W95014   7.813  35.009  13.042
24415W        W95015  40.253  10.536   1.467
24416W        W95016   2.884  20.674  14.444
24417W        W95017  11.961   7.173   2.961
24418W        W95018  35.146  15.144  10.731
24419W        W95019  30.552  24.509  13.876
24420W        W95020  37.375  11.202   4.139
24421W        W95021  19.638  15.668  12.610
24422W        W95022  20.764  43.510  12.859
24423W        W95023  40.344  42.968   0.791
24424W        W95024  39.645   8.257   1.516
24425W        W95025  35.999   5.704   0.353
24426W        W95026  35.319  32.941  13.491
24427W        W95027  37.155   5.756  11.382
24428W        W95028  35.175   2.759   4.654
24429W        W95029  39.012   9.084  14.901
24430W        W95030  44.463  33.956  11.205
24431W        W95031  31.238  38.736  12.435
24432W        W95032   3.739  17.725  13.110
24433W        W95033  43.024  43.713   4.068
24434W        W95034   1.849  18.558  10.948
24435W        W95035  25.685  38.097  12.472
24436W        W95036   9.790  24.577  13.555
24437W        W95037   2.080  32.375   2.215
24438W        W95038  26.071  14.607  14.883
24439W        W95039  26.003  34.300   3.773
24440W        W95040  20.599  42.490   3.824
24441W        W95041  12.721  36.191   0.598
24442W        W95042  37.929  42.520  13.435
24443W        W95043  15.103  36.159   3.629
24444W        W95044  34.554  27.839  11.633
24445W        W95045  31.605  29.013   2.369
24446W        W95046  42.839  27.081  14.196
24447W        W95047  35.461  36.849  12.043
24448W        W95048  38.024  31.570  11.236
24449W        W95049   1.620  43.088  13.759
24450W        W95050  10.923   9.372   2.281
24451W        W95051  21.655   0.772   4.858
24452W        W95052  30.288  32.990   1.400
24453W        W95053  13.294  32.831   4.221
24454W        W95054  15.523  17.231   4.947
24455W        W95055  14.102  37.370   2.232
24456W        W95056  30.871  26.760   0.271
24457W        W95057  40.241   6.752  12.110
24458W        W95058   9.895  38.319  11.470
24459W        W95059  39.909  37.626  12.969
24460W        W95060  25.293   8.792  12.286
24461W        W95061  34.659  25.096  13.541
24462W        W95062   7.075  43.364   2.459
24463W        W95063  31.561  24.836   1.141
24464W        W95064  22.065  23.734  11.961
24465W        W95065  19.826  39.698   3.146
24466W        W95066  14.761  16.174  14.400
24467W        W95067  13.839  19.809   4.778
24468W        W95068   2.399  35.724  11.139
24469W        W95069  42.686   0.963   0.886
24470W        W95070  28.378  34.310   2.065
24471W        W95071   3.232  10.155   2.254
24472W        W95072   3.442  19.681  13.977
24473W        W95073  16.863  21.819  13.877
24474W        W95074  25.535  31.419  11.439
24475W        W95075  42.790  42.311   0.056
24476W        W95076   9.141  11.308   2.770
24477W        W95077   8.817  22.519  10.576
24478W        W95078   8.642  38.536  14.959
24479W        W95079   4.378  33.310  13.875
24480W        W95080  23.505   6.830  12.988
24481W        W95081  40.591   3.447  12.949
24482W        W95082  16.107  17.708   1.738
24483W        W95083  30.222  12.742   1.801
24484W        W95084  38.340  23.470  13.385
24485W        W95085  13.711   9.254  10.909
24486W        W95086  20.726  17.586  12.209
24487W        W95087  11.015  15.588   2.258
24488W        W95088  38.780  43.638   2.881
24489W        W95089  28.665  13.261  11.108
24490W        W95090   9.417  34.382  11.187
24491W        W95091  25.715  24.469  11.267
24492W        W95092  35.587  36.777   2.794
24493W        W95093  32.948  30.950   3.351
24494W        W95094   0.843  17.272  14.201
24495W        W95095  16.748  10.364   3.709
24496W        W95096  35.018  13.783   3.832
24497W        W95097  37.776   0.211   1.718
24498W        W95098  30.695  22.419  14.557
24499W        W95099  31.583  42.311  12.994
24500W        W95100  20.654   8.859  12.463
24501W        W95101  36.352  18.754   4.974
24502W        W95102  31.075  12.692   4.146
24503W        W95103   3.878  14.195   4.636
24504W        W95104  12.194  30.487  11.279
24505W        W95105  11.622  38.941  11.542
24506W        W95106  20.214  28.770  11.958
24507W        W95107   2.720   7.210  12.155
24508W        W95108  26.612   5.918  12.370
24509W        W95109  41.585  10.797   2.908
24510W        W95110  15.856  27.448  12.512
24511W        W95111   1.010  28.074   0.447
24512W        W95112  41.474  35.169  11.042
24513W        W95113  13.653   6.744   4.615
24514W        W95114   1.262  17.984  11.396
24515W        W95115   2.026  37.647   2.881
24516W        W95116  35.541  19.036   4.737
24517W        W95117   8.018  15.208  11.503
24518W        W95118   1.914  30.950  14.565
24519W        W95119   7.147   0.591   1.325
24520W        W95120  40.839   5.177   3.235
24521W        W95121   8.188  37.392   0.926
24522W        W95122   1.712  27.272   1.406
24523W        W95123  37.007  13.924  14.051
24524W        W95124  12.952  36.542  13.801
24525W        W95125  37.690  37.130  14.836
24526W        W95126  22.394  29.496   4.238
24527W        W95127   2.404  44.909   3.197
24528W        W95128  42.927  39.565  13.812
24529W        W95129   4.794   3.735   2.770
24530W        W95130  11.329  15.748   3.864
24531W        W95131  41.247  35.579  12.976
24532W        W95132  21.317  24.021  10.865
24533W        W95133  27.720  32.592   4.649
24534W        W95134  43.816  20.161   5.421
24535W        W95135  39.731  36.405  11.677
24536W        W95136  17.565  27.305  13.863
24537W        W95137   6.256  40.474   0.244
24538W        W95138  38.138  29.614  11.934
24539W        W95139  36.849  25.470  11.143
24540W        W95140  13.661  41.084   2.782
24541W        W95141  17.004  13.011  13.971
24542W        W95142  44.865  37.452   1.453
24543W        W95143  13.197   9.164  14.833
24544W        W95144  43.219  22.464   1.304
24545W        W95145  19.321  25.477  11.644
24546W        W95146   5.350  29.939  13.499
24547W        W95147  18.050   1.334   2.862
24548W        W95148  28.853  20.530  14.871
24549W        W95149   8.415  40.371   0.909
24550W        W95150  37.877  16.767   3.243
24551W        W95151  32.220  11.731   3.290
24552W        W95152  25.308  39.018  12.664
24553W        W95153  39.802  40.322   2.676
24554W        W95154   3.562  10.243  13.421
24555W        W95155  15.070  29.064  10.625
24556W        W95156  19.798  27.542   4.562
24557W        W95157  42.373  13.912  12.203
24558W        W95158  26.455  22.339  13.945
24559W        W95159  42.967  42.784   1.411
24560W        W95160  42.915  33.599  11.701
24561W        W95161   0.191  38.630   0.476
24562W        W95162  17.252  34.490   0.241
24563W        W95163  15.506  42.479  14.490
24564W        W95164  23.919  28.551  11.200
24565W        W95165  22.061  29.153   3.740
24566W        W95166  13.320  23.112   1.724
24567W        W95167   1.534  12.217  14.498
24568W        W95168  41.983  41.221   3.288
24569W        W95169  31.491  20.691   1.355
24570W        W95170  13.802  22.987   2.636
24571W        W95171  39.125  18.505  12.032
24572W        W95172   2.753  25.978  14.957
24573W        W95173  19.204  34.734   2.639
24574W        W95174  17.947   6.707   2.171
24575W        W95175   0.440   4.709  14.728
24576W        W95176  21.737  39.459  10.931
24577W        W95177  20.210  20.990   0.876
24578W        W95178  28.243  33.665  14.451
24579W        W95179  25.487   6.319   1.876
24580W        W95180  17.676   4.948   4.673
24581W        W95181  23.469  36.527  11.988
24582W        W95182   8.967   7.492  13.328
24583W        W95183  25.751  30.629  11.986
24584W        W95184  13.121  35.310   3.841
24585W        W95185  25.110  42.553  11.591
24586W        W95186   7.767  28.920   2.778
24587W        W95187  44.536  23.224  10.698
24588W        W95188   8.837   8.821  14.282
24589W        W95189  19.181  39.532  14.760
24590W        W95190  24.929  34.924  12.007
24591W        W95191  10.508  15.811  10.703
24592W        W95192  13.564  35.908  12.672
24593W        W95193  39.989   3.886  13.035
24594W        W95194  17.707  33.826  11.552
24595W        W95195   6.518  11.828   2.936
24596W        W95196   7.243  43.019   4.264
24597W        W95197  37.068  35.776   4.080
24598W        W95198  22.550  29.037  12.149
24599W        W95199  20.998   7.340  13.869
24600W        W95200   8.086  22.999  14.967
24601W        W95201  20.485  38.600   3.592
24602W        W95202  11.939  14.682   2.832
24603W        W95203  41.968   1.980  13.119
24604W        W95204  38.870   9.327   3.652
24605W        W95205  23.093  25.746  11.203
24606W        W95206  38.713  17.854  11.017
24607W        W95207  13.647  30.494   1.117
24608W        W95208   7.308  22.720  14.444
24609W        W95209  35.776  16.631   1.395
24610W        W95210  24.754  32.363   3.701
24611W        W95211   8.364  11.054  13.881
24612W        W95212  36.531  10.370   3.685
24613W        W95213  29.300  28.674   2.332
24614W        W95214  10.712  29.712   4.230
24615W        W95215  28.427  13.212   2.906
24616W        W95216  14.826  21.761  12.469
24617W        W95217   2.390  37.816   3.215
24618W        W95218  27.159  23.732   2.276
24619W        W95219  38.531  22.751  14.028
24620W        W95220  35.368  34.415  14.823
24621W        W95221  18.383  41.572  10.873
24622W        W95222  26.852  22.021   0.956
24623W        W95223   7.246   4.280  12.952
24624W        W95224  22.149   6.482  11.961
24625W        W95225   5.829  16.219  10.578
24626W        W95226  17.538  12.604  12.070
24627W        W95227  31.485  34.377   1.863
24628W        W95228  39.661  17.991   3.984
24629W        W95229   3.991  43.323  10.670
24630W        W95230  24.127  22.218  10.560
24631W        W95231   8.169  23.771  14.341
24632W        W95232  15.898  17.864   4.496
24633W        W95233  19.963  34.833   3.767
24634W        W95234  37.808  27.418  13.348
24635W        W95235  24.596  21.145   4.368
24636W        W95236  42.249  14.855  11.242
24637W        W95237  20.356  38.407  10.848
24638W        W95238   0.964  42.209   0.554
24639W        W95239  33.194   6.307   4.860
24640W        W95240  14.916   2.147   4.382
24641W        W95241  12.197  14.395   2.464
24642W        W95242  18.411   3.927  11.959
24643W        W95243  21.229  18.290  11.209
24644W        W95244  12.480  30.547   4.071
24645W        W95245   1.596   5.447   0.433
24646W        W95246  13.869  32.924   3.577
24647W        W95247  26.423  34.295  10.899
24648W        W95248   3.509  21.709   0.032
24649W        W95249  35.619  17.778  11.148
24650W        W95250  40.114   2.461  13.001
24651W        W95251  38.338  33.560  14.266
24652W        W95252  22.208  19.345  11.514
24653W        W95253  24.054  15.601   2.927
24654W        W95254  44.938  32.467   0.927
24655W        W95255  12.678   3.241   3.385
24656W        W95256  30.151   2.630   4.379
24657W        W95257  36.350  23.080  13.990
24658W        W95258  35.578   6.903   3.582
24659W        W95259  33.062  18.670   2.239
24660W        W95260  19.802   3.666   3.698
24661W        W95261  25.649  14.283   3.149
24662W        W95262  10.832  26.254  14.854
24663W        W95263  38.993   0.162  11.654
24664W        W95264  14.298  36.981  13.955
24665W        W95265   6.827  30.518   3.385
24666W        W95266  29.257   1.056  13.154
24667W        W95267   7.611   9.551   3.410
24668W        W95268   6.368  36.244  10.404
24669W        W95269  42.726  44.107   3.599
24670W        W95270  42.686  10.654   4.164
24671W        W95271   4.722  20.308   0.913
24672W        W95272  17.693  35.980   0.425
24673W        W95273  20.640  35.715   1.048
24674W        W95274  27.998  11.770  14.717
24675W        W95275  40.009  20.255   1.377
24676W        W95276  20.116   2.500   1.938
24677W        W95277   0.440  23.600   4.870
24678W        W95278  44.733  30.603   0.761
24679W        W95279  33.097  17.019  13.645
24680W        W95280  19.995  20.490  14.333
24681W        W95281   6.275  38.079   3.055
24682W        W95282  44.727   9.532  11.280
24683W        W95283  36.596   0.657   2.737
24684W        W95284  39.459   9.558  13.719
24685W        W95285  30.087  43.507   1.782
24686W        W95286  35.847  27.036  12.077
24687W        W95287  17.584  30.633  11.059
24688W        W95288  41.474  40.811   1.083
24689W        W95289   8.767   7.913  14.626
24690W        W95290  42.880  42.604   2.757
24691W        W95291   7.431  25.612   1.949
24692W        W95292  27.065  24.926  10.769
24693W        W95293  19.077  18.881   1.625
24694W        W95294   6.330  37.364  12.940
24695W        W95295  24.644   6.666   0.224
24696W        W95296  30.071  37.059   3.822
24697W        W95297  11.123  17.103   4.025
24698W        W95298   7.631  22.777   1.812
24699W        W95299  21.196  38.304   1.343
24700W        W95300  14.332  40.861  10.771
24701W        W95301  21.505  38.666  12.882
24702W        W95302  27.140  15.613   2.957
24703W        W95303  32.649  22.241  12.906
24704W        W95304  40.497  29.862  13.270
24705W        W95305  19.298  35.963  11.872
24706W        W95306  29.239  34.393  12.481
24707W        W95307  15.137   0.101   0.892
24708W        W95308  34.826  30.767   4.483
24709W        W95309  21.882  13.564   1.332
24710W        W95310   3.893  28.588  14.850
24711W        W95311   1.370  25.416  13.351
24712W        W95312  40.977  39.135  14.286
24713W        W95313   0.053  20.783   0.412
24714W        W95314  16.753   7.532   0.955
24715W        W95315  24.914   9.321   5.422
24716W        W95316  22.563  28.168  14.341
24717W        W95317   7.221  37.401  11.614
24718W        W95318  32.356  22.116   2.873
24719W        W95319  18.028  42.834   0.728
24720W        W95320  29.497   4.886   2.825
24721W        W95321   9.688  24.557  12.079
24722W        W95322  37.719  42.812  11.197
24723W        W95323  12.576  36.436   3.316
24724W        W95324  38.497  17.212  14.286
24725W        W95325   7.301   0.810  14.768
24726W        W95326  31.426  42.274  12.096
24727W        W95327  13.650   9.139  13.381
24728W        W95328  43.593  17.827   4.289
24729W        W95329  42.001  34.833   1.221
24730W        W95330  37.854  39.096  12.076
24731W        W95331   9.120  12.160  12.715
24732W        W95332  34.461  35.943   0.210
24733W        W95333  32.592  41.676   1.163
24734W        W95334  39.410  31.051  12.138
24735W        W95335   1.712   8.159   4.121
24736W        W95336  28.032   3.319   3.655
24737W        W95337  17.077  21.250  14.860
24738W        W95338  39.005  35.410   1.245
24739W        W95339  41.911  41.936   2.936
24740W        W95340  14.285  42.609  11.955
24741W        W95341  43.463   1.470   2.768
24742W        W95342   2.172  19.744  11.962
24743W        W95343  15.525  40.838   3.181
24744W        W95344  42.590  27.075  12.910
24745W        W95345  35.134  40.348   0.972
24746W        W95346  39.037  23.096  12.901
24747W        W95347  44.888  37.112   1.948
24748W        W95348  35.804  27.507  11.238
24749W        W95349  41.876  40.305  11.653
24750W        W95350  43.346  10.123  13.683
24751W        W95351  33.372   6.002   2.207
24752W        W95352  28.437  43.025   1.728
24753W        W95353  16.093   8.608  12.142
24754W        W95354  41.411   7.491   0.910
24755W        W95355  41.377  20.123   2.304
24756W        W95356   2.327  14.217  13.799
24757W        W95357   7.503  10.165  11.642
24758W        W95358  32.992  36.420  12.926
24759W        W95359  16.791  11.715   1.181
24760W        W95360  12.275   8.806   0.522
24761W        W95361  27.668  32.415  11.678
24762W        W95362   1.872  25.417   1.247
24763W        W95363   9.286  27.546   1.682
24764W        W95364  31.068  10.694   4.133
24765W        W95365  11.994   3.588   0.242
24766W        W95366  20.978  13.706   4.526
24767W        W95367  43.939   7.399   3.349
24768W        W95368  25.236  12.425  10.493
24769W        W95369  39.755  28.385   3.510
24770W        W95370  39.057  31.586  11.222
24771W        W95371  30.435  36.040   4.772
24772W        W95372  33.605   8.153  12.003
24773W        W95373  41.802  25.734  12.146
24774W        W95374  26.479  18.604   0.807
24775W        W95375  37.813  41.539  14.406
24776W        W95376  17.159  41.274   3.672
24777W        W95377   0.292  11.020   0.329
24778W        W95378  32.016   6.220   0.901
24779W        W95379   2.784  17.308  12.263
24780W        W95380  43.690  36.715   1.456
24781W        W95381   8.226  23.285  14.538
24782W        W95382  21.935   6.432  11.141
24783W        W95383   0.652  34.924  14.802
24784W        W95384  36.964  20.009  12.547
24785W        W95385  30.988  28.214  12.901
24786W        W95386  40.750  14.040   3.735
24787W        W95387  22.540  22.719  11.924
24788W        W95388  12.175  40.380  14.757
24789W        W95389  21.408  14.548  12.784
24790W        W95390  44.055  38.488   3.702
24791W        W95391  12.183  20.647   4.119
24792W        W95392  20.637  37.026   2.387
24793W        W95393  41.725  22.745  10.835
24794W        W95394  39.532  43.191  10.575
24795W        W95395  31.342  43.841  13.111
24796W        W95396  39.045  20.181  14.653
24797W        W95397  26.815   7.904  12.897
24798W        W95398   7.380  35.801   2.248
24799W        W95399   1.322  13.260   0.481
24800W        W95400  31.292  37.153   4.398
24801W        W95401  22.992  27.887   0.236
24802W        W95402  14.286  19.464   4.015
24803W        W95403  13.465   8.635  11.521
24804W        W95404  39.379   0.249  13.451
24805W        W95405  15.242  15.942  10.083
24806W        W95406  20.242  10.351   1.725
24807W        W95407  43.493  41.840   2.856
24808W        W95408  25.391   3.883  12.488
24809W        W95409   3.909   1.231   3.218
24810W        W95410  18.316   9.682  13.726
24811W        W95411  19.320  17.018   3.682
24812W        W95412  31.247  29.390  11.077
24813W        W95413  18.279  29.046   4.853
24814W        W95414  12.830  37.091   3.745
24815W        W95415   6.161   9.767   3.309
24816W        W95416  12.780  31.451  11.056
24817W        W95417  19.498  17.682  14.970
24818W        W95418  16.101  40.078   2.793
24819W        W95419  31.505  40.797   3.253
24820W        W95420  37.899  29.546  13.791
24821W        W95421   8.763  39.599   1.903
24822W        W95422  32.406  39.839   3.297
24823W        W95423  38.062  12.754   1.363
24824W        W95424   1.815   2.530  12.106
24825W        W95425  13.343  23.867  13.546
24826W        W95426  19.382  22.568   0.509
24827W        W95427  39.490   8.307   0.988
24828W        W95428   0.060   8.459  10.633
24829W        W95429  29.496  29.044   2.683
24830W        W95430  24.266  14.104   0.515
24831W        W95431  22.885   6.460   2.592
24832W        W95432   8.335   3.900   0.369
24833W        W95433  22.996  30.633  11.673
24834W        W95434  31.373  12.714   1.259
24835W        W95435  10.179  21.294  13.622
24836W        W95436  24.886   4.849   4.880
24837W        W95437  15.106  16.312  10.396
24838W        W95438   3.786  14.742  12.667
24839W        W95439  15.743  14.579  11.624
24840W        W95440  32.961  25.484   4.720
24841W        W95441   2.431  19.073  11.166
24842W        W95442   2.703  32.404  11.994
24843W        W95443  27.753   3.851  14.028
24844W        W95444   1.842  28.390  13.987
24845W        W95445   4.913  25.557  13.896
24846W        W95446   5.731  20.210  13.334
24847W        W95447  38.064   2.880  14.348
24848W        W95448   7.822  21.176   2.342
24849W        W95449   0.367   5.931  12.410
24850W        W95450  28.712  26.991   0.879
24851W        W95451   4.177   3.435  14.895
24852W        W95452  30.458  17.323   3.848
24853W        W95453  30.086  34.880   3.161
24854W        W95454  26.090  41.741   2.193
24855W        W95455  18.735  23.996  13.131
24856W        W95456   7.385   4.688   4.586
24857W        W95457   4.707   1.332   2.544
24858W        W95458  37.010  27.179   4.950
24859W        W95459  16.852   0.934   4.860
24860W        W95460   1.324  24.686  13.885
24861W        W95461  26.954  37.821   2.127
24862W        W95462  31.824   7.325   0.864
24863W        W95463  34.829   9.140  11.515
24864W        W95464  29.723  11.271  14.568
24865W        W95465  28.481  23.913   0.666
24866W        W95466   1.180  37.083  13.303
24867W        W95467  23.061  41.734  10.741
24868W        W95468  28.071  20.829  11.337
24869W        W95469  14.607  15.501  14.682
24870W        W95470  19.208   3.799   0.352
24871W        W95471  17.294  14.827   0.109
24872W        W95472   5.581  29.761  11.103
24873W        W95473  36.675  44.335  11.101
24874W        W95474  37.660  32.602  12.536
24875W        W95475  32.866  10.082  14.984
24876W        W95476  19.472  41.415  12.435
24877W        W95477  11.793  13.418  12.932
24878W        W95478  21.577  44.793  13.485
24879W        W95479   4.234   7.830  14.515
24880W        W95480  19.782  42.515   3.209
24881W        W95481  11.336  42.632  10.092
24882W        W95482  32.635   0.322   2.881
24883W        W95483   6.335  37.603   2.870
24884W        W95484   5.681  42.055   2.313
24885W        W95485  36.847   7.679  10.686
24886W        W95486   0.365  12.933  11.178
24887W        W95487   6.818  21.071   3.239
24888W        W95488  35.968  29.664   4.692
24889W        W95489   5.923  15.888   9.971
24890W        W95490  43.438  28.202  14.018
24891W        W95491  31.660  41.389   1.867
24892W        W95492  29.989   8.586   1.460
24893W        W95493   1.829   8.274   2.680
24894W        W95494  24.995  12.177   2.339
24895W        W95495  10.337  37.452   3.366
24896W        W95496  39.698  39.884  12.844
24897W        W95497  24.136  34.404  10.743
24898W        W95498  29.993  32.149   4.198
24899W        W95499  20.198  37.417  11.050
24900W        W95500  41.090  42.942  12.538
24901W        W95501  44.895   2.302   3.400
24902W        W95502   8.006  41.056   4.590
24903W        W95503  38.971  22.253  13.502
24904W        W95504   6.717   2.028   4.182
24905W        W95505  25.136  12.867  12.136
24906W        W95506  42.878  12.586  10.727
24907W        W95507  16.415  26.051  13.490
24908W        W95508  41.578  42.243   3.392
24909W        W95509  13.548  26.579   2.774
24910W        W95510   8.863  36.816  13.471
24911W        W95511   3.654  17.761   4.974
24912W        W95512  34.107  21.387  12.889
24913W        W95513  33.996  27.409   2.717
24914W        W95514   6.304   4.094   4.827
24915W        W95515  17.686   6.347  12.789
24916W        W95516  27.506   4.279  13.294
24917W        W95517  40.439  42.049   1.331
24918W        W95518  23.656  25.523  11.845
24919W        W95519  23.737   8.504  11.967
24920W        W95520  15.852  36.544   4.535
24921W        W95521  41.563  30.538   3.893
24922W        W95522  25.457   0.422   2.195
24923W        W95523  40.916  21.453   2.344
24924W        W95524  16.049  24.729  14.413
24925W        W95525  31.418  13.433  13.621
24926W        W95526  33.890  37.398   1.801
24927W        W95527  12.650  37.622   0.335
24928W        W95528  36.432  44.729   2.659
24929W        W95529  20.653  37.053   1.333
24930W        W95530  28.332  41.392   4.832
24931W        W95531  24.685   6.292  14.351
24932W        W95532  26.571  10.664  12.988
24933W        W95533  24.211  13.169   4.711
24934W        W95534   9.444  24.445  12.520
24935W        W95535  15.871  43.872   4.478
24936W        W95536   0.551  19.647   2.259
24937W        W95537   5.836  14.103   0.042
24938W        W95538  21.684  33.510  13.633
24939W        W95539  44.524  38.437  12.459
24940W        W95540  33.330  10.814  12.950
24941W        W95541  36.569   7.897  11.825
24942W        W95542  34.537  19.008  14.826
24943W        W95543   4.846  18.823   0.364
24944W        W95544  12.786  25.692  10.778
24945W        W95545  39.368  28.061  11.077
24946W        W95546   2.383   7.695   0.595
24947W        W95547  17.316  30.580  14.263
24948W        W95548  18.926  44.411  14.328
24949W        W95549  17.073  29.590   4.654
24950W        W95550  39.759  43.266   0.378
24951W        W95551  12.028  27.503   0.774
24952W        W95552  11.337   1.673   2.595
24953W        W95553  32.920  16.889   1.156
24954W        W95554  38.164  35.094  10.983
24955W        W95555  31.067  29.528   0.842
24956W        W95556   8.129  28.677  14.820
24957W        W95557  13.202  20.959  11.982
24958W        W95558  11.227  23.559  13.702
24959W        W95559  30.083  12.906  10.766
24960W        W95560  17.862  18.278   4.610
24961W        W95561   6.267  40.542   0.767
24962W        W95562  28.188   8.890   9.850
24963W        W95563  33.829  10.830   0.267
24964W        W95564  17.331  41.522  14.546
24965W        W95565  25.643   7.981   3.182
24966W        W95566  17.389  24.175  12.851
24967W        W95567   9.349  23.620   2.926
24968W        W95568   5.406  34.903  12.124
24969W        W95569  24.613   3.312  12.821
24970W        W95570   8.110   2.530   4.177
24971W        W95571  16.278  23.621   3.694
24972W        W95572  16.542  43.835  10.994
24973W        W95573  23.103  33.592  11.823
24974W        W95574  12.748  31.212   3.178
24975W        W95575  10.821   0.274  10.685
24976W        W95576   6.412  35.474   0.323
24977W        W95577  36.429  15.515  14.526
24978W        W95578  42.241  29.499  11.467
24979W        W95579  28.973  26.711  13.868
24980W        W95580  35.326  34.531   0.326
24981W        W95581  16.377  21.914  14.626
24982W        W95582   9.650  25.232   1.238
24983W        W95583   2.684  18.656   3.591
24984W        W95584  42.046   5.179  13.868
24985W        W95585   5.914   1.086   4.308
24986W        W95586   2.976   8.752  12.489
24987W        W95587  24.230  15.272  12.884
24988W        W95588  27.429   6.627   3.243
24989W        W95589   8.369  18.147  11.596
24990W        W95590  33.588  41.953   4.748
24991W        W95591  11.357  28.208  12.924
24992W        W95592  15.605  22.699   3.352
24993W        W95593   8.488   9.848   4.422
24994W        W95594  35.394  10.692   4.517
24995W        W95595  25.978   2.441   3.804
24996W        W95596   1.382  25.937  13.347
24997W        W95597  18.972  22.091  12.439
24998W        W95598  31.426  14.606  11.126
24999W        W95599  28.213  24.191   3.847
25000W        W95600  28.438  39.767   1.310
25001W        W95601  24.188  39.372   1.782
25002W        W95602   9.835  12.079   1.428
25003W        W95603  31.829   5.955   5.117
25004W        W95604  40.449   4.478  11.889
25005W        W95605  15.622   7.173   4.532
25006W        W95606   6.873  17.613   4.659
25007W        W95607  43.475  14.104   1.902
25008W        W95608  19.770  26.053  12.293
25009W        W95609   4.077  42.014  14.347
25010W        W95610  11.169  34.999   2.306
25011W        W95611  39.115   1.947   1.954
25012W        W95612  30.097  20.531  13.509
25013W        W95613   4.454  19.079   2.321
25014W        W95614  19.954  34.074  13.523
25015W        W95615  33.036  26.621   2.298
25016W        W95616  26.740   1.794  14.883
25017W        W95617  21.776  44.062   3.568
25018W        W95618  24.613  37.636   0.266
25019W        W95619  26.019  25.215   3.322
25020W        W95620   5.972  16.230  14.284
25021W        W95621  33.446   0.429  12.898
25022W        W95622  30.364  39.373  12.892
25023W        W95623  21.547  27.231  12.631
25024W        W95624  19.406  21.038   5.156
25025W        W95625  41.413   7.362   4.481
25026W        W95626   7.828  14.215  14.874
25027W        W95627  43.493  12.793   2.155
25028W        W95628   1.705  20.767   2.273
25029W        W95629  32.486  31.496  14.831
25030W        W95630  29.873  24.905  13.961
25031W        W95631  36.877   2.975   3.709
25032W        W95632  39.402  11.817  11.054
25033W        W95633  26.213  19.635   3.193
25034W        W95634  40.841  20.920  12.034
25035W        W95635   1.241   5.047  14.104
25036W        W95636  35.594  13.687   0.722
25037W        W95637  16.416  42.590  14.784
25038W        W95638  28.228  10.420   0.913
25039W        W95639   8.258  41.587   4.722
25040W        W95640  44.280  36.630  14.889
25041W        W95641  37.852  10.175  13.331
25042W        W95642  29.570  10.621  14.023
25043W        W95643  32.108   6.773  13.513
25044W        W95644  15.620  29.475   3.609
25045W        W95645  28.411  21.294   2.338
25046W        W95646  29.473  38.483   0.245
25047W        W95647  35.612  22.859   1.309
25048W        W95648   8.067  22.983  10.501
25049W        W95649  10.025   3.909   2.907
25050W        W95650   2.511  44.579  13.487
25051W        W95651  15.229   0.360   2.713
25052W        W95652  43.380   8.603  10.755
25053W        W95653  15.587  42.833   1.048
25054W        W95654  26.315  14.615  13.141
25055W        W95655  23.465  38.739   3.703
25056W        W95656   1.975  26.100  14.877
25057W        W95657   0.029  35.043  11.091
25058W        W95658  16.077   6.807   0.956
25059W        W95659  31.852  38.656   3.711
25060W        W95660  20.764  33.418   2.808
25061W        W95661   4.296   3.493  14.371
25062W        W95662   8.340  11.573  13.851
25063W        W95663  14.221  14.422   3.163
25064W        W95664   2.822   5.710   2.152
25065W        W95665   9.189  21.792  13.392
25066W        W95666  20.989   7.588  13.392
25067W        W95667  11.265  18.213   0.688
25068W        W95668   2.538  40.444   1.044
25069W        W95669  13.028  33.281   4.255
25070W        W95670   1.189  27.689  14.290
25071W        W95671  40.646  10.126  12.868
25072W        W95672  14.201  17.461   1.779
25073W        W95673  42.884  23.267  13.954
25074W        W95674  12.814   5.091   0.317
25075W        W95675   5.936  38.394  12.088
25076W        W95676  41.854  34.852   0.350
25077W        W95677   8.971   0.474   2.748
25078W        W95678   8.388  13.193   1.351
25079W        W95679  10.736   2.655   2.300
25080W        W95680  29.131  38.464   4.505
25081W        W95681  33.048  13.131   0.224
25082W        W95682  29.532  21.249   1.082
25083W        W95683  32.024   8.156  14.953
25084W        W95684   6.381  25.653   0.262
25085W        W95685   2.005  15.804   2.412
25086W        W95686  11.892  37.697   2.297
25087W        W95687  34.467  28.138   3.641
25088W        W95688  25.913  23.017   3.612
25089W        W95689  43.243  28.212  10.199
25090W        W95690  36.014  18.054  13.860
25091W        W95691  12.424  36.869  13.414
25092W        W95692  42.266  15.048   1.225
25093W        W95693  23.101   0.671  11.119
25094W        W95694  27.885  14.252  10.253
25095W        W95695  44.845  24.236  11.415
25096W        W95696  25.403  41.364  13.033
25097W        W95697  14.699  28.175  14.932
25098W        W95698  44.303  20.353  10.790
25099W        W95699  17.823  25.162   1.893
25100W        W95700  25.402  21.123   3.678
25101W        W95701  18.766  35.951   0.409
25102W        W95702  32.178   9.358  11.137
25103W        W95703   6.557  40.017   2.822
25104W        W95704  19.766   2.723   0.799
25105W        W95705  37.591  18.197   4.641
25106W        W95706  13.079  39.954   3.673
25107W        W95707  18.982  26.989   2.385
25108W        W95708  15.802  23.966   0.705
25109W        W95709  42.910  43.855  11.613
25110W        W95710   8.580   4.545   2.762
25111W        W95711  27.208  41.382   0.250
25112W        W95712  36.451  41.722   0.286
25113W        W95713  37.542  39.370   4.939
25114W        W95714  33.066  29.489   3.086
25115W        W95715   4.791  19.619  12.136
25116W        W95716  32.599  17.383  10.925
25117W        W95717  17.114  30.064  12.762
25118W        W95718  35.113  30.726   2.096
25119W        W95719  38.802   8.850  12.151
25120W        W95720  27.266  37.273   3.658
25121W        W95721   6.195  11.484   0.380
25122W        W95722   3.347  23.034  11.152
25123W        W95723  32.682  22.249  11.207
25124W        W95724  35.032  20.753   0.891
25125W        W95725  39.036  41.917   3.334
25126W        W95726  16.787  32.829   9.775
25127W        W95727   0.573  19.543  10.535
25128W        W95728   5.421  24.074  13.102
25129W        W95729  12.766  26.678  14.461
25130W        W95730  15.580  28.593   4.194
25131W        W95731   7.407  25.514   4.642
25132W        W95732  27.147  12.609   3.394
25133W        W95733  25.415  20.207   3.702
25134W        W95734  40.176  22.528  12.530
25135W        W95735   6.163  26.217  12.123
25136W        W95736   2.448   7.847   2.006
25137W        W95737  21.071  15.203   1.444
25138W        W95738  13.300   8.235   2.284
25139W        W95739  18.206   4.809  12.237
25140W        W95740  42.313  23.064   4.632
25141W        W95741  43.260   1.385  13.048
25142W        W95742  32.931  24.595  12.376
25143W        W95743  18.829  11.057  13.976
25144W        W95744  10.901  18.602   1.270
25145W        W95745  43.435  19.677   2.181
25146W        W95746   6.754  32.884  14.302
25147W        W95747  32.508   2.157  12.391
25148W        W95748  10.862  19.257  13.870
25149W        W95749   6.809  18.467  12.028
25150W        W95750   1.712  20.172  13.961
25151W        W95751   8.507   3.109  10.622
25152W        W95752   0.989   2.867  14.597
25153W        W95753  12.847   3.725   2.259
25154W        W95754  27.598  38.243  11.978
25155W        W95755  22.262  38.543   1.414
25156W        W95756  22.975   5.337   0.572
25157W        W95757  42.866  26.497  14.976
25158W        W95758   4.493  12.822   2.429
25159W        W95759  20.855  43.327  14.844
25160W        W95760   6.616  11.329   1.311
25161W        W95761  18.542  28.931  12.374
25162W        W95762  18.683  37.525   1.845
25163W        W95763  21.089  34.422  13.064
25164W        W95764  12.664  19.941   4.600
25165W        W95765  20.249  41.245  12.859
25166W        W95766  44.381  14.961  11.285
25167W        W95767  35.402  10.918  13.509
25168W        W95768   9.361  32.437   9.910
25169W        W95769  36.946  12.714   0.152
25170W        W95770   2.836  17.753   2.410
25171W        W95771  23.664   7.812  13.581
25172W        W95772   1.884   4.770  14.937
25173W        W95773  31.174  41.344  13.970
25174W        W95774  43.514  18.712  10.815
25175W        W95775  13.006   4.759  13.988
25176W        W95776  39.421  42.711  10.773
25177W        W95777  17.736  29.187   0.710
25178W        W95778   9.379  29.708  13.474
25179W        W95779  10.809  30.655   1.914
25180W        W95780  43.589  11.515   1.507
25181W        W95781  14.198  39.812  11.472
25182W        W95782  41.608  34.539   1.854
25183W        W95783  31.134  41.203  14.856
25184W        W95784  40.937  16.779  14.420
25185W        W95785   3.732  22.738  11.000
25186W        W95786  29.986   0.274  10.932
25187W        W95787  35.099  12.653   1.370
25188W        W95788  10.209   9.733   4.284
25189W        W95789   8.543   8.912  11.090
25190W        W95790  39.423  29.562   0.383
25191W        W95791   0.115  14.242  14.888
25192W        W95792   0.167  40.006  11.561
25193W        W95793  30.466  42.642  13.586
25194W        W95794  39.295  14.213   1.163
25195W        W95795  40.391   7.414   4.592
25196W        W95796  26.644  22.805  13.877
25197W        W95797   6.841   6.604   0.432
25198W        W95798  15.053  23.195   2.317
25199W        W95799   2.067  41.458  11.624
25200W        W95800  40.107  32.053  13.443
25201W        W95801   9.177  38.038  11.175
25202W        W95802  20.077  34.556  12.077
25203W        W95803  35.410  19.538   0.427
25204W        W95804   6.292  14.406   2.288
25205W        W95805  38.703  20.497   4.578
25206W        W95806  42.649  39.076   0.817
25207W        W95807  10.302   5.305   1.426
25208W        W95808  23.396  30.048  13.329
25209W        W95809  30.642   5.461  11.991
25210W        W95810  15.017  12.599   0.686
25211W        W95811   5.495  10.138   0.283
25212W        W95812  17.544  43.827   1.897
25213W        W95813  17.003  19.803   4.147
25214W        W95814  43.327   3.351   3.068
25215W        W95815  36.312  11.542   2.822
25216W        W95816   6.165  13.682   0.318
25217W        W95817   0.704   0.433  12.134
25218W        W95818  28.169  33.014  11.639
25219W        W95819  43.541  22.673  13.626
25220W        W95820   1.784  40.810  13.465
25221W        W95821  39.536   3.382   3.277
25222W        W95822   1.226  38.312  11.498
25223W        W95823  44.367   4.101  14.624
25224W        W95824   5.426   2.164  12.987
25225W        W95825  44.741  20.900  10.249
25226W        W95826  32.197  20.284   0.018
25227W        W95827  28.410  37.197  13.004
25228W        W95828  33.970  40.583  12.937
25229W        W95829  39.945  22.248  11.701
25230W        W95830  38.620   7.159  11.987
25231W        W95831  17.380  13.642   1.302
25232W        W95832  33.224   4.831  12.918
25233W        W95833  15.729  30.954   3.689
25234W        W95834  13.578  25.065  14.836
25235W        W95835  28.526  26.042   2.646
25236W        W95836  10.290  15.170   1.738
25237W        W95837  37.838  21.957  12.247
25238W        W95838  31.358  21.406   3.852
25239W        W95839  42.963  32.626   1.772
25240W        W95840  42.837  29.820  12.063
25241W        W95841  37.933  34.638  14.954
25242W        W95842  26.461   7.442  10.488
25243W        W95843  30.009  21.743  13.939
25244W        W95844   2.010  18.088  10.234
25245W        W95845  26.244  43.942  11.215
25246W        W95846  10.526  16.715   4.943
25247W        W95847  36.543   3.789  13.193
25248W        W95848  21.613  18.671  13.407
25249W        W95849  21.225  27.066  11.798
25250W        W95850  41.380  40.047   4.428
25251W        W95851  25.753   4.435  14.339
25252W        W95852  40.408   9.853  14.913
25253W        W95853  18.472  18.760   3.751
25254W        W95854  28.535  18.046  12.863
25255W        W95855  42.630  39.427  11.004
25256W        W95856   5.321  43.587  13.439
25257W        W95857   4.670  29.965  14.797
25258W        W95858   6.401  17.099   3.159
25259W        W95859  30.704  17.700   2.723
25260W        W95860   8.162  30.857   2.358
25261W        W95861  24.948  14.029   3.650
25262W        W95862  24.207  15.786   4.193
25263W        W95863  43.025  27.165  11.967
25264W        W95864  34.609  17.263  11.130
25265W        W95865  30.391   0.386   0.535
25266W        W95866   0.968  16.609   0.270
25267W        W95867   0.389  36.647  11.063
25268W        W95868  34.960  41.482   2.125
25269W        W95869  17.916  40.756   3.901
25270W        W95870  24.985  35.570  14.714
25271W        W95871  19.099  22.194   3.403
25272W        W95872  33.954  32.916  12.996
25273W        W95873   4.934  28.774   4.173
25274W        W95874  39.919   9.227   1.330
25275W        W95875  18.169  30.384   3.285
25276W        W95876  32.112  27.687  10.705
25277W        W95877   1.343   2.939  13.625
25278W        W95878  42.430  22.296  10.455
25279W        W95879  29.070  14.190  10.907
25280W        W95880  20.226  31.995  10.352
25281W        W95881  27.490  28.982  13.165
25282W        W95882   9.279  44.360   4.381
25283W        W95883  43.999  28.156  10.833
25284W        W95884  40.536  34.491  10.197
25285W        W95885  13.743  11.537   0.964
25286W        W95886  38.268  32.039   1.415
25287W        W95887  15.402  15.610   2.295
25288W        W95888  23.543  19.013  13.932
25289W        W95889  12.265  19.703  11.492
25290W        W95890  10.068  32.721   4.148
25291W        W95891  10.766  27.469   0.501
25292W        W95892   0.590  24.126  10.804
25293W        W95893  43.837   4.334   1.966
25294W        W95894  44.773   3.494   2.966
25295W        W95895  16.992  10.791  11.467
25296W        W95896  17.719  17.805  12.212
25297W        W95897  33.606  26.109  11.523
25298W        W95898  37.921  35.356   3.643
25299W        W95899   1.268  37.691  14.904
25300W        W95900   4.662  14.413  10.633
25301W        W95901  40.369  26.114   1.959
25302W        W95902  30.453  10.292   0.350
25303W        W95903  27.331  24.123  14.155
25304W        W95904  26.855   9.779   3.590
25305W        W95905  38.412  36.967  10.609
25306W        W95906   2.312  41.065   1.716
25307W        W95907   3.572  28.162   4.181
25308W        W95908  40.306  33.087  10.523
25309W        W95909  42.477  11.133   3.267
25310W        W95910  16.666   5.311   2.494
25311W        W95911  16.944  18.730  13.628
25312W        W95912  18.762  41.435  10.530
25313W        W95913  37.493  16.119   0.787
25314W        W95914   4.822   6.939   0.204
25315W        W95915  20.779  27.661   3.616
25316W        W95916  22.710  11.662   1.665
25317W        W95917   9.815  40.382   4.110
25318W        W95918   2.014  44.371   2.403
25319W        W95919  36.267   4.438   3.789
25320W        W95920   6.176  24.446   1.259
25321W        W95921   8.702  25.981   1.885
25322W        W95922  24.611  20.483  11.424
25323W        W95923  15.257  38.730   0.405
25324W        W95924  37.095  30.056   1.410
25325W        W95925  44.764  18.798   3.764
25326W        W95926  26.457  24.602  13.347
25327W        W95927  30.583  25.282  14.486
25328W        W95928  39.793  16.603   2.331
25329W        W95929  38.622  38.753   2.624
25330W        W95930  25.880  24.009  13.191
25331W        W95931  41.463  26.453  13.599
25332W        W95932  37.564  41.051  12.026
25333W        W95933  17.540  17.886   4.439
25334W        W95934  11.571  27.438  13.491
25335W        W95935  25.161  10.771   0.789
25336W        W95936  20.589  37.290   0.841
25337W        W95937  23.526  43.199   3.806
25338W        W95938   4.867  26.233   2.829
25339W        W95939   4.368  39.468   1.048
25340W        W95940   9.320  43.312   2.394
25341W        W95941  39.816  40.326   3.195
25342W        W95942  31.645  26.055   3.567
25343W        W95943  11.592  40.489   2.730
25344W        W95944  12.890  19.566   2.160
25345W        W95945  12.699  32.389   0.844
25346W        W95946  43.960  13.990  14.395
25347W        W95947  14.162   5.023  12.083
25348W        W95948   3.121  32.339  11.633
25349W        W95949  34.866  42.119  14.081
25350W        W95950  37.035  37.637  10.351
25351W        W95951   6.675  40.016  10.765
25352W        W95952  13.906  21.474  13.733
25353W        W95953  31.978   1.043   0.779
25354W        W95954  26.455  33.463  11.184
25355W        W95955  18.235  16.216   4.337
25356W        W95956  28.079  15.169  10.024
25357W        W95957  19.194   6.258   1.447
25358W        W95958  11.288  41.078   3.632
25359W        W95959  37.391  11.645  13.153
25360W        W95960  21.877   7.191  13.464
25361W        W95961  29.045  21.154   0.884
25362W        W95962  24.233  17.891   2.520
25363W        W95963  24.987   7.298   3.254
25364W        W95964  23.141  22.979   1.203
25365W        W95965  14.515  41.932   2.406
25366W        W95966  38.892  25.765  13.975
25367W        W95967  18.251  29.001  11.017
25368W        W95968  33.111   6.680  13.537
25369W        W95969  37.578   7.722  11.230
25370W        W95970   5.861  38.777   3.382
25371W        W95971   4.406  29.932  13.304
25372W        W95972  27.610  32.096  12.164
25373W        W95973   0.863  32.404  11.075
25374W        W95974  21.483   4.857   3.116
25375W        W95975  30.965   2.978   0.858
25376W        W95976  13.876  24.688  13.638
25377W        W95977  44.619  38.650  13.696
25378W        W95978  23.468  35.781  11.578
25379W        W95979  10.795  28.221  12.957
25380W        W95980  23.151  29.824   1.942
25381W        W95981  28.691  26.100   1.723
25382W        W95982   3.073  12.269   3.668
25383W        W95983  30.621  26.865  10.658
25384W        W95984  25.672  28.559  11.355
25385W        W95985  12.862   2.388   2.156
25386W        W95986  42.495  14.397   0.738
25387W        W95987  13.089  16.306   1.228
25388W        W95988  35.779   7.363  12.402
25389W        W95989  40.359   6.761  11.620
25390W        W95990  25.925  37.982   4.145
25391W        W95991  43.373  44.399  10.109
25392W        W95992  34.295  33.141   1.341
25393W        W95993  44.984   3.852  12.629
25394W        W95994  25.669  18.030   3.158
25395W        W95995   5.799  17.609  14.343
25396W        W95996  16.629   2.744   2.912
25397W        W95997  30.138  30.369  10.585
25398W        W95998  25.627  20.211  14.948
25399W        W95999  25.153  38.549   1.832
25400W        W96000  30.219  29.665   3.463
25401W        W96001  39.794  25.235  11.224
25402W        W96002   4.324  27.050  14.483
25403W        W96003  15.558   3.302   3.269
25404W        W96004  32.949   4.312  13.509
25405W        W96005  35.651  38.894   3.539
25406W        W96006  12.622  19.453   0.257
25407W        W96007   2.802  11.647  12.525
25408W        W96008  36.944  27.503   2.197
25409W        W96009  24.924  11.188  14.599
25410W        W96010  34.037  33.874  12.324
25411W        W96011  19.504  15.037  11.653
25412W        W96012   2.358  40.922   0.262
25413W        W96013  11.274  43.958   1.608
25414W        W96014  34.938  32.826  11.278
25415W        W96015  31.943  35.886  12.882
25416W        W96016  41.925  35.174   3.513
25417W        W96017  33.687  20.106   3.308
25418W        W96018  11.560  23.975   0.858
25419W        W96019  36.392  28.125  14.712
25420W        W96020  20.625  29.205   1.491
25421W        W96021  12.594  22.489  14.397
25422W        W96022  20.300  20.348   2.668
25423W        W96023  11.377  37.899  12.185
25424W        W96024   9.341  40.041   4.147
25425W        W96025   2.048  23.127  13.565
25426W        W96026  19.612  14.426   3.132
25427W        W96027  11.831  28.201  14.322
25428W        W96028   3.442  33.626   3.340
25429W        W96029   6.382  23.548   3.855
25430W        W96030  35.751  13.198   3.065
25431W        W96031   5.883  22.952   1.805
25432W        W96032  26.418   6.831  13.483
25433W        W96033  26.893   9.176  11.461
25434W        W96034  22.556  10.432   3.729
25435W        W96035  25.377  11.437  12.134
25436W        W96036  43.477  14.360  10.430
25437W        W96037   0.981  15.758  10.784
25438W        W96038   0.481   3.325   4.604
25439W        W96039   6.786  37.571  10.637
25440W        W96040  23.277  42.790   2.852
25441W        W96041  42.513   4.957   1.320
25442W        W96042   9.917   8.382  13.871
25443W        W96043   2.182  24.192   1.867
25444W        W96044  15.650  14.141   2.270
25445W        W96045  18.606  27.122  14.969
25446W        W96046  11.382   4.463   3.470
25447W        W96047   6.428  13.502  14.714
25448W        W96048  33.731  42.989   1.813
25449W        W96049  41.938  22.309  11.600
25450W        W96050  41.227  31.612  11.246
25451W        W96051  22.311  29.995  12.947
25452W        W96052  11.969   7.255   1.234
25453W        W96053  40.478   7.162   4.163
25454W        W96054  35.314   6.325   2.303
25455W        W96055  21.449  30.532  13.600
25456W        W96056  19.439  31.947  14.226
25457W        W96057   8.790  11.365  14.022
25458W        W96058   9.281  16.258   1.700
25459W        W96059   5.394  42.773   2.780
25460W        W96060  20.122  19.204  14.976
25461W        W96061  32.918  27.528   2.639
25462W        W96062  11.053  30.363   3.592
25463W        W96063  35.938   1.284  12.508
25464W        W96064  10.197   2.761  13.439
25465W        W96065  25.637  16.561  13.397
25466W        W96066  31.565  35.925   1.149
25467W        W96067   9.829  22.065   3.080
25468W        W96068  21.141   6.842   3.768
25469W        W96069   1.684  44.723   3.722
25470W        W96070  10.816   7.642  13.115
25471W        W96071  10.214  33.865  13.604
25472W        W96072   8.852  10.845  13.921
25473W        W96073  43.248  15.754  13.390
25474W        W96074  15.308  39.527   4.701
25475W        W96075  20.140   8.373  13.923
25476W        W96076  22.750  24.333  14.943
25477W        W96077  13.156  39.097   4.551
25478W        W96078  24.514  23.259   2.653
25479W        W96079  14.624  30.912  12.918
25480W        W96080  14.208  36.255  14.432
25481W        W96081   6.984  27.620   2.242
25482W        W96082  27.002  16.512   4.215
25483W        W96083  32.070  42.905   2.695
25484W        W96084  20.659  13.569   0.315
25485W        W96085  31.392  34.871   2.654
25486W        W96086   4.319  19.586  11.936
25487W        W96087  13.602  16.159   4.059
25488W        W96088  10.243  13.750   0.704
25489W        W96089  37.162  14.402  14.798
25490W        W96090   3.910  36.113  13.329
25491W        W96091  18.877  15.158  13.969
25492W        W96092  24.235  18.282  13.833
25493W        W96093  18.741  14.616   3.212
25494W        W96094  12.603  39.600  14.042
25495W        W96095  12.772  11.723  13.255
25496W        W96096  42.457  42.207  13.167
25497W        W96097  36.051   5.894   0.837
25498W        W96098   1.473  20.665  10.644
25499W        W96099  16.595  31.354   3.746
25500W        W96100  39.810  27.022   1.328
25501W        W96101  22.240  30.597  11.061
25502W        W96102   2.745  29.878  11.573
25503W        W96103  28.040  13.555  13.158
25504W        W96104  37.255  22.484   2.837
25505W        W96105  32.708  32.123   0.382
25506W        W96106  37.380  39.874  12.543
25507W        W96107   0.901  30.376  14.395
25508W        W96108  16.288  25.907  12.408
25509W        W96109  13.227  44.276  11.613
25510W        W96110   8.896  32.248  11.625
25511W        W96111  16.513  32.908  10.613
25512W        W96112   0.859  14.711  13.637
25513W        W96113  20.632  43.734  13.523
25514W        W96114  37.621  32.344  11.253
25515W        W96115   4.153   8.387  12.399
25516W        W96116  23.040  19.526  11.990
25517W        W96117  12.264   7.245   2.289
25518W        W96118  12.847  35.660  14.874
25519W        W96119   3.933  42.303   4.844
25520W        W96120  16.039  17.126   4.999
25521W        W96121  29.060  39.840   1.942
25522W        W96122  26.278  39.665  14.305
25523W        W96123   8.267   0.937  13.800
25524W        W96124  38.774  13.889   9.998
25525W        W96125  23.438  23.966   1.965
25526W        W96126  25.953  16.285  11.533
25527W        W96127  12.186   1.343  11.252
25528W        W96128   4.203  16.762   4.544
25529W        W96129  31.921  26.985   5.053
25530W        W96130  20.885  37.500   3.790
25531W        W96131   0.330  35.920   0.840
25532W        W96132   4.880  19.626   1.902
25533W        W96133  27.607  39.045   3.844
25534W        W96134   5.933  41.964   3.161
25535W        W96135  33.466  17.080   0.291
25536W        W96136  20.863  31.915  12.555
25537W        W96137  32.714  18.103   0.007
25538W        W96138   3.248  33.004   1.449
25539W        W96139   0.172  12.586  12.463
25540W        W96140  12.541  14.694  14.546
25541W        W96141  33.005  31.873  11.434
25542W        W96142  12.334  10.154  14.014
25543W        W96143  18.847  23.350   2.834
25544W        W96144  19.488  24.990  13.634
25545W        W96145  33.009  34.719  13.462
25546W        W96146  29.973  18.050  13.900
25547W        W96147  42.847  27.773   4.279
25548W        W96148  25.478  13.659  13.976
25549W        W96149   0.560  34.383  11.597
25550W        W96150  41.646   6.272  11.873
25551W        W96151  38.287   6.421   1.400
25552W        W96152  13.510  27.078   1.637
25553W        W96153   3.903  22.054   3.266
25554W        W96154  18.130  13.705   0.054
25555W        W96155  42.314   0.295  11.476
25556W        W96156   5.192  24.169  12.111
25557W        W96157  31.437  14.312   3.824
25558W        W96158   7.393   0.940   4.520
25559W        W96159  15.204  16.708   3.577
25560W        W96160  32.090  32.501   2.142
25561W        W96161  13.042  23.570   1.926
25562W        W96162  28.157  14.858  13.982
25563W        W96163   2.360  14.068   2.103
25564W        W96164  27.466   5.163  13.814
25565W        W96165   7.207  39.815   0.247
25566W        W96166  34.765  14.279   5.044
25567W        W96167   3.746  12.174   1.368
25568W        W96168  29.835  39.487   1.780
25569W        W96169  29.603  34.238  12.125
25570W        W96170  40.567  44.786   3.347
25571W        W96171  12.807  21.156  14.101
25572W        W96172   9.146  15.737   4.518
25573W        W96173  20.723  15.831  13.895
25574W        W96174  29.364  10.446   4.030
25575W        W96175  38.321  39.992  14.242
25576W        W96176  18.276   1.328  13.037
25577W        W96177  27.017  39.114  14.814
25578W        W96178  16.681  16.833   4.766
25579W        W96179   6.661   4.409   4.610
25580W        W96180   3.963  44.899   2.394
25581W        W96181   8.670  25.487   4.021
25582W        W96182  42.310   2.247  14.397
25583W        W96183  28.084   8.008  12.469
25584W        W96184  41.421  13.102  13.943
25585W        W96185  14.147  42.760  12.786
25586W        W96186  23.140  14.499  13.324
25587W        W96187  21.445   3.060   1.233
25588W        W96188   7.468  19.630   1.315
25589W        W96189   4.701  33.026   4.120
25590W        W96190   7.282  35.036   1.764
25591W        W96191   3.557  18.523  14.717
25592W        W96192  12.598  26.015   4.352
25593W        W96193  41.259  28.492   4.412
25594W        W96194  28.746  22.777   2.750
25595W        W96195  16.704  18.250   4.046
25596W        W96196  19.182  35.587  13.129
25597W        W96197  42.839  11.029  14.950
25598W        W96198  15.099  16.725  10.682
25599W        W96199  13.579  25.746   3.543
25600W        W96200  37.938   4.241  14.097
25601W        W96201  27.478  14.422  12.827
25602W        W96202  11.521  15.650  14.532
25603W        W96203  33.669   8.144   1.205
25604W        W96204   2.752   1.256  11.923
25605W        W96205   0.905   4.757  12.734
25606W        W96206  33.163  42.800   4.077
25607W        W96207  14.621  10.267   2.688
25608W        W96208  22.489  29.127  13.145
25609W        W96209  21.758  15.128  13.482
25610W        W96210  27.940   2.832  10.515
25611W        W96211  30.148  36.588  14.419
25612W        W96212  24.221  21.664   3.682
25613W        W96213   3.234  42.499  14.347
25614W        W96214   9.258  11.642  13.869
25615W        W96215  23.591  21.065   4.056
25616W        W96216  44.344  28.683  12.990
25617W        W96217  16.049  24.924  14.947
25618W        W96218  40.768  12.888   2.730
25619W        W96219  30.929   1.749   2.861
25620W        W96220  42.113  33.909  10.623
25621W        W96221  26.820  11.849  11.634
25622W        W96222  22.982  21.174   3.671
25623W        W96223  14.240  21.590  11.519
25624W        W96224   5.481  20.103  14.748
25625W        W96225  16.167  30.504   1.153
25626W        W96226   9.268  29.552   3.036
25627W        W96227  15.855  32.728   9.785
25628W        W96228  40.693   3.466   4.189
25629W        W96229  26.461   5.239   2.946
25630W        W96230  21.739  28.838  14.441
25631W        W96231  38.838  44.157  10.725
25632W        W96232  13.199  43.780   1.008
25633W        W96233  43.779  21.046  14.922
25634W        W96234  38.456  12.374  13.555
25635W        W96235  38.373  16.780   2.779
25636W        W96236   4.158  14.629  11.803
25637W        W96237  39.156  42.839   4.524
25638W        W96238  30.086   1.380   4.516
25639W        W96239  13.157  20.196   0.004
25640W        W96240  20.654  22.447   2.371
25641W        W96241  15.310  26.025   0.737
25642W        W96242  37.876  14.115  12.069
25643W        W96243  30.061  24.482  13.750
25644W        W96244  21.291  34.659  11.778
25645W        W96245  23.457   5.185  11.250
25646W        W96246  40.383  43.562  14.256
25647W        W96247   7.929  16.535  11.950
25648W        W96248  38.228  26.913  10.807
25649W        W96249  27.030   9.211  10.526
25650W        W96250  42.322   3.629  12.482
25651W        W96251   1.721  24.095   1.643
25652W        W96252   0.449  19.595  12.005
25653W        W96253  20.168  41.075  11.480
25654W        W96254   1.366   1.172  11.942
25655W        W96255   8.931  26.670   0.913
25656W        W96256  20.574  38.600  14.999
25657W        W96257  30.041  33.914  12.670
25658W        W96258  15.185  30.961   2.318
25659W        W96259  35.225  31.251  11.263
25660W        W96260   0.172  24.006   2.427
25661W        W96261  41.820  12.193  14.591
25662W        W96262  41.026  24.096   0.263
25663W        W96263   8.285  14.151  12.933
25664W        W96264  26.032   8.487   4.694
25665W        W96265  41.029   6.992   1.972
25666W        W96266   7.882  44.069   3.185
25667W        W96267   6.016  16.136   1.035
25668W        W96268  22.695  23.437   2.234
25669W        W96269  35.095  39.300   3.763
25670W        W96270  22.491   9.804   5.023
25671W        W96271  23.769  23.747   0.382
25672W        W96272   2.997  26.998  11.597
25673W        W96273  35.923  36.371   1.874
25674W        W96274   5.020  31.281  11.419
25675W        W96275  17.258  18.544  12.144
25676W        W96276  43.495  37.594   1.231
25677W        W96277  36.509   3.192  11.075
25678W        W96278  22.540  43.941  14.908
25679W        W96279   0.019  30.632   1.698
25680W        W96280   5.219   8.112   4.140
25681W        W96281  19.270  14.202  12.913
25682W        W96282  10.743  10.355  13.493
25683W        W96283  39.920  24.385   4.649
25684W        W96284  13.604  16.603   0.863
25685W        W96285  35.369  15.131  12.002
25686W        W96286  23.565  26.852   3.182
25687W        W96287   6.022   5.749  12.982
25688W        W96288  39.494  17.393   0.049
25689W        W96289  38.864  10.807   4.671
25690W        W96290   5.672  35.227   3.282
25691W        W96291  21.078  14.101   4.889
25692W        W96292  43.815  44.841   4.842
25693W        W96293  32.129  19.566   2.664
25694W        W96294   9.209  36.980   3.655
25695W        W96295   5.374   3.025  11.400
25696W        W96296  36.961  31.457  14.030
25697W        W96297  14.504  38.511   1.266
25698W        W96298  14.673  31.171  10.711
25699W        W96299  41.566  44.184  10.328
25700W        W96300   4.935   6.405   1.280
25701W        W96301  26.217  32.307   1.791
25702W        W96302  26.187  11.181   4.186
25703W        W96303  36.988  13.367   4.162
25704W        W96304  33.082  35.283   1.849
25705W        W96305  30.234  25.122  12.130
25706W        W96306  39.364  38.384  14.786
25707W        W96307   3.394  42.677  14.849
25708W        W96308   3.681  35.408  12.455
25709W        W96309   8.658   5.792   1.731
25710W        W96310  19.797  10.097   1.722
25711W        W96311  27.829  26.045   4.185
25712W        W96312  31.912  33.368   1.450
25713W        W96313  10.112   7.433   2.769
25714W        W96314  28.621  13.829  10.478
25715W        W96315  25.702  29.020  13.607
25716W        W96316  10.173  43.828  13.289
25717W        W96317  19.031  11.039  14.989
25718W        W96318  22.985  35.791   0.437
25719W        W96319   5.717   3.774  14.128
25720W        W96320   3.714  15.288  13.858
25721W        W96321  32.502  10.402  13.522
25722W        W96322  33.358  41.359  12.089
25723W        W96323  38.018  31.936  11.714
25724W        W96324   1.503  44.879   4.178
25725W        W96325  16.753  39.946  10.561
25726W        W96326  16.661  34.494  11.917
25727W        W96327  28.280  33.526   1.568
25728W        W96328  37.598   6.663   2.781
25729W        W96329  20.752  43.893  11.275
25730W        W96330  42.127  28.152   2.050
25731W        W96331  30.711   7.275  14.322
25732W        W96332  24.681  44.199  13.939
25733W        W96333   6.149  42.813  11.986
25734W        W96334  24.017  26.512  12.874
25735W        W96335  43.410  26.375  13.454
25736W        W96336  16.120   6.351   4.387
25737W        W96337  22.523  24.129  10.190
25738W        W96338   9.148  19.766  14.871
25739W        W96339  11.715  30.187  11.515
25740W        W96340  41.819   4.545   0.581
25741W        W96341   8.901  19.347  13.873
25742W        W96342  23.067  21.001   1.882
25743W        W96343  14.292  44.334   0.802
25744W        W96344   1.896  40.044   1.068
25745W        W96345  38.577  18.671  10.615
25746W        W96346   7.119   9.497  14.230
25747W        W96347  25.821   7.307   1.789
25748W        W96348  11.794  12.581   2.804
25749W        W96349   3.810  12.195   2.416
25750W        W96350  19.101  21.751  10.655
25751W        W96351  34.882  31.061  10.916
25752W        W96352  39.794   8.204   2.423
25753W        W96353   5.068  19.040   1.034
25754W        W96354  34.130   1.672  13.894
25755W        W96355  20.893  18.593  14.877
25756W        W96356  24.254   0.296   1.600
25757W        W96357  36.426  32.060  13.474
25758W        W96358  18.285  22.011  12.997
25759W        W96359   9.569  32.926   3.336
25760W        W96360  35.335  44.952   1.888
25761W        W96361  38.418  31.540   4.937
25762W        W96362   7.509  26.514   2.871
25763W        W96363  22.725  30.899   0.239
25764W        W96364   1.497  38.845  14.504
25765W        W96365  19.305  16.541   2.777
25766W        W96366  40.315  41.494   3.362
25767W        W96367  38.581  37.389   2.787
25768W        W96368   0.335  23.549   0.926
25769W        W96369  32.851  42.025  13.930
25770W        W96370  44.456   7.827   4.716
25771W        W96371  30.968  25.626  12.162
25772W        W96372  43.850  20.633  10.720
25773W        W96373  39.096  20.291   1.286
25774W        W96374  42.359  16.156   4.599
25775W        W96375  39.130  21.302  13.179
25776W        W96376  13.841  20.305  11.397
25777W        W96377  26.249  41.098   2.772
25778W        W96378  41.419   1.608   1.961
25779W        W96379   7.237  12.275   0.730
25780W        W96380   5.477   9.744  14.348
25781W        W96381  22.807  10.628   1.383
25782W        W96382  20.573  28.402  11.469
25783W        W96383  33.062  41.521  14.770
25784W        W96384   2.846   8.197  11.165
25785W        W96385  32.948  25.137   0.409
25786W        W96386  29.589  37.000   3.623
25787W        W96387  33.846  31.878   2.811
25788W        W96388   5.390  19.704  12.567
25789W        W96389  41.790  23.955  14.349
25790W        W96390  11.352  16.572  12.151
25791W        W96391  13.420  17.251   1.267
25792W        W96392  42.745  24.795  13.183
25793W        W96393  37.493   8.837  13.432
25794W        W96394  37.849  26.681   3.808
25795W        W96395   8.213  34.811   0.332
25796W        W96396  26.741  37.140  12.011
25797W        W96397  13.753  19.469   0.869
25798W        W96398  21.904  16.753  14.960
25799W        W96399   2.679  15.586  14.499
25800W        W96400   9.491  42.194  12.993
25801W        W96401  18.840   6.248   3.848
25802W        W96402  35.051  11.283  12.627
25803W        W96403  23.372  34.062   0.907
25804W        W96404  30.888   0.064  11.965
25805W        W96405   9.843  18.695   1.253
25806W        W96406  10.090  36.391  10.889
25807W        W96407  20.440  40.478  12.097
25808W        W96408  15.292  14.584   3.695
25809W        W96409  36.342   8.722   2.926
25810W        W96410   5.124  20.668   4.149
25811W        W96411   4.248   6.783  12.524
25812W        W96412  24.177  15.253  14.742
25813W        W96413   0.239  31.656  11.982
25814W        W96414  30.463  39.060  14.433
25815W        W96415  43.996  25.994  12.075
25816W        W96416  24.087  15.576   4.668
25817W        W96417  39.441  39.756   4.653
25818W        W96418   2.478  24.687  12.873
25819W        W96419   2.377  24.165  11.220
25820W        W96420  37.116  43.528   1.414
25821W        W96421  28.984  14.863   4.404
25822W        W96422  12.901  10.874  14.892
25823W        W96423   2.184   4.779  14.508
25824W        W96424   6.470   0.313  10.996
25825W        W96425   6.952  21.614  13.003
25826W        W96426  37.613   4.715   0.202
25827W        W96427  37.008  17.309   3.096
25828W        W96428  36.059   3.742   0.838
25829W        W96429   1.907  16.372  13.451
25830W        W96430  30.178   6.656   2.818
25831W        W96431  26.140  38.453  12.528
25832W        W96432  37.008  23.697   1.439
25833W        W96433   4.544  31.285  11.661
25834W        W96434  34.425  11.562  12.068
25835W        W96435  28.568   0.327   1.480
25836W        W96436  10.762  14.630   0.148
25837W        W96437  13.702  19.655   2.663
25838W        W96438  44.351  13.902  12.942
25839W        W96439  42.896  31.146   5.005
25840W        W96440   0.468  18.045  14.804
25841W        W96441  36.452   5.827  12.599
25842W        W96442  43.249  25.792   4.382
25843W        W96443  28.138  40.911   3.182
25844W        W96444   8.550  21.620  11.988
25845W        W96445  14.300  41.078  14.952
25846W        W96446  40.812  23.992  12.113
25847W        W96447  37.128  16.299   1.506
25848W        W96448  15.715  27.604   5.636
25849W        W96449   7.147  24.119   2.163
25850W        W96450  15.674  35.460   2.963
25851W        W96451  10.830  41.465  11.941
25852W        W96452  40.306  41.313   4.243
25853W        W96453  25.466  11.569   0.263
25854W        W96454   4.849  12.864  14.878
25855W        W96455  29.195  43.837   3.893
25856W        W96456  10.265   6.909   0.409
25857W        W96457  18.359   2.430  10.990
25858W        W96458   5.725   8.903   2.163
25859W        W96459  24.160  13.229  13.950
25860W        W96460  34.146  28.995  11.178
25861W        W96461  34.869   5.722   3.351
25862W        W96462   4.464  27.222   2.881
25863W        W96463  38.292  43.744   1.635
25864W        W96464  14.694  40.426  11.590
25865W        W96465   5.691  40.872   4.306
25866W        W96466  38.921  27.828   4.654
25867W        W96467   6.853   0.312   0.958
25868W        W96468   1.286   6.626   0.962
25869W        W96469  43.916  19.024  10.681
25870W        W96470   4.453  21.512  11.089
25871W        W96471  20.789  17.976  11.893
25872W        W96472  42.942  38.193   4.927
25873W        W96473  36.915  16.934   0.668
25874W        W96474  40.723  14.582   0.760
25875W        W96475   8.818  24.996   2.361
25876W        W96476  37.643  31.841  14.385
25877W        W96477  31.838  21.023  12.497
25878W        W96478  32.969  39.384   0.372
25879W        W96479  40.536  13.758  12.337
25880W        W96480   4.159  40.817   2.375
25881W        W96481   0.305   8.222  13.098
25882W        W96482   5.723  26.931   1.297
25883W        W96483  41.678  28.629   4.710
25884W        W96484   1.233   6.461   0.314
25885W        W96485  27.088  24.672  12.521
25886W        W96486  17.737  12.470  11.563
25887W        W96487   4.461   8.339   3.658
25888W        W96488  22.422  36.937   3.201
25889W        W96489  37.571  36.645  11.538
25890W        W96490  21.090  27.165   3.760
25891W        W96491  41.576  18.119   3.159
25892W        W96492  27.071  38.299  10.653
25893W        W96493  24.081  23.093  14.521
25894W        W96494  30.744  15.238   3.088
25895W        W96495  20.159   8.102   0.214
25896W        W96496  17.070  13.855  12.610
25897W        W96497  27.420  36.913   1.247
25898W        W96498  23.126  35.210  14.014
25899W        W96499  20.508  11.205   3.248
25900W        W96500  12.704   8.153  14.425
25901W        W96501  26.844   4.330   0.413
25902W        W96502  31.044  35.529   1.268
25903W        W96503  21.687  40.466   4.356
25904W        W96504  21.706  24.883   4.645
25905W        W96505  31.527  19.718  13.520
25906W        W96506   0.264  22.219   0.828
25907W        W96507  26.690   4.609   9.860
25908W        W96508  30.438  36.865  10.620
25909W        W96509   1.659  23.629  12.899
25910W        W96510   9.197   6.254  12.940
25911W        W96511   7.727  13.395  13.898
25912W        W96512   3.922  43.723   3.228
25913W        W96513  16.768  21.193   1.331
25914W        W96514   4.660   9.132   1.958
25915W        W96515   5.353  40.916   2.911
25916W        W96516  27.191  29.119   0.816
25917W        W96517  41.479  43.933  10.756
25918W        W96518  35.063  43.477  13.266
25919W        W96519   9.726  14.187   4.616
25920W        W96520  36.064   6.178  13.531
25921W        W96521   2.040  42.932   5.313
25922W        W96522  35.138  44.583   2.250
25923W        W96523  17.691  10.403   3.742
25924W        W96524  30.015  17.187  11.935
25925W        W96525   8.708  40.467   3.664
25926W        W96526  21.817  42.368  14.217
25927W        W96527  20.594   4.651   3.699
25928W        W96528   5.111  21.002  14.295
25929W        W96529  21.237  39.714  10.769
25930W        W96530  30.431   9.890   1.410
25931W        W96531  35.467  20.993   2.694
25932W        W96532  28.913  11.277   0.710
25933W        W96533  11.089  28.711   1.833
25934W        W96534  17.727  10.495   4.253
25935W        W96535  13.293  29.819  13.909
25936W        W96536   3.457  43.595  12.433
25937W        W96537  41.792  36.103  11.149
25938W        W96538  29.713  14.454   1.752
25939W        W96539  28.501  18.948   4.121
25940W        W96540  32.339  22.765  14.982
25941W        W96541  25.751   3.347   9.979
25942W        W96542  37.764  38.120   0.063
25943W        W96543  34.106   2.467  11.400
25944W        W96544   0.590  30.335   2.679
25945W        W96545   6.036   3.938   1.823
25946W        W96546  34.419  10.785   0.399
25947W        W96547  43.459  20.993   1.143
25948W        W96548  12.995   8.864   3.036
25949W        W96549  14.600  24.412   1.762
25950W        W96550   5.424  37.859  13.789
25951W        W96551  39.083  15.185  14.477
25952W        W96552  42.861  36.164  10.858
25953W        W96553   6.643  29.010   3.840
25954W        W96554   7.128  16.250  13.379
25955W        W96555   1.224  39.046   2.869
25956W        W96556  18.280  33.645  12.920
25957W        W96557  29.724  15.148  14.927
25958W        W96558  20.023  17.711   0.694
25959W        W96559  44.373  42.857   3.857
25960W        W96560  13.581  24.233  12.323
25961W        W96561  40.458  28.916  11.460
25962W        W96562  33.914  38.871  13.301
25963W        W96563  21.156  16.318  14.982
25964W        W96564  42.286  24.170   3.677
25965W        W96565  19.071  32.856   4.558
25966W        W96566  43.835  36.556   3.255
25967W        W96567  22.546   1.656   3.367
25968W        W96568  40.959   3.594   4.612
25969W        W96569  36.598  13.241   4.484
25970W        W96570  28.129  23.741  13.101
25971W        W96571  19.709  44.931   2.678
25972W        W96572  43.686  31.971  13.257
25973W        W96573   3.050  20.614   1.334
25974W        W96574  42.422  33.386  12.778
25975W        W96575  25.132  15.339   3.344
25976W        W96576  36.881  15.533  10.679
25977W        W96577  14.119  19.635  11.921
25978W        W96578  29.491  30.354   1.905
25979W        W96579  12.620  30.094   2.804
25980W        W96580  17.133  37.129  14.937
25981W        W96581  27.517  38.766  12.000
25982W        W96582  39.137  10.200  12.087
25983W        W96583  33.346  43.786   0.451
25984W        W96584  28.959   4.485  14.102
25985W        W96585   6.426  27.320  10.048
25986W        W96586  37.578  39.939  11.179
25987W        W96587   7.414  37.377   0.397
25988W        W96588  23.007   1.270   1.803
25989W        W96589  26.984  12.059  14.419
25990W        W96590  41.591  21.674   3.458
25991W        W96591  24.156  40.992   4.309
25992W        W96592  24.346  35.006   1.873
25993W        W96593  13.574  17.702   0.752
25994W        W96594  12.163  23.064  11.918
25995W        W96595  17.228  34.012   0.459
25996W        W96596  27.171  31.864  11.390
25997W        W96597   7.176  43.045  13.786
25998W        W96598  39.508  27.949   0.776
25999W        W96599  27.963  15.832  11.635
26000W        W96600  16.928  14.818  14.765
26001W        W96601  41.990  15.714   1.420
26002W        W96602  37.604  12.997   1.523
26003W        W96603   3.255  27.669  10.574
26004W        W96604   1.806  44.779   2.158
26005W        W96605  26.212   1.859  13.652
26006W        W96606   0.012  14.723   3.757
26007W        W96607  19.068  41.520   0.925
26008W        W96608  27.098  25.217   0.945
26009W        W96609  38.793  15.112  13.158
26010W        W96610   5.786  18.722   2.423
26011W        W96611  34.519  13.863  14.863
26012W        W96612  10.780  39.780  14.769
26013W        W96613  35.525  11.287  14.904
26014W        W96614   1.763  33.298   2.311
26015W        W96615  41.394  23.816   3.868
26016W        W96616  35.119  40.512   4.647
26017W        W96617  14.291  19.025  12.380
26018W        W96618  19.542   6.917  12.139
26019W        W96619  14.089  23.547  14.391
26020W        W96620   3.611  36.084  14.914
26021W        W96621  35.116  36.446   1.342
26022W        W96622  13.261  12.371   1.651
26023W        W96623  14.717  23.145   2.737
26024W        W96624  38.406  33.932  10.732
26025W        W96625  26.770   9.806   0.750
26026W        W96626  15.841  17.589  12.118
26027W        W96627  10.853  34.929  12.409
26028W        W96628  37.839  15.262  10.786
26029W        W96629  34.519   5.417   4.621
26030W        W96630  17.707  15.748  11.902
26031W        W96631  15.579  36.499   4.082
26032W        W96632  37.100  35.891  14.923
26033W        W96633  33.333   4.279  14.935
26034W        W96634  35.615   5.283  12.003
26035W        W96635  37.573   6.271   4.658
26036W        W96636  18.168  18.892  12.451
26037W        W96637  14.580  16.237   1.243
26038W        W96638  20.859  44.322   2.397
26039W        W96639  21.140   4.487  13.423
26040W        W96640  29.555  28.979   1.287
26041W        W96641  36.575  20.515   1.968
26042W        W96642  11.264  10.863  10.900
26043W        W96643  22.775  24.184   4.159
26044W        W96644  42.820  16.365   4.482
26045W        W96645  18.747   9.754  10.582
26046W        W96646  21.017  39.357  12.522
26047W        W96647   5.327   7.776   0.252
26048W        W96648   6.185  30.138  14.444
26049W        W96649  20.246  37.117   2.731
26050W        W96650  20.015  16.194  12.082
26051W        W96651   1.946  24.822   0.494
26052W        W96652  23.589  11.258   1.356
26053W        W96653  10.604  36.360  10.985
26054W        W96654  34.482  11.684   4.890
26055W        W96655  43.086  31.437  12.990
26056W        W96656  44.473  31.677  12.656
26057W        W96657  43.861  10.179  13.737
26058W        W96658  28.133  35.081  14.976
26059W        W96659  24.979  14.105  11.785
26060W        W96660  12.129   6.712   3.190
26061W        W96661   8.582   6.023  12.356
26062W        W96662  32.131  17.050  14.526
26063W        W96663   0.520  41.262  14.588
26064W        W96664  41.337   3.797   0.832
26065W        W96665  21.741   4.866  10.635
26066W        W96666  12.886  36.006   1.242
26067W        W96667  25.053  19.558   4.666
26068W        W96668  16.161  11.786   1.990
26069W        W96669  30.479  10.253  12.189
26070W        W96670  41.784  27.031   2.586
26071W        W96671  16.937  24.299  12.028
26072W        W96672  29.157  13.274  12.619
26073W        W96673  20.120  23.970  12.003
26074W        W96674  27.047  16.596  14.997
26075W        W96675  27.688  26.951   0.877
26076W        W96676  39.035  31.310   1.935
26077W        W96677   5.055  28.533  13.716
26078W        W96678   7.236   6.400   1.839
26079W        W96679  18.596  39.437   3.716
26080W        W96680  14.555  10.840   0.946
26081W        W96681  42.049   3.872   3.092
26082W        W96682   5.228  42.251  12.967
26083W        W96683  31.068   4.355  12.403
26084W        W96684  28.993   4.271  11.537
26085W        W96685  13.196  29.132   3.129
26086W        W96686  33.374  28.108   2.401
26087W        W96687  24.656   4.359  13.410
26088W        W96688   9.188   0.809  12.908
26089W        W96689  37.428  33.722   4.502
26090W        W96690  25.361  14.287   2.018
26091W        W96691  13.858  23.941   1.784
26092W        W96692   4.950   9.206   0.016
26093W        W96693  41.472  34.692   4.649
26094W        W96694   6.372   6.713   3.665
26095W        W96695  27.915   9.665  13.592
26096W        W96696  27.991   1.913  14.331
26097W        W96697  21.666  13.327   4.318
26098W        W96698  28.696  21.067   1.306
26099W        W96699  11.161   0.355   2.926
26100W        W96700   8.800   4.298   4.384
26101W        W96701  13.109  38.905   1.790
26102W        W96702  39.910  32.707  11.023
26103W        W96703   5.835  30.744   0.192
26104W        W96704   1.357  36.467   3.729
26105W        W96705  19.242   6.726  12.537
26106W        W96706  16.396  12.153   2.246
26107W        W96707   9.451   9.767   2.828
26108W        W96708  13.647  37.459   3.663
26109W        W96709  12.614  10.498   4.926
26110W        W96710  11.566  17.082   3.748
26111W        W96711  13.850   5.903  13.367
26112W        W96712  42.744  37.132   3.757
26113W        W96713  15.115   5.896   2.880
26114W        W96714  33.289  30.532   1.862
26115W        W96715   7.709   3.049   4.986
26116W        W96716  43.891  37.615  12.391
26117W        W96717  11.112  20.858  14.790
26118W        W96718  19.157  31.264   3.813
26119W        W96719  28.512  26.422   4.236
26120W        W96720  28.468   8.926  13.497
26121W        W96721  39.723   5.323   3.381
26122W        W96722  43.907   9.118  10.615
26123W        W96723  44.645  14.879   1.569
26124W        W96724  18.209  16.306  11.464
26125W        W96725  21.850  31.117   3.816
26126W        W96726  38.841  23.172  13.371
26127W        W96727  21.677  43.037  13.060
26128W        W96728  25.964  42.427  12.998
26129W        W96729  34.645  34.366   1.959
26130W        W96730  28.725  17.745  11.482
26131W        W96731   2.273  16.596  12.522
26132W        W96732  36.507   5.674   0.776
26133W        W96733  30.537  43.017  14.646
26134W        W96734  28.531  10.904   0.849
26135W        W96735  25.058   6.659  14.507
26136W        W96736   7.424  19.511   4.596
26137W        W96737   2.982   7.403   3.904
26138W        W96738  42.050  17.741  11.116
26139W        W96739   8.867  17.633  14.446
26140W        W96740  37.147  25.013  13.039
26141W        W96741  17.157  40.802   2.308
26142W        W96742  36.806   8.644  12.870
26143W        W96743   3.273  19.160  11.634
26144W        W96744  28.694  34.575   2.364
26145W        W96745  43.327  35.669   5.155
26146W        W96746  24.481  22.114   3.973
26147W        W96747  36.956  20.757   2.224
26148W        W96748  28.056  38.079  14.570
26149W        W96749  18.592  44.511  13.938
26150W        W96750  20.484  11.456  10.625
26151W        W96751   9.214  32.071   4.251
26152W        W96752   4.271  42.778   4.379
26153W        W96753   8.774  41.244  13.764
26154W        W96754  38.021  29.108  14.513
26155W        W96755  39.412  37.896  13.896
26156W        W96756   7.059  30.940  12.400
26157W        W96757  37.283  38.349  10.209
26158W        W96758  24.907   7.825  12.607
26159W        W96759  41.610  42.835  11.827
26160W        W96760  40.235   9.105   3.909
26161W        W96761  32.289   3.627  10.038
26162W        W96762  12.843  41.857  12.718
26163W        W96763  28.419   6.873   3.378
26164W        W96764  13.812  25.128  12.999
26165W        W96765  33.854  30.020  13.781
26166W        W96766  16.185  40.772  13.491
26167W        W96767  20.710  41.763  14.815
26168W        W96768  20.829   9.610  14.799
26169W        W96769   4.730  20.322   4.097
26170W        W96770  40.156   0.151   1.166
26171W        W96771   4.366  12.854   0.785
26172W        W96772  14.741   5.358  14.822
26173W        W96773   8.366  37.113  14.141
26174W        W96774   4.913   8.383  12.119
26175W        W96775   7.418   2.783   0.473
26176W        W96776  24.602  23.096   3.791
26177W        W96777  26.693  19.104  13.915
26178W        W96778  22.130   2.778   0.746
26179W        W96779  43.934  25.739  13.836
26180W        W96780  39.230   6.211   1.162
26181W        W96781  37.464  38.917   4.128
26182W        W96782  25.579   3.515   4.947
26183W        W96783  28.893  30.572   2.275
26184W        W96784  18.283  16.269   4.858
26185W        W96785  10.239  44.874   3.763
26186W        W96786   0.266  42.942  12.420
26187W        W96787   2.804  14.854   2.106
26188W        W96788  18.249  22.049  14.917
26189W        W96789  19.192   1.761  13.078
26190W        W96790  31.848  19.564  11.223
26191W        W96791  33.482   1.203  13.367
26192W        W96792  23.129  32.657  13.837
26193W        W96793  25.002  11.797   2.704
26194W        W96794  27.426  32.958   1.265
26195W        W96795  21.127   7.653   3.768
26196W        W96796  21.352   6.111   1.319
26197W        W96797  11.095   0.792  12.044
26198W        W96798  22.097  23.552   2.716
26199W        W96799  38.855  43.608   4.206
26200W        W96800   9.916   5.899  11.613
26201W        W96801  39.653  28.900   2.282
26202W        W96802  41.943  24.773   4.999
26203W        W96803   3.749   0.447  13.765
26204W        W96804  28.948   6.334   3.229
26205W        W96805  34.482  29.660   3.675
26206W        W96806  43.880  22.640   0.825
26207W        W96807  17.758  24.745  12.258
26208W        W96808  35.538  42.540  14.778
26209W        W96809   8.389  18.632   3.710
26210W        W96810  14.900  37.682   3.691
26211W        W96811  12.096  21.900   4.184
26212W        W96812  34.516   7.330  14.407
26213W        W96813  30.043  26.865  14.966
26214W        W96814  35.017  36.674  12.202
26215W        W96815   8.906  12.582  13.405
26216W        W96816  27.345  44.521  12.522
26217W        W96817  13.736  42.367  13.787
26218W        W96818  34.858  11.199  13.955
26219W        W96819   6.797   3.505   3.524
26220W        W96820  17.112  39.964  13.926
26221W        W96821   5.129   6.729   0.920
26222W        W96822   7.630  17.049  11.016
26223W        W96823  37.971  12.077   4.205
26224W        W96824  40.016  19.734  12.831
26225W        W96825  25.359  27.233  12.965
26226W        W96826  26.034   5.248   3.736
26227W        W96827  40.151  30.495   1.860
26228W        W96828  32.568  16.380   0.821
26229W        W96829  13.580  25.148   4.123
26230W        W96830  21.861  39.628  13.068
26231W        W96831  32.148  15.574  12.791
26232W        W96832  25.668  31.688  13.508
26233W        W96833  39.378   1.711   2.684
26234W        W96834  19.506  24.168   4.516
26235W        W96835  16.631  23.554  10.626
26236W        W96836  13.630  19.798   3.281
26237W        W96837  43.355  42.856  11.990
26238W        W96838  20.761  34.898   0.789
26239W        W96839  43.982  33.467   0.354
26240W        W96840  39.510  27.377   3.212
26241W        W96841   6.044  13.659   5.049
26242W        W96842  27.955  10.258   2.821
26243W        W96843  26.778  10.090  12.597
26244W        W96844  30.746   3.791  13.326
26245W        W96845  19.984   3.395  13.396
26246W        W96846  18.883  29.490   0.187
26247W        W96847   8.027   2.272   1.141
26248W        W96848   5.341  11.587   4.411
26249W        W96849  17.890  12.295  13.758
26250W        W96850  24.541  21.111   3.161
26251W        W96851  24.048   6.340  12.569
26252W        W96852  30.076   0.001   1.790
26253W        W96853  37.190  44.176  11.569
26254W        W96854  44.898   9.371  14.881
26255W        W96855  27.822  14.073   0.056
26256W        W96856  16.132  25.592  11.464
26257W        W96857  40.725  42.893   3.639
26258W        W96858  23.318  23.387   0.176
26259W        W96859  24.445  23.027  13.000
26260W        W96860  42.457  14.153   0.271
26261W        W96861  38.358  13.577  12.153
26262W        W96862   2.870  14.714  11.676
26263W        W96863   4.042  13.120  14.265
26264W        W96864  36.992  15.705  12.568
26265W        W96865  17.315   6.343  12.049
26266W        W96866  43.928   1.409   3.045
26267W        W96867   6.759  36.852   4.612
26268W        W96868   0.472   7.696  14.574
26269W        W96869   4.697  12.881   1.960
26270W        W96870  39.948   8.543   2.820
26271W        W96871   0.858  36.660   2.778
26272W        W96872  18.476  12.260   4.156
26273W        W96873  44.963   9.161   4.573
26274W        W96874   8.553  20.751   0.164
26275W        W96875  29.632  36.085  13.071
26276W        W96876  12.064  29.749   1.255
26277W        W96877  33.589   6.235   5.189
26278W        W96878  31.770  13.003  11.536
26279W        W96879   8.660  30.909   2.129
26280W        W96880   4.007   0.906   2.837
26281W        W96881   3.657  34.483  13.236
26282W        W96882  40.318  15.966   4.565
26283W        W96883  24.181  25.435  13.044
26284W        W96884  24.242  11.171  12.981
26285W        W96885  15.145  29.602   1.066
26286W        W96886  27.638   5.944  13.942
26287W        W96887  33.146   3.596   2.714
26288W        W96888  44.447  20.237  12.606
26289W        W96889  16.340   1.928   0.660
26290W        W96890  19.110  30.721  12.045
26291W        W96891  25.778  35.096  12.755
26292W        W96892  41.913  43.485  14.953
26293W        W96893  44.016  20.206   4.552
26294W        W96894   5.040  18.769  13.940
26295W        W96895  25.209  38.786   1.375
26296W        W96896  33.649  32.635  10.078
26297W        W96897   2.597  17.244  11.440
26298W        W96898   0.888   3.528  11.986
26299W        W96899   5.884   7.874   4.428
26300W        W96900  41.050  30.002  10.730
26301W        W96901  37.315  42.993  13.502
26302W        W96902   3.222  35.793  11.638
26303W        W96903  29.766  11.306  10.527
26304W        W96904   8.369  42.971   2.295
26305W        W96905  41.941   9.898  13.803
26306W        W96906  28.919  24.208  13.104
26307W        W96907  34.129   6.457   4.797
26308W        W96908  36.390   3.058   3.827
26309W        W96909  13.532   4.247   1.397
26310W        W96910  16.325  11.337   0.930
26311W        W96911  14.569  12.423  14.908
26312W        W96912  14.580  31.096  11.198
26313W        W96913  13.251   7.354   4.217
26314W        W96914   6.251  10.846  12.757
26315W        W96915  19.605  33.118   3.709
26316W        W96916  13.399   7.199  11.530
26317W        W96917  36.543  19.535  10.802
26318W        W96918  44.207  16.734   0.711
26319W        W96919  40.117  34.522  11.140
26320W        W96920  39.298  24.394   2.696
26321W        W96921  38.430  23.858   4.607
26322W        W96922  42.331   7.866  12.524
26323W        W96923  12.608  33.377   3.965
26324W        W96924  43.339  14.820   3.995
26325W        W96925   1.794  37.524  14.565
26326W        W96926   9.751  41.793   1.474
26327W        W96927   4.182   5.550  14.677
26328W        W96928  31.452  43.231  14.666
26329W        W96929  12.808   9.736  13.509
26330W        W96930   3.984  11.320  10.684
26331W        W96931  21.078  37.252  10.731
26332W        W96932   1.745  41.899   1.526
26333W        W96933  19.642  29.443  11.025
26334W        W96934  36.002   3.091   0.275
26335W        W96935  25.577  37.584   4.141
26336W        W96936   0.060  10.772   3.349
26337W        W96937  38.553  16.739  12.892
26338W        W96938   6.652  38.309   1.848
26339W        W96939  18.339   9.629   0.884
26340W        W96940  23.741  30.943   3.830
26341W        W96941  28.512  41.289   1.433
26342W        W96942  15.487  29.294  14.338
26343W        W96943  41.336  39.514  11.671
26344W        W96944  11.207  10.919  11.898
26345W        W96945  43.015  30.373  12.890
26346W        W96946  36.874  40.299   1.337
26347W        W96947   1.871  10.560   1.283
26348W        W96948  11.128   3.530   1.259
26349W        W96949  30.454  17.601   2.234
26350W        W96950   6.086   3.753   3.184
26351W        W96951   7.914  14.667  13.524
26352W        W96952  37.548  18.211   2.173
26353W        W96953   4.893  23.667  13.627
26354W        W96954  34.172  21.955  10.959
26355W        W96955  13.844  16.127   0.807
26356W        W96956  22.270  40.734   1.667
26357W        W96957  32.893   5.103   0.129
26358W        W96958  11.761   7.891  14.110
26359W        W96959  27.427  27.413   2.772
26360W        W96960  18.470  10.667   2.282
26361W        W96961  13.241   1.697  10.239
26362W        W96962  13.832  40.620  10.739
26363W        W96963  17.051  41.477   0.854
26364W        W96964  41.994  44.808  11.187
26365W        W96965  13.783  16.951   4.156
26366W        W96966  33.039  16.785  14.201
26367W        W96967  34.162  30.472  14.959
26368W        W96968  39.842  20.549  12.489
26369W        W96969  18.589  25.961  11.213
26370W        W96970  10.204  23.524   0.807
26371W        W96971   0.913   4.939  11.434
26372W        W96972  32.176  19.517   1.626
26373W        W96973  27.741  39.899  14.724
26374W        W96974  28.151  17.187  11.509
26375W        W96975  34.919  27.160  12.355
26376W        W96976  32.832  10.326  13.945
26377W        W96977  41.859   2.003  14.486
26378W        W96978  44.015   8.597   2.370
26379W        W96979  15.141  34.961   1.144
26380W        W96980  31.411   6.768  11.988
26381W        W96981  23.841  44.003  13.136
26382W        W96982  29.471  21.008   2.076
26383W        W96983   3.415  43.087  12.458
26384W        W96984   0.764  30.347   0.780
26385W        W96985   3.798  32.539   3.052
26386W        W96986  10.884  22.048   3.159
26387W        W96987  10.444  14.238  14.997
26388W        W96988  20.787   0.022   4.221
26389W        W96989  36.898  42.713  10.552
26390W        W96990  25.411  41.264   5.125
26391W        W96991  13.565  32.343   4.097
26392W        W96992  31.689   2.313  13.937
26393W        W96993  16.631  29.325  14.730
26394W        W96994   2.831   9.688   0.996
26395W        W96995  38.072  21.851  11.800
26396W        W96996  37.360  38.444  11.261
26397W        W96997  19.381   4.564  11.202
26398W        W96998  37.145  37.769  13.457
26399W        W96999   2.731  14.365   3.260
26400W        W97000   1.813  39.288   1.776
26401W        W97001  12.873  30.548  14.110
26402W        W97002  19.487  19.217   2.675
26403W        W97003  41.995  22.242  13.553
26404W        W97004  11.992  27.016  12.001
26405W        W97005  16.732  19.508   1.626
26406W        W97006   5.178   3.947  11.513
26407W        W97007  33.514  21.396   3.763
26408W        W97008  12.296  24.421  13.103
26409W        W97009  35.983  15.827   0.744
26410W        W97010  44.115  25.280   0.131
26411W        W97011  26.489  43.558  13.348
26412W        W97012   7.783  24.003   3.741
26413W        W97013  13.686  32.231  13.159
26414W        W97014   0.557  34.344   1.912
26415W        W97015  43.204  28.628   2.156
26416W        W97016  21.536  26.930   2.171
26417W        W97017  35.915  31.978   2.205
26418W        W97018  14.656   2.430   0.507
26419W        W97019  40.895   4.256  10.997
26420W        W97020  33.780  35.423  14.849
26421W        W97021  31.502  32.046   2.760
26422W        W97022  14.244  35.112   1.763
26423W        W97023   3.749  27.981  13.342
26424W        W97024  40.870  21.674   1.855
26425W        W97025  39.090   4.573   2.684
26426W        W97026  35.358  39.355   4.209
26427W        W97027  29.542  20.766  14.377
26428W        W97028  42.460  29.471  12.463
26429W        W97029  34.069   3.398   3.149
26430W        W97030   5.669   2.633   1.319
26431W        W97031  40.992  13.734   2.366
26432W        W97032  40.981   0.469  12.078
26433W        W97033   5.899  28.288  11.166
26434W        W97034   7.759  40.589   1.599
26435W        W97035   6.262  28.722   2.325
26436W        W97036  12.168  33.288   2.453
26437W        W97037   5.574   7.962  11.068
26438W        W97038  39.131  26.440  14.491
26439W        W97039  26.151  16.272   3.272
26440W        W97040  38.276  24.448  11.023
26441W        W97041   2.387  32.982  13.026
26442W        W97042  40.811  16.821   3.660
26443W        W97043  33.020   0.026  11.590
26444W        W97044   5.122   1.047  14.570
26445W        W97045  32.167   4.896   2.780
26446W        W97046  38.067  33.959  13.363
26447W        W97047  10.199  23.816   3.317
26448W        W97048   3.654  22.515   2.447
26449W        W97049   0.569  24.150   4.295
26450W        W97050  35.546  23.058   4.118
26451W        W97051  37.021  14.214  13.320
26452W        W97052  19.575  36.853   0.864
26453W        W97053  21.247   0.359  13.457
26454W        W97054   6.640   6.578  14.492
26455W        W97055  23.669  39.232   4.524
26456W        W97056  24.905  30.862  12.937
26457W        W97057  41.859  13.624  10.616
26458W        W97058  21.354  37.627  12.057
26459W        W97059   3.679  17.263   4.770
26460W        W97060  44.333   4.607   4.302
26461W        W97061  42.904  15.615  10.393
26462W        W97062  39.407  33.145   1.798
26463W        W97063  26.518  26.191  14.771
26464W        W97064  37.819  27.580   0.365
26465W        W97065   1.972  11.995  13.519
26466W        W97066  36.678  28.530  14.451
26467W        W97067  36.000  31.700   4.815
26468W        W97068  14.740  39.551  13.393
26469W        W97069   2.473  27.464  12.656
26470W        W97070   8.894   1.240  12.869
26471W        W97071   3.643  20.270  14.047
26472W        W97072  37.992  44.089  13.332
26473W        W97073   4.709   3.320  13.436
26474W        W97074  11.093  29.943  12.449
26475W        W97075  10.658  28.863  10.743
26476W        W97076  17.119  44.393   1.642
26477W        W97077  40.555  43.051   1.342
26478W        W97078   3.141  27.404  11.898
26479W        W97079  30.464  30.678   3.736
26480W        W97080   7.254  33.111   3.588
26481W        W97081  33.819  15.615  12.485
26482W        W97082  44.314  41.521  11.990
26483W        W97083  40.348   0.414  13.781
26484W        W97084  15.091  15.043  13.927
26485W        W97085  28.574   6.639  12.018
26486W        W97086   5.352  23.465   2.277
26487W        W97087  15.542  32.946   0.524
26488W        W97088  18.181   2.331   0.739
26489W        W97089  16.555   5.759   3.606
26490W        W97090  24.619  10.522  11.208
26491W        W97091  19.101  20.648  10.596
26492W        W97092  32.582  44.292   1.241
26493W        W97093  30.138  15.308  14.072
26494W        W97094  43.181  10.833  14.573
26495W        W97095   1.750   1.179   2.343
26496W        W97096  40.568   6.818   2.913
26497W        W97097  43.449  42.541  10.726
26498W        W97098  12.686  20.902  11.663
26499W        W97099  29.920  21.519   3.776
26500W        W97100  25.271  14.597   1.615
26501W        W97101  15.320  31.974  13.389
26502W        W97102  26.536  23.220   0.440
26503W        W97103  20.928  19.631  10.270
26504W        W97104  31.868  19.845  11.677
26505W        W97105  18.208  23.529  14.791
26506W        W97106  21.661  14.669  13.766
26507W        W97107  23.253  25.391   0.341
26508W        W97108   9.558  29.924   2.830
26509W        W97109  23.232   9.662  11.681
26510W        W97110  25.459  16.563  11.849
26511W        W97111  36.888   7.373   1.699
26512W        W97112   9.320  23.596  13.831
26513W        W97113  23.463  28.901  11.484
26514W        W97114   8.006  30.115   4.034
26515W        W97115  37.491  20.634  11.558
26516W        W97116  10.359  12.097   4.983
26517W        W97117  38.244  19.279   9.878
26518W        W97118  31.925  26.871   2.682
26519W        W97119  15.823  24.164  10.382
26520W        W97120  17.257  23.095  12.080
26521W        W97121   1.739  14.555   4.183
26522W        W97122  12.427  27.586   3.755
26523W        W97123  17.905  13.274   3.614
26524W        W97124  33.799   7.840   3.259
26525W        W97125   6.281  19.187   2.718
26526W        W97126  21.164  18.407  13.253
26527W        W97127  27.502  19.475   3.178
26528W        W97128   6.839  34.388   4.186
26529W        W97129   7.681  25.263  13.928
26530W        W97130  17.016  43.934  11.162
26531W        W97131   2.990   5.441  13.460
26532W        W97132  22.499  11.678  13.433
26533W        W97133  22.013  30.274  11.588
26534W        W97134  20.792  42.386   1.851
26535W        W97135  28.384  14.289  10.326
26536W        W97136  34.167  31.728   3.187
26537W        W97137  13.109  33.166   1.780
26538W        W97138  36.061   3.403   4.022
26539W        W97139  34.152   5.837  11.146
26540W        W97140   7.156   9.389  13.421
26541W        W97141  22.972   3.555   5.001
26542W        W97142  36.052  18.991  13.953
26543W        W97143   2.452   5.018  12.164
26544W        W97144  18.566  29.720   0.510
26545W        W97145  17.580  37.686  14.314
26546W        W97146  28.540  24.091   4.640
26547W        W97147  12.242  11.545  12.080
26548W        W97148   4.773  21.074   0.065
26549W        W97149   6.964  27.546  10.801
26550W        W97150  23.550  17.132  13.426
26551W        W97151  43.277  26.799  12.423
26552W        W97152   5.189  10.326   1.882
26553W        W97153   1.797  20.208  11.025
26554W        W97154   4.733  16.617  11.047
26555W        W97155  27.970  24.878   4.137
26556W        W97156  10.793  37.939   3.809
26557W        W97157  14.293  11.720   2.415
26558W        W97158  19.776  18.213  11.961
26559W        W97159  26.091  36.589   3.260
26560W        W97160  37.061  15.745  13.994
26561W        W97161  38.012  43.989  10.639
26562W        W97162   5.743  31.985  10.679
26563W        W97163  22.435  40.316  14.988
26564W        W97164   6.607   6.801  14.983
26565W        W97165  16.245  30.092  11.511
26566W        W97166  33.375  32.881   4.651
26567W        W97167   5.324  12.189  13.038
26568W        W97168  18.802   6.007  11.030
26569W        W97169  28.656  19.052   1.459
26570W        W97170  12.623  24.968   0.076
26571W        W97171  44.560   0.962   3.734
26572W        W97172  41.765  37.061  14.915
26573W        W97173  41.903  43.070   4.541
26574W        W97174  24.500  16.870   3.321
26575W        W97175  44.311  27.552  12.444
26576W        W97176  18.001  39.728   2.343
26577W        W97177  42.784  43.028  14.618
26578W        W97178  22.219  16.066   1.285
26579W        W97179  42.479   1.712   4.334
26580W        W97180  12.070  33.069   3.313
26581W        W97181  12.302  26.577   2.140
26582W        W97182  16.868  16.191   0.778
26583W        W97183  43.827  22.801   4.731
26584W        W97184  43.821   1.262   1.724
26585W        W97185  31.350  29.557   0.273
26586W        W97186  36.474   7.924   4.067
26587W        W97187  41.169  24.932   4.041
26588W        W97188  35.584  21.789  14.352
26589W        W97189  38.424  18.328   3.736
26590W        W97190  21.594  10.161   0.727
26591W        W97191  17.086  40.701   0.445
26592W        W97192  19.258  38.646   2.416
26593W        W97193   1.886   4.521   4.119
26594W        W97194  19.216  40.418  12.842
26595W        W97195   4.665   9.355   2.889
26596W        W97196  42.388  11.635   1.697
26597W        W97197  35.335  30.642   2.953
26598W        W97198  12.899  29.951   1.217
26599W        W97199   6.282   4.751  12.817
26600W        W97200   9.656   4.823  12.940
26601W        W97201  20.660  29.546  14.055
26602W        W97202  37.576  43.969  13.074
26603W        W97203  16.503  40.444   2.585
26604W        W97204   3.006  23.103  14.356
26605W        W97205  20.169  19.072  13.444
26606W        W97206  15.689  17.528  10.647
26607W        W97207   7.875  42.658   3.838
26608W        W97208   0.827  11.546  14.821
26609W        W97209  35.059  31.367  13.846
26610W        W97210  33.571  39.581  10.221
26611W        W97211  23.146   9.227   3.596
26612W        W97212  11.810   7.950   3.418
26613W        W97213  28.176   5.783  13.964
26614W        W97214  43.713  16.761   1.664
26615W        W97215  31.442   4.432  13.364
26616W        W97216   9.094  23.924  14.997
26617W        W97217  36.996  40.957  10.564
26618W        W97218  10.231  31.940  10.700
26619W        W97219  39.985  42.892   2.876
26620W        W97220   5.611  26.484   3.275
26621W        W97221   5.364  21.265   4.731
26622W        W97222  10.318  43.058   4.256
26623W        W97223  32.180  30.648   1.312
26624W        W97224   8.746  34.512  14.016
26625W        W97225  33.630  40.292  10.823
26626W        W97226  31.514  36.317   2.416
26627W        W97227  24.254  40.107  13.108
26628W        W97228  41.179  35.038   3.258
26629W        W97229  18.774   4.249  11.140
26630W        W97230  16.734  23.586  14.795
26631W        W97231  18.952  27.613   1.799
26632W        W97232   0.744  25.470   0.067
26633W        W97233  40.067  35.334  10.510
26634W        W97234   1.818   0.544  12.023
26635W        W97235  14.661  37.812   2.839
26636W        W97236  35.976  35.130   3.251
26637W        W97237  34.567  22.318  13.874
26638W        W97238   4.542  36.249  12.102
26639W        W97239  38.544  10.138  10.758
26640W        W97240  18.346  42.826  10.539
26641W        W97241  36.438  22.255   1.380
26642W        W97242  26.315  24.503   1.803
26643W        W97243   8.178   6.150   4.523
26644W        W97244  34.150  19.674   1.834
26645W        W97245  22.467  35.930  13.470
26646W        W97246  17.846  42.031  11.523
26647W        W97247  35.907  25.186   0.413
26648W        W97248  42.955   5.895  12.476
26649W        W97249  33.626  10.852   9.956
26650W        W97250  19.025  35.849   3.750
26651W        W97251  21.821  33.133   0.262
26652W        W97252  10.299  35.297   0.332
26653W        W97253  39.954  29.018   2.697
26654W        W97254  43.793   3.537   3.812
26655W        W97255  21.684   2.727   4.314
26656W        W97256  37.343   9.813  11.592
26657W        W97257  33.474  28.890   2.865
26658W        W97258  39.892  22.641   4.486
26659W        W97259  25.401  14.336   2.698
26660W        W97260  34.842  40.585   1.315
26661W        W97261  30.870  29.731   0.390
26662W        W97262   6.194   0.732  10.878
26663W        W97263   2.368  25.445   1.478
26664W        W97264  29.717  40.323   0.380
26665W        W97265  33.871  17.606   3.696
26666W        W97266  20.753  36.321   1.849
26667W        W97267   2.278  37.062   1.966
26668W        W97268  14.393   4.206  14.313
26669W        W97269  26.436  23.569  10.597
26670W        W97270  42.908  35.610   2.255
26671W        W97271  42.840  40.027   1.775
26672W        W97272  32.684  14.537  11.382
26673W        W97273   6.202  38.759   0.289
26674W        W97274  44.098   2.459   3.005
26675W        W97275   5.345  11.298  14.966
26676W        W97276  38.431  44.329  11.509
26677W        W97277   1.282  14.447  13.494
26678W        W97278  27.391  10.489  11.604
26679W        W97279  11.464  27.592   3.686
26680W        W97280  21.884  32.940  13.607
26681W        W97281  24.597   0.507  11.878
26682W        W97282  40.502  35.157   5.275
26683W        W97283  41.155  34.406  12.143
26684W        W97284  43.776  27.203   0.290
26685W        W97285   4.425  30.420  14.587
26686W        W97286  27.702  35.651  13.914
26687W        W97287  14.502   2.884   4.151
26688W        W97288  17.153  23.770  13.551
26689W        W97289  12.131  14.297  12.491
26690W        W97290  28.594  17.293   3.431
26691W        W97291  42.224  12.335  14.906
26692W        W97292  16.270  24.180  14.376
26693W        W97293  32.104  40.040  12.989
26694W        W97294   8.163  44.792  10.723
26695W        W97295  20.494  29.560   4.259
26696W        W97296   6.989   6.870  12.907
26697W        W97297  44.640  15.191   4.114
26698W        W97298  43.446  30.136   0.775
26699W        W97299   6.375  42.424   1.307
26700W        W97300   2.434  33.164   0.779
26701W        W97301   1.469   5.968  13.570
26702W        W97302  16.776   2.689  14.893
26703W        W97303  28.706   7.180   4.209
26704W        W97304   0.026  24.139   4.257
26705W        W97305  20.134  36.191  11.222
26706W        W97306  41.504  36.582  12.907
26707W        W97307  38.945  11.740   3.235
26708W        W97308   8.871  42.982  14.344
26709W        W97309  35.632  40.348  13.499
26710W        W97310   0.981  26.546  14.637
26711W        W97311   1.367  33.448  12.848
26712W        W97312   6.821  19.719   4.349
26713W        W97313  17.101  28.936   3.114
26714W        W97314   5.722  14.322  13.311
26715W        W97315  14.666  11.104  10.545
26716W        W97316  35.461   2.298  11.885
26717W        W97317  19.677  32.885   1.735
26718W        W97318   4.626   1.780   1.323
26719W        W97319  42.582   7.156   2.873
26720W        W97320  43.007  27.685  12.824
26721W        W97321  18.693   5.776   3.707
26722W        W97322  13.316  36.317   0.267
26723W        W97323   8.927  27.890   2.946
26724W        W97324  16.399  33.844   4.141
26725W        W97325  31.129  41.065  12.049
26726W        W97326  39.242  43.507   0.410
26727W        W97327   4.231  30.134   1.322
26728W        W97328  22.530   5.201  14.300
26729W        W97329  32.840  44.815  12.094
26730W        W97330   7.019  32.682  13.822
26731W        W97331  25.770   3.495   1.863
26732W        W97332   4.075  34.689  14.630
26733W        W97333  37.835  19.092   3.693
26734W        W97334  24.695   4.961   0.999
26735W        W97335  41.616  17.708   2.798
26736W        W97336  20.181  31.678   3.440
26737W        W97337  26.636  32.336   4.610
26738W        W97338  39.530  28.284   2.822
26739W        W97339  10.358  22.065  12.985
26740W        W97340  16.654  29.627   0.689
26741W        W97341  29.067  14.260  12.761
26742W        W97342   0.204  44.432  14.368
26743W        W97343  17.872  22.690   1.413
26744W        W97344  41.111   6.974  11.993
26745W        W97345   1.191  16.761  14.364
26746W        W97346  25.188   4.703  13.362
26747W        W97347  41.455  18.803  14.804
26748W        W97348  16.920  42.920   2.760
26749W        W97349  21.155  32.194   5.079
26750W        W97350  24.014  32.591   0.195
26751W        W97351  20.781  38.958   1.084
26752W        W97352  40.914  18.847  14.500
26753W        W97353  23.946  25.570   4.515
26754W        W97354  19.394  18.141   2.217
26755W        W97355  12.676  28.023   4.465
26756W        W97356  33.808  16.214  12.024
26757W        W97357  15.667   1.881   4.423
26758W        W97358  31.601  38.230  14.102
26759W        W97359  41.836  29.724  13.149
26760W        W97360  24.262  30.881  11.204
26761W        W97361  13.552  39.849   2.778
26762W        W97362  11.709  29.514  12.085
26763W        W97363  22.636  18.782   3.801
26764W        W97364  27.667  16.704   2.214
26765W        W97365  15.540  39.575  13.919
26766W        W97366  28.243  44.363  10.332
26767W        W97367   2.936  29.789   2.028
26768W        W97368  29.501  27.389   0.593
26769W        W97369  11.411  16.627   3.928
26770W        W97370  43.236   8.262   2.776
26771W        W97371  38.979  26.670   2.635
26772W        W97372  23.364   2.511  12.046
26773W        W97373  18.211   6.784  12.730
26774W        W97374  29.982  36.529   3.822
26775W        W97375  42.562   9.614   1.859
26776W        W97376   9.176  43.842   1.591
26777W        W97377  33.817  32.170  13.412
26778W        W97378  33.550  20.330  11.523
26779W        W97379  24.972  29.533  10.719
26780W        W97380  31.877  12.893   2.382
26781W        W97381  10.560   9.187   3.283
26782W        W97382  42.961  36.455   0.327
26783W        W97383  44.772  25.201   4.690
26784W        W97384  18.143   7.534  12.874
26785W        W97385  40.563   1.951   0.978
26786W        W97386  30.918   0.984   2.322
26787W        W97387   8.151  24.135   4.613
26788W        W97388  10.420  16.163   1.848
26789W        W97389   9.370  33.904  11.951
26790W        W97390  10.093  32.429  13.505
26791W        W97391   4.808  18.067  14.865
26792W        W97392  33.326   4.795  14.294
26793W        W97393  18.274  22.513   4.604
26794W        W97394   1.745  18.121   0.902
26795W        W97395  19.754  18.045   0.225
26796W        W97396  17.462  12.105  10.801
26797W        W97397  37.873  22.710  11.552
26798W        W97398  12.025   7.593   2.651
26799W        W97399  39.359  26.271   2.209
26800W        W97400  17.671  23.423   3.686
26801W        W97401  32.037  23.280  13.071
26802W        W97402   9.200   2.316   3.131
26803W        W97403  10.345  26.465  14.907
26804W        W97404  27.036  12.113  10.699
26805W        W97405   7.243  16.698   0.718
26806W        W97406  16.069  14.842   1.358
26807W        W97407  38.399  35.429  11.540
26808W        W97408  23.585   2.283   4.258
26809W        W97409  16.806   6.738   3.126
26810W        W97410  21.332  43.263   1.664
26811W        W97411  23.600   9.565   1.849
26812W        W97412  19.491  15.147  12.570
26813W        W97413  24.100   6.664  10.546
26814W        W97414   6.637  35.002   0.354
26815W        W97415  40.529  22.121  12.582
26816W        W97416  16.072  39.219   3.507
26817W        W97417  13.321  43.544   0.566
26818W        W97418   6.010  30.002  12.060
26819W        W97419   1.399  37.827  10.542
26820W        W97420  34.384   2.254   4.598
26821W        W97421  18.182  36.683   2.124
26822W        W97422  39.133  18.502   1.879
26823W        W97423   7.183   6.838   2.175
26824W        W97424  22.974   2.030   0.358
26825W        W97425  31.513   1.840   1.273
26826W        W97426  15.736  37.867   3.622
26827W        W97427  30.104  27.354  14.220
26828W        W97428   0.270  24.699  14.723
26829W        W97429   9.129  12.607   0.313
26830W        W97430  38.917  16.316   1.290
26831W        W97431   1.812   4.037  12.017
26832W        W97432   9.749  15.402  13.840
26833W        W97433  18.698  19.141  14.141
26834W        W97434   4.213  12.261   3.371
26835W        W97435   4.975  30.453  10.702
26836W        W97436  11.657  41.940   4.640
26837W        W97437  41.884  22.736   1.867
26838W        W97438  44.898  31.591  12.389
26839W        W97439  40.425   4.295  14.382
26840W        W97440  16.131   2.762   2.696
26841W        W97441  44.364   6.229  11.154
26842W        W97442  39.226  37.260  11.075
26843W        W97443  39.015  13.804   3.273
26844W        W97444  23.108   3.882   0.644
26845W        W97445  30.325  11.669   3.661
26846W        W97446  15.766  40.606  13.214
26847W        W97447  43.525  31.505   4.071
26848W        W97448  13.529  44.939   1.720
26849W        W97449   4.219  28.110  10.627
26850W        W97450  11.840  35.890   3.111
26851W        W97451  14.128   9.862   4.679
26852W        W97452  20.673   6.171  12.942
26853W        W97453  43.531   7.251  13.910
26854W        W97454  17.619  32.484  11.914
26855W        W97455   4.145  32.540  13.456
26856W        W97456  43.458  33.086   3.841
26857W        W97457  35.622  34.396  12.619
26858W        W97458  41.374   5.778   2.842
26859W        W97459  26.944  33.531   4.224
26860W        W97460  21.756  35.296   3.768
26861W        W97461   2.213  39.120   0.855
26862W        W97462   3.430  22.505  13.548
26863W        W97463  39.437   5.832   5.608
26864W        W97464   6.283  18.596   5.054
26865W        W97465  18.723  19.606   1.814
26866W        W97466  10.485  17.700   5.202
26867W        W97467  14.730  19.744  12.544
26868W        W97468  22.778   1.402  13.454
26869W        W97469  18.128  17.521  12.056
26870W        W97470  20.012   7.861  13.854
26871W        W97471  28.575  15.882   1.790
26872W        W97472  29.512  39.867   0.983
26873W        W97473  33.859  17.064  14.925
26874W        W97474  10.134  17.400  12.010
26875W        W97475  31.585   9.129   2.816
26876W        W97476  36.957   4.810  10.415
26877W        W97477   6.177  26.269  11.063
26878W        W97478  35.901  29.395  10.695
26879W        W97479  14.168  18.295   1.427
26880W        W97480   8.274  27.019  12.983
26881W        W97481  44.307  39.064  13.690
26882W        W97482  19.508  15.181   2.881
26883W        W97483  24.962  20.838   3.097
26884W        W97484  34.636  39.868  12.040
26885W        W97485  30.479   8.365   2.714
26886W        W97486   1.329  10.287   4.399
26887W        W97487  15.623  35.291  14.457
26888W        W97488  31.676  27.468  13.929
26889W        W97489  40.499  37.287   3.129
26890W        W97490  10.405  33.105  12.921
26891W        W97491   5.491  24.571  10.534
26892W        W97492  40.303  37.419   3.617
26893W        W97493  23.147  15.567   3.195
26894W        W97494  31.621  39.972   3.677
26895W        W97495  14.662   4.265  12.924
26896W        W97496   1.393  41.793  13.456
26897W        W97497  25.605  12.222  12.587
26898W        W97498   7.170  26.024  13.771
26899W        W97499  20.192  38.834  14.701
26900W        W97500  27.423  42.599   4.221
26901W        W97501  16.300  13.491   3.024
26902W        W97502  38.430  20.791  11.610
26903W        W97503   7.891  26.004  12.784
26904W        W97504  31.572   4.227  12.416
26905W        W97505  44.869  23.599   1.170
26906W        W97506  15.351   1.197   0.163
26907W        W97507   4.170  10.979   2.639
26908W        W97508  13.927  29.589   3.735
26909W        W97509  28.932  34.274  14.039
26910W        W97510  18.567  42.163   2.250
26911W        W97511  26.138   0.973   0.045
26912W        W97512  23.033  18.039  13.477
26913W        W97513  30.526  35.635  12.805
26914W        W97514  18.163  25.975   2.150
26915W        W97515  15.099   0.911   4.356
26916W        W97516   4.643  18.644   3.780
26917W        W97517   8.918  42.807   3.156
26918W        W97518  32.162  42.777  13.497
26919W        W97519   4.492  15.667   2.801
26920W        W97520  36.852  23.099  12.663
26921W        W97521  28.480  10.952   2.879
26922W        W97522  14.330  23.086  11.146
26923W        W97523  36.480  31.043  14.329
26924W        W97524  27.117   9.708  13.590
26925W        W97525  16.058  32.156  11.159
26926W        W97526  26.649   5.974   3.644
26927W        W97527  31.118  41.922   0.339
26928W        W97528  33.679   8.150   4.718
26929W        W97529   4.925  21.800  11.149
26930W        W97530   8.413   5.342  14.938
26931W        W97531   5.254  43.295  13.871
26932W        W97532  36.820  35.700  14.481
26933W        W97533  29.363  27.416   1.475
26934W        W97534  25.257   2.660   0.987
26935W        W97535  21.001  34.065   1.149
26936W        W97536  39.633  32.648   0.784
26937W        W97537   0.008   3.462   0.996
26938W        W97538   0.751  37.490  14.400
26939W        W97539  38.452  35.826   4.251
26940W        W97540  44.863  27.639   1.908
26941W        W97541  12.594   7.291  11.917
26942W        W97542   5.250  13.629  11.402
26943W        W97543  14.088  21.064  13.336
26944W        W97544  34.943  36.551  10.743
26945W        W97545  28.039  16.680   2.562
26946W        W97546  24.125   1.660   4.124
26947W        W97547  10.875   3.069  11.718
26948W        W97548  30.535   5.225   1.415
26949W        W97549  23.024  26.685  12.380
26950W        W97550  43.345  34.463  10.676
26951W        W97551  37.951   1.942   1.370
26952W        W97552  16.521  42.353   4.780
26953W        W97553  29.610   5.897   4.126
26954W        W97554  13.260  10.183  13.940
26955W        W97555  35.012  33.053   0.824
26956W        W97556   2.314  39.491   3.549
26957W        W97557  31.608  28.660  13.066
26958W        W97558  36.262   8.885  11.630
26959W        W97559  28.880  10.345  10.695
26960W        W97560  22.749   6.296   1.665
26961W        W97561  26.064  25.142   0.514
26962W        W97562  31.092   9.597   2.872
26963W        W97563  23.633  16.133   3.592
26964W        W97564  16.032  33.015  10.721
26965W        W97565   9.390  39.408   3.350
26966W        W97566   4.395  22.483  13.102
26967W        W97567  32.700  27.317   0.469
26968W        W97568  25.249  36.552  14.912
26969W        W97569  13.112  16.794   0.916
26970W        W97570  30.378  44.946  11.075
26971W        W97571  40.372  43.407   4.302
26972W        W97572  32.126  44.307   4.520
26973W        W97573  29.380  28.052   4.603
26974W        W97574   7.316   0.822  10.734
26975W        W97575   0.989   6.421   4.200
26976W        W97576   6.116  22.873   4.601
26977W        W97577  13.419  33.972  13.807
26978W        W97578  21.103  18.856   1.363
26979W        W97579  19.053  35.022   3.300
26980W        W97580  18.280  30.174  11.164
26981W        W97581  18.186  20.727   2.673
26982W        W97582  19.064  41.568   3.160
26983W        W97583  20.135  44.294   1.204
26984W        W97584  17.702  38.551   0.730
26985W        W97585  18.290  18.567   1.863
26986W        W97586  38.896  20.637  10.366
26987W        W97587  12.093  20.707  14.319
26988W        W97588   7.809  13.219  11.072
26989W        W97589  10.658  34.073  10.895
26990W        W97590   3.854  10.001   4.524
26991W        W97591   7.273  11.390   4.507
26992W        W97592  39.626  21.065   1.780
26993W        W97593   2.775  32.358   0.764
26994W        W97594  42.522  32.391   4.235
26995W        W97595  10.283  21.985   4.645
26996W        W97596  40.438  43.451   0.628
26997W        W97597  36.170  10.355  14.394
26998W        W97598  43.830   7.190  12.426
26999W        W97599  37.158   0.006   3.334
27000W        W97600  42.060   6.756   3.653
27001W        W97601  11.334  26.778  11.142
27002W        W97602  11.157   2.350   2.439
27003W        W97603  40.437  20.226  13.133
27004W        W97604  24.384   0.900  12.137
27005W        W97605  26.082  41.401  11.707
27006W        W97606  22.851   8.323   1.409
27007W        W97607  12.884  14.120   0.277
27008W        W97608   8.095  23.090  11.966
27009W        W97609  33.900  21.413  13.799
27010W        W97610   1.374  25.144   2.226
27011W        W97611  15.981  31.870  11.583
27012W        W97612  17.050  20.715  10.181
27013W        W97613  10.626  15.233   3.692
27014W        W97614  37.887   4.880  10.673
27015W        W97615  23.980  22.580   3.620
27016W        W97616  25.613  36.163   3.619
27017W        W97617  25.675  39.070  14.596
27018W        W97618   5.836  31.657   0.810
27019W        W97619  28.594   4.170   4.631
27020W        W97620  35.994  28.310  10.875
27021W        W97621  41.890  13.359   1.401
27022W        W97622  12.311  43.147   1.299
27023W        W97623   8.800   9.391   3.533
27024W        W97624  27.354  17.001  11.989
27025W        W97625   1.427  13.959  13.599
27026W        W97626  20.127  11.330  10.957
27027W        W97627  33.466  36.043   3.612
27028W        W97628  18.596   6.762  11.464
27029W        W97629  32.182  11.167   9.955
27030W        W97630  44.183  29.326   5.020
27031W        W97631   8.908  14.359   3.122
27032W        W97632  34.260  23.055   4.461
27033W        W97633  35.853  27.136   1.449
27034W        W97634  14.041  24.215   2.205
27035W        W97635  30.955  24.616  10.538
27036W        W97636  38.045   4.890   0.483
27037W        W97637  28.161   4.783   1.157
27038W        W97638  17.646  44.016   0.446
27039W        W97639  37.135   0.010   1.374
27040W        W97640  43.166  13.049  11.638
27041W        W97641  32.410  24.211   3.811
27042W        W97642  39.716  25.735   0.812
27043W        W97643  10.886   7.129   3.750
27044W        W97644  37.457   0.494   1.420
27045W        W97645  18.563  12.595   0.943
27046W        W97646  43.052  14.690  14.930
27047W        W97647  15.173  34.090  12.936
27048W        W97648  40.823  42.607  10.718
27049W        W97649  31.039  21.312  10.706
27050W        W97650  35.936  36.363  12.358
27051W        W97651   7.468  18.601   4.572
27052W        W97652  38.459  42.812  10.754
27053W        W97653  21.179  44.751   0.361
27054W        W97654  42.022  40.992  11.927
27055W        W97655   0.160  26.970   4.522
27056W        W97656  16.522  24.213   4.730
27057W        W97657  22.475  31.559   2.331
27058W        W97658  24.182  17.342   2.615
27059W        W97659   8.896  15.547  14.813
27060W        W97660  16.460  11.891   3.689
27061W        W97661  12.993  17.337   3.642
27062W        W97662  15.697  18.489   2.860
27063W        W97663  15.318  19.555   4.712
27064W        W97664  26.703   0.725   0.730
27065W        W97665  21.785  20.148  13.493
27066W        W97666  13.297   8.676   1.221
27067W        W97667  24.149  35.319   3.916
27068W        W97668  10.197  14.236   4.892
27069W        W97669  10.917  33.457   1.794
27070W        W97670  40.852  15.776   4.538
27071W        W97671  31.103  10.753   2.284
27072W        W97672  25.177  11.682  13.381
27073W        W97673  17.157   8.787   1.061
27074W        W97674  43.298  29.481  11.036
27075W        W97675  24.466  32.782   0.410
27076W        W97676  35.431  32.346  12.061
27077W        W97677  28.485  37.313   4.708
27078W        W97678  25.681  35.857   0.438
27079W        W97679  31.486   3.169   2.572
27080W        W97680   9.757  22.244  14.317
27081W        W97681  34.890  20.647  14.127
27082W        W97682  44.741  17.620  11.522
27083W        W97683  32.611   4.955   1.492
27084W        W97684  25.678  42.348   4.154
27085W        W97685   2.534  42.298  12.741
27086W        W97686  13.947  13.003   1.935
27087W        W97687  25.209  42.808   4.810
27088W        W97688   4.185   1.332   2.622
27089W        W97689  42.943  44.084  13.839
27090W        W97690  31.781   9.887  11.107
27091W        W97691  35.932  20.290   4.070
27092W        W97692  40.686  21.570   2.972
27093W        W97693  14.227  42.415   3.655
27094W        W97694  35.761  40.547   1.841
27095W        W97695  18.600  27.686  12.068
27096W        W97696  37.026  19.753  12.995
27097W        W97697   3.955   9.197   3.848
27098W        W97698  41.797  28.186  10.276
27099W        W97699  28.383   5.415   1.060
27100W        W97700  23.202  14.719  11.658
27101W        W97701  23.720  44.773   3.667
27102W        W97702  26.987  30.133   4.829
27103W        W97703  30.897  23.068  12.702
27104W        W97704  28.658  12.230   1.327
27105W        W97705   6.797  30.935  11.877
27106W        W97706  26.231   2.912   3.785
27107W        W97707  23.700  35.628  14.227
27108W        W97708   9.722  41.109   0.930
27109W        W97709  34.402  32.504  12.031
27110W        W97710   1.045  25.778   1.466
27111W        W97711  23.955  21.227  13.905
27112W        W97712  25.437  19.275  14.529
27113W        W97713  33.088  32.393   4.202
27114W        W97714  35.506  43.498  11.080
27115W        W97715   5.461   0.960  13.370
27116W        W97716  33.501  39.260   5.509
27117W        W97717   2.807  43.575   0.999
27118W        W97718  44.999   7.905  13.844
27119W        W97719   1.781  29.617   1.742
27120W        W97720  27.489  32.436   1.295
27121W        W97721   2.298  12.853   1.209
27122W        W97722   7.446  29.866  11.018
27123W        W97723   9.664  22.025  13.337
27124W        W97724  23.764  42.745  11.051
27125W        W97725  41.081   5.992  11.311
27126W        W97726  35.606  31.757  12.923
27127W        W97727  13.925  19.615  10.617
27128W        W97728  23.057  31.566  13.470
27129W        W97729   4.477   0.939   3.860
27130W        W97730   3.936  37.151  13.304
27131W        W97731  44.390   5.305  11.680
27132W        W97732   8.432   4.661   4.300
27133W        W97733  20.778   0.867  12.869
27134W        W97734  21.252  39.958   4.938
27135W        W97735  26.906  41.374   3.213
27136W        W97736  39.253  26.141   4.178
27137W        W97737   0.191  43.462  11.472
27138W        W97738   9.229  31.933  14.547
27139W        W97739   3.989  29.927   3.194
27140W        W97740   7.366  42.543   0.827
27141W        W97741  38.801   8.854   4.459
27142W        W97742  11.612  38.092  14.003
27143W        W97743  29.019  39.760  11.263
27144W        W97744  33.481  12.307  13.992
27145W        W97745  31.658  25.482   2.243
27146W        W97746  44.831  36.369  13.839
27147W        W97747  21.020  21.055   2.661
27148W        W97748  11.806  24.494   4.561
27149W        W97749  15.593  25.615   3.975
27150W        W97750  38.757   9.855   3.666
27151W        W97751   9.811  22.693  11.002
27152W        W97752  14.148   3.036   2.164
27153W        W97753  35.375  11.671   1.862
27154W        W97754  10.246   9.573   3.385
27155W        W97755  33.383  19.045   2.835
27156W        W97756  22.446  20.752  13.517
27157W        W97757  41.602  37.934  13.935
27158W        W97758  14.451   6.387  14.492
27159W        W97759  23.020  17.365   1.256
27160W        W97760  40.969  30.699   3.178
27161W        W97761  26.996   8.876   3.112
27162W        W97762  12.651  21.440  10.795
27163W        W97763   2.656  24.417  12.479
27164W        W97764  37.312   7.679   2.833
27165W        W97765   5.646   0.003   3.789
27166W        W97766  41.758  34.368  10.862
27167W        W97767  19.661   9.863  13.891
27168W        W97768  21.899   3.255  11.156
27169W        W97769  33.155  14.148   0.214
27170W        W97770  38.383  40.653   1.508
27171W        W97771  34.130  37.522  13.448
27172W        W97772  18.207  27.184  11.451
27173W        W97773  26.340  12.130  14.498
27174W        W97774  43.442   3.421  10.288
27175W        W97775  26.633  25.676  14.881
27176W        W97776  40.474   2.766  14.647
27177W        W97777  31.591  24.223   4.657
27178W        W97778  29.685  36.841  13.544
27179W        W97779  20.233  30.974  12.324
27180W        W97780  15.232   7.913  12.812
27181W        W97781  29.860   3.209  14.259
27182W        W97782  43.867  26.588   0.962
27183W        W97783  17.093  14.578  11.824
27184W        W97784  43.780  18.075  11.437
27185W        W97785  13.244  22.764  11.649
27186W        W97786  21.584  41.444  12.990
27187W        W97787  28.625   7.907   0.710
27188W        W97788   7.329  10.651  13.052
27189W        W97789  11.436  35.865   1.341
27190W        W97790  30.934  20.523  12.356
27191W        W97791  24.161  17.077   0.813
27192W        W97792  41.028  31.074   1.306
27193W        W97793   8.757  27.140   0.970
27194W        W97794  13.430  40.914  10.665
27195W        W97795  16.295   8.746   1.645
27196W        W97796  27.215  25.526   0.551
27197W        W97797  16.044  12.203  11.970
27198W        W97798  21.948  28.842   1.274
27199W        W97799  35.874  18.696  12.953
27200W        W97800  28.433  43.727   0.192
27201W        W97801  39.351  33.521  12.485
27202W        W97802  43.003  14.092  13.994
27203W        W97803  23.960  18.445  14.508
27204W        W97804  27.127  30.171  10.741
27205W        W97805   1.880  33.735  12.592
27206W        W97806  15.168  33.821   3.752
27207W        W97807  19.328   4.427   4.652
27208W        W97808  33.920  17.331  12.587
27209W        W97809  44.079  24.124  10.533
27210W        W97810  27.464  41.398  10.760
27211W        W97811  27.979   2.671   4.344
27212W        W97812  20.120   7.117   1.224
27213W        W97813  33.164  38.325   3.259
27214W        W97814  10.415   8.694  14.749
27215W        W97815  28.116   9.965   4.546
27216W        W97816   3.004   5.709  13.035
27217W        W97817  33.430  21.817   0.410
27218W        W97818   1.533   3.968  13.457
27219W        W97819  36.492   1.566   2.810
27220W        W97820  24.990  20.525   2.674
27221W        W97821  44.760  25.619   1.866
27222W        W97822  21.535  18.597  10.596
27223W        W97823   8.128  37.047  10.463
27224W        W97824  25.917   3.238  12.825
27225W        W97825   1.212  23.127  13.241
27226W        W97826  15.810  42.779  13.536
27227W        W97827  31.022  26.527  11.191
27228W        W97828  15.238  26.726   4.404
27229W        W97829  22.010  15.429   0.654
27230W        W97830  30.182  34.653   0.370
27231W        W97831  25.115  40.502  13.537
27232W        W97832  40.489   2.385  11.723
27233W        W97833  26.747  44.857  11.930
27234W        W97834  20.499  15.531  13.484
27235W        W97835  35.001  29.203  14.382
27236W        W97836  19.036   6.899  11.935
27237W        W97837  20.301  25.574  10.636
27238W        W97838  17.350  25.523  13.746
27239W        W97839  12.196  32.018   3.085
27240W        W97840  21.306  42.523   4.567
27241W        W97841   7.646   6.873   0.863
27242W        W97842  10.709  20.530  10.725
27243W        W97843  33.056  11.871  11.522
27244W        W97844  22.231  29.934   2.092
27245W        W97845  21.299   0.002  13.080
27246W        W97846  17.393  44.553   4.502
27247W        W97847  39.039  23.248  11.154
27248W        W97848  20.521   2.333  13.586
27249W        W97849  42.315  22.037   4.533
27250W        W97850  32.572  34.403   0.480
27251W        W97851  14.449  36.903   1.013
27252W        W97852  31.893  38.910  14.560
27253W        W97853  44.900  39.802   4.486
27254W        W97854  19.008  33.825   3.697
27255W        W97855  41.274  32.722  13.026
27256W        W97856   0.008   9.401   4.106
27257W        W97857  42.992   4.875  12.612
27258W        W97858  34.095  12.305   3.248
27259W        W97859   5.445  21.041  13.486
27260W        W97860  37.840  32.752  10.657
27261W        W97861  42.579  38.589   0.945
27262W        W97862  25.634  32.623   3.902
27263W        W97863  36.132  10.185   0.283
27264W        W97864  36.977  26.447  13.989
27265W        W97865   7.760  22.217   3.917
27266W        W97866  16.101  24.607   1.790
27267W        W97867   3.345  12.821  14.374
27268W        W97868  39.952  10.402  12.442
27269W        W97869  35.650   2.082  14.938
27270W        W97870  39.597   7.701   3.452
27271W        W97871  38.478  24.700  14.291
27272W        W97872  41.343   7.683   2.666
27273W        W97873   9.408   9.163   4.227
27274W        W97874  39.537  30.400  13.789
27275W        W97875  24.650   3.632   3.414
27276W        W97876   6.792  41.812   0.933
27277W        W97877   2.460  28.657   1.365
27278W        W97878  16.804  31.488  11.447
27279W        W97879  44.738  36.284   0.879
27280W        W97880  29.723  16.482   4.268
27281W        W97881   7.843  35.025  14.475
27282W        W97882  21.138   1.302   3.709
27283W        W97883  38.860  36.854   0.698
27284W        W97884  39.995  40.501  11.074
27285W        W97885  11.940  40.472  12.528
27286W        W97886  37.982   8.596   1.628
27287W        W97887  33.450  44.417  11.131
27288W        W97888  21.139  14.852  10.721
27289W        W97889  22.758  28.805   1.651
27290W        W97890  37.744   4.774   2.374
27291W        W97891  20.389  27.039  10.417
27292W        W97892  20.475   3.400  11.179
27293W        W97893  38.047  36.917   0.319
27294W        W97894   5.440  40.422   3.448
27295W        W97895   4.891   8.419   2.859
27296W        W97896   7.991   8.717  13.741
27297W        W97897  25.970  29.202   2.218
27298W        W97898  29.153  21.916   2.306
27299W        W97899  28.597  11.127  14.482
27300W        W97900  31.625  17.153  11.958
27301W        W97901   0.472   3.000  12.614
27302W        W97902  31.555  19.552  13.004
27303W        W97903  29.683  30.588  11.675
27304W        W97904  25.438  26.653  12.622
27305W        W97905  19.075  28.546   4.097
27306W        W97906   3.317  13.361  12.918
27307W        W97907  12.642  13.265  14.780
27308W        W97908  11.911  25.577  13.037
27309W        W97909  41.211  42.919  10.449
27310W        W97910   2.748  13.287  12.075
27311W        W97911  35.825  38.972  12.422
27312W        W97912  39.055   3.478  13.014
27313W        W97913  34.628   0.261   3.459
27314W        W97914  39.236   2.958   3.201
27315W        W97915   0.948  23.400   1.251
27316W        W97916  22.562   0.606   3.218
27317W        W97917  33.667  31.176  14.287
27318W        W97918  44.269  32.999   0.462
27319W        W97919  42.037  28.722  13.739
27320W        W97920  40.004   1.266   1.794
27321W        W97921  13.918  18.669  12.607
27322W        W97922  24.074   6.769   0.057
27323W        W97923  23.611  34.228  11.629
27324W        W97924   3.277  28.985  11.142
27325W        W97925  17.182  27.470   2.150
27326W        W97926  40.002   6.040  11.614
27327W        W97927   4.764   9.513   1.152
27328W        W97928  34.581  12.133   2.400
27329W        W97929  21.311  17.200  10.775
27330W        W97930  19.612  11.114   3.077
27331W        W97931  40.466  12.908   2.202
27332W        W97932   2.232  18.668  12.907
27333W        W97933  16.558   1.914   4.373
27334W        W97934  16.343  19.280   4.001
27335W        W97935  24.848   8.674   1.419
27336W        W97936   5.655  22.710  13.816
27337W        W97937  29.061  24.640  13.979
27338W        W97938  16.578  34.322   1.704
27339W        W97939  34.051   5.211  13.932
27340W        W97940  24.323  14.978   2.757
27341W        W97941  23.458  40.120  12.053
27342W        W97942   8.303  36.925  14.639
27343W        W97943   7.658  20.036  11.573
27344W        W97944  23.522  13.779  10.770
27345W        W97945   2.983  43.045  14.822
27346W        W97946   2.873   1.933   0.862
27347W        W97947   9.768  35.111   3.862
27348W        W97948  30.442  41.274   0.338
27349W        W97949  42.008  12.170   4.360
27350W        W97950  32.610  24.848   3.306
27351W        W97951  22.888  39.990   2.227
27352W        W97952   9.727   3.306  14.049
27353W        W97953  39.331  33.084  14.443
27354W        W97954  37.297  31.915  14.019
27355W        W97955   5.914   8.182   1.669
27356W        W97956  43.318  10.368   4.549
27357W        W97957  15.775  29.707  14.426
27358W        W97958  36.440  30.443  14.781
27359W        W97959  27.541  24.162   1.421
27360W        W97960  36.265  21.163   4.038
27361W        W97961  33.895  30.561   0.986
27362W        W97962  35.079  29.451  13.844
27363W        W97963  15.197   7.412  14.637
27364W        W97964   0.990   6.295  11.821
27365W        W97965   2.015   6.574  12.031
27366W        W97966  22.999   2.570   0.358
27367W        W97967   9.279  24.792   2.185
27368W        W97968  40.199   0.813   4.150
27369W        W97969  44.359  33.045  10.816
27370W        W97970   1.361   1.405  13.529
27371W        W97971  25.220  43.747  12.909
27372W        W97972  28.632  24.180   4.145
27373W        W97973   2.799   1.101  10.960
27374W        W97974  17.318  37.520   2.690
27375W        W97975  36.408  11.565  11.942
27376W        W97976  13.771  39.015   4.513
27377W        W97977  39.756  28.416   0.797
27378W        W97978  31.145   5.409   0.225
27379W        W97979  34.318   0.994   4.615
27380W        W97980   3.532  22.062  10.063
27381W        W97981  40.758  21.942   1.404
27382W        W97982  38.982   1.917  13.958
27383W        W97983  13.216  39.924  10.429
27384W        W97984  33.146  26.236  14.257
27385W        W97985  38.579  39.160   0.363
27386W        W97986   6.791   4.899  10.827
27387W        W97987  38.897   3.327   3.299
27388W        W97988  35.127   7.647   3.348
27389W        W97989  15.312   1.555   3.159
27390W        W97990   4.837   8.441   4.969
27391W        W97991  15.337  23.626   2.254
27392W        W97992   1.685  39.309   0.897
27393W        W97993  10.195   8.148   1.226
27394W        W97994  19.200  26.958  12.441
27395W        W97995  24.978  36.896   5.265
27396W        W97996   0.397  42.961  14.414
27397W        W97997  29.215   9.200  11.141
27398W        W97998  23.413  41.441  10.994
27399W        W97999   5.450  16.367  12.753
27400W        W98000  11.590   8.010  10.988
27401W        W98001  19.111  19.210   0.282
27402W        W98002  12.017  11.303   3.866
27403W        W98003  36.689  37.675  11.937
27404W        W98004  24.053   7.955   1.851
27405W        W98005  27.154  36.806   2.127
27406W        W98006  38.968   1.881   1.284
27407W        W98007   3.106  12.365  13.500
27408W        W98008  22.925  14.344  11.879
27409W        W98009  43.075   2.191  13.995
27410W        W98010   0.901  38.003  14.343
27411W        W98011  32.115   7.196   4.555
27412W        W98012  20.545   8.681   1.322
27413W        W98013  20.723  38.086   1.291
27414W        W98014  27.951  21.593   2.740
27415W        W98015  35.496  26.728  14.868
27416W        W98016  15.894  33.025  11.560
27417W        W98017  12.039  13.370  13.405
27418W        W98018  19.067  30.808  10.235
27419W        W98019  20.450  27.770   3.227
27420W        W98020  16.851  17.510  10.604
27421W        W98021  28.958  30.197   3.722
27422W        W98022  16.171  42.534   1.761
27423W        W98023   0.507  44.776   0.261
27424W        W98024  28.445  20.088   2.300
27425W        W98025  16.308  24.201   0.421
27426W        W98026   4.352  11.780   0.442
27427W        W98027   7.873  15.522  14.090
27428W        W98028   9.274   3.192   1.936
27429W        W98029  23.566  30.112   1.233
27430W        W98030   4.922   6.992  12.007
27431W        W98031  20.049  23.683   2.217
27432W        W98032  43.488  11.338   3.311
27433W        W98033  18.141  22.135   2.337
27434W        W98034  38.409  33.374  14.749
27435W        W98035   0.428  19.066  13.032
27436W        W98036  33.628  15.984  11.082
27437W        W98037   5.195  19.673  13.061
27438W        W98038  39.013  17.157  14.383
27439W        W98039  43.762   6.131   2.784
27440W        W98040  29.169  41.442  14.765
27441W        W98041  21.517  27.088  13.641
27442W        W98042  22.969   0.283   0.914
27443W        W98043  19.539  34.991   2.323
27444W        W98044   5.910   5.904   4.546
27445W        W98045   3.252  28.528   1.889
27446W        W98046  43.420  18.561   0.731
27447W        W98047   1.366  22.312  13.193
27448W        W98048  17.022   1.754   4.521
27449W        W98049  12.157  11.881  14.368
27450W        W98050  18.535  37.175  11.202
27451W        W98051  35.365  12.660   1.834
27452W        W98052  43.886  41.780  12.100
27453W        W98053  17.087  14.629   1.344
27454W        W98054  22.642   6.095  13.345
27455W        W98055   4.443  18.004  11.736
27456W        W98056  22.634  36.058   1.908
27457W        W98057  27.963  15.557   4.682
27458W        W98058  33.696  36.489   0.291
27459W        W98059  14.647  19.666  13.914
27460W        W98060  24.561  30.642   3.089
27461W        W98061   7.334  29.524  13.928
27462W        W98062  15.346  12.370  10.720
27463W        W98063  13.329  33.731   2.766
27464W        W98064   1.489  24.520  12.961
27465W        W98065  44.703  21.650  13.955
27466W        W98066  11.166  14.526   4.591
27467W        W98067  19.564  35.004   4.043
27468W        W98068  21.750  10.413  14.089
27469W        W98069  36.039  19.722   2.192
27470W        W98070  39.961   3.606  11.021
27471W        W98071  41.403  15.994  12.004
27472W        W98072  17.767  31.953   0.354
27473W        W98073  18.980  24.184   3.132
27474W        W98074   3.358  12.971   4.036
27475W        W98075  15.312  29.707  12.880
27476W        W98076  30.939   5.178   4.181
27477W        W98077  10.737  37.388   1.042
27478W        W98078  42.826  38.636   1.944
27479W        W98079  20.114  27.486   0.681
27480W        W98080  32.586  31.751   4.842
27481W        W98081  15.442  17.866  14.791
27482W        W98082  40.722   9.956  10.253
27483W        W98083  33.374  14.639  12.488
27484W        W98084   3.885  13.313  12.044
27485W        W98085   1.432  43.086  14.892
27486W        W98086  23.872   6.737   1.517
27487W        W98087  13.100  38.062   1.272
27488W        W98088  28.164  36.919   4.607
27489W        W98089  40.016  30.537  13.263
27490W        W98090   1.773   0.827  11.199
27491W        W98091  26.957  43.751  11.581
27492W        W98092  27.954   1.550   1.762
27493W        W98093  26.710  31.998  11.662
27494W        W98094  13.903  30.352  11.934
27495W        W98095  26.520   4.767  12.800
27496W        W98096  34.336  22.020   4.238
27497W        W98097   0.880  25.687  11.182
27498W        W98098  20.194   5.920   2.654
27499W        W98099  22.954  24.513   3.178
27500W        W98100  24.078  37.649  11.598
27501W        W98101   9.350  30.474  11.069
27502W        W98102   5.450  40.050   1.801
27503W        W98103   2.193  43.066   4.103
27504W        W98104  23.696  42.106  13.006
27505W        W98105  20.243  27.223   1.943
27506W        W98106  41.748  10.910  12.430
27507W        W98107  24.391  23.066   0.833
27508W        W98108  30.510  11.913  13.736
27509W        W98109  40.827   9.832   4.216
27510W        W98110  17.748  35.146   2.641
27511W        W98111  26.676   1.472   4.160
27512W        W98112   7.523  27.620  10.731
27513W        W98113   4.763  30.116  12.912
27514W        W98114   6.429  42.187   2.621
27515W        W98115   8.197  12.592   2.156
27516W        W98116   7.353  23.780   1.836
27517W        W98117  22.046   1.469  11.678
27518W        W98118  31.489  27.433  13.372
27519W        W98119  22.907  12.894   0.956
27520W        W98120  33.970  30.521  14.003
27521W        W98121  28.206  19.043  12.395
27522W        W98122   3.089  39.464  13.860
27523W        W98123  11.709  26.692   1.274
27524W        W98124  41.292   2.370   1.367
27525W        W98125   8.299   7.774  13.330
27526W        W98126  29.160  24.540   2.945
27527W        W98127  11.848  21.447   1.869
27528W        W98128   3.306  10.138   5.243
27529W        W98129  22.377  18.473   1.207
27530W        W98130   2.380  17.594   1.603
27531W        W98131  21.614  16.983   0.461
27532W        W98132  17.301   6.274  11.549
27533W        W98133   1.295   8.209  12.905
27534W        W98134   3.015   1.874   2.292
27535W        W98135  20.265  15.610  11.060
27536W        W98136  10.362   6.498  14.487
27537W        W98137  41.140   3.063   5.383
27538W        W98138  32.469   4.415   2.672
27539W        W98139  20.481  34.990   0.340
27540W        W98140  14.579  15.924   3.595
27541W        W98141   3.237  32.493   0.566
27542W        W98142  24.136  26.495   1.314
27543W        W98143  38.958   4.991   0.485
27544W        W98144   0.508  27.577   1.321
27545W        W98145  41.277  20.713   1.358
27546W        W98146  14.070  28.893  10.781
27547W        W98147  19.645  44.336   4.308
27548W        W98148  21.581  38.676   4.983
27549W        W98149  26.464  12.167   4.329
27550W        W98150   2.782  39.968   3.192
27551W        W98151  28.234  38.941  12.947
27552W        W98152  13.284  36.342  11.083
27553W        W98153  41.373  39.482   2.400
27554W        W98154  27.150  31.058  11.276
27555W        W98155  27.543   2.522  14.848
27556W        W98156   2.696  44.254  12.882
27557W        W98157  22.829  23.548   0.394
27558W        W98158  17.047   9.662  13.784
27559W        W98159  15.181  18.801  14.921
27560W        W98160   2.315  23.560   4.101
27561W        W98161  31.929  14.845   4.189
27562W        W98162  21.733  42.515  10.437
27563W        W98163  32.411  15.781  10.160
27564W        W98164   2.352  18.544  11.091
27565W        W98165  18.659   4.517  10.634
27566W        W98166  30.046  18.774   3.338
27567W        W98167  25.528   5.621  13.804
27568W        W98168  28.637  30.732  13.333
27569W        W98169  30.407  34.475   3.892
27570W        W98170  24.555  43.690   4.175
27571W        W98171  43.488   4.821   1.774
27572W        W98172  11.815  37.100  14.264
27573W        W98173  32.685  42.558  12.541
27574W        W98174  31.518  28.477   1.489
27575W        W98175  14.118  22.534   0.900
27576W        W98176   0.324  36.351  13.607
27577W        W98177   9.153  33.565   4.537
27578W        W98178  20.639   0.735  10.552
27579W        W98179   5.607  44.733  11.886
27580W        W98180  36.711   3.929  11.873
27581W        W98181  29.627   7.751   4.496
27582W        W98182  39.615  25.524  14.434
27583W        W98183  33.798  32.482  11.564
27584W        W98184  18.431  40.697  14.847
27585W        W98185  26.630  21.521   2.269
27586W        W98186  39.501  11.889  13.328
27587W        W98187  27.777  33.559   4.569
27588W        W98188  28.999   3.824   1.377
27589W        W98189  14.253  38.738  14.533
27590W        W98190  38.089  10.805  12.535
27591W        W98191  29.734  42.509   3.756
27592W        W98192  43.167  27.709  10.346
27593W        W98193   6.453  42.312  12.626
27594W        W98194  32.094  16.051  10.488
27595W        W98195   9.456  44.708   2.521
27596W        W98196  21.702   9.251   1.271
27597W        W98197  21.605  27.790  14.314
27598W        W98198  43.049  16.042   4.147
27599W        W98199  21.650  33.202  14.473
27600W        W98200  30.527   1.666  14.994
27601W        W98201  18.684  31.056  12.595
27602W        W98202  38.469  26.414   0.735
27603W        W98203   2.743  18.820  10.820
27604W        W98204  41.930  35.108  11.985
27605W        W98205  28.985  29.619  12.908
27606W        W98206  36.999   2.826   4.541
27607W        W98207  30.022  20.853   1.197
27608W        W98208  27.066  13.113   3.368
27609W        W98209  10.314  27.899  11.589
27610W        W98210   8.286  34.469  11.377
27611W        W98211  31.685  44.817   3.709
27612W        W98212  44.050  28.883  13.423
27613W        W98213  11.718   2.104  14.441
27614W        W98214  33.164  29.972   3.126
27615W        W98215  28.415  39.954   4.039
27616W        W98216  24.477  18.254   3.756
27617W        W98217  33.162  27.431   4.681
27618W        W98218   6.998  39.357   0.304
27619W        W98219   2.803  29.366   2.292
27620W        W98220  25.354   7.726  12.884
27621W        W98221  18.828  40.030  13.904
27622W        W98222   7.136  32.269   2.936
27623W        W98223  14.624   2.128  10.421
27624W        W98224  13.215  12.105  11.090
27625W        W98225   5.022   1.392   4.383
27626W        W98226  43.917  36.758  12.488
27627W        W98227   9.890  10.322  13.011
27628W        W98228   9.671  15.997  12.179
27629W        W98229  20.046  28.574   2.166
27630W        W98230   4.780  11.798  12.124
27631W        W98231  14.726  10.834  13.769
27632W        W98232  13.141  30.169  12.530
27633W        W98233  42.045  18.172   1.592
27634W        W98234  37.479  30.204   2.450
27635W        W98235   7.967   6.819  11.678
27636W        W98236  19.090  14.340  10.452
27637W        W98237  12.718  18.866   4.532
27638W        W98238  35.878   6.647  12.839
27639W        W98239  35.938   5.679  11.850
27640W        W98240   4.534  23.985  12.874
27641W        W98241   6.685  22.609   1.943
27642W        W98242  39.619  11.754  10.588
27643W        W98243   0.842  20.225   1.390
27644W        W98244  29.906  20.711  10.895
27645W        W98245  40.472  31.172  10.697
27646W        W98246  10.433  42.762  12.833
27647W        W98247  31.798  18.943  12.624
27648W        W98248   3.412   5.121   3.733
27649W        W98249  17.651  23.531  10.909
27650W        W98250  13.706  43.477  14.384
27651W        W98251  42.776   7.613   2.743
27652W        W98252  31.012  16.544  12.787
27653W        W98253   2.029  21.488   1.812
27654W        W98254  27.088   7.759   3.974
27655W        W98255   3.013  30.953   0.790
27656W        W98256   4.808  37.197  13.327
27657W        W98257   2.482   7.105  11.058
27658W        W98258  12.136  32.134  12.538
27659W        W98259  33.115  35.055   1.334
27660W        W98260  23.509  32.747  14.512
27661W        W98261  42.953  31.671  13.445
27662W        W98262  17.352  21.606  12.075
27663W        W98263  12.382  43.205  14.950
27664W        W98264  24.262  33.535   4.199
27665W        W98265  42.190  37.892   2.649
27666W        W98266  37.357  42.444   2.684
27667W        W98267  18.271   3.311   3.728
27668W        W98268  13.366  33.020   1.357
27669W        W98269   5.151  39.990   3.625
27670W        W98270  34.858   7.449  12.311
27671W        W98271  28.213   5.245  11.137
27672W        W98272  27.116   5.680   1.367
27673W        W98273  24.202   9.760   3.472
27674W        W98274  39.153  13.260   0.270
27675W        W98275  32.006  22.256   0.806
27676W        W98276  12.357  27.106   0.792
27677W        W98277  42.558  20.659  11.925
27678W        W98278  37.398   3.160   4.397
27679W        W98279  41.210  42.250   3.778
27680W        W98280   2.403  34.381   2.737
27681W        W98281  18.655  36.514   2.215
27682W        W98282  19.619   0.769  12.486
27683W        W98283  32.617  44.419   4.680
27684W        W98284  13.690  26.891  11.603
27685W        W98285  21.902   7.448  12.178
27686W        W98286  30.732  40.492   2.716
27687W        W98287  32.258  11.908  11.145
27688W        W98288  44.832  20.319   3.310
27689W        W98289   1.278   8.852   0.044
27690W        W98290  41.883  25.227  12.840
27691W        W98291  27.664  17.941  12.056
27692W        W98292  34.535  37.671   4.707
27693W        W98293  38.111  26.625  14.848
27694W        W98294   0.791  35.015  14.314
27695W        W98295  41.990  42.429   3.015
27696W        W98296  42.804  27.432  13.722
27697W        W98297  17.375   2.328   1.926
27698W        W98298  20.104  37.081  11.430
27699W        W98299  14.765  44.902  14.749
27700W        W98300  35.929  13.875  12.056
27701W        W98301   6.430  21.227  13.762
27702W        W98302   5.492  32.974   0.814
27703W        W98303  44.676   3.288  14.333
27704W        W98304  42.967  21.910   4.126
27705W        W98305  24.796  24.737   2.632
27706W        W98306  33.039  39.224   2.875
27707W        W98307   1.956  32.562   1.294
27708W        W98308  19.579   7.750  14.934
27709W        W98309  43.040  42.826   3.203
27710W        W98310  27.091  29.381  11.478
27711W        W98311  20.665   1.952   0.434
27712W        W98312  35.703  39.871  11.970
27713W        W98313   2.170   6.876  12.478
27714W        W98314  25.145  29.250  11.991
27715W        W98315  19.044  23.744  10.424
27716W        W98316  41.359  37.074   4.533
27717W        W98317   0.302   0.308   0.389
27718W        W98318  30.369  39.501   1.805
27719W        W98319  37.069  38.034  12.126
27720W        W98320  13.838  23.015  11.007
27721W        W98321   0.168  14.890   1.461
27722W        W98322   5.402  38.847   0.273
27723W        W98323  32.181  40.485   0.843
27724W        W98324  23.729  14.243   3.117
27725W        W98325   8.738  16.747   0.957
27726W        W98326  35.827  32.313   3.633
27727W        W98327  23.606  12.016   4.719
27728W        W98328  11.569  34.857  10.312
27729W        W98329  42.300   5.493  12.058
27730W        W98330   6.645  35.993   4.731
27731W        W98331  43.018  38.614   2.943
27732W        W98332  15.644  15.767   3.681
27733W        W98333  25.414  22.183   0.754
27734W        W98334   7.883  43.096  12.606
27735W        W98335  42.660  30.681  14.446
27736W        W98336   5.267   4.039  10.649
27737W        W98337  21.569  34.048  11.040
27738W        W98338  10.265  31.458   0.476
27739W        W98339  22.171  39.371   2.822
27740W        W98340   7.312  23.622   1.350
27741W        W98341  40.741  29.455   0.923
27742W        W98342  32.656  25.112   1.829
27743W        W98343  16.264   2.965  13.872
27744W        W98344  14.325  29.236   1.904
27745W        W98345  39.140  40.916  13.503
27746W        W98346  34.901  10.332  12.511
27747W        W98347  22.102   7.174  14.495
27748W        W98348  44.827  36.487  14.355
27749W        W98349  25.183   3.759  11.949
27750W        W98350  23.168  11.199   0.354
27751W        W98351  23.095   3.500   0.266
27752W        W98352  19.022  33.965  11.480
27753W        W98353  25.634  42.629  10.776
27754W        W98354  22.545  31.354  12.169
27755W        W98355  30.194  26.731   4.351
27756W        W98356   2.243  22.221  13.025
27757W        W98357  35.830  17.152  14.869
27758W        W98358  10.538  24.618   5.097
27759W        W98359  10.782  13.125   1.615
27760W        W98360  39.089  13.839   0.826
27761W        W98361  17.242  10.853   2.865
27762W        W98362  18.302  12.783   2.247
27763W        W98363  13.130   2.093  11.172
27764W        W98364  44.394  21.313  10.357
27765W        W98365   3.072  31.970   9.723
27766W        W98366  33.794  42.449  10.083
27767W        W98367  13.377  17.863  14.740
27768W        W98368  22.772  37.757  14.306
27769W        W98369  44.774  44.800   4.935
27770W        W98370   5.853  18.251   0.004
27771W        W98371  17.928  23.818   0.140
27772W        W98372  38.648  31.101   3.724
27773W        W98373  30.103  22.097  12.831
27774W        W98374  37.104  22.986  14.899
27775W        W98375  35.350   9.349  13.368
27776W        W98376  44.690  26.168  13.654
27777W        W98377  41.187  36.431   4.229
27778W        W98378  37.832  33.614  11.183
27779W        W98379  23.162  12.780  13.868
27780W        W98380  11.588  17.936   4.300
27781W        W98381  29.007  25.144  14.878
27782W        W98382  36.057  13.614   2.910
27783W        W98383   9.390  10.047   3.282
27784W        W98384  15.259  38.083   3.580
27785W        W98385  29.232   5.942  13.449
27786W        W98386  42.285  11.835   4.640
27787W        W98387  24.971  27.409  14.478
27788W        W98388  34.462  39.257  10.721
27789W        W98389  25.771  15.198   3.642
27790W        W98390   3.873   3.304  11.786
27791W        W98391  12.604  27.909   1.410
27792W        W98392  26.048  27.733   2.325
27793W        W98393  35.076   0.760  11.155
27794W        W98394  33.939  28.399  12.955
27795W        W98395  40.997  16.129  10.658
27796W        W98396  37.393   5.600   0.692
27797W        W98397   7.319  42.949   1.173
27798W        W98398  37.571  33.938   1.803
27799W        W98399  38.566  35.620   1.073
27800W        W98400  33.338  28.500   1.207
27801W        W98401  34.223  14.585  11.411
27802W        W98402  38.972  17.635   4.519
27803W        W98403  36.619  36.399  12.095
27804W        W98404  19.942  25.569  12.430
27805W        W98405  16.305  17.805   1.264
27806W        W98406  14.484  16.367  14.946
27807W        W98407  18.925  13.551   2.345
27808W        W98408  36.916  20.206  12.082
27809W        W98409  22.168  12.643  13.871
27810W        W98410  35.073   9.004   3.830
27811W        W98411  19.300  17.665   1.693
27812W        W98412  40.676  40.806   1.415
27813W        W98413  36.463   6.654  11.201
27814W        W98414  22.714  43.972  14.251
27815W        W98415   8.266  16.054  13.755
27816W        W98416  15.119  22.689  12.093
27817W        W98417   7.440  12.012   0.320
27818W        W98418   6.308   6.458  13.557
27819W        W98419  35.603  41.793  14.437
27820W        W98420  22.127  32.018  10.844
27821W        W98421  42.034   1.280  11.150
27822W        W98422  30.760   5.741   1.329
27823W        W98423  13.862  44.460   3.316
27824W        W98424  26.519   8.615  13.805
27825W        W98425  16.999  23.561  10.261
27826W        W98426  14.641  19.603   3.655
27827W        W98427  11.701  37.994   1.900
27828W        W98428  14.844  11.164  11.028
27829W        W98429  28.919  19.030   2.858
27830W        W98430  27.444   9.349  14.370
27831W        W98431   6.087  25.966   3.553
27832W        W98432  37.378  35.773  14.498
27833W        W98433  13.292  28.385   2.462
27834W        W98434  26.222  19.070   0.897
27835W        W98435  43.534  21.044   1.883
27836W        W98436   2.125  43.144  11.820
27837W        W98437   4.811   0.862  13.184
27838W        W98438  36.126   2.184   4.856
27839W        W98439   2.281  30.882   4.544
27840W        W98440  42.673  43.911   4.461
27841W        W98441  39.378  42.232   0.004
27842W        W98442  40.791  43.427   2.468
27843W        W98443  17.758   9.688  11.816
27844W        W98444   6.168  32.947   1.336
27845W        W98445  33.329  35.836  11.149
27846W        W98446  39.951  14.889  11.950
27847W        W98447  39.532  16.842  13.290
27848W        W98448  25.387  13.085   4.221
27849W        W98449  36.130  21.045   0.418
27850W        W98450  15.786  42.541  13.999
27851W        W98451   2.299  24.170  11.734
27852W        W98452  38.137  21.569   0.316
27853W        W98453  40.380  23.577   1.280
27854W        W98454  17.695  12.254   4.691
27855W        W98455  33.923  44.275  11.571
27856W        W98456  40.299  10.367  14.892
27857W        W98457  42.276  37.298   2.242
27858W        W98458   0.022  28.349   0.480
27859W        W98459  16.246  41.029   1.811
27860W        W98460   8.187   6.886   0.966
27861W        W98461  26.172   9.235   3.950
27862W        W98462  43.444  17.091  14.592
27863W        W98463  26.499  14.124  11.954
27864W        W98464  32.093  40.270   2.675
27865W        W98465  27.607   5.775  12.581
27866W        W98466  28.573  12.390   3.372
27867W        W98467  15.591   6.995   0.877
27868W        W98468  32.130  18.533   0.707
27869W        W98469  16.757  41.090  10.503
27870W        W98470  20.557  26.003  10.390
27871W        W98471  28.601  43.210  13.909
27872W        W98472  17.196  31.443   9.851
27873W        W98473  21.936  11.065  11.589
27874W        W98474  39.469  28.923   4.471
27875W        W98475  23.129   0.063  14.924
27876W        W98476  17.326  19.680   4.953
27877W        W98477  40.765  26.613  11.168
27878W        W98478  41.573  27.441   0.479
27879W        W98479   4.137  41.010   3.957
27880W        W98480  33.976  11.010   1.378
27881W        W98481  29.470  31.681   0.260
27882W        W98482   4.947  35.057  10.655
27883W        W98483  21.954  16.270  10.705
27884W        W98484  21.136  14.361   0.409
27885W        W98485  17.525  14.569   3.098
27886W        W98486  34.400  21.312  13.692
27887W        W98487  24.721  35.942   4.874
27888W        W98488   5.710  24.788   3.496
27889W        W98489  40.589  42.697  13.033
27890W        W98490  37.065   9.911  11.113
27891W        W98491  18.333  25.746   0.349
27892W        W98492  16.794  21.006  12.838
27893W        W98493  32.146  41.451  13.881
27894W        W98494  43.234  13.266  14.462
27895W        W98495  26.208  29.695   1.022
27896W        W98496  20.747  30.522   0.386
27897W        W98497  14.547  11.811   3.997
27898W        W98498  12.199  43.477   3.093
27899W        W98499  35.930  34.453  14.094
27900W        W98500   5.087  10.305  12.018
27901W        W98501  35.496  38.533  12.305
27902W        W98502  20.715  29.682  10.640
27903W        W98503  43.787  35.085   2.069
27904W        W98504  34.844   5.912   4.199
27905W        W98505  44.502   7.571  13.930
27906W        W98506  37.553  12.190   3.916
27907W        W98507   5.935  22.524   1.465
27908W        W98508  30.383  21.025   3.326
27909W        W98509  20.209  28.056  11.539
27910W        W98510  10.159   5.708   4.738
27911W        W98511  10.918  17.713  10.684
27912W        W98512  33.050  12.241   4.095
27913W        W98513   5.821   6.021  12.586
27914W        W98514   2.339  32.990   0.295
27915W        W98515  31.823  31.108   4.267
27916W        W98516  18.049  37.990  13.268
27917W        W98517   2.073  18.688   4.923
27918W        W98518  14.274   6.411   1.523
27919W        W98519  42.912   6.773   2.610
27920W        W98520   0.901  37.319   4.015
27921W        W98521  10.687  32.582   2.134
27922W        W98522  38.988  12.415  14.352
27923W        W98523  42.421  24.958  13.985
27924W        W98524  37.249  38.971  14.335
27925W        W98525  26.242  34.384  12.649
27926W        W98526   0.973  15.304   1.321
27927W        W98527  28.476  38.542   4.132
27928W        W98528  19.635   4.904  14.837
27929W        W98529  23.136   9.240   9.546
27930W        W98530  42.275   6.699  12.506
27931W        W98531  27.174  25.969   1.537
27932W        W98532  10.853  28.630  12.019
27933W        W98533  26.527   7.424  11.796
27934W        W98534  19.046  29.387   4.111
27935W        W98535  14.862   6.851  12.619
27936W        W98536  26.614   7.235   2.718
27937W        W98537  41.606   5.646  14.999
27938W        W98538  14.503  28.432  14.491
27939W        W98539   0.261   5.071  14.385
27940W        W98540  15.104   7.568   1.463
27941W        W98541  35.385  27.273   1.260
27942W        W98542  24.665  35.962   2.369
27943W        W98543  11.055  35.028   1.356
27944W        W98544  39.850  18.562   0.373
27945W        W98545   4.194  41.083  12.875
27946W        W98546  35.607  20.951   0.346
27947W        W98547  25.424  20.806   1.849
27948W        W98548   2.440   2.202  11.597
27949W        W98549  35.320  35.891  12.346
27950W        W98550  22.742  22.165  10.494
27951W        W98551   0.417  28.026  13.987
27952W        W98552  28.425  24.492  14.351
27953W        W98553   1.539  27.520  12.943
27954W        W98554   4.924  37.509   2.781
27955W        W98555   5.664   9.273   2.835
27956W        W98556  39.033  30.179   1.263
27957W        W98557  16.047  23.213  11.610
27958W        W98558  43.413   1.988  10.518
27959W        W98559   6.847  24.009   1.724
27960W        W98560   7.329  42.823   2.186
27961W        W98561  22.648  36.925  14.927
27962W        W98562   7.874  20.899   4.562
27963W        W98563  25.596  36.532  11.591
27964W        W98564  10.869   4.811   3.112
27965W        W98565   3.954  41.772   2.060
27966W        W98566   3.873  37.716   0.294
27967W        W98567  19.218  21.160  13.054
27968W        W98568  29.125  10.470   2.288
27969W        W98569  37.166  16.158   2.894
27970W        W98570  12.285  24.578   1.010
27971W        W98571  13.876  37.602  11.592
27972W        W98572  23.039  44.252   3.246
27973W        W98573  44.845  29.440   0.480
27974W        W98574  40.841  40.302   4.732
27975W        W98575  39.903  43.801   2.146
27976W        W98576  40.286  20.704  12.867
27977W        W98577  12.524   4.748  13.825
27978W        W98578  39.825   3.788   3.446
27979W        W98579  44.256   6.188   2.678
27980W        W98580  27.230  15.927   3.362
27981W        W98581  39.499  39.938  13.573
27982W        W98582  38.374  39.207   2.742
27983W        W98583  38.831  15.538   3.693
27984W        W98584  37.254   2.173  10.849
27985W        W98585  34.368  32.705   0.252
27986W        W98586   0.363   0.447   1.868
27987W        W98587  10.671  36.223  12.380
27988W        W98588  37.186  27.948   2.294
27989W        W98589  39.854  26.227   0.653
27990W        W98590  22.434  25.680  13.737
27991W        W98591  30.114   8.200   2.307
27992W        W98592  28.192  13.286   1.040
27993W        W98593  11.943  35.537  12.292
27994W        W98594  28.888  27.436  14.748
27995W        W98595   3.033  21.541  14.935
27996W        W98596   2.193  10.298   4.476
27997W        W98597  43.252  34.076   3.624
27998W        W98598  31.413  38.440   4.605
27999W        W98599   4.529   8.232  12.714
28000W        W98600  41.543   2.472   3.588
28001W        W98601  28.918  10.376   4.258
28002W        W98602   1.748  15.202  12.468
28003W        W98603  44.052  13.391  14.149
28004W        W98604  21.293  38.649  11.959
28005W        W98605   4.388  18.561  10.453
28006W        W98606   1.969   3.141  12.975
28007W        W98607  37.050  25.620  12.450
28008W        W98608  29.914  18.122   0.569
28009W        W98609  44.233  12.179  12.378
28010W        W98610   7.380   2.590  10.997
28011W        W98611  28.931   0.842   1.439
28012W        W98612  40.486  13.851   2.236
28013W        W98613  29.141  30.520   4.073
28014W        W98614  26.028  44.893  14.947
28015W        W98615  43.196  19.832   3.185
28016W        W98616  12.999   7.982   1.935
28017W        W98617   8.825   3.825  11.056
28018W        W98618  22.412  18.784  11.129
28019W        W98619  10.057  11.437   2.666
28020W        W98620  19.656  28.221   1.405
28021W        W98621  15.098  25.491  11.653
28022W        W98622  14.599  22.958   3.218
28023W        W98623  24.656  12.378   4.606
28024W        W98624  40.809  18.138   0.458
28025W        W98625   6.252  34.029   0.160
28026W        W98626  27.494  44.455  11.116
28027W        W98627   3.864  38.489  14.833
28028W        W98628   1.299   1.437  14.503
28029W        W98629  20.309  16.130   0.406
28030W        W98630   1.554  25.214   4.310
28031W        W98631  10.620   9.853  13.460
28032W        W98632  40.810   4.229   3.093
28033W        W98633  19.080  10.615  10.649
28034W        W98634  16.322  36.834  13.003
28035W        W98635  35.973  32.807   2.669
28036W        W98636  31.295  18.839  12.512
28037W        W98637  41.635  23.498  10.537
28038W        W98638  30.673  31.924   3.242
28039W        W98639  31.355   3.315  12.876
28040W        W98640   3.887   3.808  11.713
28041W        W98641   5.373  25.049   4.776
28042W        W98642  35.368  22.846   0.380
28043W        W98643  18.139  32.625   4.622
28044W        W98644   9.105   0.040  11.021
28045W        W98645  37.939  43.300   1.774
28046W        W98646  19.569  24.557   0.416
28047W        W98647  43.862   0.923   2.777
28048W        W98648  42.034  29.176  12.362
28049W        W98649  42.406   7.270   1.007
28050W        W98650  25.542  32.648   0.246
28051W        W98651  26.918   2.966  12.170
28052W        W98652  13.693  23.521  12.989
28053W        W98653  24.495   3.523  11.287
28054W        W98654   2.477  21.966  14.231
28055W        W98655  44.510  35.616  13.485
28056W        W98656   7.744   2.451   0.721
28057W        W98657  43.287  40.395   0.038
28058W        W98658  43.009  34.513  14.506
28059W        W98659  30.643  11.447  13.982
28060W        W98660  40.966  12.024  11.694
28061W        W98661  31.835  31.930  11.311
28062W        W98662   8.530   9.889   0.301
28063W        W98663  36.519  20.129   4.694
28064W        W98664   3.746  16.536   2.655
28065W        W98665   4.865  24.970   1.275
28066W        W98666  26.267   5.015  13.568
28067W        W98667  39.484  38.652   0.447
28068W        W98668   6.348  37.268  14.275
28069W        W98669  11.661   0.910   0.539
28070W        W98670  38.790  31.944   0.261
28071W        W98671  17.237   0.394   2.124
28072W        W98672  35.439  15.340   3.224
28073W        W98673  41.260  32.786  10.698
28074W        W98674  17.267  30.398  13.229
28075W        W98675  39.093  17.482   3.634
28076W        W98676  32.538  36.010   4.140
28077W        W98677  29.131  25.721   4.245
28078W        W98678  21.123   3.057   4.880
28079W        W98679  24.719  22.925  11.199
28080W        W98680  13.166   3.901   1.864
28081W        W98681  44.129  38.984   9.918
28082W        W98682  43.270  33.050   0.336
28083W        W98683  20.178  38.157   0.877
28084W        W98684  13.076  14.010   2.518
28085W        W98685  38.440  43.220  12.580
28086W        W98686   0.004  42.502   5.055
28087W        W98687  31.899  11.625   3.692
28088W        W98688  22.553  28.032  11.601
28089W        W98689   9.893  26.214  14.914
28090W        W98690  44.242  32.127   3.295
28091W        W98691  28.698   5.775   4.308
28092W        W98692  40.486   1.925  11.497
28093W        W98693  41.867   5.351  14.343
28094W        W98694  22.435   0.075   2.608
28095W        W98695  20.566  27.134  13.761
28096W        W98696  27.925  17.230  12.811
28097W        W98697   3.475   2.841  14.947
28098W        W98698  41.267  40.050  14.273
28099W        W98699  13.018  40.993   3.215
28100W        W98700  23.774  19.192   3.667
28101W        W98701  23.401   5.040  12.460
28102W        W98702   4.648  21.172  11.987
28103W        W98703  23.942  31.123   2.618
28104W        W98704  20.620  12.689   3.820
28105W        W98705  29.240  28.987  13.618
28106W        W98706  40.770   6.741  13.393
28107W        W98707  33.053  31.173  13.416
28108W        W98708  26.366  13.861   1.217
28109W        W98709   6.429  27.530  11.463
28110W        W98710  38.574  35.556  12.391
28111W        W98711   4.173  20.947  12.012
28112W        W98712  15.940   1.752   3.594
28113W        W98713  40.059  40.844   4.485
28114W        W98714  27.746   5.143   4.695
28115W        W98715  36.798   3.604  12.748
28116W        W98716  17.659  19.058   1.683
28117W        W98717  34.517  14.104  10.553
28118W        W98718  40.353   8.674   1.882
28119W        W98719  23.566  42.337   4.253
28120W        W98720  13.913  14.135  14.847
28121W        W98721   1.669  35.338   4.099
28122W        W98722  21.804  28.604   3.838
28123W        W98723   9.567  22.502   3.022
28124W        W98724  29.541  43.229   2.571
28125W        W98725  11.721  25.656   0.396
28126W        W98726   3.524  22.734   3.312
28127W        W98727  43.383   7.059  11.644
28128W        W98728  14.680  21.711   2.671
28129W        W98729  28.190  37.343   3.863
28130W        W98730  24.282  21.607  14.069
28131W        W98731  17.230  37.622  13.022
28132W        W98732   5.638  12.131  11.630
28133W        W98733  26.080  35.309   1.859
28134W        W98734  12.487  39.987  12.169
28135W        W98735  43.975  12.406   0.774
28136W        W98736  11.685  40.828   1.400
28137W        W98737  18.747  35.569   2.679
28138W        W98738  13.905   7.965   3.939
28139W        W98739  24.802  43.628   2.369
28140W        W98740   8.539  20.117   1.217
28141W        W98741  14.268   3.864   4.297
28142W        W98742  35.835  38.453   3.877
28143W        W98743  35.090  24.600  11.977
28144W        W98744  26.244  14.094   2.305
28145W        W98745  43.642   3.705   2.156
28146W        W98746   9.185  10.538   5.034
28147W        W98747  42.551  10.988  10.360
28148W        W98748   1.332  26.970  12.049
28149W        W98749  24.254  38.153  13.013
28150W        W98750  24.766  36.441   2.625
28151W        W98751   7.323  11.979   1.130
28152W        W98752  34.947  29.588   3.914
28153W        W98753   5.361  32.543   1.047
28154W        W98754  24.107  43.230  12.177
28155W        W98755  23.265  39.943  11.066
28156W        W98756  36.779  31.597  14.498
28157W        W98757  18.330   9.378   3.188
28158W        W98758  31.263   6.274  10.340
28159W        W98759  11.930  13.824   4.620
28160W        W98760  28.655  23.918   3.705
28161W        W98761  21.021   7.378   0.802
28162W        W98762   2.944  34.087  14.562
28163W        W98763  12.438   5.720  12.287
28164W        W98764  38.063  27.652  14.869
28165W        W98765  26.383  43.058  13.511
28166W        W98766  18.503  10.590  12.828
28167W        W98767  14.065  31.016   0.743
28168W        W98768  33.344   5.232   1.371
28169W        W98769   2.350  30.698   1.344
28170W        W98770  22.022  10.638  12.660
28171W        W98771  32.365  24.404  10.717
28172W        W98772  14.805  10.095  10.506
28173W        W98773  24.593  16.715   2.422
28174W        W98774  16.807   2.691   1.958
28175W        W98775  18.282  36.992  12.905
28176W        W98776  19.028  10.114   2.237
28177W        W98777  30.595   3.221  14.889
28178W        W98778  13.792  38.989  14.041
28179W        W98779  40.411   1.785   3.360
28180W        W98780  42.444  20.325   0.974
28181W        W98781  28.726  30.206   4.191
28182W        W98782  21.856  40.362   3.885
28183W        W98783   9.032  15.197  13.370
28184W        W98784   9.997   9.775  11.963
28185W        W98785  17.750   1.735   3.172
28186W        W98786  39.572  30.949   2.477
28187W        W98787   7.937  26.739  13.787
28188W        W98788  29.423  13.097  14.215
28189W        W98789  28.199  27.156  14.917
28190W        W98790   9.839  32.616   4.627
28191W        W98791   8.654   9.571   1.655
28192W        W98792  31.128  20.895  10.980
28193W        W98793  18.702  31.497   4.764
28194W        W98794   2.438  22.648  14.823
28195W        W98795  42.504   9.704  11.645
28196W        W98796  17.144  32.359  14.859
28197W        W98797  41.560  35.914  14.796
28198W        W98798   0.496   9.388   3.810
28199W        W98799  21.186  29.191  10.761
28200W        W98800  30.639  26.582  13.013
28201W        W98801  43.477  37.871  14.165
28202W        W98802  34.716  40.818   0.260
28203W        W98803  36.007  24.631   2.605
28204W        W98804  29.696  38.951  12.442
28205W        W98805   9.425  21.505   3.541
28206W        W98806  10.331  20.134  11.304
28207W        W98807   6.334  17.206  13.549
28208W        W98808  29.822   4.379  11.093
28209W        W98809  12.792  38.503  11.569
28210W        W98810  20.789  21.474   1.388
28211W        W98811  10.826  33.021  13.319
28212W        W98812   5.375  35.381   1.782
28213W        W98813  35.385  32.628  11.119
28214W        W98814  41.367  17.743   1.782
28215W        W98815  21.470  34.517  14.911
28216W        W98816  13.374  18.158   0.970
28217W        W98817   9.439  37.972   2.743
28218W        W98818  16.323  22.256  10.922
28219W        W98819  34.027  29.569   2.874
28220W        W98820  15.831  15.707  13.296
28221W        W98821   1.477  31.060   0.908
28222W        W98822   3.881  29.753   2.653
28223W        W98823  38.491   2.287  10.629
28224W        W98824  26.573  17.662   1.320
28225W        W98825  12.073  33.351  14.251
28226W        W98826  32.939  25.059   1.411
28227W        W98827  44.468  30.209   3.191
28228W        W98828   4.396  11.929  14.274
28229W        W98829  38.851  38.917   4.663
28230W        W98830  36.479  25.545  13.514
28231W        W98831  44.231  44.844  11.926
28232W        W98832   9.848  35.143   4.385
28233W        W98833  34.980   7.914  10.946
28234W        W98834   6.935  27.041   2.845
28235W        W98835  35.610  33.039   0.302
28236W        W98836  43.337  32.941  12.411
28237W        W98837  36.017  34.088  12.770
28238W        W98838   2.699  22.948   3.369
28239W        W98839  42.291  16.109  13.521
28240W        W98840   8.137  12.917  10.744
28241W        W98841  33.169   3.100  14.290
28242W        W98842  21.079   3.880   0.954
28243W        W98843  32.847  37.921   1.886
28244W        W98844  13.207  19.884   1.758
28245W        W98845  36.619  24.243   2.913
28246W        W98846  39.614   1.017   0.419
28247W        W98847   8.794  30.078  14.384
28248W        W98848  37.916  37.849  14.100
28249W        W98849  10.836  20.083  13.273
28250W        W98850  27.183  40.849  14.898
28251W        W98851  41.398  12.369  10.778
28252W        W98852  42.033   0.711  14.221
28253W        W98853  43.853  19.569   2.789
28254W        W98854  18.246   1.354  13.554
28255W        W98855  30.346  19.197  12.886
28256W        W98856  27.801  23.747   1.177
28257W        W98857  30.381   0.725  14.834
28258W        W98858   2.909   9.197  10.962
28259W        W98859  44.360  10.952   0.913
28260W        W98860  17.179  37.027   3.688
28261W        W98861   7.251  28.983  11.223
28262W        W98862   6.664   3.039   0.890
28263W        W98863   7.864  29.982   2.161
28264W        W98864  42.400  40.319  13.947
28265W        W98865  31.413   8.480   4.512
28266W        W98866  13.761  38.520  10.664
28267W        W98867  12.796  25.913   1.509
28268W        W98868  27.218   2.217   0.964
28269W        W98869  10.936   6.966  14.943
28270W        W98870  38.452  36.588  11.348
28271W        W98871  33.643  39.925   3.899
28272W        W98872  38.740  19.373  12.983
28273W        W98873  35.352   8.412   1.833
28274W        W98874  39.855   9.668  12.920
28275W        W98875  43.460   5.625   3.045
28276W        W98876  43.020  38.805   1.111
28277W        W98877  20.022  36.918  13.323
28278W        W98878   2.714  38.776   1.674
28279W        W98879  17.955   2.294  11.299
28280W        W98880   3.766  28.907  10.900
28281W        W98881  27.625  19.542   2.649
28282W        W98882  21.215  34.285   3.258
28283W        W98883   8.432  17.683   1.017
28284W        W98884  38.596  41.703   0.957
28285W        W98885   7.399  28.606  12.354
28286W        W98886  12.142   6.786   2.660
28287W        W98887  11.828  14.201   1.593
28288W        W98888  36.492  18.721   3.643
28289W        W98889  40.857  22.202  10.760
28290W        W98890  33.502   4.342  11.244
28291W        W98891  27.667   4.010   1.296
28292W        W98892  13.379  21.032   1.132
28293W        W98893  20.232  33.944   1.717
28294W        W98894  13.852  32.732  11.024
28295W        W98895  12.395  32.874  14.547
28296W        W98896  23.114  26.653   0.815
28297W        W98897  18.334  32.476  12.337
28298W        W98898  40.442  36.197   0.751
28299W        W98899   6.796   5.404   0.183
28300W        W98900  11.599  28.629   0.938
28301W        W98901  18.166  11.624   3.101
28302W        W98902   1.238   3.429   0.314
28303W        W98903  14.583  31.977   4.255
28304W        W98904  12.816  44.572  12.345
28305W        W98905  34.159  17.168   4.735
28306W        W98906   5.269  13.712   1.813
28307W        W98907  15.912  42.784   2.523
28308W        W98908  14.190  42.964  10.263
28309W        W98909  35.804  30.643   3.163
28310W        W98910  29.562  25.854   3.075
28311W        W98911  34.002  37.548   0.783
28312W        W98912  31.927  18.104  12.982
28313W        W98913  11.135  15.225   1.374
28314W        W98914   3.859  30.532  10.210
28315W        W98915  17.133  40.430  11.559
28316W        W98916   3.731  28.795  12.448
28317W        W98917  35.828  14.452  11.557
28318W        W98918  12.745  43.078   3.165
28319W        W98919  44.791   2.221   0.709
28320W        W98920  27.573  35.068  12.934
28321W        W98921  42.005  15.295   4.228
28322W        W98922  17.811  29.102   3.083
28323W        W98923  21.509  43.763   0.886
28324W        W98924   5.193  16.298   3.797
28325W        W98925   3.805   4.669  10.641
28326W        W98926  36.894   8.224   0.308
28327W        W98927  23.296   2.741   4.229
28328W        W98928  39.337   9.209   3.380
28329W        W98929  37.341   7.622  12.181
28330W        W98930   2.783   9.586   1.526
28331W        W98931  14.867   1.351  12.917
28332W        W98932   4.239  19.173  13.756
28333W        W98933  31.307  15.116  11.059
28334W        W98934  36.380  10.624   2.302
28335W        W98935  29.005   2.692  11.544
28336W        W98936  14.955  18.581  14.380
28337W        W98937  39.193   5.257   3.298
28338W        W98938  21.709  17.103  13.557
28339W        W98939  40.724   3.006  10.718
28340W        W98940  27.976  29.661   4.255
28341W        W98941  25.714  42.756   0.316
28342W        W98942  30.220  15.295   3.085
28343W        W98943  17.227  24.765  10.789
28344W        W98944  30.585  16.582   1.261
28345W        W98945   8.274  29.925  14.464
28346W        W98946  16.178  37.044  11.650
28347W        W98947  30.684  14.150  13.578
28348W        W98948   1.223   0.829   4.334
28349W        W98949  14.245   5.678  10.937
28350W        W98950  34.061  31.323  11.429
28351W        W98951  39.956  14.190   3.934
28352W        W98952   0.952   1.549   0.352
28353W        W98953  43.343  44.914   4.517
28354W        W98954  36.957  41.795  13.084
28355W        W98955  43.807  43.063  10.122
28356W        W98956   2.006  29.049   4.089
28357W        W98957  14.205  27.859   3.976
28358W        W98958  31.153  24.106  14.455
28359W        W98959  42.766  32.147   1.762
28360W        W98960  40.961  20.951   2.132
28361W        W98961  32.873  33.964  13.971
28362W        W98962  10.302  15.781  14.494
28363W        W98963  29.440  32.421  14.591
28364W        W98964  32.918  38.070  14.592
28365W        W98965   7.149  36.239  11.088
28366W        W98966  38.945  43.763   0.739
28367W        W98967   9.705  14.289  12.184
28368W        W98968  34.635   1.926   4.936
28369W        W98969  23.527  41.900   1.407
28370W        W98970  40.024  16.700   2.789
28371W        W98971   9.204   4.246  14.987
28372W        W98972  29.000  41.027   3.519
28373W        W98973  26.511   0.436   4.493
28374W        W98974   6.011  43.213  10.742
28375W        W98975  30.999  14.500   2.351
28376W        W98976   4.912  37.004  10.692
28377W        W98977  23.914  33.872   1.774
28378W        W98978  29.720   0.190  14.827
28379W        W98979  39.264  36.951   0.977
28380W        W98980  15.166  28.362  11.159
28381W        W98981   6.709  25.634   2.586
28382W        W98982   1.254  22.047  10.788
28383W        W98983  40.280   8.758  13.304
28384W        W98984  43.842  39.076   4.348
28385W        W98985  33.340  36.965   4.597
28386W        W98986  16.310  42.514  13.976
28387W        W98987  11.534  21.076  13.549
28388W        W98988  27.345  15.237   2.617
28389W        W98989  20.698  31.079   2.908
28390W        W98990  17.473   7.649  14.313
28391W        W98991  20.648   8.877   2.682
28392W        W98992  42.044   3.211   0.897
28393W        W98993  35.061  41.405  14.770
28394W        W98994  12.508   3.286  14.303
28395W        W98995  30.539  26.147   1.832
28396W        W98996  30.117  32.114   2.189
28397W        W98997  32.118  24.127  13.487
28398W        W98998  11.119  39.550   0.486
28399W        W98999  13.103  30.104  14.304
28400W        W99000  20.925   5.815   5.280
28401W        W99001  27.068  26.994  11.924
28402W        W99002  14.604  35.340  10.704
28403W        W99003   9.161  29.053  11.707
28404W        W99004  27.836  39.470   3.643
28405W        W99005  33.594  23.994  13.842
28406W        W99006  15.076  21.655  14.844
28407W        W99007  21.243  22.731  10.669
28408W        W99008  30.411  34.601  12.056
28409W        W99009  29.971  12.588   0.741
28410W        W99010  40.365  31.980   4.619
28411W        W99011  33.155   6.961   2.321
28412W        W99012  26.075  22.042   1.436
28413W        W99013  42.521  22.387   0.737
28414W        W99014  12.602  40.866  10.991
28415W        W99015  44.954  12.386   2.736
28416W        W99016  19.004  29.874  11.562
28417W        W99017  30.095  39.394  14.945
28418W        W99018  41.301  29.002  14.024
28419W        W99019   5.690  40.327  12.052
28420W        W99020  21.280  43.809   2.713
28421W        W99021  16.823   6.421  11.688
28422W        W99022  44.487  31.167   3.217
28423W        W99023  12.768  44.824   0.533
28424W        W99024  21.699  11.303   4.324
28425W        W99025  27.004  26.486  14.710
28426W        W99026  26.881  21.030   2.755
28427W        W99027  34.349  35.744  11.935
28428W        W99028  27.536   3.194   2.194
28429W        W99029  28.874  14.677   3.425
28430W        W99030  16.543  24.030  12.502
28431W        W99031  37.179  17.596  13.944
28432W        W99032   5.338  32.020   4.516
28433W        W99033   6.626  34.075  14.383
28434W        W99034   3.442  22.260   0.956
28435W        W99035  17.055  13.134  14.992
28436W        W99036  37.864   4.423   0.554
28437W        W99037  12.587  41.583  11.515
28438W        W99038  24.711  24.047   3.389
28439W        W99039  42.161  19.460  12.590
28440W        W99040  14.789  17.918   0.550
28441W        W99041   0.007   2.181   4.762
28442W        W99042  34.060  20.212  12.183
28443W        W99043  27.641  14.797   0.411
28444W        W99044  13.200  31.697  13.355
28445W        W99045   9.785  43.732  11.204
28446W        W99046  39.009  25.375   1.184
28447W        W99047  22.397   4.425  12.818
28448W        W99048  28.469  35.367  10.668
28449W        W99049  38.447   2.807  13.289
28450W        W99050   0.260   2.272   0.470
28451W        W99051  36.880  16.018   0.362
28452W        W99052  19.174  19.629   4.871
28453W        W99053  33.380  44.940  14.935
28454W        W99054  22.350  42.918  11.591
28455W        W99055  28.396  37.156   3.256
28456W        W99056   9.185  28.233  10.386
28457W        W99057  29.969  29.446  11.735
28458W        W99058   9.400  19.002   4.826
28459W        W99059  35.296   0.962   4.846
28460W        W99060  20.243  32.532   2.820
28461W        W99061  32.640  37.945   3.577
28462W        W99062  16.358  28.984   3.598
28463W        W99063  14.355   8.443   4.724
28464W        W99064   2.315   7.211  14.358
28465W        W99065  26.302   5.733   0.776
28466W        W99066   8.252  34.435   2.698
28467W        W99067  41.884  36.067   2.929
28468W        W99068  41.768  38.392  11.020
28469W        W99069  33.371  21.835   4.644
28470W        W99070  43.334  19.315   3.140
28471W        W99071   7.414  31.941  13.316
28472W        W99072  13.296  26.334  13.520
28473W        W99073  11.841   4.136   0.004
28474W        W99074   7.130  42.436  14.839
28475W        W99075  21.652  20.514  13.075
28476W        W99076  18.407  21.106   1.298
28477W        W99077  25.025   8.188   1.382
28478W        W99078   3.289  17.711   4.162
28479W        W99079  26.229  15.167   1.906
28480W        W99080  18.950  44.891  13.313
28481W        W99081  33.305  10.217   3.949
28482W        W99082   7.669  37.857   4.051
28483W        W99083  33.379   1.528   1.943
28484W        W99084  10.915   6.265  10.640
28485W        W99085  27.120  27.850   2.719
28486W        W99086  35.485  37.041  13.376
28487W        W99087  36.677   1.741  12.881
28488W        W99088   1.708   9.217  12.431
28489W        W99089  27.657  30.530  14.528
28490W        W99090  37.404   3.404   3.156
28491W        W99091  21.243  43.441  11.964
28492W        W99092  43.839   7.763   2.738
28493W        W99093  26.176  34.167  11.458
28494W        W99094  33.603  21.750  13.181
28495W        W99095  21.056  22.205   0.321
28496W        W99096  17.724  23.353   0.194
28497W        W99097  24.504  31.415  14.995
28498W        W99098  23.840  33.067  11.928
28499W        W99099  18.031  32.512   1.219
28500W        W99100  29.986  13.075  11.716
28501W        W99101   2.262  30.158  11.633
28502W        W99102  38.387  30.954   4.171
28503W        W99103   0.679  25.095   1.940
28504W        W99104  14.700  34.046  13.785
28505W        W99105  17.252  38.756   0.540
28506W        W99106  30.127  12.156   0.993
28507W        W99107  19.723   3.409  12.098
28508W        W99108   2.758  16.041   0.431
28509W        W99109  23.826  43.674   2.884
28510W        W99110   9.136  22.941  14.594
28511W        W99111  15.199  31.070   4.358
28512W        W99112   3.829  25.429  13.598
28513W        W99113  28.879   9.850  11.977
28514W        W99114   9.338  33.759  14.905
28515W        W99115  27.936  23.056  10.319
28516W        W99116   7.929   4.002  13.098
28517W        W99117  24.182  21.195  14.373
28518W        W99118  10.557   4.886  11.033
28519W        W99119  22.718  29.924  12.117
28520W        W99120  19.311  12.205   2.896
28521W        W99121  17.294   3.747   0.361
28522W        W99122  34.506  18.552  13.912
28523W        W99123   7.722  38.279  13.968
28524W        W99124  42.501   6.329   4.673
28525W        W99125   1.819   8.993  11.130
28526W        W99126  36.636  25.517   3.225
28527W        W99127  11.475  31.474  13.963
28528W        W99128   8.775   5.337  13.955
28529W        W99129  16.759  13.624   0.303
28530W        W99130  40.586  27.584   0.204
28531W        W99131  26.098  11.798   3.826
28532W        W99132   7.908   7.344  10.763
28533W        W99133  42.861  32.882  12.124
28534W        W99134  43.820  26.473   1.469
28535W        W99135  39.252   2.290   1.465
28536W        W99136  11.361  31.871   1.282
28537W        W99137  36.475   5.709  11.535
28538W        W99138  21.529  42.716  12.619
28539W        W99139  14.816  10.072   1.841
28540W        W99140  40.604  12.135  12.845
28541W        W99141  43.800   8.882   1.310
28542W        W99142   6.710  41.316  13.437
28543W        W99143   5.133  20.205   4.384
28544W        W99144  22.197   5.968   0.333
28545W        W99145  35.712  23.350   1.251
28546W        W99146  19.029  18.398   1.369
28547W        W99147  33.985  22.765   0.916
28548W        W99148   1.555  28.732   2.416
28549W        W99149  27.081   6.264   3.413
28550W        W99150  25.074   5.925  11.580
28551W        W99151  38.808   8.968   2.657
28552W        W99152  33.139  28.071   1.425
28553W        W99153  11.819  36.135  10.786
28554W        W99154  44.008  19.691  14.092
28555W        W99155  18.532   0.985   3.904
28556W        W99156  34.560   8.220   3.656
28557W        W99157  12.324  34.460   1.204
28558W        W99158   9.662  23.157   2.317
28559W        W99159  28.212  12.474  10.201
28560W        W99160   0.986  35.915   3.235
28561W        W99161  23.107  13.628   3.179
28562W        W99162  23.647  29.982  13.766
28563W        W99163  44.863  38.784  13.119
28564W        W99164   3.711   8.252   2.268
28565W        W99165  32.459  27.016  11.141
28566W        W99166  12.204  27.055  14.747
28567W        W99167  39.005  27.184   4.227
28568W        W99168  39.665  41.936   0.797
28569W        W99169   1.953  39.068   1.299
28570W        W99170  22.360   9.749   2.332
28571W        W99171  18.231  32.016   1.262
28572W        W99172  41.770  16.556   3.866
28573W        W99173  23.070  16.624  10.747
28574W        W99174  43.022  26.037   4.827
28575W        W99175  15.257  12.560   9.851
28576W        W99176   7.891   8.166  13.037
28577W        W99177  34.860  25.205   1.289
28578W        W99178  42.781  34.146   2.179
28579W        W99179  32.353  24.448   0.001
28580W        W99180   9.804  27.346   3.160
28581W        W99181  25.102  22.052  13.825
28582W        W99182  33.364  30.192  10.689
28583W        W99183  42.675   8.936  14.752
28584W        W99184  18.329   1.683   4.356
28585W        W99185  34.343  36.284   3.283
28586W        W99186  22.658  17.259  14.798
28587W        W99187   4.446  29.963   1.791
28588W        W99188  25.170  10.589   0.305
28589W        W99189  11.848  23.118   1.797
28590W        W99190   6.375  25.122  12.935
28591W        W99191  12.525  33.773   0.682
28592W        W99192  24.661   5.958   3.695
28593W        W99193  15.516  40.292  12.258
28594W        W99194  26.529  20.302   4.127
28595W        W99195  13.920  13.300   3.997
28596W        W99196  18.733  12.892  13.467
28597W        W99197  27.232  44.488   2.978
28598W        W99198  13.702   7.629   0.384
28599W        W99199  19.021   3.153  12.401
28600W        W99200   2.910  12.385  11.052
28601W        W99201  13.502  42.974   1.432
28602W        W99202  21.606  12.803   0.802
28603W        W99203  43.340  22.159  10.448
28604W        W99204  17.828  37.662  10.225
28605W        W99205  40.144  14.145   2.654
28606W        W99206  15.648  17.130   4.148
28607W        W99207   7.710  42.726  13.911
28608W        W99208  28.997  23.482  12.991
28609W        W99209  41.309  39.363  12.499
28610W        W99210   2.535  28.446  11.131
28611W        W99211  32.502  30.726   3.244
28612W        W99212  30.037  42.856  13.772
28613W        W99213  25.137  12.836   1.560
28614W        W99214  40.982  31.716   1.746
28615W        W99215   4.941   0.449  14.403
28616W        W99216  23.643   0.482   2.730
28617W        W99217  37.060  44.795  14.432
28618W        W99218  34.176  23.384  11.564
28619W        W99219  11.536   9.209  13.317
28620W        W99220   7.094  28.665   4.677
28621W        W99221  38.708  27.762  12.995
28622W        W99222  18.160  12.212  14.899
28623W        W99223   9.611  39.387   2.196
28624W        W99224  35.851  11.211   3.255
28625W        W99225  27.443  34.410   4.513
28626W        W99226  16.152   1.905   4.671
28627W        W99227  13.708   4.513  14.463
28628W        W99228   3.209   8.582   3.348
28629W        W99229   9.690  41.188   2.770
28630W        W99230  17.089  25.117   2.289
28631W        W99231  30.930  18.711  14.805
28632W        W99232   9.316   1.824   4.689
28633W        W99233  40.558  39.074  10.814
28634W        W99234  41.567   3.327   3.665
28635W        W99235   4.325  29.431  13.127
28636W        W99236  13.663  24.027  11.841
28637W        W99237   3.742   8.749   3.645
28638W        W99238   8.258  36.729   0.163
28639W        W99239  36.025  23.106   4.403
28640W        W99240  15.672   9.158  13.737
28641W        W99241   7.343  44.761  12.962
28642W        W99242  42.339  30.076   2.189
28643W        W99243  33.647  27.533   1.903
28644W        W99244  32.594  42.480  14.999
28645W        W99245  43.044  18.805   4.936
28646W        W99246  34.329  30.428   1.274
28647W        W99247   6.941  43.789   4.755
28648W        W99248  19.515  13.160  14.779
28649W        W99249  42.839  34.507   4.561
28650W        W99250   0.384  32.388  12.582
28651W        W99251   4.440  13.729  14.985
28652W        W99252   9.824  34.308   3.364
28653W        W99253  34.511  35.851  14.251
28654W        W99254  12.796  14.379   1.267
28655W        W99255  27.614   4.206   2.540
28656W        W99256  24.854  40.014   2.217
28657W        W99257  27.439  33.529  12.877
28658W        W99258  31.495  27.173   1.745
28659W        W99259  22.087  38.382  11.181
28660W        W99260  35.492   5.758  13.033
28661W        W99261  41.496  17.248   4.552
28662W        W99262  42.483   8.684  14.302
28663W        W99263  43.804   1.330   0.180
28664W        W99264  17.185  18.036   0.389
28665W        W99265  41.942  30.328   2.401
28666W        W99266  11.814  33.470   1.692
28667W        W99267  24.722  36.338  13.487
28668W        W99268  42.457  15.490   1.388
28669W        W99269  10.587  29.582  12.903
28670W        W99270  33.665  32.612   0.800
28671W        W99271  33.347  36.927  12.239
28672W        W99272  41.829  28.059  12.949
28673W        W99273  39.065  27.155   3.387
28674W        W99274  38.968   0.339   4.660
28675W        W99275   3.702  25.005   3.693
28676W        W99276  27.616  42.445  14.392
28677W        W99277  14.575   6.731   2.381
28678W        W99278   2.959  42.422  11.516
28679W        W99279  29.089  14.616  12.371
28680W        W99280  17.273  33.582   3.782
28681W        W99281  16.103  12.655  14.968
28682W        W99282  40.092  26.071  11.506
28683W        W99283  15.647  28.582  11.429
28684W        W99284   6.920  40.409   2.805
28685W        W99285  33.869  34.751  13.891
28686W        W99286  44.361  18.800  12.375
28687W        W99287  27.129   1.054   3.354
28688W        W99288  21.567   9.717  13.459
28689W        W99289  41.522   2.958   0.956
28690W        W99290  10.700   1.982   0.882
28691W        W99291   0.327  26.779  13.579
28692W        W99292   3.248  10.283   3.817
28693W        W99293  10.920  36.503  10.567
28694W        W99294  30.487   0.409   3.911
28695W        W99295  31.420  34.453   2.952
28696W        W99296  14.095  40.997   5.295
28697W        W99297  28.499  42.991  13.411
28698W        W99298  41.972  37.360   0.284
28699W        W99299  29.601  11.044   1.898
28700W        W99300  36.173  28.593  12.985
28701W        W99301  21.567   0.383  11.622
28702W        W99302   6.196   5.100   5.109
28703W        W99303  17.501  10.284  12.956
28704W        W99304  12.209  10.069   3.048
28705W        W99305  34.524  19.270  11.388
28706W        W99306  36.832  22.532  14.925
28707W        W99307  27.967   1.953   9.884
28708W        W99308  12.317  16.683  11.091
28709W        W99309   6.642  21.578  12.125
28710W        W99310  26.041  29.081   3.809
28711W        W99311  20.663  24.530  13.503
28712W        W99312  39.534  38.860  10.155
28713W        W99313  22.233  16.692   4.046
28714W        W99314  13.034  21.170   2.283
28715W        W99315  43.533  33.111  14.882
28716W        W99316  27.952  36.912  11.554
28717W        W99317  12.927  24.479   4.176
28718W        W99318  35.005   4.748  13.746
28719W        W99319  10.757  24.369  12.191
28720W        W99320  21.197  11.167   4.141
28721W        W99321  39.134  18.580  12.937
28722W        W99322  18.031   1.005   1.983
28723W        W99323   5.940  14.179  12.854
28724W        W99324  33.935   6.433   0.469
28725W        W99325  39.105   9.847   4.094
28726W        W99326   0.459   0.689  14.347
28727W        W99327  13.976  26.976   1.348
28728W        W99328  43.368  21.370  14.853
28729W        W99329  23.192   0.417   2.989
28730W        W99330   1.240  17.038  11.030
28731W        W99331   8.890  40.830   4.457
28732W        W99332  15.602  18.280   1.945
28733W        W99333   8.810  36.328   2.341
28734W        W99334  18.205  21.056  13.896
28735W        W99335  11.949  28.987  12.061
28736W        W99336  39.747  33.091   0.532
28737W        W99337  25.429  35.930  12.455
28738W        W99338  17.791  44.387  13.409
28739W        W99339  44.040  23.321  14.401
28740W        W99340  39.328   6.891  14.520
28741W        W99341  24.392  23.034   1.682
28742W        W99342   5.252  33.836   2.696
28743W        W99343   6.952  23.961  12.044
28744W        W99344   4.434  13.798  11.390
28745W        W99345   1.237   7.842   1.343
28746W        W99346   3.855   9.608  13.923
28747W        W99347  13.816  40.028  14.498
28748W        W99348  34.622  44.391  10.567
28749W        W99349  22.020  32.790   1.398
28750W        W99350  15.110  25.897   2.642
28751W        W99351  11.419  12.541  11.208
28752W        W99352  31.055  19.982  11.217
28753W        W99353  13.856   2.238  12.319
28754W        W99354   2.792  34.066   4.041
28755W        W99355  16.491  30.831   1.456
28756W        W99356  32.846  22.746  14.972
28757W        W99357  35.151  27.903   4.867
28758W        W99358  14.797  26.947   0.317
28759W        W99359  12.690  14.552  11.965
28760W        W99360  26.685   1.830  11.180
28761W        W99361  25.645  30.692   2.327
28762W        W99362  17.518  12.837  13.153
28763W        W99363  17.887   8.737   0.444
28764W        W99364  11.689   2.951   3.933
28765W        W99365  39.767  36.306   0.486
28766W        W99366  31.983  33.858  14.076
28767W        W99367  12.734  44.895   1.030
28768W        W99368  20.631  14.279   1.265
28769W        W99369  15.169  31.394   0.867
28770W        W99370  43.289  41.667   3.296
28771W        W99371  40.495  33.271  13.209
28772W        W99372  37.388  14.301  10.679
28773W        W99373   0.043  22.604  13.558
28774W        W99374   2.979   4.740  13.917
28775W        W99375  18.401  20.915   5.397
28776W        W99376   8.028  40.744  12.377
28777W        W99377  33.004  27.976  14.463
28778W        W99378  22.252  30.036  11.965
28779W        W99379  11.220  42.887   2.861
28780W        W99380   1.882  18.884   2.697
28781W        W99381  14.569   9.963   3.112
28782W        W99382  16.096  32.146   0.238
28783W        W99383  21.292  31.414  10.694
28784W        W99384  37.453  30.029  10.819
28785W        W99385  41.965   9.013   4.262
28786W        W99386  27.361   6.690  14.526
28787W        W99387  10.228   6.246   4.652
28788W        W99388  26.705  41.272  13.480
28789W        W99389  30.168   0.347   2.961
28790W        W99390  32.380   0.321  12.749
28791W        W99391  28.935  37.424   4.470
28792W        W99392   9.634   3.359  11.568
28793W        W99393  14.611   9.130  10.672
28794W        W99394   7.365   3.773   1.770
28795W        W99395  14.139  23.891   0.560
28796W        W99396  34.381  28.593  10.953
28797W        W99397   8.376  16.651   1.852
28798W        W99398  34.861   7.201   0.437
28799W        W99399  18.575  22.629   4.000
28800W        W99400  14.624  34.608   0.983
28801W        W99401   2.831   3.158  12.013
28802W        W99402  37.075  44.444  11.996
28803W        W99403  15.434   6.238   4.998
28804W        W99404  17.204  24.910   2.762
28805W        W99405   3.260  22.576   3.731
28806W        W99406  41.525  44.841  14.749
28807W        W99407  44.377  32.032   1.967
28808W        W99408  26.701  21.725   0.346
28809W        W99409  15.933  13.867  14.487
28810W        W99410  41.016  23.848   2.130
28811W        W99411  28.393  11.726   4.125
28812W        W99412  29.684  43.425  12.156
28813W        W99413  39.506  34.398   0.533
28814W        W99414   8.793  28.686  14.036
28815W        W99415  26.185  40.531  13.641
28816W        W99416  15.559  27.528  12.068
28817W        W99417  40.594  31.385   1.704
28818W        W99418  14.279  44.675  14.803
28819W        W99419   4.757  28.529   2.782
28820W        W99420   3.397  21.735  11.410
28821W        W99421  18.816  36.474   0.322
28822W        W99422  21.233   7.599  11.616
28823W        W99423  19.462  16.208  13.540
28824W        W99424  18.006   4.833  10.754
28825W        W99425  44.209  10.151  11.997
28826W        W99426  33.910  27.681   4.078
28827W        W99427  37.634  17.942   3.015
28828W        W99428  20.722  34.665  12.563
28829W        W99429   7.505  26.573  13.392
28830W        W99430  33.966  25.770  14.412
28831W        W99431  19.474  34.478  10.322
28832W        W99432   7.816  19.719   0.348
28833W        W99433  19.436  14.837   0.887
28834W        W99434   1.933  30.416   3.598
28835W        W99435   6.467  33.655   0.446
28836W        W99436   9.406  11.797  14.909
28837W        W99437  13.199  41.350  14.069
28838W        W99438  33.748  30.087  14.847
28839W        W99439   5.872  42.301   4.348
28840W        W99440  13.287  36.457   4.525
28841W        W99441  43.095  29.121  13.379
28842W        W99442  38.954  13.873   2.403
28843W        W99443   9.662  28.013  11.073
28844W        W99444  40.848  11.719   4.420
28845W        W99445   8.678  20.720  11.135
28846W        W99446  19.574  26.053   3.708
28847W        W99447  13.423  22.195   3.109
28848W        W99448  28.765  38.899  13.001
28849W        W99449  10.574  12.227  13.146
28850W        W99450   0.908  20.059  14.460
28851W        W99451  22.554   2.061   1.646
28852W        W99452  11.817  17.729   3.048
28853W        W99453  25.884   6.807   3.242
28854W        W99454  26.413  26.551   3.153
28855W        W99455  17.237   9.638   3.749
28856W        W99456  30.122  23.601   1.167
28857W        W99457  27.103   0.914   1.945
28858W        W99458  27.183  25.655  11.114
28859W        W99459   2.122  17.756  14.351
28860W        W99460  43.733  29.071   2.789
28861W        W99461  32.159  24.294  14.399
28862W        W99462  41.000  30.618  12.587
28863W        W99463  28.624  19.061   2.389
28864W        W99464   5.550  36.254  10.774
28865W        W99465  35.034  18.078   2.243
28866W        W99466  26.652  22.643   1.912
28867W        W99467   8.297  40.795   2.113
28868W        W99468  15.797  18.780  14.548
28869W        W99469  24.540  21.822   1.393
28870W        W99470  21.660  28.338  14.308
28871W        W99471  36.513  18.766  13.470
28872W        W99472   9.380  18.673  12.197
28873W        W99473   7.665  33.958  11.172
28874W        W99474  15.119  22.561   0.730
28875W        W99475   5.796  19.840  10.525
28876W        W99476  14.639  43.404   1.708
28877W        W99477  29.275  40.515  12.911
28878W        W99478  35.521  40.385  12.629
28879W        W99479  27.088  24.317  11.256
28880W        W99480   7.830  12.372  13.885
28881W        W99481  32.682  11.287   0.935
28882W        W99482  21.733  22.992  12.256
28883W        W99483  30.572  42.256   4.190
28884W        W99484  33.682  23.529  11.600
28885W        W99485   0.587  42.348  11.479
28886W        W99486  29.835  39.768   2.358
28887W        W99487  35.566  38.487   4.349
28888W        W99488  32.442   0.441   4.747
28889W        W99489  10.847  25.503  13.422
28890W        W99490  22.614   5.226   2.226
28891W        W99491  36.072  37.882  10.450
28892W        W99492  15.160   9.384   0.506
28893W        W99493  40.568  39.256   1.346
28894W        W99494  17.249  38.208   3.098
28895W        W99495   8.974  41.300   4.220
28896W        W99496  20.025   3.630  11.077
28897W        W99497  13.412  35.958   4.566
28898W        W99498  39.544  41.841  12.634
28899W        W99499  36.266  23.790   5.023
28900W        W99500  20.458  42.255   4.919
28901W        W99501   3.358  42.545  13.265
28902W        W99502  29.057   9.872  12.469
28903W        W99503  23.345   3.687  12.980
28904W        W99504  36.077  24.723  10.642
28905W        W99505  39.393  25.536  11.429
28906W        W99506   0.036   9.671   4.607
28907W        W99507  40.367  26.128  10.748
28908W        W99508  13.979  17.302  10.618
28909W        W99509   8.405  19.671   1.475
28910W        W99510  28.930  31.160   3.684
28911W        W99511  38.586   5.476   4.539
28912W        W99512  23.938  21.511  11.069
28913W        W99513   0.333  37.069  14.884
28914W        W99514  37.870  22.676   4.171
28915W        W99515   7.194  36.523   4.647
28916W        W99516   6.293  20.550   2.669
28917W        W99517  19.047   3.535  13.758
28918W        W99518  14.512  21.701   2.181
28919W        W99519  17.766  39.916  10.582
28920W        W99520   8.940  35.536  13.892
28921W        W99521  26.623  27.676   4.211
28922W        W99522  20.056  13.386   4.559
28923W        W99523  34.067  31.927  12.608
28924W        W99524  36.993  31.180   1.860
28925W        W99525  32.939  31.674   1.288
28926W        W99526   8.006   8.574  10.338
28927W        W99527  43.606   2.326  14.012
28928W        W99528  23.716   7.762  11.463
28929W        W99529   8.399  32.027   0.299
28930W        W99530  36.492  30.236  12.106
28931W        W99531  27.439   0.471  11.997
28932W        W99532  40.600  37.265   4.626
28933W        W99533   5.354  27.527   3.488
28934W        W99534  41.822  19.479   1.079
28935W        W99535   5.173  37.899   4.934
28936W        W99536  38.831  19.544   1.928
28937W        W99537  16.762  23.607   3.350
28938W        W99538  14.042  23.069  12.900
28939W        W99539  25.441   0.753   3.935
28940W        W99540  36.383   7.522   3.762
28941W        W99541  19.847   2.327   0.040
28942W        W99542  43.025  32.441   4.515
28943W        W99543  38.379  43.842   3.197
28944W        W99544   3.474  11.423  12.871
28945W        W99545   9.926  10.604  13.445
28946W        W99546  25.942   4.010  11.140
28947W        W99547   4.706  13.157  10.574
28948W        W99548  19.695   3.623  14.433
28949W        W99549  16.309   6.746  12.584
28950W        W99550  23.562  10.485   3.812
28951W        W99551   2.023  21.499   0.838
28952W        W99552  23.944  35.651  12.913
28953W        W99553  22.712  31.006   9.932
28954W        W99554  22.974  41.394   1.834
28955W        W99555   1.918  34.889  12.017
28956W        W99556   5.652   1.410   2.852
28957W        W99557  23.477  26.178   0.470
28958W        W99558  12.590   7.322  12.889
28959W        W99559  39.076  24.178  14.283
28960W        W99560   8.239  18.154  14.734
28961W        W99561   6.749  15.271  14.572
28962W        W99562  26.067  35.665   0.917
28963W        W99563  22.052  37.048  13.597
28964W        W99564  28.317  39.813   4.564
28965W        W99565  30.908  12.710  14.233
28966W        W99566  17.197   5.413  14.814
28967W        W99567  25.119  19.343  12.623
28968W        W99568   6.730  37.230   3.142
28969W        W99569  37.019  11.428  13.521
28970W        W99570  39.016  10.262  11.252
28971W        W99571  34.917  25.280  13.946
28972W        W99572  15.286   2.396   4.678
28973W        W99573  36.780  32.457  11.658
28974W        W99574   9.277  35.595   3.321
28975W        W99575  32.715  24.997  14.219
28976W        W99576  43.275  27.252   3.089
28977W        W99577  28.708  30.558   0.371
28978W        W99578  20.621   5.167   1.412
28979W        W99579   5.333  38.465  13.053
28980W        W99580  19.549  13.453   3.273
28981W        W99581   7.917  35.655  10.840
28982W        W99582   0.291  40.144   4.255
28983W        W99583  10.776  10.433   2.198
28984W        W99584  28.182   2.860   0.350
28985W        W99585  38.299  14.972   2.103
28986W        W99586  16.276   3.857   3.207
28987W        W99587   2.731  42.588   0.782
28988W        W99588   8.831  26.556   3.208
28989W        W99589  16.291  43.590   4.142
28990W        W99590   7.844  32.082   4.333
28991W        W99591   5.526  16.295  11.033
28992W        W99592  37.976  30.160  10.730
28993W        W99593   2.876   2.379   2.218
28994W        W99594  31.159  17.316  12.155
28995W        W99595   6.301   2.311   4.245
28996W        W99596  19.110  39.867  14.341
28997W        W99597  44.408  22.013  11.858
28998W        W99598   3.682  35.140   2.368
28999W        W99599  33.617  14.053  11.207
29000W        W99600   0.436   0.984   0.851
29001W        W99601  25.678  21.341   3.280
29002W        W99602   5.916   8.424   2.145
29003W        W99603  14.529   1.776   2.690
29004W        W99604  20.041  35.560   4.310
29005W        W99605   9.893   7.579  13.543
29006W        W99606  41.341  12.898  14.812
29007W        W99607  21.339  12.374  12.497
29008W        W99608  39.817  34.583   3.427
29009W        W99609  25.620   9.272   4.979
29010W        W99610   1.254  25.005  14.321
29011W        W99611  39.266  19.275  12.026
29012W        W99612  25.481  39.996   0.363
29013W        W99613  26.486  21.304   1.314
29014W        W99614  31.984   1.472   0.439
29015W        W99615  31.085  12.381   0.942
29016W        W99616  22.510  13.867   0.757
29017W        W99617  21.568   0.866  12.523
29018W        W99618   1.914   0.487   2.819
29019W        W99619  14.622   6.921  10.576
29020W        W99620  33.384  39.414  13.936
29021W        W99621  21.542  35.104  12.618
29022W        W99622   6.228  20.034   2.663
29023W        W99623  10.602  10.586   3.232
29024W        W99624  13.734   4.032  14.289
29025W        W99625  18.513  28.299  14.583
29026W        W99626   1.292  41.528   0.901
29027W        W99627  11.121  29.510   1.987
29028W        W99628   1.353  11.880   0.443
29029W        W99629  34.993  17.348   0.830
29030W        W99630   1.923  35.108  10.718
29031W        W99631  30.113  34.119   3.089
29032W        W99632   6.333  44.810  10.669
29033W        W99633   0.834  12.636  14.825
29034W        W99634  28.163  42.824   4.252
29035W        W99635  29.221   7.154   0.039
29036W        W99636  20.002  14.808   2.173
29037W        W99637  35.531   9.565  12.049
29038W        W99638  34.721   6.677  11.013
29039W        W99639   5.311  40.952   0.964
29040W        W99640  13.712  26.119   4.698
29041W        W99641  17.117  30.887  13.079
29042W        W99642   7.789  29.719  13.035
29043W        W99643  35.298  33.487  13.441
29044W        W99644  31.684  18.231  14.870
29045W        W99645  39.475  42.888   3.190
29046W        W99646  36.964   2.323   1.806
29047W        W99647  14.384  29.575  13.022
29048W        W99648   9.661   5.732  13.469
29049W        W99649  33.460  17.329   2.861
29050W        W99650  25.694  35.006   9.986
29051W        W99651   7.937   3.850   4.341
29052W        W99652  35.394  28.594  11.523
29053W        W99653  42.777  33.122   2.660
29054W        W99654   5.673  37.449   2.304
29055W        W99655  44.069  30.959   0.226
29056W        W99656  30.561  28.196  14.959
29057W        W99657   7.058  10.344   1.278
29058W        W99658   8.144  35.558   4.252
29059W        W99659  11.205  35.571   0.598
29060W        W99660  27.674  16.665  14.348
29061W        W99661   1.421  35.393   1.827
29062W        W99662  38.630  24.127   0.232
29063W        W99663  39.526   6.159  11.763
29064W        W99664  27.041  15.287  14.339
29065W        W99665  36.714  30.570  11.777
29066W        W99666   2.259   1.330   3.055
29067W        W99667  38.582   6.807   1.825
29068W        W99668  32.841  33.516  14.278
29069W        W99669  17.732  30.585   3.082
29070W        W99670  44.372  29.939   3.612
29071W        W99671   1.913  29.656   2.352
29072W        W99672  24.051  17.489   3.910
29073W        W99673  33.552  29.646   4.138
29074W        W99674  40.996  18.984   5.030
29075W        W99675  33.477  16.369  13.911
29076W        W99676  17.184   0.901   2.340
29077W        W99677   7.851  25.205   9.856
29078W        W99678   1.921  34.676   1.877
29079W        W99679  31.932  38.552   1.868
29080W        W99680  40.494  44.105   5.113
29081W        W99681  15.821  24.773   3.682
29082W        W99682  34.641  34.085   0.735
29083W        W99683  30.194  18.229  10.634
29084W        W99684  27.548  41.097   2.307
29085W        W99685   8.404   0.305   1.542
29086W        W99686  37.018  23.757   1.951
29087W        W99687  28.055  22.320   1.459
29088W        W99688  24.062  14.708   1.315
29089W        W99689  31.200  12.913   3.324
29090W        W99690  15.306  15.837  11.469
29091W        W99691  31.153  31.515   0.823
29092W        W99692  21.242  18.006  10.248
29093W        W99693  32.911  24.552   1.253
29094W        W99694  12.280  44.219   0.007
29095W        W99695  41.007  16.748  12.097
29096W        W99696   6.106  40.877  14.076
29097W        W99697   0.325  31.441   3.584
29098W        W99698  30.951   1.569   1.042
29099W        W99699  19.605  37.194  11.575
29100W        W99700  23.242  39.481   2.871
29101W        W99701  23.100  31.228  14.330
29102W        W99702  42.338  15.321  14.001
29103W        W99703  33.618  18.650  13.759
29104W        W99704  30.746   5.893   0.820
29105W        W99705  21.709  15.058  11.926
29106W        W99706  36.006  19.663   3.729
29107W        W99707  29.575   6.336  13.598
29108W        W99708  24.134  44.445  14.833
29109W        W99709  40.195  41.984   0.844
29110W        W99710  37.185  18.690   5.047
29111W        W99711   6.999  32.043  12.990
29112W        W99712   6.743  28.428  14.436
29113W        W99713  35.359  18.665   1.938
29114W        W99714   6.704  41.859  12.667
29115W        W99715  11.095   1.326   3.951
29116W        W99716  35.419  11.726  11.897
29117W        W99717  24.279  43.642  11.009
29118W        W99718  25.425  16.794   3.121
29119W        W99719  42.527  42.275   1.822
29120W        W99720  39.374   4.344  11.227
29121W        W99721  34.633  40.305  10.718
29122W        W99722  25.112  12.108   4.605
29123W        W99723  17.741   7.653  10.409
29124W        W99724  13.345  16.838  11.232
29125W        W99725  26.161  31.171  10.932
29126W        W99726  24.029  42.440   1.683
29127W        W99727  42.985  33.137   1.692
29128W        W99728  34.795  26.177   0.935
29129W        W99729  31.393  38.369   0.086
29130W        W99730  24.051  31.640   4.140
29131W        W99731   4.296   4.441  11.191
29132W        W99732  10.145  27.031  12.590
29133W        W99733  33.052  39.725   4.606
29134W        W99734  34.893  15.367   2.650
29135W        W99735   7.702  12.364  12.998
29136W        W99736  10.552   7.495   4.775
29137W        W99737   8.771  38.494   1.016
29138W        W99738  39.587  31.529  14.620
29139W        W99739  19.488  34.004  14.650
29140W        W99740  11.385   0.769   2.704
29141W        W99741  37.319  40.300  11.468
29142W        W99742   4.663  31.226   3.558
29143W        W99743  17.822  18.246  10.614
29144W        W99744  11.033   1.400   1.659
29145W        W99745  32.330  28.683   1.454
29146W        W99746  41.533  38.463   1.370
29147W        W99747  24.232  28.230  10.558
29148W        W99748  25.688  12.562  13.881
29149W        W99749  18.033  11.187  10.555
29150W        W99750  29.180  20.834   1.248
29151W        W99751   5.544   4.754   3.236
29152W        W99752  14.080  41.722   9.828
29153W        W99753   9.775   8.020   0.895
29154W        W99754   5.649  23.595  11.527
29155W        W99755   7.754  44.373  11.999
29156W        W99756  23.038   5.834   0.116
29157W        W99757  11.708   0.451  10.652
29158W        W99758  14.572  28.330  13.795
29159W        W99759  39.397   0.701   3.631
29160W        W99760  11.712  19.911  10.689
29161W        W99761   9.793  19.220   2.444
29162W        W99762  13.157  10.429  13.515
29163W        W99763  23.453  12.826   1.225
29164W        W99764  11.120   3.947  11.973
29165W        W99765   5.738  22.169  13.638
29166W        W99766   6.699  16.347  11.632
29167W        W99767  11.223  42.536  12.761
29168W        W99768  44.869  40.540   2.271
29169W        W99769   3.545  31.206   2.777
29170W        W99770   8.288  10.723  10.586
29171W        W99771  22.836  40.976  12.930
29172W        W99772  36.343  13.392   2.153
29173W        W99773  19.740  21.705  11.162
29174W        W99774  43.566  36.927   1.920
29175W        W99775   2.029  32.153   1.669
29176W        W99776  23.930  20.129   1.304
29177W        W99777  19.724  12.678  12.129
29178W        W99778   2.892  44.447   0.475
29179W        W99779  37.598  29.629  11.972
29180W        W99780   7.666  27.432  12.433
29181W        W99781  35.635   0.512   4.520
29182W        W99782   7.474  21.537  13.087
29183W        W99783   5.338  21.485  12.491
29184W        W99784  42.984  28.827  10.623
29185W        W99785   5.184  42.745   4.681
29186W        W99786  29.848  14.818   3.201
29187W        W99787  24.690  34.133  13.886
29188W        W99788   5.886   3.756  13.617
29189W        W99789   3.325  10.096  12.950
29190W        W99790  38.543  31.562  12.099
29191W        W99791   4.882   9.502   4.900
29192W        W99792   6.633  42.840  13.967
29193W        W99793   9.213  36.062  12.398
29194W        W99794  19.059  35.876  14.338
29195W        W99795   9.816  18.756   0.337
29196W        W99796  44.415  28.334   5.238
29197W        W99797  34.308  40.496  14.337
29198W        W99798  22.287   4.710  14.244
29199W        W99799  32.432   7.815  12.345
29200W        W99800  16.515   5.861   0.659
29201W        W99801  38.023  44.351  11.008
29202W        W99802  32.384  23.084   3.070
29203W        W99803  15.212  28.593   4.618
29204W        W99804  16.341  44.909   1.318
29205W        W99805   7.702  27.711  12.902
29206W        W99806  43.051  22.523  13.569
29207W        W99807  38.413  12.293  12.504
29208W        W99808  44.932  42.124  12.415
29209W        W99809  27.386  24.875   2.175
29210W        W99810   6.418  17.656   2.813
29211W        W99811   2.835  30.024   4.233
29212W        W99812  33.599   3.442   2.928
29213W        W99813  39.436   3.907   3.144
29214W        W99814  42.659  38.783  12.570
29215W        W99815  15.523  12.728   0.814
29216W        W99816   7.811  14.462   5.256
29217W        W99817  15.470   4.766   4.152
29218W        W99818  38.427  33.493   2.225
29219W        W99819  12.614  31.582   1.432
29220W        W99820  11.696  18.679   3.249
29221W        W99821   7.161  20.527   3.178
29222W        W99822  28.824  14.718  12.794
29223W        W99823  13.848  44.942   3.106
29224W        W99824  37.433  43.996   3.270
29225W        W99825  17.823   4.685   4.203
29226W        W99826  12.339  36.920   3.846
29227W        W99827   0.597   7.245   1.592
29228W        W99828  29.074  42.564   2.392
29229W        W99829  10.327  27.216   3.223
29230W        W99830  40.686  20.435   5.087
29231W        W99831   5.943  32.970  13.011
29232W        W99832  24.479  27.001   3.142
29233W        W99833  15.884   8.092  13.355
29234W        W99834  28.536  20.663  11.108
29235W        W99835  20.731  15.301  13.900
29236W        W99836  36.039  15.806  12.460
29237W        W99837  17.291   8.220   0.007
29238W        W99838   5.020  22.374   4.144
29239W        W99839   1.290  37.925   1.881
29240W        W99840  23.467  26.553   3.594
29241W        W99841  12.905  23.587  12.045
29242W        W99842  32.683  22.106   1.929
29243W        W99843   9.862   3.796  13.855
29244W        W99844  22.075  15.034  14.718
29245W        W99845  22.499  38.862  14.886
29246W        W99846   7.642  16.186   1.366
29247W        W99847   9.932  38.013   2.740
29248W        W99848  19.033  28.941   3.137
29249W        W99849  15.804  31.978   3.625
29250W        W99850  16.652  14.275  11.217
29251W        W99851   3.028   9.716  12.666
29252W        W99852  25.270  29.399  11.213
29253W        W99853  11.078  10.521   2.977
29254W        W99854  26.999  20.940  12.377
29255W        W99855  25.763  31.428   2.640
29256W        W99856  32.594  33.882   0.876
29257W        W99857  40.771  19.597   3.571
29258W        W99858  24.566  43.064   0.890
29259W        W99859   7.198   0.794   0.268
29260W        W99860  42.445  18.390  10.270
29261W        W99861  31.440  27.110  12.203
29262W        W99862  10.138  23.155   1.183
29263W        W99863  12.208  23.306  13.751
29264W        W99864   5.030  29.192   2.139
29265W        W99865  35.519  12.609  13.295
29266W        W99866  26.692  29.878   0.812
29267W        W99867  40.802  32.103   4.367
29268W        W99868  39.305  16.775  11.641
29269W        W99869   9.795   0.505  13.886
29270W        W99870  20.623  26.504  14.346
29271W        W99871  32.674  10.718   1.678
29272W        W99872   7.660  14.816   2.729
29273W        W99873  25.850  22.127  11.838
29274W        W99874   2.853   3.012  13.007
29275W        W99875  34.127  16.093  12.473
29276W        W99876  23.750   4.868  14.502
29277W        W99877  34.276   5.630  12.944
29278W        W99878  25.210  14.752  12.051
29279W        W99879  29.192   7.336   1.477
29280W        W99880  42.203  41.286  14.050
29281W        W99881  26.252  39.315   2.857
29282W        W99882  40.322   8.441   3.160
29283W        W99883  27.587  31.563  12.048
29284W        W99884  31.588  17.232   3.945
29285W        W99885  16.189  13.116  14.325
29286W        W99886   4.012  35.415  13.833
29287W        W99887  40.380  38.638  10.616
29288W        W99888  16.405   0.581   3.176
29289W        W99889   4.143  44.139   4.135
29290W        W99890  20.697  17.862   2.565
29291W        W99891  15.985  40.914  12.661
29292W        W99892  40.339   9.924  10.597
29293W        W99893  13.342   6.964   1.801
29294W        W99894  27.562  40.870   4.394
29295W        W99895  35.967  17.617   3.226
29296W        W99896  25.681  17.640  13.008
29297W        W99897  27.162   3.954  13.088
29298W        W99898  40.286  44.523  10.752
29299W        W99899   2.289  10.662  10.579
29300W        W99900  30.820  35.461   4.081
29301W        W99901  15.201  12.409  14.003
29302W        W99902  10.713   9.999   0.744
29303W        W99903   5.690   1.051   2.438
29304W        W99904   5.292  25.754   3.285
29305W        W99905  21.310  40.502  14.022
29306W        W99906  20.026  17.357   2.339
29307W        W99907  15.862  24.514   2.291
29308W        W99908   4.302  39.438  11.653
29309W        W99909  21.854  24.859  14.267
29310W        W99910  26.547  37.123  13.782
29311W        W99911   2.507   4.730  13.031
29312W        W99912   8.679  25.488  12.021
29313W        W99913  41.828  33.074   1.313
29314W        W99914   4.429  41.527   2.246
29315W        W99915  39.933  43.255  11.023
29316W        W99916  38.354  14.317   0.713
29317W        W99917  22.579  24.690  10.876
29318W        W99918   7.374  42.983   2.667
29319W        W99919  44.534  22.029  14.890
29320W        W99920  34.521  33.947  10.684
29321W        W99921  28.498  25.030  10.423
29322W        W99922  17.841   1.669   4.250
29323W        W99923  42.243  32.577  11.506
29324W        W99924  41.965  37.416  13.916
29325W        W99925  27.124   9.837  12.035
29326W        W99926  11.876  27.866  11.711
29327W        W99927   4.821  15.600  13.492
29328W        W99928  23.140  38.071   1.258
29329W        W99929  26.954  34.570   4.537
29330W        W99930  26.462  23.253   3.224
29331W        W99931  11.837   3.319   2.974
29332W        W99932  21.708  12.623   2.763
29333W        W99933  20.683  39.492   2.687
29334W        W99934  16.151  26.740   4.075
29335W        W99935  15.942  27.089   2.747
29336W        W99936  32.109  19.684  12.112
29337W        W99937  33.678  44.455  12.020
29338W        W99938  27.629  12.733   2.762
29339W        W99939  43.353   3.262  14.747
29340W        W99940  40.313  34.189  13.355
29341W        W99941  31.397  12.343   3.242
29342W        W99942  24.079  35.150  11.610
29343W        W99943  33.073   5.534  11.610
29344W        W99944   1.237   6.824  11.082
29345W        W99945  36.028  12.205   1.284
29346W        W99946  41.048  13.560   1.875
29347W        W99947   7.102   9.588   4.193
29348W        W99948   5.855  14.662  10.718
29349W        W99949  11.299  33.345  11.510
29350W        W99950  29.379  35.396   2.705
29351W        W99951  16.403  43.832   3.686
29352W        W99952  18.759  44.486   0.773
29353W        W99953  43.220  16.494  13.437
29354W        W99954  37.568  41.547   3.602
29355W        W99955  36.485  21.024   0.792
29356W        W99956  40.542   8.731   4.106
29357W        W99957   6.958  17.666   1.013
29358W        W99958   3.967   2.283  12.913
29359W        W99959  38.993  28.636  11.646
29360W        W99960  27.895  16.286  14.627
29361W        W99961   4.877  41.767  10.458
29362W        W99962   8.368  21.203   0.019
29363W        W99963   5.964  24.041  12.557
29364W        W99964  39.847  25.558   1.961
29365W        W99965  44.753  28.404  13.043
29366W        W99966  31.350  32.046   4.199
29367W        W99967   2.734   3.260   1.628
29368W        W99968  24.612  29.244   2.129
29369W        W99969  11.576  15.166  11.623
29370W        W99970   1.524   8.432   0.246
29371W        W99971  31.826  23.200   1.825
29372W        W99972  17.742  13.509  10.403
29373W        W99973  31.555  42.214   5.067
29374W        W99974   1.376  25.311   4.779
29375W        W99975  30.312  10.618  11.458
29376W        W99976   9.770  36.380   0.472
29377W        W99977   4.897   1.300   3.424
29378W        W99978  17.767  17.861  14.933
29379W        W99979  12.756   8.231   2.316
29380W        W99980  26.950  39.342  13.766
29381W        W99981  11.591  42.566   2.698
29382W        W99982   7.322  35.166  11.964
29383W        W99983  31.932  20.275   4.186
29384W        W99984  38.504  34.665   1.453
29385W        W99985  15.049   8.471  13.953
29386W        W99986  28.001  15.963  13.806
29387W        W99987  17.931  32.040  14.483
29388W        W99988  37.619  38.915  12.481
29389W        W99989  42.944  26.163  12.926
29390W        W99990  37.389  10.762   0.801
29391W        W99991  26.307  40.952  11.922
29392W        W99992   3.924  31.858  10.600
29393W        W99993   7.698  24.682   0.780
29394W        W99994  11.389   0.936  11.643
29395W        W99995  19.701  19.512   1.791
29396W        W99996  27.450  40.882   0.354
29397W        W99997  43.396   3.505   1.768
29398W        W99998   4.459  16.516  13.422
29399W        W99999   1.727  24.859  11.575
29400W        W    0  13.321  14.226   0.524
29401W        W    1  27.219  30.419  11.676
29402W        W    2  29.612  16.017  14.373
29403W        W    3  40.513  18.664   0.749
29404W        W    4  23.012  33.425  14.349
29405W        W    5  28.472  23.358  13.013
29406W        W    6  28.068  14.334   1.304
29407W        W    7   4.462  25.837   1.330
29408W        W    8  43.696  32.245  12.003
29409W        W    9   7.885  14.414  13.076
29410W        W   10  21.673   2.349  13.667
29411W        W   11  24.583  32.745  13.006
29412W        W   12  19.618  43.348   2.677
29413W        W   13  31.673  38.978   1.786
29414W        W   14  34.665  38.063   1.351
29415W        W   15  24.246  11.594   2.244
29416W        W   16  34.380  20.648   4.698
29417W        W   17  21.616   3.174   4.641
29418W        W   18  33.439   0.424   0.120
29419W        W   19   3.406   8.198   4.601
29420W        W   20  43.587   9.214  14.905
29421W        W   21   2.482   5.389   2.874
29422W        W   22  23.983  36.064  14.266
29423W        W   23  42.872  21.608   0.739
29424W        W   24  33.478   9.095   1.019
29425W        W   25   0.955   8.220  10.472
29426W        W   26   4.420  25.302   1.268
29427W        W   27  10.890  33.101   1.403
29428W        W   28  24.332  36.037  11.588
29429W        W   29  31.174   5.876   3.718
29430W        W   30  43.985  17.089   3.329
29431W        W   31   1.794  10.471   3.747
29432W        W   32  43.131   2.439   4.521
29433W        W   33  12.293  13.642   3.403
29434W        W   34  17.779   1.970   1.733
29435W        W   35  15.582   4.668   4.828
29436W        W   36  25.279  34.280  11.671
29437W        W   37  17.203  10.854  11.926
29438W        W   38  12.823  12.817  12.021
29439W        W   39   2.692  14.748  11.179
29440W        W   40  43.381   2.711   3.713
29441W        W   41   8.411  24.666   2.176
29442W        W   42  12.415  32.576  12.418
29443W        W   43  12.409  25.652  12.999
29444W        W   44  32.156  25.222  11.033
29445W        W   45   0.644  28.780  12.837
29446W        W   46  28.835   5.997   4.769
29447W        W   47  16.528  28.221  11.634
29448W        W   48  18.251  43.980  14.754
29449W        W   49  27.373  28.689   0.609
29450W        W   50  34.526  33.943  13.927
29451W        W   51  38.367  10.379  14.832
29452W        W   52   9.194   4.304   1.823
29453W        W   53  11.229  33.648  10.620
29454W        W   54  33.115  40.935  10.623
29455W        W   55   6.124  20.635  12.085
29456W        W   56  42.522  24.481   1.780
29457W        W   57  44.229  19.884   0.694
29458W        W   58   6.345   0.566   9.415
29459W        W   59  22.645   3.771  11.970
29460W        W   60   6.011  26.501   0.361
29461W        W   61  27.755  42.994   2.885
29462W        W   62   8.316   7.392   3.192
29463W        W   63  16.866  42.968   5.176
29464W        W   64  20.287  15.287   3.864
29465W        W   65   7.306  44.053  13.776
29466W        W   66   3.990  25.931   2.831
29467W        W   67  38.983  13.478  12.984
29468W        W   68  23.030  12.598   4.067
29469W        W   69  39.821  30.760  12.198
29470W        W   70  32.984  34.027  11.942
29471W        W   71  13.056  44.888  13.543
29472W        W   72  28.700  19.255  14.678
29473W        W   73  24.507  32.622  12.417
29474W        W   74   0.308  20.316  13.772
29475W        W   75  12.335  36.570  12.981
29476W        W   76  11.587  28.072   1.429
29477W        W   77  36.293  42.932   1.199
29478W        W   78   2.057  23.105   0.307
29479W        W   79  42.975   9.894   4.477
29480W        W   80  42.044  27.090  11.175
29481W        W   81   5.068  32.628   5.145
29482W        W   82  12.766   5.474   0.667
29483W        W   83   0.223  26.803   2.789
29484W        W   84  15.724  38.107  11.409
29485W        W   85  42.776  17.106  12.629
29486W        W   86  10.301  38.433  13.297
29487W        W   87  14.863  16.068  11.640
29488W        W   88  36.633  17.332  12.636
29489W        W   89  43.461  41.794   1.392
29490W        W   90  44.895  26.889  13.012
29491W        W   91  36.945  20.826   3.151
29492W        W   92  12.645  16.165   2.117
29493W        W   93  35.429   5.458   0.319
29494W        W   94  30.675  43.990   3.875
29495W        W   95  42.723   2.945  10.765
29496W        W   96   8.064   7.278  11.467
29497W        W   97  24.183   7.759   4.077
29498W        W   98  44.070   7.572   1.769
29499W        W   99  34.639   8.708  11.325
29500W        W  100   0.360  20.341  13.266
29501W        W  101  44.285   0.700   1.283
29502W        W  102   6.905  30.447  11.557
29503W        W  103  33.439   4.739   3.225
29504W        W  104  24.925  40.432  10.801
29505W        W  105  21.675   2.250  11.445
29506W        W  106  44.380  32.965  12.275
29507W        W  107  21.065  24.370   0.410
29508W        W  108  40.433   6.802  12.958
29509W        W  109  22.468  19.933  12.002
29510W        W  110  28.369  17.032   5.058
29511W        W  111  19.580  31.610   0.042
29512W        W  112  35.610   1.375   4.349
29513W        W  113  32.296  30.944   4.169
29514W        W  114   5.130  42.750   3.239
29515W        W  115  10.848  37.015  11.740
29516W        W  116  13.936   4.412  10.827
29517W        W  117   7.424  20.082   3.322
29518W        W  118   3.661  36.774   0.253
29519W        W  119   9.613   9.203  13.749
29520W        W  120  40.268  43.448  11.573
29521W        W  121  40.787  43.508   0.142
29522W        W  122  13.783  13.321   5.400
29523W        W  123  32.164  10.703   1.827
29524W        W  124  43.458  43.713   3.240
29525W        W  125  18.584  12.273  14.110
29526W        W  126  28.913  24.901  11.210
29527W        W  127  24.194  12.651  13.104
29528W        W  128  11.362  26.353   3.006
29529W        W  129  40.876  37.585   2.377
29530W        W  130  24.146  31.540   1.772
29531W        W  131   9.680  33.946   4.242
29532W        W  132  24.032  29.927   3.994
29533W        W  133  13.124  15.692   4.213
29534W        W  134   9.772  29.198  10.527
29535W        W  135  19.555  26.730   1.298
29536W        W  136  30.491  20.666   2.343
29537W        W  137  21.696  38.010   1.278
29538W        W  138   3.648  37.761  12.500
29539W        W  139  32.087   3.832   3.647
29540W        W  140  26.892  38.852   3.270
29541W        W  141  31.464  11.572  13.842
29542W        W  142  35.568  32.343  10.733
29543W        W  143  37.493  17.887  12.468
29544W        W  144   8.424  16.491  13.017
29545W        W  145  23.847  28.151  14.840
29546W        W  146   9.666  10.406  14.847
29547W        W  147  41.087  43.109   2.754
29548W        W  148   2.860  10.767   0.649
29549W        W  149  39.575  34.834   2.215
29550W        W  150  30.630  41.692   5.082
29551W        W  151   3.444   5.791  13.306
29552W        W  152   7.117  20.353   1.671
29553W        W  153  11.835  31.091  11.866
29554W        W  154  44.134  27.181  14.915
29555W        W  155  25.855   8.069  12.394
29556W        W  156   7.671  42.386   2.165
29557W        W  157  23.966  38.710  11.726
29558W        W  158  14.333   0.181  14.827
29559W        W  159  38.685  23.144   3.280
29560W        W  160  37.428  13.321   2.760
29561W        W  161  39.427   9.750  12.084
29562W        W  162  21.233  12.188   2.605
29563W        W  163  32.503   6.163  11.852
29564W        W  164  40.917  18.187  14.763
29565W        W  165  38.442  14.203   0.208
29566W        W  166   9.800  41.373   4.663
29567W        W  167  25.130  16.145   4.299
29568W        W  168  33.801  44.904   0.794
29569W        W  169  34.508  32.895   0.926
29570W        W  170  21.777   0.858  10.520
29571W        W  171  42.529   7.943   3.552
29572W        W  172  28.619   6.065   3.625
29573W        W  173  31.913   6.729  11.863
29574W        W  174  29.503  21.524   2.342
29575W        W  175  14.712  42.049  13.107
29576W        W  176  35.449   8.325   0.925
29577W        W  177  17.134  14.957   4.717
29578W        W  178   8.787  40.698  12.093
29579W        W  179  43.786  32.343  13.957
29580W        W  180  10.814  26.371   2.650
29581W        W  181  25.621   2.342  14.225
29582W        W  182  42.283   8.567  14.758
29583W        W  183  32.331  25.005  11.548
29584W        W  184   6.855  25.811  11.556
29585W        W  185  28.209  16.252  11.488
29586W        W  186  29.159  42.108  12.010
29587W        W  187  12.833  16.200  13.168
29588W        W  188  42.949  20.279   0.894
29589W        W  189  44.291  42.888  13.268
29590W        W  190  10.616  30.731   1.010
29591W        W  191  11.420  38.900   0.297
29592W        W  192   8.370   2.915  14.379
29593W        W  193  28.097   3.713  11.632
29594W        W  194  42.302  15.138   4.605
29595W        W  195  37.332  10.674   4.111
29596W        W  196  24.971   3.128   4.197
29597W        W  197  24.190  38.131   2.214
29598W        W  198  23.424  32.083  10.327
29599W        W  199   4.011  14.014   3.197
29600W        W  200  40.622   0.014   4.524
29601W        W  201  24.557  14.317   4.264
29602W        W  202  12.817  17.016  11.204
29603W        W  203  42.315  40.730   2.762
29604W        W  204  39.307  43.694   1.880
29605W        W  205  36.899   8.229  11.561
29606W        W  206   2.403   3.150   3.081
29607W        W  207  42.541  12.633  12.591
29608W        W  208  39.601  15.809   4.274
29609W        W  209  17.535  24.104   4.656
29610W        W  210  24.935   1.408   1.993
29611W        W  211  31.638   1.414  12.401
29612W        W  212  40.600  43.658  13.660
29613W        W  213  35.114  18.215   1.756
29614W        W  214  42.852  30.991   3.622
29615W        W  215  44.204  16.092   1.488
29616W        W  216  27.111  21.665  11.477
29617W        W  217  44.481   9.944  14.102
29618W        W  218  32.536  27.104   1.323
29619W        W  219  23.438  35.593   4.238
29620W        W  220  13.035  41.519  13.084
29621W        W  221  28.838  11.581   3.683
29622W        W  222   4.603  10.229   2.728
29623W        W  223  43.546  39.556   0.752
29624W        W  224  30.627   3.045  13.826
29625W        W  225   5.064  13.288  10.219
29626W        W  226  29.628  34.908  14.526
29627W        W  227  18.252   9.307   4.050
29628W        W  228  15.385  12.646  11.602
29629W        W  229  25.918  22.739   0.261
29630W        W  230  20.721  16.998   4.744
29631W        W  231  36.238  14.261   0.258
29632W        W  232   9.288  29.434  13.929
29633W        W  233   5.812  40.340   0.557
29634W        W  234  40.372  13.365   2.414
29635W        W  235  24.583  17.221   2.315
29636W        W  236   6.440  34.594  14.353
29637W        W  237  36.375  37.924  13.917
29638W        W  238  13.730   2.548   3.271
29639W        W  239  13.709  10.402  13.822
29640W        W  240  20.552   0.959  12.411
29641W        W  241  19.830  36.378  10.779
29642W        W  242  37.257  37.018   3.649
29643W        W  243  18.146  15.135  10.913
29644W        W  244  16.633   8.272   1.730
29645W        W  245   3.755  40.233   0.224
29646W        W  246  29.612  19.247   2.360
29647W        W  247  10.109  23.108  11.051
29648W        W  248  18.721   6.677   2.696
29649W        W  249  18.367  28.508  10.299
29650W        W  250  29.993  17.334   2.231
29651W        W  251   3.722   2.373  14.838
29652W        W  252   2.505   9.220   1.214
29653W        W  253  35.567  33.210  13.089
29654W        W  254  33.945   6.111  10.743
29655W        W  255  20.605  26.078   3.795
29656W        W  256  37.308  23.779   3.277
29657W        W  257   1.728   0.007   2.875
29658W        W  258  24.060  15.782   5.389
29659W        W  259   1.973   5.766  14.481
29660W        W  260  39.402  20.621   1.998
29661W        W  261   1.978  29.128   3.080
29662W        W  262  26.974  37.182   5.146
29663W        W  263  41.348  44.273   0.965
29664W        W  264  34.909  32.075   4.228
29665W        W  265  30.953  29.649  11.484
29666W        W  266  16.213  15.177  12.883
29667W        W  267  27.830   5.061   3.164
29668W        W  268  37.958  40.004  10.340
29669W        W  269  25.801  13.412  12.193
29670W        W  270   5.174   0.247   2.628
29671W        W  271   0.827  28.571  10.468
29672W        W  272  17.804   9.801  12.984
29673W        W  273   2.007  32.078   0.357
29674W        W  274  40.331  27.866   2.745
29675W        W  275  14.304  22.264  13.977
29676W        W  276  11.093  41.962   3.005
29677W        W  277   9.817   1.356   4.120
29678W        W  278  16.343   1.441   0.451
29679W        W  279  19.137  44.857  11.952
29680W        W  280  22.621  40.316  14.502
29681W        W  281  27.824  36.501  11.211
29682W        W  282  17.816  42.044  14.577
29683W        W  283  18.674  17.840  13.456
29684W        W  284  39.930  36.876  10.700
29685W        W  285   0.692  42.092   2.353
29686W        W  286   4.828  14.158   0.580
29687W        W  287  36.572   2.444  12.089
29688W        W  288  20.549   6.402  14.968
29689W        W  289   8.662   0.805  13.010
29690W        W  290  34.649  31.727  13.788
29691W        W  291  30.194  35.492   2.333
29692W        W  292   0.088   1.582  12.159
29693W        W  293  15.384   5.263  12.949
29694W        W  294  33.986   7.302  14.326
29695W        W  295  18.093  24.990  12.581
29696W        W  296   1.032   5.220  12.915
29697W        W  297  17.253  24.202  14.456
29698W        W  298  38.759  40.947   0.303
29699W        W  299  23.697  15.925   1.773
29700W        W  300   9.947  33.295   3.430
29701W        W  301  40.622   6.275   0.271
29702W        W  302  12.575  28.827  12.509
29703W        W  303   5.417  29.588   2.242
29704W        W  304  12.808  33.765   4.922
29705W        W  305   6.579  31.982  13.353
29706W        W  306  43.852   0.962   3.303
29707W        W  307  23.609  36.075   4.099
29708W        W  308   9.983  11.112  13.447
29709W        W  309  11.752   8.546  14.872
29710W        W  310   8.900   2.213   0.924
29711W        W  311   2.281  17.941   0.756
29712W        W  312  28.634   8.166   0.220
29713W        W  313   7.040  16.950  10.459
29714W        W  314  35.845  21.282   4.281
29715W        W  315  33.733  32.845   2.561
29716W        W  316  21.288   2.660  14.251
29717W        W  317  36.666  26.394  10.321
29718W        W  318  28.720  26.917  12.926
29719W        W  319   6.168  26.609  11.427
29720W        W  320   7.964  31.054  12.380
29721W        W  321   5.402  28.197  10.274
29722W        W  322  24.559  18.973  14.938
29723W        W  323  27.042   2.048  13.433
29724W        W  324   4.739  36.131   2.725
29725W        W  325   9.444  36.087  12.846
29726W        W  326  20.388  32.497  12.909
29727W        W  327  21.507  41.412   0.926
29728W        W  328  10.260  12.244   0.195
29729W        W  329  21.670  19.338   3.869
29730W        W  330  20.884  33.316  12.000
29731W        W  331  40.011  37.155   4.924
29732W        W  332  39.877  28.168  11.369
29733W        W  333  18.850  43.225  12.491
29734W        W  334   0.210  19.863  10.695
29735W        W  335   0.790  25.634   4.214
29736W        W  336  41.553   5.883  11.015
29737W        W  337  31.973  18.128   2.793
29738W        W  338   1.141  35.433  11.235
29739W        W  339   8.350  44.708  14.736
29740W        W  340  32.707   8.440  13.852
29741W        W  341   6.238  38.327   2.204
29742W        W  342  20.777  25.264   1.275
29743W        W  343  44.532   6.258  14.551
29744W        W  344  31.770  23.640  12.809
29745W        W  345  35.218  43.458   2.650
29746W        W  346  37.271  38.528  12.500
29747W        W  347  11.841  39.287  11.852
29748W        W  348   4.175   8.820  13.200
29749W        W  349   6.727  37.748   3.156
29750W        W  350  37.939  28.586   1.164
29751W        W  351   2.741  14.335   1.864
29752W        W  352   0.897  29.715  10.282
29753W        W  353  41.401  21.628   4.241
29754W        W  354  14.528  30.950  14.887
29755W        W  355  38.888  30.379  10.114
29756W        W  356   6.196   1.274   3.907
29757W        W  357  32.663  20.247  11.574
29758W        W  358   5.048  35.098  12.480
29759W        W  359  44.242  20.730   0.828
29760W        W  360  17.433  15.626   2.321
29761W        W  361  23.238  26.241  11.279
29762W        W  362  14.524  12.301   5.378
29763W        W  363  44.775  32.600  14.778
29764W        W  364  24.410  38.491   0.829
29765W        W  365  30.760  18.291   0.993
29766W        W  366  22.310  20.789   4.521
29767W        W  367   5.227  13.327   0.919
29768W        W  368  31.548  44.070  14.105
29769W        W  369   1.864  24.029   0.151
29770W        W  370  27.859  44.341   2.230
29771W        W  371  38.373   0.052   0.270
29772W        W  372  15.606  23.124  13.784
29773W        W  373  13.674  35.475  10.614
29774W        W  374  26.637  39.396  11.597
29775W        W  375   1.431   2.469  13.833
29776W        W  376  43.754  29.923   2.739
29777W        W  377  11.797  31.005  10.850
29778W        W  378  16.933  33.186   2.385
29779W        W  379  34.525  30.952   3.364
29780W        W  380   8.288   1.394  14.048
29781W        W  381  40.985  11.791   3.378
29782W        W  382   3.018  23.877  11.106
29783W        W  383  40.512  22.443   3.073
29784W        W  384  31.723   9.165  14.935
29785W        W  385   5.293  28.922  11.611
29786W        W  386  41.310  39.591   0.522
29787W        W  387  36.114  11.234  14.221
29788W        W  388   6.441  18.243   1.803
29789W        W  389   2.900  25.976  14.457
29790W        W  390  33.533  38.358  10.995
29791W        W  391  34.622  10.194   4.039
29792W        W  392   9.112  27.593  13.796
29793W        W  393  35.957  34.085   3.202
29794W        W  394   4.708   2.025  14.331
29795W        W  395   2.935  34.103  12.561
29796W        W  396  12.054  14.745  10.697
29797W        W  397  19.721  12.666   3.769
29798W        W  398  41.794  31.425  12.037
29799W        W  399   2.422  15.471  11.564
29800W        W  400  40.320  36.104  11.030
29801W        W  401   1.275  39.207   1.848
29802W        W  402  29.938   0.004   3.299
29803W        W  403   9.895  11.832  11.701
29804W        W  404   9.763   1.506   3.170
29805W        W  405  19.087  23.334   2.360
29806W        W  406  23.980  26.572   3.666
29807W        W  407   6.671  25.387  13.510
29808W        W  408  22.982  12.411  12.451
29809W        W  409   5.756  15.729   4.872
29810W        W  410   0.496  26.942   1.774
29811W        W  411  40.442  19.051   3.596
29812W        W  412  36.319   2.181  14.464
29813W        W  413  41.543  38.530   4.557
29814W        W  414  31.016  10.268  13.313
29815W        W  415  27.021  34.146   2.734
29816W        W  416  36.294   8.639  12.923
29817W        W  417  10.785  36.170   4.601
29818W        W  418  44.822  34.832  14.560
29819W        W  419  18.637  30.054  13.505
29820W        W  420  11.235  35.569  12.977
29821W        W  421  18.238   2.264  14.362
29822W        W  422  26.437  29.644   1.806
29823W        W  423  27.132  44.499  12.031
29824W        W  424  43.367  38.519   0.806
29825W        W  425  38.853   9.742   5.041
29826W        W  426  43.971  34.449  13.884
29827W        W  427  40.878  11.213   1.170
29828W        W  428  20.534  22.175   1.907
29829W        W  429  13.154  24.940  11.968
29830W        W  430  39.547  31.491   0.438
29831W        W  431  14.655  22.536   5.546
29832W        W  432  29.672  13.949   1.911
29833W        W  433  43.100  15.241  14.879
29834W        W  434  16.225  10.570  14.434
29835W        W  435  18.302  44.379  13.534
29836W        W  436   2.176  42.878   0.180
29837W        W  437   0.853  25.133  13.118
29838W        W  438  15.782  22.468  10.596
29839W        W  439  31.969  25.502  11.972
29840W        W  440   3.188  14.619   5.038
29841W        W  441   5.774   2.443   3.234
29842W        W  442  38.069  25.484   3.169
29843W        W  443  43.893  28.937   3.260
29844W        W  444  40.362  20.752   3.838
29845W        W  445   3.878  26.689  13.131
29846W        W  446  25.543  17.184   2.740
29847W        W  447  22.809  11.160   1.948
29848W        W  448  11.751  26.222   2.167
29849W        W  449  22.626  39.138   2.320
29850W        W  450  20.703  16.350   4.141
29851W        W  451  31.858  31.485  12.558
29852W        W  452  35.318  44.449  12.955
29853W        W  453  25.626  41.753   1.927
29854W        W  454  20.085  15.753   4.077
29855W        W  455  20.606   6.224  13.457
29856W        W  456  33.557  20.241   4.996
29857W        W  457  18.215  38.776  12.123
29858W        W  458   8.714  32.436   3.092
29859W        W  459   2.187   3.491  13.325
29860W        W  460  23.233  36.425  12.442
29861W        W  461   0.673  26.114   0.625
29862W        W  462   7.600  21.095  12.881
29863W        W  463  10.574  22.537   1.845
29864W        W  464  26.138   3.804   3.863
29865W        W  465  27.672  19.525  14.720
29866W        W  466  32.927  44.172  14.904
29867W        W  467  25.480   3.271   2.223
29868W        W  468  30.990  40.583   3.234
29869W        W  469  12.671   1.084  11.378
29870W        W  470  18.564  31.606   3.820
29871W        W  471  20.653   0.555  13.904
29872W        W  472  33.765  14.208   1.492
29873W        W  473  35.595  38.175   0.648
29874W        W  474  33.599  17.294   3.361
29875W        W  475  41.877  10.247   1.419
29876W        W  476  23.441  36.023   2.578
29877W        W  477   4.895   1.371   0.477
29878W        W  478  19.792  11.178   9.963
29879W        W  479  39.436  16.985   2.374
29880W        W  480  39.922  40.078   2.230
29881W        W  481   0.881  12.858   4.610
29882W        W  482   0.376  42.982   0.967
29883W        W  483  21.811   6.245   0.620
29884W        W  484  10.080   6.170   0.832
29885W        W  485  18.464  29.060  13.023
29886W        W  486  32.138   2.036   3.820
29887W        W  487  26.538  29.506  12.394
29888W        W  488   6.255  16.456   4.254
29889W        W  489  22.590  18.620  13.244
29890W        W  490  33.021   5.219  14.097
29891W        W  491   7.596  29.992   0.823
29892W        W  492  40.842  32.459  13.818
29893W        W  493  36.146  31.165  11.326
29894W        W  494  20.048   2.597   0.410
29895W        W  495  43.178  35.323   0.838
29896W        W  496   6.927   9.581  12.535
29897W        W  497  10.523  19.341   4.126
29898W        W  498  16.466  37.755   2.980
29899W        W  499   6.915  33.549   4.083
29900W        W  500  38.359  42.797   4.044
29901W        W  501  27.881  31.554  12.471
29902W        W  502  29.448  37.826  12.708
29903W        W  503  17.578  12.681  12.659
29904W        W  504  13.060   3.777   3.748
29905W        W  505   7.810  42.428  12.078
29906W        W  506  13.250  25.577   4.142
29907W        W  507  23.242  36.093  10.762
29908W        W  508  25.997  40.141  12.126
29909W        W  509  25.006  30.974   1.207
29910W        W  510   0.515  15.892  13.036
29911W        W  511  22.204   7.696  10.742
29912W        W  512  37.475  38.084   2.698
29913W        W  513  16.205  35.072   0.841
29914W        W  514   2.365  24.381  10.479
29915W        W  515  11.198  40.653   1.303
29916W        W  516   1.533  17.711   0.231
29917W        W  517  27.464   6.607  13.635
29918W        W  518   0.341  38.459  14.004
29919W        W  519  43.014  27.932  13.861
29920W        W  520  42.469  38.799   2.298
29921W        W  521  15.695  41.926   2.667
29922W        W  522  31.084  26.443   0.680
29923W        W  523  42.792   6.348  14.054
29924W        W  524  17.459  24.774   1.939
29925W        W  525  29.735  32.034  13.789
29926W        W  526  28.227  24.251  12.301
29927W        W  527  36.577   8.345   4.364
29928W        W  528  44.994  16.269   2.750
29929W        W  529   7.839   1.288  13.767
29930W        W  530  23.098  23.363   1.548
29931W        W  531   8.746   3.865   4.662
29932W        W  532  36.060  44.143  13.329
29933W        W  533  36.429  22.401   3.685
29934W        W  534  19.777  30.007  12.151
29935W        W  535  12.346  35.574  14.917
29936W        W  536  41.392  27.003  12.062
29937W        W  537  24.675   7.950  13.543
29938W        W  538  37.020  36.243  13.507
29939W        W  539  31.655  15.642  12.901
29940W        W  540  33.950   0.751  13.580
29941W        W  541  18.808  30.101  12.009
29942W        W  542  37.760  15.187   0.858
29943W        W  543  20.698  28.629   2.684
29944W        W  544  15.289  41.873   3.443
29945W        W  545  20.484   0.479  13.079
29946W        W  546  29.600   5.798  14.899
29947W        W  547  39.854   7.813   1.278
29948W        W  548  20.124  16.980  13.496
29949W        W  549  34.988   5.273   3.125
29950W        W  550   1.176  29.117  12.682
29951W        W  551  41.916  33.520   2.968
29952W        W  552  42.988  16.088  11.724
29953W        W  553  25.577  40.479   0.523
29954W        W  554  44.391  16.126   4.273
29955W        W  555  26.761  10.522   2.522
29956W        W  556  35.653  29.593   0.407
29957W        W  557  16.374   6.234  12.492
29958W        W  558  18.154  30.190  13.718
29959W        W  559  42.537  42.013  12.370
29960W        W  560  27.915  26.545   0.142
29961W        W  561  18.629   1.122  14.959
29962W        W  562  42.736   1.459  14.452
29963W        W  563  44.677   6.821  12.906
29964W        W  564  17.777  12.883   1.397
29965W        W  565  20.699   3.509   2.771
29966W        W  566  39.683   1.447   3.254
29967W        W  567  27.009  41.993   0.310
29968W        W  568  31.921  18.791   4.070
29969W        W  569  39.676  24.138   2.458
29970W        W  570  17.039  15.783  12.492
29971W        W  571  14.246   2.271   5.264
29972W        W  572   2.914  22.574   0.048
29973W        W  573  17.594  37.383   0.319
29974W        W  574  41.879  42.916  14.817
29975W        W  575   5.414  32.233   5.122
29976W        W  576  39.557   6.658   3.706
29977W        W  577  13.849  40.355   0.361
29978W        W  578  12.174  18.396   3.200
29979W        W  579  35.792  44.787   0.201
29980W        W  580  19.323   6.021   0.307
29981W        W  581  11.230   8.805   3.744
29982W        W  582  42.463  17.344  11.943
29983W        W  583  14.821  31.255  14.556
29984W        W  584  26.052  15.114   3.199
29985W        W  585  32.261   6.774   3.480
29986W        W  586  25.318   8.749  11.049
29987W        W  587  41.292  17.232   1.715
29988W        W  588  34.000  17.955   4.094
29989W        W  589  42.610   0.279  12.832
29990W        W  590  35.330  24.533   1.833
29991W        W  591  27.144  30.503   3.965
29992W        W  592  41.013   5.108  11.591
29993W        W  593   9.350   4.551   2.281
29994W        W  594  27.632   5.832   1.353
29995W        W  595  30.421  37.410  10.609
29996W        W  596  40.836  16.675   2.256
29997W        W  597  10.327  22.103  14.343
29998W        W  598  36.071  32.716   0.825
29999W        W  599   4.843  28.014   2.731
30000W        W  600  33.989  34.550  11.523
30001W        W  601  29.244  11.295  10.494
30002W        W  602  30.450  29.535   4.507
30003W        W  603  36.424  43.435  13.381
30004W        W  604  12.783  12.857  11.057
30005W        W  605  21.426  41.951   2.214
30006W        W  606  44.432  35.649  12.477
30007W        W  607  25.991  13.252   0.497
30008W        W  608  17.499  28.545   1.313
30009W        W  609  12.445  36.817  14.993
30010W        W  610  38.428  32.979  13.359
30011W        W  611  38.843  11.917  12.912
30012W        W  612  17.383   1.593   9.776
30013W        W  613   3.457  28.438  14.197
30014W        W  614  18.994  37.493   3.338
30015W        W  615  22.027  16.562  13.883
30016W        W  616  20.514  20.554  14.249
30017W        W  617  14.178   2.505   2.189
30018W        W  618  21.660  21.765  14.775
30019W        W  619  24.780  44.144   4.111
30020W        W  620   0.011   5.189   3.908
30021W        W  621  42.828  32.422   2.238
30022W        W  622  20.287   9.693   2.837
30023W        W  623   0.965  30.515  12.430
30024W        W  624  10.770  38.676   0.710
30025W        W  625   3.206  11.928  12.927
30026W        W  626  39.096  38.528   2.488
30027W        W  627  29.150  15.306  13.371
30028W        W  628  33.675  11.093  12.335
30029W        W  629  30.863   8.740  14.835
30030W        W  630  20.743  18.634  13.005
30031W        W  631   0.029  41.167  14.413
30032W        W  632  43.188  20.616   4.431
30033W        W  633   0.468   2.363   0.004
30034W        W  634   7.100  28.479   4.153
30035W        W  635  28.863  26.001  14.380
30036W        W  636  34.432  16.894   4.366
30037W        W  637  13.407  20.531   4.155
30038W        W  638  44.034  20.207  12.910
30039W        W  639  27.470  26.035   2.170
30040W        W  640  40.427  40.976  10.572
30041W        W  641  22.653  32.244  13.042
30042W        W  642  33.463  23.340   0.456
30043W        W  643   5.225  27.053  11.671
30044W        W  644   7.213  32.340   1.939
30045W        W  645  20.518  39.065  12.931
30046W        W  646  44.762  22.973  13.786
30047W        W  647   0.214  16.726   1.687
30048W        W  648   4.216  23.662   4.582
30049W        W  649   3.927  24.275   0.512
30050W        W  650  34.968  28.159  12.104
30051W        W  651  39.777  34.584   4.885
30052W        W  652   1.796  36.026  14.988
30053W        W  653  40.452  37.876   3.785
30054W        W  654  28.967  38.409  13.002
30055W        W  655  35.341  20.277  14.783
30056W        W  656  26.855  16.235  13.757
30057W        W  657  39.122  12.780  10.757
30058W        W  658  10.816   8.317  10.601
30059W        W  659  26.854  43.376   5.009
30060W        W  660  32.948  25.975   0.894
30061W        W  661  42.444  42.494  10.820
30062W        W  662  30.838  39.411   2.710
30063W        W  663  33.365  32.201   0.710
30064W        W  664  44.710  18.677   0.866
30065W        W  665  14.867   2.270   1.463
30066W        W  666  41.996  23.103   3.614
30067W        W  667   3.851  43.921   1.795
30068W        W  668  34.384  42.014   3.591
30069W        W  669  21.997  21.969   2.815
30070W        W  670   2.518  17.200  13.626
30071W        W  671  38.100  36.761   4.961
30072W        W  672  25.310  32.639  11.374
30073W        W  673  14.851  44.925   1.266
30074W        W  674  36.109  17.399   0.308
30075W        W  675  19.910  39.546  11.134
30076W        W  676   0.882  34.376  12.010
30077W        W  677  12.276   3.635  11.578
30078W        W  678  28.685  18.862  12.539
30079W        W  679   2.360   8.240  14.848
30080W        W  680  35.478   3.838   4.627
30081W        W  681  43.348  16.556   0.504
30082W        W  682  16.463  34.875  13.170
30083W        W  683  22.009  30.144   4.422
30084W        W  684  34.478  35.328   2.335
30085W        W  685  12.696  22.176   2.817
30086W        W  686  32.219  41.966  11.078
30087W        W  687  30.743  24.795   4.850
30088W        W  688  11.319  34.067  14.828
30089W        W  689  33.012   5.734   3.780
30090W        W  690  23.976  39.201  10.190
30091W        W  691  43.793   4.305  14.042
30092W        W  692  21.126  15.815  10.710
30093W        W  693  20.760   2.756  13.394
30094W        W  694  16.380   9.038  12.092
30095W        W  695  18.329  28.138   4.327
30096W        W  696  41.082  26.940   0.692
30097W        W  697  28.906  14.241  14.681
30098W        W  698   9.808  14.825   4.358
30099W        W  699  17.203  15.122  13.792
30100W        W  700  20.219  29.238  12.143
30101W        W  701  41.988  39.007  14.411
30102W        W  702  16.833  17.598  11.436
30103W        W  703   9.648  12.640   4.081
30104W        W  704   4.677  27.482  10.338
30105W        W  705   3.708  11.425   4.247
30106W        W  706  17.272  24.006  10.278
30107W        W  707   9.616   6.871  14.936
30108W        W  708  15.219  44.913   4.561
30109W        W  709   8.139  23.530  13.322
30110W        W  710   9.811  25.969   3.931
30111W        W  711  32.606  35.554   3.312
30112W        W  712  32.842  36.058   0.714
30113W        W  713  31.059  21.323  11.253
30114W        W  714  17.212  38.863   4.680
30115W        W  715  30.352  17.113  13.880
30116W        W  716   2.832  19.824   2.662
30117W        W  717  17.599   8.942   0.821
30118W        W  718  24.323  27.545  10.901
30119W        W  719   5.296   9.108   2.372
30120W        W  720   2.635   8.353  12.546
30121W        W  721   5.151  21.197   1.389
30122W        W  722   8.072  20.552   0.196
30123W        W  723  15.641   6.183   4.522
30124W        W  724  21.028  44.672  12.789
30125W        W  725  34.361  20.135   0.809
30126W        W  726  35.595  24.718  14.851
30127W        W  727   7.886   2.747   1.338
30128W        W  728  41.416  25.323   0.879
30129W        W  729  19.504   9.608  11.908
30130W        W  730  23.550  21.691   0.794
30131W        W  731  33.922  29.863  14.339
30132W        W  732  13.822  14.558   1.628
30133W        W  733  21.489  34.482  10.309
30134W        W  734   7.450  24.226   0.752
30135W        W  735  33.864  22.402  10.774
30136W        W  736   3.094   6.876  11.859
30137W        W  737  11.421  34.140  12.761
30138W        W  738  27.701   2.007  10.909
30139W        W  739  27.549  33.853   1.029
30140W        W  740  12.681  23.494   2.905
30141W        W  741  24.215  17.698   2.988
30142W        W  742  41.953   8.356   4.262
30143W        W  743  35.608  26.727  11.036
30144W        W  744  18.690   2.084  10.178
30145W        W  745  44.841  19.807   3.279
30146W        W  746  32.635  42.323   1.728
30147W        W  747  36.643  27.624  14.528
30148W        W  748  20.074  23.692  12.939
30149W        W  749  15.660  37.053   1.484
30150W        W  750  14.239  36.672   1.687
30151W        W  751  16.572   8.562  12.331
30152W        W  752  13.163  12.717   3.754
30153W        W  753  27.850  35.400   5.196
30154W        W  754   7.601  21.107   2.798
30155W        W  755  44.380  13.410   4.278
30156W        W  756  20.382   3.801   2.401
30157W        W  757  20.082  22.282   1.674
30158W        W  758  39.418  43.432  11.010
30159W        W  759   8.519  27.696  10.688
30160W        W  760  27.778  28.206  11.186
30161W        W  761  23.331  20.487   2.558
30162W        W  762  11.572  44.681  11.080
30163W        W  763  31.979  40.534  11.830
30164W        W  764  13.192  37.096   4.369
30165W        W  765  31.052  41.580  14.474
30166W        W  766  37.053  14.699  13.119
30167W        W  767  10.899  25.385   2.410
30168W        W  768  30.587  29.912   3.209
30169W        W  769  18.034   1.619  12.431
30170W        W  770  28.394   2.445   4.107
30171W        W  771  39.633  15.769  13.607
30172W        W  772   7.831   5.243  13.294
30173W        W  773  12.837   0.533   1.855
30174W        W  774  34.516  34.954   2.934
30175W        W  775  28.156  40.996   2.194
30176W        W  776   4.942  36.124   2.216
30177W        W  777  35.383  12.100   3.320
30178W        W  778  39.541   8.222  13.867
30179W        W  779  14.933   1.333   0.520
30180W        W  780  43.400  21.470  13.916
30181W        W  781   3.724   2.767  14.049
30182W        W  782  17.980  29.511   2.239
30183W        W  783  38.777  10.876   0.484
30184W        W  784  13.233  11.793  13.000
30185W        W  785   0.339   9.722   0.762
30186W        W  786  25.203  18.204   2.260
30187W        W  787  32.881  25.801   3.576
30188W        W  788  22.073  44.402   1.332
30189W        W  789  27.828  16.738   3.288
30190W        W  790  33.342  25.043  11.722
30191W        W  791  36.376  25.054  12.032
30192W        W  792  38.296  41.496   4.122
30193W        W  793  10.581  41.374   4.190
30194W        W  794  39.514  10.853  12.561
30195W        W  795   0.950  18.665  13.424
30196W        W  796  37.398   3.145   3.605
30197W        W  797  22.023  38.606   3.282
30198W        W  798  25.564   8.115  10.601
30199W        W  799   2.941   2.834  14.967
30200W        W  800  27.962   5.701  11.161
30201W        W  801   8.273  18.751   4.180
30202W        W  802  34.757  42.437   1.384
30203W        W  803  44.686  34.925   0.082
30204W        W  804  30.603  19.243  13.337
30205W        W  805  36.901  13.302   3.651
30206W        W  806  13.087  13.282  14.019
30207W        W  807  14.704  29.160  12.991
30208W        W  808   1.886  34.052  11.653
30209W        W  809  10.844   1.975  14.430
30210W        W  810   1.547  32.586   3.286
30211W        W  811  27.117   3.184   4.161
30212W        W  812  23.804  30.079   0.743
30213W        W  813  28.187   2.462   5.243
30214W        W  814   7.941  26.017   1.380
30215W        W  815   3.726  20.984  11.611
30216W        W  816  12.302  16.114  14.872
30217W        W  817  10.256  10.183  10.358
30218W        W  818  32.297  36.338  12.217
30219W        W  819  13.320   9.357  11.968
30220W        W  820   1.365  23.223   4.973
30221W        W  821  10.459   0.086   0.812
30222W        W  822   8.599   6.267  11.128
30223W        W  823  44.347  20.527  11.795
30224W        W  824  36.124  42.469   2.456
30225W        W  825  13.231   6.035   0.331
30226W        W  826  36.086  13.105   4.535
30227W        W  827  31.956  18.621  13.298
30228W        W  828  15.927   7.287   4.935
30229W        W  829  13.410  12.509   3.214
30230W        W  830  32.833   4.660  12.004
30231W        W  831   9.363   0.815   0.934
30232W        W  832  22.165   2.926   3.228
30233W        W  833  28.647  26.213  13.503
30234W        W  834  31.082  44.958   0.240
30235W        W  835  13.629  10.594  10.602
30236W        W  836  42.358  26.972   3.866
30237W        W  837  14.687   0.531  14.999
30238W        W  838  32.081  13.431  11.687
30239W        W  839  33.003  22.778  12.497
30240W        W  840  44.075   1.804  14.251
30241W        W  841  10.929  14.106  13.761
30242W        W  842   2.268  30.431  11.163
30243W        W  843  44.408  41.706   2.482
30244W        W  844  23.977   2.529   0.677
30245W        W  845  27.219  17.975  14.791
30246W        W  846  39.516  34.413   4.235
30247W        W  847   6.343  29.671   1.332
30248W        W  848  13.220   5.058   3.087
30249W        W  849  24.180   5.429  12.065
30250W        W  850  37.140   8.666   3.529
30251W        W  851   5.486  30.417  10.742
30252W        W  852   0.524  44.488  14.832
30253W        W  853  21.692  17.284  10.397
30254W        W  854  28.379  21.595  12.572
30255W        W  855  43.398   3.944   4.577
30256W        W  856  11.371   0.529  12.941
30257W        W  857  32.834   3.706   1.277
30258W        W  858  33.015  33.979  10.493
30259W        W  859  44.752   5.677  12.984
30260W        W  860  37.481  29.149  12.287
30261W        W  861  39.521  24.070  13.893
30262W        W  862  34.397   3.088  11.949
30263W        W  863  21.207  34.957   2.119
30264W        W  864  14.885  24.644   3.280
30265W        W  865   9.699  14.098   1.883
30266W        W  866  42.413  32.093   0.297
30267W        W  867  40.824  24.862   2.215
30268W        W  868  14.013   1.339   0.012
30269W        W  869  25.165   2.822   1.818
30270W        W  870  32.196  18.684  14.768
30271W        W  871   8.422  42.773   3.331
30272W        W  872   6.354  22.080   2.144
30273W        W  873   5.807  31.066  11.718
30274W        W  874  14.846  28.417   3.353
30275W        W  875  41.579   0.723   4.591
30276W        W  876   1.462  33.097   3.166
30277W        W  877  15.793  28.778  14.291
30278W        W  878  40.783   3.431  12.474
30279W        W  879  32.590  17.042   3.265
30280W        W  880  11.872   9.131  14.889
30281W        W  881  42.412  25.999  14.723
30282W        W  882  29.919   2.301   0.280
30283W        W  883  33.636  18.982  14.896
30284W        W  884  25.390  16.953  12.167
30285W        W  885  42.700  39.295   4.052
30286W        W  886   4.675  37.814   1.802
30287W        W  887  25.714  32.462   1.748
30288W        W  888  37.062   6.249  11.431
30289W        W  889   3.198  43.253   1.169
30290W        W  890   4.861  29.494  10.626
30291W        W  891   5.357   3.494  11.557
30292W        W  892  43.830   7.388  12.905
30293W        W  893  19.646  28.987  10.757
30294W        W  894  38.788  31.668   3.688
30295W        W  895  18.345  12.429  11.029
30296W        W  896  12.287  15.168  13.913
30297W        W  897  29.423  19.315   0.752
30298W        W  898   0.424  22.644   0.407
30299W        W  899  14.678  36.920   1.766
30300W        W  900   2.828  18.255   1.346
30301W        W  901   1.813  12.669  10.777
30302W        W  902   5.433  21.118  11.191
30303W        W  903  14.281  35.501  13.140
30304W        W  904   7.564  30.106  13.282
30305W        W  905  33.568  14.859  14.749
30306W        W  906  35.642  41.506  12.027
30307W        W  907  18.473  42.346  10.436
30308W        W  908  41.528   7.740   3.632
30309W        W  909  32.073  17.685  13.876
30310W        W  910  18.591  20.173  10.616
30311W        W  911  28.434  18.371  12.484
30312W        W  912  40.543  19.256   1.391
30313W        W  913  11.608  18.827  14.907
30314W        W  914  23.366  40.922   4.840
30315W        W  915   4.238   4.466   2.350
30316W        W  916  32.968  16.749  12.424
30317W        W  917  22.693  43.491   4.177
30318W        W  918  29.567  26.742  13.359
30319W        W  919   4.473   0.773  11.925
30320W        W  920  37.104  17.100  12.630
30321W        W  921  26.167   0.859  12.199
30322W        W  922  21.889  31.489  11.548
30323W        W  923  15.907  38.898   2.201
30324W        W  924  24.123  37.183   3.260
30325W        W  925  20.636   2.395  10.633
30326W        W  926  26.184   7.907   0.223
30327W        W  927   1.501   0.267   4.549
30328W        W  928  10.410  21.495   3.737
30329W        W  929   1.686  28.191  12.616
30330W        W  930  20.196  14.214   0.313
30331W        W  931  14.994  13.084   1.527
30332W        W  932  10.636  20.701   3.286
30333W        W  933  32.084   3.805   4.191
30334W        W  934  19.300  12.654  10.850
30335W        W  935  16.687   9.140   2.299
30336W        W  936  37.354   6.210   1.392
30337W        W  937  16.610   6.903  11.119
30338W        W  938  19.579  35.927   4.626
30339W        W  939   3.687   7.396  11.915
30340W        W  940  41.423  36.736   2.354
30341W        W  941  32.050  11.149  10.582
30342W        W  942  21.657   3.341  10.689
30343W        W  943  41.914  27.702  14.761
30344W        W  944  43.202  44.808  11.471
30345W        W  945  26.962  38.349   3.463
30346W        W  946  19.596  10.185   2.209
30347W        W  947  37.463  27.338   1.772
30348W        W  948   8.888  30.146  11.615
30349W        W  949   1.809  20.090   1.792
30350W        W  950  25.555  37.030  11.467
30351W        W  951   2.634   3.923   4.103
30352W        W  952  20.980  39.144  13.858
30353W        W  953  19.564  39.315  12.880
30354W        W  954   3.040  16.526  12.147
30355W        W  955  42.827  36.642  13.897
30356W        W  956  41.353  28.404   0.278
30357W        W  957  13.317  17.835  10.430
30358W        W  958  36.815  16.543  11.432
30359W        W  959  10.394  30.988   1.833
30360W        W  960  16.750  13.361  13.333
30361W        W  961  18.041  31.972  11.658
30362W        W  962   3.191  32.847  11.525
30363W        W  963  40.449  30.328  13.477
30364W        W  964  28.431   3.462   3.335
30365W        W  965   4.405  20.864  14.754
30366W        W  966  44.295  24.397   3.247
30367W        W  967  34.698   0.756   3.561
30368W        W  968  33.419   7.132  12.837
30369W        W  969  34.784  34.070  11.706
30370W        W  970  40.944   0.409  13.079
30371W        W  971   6.395  40.987  11.211
30372W        W  972  23.811   9.324   5.158
30373W        W  973  41.019  33.401   3.834
30374W        W  974  36.248  41.224   2.194
30375W        W  975  43.961  38.095   2.021
30376W        W  976  23.013  39.446  13.552
30377W        W  977  43.610  44.278  13.460
30378W        W  978  18.486  18.273  11.597
30379W        W  979  34.302  40.958  11.267
30380W        W  980   0.224  30.942  14.424
30381W        W  981  39.003   1.859  14.483
30382W        W  982  43.791  36.137  14.293
30383W        W  983  17.578   2.646   1.289
30384W        W  984  12.635  11.639  12.468
30385W        W  985   5.146  44.290   2.323
30386W        W  986   8.200  16.059   4.756
30387W        W  987   5.705  39.418  10.663
30388W        W  988  44.755   5.202  12.756
30389W        W  989  11.659   2.657   4.979
30390W        W  990   0.454  14.892  12.930
30391W        W  991   4.282   6.340   4.751
30392W        W  992  44.519  21.938  12.865
30393W        W  993  31.445  23.989  11.583
30394W        W  994  24.207  22.556  12.580
30395W        W  995  24.968  13.546   3.375
30396W        W  996   9.985  27.180   4.856
30397W        W  997  30.862  34.450  10.269
30398W        W  998  37.341  42.511   0.836
30399W        W  999  15.649  21.656  13.578
30400W        W 1000   4.915  11.437  11.114
30401W        W 1001  40.703  33.008   3.875
30402W        W 1002  42.577  38.484   3.392
30403W        W 1003  20.939  18.382  11.622
30404W        W 1004  23.433  26.244  14.957
30405W        W 1005  19.754  38.781  14.054
30406W        W 1006   8.722   9.845  10.550
30407W        W 1007  36.803   5.365   3.633
30408W        W 1008   2.503   7.401  12.589
30409W        W 1009  29.686  13.132  12.865
30410W        W 1010  35.534   8.941   0.280
30411W        W 1011  27.718  41.349   5.551
30412W        W 1012  12.802   4.828  10.902
30413W        W 1013  15.812  22.586   1.438
30414W        W 1014  16.053   9.955   0.271
30415W        W 1015  18.981  10.898  11.978
30416W        W 1016  36.836  37.468   9.911
30417W        W 1017  21.904  29.538   2.303
30418W        W 1018  38.511  37.080  12.131
30419W        W 1019  40.015  35.508   4.445
30420W        W 1020  38.920   2.680  13.431
30421W        W 1021   7.916  26.474   0.760
30422W        W 1022  24.560  17.038   1.286
30423W        W 1023   0.313  28.070   1.061
30424W        W 1024   4.798  34.022  13.220
30425W        W 1025  27.253  19.487  11.450
30426W        W 1026  39.824  15.588   3.281
30427W        W 1027  17.180   7.470  14.769
30428W        W 1028   2.131  43.200  13.802
30429W        W 1029  32.209   5.859  14.847
30430W        W 1030  24.781  14.857   0.332
30431W        W 1031  27.132  38.907   4.650
30432W        W 1032  24.941   7.556   1.725
30433W        W 1033  18.684  13.325  14.365
30434W        W 1034  21.000  18.802  14.385
30435W        W 1035  19.267  24.076  14.490
30436W        W 1036  13.583   1.822   2.689
30437W        W 1037  39.411  40.263   4.548
30438W        W 1038   2.235  27.625  11.695
30439W        W 1039  18.741  24.189  10.252
30440W        W 1040   5.923  23.802  14.496
30441W        W 1041  36.951  13.670   0.536
30442W        W 1042  35.691   2.754  12.028
30443W        W 1043  43.530  20.161  14.506
30444W        W 1044  10.624   6.909   0.814
30445W        W 1045  23.604  41.475   3.651
30446W        W 1046  32.169  31.462   4.084
30447W        W 1047   2.808  17.243  13.017
30448W        W 1048  18.709  33.977   2.804
30449W        W 1049  23.207  34.152  12.022
30450W        W 1050  15.965   4.821   4.380
30451W        W 1051  30.068  12.281   1.923
30452W        W 1052  37.318  24.709  12.592
30453W        W 1053  36.556  21.987   2.328
30454W        W 1054   9.784  32.354  11.529
30455W        W 1055   3.047   7.444  13.413
30456W        W 1056   7.834   1.939  12.106
30457W        W 1057  25.060   7.416  14.936
30458W        W 1058   6.804  32.484   0.973
30459W        W 1059  25.322  40.882   2.588
30460W        W 1060  39.230  35.869   3.545
30461W        W 1061  10.353  36.076  14.844
30462W        W 1062   5.259  27.114   1.668
30463W        W 1063  31.083  29.193  12.589
30464W        W 1064   7.092   1.956   3.617
30465W        W 1065  32.464   0.423  10.901
30466W        W 1066  37.712  25.977   4.730
30467W        W 1067   1.971  35.462  11.915
30468W        W 1068  19.929  30.730   5.062
30469W        W 1069  19.104  12.241   0.389
30470W        W 1070  24.293  37.567  12.446
30471W        W 1071   0.452  41.517   1.193
30472W        W 1072  17.601  15.054   4.954
30473W        W 1073   7.341  19.510   0.333
30474W        W 1074  40.298  19.242  12.079
30475W        W 1075  25.297  18.059  12.956
30476W        W 1076  35.402   6.474   0.326
30477W        W 1077  27.954  32.495  12.109
30478W        W 1078  33.195  16.177   4.166
30479W        W 1079  24.369  14.795  12.477
30480W        W 1080  19.629  26.216   2.322
30481W        W 1081   2.261  10.308   3.964
30482W        W 1082  33.312   4.335  10.261
30483W        W 1083  40.327   6.813   1.421
30484W        W 1084   2.645   7.694   2.875
30485W        W 1085  39.590   6.907  14.057
30486W        W 1086  25.954  25.524   2.792
30487W        W 1087  39.029  21.954  12.604
30488W        W 1088  26.594  35.929  12.438
30489W        W 1089  15.702   0.221   2.906
30490W        W 1090  40.305  33.594   1.341
30491W        W 1091  38.902  40.391   4.631
30492W        W 1092  17.233   8.443  10.404
30493W        W 1093  40.117  29.116   2.206
30494W        W 1094  26.670  33.020  13.882
30495W        W 1095   4.004  18.002   2.644
30496W        W 1096   3.321   3.504  14.308
30497W        W 1097  32.047  40.426  14.977
30498W        W 1098  40.904  11.240   4.673
30499W        W 1099   8.315  36.281   1.767
30500W        W 1100   6.864  11.582  12.465
30501W        W 1101  42.165   9.901  11.089
30502W        W 1102   5.454  33.219   1.744
30503W        W 1103   9.374  15.383   1.628
30504W        W 1104   0.779  24.351   5.074
30505W        W 1105  10.725  12.795   2.213
30506W        W 1106  26.964  19.761   5.255
30507W        W 1107  28.561  35.963   2.888
30508W        W 1108  11.440  32.122  13.637
30509W        W 1109   7.883  17.418  10.214
30510W        W 1110  14.101  18.522   4.545
30511W        W 1111  19.724  13.047   2.314
30512W        W 1112  31.656  28.665   4.609
30513W        W 1113  17.719  20.468   2.746
30514W        W 1114  17.864   3.211  10.839
30515W        W 1115  42.409   1.782   0.304
30516W        W 1116  15.187  14.718  13.498
30517W        W 1117   9.627  44.948  11.019
30518W        W 1118   1.386  31.020   3.173
30519W        W 1119  37.527  38.012  11.561
30520W        W 1120   5.832   5.112   1.838
30521W        W 1121   6.904   6.432   1.413
30522W        W 1122  37.776  36.877   3.740
30523W        W 1123   2.059  37.919  11.325
30524W        W 1124   6.270  16.519   2.269
30525W        W 1125  36.976  16.807  13.345
30526W        W 1126   0.294  19.069   4.782
30527W        W 1127   4.718  42.357  12.981
30528W        W 1128  31.141  25.742  11.688
30529W        W 1129  19.619  44.255   1.363
30530W        W 1130   0.801  44.541   2.863
30531W        W 1131  20.695  41.163  12.572
30532W        W 1132   1.125  15.209  14.995
30533W        W 1133  17.056  26.014   1.265
30534W        W 1134  38.352  32.874   3.647
30535W        W 1135  24.169  15.638   0.524
30536W        W 1136  44.975  38.991   1.234
30537W        W 1137  11.875  33.469  13.434
30538W        W 1138   7.239  10.190  10.227
30539W        W 1139   1.214  42.583  11.036
30540W        W 1140  31.385  21.314  12.554
30541W        W 1141  12.581  23.867   3.300
30542W        W 1142  24.963  24.817  12.004
30543W        W 1143  11.806  21.482  12.429
30544W        W 1144  12.774   2.790  13.397
30545W        W 1145   3.085  39.855   3.633
30546W        W 1146  12.756  36.535  10.783
30547W        W 1147  37.494  15.171  11.564
30548W        W 1148  17.369   0.163  12.327
30549W        W 1149  19.334  26.756   0.822
30550W        W 1150  32.331  19.008   0.775
30551W        W 1151  21.729  33.630   3.174
30552W        W 1152  19.590  35.774  14.867
30553W        W 1153  43.351  18.707  13.484
30554W        W 1154  27.456   5.372  14.812
30555W        W 1155  17.575  18.629   2.673
30556W        W 1156  33.100  28.541  10.434
30557W        W 1157  33.086   5.911   4.265
30558W        W 1158   4.811  10.332   4.470
30559W        W 1159  12.017  28.974   4.634
30560W        W 1160  30.476  21.579   1.924
30561W        W 1161   3.853  41.494  11.590
30562W        W 1162   2.720  14.246  11.023
30563W        W 1163  15.663  13.407   3.253
30564W        W 1164  19.088  26.891  11.543
30565W        W 1165   5.506  32.143   4.055
30566W        W 1166  15.570  39.919  12.636
30567W        W 1167  15.646  26.482  10.333
30568W        W 1168  32.865  35.608   2.808
30569W        W 1169   8.288  28.790  12.308
30570W        W 1170  35.796  31.872  14.117
30571W        W 1171  11.531  42.116  13.150
30572W        W 1172  21.234  18.143   4.145
30573W        W 1173  23.058  33.803   3.675
30574W        W 1174  15.353  34.858   3.049
30575W        W 1175  13.999  37.267  14.366
30576W        W 1176  42.292  28.650   0.981
30577W        W 1177   6.139  15.584   1.783
30578W        W 1178  32.545  42.722   1.452
30579W        W 1179   3.283  20.073   3.169
30580W        W 1180  18.230  43.032  13.788
30581W        W 1181   4.161  19.282   0.205
30582W        W 1182  22.580  34.358   2.279
30583W        W 1183  42.385  23.322   2.720
30584W        W 1184  44.788  13.553   2.131
30585W        W 1185  10.024  32.397  14.387
30586W        W 1186   7.811  16.336   0.449
30587W        W 1187  22.539  19.953  13.172
30588W        W 1188  36.955  15.788   0.819
30589W        W 1189  10.306  44.053   2.628
30590W        W 1190  26.950  16.099  11.500
30591W        W 1191   4.419  10.060  13.331
30592W        W 1192   0.024  43.032  13.969
30593W        W 1193  41.462  21.440   0.580
30594W        W 1194  23.992  17.744  10.690
30595W        W 1195  26.689   7.456   2.266
30596W        W 1196  29.071  27.986   3.039
30597W        W 1197  41.557  21.759  11.173
30598W        W 1198  27.486  17.311  12.585
30599W        W 1199   3.653  44.538  12.968
30600W        W 1200   5.835  11.554  12.933
30601W        W 1201  28.567   4.461   1.034
30602W        W 1202   6.501  11.965   3.599
30603W        W 1203  20.800   1.543   1.767
30604W        W 1204  39.468   3.746  13.764
30605W        W 1205  34.399  10.240  13.940
30606W        W 1206   9.232   6.136   3.271
30607W        W 1207  27.399  28.093  12.549
30608W        W 1208  25.660  23.064  11.468
30609W        W 1209   2.885   7.298  11.672
30610W        W 1210  11.134  29.468  14.127
30611W        W 1211  19.655  24.645  12.467
30612W        W 1212  37.568  22.100  10.792
30613W        W 1213   7.141  33.603  12.193
30614W        W 1214   4.744   8.825   1.188
30615W        W 1215   5.652   9.401   1.987
30616W        W 1216  19.244  36.567   3.806
30617W        W 1217  24.030  32.628   3.180
30618W        W 1218  11.318   5.081   1.279
30619W        W 1219  17.782  23.012   2.734
30620W        W 1220   6.530  32.419   1.416
30621W        W 1221  18.905  21.036   1.100
30622W        W 1222  41.408  28.599  11.835
30623W        W 1223   8.970  44.248   1.828
30624W        W 1224  39.856  13.292   0.847
30625W        W 1225  31.881  40.393  13.939
30626W        W 1226  12.871   5.914  12.490
30627W        W 1227   1.323  41.180   4.246
30628W        W 1228  41.617  26.046  10.537
30629W        W 1229  30.710  35.929   1.825
30630W        W 1230  23.995  18.036  10.124
30631W        W 1231  28.834  18.025  14.524
30632W        W 1232   7.743  24.541  12.046
30633W        W 1233  34.131  30.056   1.744
30634W        W 1234  18.380  14.147   1.382
30635W        W 1235  31.872   9.764  12.463
30636W        W 1236   2.901   8.109   1.930
30637W        W 1237   8.739   2.307   1.837
30638W        W 1238  35.973  21.594  12.360
30639W        W 1239  38.380  21.110  12.445
30640W        W 1240  23.179  18.608  12.516
30641W        W 1241  40.332  32.383   1.805
30642W        W 1242  12.003  23.506   4.532
30643W        W 1243  43.139   4.144   3.707
30644W        W 1244  35.132  23.041  11.830
30645W        W 1245  44.436  21.512   2.741
30646W        W 1246   6.744  19.267   0.520
30647W        W 1247  12.069  22.585  14.461
30648W        W 1248  38.469   2.041   2.596
30649W        W 1249  30.905   6.732   2.412
30650W        W 1250  29.498  28.596  12.048
30651W        W 1251  34.216   4.294   3.020
30652W        W 1252  29.572  35.915  14.066
30653W        W 1253  33.918  19.993   0.538
30654W        W 1254  42.868   7.986   1.321
30655W        W 1255  38.938  36.972   4.584
30656W        W 1256  10.121  19.779   3.238
30657W        W 1257  44.263   0.012   2.065
30658W        W 1258  38.327   4.474   2.992
30659W        W 1259  33.892  22.093  13.449
30660W        W 1260  27.044  31.882   3.061
30661W        W 1261   6.820   6.307  14.966
30662W        W 1262   5.150  25.726  12.398
30663W        W 1263  24.686  19.283  12.086
30664W        W 1264  19.413  39.445  11.079
30665W        W 1265   6.711   4.900  13.062
30666W        W 1266  27.703  13.214  12.682
30667W        W 1267  42.710  39.636   2.195
30668W        W 1268  31.374  13.940   4.181
30669W        W 1269   2.123  22.161  12.173
30670W        W 1270  41.829  33.714  11.461
30671W        W 1271  11.915  31.020   4.826
30672W        W 1272  31.486  28.421   0.989
30673W        W 1273  14.315   2.234   0.172
30674W        W 1274  23.221  12.331  10.602
30675W        W 1275  21.135   0.276   0.353
30676W        W 1276  14.809  28.676  11.413
30677W        W 1277  22.693   9.426   3.474
30678W        W 1278  41.099  19.131   0.721
30679W        W 1279  10.927  14.482  12.505
30680W        W 1280   2.286  27.206   3.155
30681W        W 1281   8.717   2.519   0.498
30682W        W 1282  10.032  25.608   2.754
30683W        W 1283  16.632  21.568   1.016
30684W        W 1284  18.638  26.206   3.471
30685W        W 1285  12.670  28.019  13.344
30686W        W 1286   4.478   4.953  12.956
30687W        W 1287   7.660  37.593   5.089
30688W        W 1288  19.845   9.458   2.643
30689W        W 1289   1.188  15.690  11.248
30690W        W 1290  35.182   6.960   3.938
30691W        W 1291  18.256   7.544   3.737
30692W        W 1292   4.247  35.140   1.369
30693W        W 1293  14.786  10.663  11.316
30694W        W 1294   0.455  23.582   0.416
30695W        W 1295  38.441  33.050   1.922
30696W        W 1296  24.050  37.082   4.170
30697W        W 1297  42.620  30.560   1.840
30698W        W 1298  36.293   7.825  13.932
30699W        W 1299  30.025  26.428  13.881
30700W        W 1300  38.556  15.781  14.970
30701W        W 1301  43.054  16.833  11.130
30702W        W 1302   4.242  44.490  13.992
30703W        W 1303  27.623  37.651   3.671
30704W        W 1304   6.008  39.669  12.858
30705W        W 1305  44.304  19.061   1.719
30706W        W 1306  26.662  41.562  11.700
30707W        W 1307  13.712  15.492  10.534
30708W        W 1308  25.826  39.058   0.135
30709W        W 1309   1.198  11.132   2.866
30710W        W 1310  19.163  10.194   0.289
30711W        W 1311  29.733  14.368   0.906
30712W        W 1312  39.886  25.544  12.914
30713W        W 1313  11.264  39.255   4.118
30714W        W 1314  24.191  22.260   0.496
30715W        W 1315  37.767  10.350  12.481
30716W        W 1316  24.229  16.489   0.023
30717W        W 1317  17.665   8.714  14.556
30718W        W 1318  25.638  23.380  14.239
30719W        W 1319  43.941  14.312  12.549
30720W        W 1320  24.608  16.798  10.672
30721W        W 1321  42.298  11.731  11.638
30722W        W 1322  43.100  10.308  14.388
30723W        W 1323  36.970  40.226   2.375
30724W        W 1324  32.902  26.930   1.880
30725W        W 1325  32.016   0.976   0.261
30726W        W 1326  24.565   3.182  12.331
30727W        W 1327  10.322  12.778  13.934
30728W        W 1328   6.354   1.067  14.971
30729W        W 1329  21.756   5.412   1.723
30730W        W 1330  15.070  34.449  14.171
30731W        W 1331  15.092  41.053   1.036
30732W        W 1332  25.009  12.852  14.149
30733W        W 1333   3.426   1.967  12.454
30734W        W 1334  13.501  20.104  13.298
30735W        W 1335   1.779   5.028  13.379
30736W        W 1336  41.603  14.137  10.675
30737W        W 1337  33.484  12.134   3.601
30738W        W 1338  20.719  15.630   3.331
30739W        W 1339  33.331  16.020  12.080
30740W        W 1340  23.139  40.328  12.476
30741W        W 1341  42.604  24.028  13.615
30742W        W 1342   5.668   6.789  10.495
30743W        W 1343   8.324  21.779   1.770
30744W        W 1344  35.998  24.196   2.297
30745W        W 1345   6.450  19.597   1.288
30746W        W 1346   1.585   0.224  11.100
30747W        W 1347   2.814   4.209   0.673
30748W        W 1348  17.246  30.832   3.221
30749W        W 1349  17.744  22.982  11.618
30750W        W 1350  28.697   2.035  14.710
30751W        W 1351   6.188   6.871  14.480
30752W        W 1352   7.699  29.009   3.289
30753W        W 1353   3.483   2.213  13.980
30754W        W 1354  23.681  40.982   1.337
30755W        W 1355  33.477  19.505  12.111
30756W        W 1356  39.333   9.925   4.922
30757W        W 1357   0.515  43.958   2.266
30758W        W 1358  41.869  14.751  13.389
30759W        W 1359  24.116   5.598  12.963
30760W        W 1360  24.437   0.559   4.647
30761W        W 1361  33.596   6.168   3.604
30762W        W 1362   5.702  19.993   0.801
30763W        W 1363  34.136  12.786  11.510
30764W        W 1364  44.428  31.144   0.527
30765W        W 1365  44.274  14.847  10.488
30766W        W 1366   0.777   8.241  12.871
30767W        W 1367  16.148  26.187   2.999
30768W        W 1368   6.885   1.982  12.539
30769W        W 1369  25.904  19.139  10.634
30770W        W 1370  39.462   1.940   3.126
30771W        W 1371   5.307   4.458  12.936
30772W        W 1372  31.143   6.272  13.383
30773W        W 1373  20.201  35.382   3.556
30774W        W 1374  12.887  37.378  14.954
30775W        W 1375   8.357  21.134   3.227
30776W        W 1376  11.258  24.557  14.804
30777W        W 1377  42.129  39.991  10.702
30778W        W 1378  24.791  17.003  13.846
30779W        W 1379  44.093  29.591  11.599
30780W        W 1380  24.203  41.771  12.172
30781W        W 1381  23.554   5.256   2.716
30782W        W 1382  20.166   0.916  10.646
30783W        W 1383   0.280  36.439   3.384
30784W        W 1384   8.489  25.067   3.782
30785W        W 1385  13.008  22.254  10.709
30786W        W 1386   9.370  26.928  11.679
30787W        W 1387   1.708  27.524  14.999
30788W        W 1388  19.136  14.352  14.510
30789W        W 1389   0.778  44.472  13.854
30790W        W 1390  10.290  27.985   2.845
30791W        W 1391   1.766  12.179  14.978
30792W        W 1392  31.033   4.335   2.396
30793W        W 1393  24.158  14.214   4.636
30794W        W 1394   7.161  15.539   4.317
30795W        W 1395  10.290  41.924  10.583
30796W        W 1396  43.813  35.430  11.277
30797W        W 1397   4.399  17.305  13.976
30798W        W 1398  23.701   2.481  10.524
30799W        W 1399  30.344  43.265   1.292
30800W        W 1400   3.517   7.363   3.794
30801W        W 1401  42.694   9.404  12.029
30802W        W 1402   3.843  28.882   1.441
30803W        W 1403  10.960  17.631   2.692
30804W        W 1404  24.079  20.349  11.539
30805W        W 1405  38.591  11.471   1.544
30806W        W 1406  16.266   3.720   0.795
30807W        W 1407  29.447  26.742  14.291
30808W        W 1408  26.575  20.688   0.094
30809W        W 1409  18.178   0.847   4.658
30810W        W 1410  30.843  38.721  11.536
30811W        W 1411  11.790  30.002  14.705
30812W        W 1412  20.366  39.568   1.736
30813W        W 1413  38.563   3.937   1.879
30814W        W 1414  22.655  15.375   3.168
30815W        W 1415  11.888  15.084   3.336
30816W        W 1416  25.142  10.267  11.024
30817W        W 1417   4.822   3.489   0.325
30818W        W 1418  28.760  12.721  14.291
30819W        W 1419  11.787  31.920  10.750
30820W        W 1420  25.961  33.023   1.271
30821W        W 1421   7.887  42.435  14.329
30822W        W 1422  43.520   5.462  11.412
30823W        W 1423  29.803  42.341  12.935
30824W        W 1424  43.190  29.526   2.268
30825W        W 1425  10.522  12.218   3.647
30826W        W 1426  12.908  27.793   3.676
30827W        W 1427  27.939  38.507  12.882
30828W        W 1428  16.638  20.312   1.267
30829W        W 1429   0.733  35.460   4.104
30830W        W 1430  30.962  12.546   2.401
30831W        W 1431  17.787   6.201   2.823
30832W        W 1432   1.703  21.358   1.343
30833W        W 1433  33.125  39.631  12.299
30834W        W 1434  41.282  41.005   4.304
30835W        W 1435  25.517  33.161  14.464
30836W        W 1436  39.279  41.508  14.367
30837W        W 1437  20.761   4.846   4.188
30838W        W 1438  16.024  37.528  12.440
30839W        W 1439  13.913  22.554   0.407
30840W        W 1440  42.034  40.363   3.655
30841W        W 1441   1.821  23.470  11.600
30842W        W 1442  15.217  43.312   2.207
30843W        W 1443  11.784  34.229  13.931
30844W        W 1444  15.507  18.401  14.811
30845W        W 1445  31.954  34.070   0.075
30846W        W 1446  15.738  18.952  11.703
30847W        W 1447   4.804  13.769  11.738
30848W        W 1448  35.184  18.655  14.586
30849W        W 1449  36.895  42.677  13.383
30850W        W 1450  38.824  20.987  13.437
30851W        W 1451  10.467  14.187  13.971
30852W        W 1452  28.353  39.929   2.653
30853W        W 1453  14.717  38.641   3.086
30854W        W 1454  33.027  21.301  14.869
30855W        W 1455  16.369   0.059  12.435
30856W        W 1456   0.851   3.422   0.653
30857W        W 1457   6.882  24.204   3.805
30858W        W 1458  33.077   5.722  14.489
30859W        W 1459  25.156   1.196  10.392
30860W        W 1460  20.174   6.377  12.803
30861W        W 1461  13.741  24.627   4.652
30862W        W 1462  11.720  41.730  11.240
30863W        W 1463  40.420  42.898  14.888
30864W        W 1464  43.527  43.147  13.012
30865W        W 1465  25.000  25.590   4.616
30866W        W 1466   5.189  23.221   2.714
30867W        W 1467   2.790  24.793   4.273
30868W        W 1468  41.127  17.000  12.981
30869W        W 1469  42.544  19.976   5.278
30870W        W 1470   5.174  36.967   0.893
30871W        W 1471  31.154  34.601   2.250
30872W        W 1472  10.790  22.498   2.329
30873W        W 1473  25.554   7.207  11.630
30874W        W 1474   7.730  42.760   2.967
30875W        W 1475  18.400  21.095   1.929
30876W        W 1476  38.981  41.319   2.716
30877W        W 1477  38.072  15.863   1.789
30878W        W 1478  44.386  31.605  10.682
30879W        W 1479  18.781  43.425   3.269
30880W        W 1480   9.088   3.366   4.569
30881W        W 1481  22.084  27.067   2.914
30882W        W 1482  37.698  11.190   0.703
30883W        W 1483  36.494  44.472  10.605
30884W        W 1484  24.794  32.383   0.446
30885W        W 1485  19.878  28.902  13.917
30886W        W 1486  30.905  16.357   2.641
30887W        W 1487   0.877  35.879  12.486
30888W        W 1488   7.374  44.697   3.241
30889W        W 1489  32.631  34.999  11.619
30890W        W 1490  40.894  44.337   0.729
30891W        W 1491  34.418  27.524   2.446
30892W        W 1492   2.667  14.688   4.193
30893W        W 1493   5.216  44.346  13.990
30894W        W 1494  33.870  39.984  11.667
30895W        W 1495   3.565   8.406   2.745
30896W        W 1496   1.084  27.506  12.561
30897W        W 1497  35.652   6.429   1.843
30898W        W 1498   6.163   6.992  12.544
30899W        W 1499  26.090  13.728  13.118
30900W        W 1500  21.020  17.618   1.839
30901W        W 1501  26.968  24.161   3.187
30902W        W 1502  20.703  38.964  14.277
30903W        W 1503  31.121   7.418  12.636
30904W        W 1504  26.658  18.328  12.631
30905W        W 1505  32.545   3.766  11.969
30906W        W 1506  12.362  31.866  11.610
30907W        W 1507  31.568   6.202   3.742
30908W        W 1508  14.223   3.832   4.915
30909W        W 1509  25.729  28.568  12.338
30910W        W 1510   3.826  39.252  12.547
30911W        W 1511  17.192   6.018   2.669
30912W        W 1512   8.916  28.769   2.140
30913W        W 1513  42.772  21.025  11.588
30914W        W 1514   4.295   1.904   4.645
30915W        W 1515   5.256  17.345  14.957
30916W        W 1516  23.112  10.696  13.355
30917W        W 1517  12.782   5.361  12.525
30918W        W 1518   6.389  35.020  11.005
30919W        W 1519   7.165   7.707   2.468
30920W        W 1520  41.141   3.838  14.894
30921W        W 1521  18.824  28.128   4.576
30922W        W 1522  13.722  42.385  12.859
30923W        W 1523   4.394  41.287   2.702
30924W        W 1524  24.923  25.215  13.784
30925W        W 1525  33.272  16.813   3.783
30926W        W 1526  42.607  34.593  11.810
30927W        W 1527  25.882   0.222  13.013
30928W        W 1528  27.689   4.918   1.328
30929W        W 1529   8.434  26.567  10.904
30930W        W 1530  11.334   6.921  12.135
30931W        W 1531  35.009  28.467   0.164
30932W        W 1532  26.554  30.364  11.288
30933W        W 1533  32.736  15.291   4.859
30934W        W 1534  18.749  31.139  14.524
30935W        W 1535  18.190  43.647   0.143
30936W        W 1536   4.660  33.413   0.811
30937W        W 1537  41.632  21.232   2.853
30938W        W 1538  18.299  39.517  12.522
30939W        W 1539  38.823  14.481  11.611
30940W        W 1540  41.349  38.332  13.468
30941W        W 1541   5.884  24.821   4.048
30942W        W 1542  15.723  27.484  14.248
30943W        W 1543  43.377  39.002   4.126
30944W        W 1544  35.590  36.220   2.692
30945W        W 1545  44.363   1.449  10.574
30946W        W 1546   6.883   0.915   1.658
30947W        W 1547  10.995  32.982   1.985
30948W        W 1548  10.263  34.646   1.711
30949W        W 1549  32.489  20.154   4.231
30950W        W 1550  35.154  37.445  13.378
30951W        W 1551  37.091  12.239  11.050
30952W        W 1552  21.987  38.569   4.620
30953W        W 1553  34.683  12.940  13.274
30954W        W 1554  40.249  13.425  12.089
30955W        W 1555  24.459  18.382   0.290
30956W        W 1556  28.892  35.903   3.294
30957W        W 1557   5.166  43.759   2.221
30958W        W 1558  38.429  24.425  13.383
30959W        W 1559   7.864  39.867  13.325
30960W        W 1560  40.002  36.950  14.282
30961W        W 1561   9.846  19.595   1.027
30962W        W 1562  13.341   2.264   0.423
30963W        W 1563  26.932  34.626  12.110
30964W        W 1564   2.183  18.960  13.778
30965W        W 1565  12.920  26.855  11.781
30966W        W 1566   3.377  23.689   4.812
30967W        W 1567  41.272  29.982   4.595
30968W        W 1568  38.778  31.974   1.333
30969W        W 1569  40.191   1.337   3.168
30970W        W 1570  18.075  33.307   3.176
30971W        W 1571  30.147  26.101   3.694
30972W        W 1572  45.000  44.563  13.322
30973W        W 1573  17.684  42.538  13.633
30974W        W 1574  21.634  10.918  13.905
30975W        W 1575  37.298  13.496  12.368
30976W        W 1576  37.905  35.312   4.492
30977W        W 1577  23.173  43.960   3.641
30978W        W 1578  37.735   7.470   4.645
30979W        W 1579  21.150  43.409   4.517
30980W        W 1580  16.657  19.006  11.417
30981W        W 1581  21.697  10.384  13.039
30982W        W 1582  25.277  15.047   0.998
30983W        W 1583  36.623  25.252   2.784
30984W        W 1584  17.362  41.437   3.230
30985W        W 1585  40.942  13.979  11.563
30986W        W 1586  41.089   2.280  14.870
30987W        W 1587   0.922  34.623   2.772
30988W        W 1588  30.633  11.873   3.088
30989W        W 1589  32.325  28.940   1.911
30990W        W 1590  19.248  11.329   4.698
30991W        W 1591  36.111  41.787  14.279
30992W        W 1592  27.582  18.271  10.668
30993W        W 1593   9.881  30.591   1.912
30994W        W 1594  33.652  22.410   1.282
30995W        W 1595  43.076   3.389  11.649
30996W        W 1596  32.929  26.241   0.458
30997W        W 1597  32.445  26.904   4.159
30998W        W 1598  29.975  21.517  11.630
30999W        W 1599  15.585   7.091   4.027
31000W        W 1600  13.833  32.648   1.811
31001W        W 1601  32.483   0.775  14.389
31002W        W 1602  31.365  44.348  12.864
31003W        W 1603  28.532   9.451   1.713
31004W        W 1604  41.529  27.233   4.298
31005W        W 1605   1.257   1.701  14.950
31006W        W 1606  37.644  32.142   4.526
31007W        W 1607  38.463   4.851   0.782
31008W        W 1608  32.019  14.951   0.586
31009W        W 1609  37.899  10.680  13.486
31010W        W 1610  34.670  27.103   2.951
31011W        W 1611  35.773  18.231   0.363
31012W        W 1612  40.526  23.303  14.985
31013W        W 1613  13.772  29.668  10.666
31014W        W 1614  21.677   5.382  10.417
31015W        W 1615  24.948  43.456   1.894
31016W        W 1616  27.989   4.502   2.348
31017W        W 1617   4.673  29.927  12.418
31018W        W 1618  11.325  33.795   0.793
31019W        W 1619  33.356  11.217   4.608
31020W        W 1620   2.797  29.036  12.619
31021W        W 1621  30.734  12.037   0.302
31022W        W 1622  27.181  28.546  11.086
31023W        W 1623  26.022  34.516  14.346
31024W        W 1624  37.742   0.192   1.069
31025W        W 1625  12.515  13.306   5.069
31026W        W 1626  41.350   5.269  14.269
31027W        W 1627  19.467  25.117   3.245
31028W        W 1628  19.516   0.899   1.766
31029W        W 1629   5.926  37.339  11.040
31030W        W 1630  27.934   9.321   3.846
31031W        W 1631   9.579   0.963   2.304
31032W        W 1632  29.355  42.602  14.238
31033W        W 1633   5.045  27.540  11.607
31034W        W 1634  31.644  34.589  12.937
31035W        W 1635  26.883  23.421   2.647
31036W        W 1636  39.433  18.337  13.319
31037W        W 1637   2.407  19.294  12.031
31038W        W 1638  19.887  37.642   1.826
31039W        W 1639  26.107  14.118  14.816
31040W        W 1640  22.683  37.403   1.766
31041W        W 1641  14.239  37.071   2.818
31042W        W 1642  41.299  40.959  13.866
31043W        W 1643  43.194  36.823  11.703
31044W        W 1644  25.423  32.120  10.154
31045W        W 1645  16.249   1.554   2.835
31046W        W 1646  15.626  19.172   3.641
31047W        W 1647  22.330  43.160   5.113
31048W        W 1648  37.528  35.953   4.233
31049W        W 1649  11.699  24.387  13.740
31050W        W 1650  39.855   4.929  13.879
31051W        W 1651  26.933  22.123  14.035
31052W        W 1652   3.392  26.705   3.053
31053W        W 1653  22.754  24.500   0.840
31054W        W 1654  24.660  17.741  11.338
31055W        W 1655  13.348   1.359   4.276
31056W        W 1656  28.146   9.911   1.275
31057W        W 1657  30.431  25.664   3.725
31058W        W 1658  32.135  20.083   0.494
31059W        W 1659  36.134  40.724  11.941
31060W        W 1660  30.578  28.333  13.479
31061W        W 1661  20.518   3.650   3.411
31062W        W 1662  12.089  22.065   0.970
31063W        W 1663  26.100  36.622  11.493
31064W        W 1664  30.650   6.373  13.136
31065W        W 1665   9.254  30.499   0.085
31066W        W 1666  38.569  36.596   3.676
31067W        W 1667  44.035  39.462  13.397
31068W        W 1668  21.744  27.314   0.766
31069W        W 1669   9.925  22.274  10.701
31070W        W 1670  11.564   6.143  13.527
31071W        W 1671  20.501  31.119   1.683
31072W        W 1672  19.004  39.055   0.641
31073W        W 1673  42.358  44.297   0.783
31074W        W 1674   0.406  44.032   4.151
31075W        W 1675  15.359  13.825  12.045
31076W        W 1676  43.734   4.150  13.136
31077W        W 1677   9.570  28.949   4.617
31078W        W 1678  36.106  29.977   3.684
31079W        W 1679  11.080  22.684  11.931
31080W        W 1680  16.325  17.611   4.600
31081W        W 1681   2.235  18.770  12.013
31082W        W 1682  18.199  43.220   1.016
31083W        W 1683   2.447   2.689   3.314
31084W        W 1684  18.516  22.072   2.673
31085W        W 1685   4.928   3.723  10.338
31086W        W 1686   7.414  36.595  12.013
31087W        W 1687  38.565  19.152   1.692
31088W        W 1688   3.278  39.868   4.962
31089W        W 1689  38.986  43.285   2.047
31090W        W 1690   4.493   4.259  10.187
31091W        W 1691  13.654  19.238  13.139
31092W        W 1692  39.865  25.424  12.074
31093W        W 1693  32.990  17.244   1.523
31094W        W 1694  10.118  25.348  11.190
31095W        W 1695   5.836  35.541  13.447
31096W        W 1696  39.295  23.457   0.565
31097W        W 1697  33.969  10.439  11.147
31098W        W 1698   9.812  17.739   4.617
31099W        W 1699  26.955  22.981   0.700
31100W        W 1700  23.397  29.418  12.152
31101W        W 1701  18.757  39.967  11.493
31102W        W 1702  38.796  41.830   4.601
31103W        W 1703  37.590  23.102   4.253
31104W        W 1704   1.848  36.853   4.466
31105W        W 1705   7.943  10.771  14.814
31106W        W 1706  26.192   4.849   0.224
31107W        W 1707  16.766   0.837   2.740
31108W        W 1708   8.857   0.513   4.515
31109W        W 1709  20.099   7.134   3.862
31110W        W 1710  28.711   4.723  10.089
31111W        W 1711  10.655  38.016  12.889
31112W        W 1712   4.677  43.448   0.928
31113W        W 1713  29.242  25.149   3.164
31114W        W 1714  31.055  21.091  12.915
31115W        W 1715  42.754  31.633  14.480
31116W        W 1716  10.018  39.577   1.890
31117W        W 1717  28.613  23.577   1.810
31118W        W 1718  14.128   3.316  11.489
31119W        W 1719  25.199   6.072  12.077
31120W        W 1720  43.284   7.735   2.810
31121W        W 1721  35.849  13.346   2.071
31122W        W 1722   0.907  30.665   1.212
31123W        W 1723   9.895  32.736   2.270
31124W        W 1724   0.261  33.288  13.874
31125W        W 1725  33.485  21.260  12.448
31126W        W 1726  26.355  17.243   3.241
31127W        W 1727  41.079  21.167  14.716
31128W        W 1728  33.510  21.699   3.325
31129W        W 1729   7.190   8.796   4.570
31130W        W 1730  27.857   8.904   2.926
31131W        W 1731  41.948   2.668   0.843
31132W        W 1732  34.983  14.056   1.504
31133W        W 1733  42.517  38.334  13.979
31134W        W 1734   9.418  36.593  14.357
31135W        W 1735  12.693  41.711  10.625
31136W        W 1736  44.745  42.771  11.712
31137W        W 1737  35.362  16.420  11.635
31138W        W 1738  36.133   6.370   1.009
31139W        W 1739  29.920   4.364   3.803
31140W        W 1740  44.997  28.009  10.718
31141W        W 1741   7.427   6.391   0.782
31142W        W 1742  32.705  26.707   3.655
31143W        W 1743   0.843  42.854   1.203
31144W        W 1744  17.228   0.865   1.374
31145W        W 1745  39.506   0.474   2.287
31146W        W 1746  32.318  30.220   4.626
31147W        W 1747  35.424  10.136   4.470
31148W        W 1748  10.281   8.189   3.230
31149W        W 1749  24.968   4.551   2.236
31150W        W 1750  40.978   8.473  10.701
31151W        W 1751  26.545  30.378   0.802
31152W        W 1752   3.181  36.784  11.531
31153W        W 1753  38.891  20.006  10.101
31154W        W 1754  11.150  13.422   2.828
31155W        W 1755   2.289  22.586  10.011
31156W        W 1756  12.249  40.419  13.006
31157W        W 1757  26.162  25.541  12.076
31158W        W 1758   9.778   2.921  12.630
31159W        W 1759  35.860   1.202   1.666
31160W        W 1760  31.644  32.923   3.270
31161W        W 1761  21.628   9.216  13.283
31162W        W 1762  25.723  40.416   4.200
31163W        W 1763  29.403  40.580  14.964
31164W        W 1764  41.335  44.355   1.471
31165W        W 1765  42.891   2.530   3.562
31166W        W 1766  43.275  19.653   1.222
31167W        W 1767  15.115  17.719  13.922
31168W        W 1768  16.762  39.032  11.006
31169W        W 1769  35.316   3.138  14.899
31170W        W 1770  18.379   0.494  14.852
31171W        W 1771  38.323  27.497   3.954
31172W        W 1772  22.482   9.155   1.714
31173W        W 1773   1.143  33.341  10.913
31174W        W 1774   7.349  21.907   0.376
31175W        W 1775   1.018  16.335   2.674
31176W        W 1776   5.510  10.481   3.619
31177W        W 1777  38.659  24.211  11.568
31178W        W 1778  14.354  42.426  12.443
31179W        W 1779   1.232   7.398   3.288
31180W        W 1780  19.715  44.870   4.594
31181W        W 1781  43.315  33.096   3.317
31182W        W 1782  14.290  32.915  12.234
31183W        W 1783   6.674   5.378  12.590
31184W        W 1784  40.215  14.623   3.362
31185W        W 1785   9.889   8.518   3.256
31186W        W 1786  25.277  28.807  11.170
31187W        W 1787  34.594  22.134  12.317
31188W        W 1788  28.740  25.857   3.095
31189W        W 1789  42.886   6.945   3.597
31190W        W 1790   4.891   7.481  13.415
31191W        W 1791  11.811  41.476  10.718
31192W        W 1792   0.261   1.989   0.899
31193W        W 1793  35.087  44.370   2.757
31194W        W 1794  16.359  44.212  11.274
31195W        W 1795  44.877  13.590  13.798
31196W        W 1796  40.292  21.563  14.247
31197W        W 1797   9.257   9.388   0.573
31198W        W 1798   3.200   0.820  14.558
31199W        W 1799   7.279  23.436  10.711
31200W        W 1800  22.935   0.039   3.882
31201W        W 1801  14.696  15.688   0.702
31202W        W 1802  37.904   4.397   4.789
31203W        W 1803  40.859   9.628  13.923
31204W        W 1804  30.125   0.357  14.468
31205W        W 1805   7.668  33.489  12.946
31206W        W 1806  43.329  35.404   3.187
31207W        W 1807  19.556  38.306  14.158
31208W        W 1808  13.405  38.147   2.360
31209W        W 1809  21.436  20.061  11.145
31210W        W 1810   1.202   9.819   1.640
31211W        W 1811  25.790  35.310   1.192
31212W        W 1812   5.809   8.832   3.061
31213W        W 1813  30.249  22.051  10.639
31214W        W 1814  29.644  16.707  14.046
31215W        W 1815  32.931  31.420   3.593
31216W        W 1816  22.748  15.713   0.950
31217W        W 1817  13.443   9.826  12.177
31218W        W 1818   3.314  17.221   5.185
31219W        W 1819  35.395  16.206  12.922
31220W        W 1820  25.778  16.020   2.124
31221W        W 1821  36.795   1.908  10.768
31222W        W 1822  32.999   8.382   4.819
31223W        W 1823  28.897  21.167   3.513
31224W        W 1824  13.846   5.626   0.648
31225W        W 1825  37.104  25.987   2.641
31226W        W 1826  14.529   5.313   3.363
31227W        W 1827  40.209  13.329  11.566
31228W        W 1828  27.280  23.324  13.363
31229W        W 1829  17.532  33.352   4.594
31230W        W 1830   3.000  15.141   1.695
31231W        W 1831  14.046  43.743   3.271
31232W        W 1832  11.850  35.782  13.495
31233W        W 1833   3.383  28.549  10.877
31234W        W 1834   8.203  14.825   2.160
31235W        W 1835  14.751  12.171   4.603
31236W        W 1836  13.171  43.713  11.939
31237W        W 1837  40.486  16.296  10.562
31238W        W 1838  39.334  29.412  13.300
31239W        W 1839  35.432  40.946   0.756
31240W        W 1840   2.895  32.384   3.886
31241W        W 1841  28.670  30.619   3.853
31242W        W 1842  20.277   1.507   1.799
31243W        W 1843   0.937  27.573   4.219
31244W        W 1844  32.946   5.052  10.730
31245W        W 1845  37.205   2.191  12.540
31246W        W 1846   4.500  29.577   1.026
31247W        W 1847  13.233  34.939  14.277
31248W        W 1848  37.782  11.627   0.446
31249W        W 1849   8.527  25.970  12.118
31250W        W 1850  31.541  33.479   2.678
31251W        W 1851  31.492   4.953  11.560
31252W        W 1852  25.128  10.081   0.307
31253W        W 1853  10.703  26.677   4.141
31254W        W 1854  17.499  37.326  12.663
31255W        W 1855  28.002  36.612  13.462
31256W        W 1856  11.948  27.388   3.741
31257W        W 1857  13.674   8.800  10.657
31258W        W 1858   4.699  15.339  11.755
31259W        W 1859  27.502  39.584  12.826
31260W        W 1860  39.914  32.843  12.664
31261W        W 1861  41.922  42.262   2.528
31262W        W 1862   9.851  37.750  12.257
31263W        W 1863  42.967  10.341  11.035
31264W        W 1864   1.220  38.764  12.733
31265W        W 1865  30.710   5.688  10.662
31266W        W 1866   4.485  29.397  14.204
31267W        W 1867  29.152  25.559   2.848
31268W        W 1868   9.396  28.985   1.295
31269W        W 1869   5.842  42.084  12.343
31270W        W 1870  33.605  22.641  13.164
31271W        W 1871  18.972  27.902  13.770
31272W        W 1872  36.242  26.475   4.539
31273W        W 1873  39.982  26.703   3.322
31274W        W 1874  13.068  16.012  14.305
31275W        W 1875  27.970  32.058  14.933
31276W        W 1876  17.431  13.104   3.673
31277W        W 1877  21.514  37.142  11.079
31278W        W 1878  41.518  38.222   4.160
31279W        W 1879  12.290  25.061  12.329
31280W        W 1880  23.750  17.383  12.238
31281W        W 1881   3.520   3.181   0.707
31282W        W 1882   7.434  11.850  11.500
31283W        W 1883  30.572   3.731   1.883
31284W        W 1884  32.548  41.005  13.819
31285W        W 1885  41.479  31.879  10.360
31286W        W 1886  29.741  17.329  10.393
31287W        W 1887  11.930   4.263  11.165
31288W        W 1888  20.986   2.793  12.113
31289W        W 1889   5.767   5.454  14.374
31290W        W 1890   8.835   7.860  12.966
31291W        W 1891  10.568   9.225  14.057
31292W        W 1892  28.617  13.130   0.235
31293W        W 1893   3.889   7.244  14.358
31294W        W 1894  13.865  21.045  10.805
31295W        W 1895  15.607   1.371   2.264
31296W        W 1896  23.252  12.378   4.490
31297W        W 1897  31.134  27.382  14.861
31298W        W 1898  14.613  20.974   0.361
31299W        W 1899  24.513  13.606  12.316
31300W        W 1900  14.250   7.078  14.889
31301W        W 1901   1.602  11.207  12.599
31302W        W 1902  19.829  44.199   2.177
31303W        W 1903  23.772  12.743  13.421
31304W        W 1904   1.415  14.083  14.405
31305W        W 1905  12.292   9.626   4.271
31306W        W 1906  19.725  27.932  13.348
31307W        W 1907   1.829  38.216  13.198
31308W        W 1908  38.876  37.923   4.725
31309W        W 1909  31.087  36.040   1.327
31310W        W 1910  21.191   4.835  11.949
31311W        W 1911  29.466  43.824   0.405
31312W        W 1912   0.463  18.542  11.102
31313W        W 1913  32.447  22.363  13.388
31314W        W 1914  41.997  18.057   2.766
31315W        W 1915   5.462  22.019  12.437
31316W        W 1916  29.064  26.625  12.471
31317W        W 1917   1.382  44.456  12.454
31318W        W 1918  15.832  12.708   3.863
31319W        W 1919   4.808   4.426  13.075
31320W        W 1920  20.106   6.360  13.300
31321W        W 1921  32.448  23.742  13.378
31322W        W 1922  43.491  17.375  11.974
31323W        W 1923   0.613  34.674   0.446
31324W        W 1924  20.542  11.906   0.166
31325W        W 1925  25.463  21.845   4.155
31326W        W 1926  21.402  29.264   1.658
31327W        W 1927  16.861  42.888  10.612
31328W        W 1928  23.529  25.900   4.386
31329W        W 1929  36.936  39.988   3.676
31330W        W 1930  43.825  33.107   3.218
31331W        W 1931  25.897  11.280  14.476
31332W        W 1932  12.956  39.534   4.116
31333W        W 1933  26.234   0.341   1.721
31334W        W 1934  28.615   6.231  10.630
31335W        W 1935  44.362  44.976  11.426
31336W        W 1936  27.221  26.677  13.852
31337W        W 1937  19.734  16.221  10.707
31338W        W 1938  29.442   0.231   3.341
31339W        W 1939  42.932   2.918  13.363
31340W        W 1940   3.455  12.077  14.313
31341W        W 1941  35.409  20.488   4.606
31342W        W 1942  23.572  35.006  11.123
31343W        W 1943  31.526  34.172   0.381
31344W        W 1944   1.336  22.293   4.626
31345W        W 1945  36.806   9.097   1.703
31346W        W 1946  14.288  37.185  13.379
31347W        W 1947  10.893  13.275  14.924
31348W        W 1948  38.035  10.293  13.795
31349W        W 1949  14.749  38.053  14.982
31350W        W 1950  15.697  18.253  10.237
31351W        W 1951  14.775   0.914   2.243
31352W        W 1952  18.148  40.211  11.377
31353W        W 1953  23.285  28.642  14.442
31354W        W 1954  43.825  19.337   3.590
31355W        W 1955   2.637   4.729  11.268
31356W        W 1956   5.987  30.020   1.675
31357W        W 1957  13.176   0.881   1.687
31358W        W 1958  35.929  30.572  12.450
31359W        W 1959  42.768  16.743   3.644
31360W        W 1960  27.572  29.458  13.353
31361W        W 1961  14.271  41.733   0.583
31362W        W 1962  36.350  31.572  11.523
31363W        W 1963  42.795  43.508   1.972
31364W        W 1964  21.058  36.119  12.153
31365W        W 1965  35.275  13.346  12.570
31366W        W 1966  10.186  30.211  12.348
31367W        W 1967  30.501   9.453   3.085
31368W        W 1968  25.852  10.153  12.464
31369W        W 1969  12.588  21.001   4.160
31370W        W 1970  11.296  17.853   3.413
31371W        W 1971   4.358   6.965  14.449
31372W        W 1972  30.406  39.967  11.177
31373W        W 1973  38.868  33.683   4.714
31374W        W 1974  40.861  37.350  12.576
31375W        W 1975  23.738  33.051   4.042
31376W        W 1976  15.048  36.270  13.506
31377W        W 1977  30.463  20.698   0.411
31378W        W 1978  22.221  18.136  13.849
31379W        W 1979  25.612  11.433  13.066
31380W        W 1980  30.930   6.820   0.041
31381W        W 1981  34.620  43.108   1.017
31382W        W 1982  32.914  35.265   4.703
31383W        W 1983   5.084  32.695  13.956
31384W        W 1984  12.835   6.601  10.756
31385W        W 1985  39.130   0.723  10.438
31386W        W 1986  26.763   0.991   4.025
31387W        W 1987   2.869   0.458  12.473
31388W        W 1988  41.259  39.258   4.093
31389W        W 1989  29.924  23.222   0.883
31390W        W 1990  13.399  32.038   2.245
31391W        W 1991  26.641   1.929   4.923
31392W        W 1992   1.167  23.581  12.767
31393W        W 1993  43.322  20.879  14.712
31394W        W 1994  39.836  27.826   1.598
31395W        W 1995  24.588  24.559   2.196
31396W        W 1996  36.517  22.081  13.539
31397W        W 1997  28.775  11.158   4.920
31398W        W 1998  19.141  20.203   3.256
31399W        W 1999  34.316  35.027   0.812
31400W        W 2000  41.519  27.187   0.920
31401W        W 2001  14.138  31.093   1.678
31402W        W 2002  42.289  15.648   4.683
31403W        W 2003  40.015   4.325   0.964
31404W        W 2004  37.480  14.619   3.835
31405W        W 2005  35.394  18.564   0.404
31406W        W 2006  29.674  21.254   0.102
31407W        W 2007  32.360  28.969  12.358
31408W        W 2008  35.773  23.163   0.392
31409W        W 2009  40.436  43.442   1.715
31410W        W 2010  13.008  41.534   0.515
31411W        W 2011  38.753  15.185  13.663
31412W        W 2012  25.998   4.295   3.663
31413W        W 2013   0.482  37.411  11.413
31414W        W 2014  19.602  12.280  14.864
31415W        W 2015  13.444   8.559  10.232
31416W        W 2016  23.303  18.138  12.794
31417W        W 2017   0.503  25.704   2.634
31418W        W 2018   2.373  23.530  13.444
31419W        W 2019  44.642   2.736  14.963
31420W        W 2020  34.367   0.498   3.853
31421W        W 2021   0.739  31.186   4.455
31422W        W 2022  18.084  39.419  13.737
31423W        W 2023  33.632  37.622  13.526
31424W        W 2024  40.002  31.016   2.792
31425W        W 2025   6.964  12.218  13.576
31426W        W 2026  16.710  23.971  13.351
31427W        W 2027  38.938  37.993  13.685
31428W        W 2028  14.294  35.993   0.805
31429W        W 2029  42.057   8.526  11.038
31430W        W 2030  38.046   9.349   2.149
31431W        W 2031  28.677  17.310   2.928
31432W        W 2032  11.674  23.649   2.412
31433W        W 2033   3.229  41.478   0.170
31434W        W 2034  16.684   7.717   4.602
31435W        W 2035   2.974  29.470  12.876
31436W        W 2036  21.143   8.420  13.062
31437W        W 2037  26.539   0.942  14.719
31438W        W 2038  35.290  16.832   1.303
31439W        W 2039  22.039  10.239   4.260
31440W        W 2040  10.466  16.693   1.801
31441W        W 2041   2.058  25.489   3.624
31442W        W 2042  44.436  38.866  14.146
31443W        W 2043  27.684  30.576   3.710
31444W        W 2044  32.658  25.943  12.456
31445W        W 2045  19.854   6.327   2.685
31446W        W 2046  31.598   2.791  14.112
31447W        W 2047  43.017  10.198  12.484
31448W        W 2048  19.036   1.517  11.742
31449W        W 2049   1.362  14.866  12.582
31450W        W 2050   6.835  17.758  12.897
31451W        W 2051   3.455   0.737  12.075
31452W        W 2052  39.961  38.848   0.625
31453W        W 2053  27.647   8.742  11.557
31454W        W 2054  32.708  28.733   3.754
31455W        W 2055  20.757   5.316   3.128
31456W        W 2056   9.233  43.246   4.272
31457W        W 2057   0.319  20.542   3.606
31458W        W 2058  44.316  34.349  12.084
31459W        W 2059   7.992  30.595  11.472
31460W        W 2060  19.943  16.862   1.758
31461W        W 2061  22.171  27.598  12.488
31462W        W 2062  27.081  17.946   2.361
31463W        W 2063  42.028  12.811   3.129
31464W        W 2064   7.837  14.569  12.070
31465W        W 2065  23.737  10.126  10.891
31466W        W 2066  20.940  15.333  10.726
31467W        W 2067   0.280  39.458  11.552
31468W        W 2068   5.643   7.354   0.805
31469W        W 2069  35.331  11.649  13.142
31470W        W 2070  14.761  28.522   3.858
31471W        W 2071  25.535  28.894   2.740
31472W        W 2072  12.826   5.247   3.828
31473W        W 2073  39.846  10.986  12.166
31474W        W 2074   9.095  42.087  14.792
31475W        W 2075  29.515  13.505   3.392
31476W        W 2076  20.478  18.627  11.705
31477W        W 2077  37.030  14.852   3.968
31478W        W 2078  26.187  14.666  11.942
31479W        W 2079  40.611  31.833  11.742
31480W        W 2080  38.112  28.649  14.243
31481W        W 2081  18.154   1.456  14.947
31482W        W 2082  15.670  36.221  12.087
31483W        W 2083  24.310  17.898   0.203
31484W        W 2084   5.999   7.896  12.955
31485W        W 2085  32.966  41.935   3.278
31486W        W 2086  18.126  38.521   4.179
31487W        W 2087  34.531   8.877  12.145
31488W        W 2088  15.576   6.788   0.022
31489W        W 2089   1.876  14.351   0.699
31490W        W 2090  13.139  11.747   3.402
31491W        W 2091  44.666  25.825   3.289
31492W        W 2092  27.677  19.888  11.607
31493W        W 2093   6.789  42.136  14.584
31494W        W 2094  17.721  38.998   4.738
31495W        W 2095  26.510  37.469  12.486
31496W        W 2096   9.450  34.612  14.468
31497W        W 2097   3.001  40.766   4.138
31498W        W 2098  14.621  44.460   1.269
31499W        W 2099  26.698  30.103  10.427
31500W        W 2100   1.869   7.912   2.307
31501W        W 2101  43.191   9.692   2.029
31502W        W 2102  15.118  40.538  14.386
31503W        W 2103  25.597  20.790  12.441
31504W        W 2104  15.991   0.585   0.786
31505W        W 2105  39.431  42.990   4.110
31506W        W 2106  25.642   1.682   2.798
31507W        W 2107  10.368  30.003  11.473
31508W        W 2108  41.328  27.250  11.602
31509W        W 2109  34.419  22.031  10.490
31510W        W 2110  16.750  37.878   4.658
31511W        W 2111  17.270   2.681  12.975
31512W        W 2112  37.050  11.579   3.260
31513W        W 2113  40.632  41.814  12.054
31514W        W 2114  31.051   4.890  10.244
31515W        W 2115  23.499  25.438   0.948
31516W        W 2116  31.045  13.119  13.420
31517W        W 2117   7.177  43.932   1.752
31518W        W 2118  13.517   6.097   0.752
31519W        W 2119  11.289  28.160  14.046
31520W        W 2120  33.054  33.083  13.471
31521W        W 2121  35.059  32.131  12.550
31522W        W 2122   1.325  42.525  14.897
31523W        W 2123  39.943   3.328  11.933
31524W        W 2124  14.788  18.547  13.061
31525W        W 2125  24.360  35.275   5.081
31526W        W 2126  15.744  11.061  11.106
31527W        W 2127  17.084   0.464   4.145
31528W        W 2128  14.106  10.144   1.381
31529W        W 2129  15.691  22.312   4.711
31530W        W 2130  19.135   1.674   2.782
31531W        W 2131  31.507  17.307   2.693
31532W        W 2132  43.279  29.502  13.038
31533W        W 2133   3.185   4.747  11.219
31534W        W 2134  44.199   6.842   4.802
31535W        W 2135  15.372   8.724  13.554
31536W        W 2136  11.709   4.141   4.632
31537W        W 2137  37.265  41.878  11.606
31538W        W 2138  31.464  28.397  13.590
31539W        W 2139  29.120  40.808   0.942
31540W        W 2140  24.475  12.624  10.997
31541W        W 2141  25.541   8.755   0.189
31542W        W 2142  41.484  16.604  14.410
31543W        W 2143  35.155  22.339  10.990
31544W        W 2144  13.926  21.534  10.641
31545W        W 2145  26.693  19.593  13.661
31546W        W 2146  16.332  18.618   2.252
31547W        W 2147  24.716   6.222   0.504
31548W        W 2148   1.873   4.145   1.758
31549W        W 2149  13.707   0.984   3.258
31550W        W 2150   2.464  12.221  12.027
31551W        W 2151  11.158  12.316   4.861
31552W        W 2152  33.527  10.315  12.990
31553W        W 2153  41.264  23.439  14.295
31554W        W 2154   8.241  30.504  13.627
31555W        W 2155   1.792  19.395   2.849
31556W        W 2156  41.343  39.954   3.329
31557W        W 2157   8.771  31.488   3.739
31558W        W 2158  34.592  13.087   4.654
31559W        W 2159  22.721  27.650   2.216
31560W        W 2160  44.691   3.202  10.764
31561W        W 2161  42.581  29.825  11.608
31562W        W 2162  31.152  28.013  11.488
31563W        W 2163  17.645  16.029  13.557
31564W        W 2164  25.548  25.623  12.458
31565W        W 2165  23.087  12.866  11.784
31566W        W 2166  43.544  37.793   3.581
31567W        W 2167  32.988  44.761  12.598
31568W        W 2168   2.478  44.991   2.246
31569W        W 2169  29.190  18.075  14.919
31570W        W 2170  11.181  11.298  10.649
31571W        W 2171  18.975  31.012   3.210
31572W        W 2172  35.738  37.458   1.935
31573W        W 2173   2.112   2.336  11.183
31574W        W 2174  40.836  38.344  13.480
31575W        W 2175  24.195   9.666   0.689
31576W        W 2176  24.639  26.601   1.946
31577W        W 2177  22.682  30.639   1.976
31578W        W 2178  40.826  12.146   0.853
31579W        W 2179   8.465  35.830   0.296
31580W        W 2180  39.565  19.442   0.932
31581W        W 2181  23.221   2.076  13.930
31582W        W 2182  20.209  17.733   3.961
31583W        W 2183  40.798   3.727   5.445
31584W        W 2184   4.937  23.184  12.068
31585W        W 2185   6.234  31.499  12.090
31586W        W 2186  29.113   3.181  11.443
31587W        W 2187  25.470  25.860  12.014
31588W        W 2188  33.921  35.725   4.401
31589W        W 2189  25.480  21.800  14.939
31590W        W 2190   3.947   5.635   0.244
31591W        W 2191  15.959   6.026   2.232
31592W        W 2192  25.298  31.898   4.535
31593W        W 2193  10.982   7.155   1.441
31594W        W 2194   5.620  29.228  11.011
31595W        W 2195  24.114  14.071  14.467
31596W        W 2196  39.088  22.693  12.564
31597W        W 2197   7.278   6.906   1.682
31598W        W 2198  32.867  32.143  13.447
31599W        W 2199  29.328  31.952  13.410
31600W        W 2200  33.513   3.149  12.397
31601W        W 2201   6.657  26.540   3.274
31602W        W 2202  28.091  37.151  13.421
31603W        W 2203  43.330  23.953  12.759
31604W        W 2204  25.674   0.181   3.177
31605W        W 2205  18.954  21.524  12.827
31606W        W 2206  12.673  16.685   2.905
31607W        W 2207  12.782   2.746  14.293
31608W        W 2208  35.571  17.031  10.950
31609W        W 2209  17.742   9.828  12.452
31610W        W 2210  41.280  15.342   1.860
31611W        W 2211   9.343   9.242  14.606
31612W        W 2212  36.048   4.715   3.342
31613W        W 2213  42.988  28.993   3.336
31614W        W 2214  10.632  36.530   3.210
31615W        W 2215  26.063  36.864   3.683
31616W        W 2216  13.595  29.187  13.005
31617W        W 2217  38.770  10.699  14.982
31618W        W 2218   9.418  12.603   2.705
31619W        W 2219  22.176  19.110   2.243
31620W        W 2220  15.782   3.401  10.592
31621W        W 2221   1.546  19.102  14.952
31622W        W 2222  26.661  30.714   2.856
31623W        W 2223  23.483  12.525  11.008
31624W        W 2224   1.253  11.373  14.582
31625W        W 2225  43.556   0.470   2.008
31626W        W 2226   5.193  35.783  10.841
31627W        W 2227  37.874  41.786  14.874
31628W        W 2228  23.406  14.816  12.955
31629W        W 2229  11.216  17.750   3.919
31630W        W 2230  40.233  36.024   3.625
31631W        W 2231  28.369   9.888  14.987
31632W        W 2232  16.674   2.910  12.600
31633W        W 2233   4.906  43.320   2.389
31634W        W 2234   8.842   8.925  13.766
31635W        W 2235  44.367  28.487  13.491
31636W        W 2236  35.918   7.671   4.951
31637W        W 2237  35.592  14.624  12.877
31638W        W 2238   3.700   2.647  11.929
31639W        W 2239  39.659  13.396   0.360
31640W        W 2240  34.943  40.456  11.444
31641W        W 2241  26.755  34.480  12.594
31642W        W 2242   9.082  12.829   2.136
31643W        W 2243   4.190   9.606   4.619
31644W        W 2244  27.625   5.256  11.873
31645W        W 2245  10.765  44.600   4.584
31646W        W 2246  40.811  25.126  11.190
31647W        W 2247  41.497  33.076   2.267
31648W        W 2248   9.855   3.672   0.266
31649W        W 2249  18.657  25.795   3.165
31650W        W 2250  12.592   8.394  13.975
31651W        W 2251  20.960   7.715   0.373
31652W        W 2252  12.177  40.982  11.984
31653W        W 2253  29.366  17.147  14.063
31654W        W 2254   2.195  39.820  13.969
31655W        W 2255  44.777  41.028   2.084
31656W        W 2256  17.269  37.116  13.079
31657W        W 2257  26.731  19.121  12.453
31658W        W 2258  25.947  22.195   0.822
31659W        W 2259  21.341  18.623   2.896
31660W        W 2260   3.472  39.443   4.643
31661W        W 2261  34.041  42.016  13.521
31662W        W 2262   9.359  37.503  12.544
31663W        W 2263  44.401  43.519  14.360
31664W        W 2264  22.181  15.004   3.644
31665W        W 2265  42.482   3.419  14.768
31666W        W 2266   3.501  21.050   2.192
31667W        W 2267  42.638  24.147   0.384
31668W        W 2268  32.247   8.456   4.370
31669W        W 2269  17.127  39.518   3.159
31670W        W 2270  33.865  18.074   0.287
31671W        W 2271  25.483  12.614   1.170
31672W        W 2272  21.991  27.381   1.756
31673W        W 2273   6.398   9.561   3.736
31674W        W 2274  22.844  35.503  14.414
31675W        W 2275  17.615  33.692  12.484
31676W        W 2276  25.180   7.155   5.062
31677W        W 2277  18.723   6.863  13.931
31678W        W 2278  21.518  32.019   1.654
31679W        W 2279  44.736  19.772   4.690
31680W        W 2280   1.921   5.332  11.219
31681W        W 2281  14.481   4.485  14.779
31682W        W 2282  15.679   6.852   2.237
31683W        W 2283  29.274  20.832  14.859
31684W        W 2284  27.638   3.828  12.582
31685W        W 2285  37.896  36.310   2.593
31686W        W 2286  14.694  18.114  12.527
31687W        W 2287   4.284   8.649   0.565
31688W        W 2288   5.828  14.726  11.625
31689W        W 2289  16.781  24.803  12.076
31690W        W 2290  31.542  39.545  12.491
31691W        W 2291  29.250  28.428  12.473
31692W        W 2292  40.022   9.010  14.863
31693W        W 2293  28.173  43.782   3.446
31694W        W 2294  44.563  27.261  12.102
31695W        W 2295   8.327  32.045   4.152
31696W        W 2296  38.392  18.138  10.606
31697W        W 2297  40.576  39.824  14.910
31698W        W 2298  11.871   8.180   2.055
31699W        W 2299  35.322  17.758   4.791
31700W        W 2300  19.780  20.101   0.998
31701W        W 2301  12.505  32.484   1.339
31702W        W 2302  30.127  28.675  11.231
31703W        W 2303  15.185  35.333   2.841
31704W        W 2304  43.494  22.043  11.433
31705W        W 2305  37.967   6.206  11.926
31706W        W 2306  39.130  24.784  12.412
31707W        W 2307  31.709  38.792   0.041
31708W        W 2308  17.588  12.122  11.969
31709W        W 2309  30.560   9.191  13.333
31710W        W 2310  38.883   8.804  12.682
31711W        W 2311   9.337  44.195  11.552
31712W        W 2312   8.274  26.442   1.516
31713W        W 2313  10.354  22.490  10.324
31714W        W 2314  12.061  20.601  11.002
31715W        W 2315  26.308  24.452  14.841
31716W        W 2316  24.577  27.030   4.537
31717W        W 2317  26.868  41.227   5.003
31718W        W 2318  27.565   9.074  11.090
31719W        W 2319  13.226  31.609  11.315
31720W        W 2320  30.860  31.754  12.597
31721W        W 2321   9.526   6.748   3.564
31722W        W 2322  35.498   6.188  11.078
31723W        W 2323  25.947  42.235  10.648
31724W        W 2324  29.399   3.422  14.283
31725W        W 2325  27.473  38.288   0.237
31726W        W 2326  27.123  23.988   2.712
31727W        W 2327  16.218  21.029  14.627
31728W        W 2328  35.394  34.674  12.972
31729W        W 2329  20.739  26.499   1.668
31730W        W 2330  37.034  31.826  12.234
31731W        W 2331  44.078   6.905   0.038
31732W        W 2332  29.470  43.423   3.654
31733W        W 2333  17.113  41.472  14.079
31734W        W 2334  31.016   8.545   1.761
31735W        W 2335   8.718  12.899   4.411
31736W        W 2336  24.495  31.002   4.888
31737W        W 2337  10.258  28.082   2.309
31738W        W 2338  43.641  11.097  13.835
31739W        W 2339  29.472  10.910   3.820
31740W        W 2340  25.909   5.590   4.108
31741W        W 2341  17.247  30.674  13.725
31742W        W 2342  32.887  39.272   1.321
31743W        W 2343  38.946  10.873  14.047
31744W        W 2344  28.590  32.641  11.120
31745W        W 2345  23.561  34.320  13.469
31746W        W 2346  27.640  27.158   3.215
31747W        W 2347  25.488  22.077  11.476
31748W        W 2348   5.296  34.570  10.327
31749W        W 2349  39.346  12.855   1.840
31750W        W 2350   1.819  38.584  10.643
31751W        W 2351  11.841  14.256  13.294
31752W        W 2352  24.621  20.101   4.610
31753W        W 2353   6.491  14.772   0.249
31754W        W 2354  41.945  25.302  10.370
31755W        W 2355  22.127  43.049  14.676
31756W        W 2356   8.734   7.320  14.796
31757W        W 2357  23.653  35.514   3.366
31758W        W 2358  33.544   8.398   3.163
31759W        W 2359  12.558  44.976  12.607
31760W        W 2360  11.606  22.871  12.622
31761W        W 2361  10.211  41.381   5.054
31762W        W 2362   0.858  42.739  13.478
31763W        W 2363  26.296  14.248   4.894
31764W        W 2364  30.360   6.100   3.695
31765W        W 2365   1.690   6.682  12.430
31766W        W 2366  38.463  12.842   1.698
31767W        W 2367  13.336  34.006  11.920
31768W        W 2368  21.525  25.112   2.274
31769W        W 2369  19.567  28.620   4.884
31770W        W 2370   4.361  30.948   1.003
31771W        W 2371   7.348  24.511   4.548
31772W        W 2372  23.168  34.635  13.340
31773W        W 2373   3.894  43.474   2.477
31774W        W 2374  39.926  25.094   1.738
31775W        W 2375   6.968  22.101  11.977
31776W        W 2376  43.033  39.988   0.851
31777W        W 2377  12.948  38.781  14.602
31778W        W 2378  32.618   8.291  12.926
31779W        W 2379  40.914  34.784   3.887
31780W        W 2380  13.046  22.328   0.290
31781W        W 2381  24.529  30.483   3.587
31782W        W 2382  13.207  32.491  12.972
31783W        W 2383  24.795   1.880  11.899
31784W        W 2384  32.897   6.391   1.474
31785W        W 2385  19.895  10.194   3.178
31786W        W 2386  21.638  13.369  13.355
31787W        W 2387  36.677  15.263   3.210
31788W        W 2388   3.624  41.964   1.188
31789W        W 2389  22.957   4.138  10.542
31790W        W 2390  37.092  31.646  11.095
31791W        W 2391  24.880  42.353   0.567
31792W        W 2392  40.354  31.184   0.280
31793W        W 2393   1.209  21.682   3.935
31794W        W 2394  33.662  12.740   4.245
31795W        W 2395  12.332  15.910   3.615
31796W        W 2396  15.646  36.457  11.628
31797W        W 2397  15.140  33.451  14.924
31798W        W 2398   5.689  41.043   0.019
31799W        W 2399  16.948   8.891  14.548
31800W        W 2400  43.442  11.233   0.868
31801W        W 2401  30.874  30.613   0.720
31802W        W 2402  43.124  39.861  10.616
31803W        W 2403  19.775  26.975   1.704
31804W        W 2404  14.247   8.857   3.916
31805W        W 2405  16.015  18.038   2.827
31806W        W 2406  11.452  11.384  12.612
31807W        W 2407   6.408  29.194   4.264
31808W        W 2408  42.564  27.909   2.257
31809W        W 2409   6.219  39.275  12.508
31810W        W 2410  37.648  23.931  10.692
31811W        W 2411  16.697  40.966  11.466
31812W        W 2412   5.664  20.721   1.822
31813W        W 2413   4.383  20.671   3.177
31814W        W 2414  16.095  15.095   4.295
31815W        W 2415   9.891  21.592  13.924
31816W        W 2416  21.370  38.168   0.442
31817W        W 2417   7.176  40.907  14.742
31818W        W 2418  12.600  30.114  14.293
31819W        W 2419   2.256  37.317  12.903
31820W        W 2420  25.360  44.818  14.760
31821W        W 2421  26.175  13.543   4.246
31822W        W 2422  35.001  44.693   4.201
31823W        W 2423   5.328  35.563   1.278
31824W        W 2424   6.698  26.243  13.805
31825W        W 2425  21.488  28.034  11.583
31826W        W 2426  18.688  37.859   4.643
31827W        W 2427  21.784  25.575   3.162
31828W        W 2428   6.279  22.992   2.172
31829W        W 2429  42.940  22.213  12.619
31830W        W 2430  37.491  17.822   0.411
31831W        W 2431  29.591   3.747   1.924
31832W        W 2432  21.242   4.688   5.200
31833W        W 2433  12.756  23.351   3.377
31834W        W 2434   5.673  33.083   1.287
31835W        W 2435  32.520   4.937   4.942
31836W        W 2436  28.317   6.323  12.364
31837W        W 2437  27.530  32.051   4.546
31838W        W 2438  31.843  20.173  12.088
31839W        W 2439  33.474  17.047  12.895
31840W        W 2440   3.452   3.875   2.721
31841W        W 2441  29.413   2.359   3.293
31842W        W 2442  40.338  10.874   3.680
31843W        W 2443  34.490   0.605  13.476
31844W        W 2444   3.365  42.080  10.549
31845W        W 2445  24.710   4.797   0.524
31846W        W 2446   2.353   8.086  10.884
31847W        W 2447  19.673  33.561  10.782
31848W        W 2448   4.853  27.458   3.707
31849W        W 2449   5.287   7.210  14.341
31850W        W 2450  10.535  11.449  11.704
31851W        W 2451  40.453  15.021   2.676
31852W        W 2452  19.835  14.828  11.974
31853W        W 2453  16.379  31.718   0.270
31854W        W 2454  32.239   7.772   3.414
31855W        W 2455  14.806   9.735  14.352
31856W        W 2456  40.017   6.489   4.531
31857W        W 2457  24.402  13.901  10.665
31858W        W 2458   3.507  25.038  13.622
31859W        W 2459  42.040   2.788  14.949
31860W        W 2460  42.715  35.765  11.126
31861W        W 2461  32.826  14.215   1.414
31862W        W 2462   9.783  16.662   1.017
31863W        W 2463  35.869  34.854  12.603
31864W        W 2464  16.740  27.629  13.294
31865W        W 2465   0.915  19.635  11.801
31866W        W 2466  10.464  38.953   2.783
31867W        W 2467  44.081  25.979  13.026
31868W        W 2468  42.927  44.219  10.285
31869W        W 2469  25.717  44.551  10.555
31870W        W 2470  23.271  27.252  11.142
31871W        W 2471  16.519   9.838   1.045
31872W        W 2472  25.985   0.755  14.596
31873W        W 2473  24.528  41.952   4.879
31874W        W 2474  25.048  11.114  11.909
31875W        W 2475  20.507   3.219  14.238
31876W        W 2476   1.720  10.643  11.464
31877W        W 2477  30.027  21.013  11.685
31878W        W 2478  13.396  35.938   1.245
31879W        W 2479  11.366  14.017   1.743
31880W        W 2480  11.477  27.669  14.056
31881W        W 2481  18.246   9.093   0.729
31882W        W 2482  11.895   9.370   4.028
31883W        W 2483   7.632  25.131   1.888
31884W        W 2484  35.072  37.395   4.489
31885W        W 2485  11.221  40.813   2.197
31886W        W 2486   0.898  38.376   0.903
31887W        W 2487  23.578  42.882   2.452
31888W        W 2488   6.817   5.109   1.810
31889W        W 2489  28.528   6.870   2.378
31890W        W 2490  17.236  16.247   2.918
31891W        W 2491  36.544  43.820   2.649
31892W        W 2492   3.241  16.208   4.047
31893W        W 2493  30.447  39.353  13.773
31894W        W 2494  26.505  40.806   4.566
31895W        W 2495  33.667  19.547   1.787
31896W        W 2496   2.129   6.281  13.895
31897W        W 2497   7.968  41.950   2.108
31898W        W 2498  25.891  44.241  11.471
31899W        W 2499   6.392  15.292   2.958
31900W        W 2500   3.742  38.179  13.365
31901W        W 2501  43.537   6.315   4.645
31902W        W 2502  25.975  33.401   0.325
31903W        W 2503   0.621  17.640   0.633
31904W        W 2504  38.857  40.430   0.264
31905W        W 2505  28.548  11.095  12.729
31906W        W 2506  21.233  17.915  11.558
31907W        W 2507  26.187  28.442   1.877
31908W        W 2508  17.801   6.381  11.886
31909W        W 2509  43.938  32.935   1.309
31910W        W 2510  17.479  39.785   0.193
31911W        W 2511  31.446   7.146  10.267
31912W        W 2512   2.401   5.419   4.367
31913W        W 2513  28.585  38.457  14.272
31914W        W 2514  11.185  43.549   3.687
31915W        W 2515  35.657   0.442  12.100
31916W        W 2516  14.401  17.790  14.737
31917W        W 2517  43.521  29.016   4.222
31918W        W 2518  35.977  29.220   0.289
31919W        W 2519  14.783   9.082   2.039
31920W        W 2520  10.919   0.799  10.706
31921W        W 2521   0.444  43.675  13.258
31922W        W 2522  42.836  28.661  13.489
31923W        W 2523  42.046  42.208  13.983
31924W        W 2524  18.982   2.219   0.398
31925W        W 2525  44.865   8.342  12.842
31926W        W 2526   4.871   8.917   2.636
31927W        W 2527  22.875  23.190   4.937
31928W        W 2528  23.722  13.539  13.950
31929W        W 2529  18.440  17.647   4.579
31930W        W 2530   5.014   4.850   1.261
31931W        W 2531  38.348  18.845   9.633
31932W        W 2532  22.034  10.615   3.793
31933W        W 2533  16.275   0.481  14.444
31934W        W 2534  44.260  38.673  14.625
31935W        W 2535   2.350  10.157   2.423
31936W        W 2536  38.341  11.670  10.198
31937W        W 2537  32.839  34.389   0.924
31938W        W 2538  20.060  16.071   2.890
31939W        W 2539  27.485  19.994  13.193
31940W        W 2540  15.594  20.606  11.940
31941W        W 2541  15.880  25.904   2.255
31942W        W 2542   7.751  18.722  14.302
31943W        W 2543   6.166  19.038   2.239
31944W        W 2544  33.643  40.515  12.268
31945W        W 2545  12.492   5.709  11.753
31946W        W 2546   6.459  15.239  12.021
31947W        W 2547  10.924  11.451  13.562
31948W        W 2548  40.786  42.783   1.778
31949W        W 2549   3.940  25.032  14.525
31950W        W 2550  11.418  23.469  13.239
31951W        W 2551   9.074  36.539   0.183
31952W        W 2552   8.546  27.593   0.774
31953W        W 2553   3.912   1.636   0.913
31954W        W 2554   0.257  19.286   1.964
31955W        W 2555   8.644  19.560   3.758
31956W        W 2556  36.578  29.740  12.163
31957W        W 2557   9.547  28.888  12.506
31958W        W 2558  34.091  30.343  11.780
31959W        W 2559  26.975  23.117   0.170
31960W        W 2560   7.318  31.252   2.844
31961W        W 2561  22.111  25.692  11.884
31962W        W 2562  27.438   4.757   4.551
31963W        W 2563  42.527  12.106   4.227
31964W        W 2564  34.801  24.223   3.273
31965W        W 2565  16.605  17.539  13.044
31966W        W 2566  34.372  33.086   3.178
31967W        W 2567  31.475  25.205   2.648
31968W        W 2568  28.152  28.520  13.351
31969W        W 2569  17.535  21.168   2.304
31970W        W 2570  33.847  13.710  11.508
31971W        W 2571  43.307  41.204  11.185
31972W        W 2572  30.048  17.802   4.515
31973W        W 2573  12.311  18.212   1.738
31974W        W 2574  39.301  16.505   2.265
31975W        W 2575  36.938  16.737   4.184
31976W        W 2576   3.748  26.667  13.975
31977W        W 2577  18.640  38.370  13.909
31978W        W 2578  18.301   4.669   0.688
31979W        W 2579   8.941  16.356  10.479
31980W        W 2580   5.421  40.743   3.897
31981W        W 2581   4.755  36.416  12.818
31982W        W 2582  10.352  33.617  14.883
31983W        W 2583  27.126  29.719  14.167
31984W        W 2584  25.500  25.196   4.130
31985W        W 2585   5.230   6.899   3.687
31986W        W 2586  20.606  16.331   2.815
31987W        W 2587  37.669  43.871   4.875
31988W        W 2588  19.530   6.702  14.396
31989W        W 2589   2.692  44.717   1.836
31990W        W 2590  16.799  22.777   4.896
31991W        W 2591  10.317  38.768   4.123
31992W        W 2592   7.079  43.562  12.080
31993W        W 2593  21.118  41.763  14.111
31994W        W 2594  24.195  20.616  11.098
31995W        W 2595  18.010  12.282   3.268
31996W        W 2596  41.777  29.097   3.649
31997W        W 2597   8.745  41.126   1.036
31998W        W 2598  31.839  39.900  13.425
31999W        W 2599  39.531  12.691  12.089
32000W        W 2600  38.635  27.603   2.893
32001W        W 2601  16.464  26.333   9.775
32002W        W 2602   8.593   3.853  14.433
32003W        W 2603  30.702  16.208  12.006
32004W        W 2604  31.203   2.896  14.424
32005W        W 2605  39.287  11.797  12.420
32006W        W 2606  16.508  25.667  14.894
32007W        W 2607  20.310  38.888   1.311
32008W        W 2608  36.476  22.899   3.775
32009W        W 2609   2.874  39.852   0.565
32010W        W 2610  14.380  17.236  14.665
32011W        W 2611   2.543  19.830  10.628
32012W        W 2612  32.413  40.026   0.668
32013W        W 2613  25.453   2.231  11.404
32014W        W 2614  14.395  20.658  13.402
32015W        W 2615  10.146   0.802   1.493
32016W        W 2616  11.861  39.370  11.340
32017W        W 2617   0.030  27.183   0.840
32018W        W 2618  19.329  29.897   2.415
32019W        W 2619   7.406  34.430   3.116
32020W        W 2620  31.655  29.426  11.395
32021W        W 2621  31.568  16.215   3.628
32022W        W 2622  42.530  38.866   0.318
32023W        W 2623  43.477  19.267  10.776
32024W        W 2624  21.952   2.751  11.131
32025W        W 2625  36.838  39.386   2.991
32026W        W 2626  27.580  25.390  13.398
32027W        W 2627  11.816  40.978   2.869
32028W        W 2628  21.585  41.520   0.401
32029W        W 2629   8.935  12.216   4.637
32030W        W 2630  44.507  41.577  13.597
32031W        W 2631  35.057  30.202   0.320
32032W        W 2632   7.107  29.074  11.703
32033W        W 2633  40.453  12.579   4.615
32034W        W 2634  27.954  18.805  12.021
32035W        W 2635  20.654   0.811   3.097
32036W        W 2636  11.373  13.130   4.262
32037W        W 2637   0.006  12.060  12.141
32038W        W 2638   6.418  12.248   4.096
32039W        W 2639  44.416   3.986   0.577
32040W        W 2640  14.087   8.337   0.930
32041W        W 2641  15.512  18.079   3.674
32042W        W 2642  15.261  22.486  11.124
32043W        W 2643   6.767  16.209   4.355
32044W        W 2644   7.025  39.011   2.387
32045W        W 2645   6.433  16.322   0.810
32046W        W 2646  13.386   6.932  10.023
32047W        W 2647   7.720   5.625   1.798
32048W        W 2648  34.646   6.042   2.735
32049W        W 2649  29.416  35.578  10.607
32050W        W 2650   7.295  28.496  14.772
32051W        W 2651  43.374  33.411   1.888
32052W        W 2652  32.074  27.740  14.957
32053W        W 2653   7.762  18.768   4.158
32054W        W 2654  30.557  26.769   1.420
32055W        W 2655  31.133  25.094   1.780
32056W        W 2656  30.398  17.395  11.639
32057W        W 2657  28.065  26.384   1.665
32058W        W 2658  43.909  12.377  13.516
32059W        W 2659   7.963  27.888  12.498
32060W        W 2660  24.274  21.969  10.993
32061W        W 2661  36.565  41.996  12.786
32062W        W 2662  35.908  25.637  13.783
32063W        W 2663  18.004   5.780  10.720
32064W        W 2664  39.006   6.556  12.412
32065W        W 2665  13.347  13.229  12.135
32066W        W 2666  15.160   1.162   4.812
32067W        W 2667   4.457  10.286  11.522
32068W        W 2668  25.232  39.251   3.988
32069W        W 2669   0.352  27.593   0.822
32070W        W 2670  44.351   4.656   0.293
32071W        W 2671  26.974   4.564  14.921
32072W        W 2672   5.521  10.848  13.378
32073W        W 2673  25.509   9.506   3.340
32074W        W 2674   9.706  36.351   0.991
32075W        W 2675  14.432  15.375   3.232
32076W        W 2676  21.466  19.166  13.473
32077W        W 2677  33.499  19.283  11.666
32078W        W 2678   3.382  10.575  11.596
32079W        W 2679  28.362  12.418   4.678
32080W        W 2680  38.385  38.853   2.168
32081W        W 2681  18.127  15.097   2.843
32082W        W 2682  42.886  35.540   4.624
32083W        W 2683  36.443   9.161  14.867
32084W        W 2684  23.840  35.208   2.985
32085W        W 2685  40.754  16.659  13.083
32086W        W 2686  16.670  14.815   0.353
32087W        W 2687  25.813  13.652  13.576
32088W        W 2688  13.231  34.432   3.344
32089W        W 2689  19.032  13.487  11.967
32090W        W 2690  37.934  28.152   2.834
32091W        W 2691  10.424  43.444  11.275
32092W        W 2692  17.212  21.197  10.024
32093W        W 2693  16.279  32.921   4.148
32094W        W 2694  34.850  18.857   2.588
32095W        W 2695  22.580  39.033   0.400
32096W        W 2696  32.464   0.004  10.587
32097W        W 2697  11.121  20.991   1.286
32098W        W 2698  41.593  23.220  10.971
32099W        W 2699  27.732  41.953   1.178
32100W        W 2700  38.229  22.114   1.364
32101W        W 2701   9.583   5.627   2.750
32102W        W 2702  16.627  35.325   2.987
32103W        W 2703   1.933  39.448  11.907
32104W        W 2704  20.667  30.827   2.133
32105W        W 2705  14.605   3.280   2.319
32106W        W 2706  12.344  38.867   2.849
32107W        W 2707  16.789  43.960   0.361
32108W        W 2708  27.917  27.240  12.269
32109W        W 2709  13.700   9.329   4.353
32110W        W 2710  38.459   5.936  11.212
32111W        W 2711  43.995  36.935  12.002
32112W        W 2712  10.157  14.332  12.958
32113W        W 2713  43.446  26.094  13.000
32114W        W 2714  20.051   9.065   4.553
32115W        W 2715   9.674  22.738  11.891
32116W        W 2716  30.712  17.214  10.844
32117W        W 2717  32.996  37.434   0.970
32118W        W 2718  36.653  40.503   0.771
32119W        W 2719  15.094  20.814   0.300
32120W        W 2720  12.790  30.336   2.388
32121W        W 2721  44.810  21.755   3.343
32122W        W 2722   8.799  30.368   0.696
32123W        W 2723  27.113   3.145   1.145
32124W        W 2724   7.846  35.827   2.774
32125W        W 2725  21.626  31.054  11.366
32126W        W 2726  24.507  22.783  14.699
32127W        W 2727  11.655   4.019  13.764
32128W        W 2728   3.833  37.659  13.387
32129W        W 2729  13.054  42.974  11.406
32130W        W 2730  32.551  14.215   4.877
32131W        W 2731  35.533  32.364  14.812
32132W        W 2732  29.955   6.805  12.132
32133W        W 2733  43.380   5.870  14.341
32134W        W 2734  39.846  19.200   3.572
32135W        W 2735  34.893  12.507  10.347
32136W        W 2736   1.428   6.362  10.928
32137W        W 2737  38.473  35.496   3.180
32138W        W 2738  15.079  41.470   3.714
32139W        W 2739  19.142  20.983  11.147
32140W        W 2740   3.673  33.644   0.698
32141W        W 2741  43.694  14.883   3.083
32142W        W 2742  22.218   5.896  13.910
32143W        W 2743  10.092  23.006   2.060
32144W        W 2744  14.931  11.712   5.478
32145W        W 2745  12.279  21.726  11.560
32146W        W 2746  36.023  44.897  14.315
32147W        W 2747   7.210  21.680   1.842
32148W        W 2748  28.147  15.113   1.835
32149W        W 2749  28.751  40.908  12.445
32150W        W 2750  10.574  40.391  10.715
32151W        W 2751   4.323  19.580  14.298
32152W        W 2752  35.195  11.127  13.086
32153W        W 2753  16.902  18.131   3.162
32154W        W 2754  19.685  39.810   4.233
32155W        W 2755   9.324  10.623   4.160
32156W        W 2756  43.902  34.378  11.378
32157W        W 2757  32.555  37.968  13.340
32158W        W 2758  37.847  44.428  10.430
32159W        W 2759   8.869  29.090   3.716
32160W        W 2760  14.756  43.980   3.604
32161W        W 2761  17.013  21.964   1.012
32162W        W 2762  30.471   1.768   1.037
32163W        W 2763  34.438  34.407  11.971
32164W        W 2764  23.252   9.429  14.894
32165W        W 2765  22.976  25.566   0.718
32166W        W 2766   4.613   4.274   1.826
32167W        W 2767  17.731  44.963  10.659
32168W        W 2768   3.473  13.287  14.192
32169W        W 2769  37.916  38.380   3.123
32170W        W 2770  22.512  10.448  12.563
32171W        W 2771  10.921  25.232  12.196
32172W        W 2772  11.164  18.198   4.179
32173W        W 2773  18.255   9.734   1.852
32174W        W 2774   5.130   5.439   2.145
32175W        W 2775  43.898  27.217  13.337
32176W        W 2776  27.257  41.780   1.305
32177W        W 2777  37.011  29.494   3.187
32178W        W 2778  10.471   2.844   2.746
32179W        W 2779   8.912  26.201  11.413
32180W        W 2780   4.923   9.222  11.530
32181W        W 2781  44.385   3.163  14.799
32182W        W 2782  34.019  32.903  13.971
32183W        W 2783   0.045  20.184  12.863
32184W        W 2784  28.219  13.340   0.507
32185W        W 2785  32.576  44.732   4.230
32186W        W 2786  30.402   7.221  11.470
32187W        W 2787  43.327  39.262  11.419
32188W        W 2788  14.333   4.548   3.234
32189W        W 2789  44.197  12.288  14.900
32190W        W 2790  41.546  31.044   4.675
32191W        W 2791  26.592  26.275   1.218
32192W        W 2792  36.506  33.490   4.607
32193W        W 2793  22.423  11.745   1.226
32194W        W 2794  44.761  17.480  12.449
32195W        W 2795  22.759  39.161   0.987
32196W        W 2796   6.376  20.209   4.101
32197W        W 2797  26.727  39.092  12.938
32198W        W 2798   8.805  20.667  10.256
32199W        W 2799  11.312  20.642  12.626
32200W        W 2800  30.150   4.250   2.902
32201W        W 2801  36.943   4.663  13.095
32202W        W 2802  22.623  20.617  11.491
32203W        W 2803  22.655   6.446  11.990
32204W        W 2804   0.965  14.282   3.745
32205W        W 2805  18.801  20.197  14.964
32206W        W 2806  10.240   5.941   3.742
32207W        W 2807  12.892   3.929  12.386
32208W        W 2808  36.495  39.484   4.981
32209W        W 2809  17.211   6.067   0.761
32210W        W 2810  30.446  32.669   3.188
32211W        W 2811  37.541   9.360   0.164
32212W        W 2812   3.216  30.915   4.614
32213W        W 2813  28.272  29.653  10.308
32214W        W 2814   7.217   1.536   2.293
32215W        W 2815   5.305  44.832   2.929
32216W        W 2816  37.224  36.589   4.550
32217W        W 2817  43.448  39.053  10.853
32218W        W 2818  43.070   7.805  14.369
32219W        W 2819  30.975  44.521   3.170
32220W        W 2820   8.793   4.341   0.812
32221W        W 2821  27.112   7.315  13.971
32222W        W 2822  18.701  16.326  11.669
32223W        W 2823   7.180  31.513  13.081
32224W        W 2824  13.945  20.194   2.971
32225W        W 2825  42.326  23.814   2.861
32226W        W 2826  43.049   0.782   4.142
32227W        W 2827  24.696   2.190   2.963
32228W        W 2828  38.952   1.408   1.014
32229W        W 2829  43.209  23.070   2.102
32230W        W 2830  14.607   4.321   2.241
32231W        W 2831   8.606   8.330   3.618
32232W        W 2832  24.298   4.190   4.139
32233W        W 2833  36.937  15.223   2.743
32234W        W 2834   8.496  30.696  11.014
32235W        W 2835  35.984  10.363   3.692
32236W        W 2836   4.367   0.789   1.865
32237W        W 2837  32.877  10.474  10.615
32238W        W 2838   9.194   5.271   2.778
32239W        W 2839  10.818  41.371  14.535
32240W        W 2840  28.234  19.802  14.305
32241W        W 2841  20.373  35.437   2.333
32242W        W 2842  42.089  27.602   3.703
32243W        W 2843  36.030  39.359   1.119
32244W        W 2844  20.160  12.236  13.805
32245W        W 2845  33.069  24.979  14.939
32246W        W 2846   8.897  36.834   2.351
32247W        W 2847  12.084  31.534   1.436
32248W        W 2848   3.003  34.931   0.512
32249W        W 2849   4.660  13.879  14.033
32250W        W 2850  22.602  13.138   1.482
32251W        W 2851  17.604   8.174  14.513
32252W        W 2852  15.211  12.930  14.028
32253W        W 2853  43.098  27.704  11.951
32254W        W 2854  38.786  30.082   3.308
32255W        W 2855   5.814  11.721  10.889
32256W        W 2856  16.346   6.147  13.525
32257W        W 2857   2.251   0.577   4.162
32258W        W 2858  14.814  38.833  12.622
32259W        W 2859  28.740  25.357   3.219
32260W        W 2860   8.192  27.517  12.887
32261W        W 2861  19.059   8.356   4.611
32262W        W 2862  21.630  25.197  13.919
32263W        W 2863  44.369  10.845  12.550
32264W        W 2864   0.822  38.624  10.641
32265W        W 2865  12.854  32.615  14.776
32266W        W 2866  27.806  40.548   3.611
32267W        W 2867  16.499   2.348   2.279
32268W        W 2868   8.729  40.719   2.783
32269W        W 2869  15.661  10.811   3.610
32270W        W 2870  37.424  43.355   0.268
32271W        W 2871  35.895  43.404   4.721
32272W        W 2872  23.153   9.715   3.800
32273W        W 2873  22.480  39.497   3.751
32274W        W 2874  22.070  40.943  12.520
32275W        W 2875  35.557  43.733   2.298
32276W        W 2876   7.601   5.832  14.982
32277W        W 2877  22.814  19.389  10.136
32278W        W 2878  13.323  12.704  14.808
32279W        W 2879   1.094   6.838  14.264
32280W        W 2880   0.897  38.671   2.757
32281W        W 2881   8.276  31.556   4.565
32282W        W 2882  33.534  39.432   3.746
32283W        W 2883  26.942  26.118   0.065
32284W        W 2884  20.613  32.249   0.421
32285W        W 2885  28.424  25.673   3.529
32286W        W 2886  29.085  44.019  13.988
32287W        W 2887  16.002  43.869   1.838
32288W        W 2888  22.196  33.407   3.175
32289W        W 2889  21.273  26.206   3.272
32290W        W 2890   8.824  20.496  13.366
32291W        W 2891  44.532  20.223  13.111
32292W        W 2892  30.483  33.563   3.050
32293W        W 2893   1.707   7.647   4.111
32294W        W 2894   9.758  30.074  12.071
32295W        W 2895  26.922  27.440   3.154
32296W        W 2896  38.999  23.254   1.693
32297W        W 2897  29.056  44.582   0.892
32298W        W 2898  11.923  33.027  10.204
32299W        W 2899   7.778  34.938   3.915
32300W        W 2900  20.044  35.105  10.899
32301W        W 2901  39.410  29.934  11.251
32302W        W 2902  41.352  35.460   3.897
32303W        W 2903  21.747  26.747  11.029
32304W        W 2904  37.361  43.006  12.079
32305W        W 2905  21.173  30.001   3.819
32306W        W 2906  20.579  30.170   2.575
32307W        W 2907  14.390  20.861   4.113
32308W        W 2908  35.046  13.352   4.595
32309W        W 2909   9.425  36.096  14.278
32310W        W 2910  27.043  21.506   2.842
32311W        W 2911  16.205  24.836  12.173
32312W        W 2912   6.250  40.114   2.296
32313W        W 2913  44.440  12.767  12.044
32314W        W 2914   5.442   2.839  14.285
32315W        W 2915  36.023  12.130  10.735
32316W        W 2916   7.397  33.526  11.721
32317W        W 2917   5.666   0.279  12.957
32318W        W 2918  35.978  21.090  11.040
32319W        W 2919  21.133  38.646   1.734
32320W        W 2920  40.960  22.955  14.649
32321W        W 2921  14.216  33.910  10.303
32322W        W 2922  15.300  22.746  10.629
32323W        W 2923  40.461  29.338   3.187
32324W        W 2924  28.615  25.166  12.020
32325W        W 2925  21.921   7.538  12.890
32326W        W 2926   0.363  28.168  11.664
32327W        W 2927  17.318  36.654  10.192
32328W        W 2928   2.812   9.862   2.443
32329W        W 2929   5.309   8.372  10.821
32330W        W 2930  25.920   9.229  13.412
32331W        W 2931  42.771  20.226   3.200
32332W        W 2932   1.322  29.980  11.670
32333W        W 2933  19.000  35.930   1.129
32334W        W 2934  31.968  10.081  10.626
32335W        W 2935   8.656  22.709  13.005
32336W        W 2936  42.832  16.550  11.916
32337W        W 2937   5.443  40.207   3.981
32338W        W 2938   9.916  23.257   0.413
32339W        W 2939  24.669  33.392   1.715
32340W        W 2940  42.021   3.382  13.572
32341W        W 2941  19.394  33.137  10.673
32342W        W 2942  33.959   4.876  11.224
32343W        W 2943  30.548   2.719   2.558
32344W        W 2944  17.141  36.355  11.242
32345W        W 2945  37.072  12.250   2.809
32346W        W 2946  19.832   0.759   0.787
32347W        W 2947  18.428  42.841  12.467
32348W        W 2948  29.985  13.582  12.115
32349W        W 2949  26.533  13.136   0.660
32350W        W 2950  25.212   9.032   1.282
32351W        W 2951  17.875  10.349   3.254
32352W        W 2952  43.475  32.415  14.390
32353W        W 2953  23.760   0.335   0.562
32354W        W 2954   8.708  22.989   3.177
32355W        W 2955  19.034   3.785  14.845
32356W        W 2956   7.369   6.181  11.434
32357W        W 2957  38.690   8.830  11.620
32358W        W 2958   5.351  29.891   0.421
32359W        W 2959  39.220  24.647  10.999
32360W        W 2960   1.586  24.749   4.546
32361W        W 2961  10.519  33.522  12.533
32362W        W 2962   4.806  22.114   1.222
32363W        W 2963  40.140  34.234   2.055
32364W        W 2964  21.499   1.777   1.509
32365W        W 2965   7.986   4.888  10.789
32366W        W 2966  11.849  24.214  10.776
32367W        W 2967  14.537  43.773   2.641
32368W        W 2968  21.464  28.976   1.207
32369W        W 2969  36.993  17.799   0.227
32370W        W 2970  39.459   2.530  11.575
32371W        W 2971   1.911   5.378   4.293
32372W        W 2972  24.144  13.899  12.580
32373W        W 2973  38.270  32.685   0.384
32374W        W 2974  35.931  37.336   0.501
32375W        W 2975  22.023   4.206  10.694
32376W        W 2976  33.828  26.800   1.414
32377W        W 2977  37.914   0.616   0.817
32378W        W 2978  43.154  33.901  12.942
32379W        W 2979  39.220  27.626  12.925
32380W        W 2980  10.422  13.221   1.221
32381W        W 2981   1.111  43.032  13.814
32382W        W 2982   6.671  43.158  11.212
32383W        W 2983  13.916   3.428  13.782
32384W        W 2984  24.178  30.061  14.984
32385W        W 2985  21.298  27.027   1.330
32386W        W 2986  44.770  41.506   4.174
32387W        W 2987   2.041  43.433   3.744
32388W        W 2988  24.573  40.435   1.382
32389W        W 2989  39.378  44.768  12.541
32390W        W 2990  19.336  18.538   1.892
32391W        W 2991  18.100   1.383   1.297
32392W        W 2992   6.094  34.922   1.223
32393W        W 2993  27.120  22.414   3.383
32394W        W 2994  15.043  25.606  13.457
32395W        W 2995   6.158  19.395  12.947
32396W        W 2996   3.530   1.681  14.058
32397W        W 2997   0.739  27.923  12.557
32398W        W 2998   8.871   6.357  11.553
32399W        W 2999  27.176  14.019  14.108
32400W        W 3000  27.543  41.802   0.237
32401W        W 3001  16.119  19.630   3.110
32402W        W 3002   2.315   7.090  12.956
32403W        W 3003   6.724  24.302   2.399
32404W        W 3004  17.569  13.900  12.547
32405W        W 3005   9.700  11.780  12.555
32406W        W 3006  38.476   4.716  10.449
32407W        W 3007  11.232  32.986  14.170
32408W        W 3008   2.955  41.830   1.449
32409W        W 3009  37.336   7.795   4.709
32410W        W 3010   4.672  10.373  12.397
32411W        W 3011   2.256  21.402  13.469
32412W        W 3012  33.828  27.672   3.137
32413W        W 3013  44.472  15.646   1.417
32414W        W 3014   0.633   0.149   1.217
32415W        W 3015  30.927  35.603  13.992
32416W        W 3016  41.485  24.309   3.866
32417W        W 3017  40.909  10.651  11.248
32418W        W 3018  33.847  15.135  12.032
32419W        W 3019  13.450  14.944   1.553
32420W        W 3020  28.233  28.693   0.316
32421W        W 3021  17.569   2.011   2.729
32422W        W 3022  38.843  38.841  10.839
32423W        W 3023  40.919  40.586  14.953
32424W        W 3024  17.776  36.374   1.261
32425W        W 3025  10.041   8.605  12.415
32426W        W 3026  18.838  18.190  10.767
32427W        W 3027   6.544  31.140   1.985
32428W        W 3028  26.532  22.204   1.677
32429W        W 3029  21.527  34.503   0.801
32430W        W 3030  10.783  21.721  10.651
32431W        W 3031   5.697  26.974   3.162
32432W        W 3032  40.445  21.138   2.333
32433W        W 3033  42.789  28.961  14.848
32434W        W 3034  21.266  22.932  12.048
32435W        W 3035   5.921  13.838   4.573
32436W        W 3036  13.145   7.398  11.093
32437W        W 3037  40.982   6.711   4.226
32438W        W 3038  29.029  16.713  10.629
32439W        W 3039  14.221   6.466   4.685
32440W        W 3040  41.980  12.151  11.573
32441W        W 3041  29.471   6.221  11.636
32442W        W 3042  24.871  13.007   4.299
32443W        W 3043  32.039  24.540  11.670
32444W        W 3044  28.056  19.623   0.615
32445W        W 3045  22.552  33.977   0.244
32446W        W 3046   6.336  16.570   0.358
32447W        W 3047  23.421  17.345  11.400
32448W        W 3048  38.242  41.795   4.616
32449W        W 3049  27.119  10.457   3.075
32450W        W 3050   8.220  38.260  14.792
32451W        W 3051  37.527   6.234  12.295
32452W        W 3052   5.846  41.500   3.721
32453W        W 3053  24.662   0.564   9.910
32454W        W 3054   7.716   2.774   3.618
32455W        W 3055  37.902  21.828   3.279
32456W        W 3056  34.347   9.177   0.521
32457W        W 3057  41.472  10.445  12.517
32458W        W 3058   4.280  23.950   0.759
32459W        W 3059  15.414   0.313   0.502
32460W        W 3060   8.194  15.717  13.241
32461W        W 3061   3.421  31.957   2.361
32462W        W 3062  34.381   4.266  14.884
32463W        W 3063   8.294  24.587  10.486
32464W        W 3064  25.879  17.014  11.967
32465W        W 3065  32.929  13.636   4.088
32466W        W 3066  14.706   1.113   5.375
32467W        W 3067   0.325  21.702   0.076
32468W        W 3068   9.570  30.698   2.308
32469W        W 3069   8.678  23.646   0.905
32470W        W 3070  24.238  21.746   0.557
32471W        W 3071   3.857  14.529   3.434
32472W        W 3072   0.926  37.713  13.918
32473W        W 3073  16.256  22.249   0.004
32474W        W 3074  11.789  36.346   0.321
32475W        W 3075  36.504  28.408  10.944
32476W        W 3076  25.447  25.160  11.565
32477W        W 3077  44.725   0.107  10.479
32478W        W 3078  36.374  35.310   2.387
32479W        W 3079   6.716  10.740   0.528
32480W        W 3080   5.824  42.682  10.008
32481W        W 3081  43.053  11.291  11.491
32482W        W 3082  26.587  31.952   0.903
32483W        W 3083  12.249  30.974  11.577
32484W        W 3084   6.944  20.108  14.859
32485W        W 3085  31.569  18.508  11.658
32486W        W 3086  19.571  31.573   3.780
32487W        W 3087   7.413  21.273   0.060
32488W        W 3088  33.465  38.933  14.691
32489W        W 3089   9.890  34.212   1.068
32490W        W 3090   7.937   9.439  13.037
32491W        W 3091  41.312  18.285  11.470
32492W        W 3092  28.424  32.170  10.356
32493W        W 3093   7.412   5.651   1.362
32494W        W 3094  35.617  44.484   0.931
32495W        W 3095  23.930  13.004   4.292
32496W        W 3096   3.148  21.159   4.488
32497W        W 3097  14.122  32.939  12.708
32498W        W 3098   9.706   0.588   1.277
32499W        W 3099  43.465  29.684  14.998
32500W        W 3100  38.843  15.596   9.827
32501W        W 3101  30.933  16.572   1.690
32502W        W 3102   2.802   5.820   2.704
32503W        W 3103   9.502   6.891   1.456
32504W        W 3104  42.332   2.844   1.156
32505W        W 3105   2.545   2.025  14.010
32506W        W 3106   7.077   7.718   3.392
32507W        W 3107   6.585  24.743   5.009
32508W        W 3108  18.975  41.427   4.077
32509W        W 3109  18.777  12.238   2.680
32510W        W 3110  11.872  20.123   0.870
32511W        W 3111  20.149  35.850   1.162
32512W        W 3112  39.399   8.956  12.507
32513W        W 3113  40.578  11.343  14.863
32514W        W 3114  35.000  27.453   0.825
32515W        W 3115  36.096  20.085  14.034
32516W        W 3116   3.379  24.754   4.044
32517W        W 3117  38.846  30.551  14.491
32518W        W 3118   1.909  16.306   2.597
32519W        W 3119  13.477  26.018  13.146
32520W        W 3120  18.694  27.300   4.787
32521W        W 3121  30.727  35.839   3.724
32522W        W 3122   6.271  39.791  12.441
32523W        W 3123  27.643  17.800  14.057
32524W        W 3124  31.826  21.683   2.919
32525W        W 3125  20.837  38.561  12.109
32526W        W 3126  10.603  22.529   3.212
32527W        W 3127   6.425  34.882   3.813
32528W        W 3128  33.998   7.580   4.044
32529W        W 3129  35.980  20.906   2.837
32530W        W 3130  27.067   7.368  14.955
32531W        W 3131  12.452  22.031   3.286
32532W        W 3132  36.777  19.519  12.523
32533W        W 3133  27.815   5.215  10.391
32534W        W 3134   6.859   7.142   1.887
32535W        W 3135  29.538  42.777  13.801
32536W        W 3136   0.848   0.043  10.570
32537W        W 3137  40.090  36.961   3.750
32538W        W 3138  10.107  20.103   3.684
32539W        W 3139  33.135  23.154  14.796
32540W        W 3140  36.327  31.810   4.020
32541W        W 3141  14.316  13.239  12.315
32542W        W 3142   4.299  19.750  10.426
32543W        W 3143  28.217  16.818  12.774
32544W        W 3144  43.741  38.629   4.092
32545W        W 3145  41.731  26.663  11.156
32546W        W 3146  38.894  33.953  10.885
32547W        W 3147  43.833  10.433   0.469
32548W        W 3148  15.644  34.029  13.143
32549W        W 3149  28.898   5.037   2.258
32550W        W 3150  28.092  24.298   2.325
32551W        W 3151  15.834  31.125   3.211
32552W        W 3152  22.966   5.365  12.856
32553W        W 3153   3.723  39.854  11.882
32554W        W 3154  28.636  34.559  14.447
32555W        W 3155  19.040   2.161  13.393
32556W        W 3156   7.475  14.683   4.229
32557W        W 3157  36.820  24.612   4.479
32558W        W 3158   4.618  44.379   4.119
32559W        W 3159  24.098  22.540  14.461
32560W        W 3160   7.465  24.979   4.810
32561W        W 3161  39.716  28.644  13.547
32562W        W 3162  28.193  27.654  12.417
32563W        W 3163  28.645   7.120  12.171
32564W        W 3164   0.113  13.726  13.358
32565W        W 3165  40.433  28.962   0.333
32566W        W 3166   2.187  12.742  12.614
32567W        W 3167  35.307  22.596  14.923
32568W        W 3168  35.054  29.046   0.873
32569W        W 3169  34.702  20.227   3.113
32570W        W 3170  37.079  44.843  13.053
32571W        W 3171   4.563  28.691   5.043
32572W        W 3172  42.344  36.848  11.455
32573W        W 3173  13.144   5.730   3.911
32574W        W 3174  16.025  15.621   5.003
32575W        W 3175  28.627  19.623   3.607
32576W        W 3176  11.768  36.997  11.603
32577W        W 3177  20.292  36.506  14.532
32578W        W 3178   0.171  28.225  11.202
32579W        W 3179  11.627   0.101   2.121
32580W        W 3180  11.531  35.925  10.413
32581W        W 3181   5.203  32.181   2.783
32582W        W 3182  26.575  37.409  10.681
32583W        W 3183  11.177  17.653  13.316
32584W        W 3184   8.755  22.546  14.503
32585W        W 3185  23.936  38.751  12.257
32586W        W 3186  15.251   8.059  11.684
32587W        W 3187  26.381  27.352  12.088
32588W        W 3188  39.485   1.019  10.707
32589W        W 3189  11.821  44.340  14.287
32590W        W 3190   2.322  11.744   3.800
32591W        W 3191  32.587  27.676  10.492
32592W        W 3192  40.265   5.257   1.031
32593W        W 3193  35.542  20.521  13.533
32594W        W 3194  36.524  26.558  10.797
32595W        W 3195   0.783  40.886  12.807
32596W        W 3196  41.210   6.323   3.028
32597W        W 3197  23.713   9.209  14.911
32598W        W 3198  32.262  16.695  12.454
32599W        W 3199  36.848  40.522  10.803
32600W        W 3200  19.190  44.894   2.829
32601W        W 3201  12.323   7.177  12.376
32602W        W 3202  32.099  24.628   0.443
32603W        W 3203   5.498  37.125  11.913
32604W        W 3204   4.106  10.983  11.075
32605W        W 3205  13.765  18.442  13.489
32606W        W 3206   1.328  44.917  14.742
32607W        W 3207  22.977  43.726   1.019
32608W        W 3208   6.690   0.887   0.721
32609W        W 3209   3.319  22.256  13.970
32610W        W 3210   7.356  30.662   0.410
32611W        W 3211  18.742  22.024  11.981
32612W        W 3212  21.875  37.021   4.976
32613W        W 3213  21.880  19.657   4.538
32614W        W 3214  26.024  37.129   2.115
32615W        W 3215  19.458  34.430   0.825
32616W        W 3216   3.761  23.446  14.416
32617W        W 3217  15.596  40.104  14.903
32618W        W 3218  16.850  22.408  13.227
32619W        W 3219  38.041   8.384  10.675
32620W        W 3220   4.724  41.451   0.295
32621W        W 3221  29.442   6.752  12.883
32622W        W 3222  38.956  10.349   4.989
32623W        W 3223  37.379  39.950  13.857
32624W        W 3224  10.197  39.796  12.511
32625W        W 3225  13.785   4.738  13.451
32626W        W 3226  31.529  40.655  14.328
32627W        W 3227  39.295  33.846  12.879
32628W        W 3228   9.868  14.610   3.644
32629W        W 3229  12.620  14.817   3.572
32630W        W 3230  28.919   9.683  11.128
32631W        W 3231  13.913  27.910   0.787
32632W        W 3232  24.883  16.129   3.355
32633W        W 3233  21.524  11.769   4.875
32634W        W 3234  21.523   7.302  13.834
32635W        W 3235  25.057   1.010   1.675
32636W        W 3236  26.056  44.824   3.307
32637W        W 3237  37.144  26.416  11.899
32638W        W 3238  12.363   7.166   3.265
32639W        W 3239  42.470  44.724   4.327
32640W        W 3240  19.080  33.028   0.970
32641W        W 3241  24.459   7.378   3.857
32642W        W 3242  27.203  30.194  13.387
32643W        W 3243  26.494  32.679  12.392
32644W        W 3244  15.602  35.337   0.041
32645W        W 3245  18.065  41.388  13.837
32646W        W 3246   3.802   2.652   4.719
32647W        W 3247   9.040  42.030  11.135
32648W        W 3248  42.403  39.502   0.058
32649W        W 3249  21.471  36.014  11.201
32650W        W 3250   9.228  15.963  10.693
32651W        W 3251   6.165  37.607  13.376
32652W        W 3252   8.152   3.390   0.275
32653W        W 3253  28.125  31.072  13.935
32654W        W 3254  26.562  44.896   3.244
32655W        W 3255  21.593  34.055   4.104
32656W        W 3256   2.263  11.270   0.255
32657W        W 3257  18.539   1.966   0.204
32658W        W 3258  37.754  30.406   0.393
32659W        W 3259  42.572  36.847  13.357
32660W        W 3260  41.584  28.964  14.490
32661W        W 3261  41.801  15.915  12.387
32662W        W 3262  14.752  40.226  10.748
32663W        W 3263  16.563   4.418   3.665
32664W        W 3264  27.245  30.906  13.357
32665W        W 3265  35.944  42.680   2.927
32666W        W 3266   9.441  40.358  12.467
32667W        W 3267  20.037  10.730   4.590
32668W        W 3268  15.889   1.232  12.844
32669W        W 3269  32.275  12.344   4.222
32670W        W 3270   6.699  39.538   3.721
32671W        W 3271  29.051   5.108   2.750
32672W        W 3272   9.331   9.906  10.589
32673W        W 3273  27.547   6.220  12.870
32674W        W 3274  41.239  26.594   3.783
32675W        W 3275  24.786  32.013  14.187
32676W        W 3276  26.048  21.681   0.846
32677W        W 3277  24.155  29.392  13.493
32678W        W 3278  26.219  41.959  11.040
32679W        W 3279  15.300  30.504  14.849
32680W        W 3280  20.167  27.958   0.481
32681W        W 3281   0.988  15.699   0.428
32682W        W 3282  24.024  10.698  12.891
32683W        W 3283   5.922  37.870   1.336
32684W        W 3284   6.935  39.745  11.138
32685W        W 3285  36.146   5.893  10.516
32686W        W 3286  13.826  10.102  12.876
32687W        W 3287   4.489  28.467   4.179
32688W        W 3288   8.485  35.469   4.625
32689W        W 3289  41.093  35.500  11.137
32690W        W 3290   2.389  29.366   2.644
32691W        W 3291  39.820  44.927   4.113
32692W        W 3292  15.771  37.687   1.037
32693W        W 3293   7.082  21.743  14.211
32694W        W 3294   4.727  33.797   3.260
32695W        W 3295  36.281  10.677  10.654
32696W        W 3296  30.032  28.650  12.086
32697W        W 3297  27.815  33.004   2.310
32698W        W 3298  11.208  39.959  11.418
32699W        W 3299  14.605  12.983  11.978
32700W        W 3300  28.231  12.683  14.352
32701W        W 3301  31.079  27.062  14.435
32702W        W 3302  37.016  42.723   4.654
32703W        W 3303  34.863  19.219  12.504
32704W        W 3304   5.509  24.769   2.675
32705W        W 3305  15.851  25.143  11.451
32706W        W 3306   0.259  40.796   1.989
32707W        W 3307  40.838  22.619   0.962
32708W        W 3308  15.048   4.645  12.225
32709W        W 3309  23.410  19.673   0.807
32710W        W 3310  34.984  17.803   1.101
32711W        W 3311   1.398   4.861  13.086
32712W        W 3312  42.518  13.659   1.895
32713W        W 3313   4.916  13.228  12.921
32714W        W 3314  16.692  15.663  13.448
32715W        W 3315  37.639  27.375   0.796
32716W        W 3316  24.069  13.509   1.166
32717W        W 3317  28.259   2.942   4.005
32718W        W 3318  39.782  11.157   3.308
32719W        W 3319  28.997  13.661  10.865
32720W        W 3320  36.354  12.536  13.317
32721W        W 3321   2.796  26.554   0.790
32722W        W 3322  43.729   6.313   4.162
32723W        W 3323  12.283  34.430  11.214
32724W        W 3324  34.669  43.115  12.953
32725W        W 3325  12.224  11.590   4.352
32726W        W 3326  36.574   6.440   2.732
32727W        W 3327  30.410  20.509   4.325
32728W        W 3328   7.971   2.036   0.540
32729W        W 3329  40.884  19.594  11.605
32730W        W 3330  12.662   9.288   2.916
32731W        W 3331  19.612  24.103  12.552
32732W        W 3332   7.182   9.075  14.698
32733W        W 3333   3.779  13.391   0.132
32734W        W 3334  43.973   0.411  11.517
32735W        W 3335  38.533   6.830  14.990
32736W        W 3336  31.037  18.213  10.732
32737W        W 3337  12.639   8.392  14.905
32738W        W 3338  34.700  22.583  11.145
32739W        W 3339  41.901  42.416   0.832
32740W        W 3340  37.981  20.207   1.799
32741W        W 3341  16.761  41.060   0.758
32742W        W 3342  29.244  11.882  11.171
32743W        W 3343  25.953  10.802   1.468
32744W        W 3344  12.141   0.225  11.924
32745W        W 3345  21.159  40.453   5.108
32746W        W 3346   7.114   0.053  13.369
32747W        W 3347   7.868  34.256  13.974
32748W        W 3348  31.092  13.447   3.401
32749W        W 3349   3.418  11.329   3.299
32750W        W 3350   7.090   2.434  11.649
32751W        W 3351  15.652  15.637   1.374
32752W        W 3352  15.303  32.507   4.125
32753W        W 3353   1.369  23.235   0.974
32754W        W 3354  25.879   6.600  12.347
32755W        W 3355  44.520  25.241   0.445
32756W        W 3356   4.437  39.996   3.283
32757W        W 3357   9.196  18.484   1.610
32758W        W 3358  44.592  26.257  11.986
32759W        W 3359  17.511  31.653  11.982
32760W        W 3360  12.810  24.024  13.498
32761W        W 3361   4.419   9.709   0.750
32762W        W 3362  29.669  42.019   4.461
32763W        W 3363  32.109  10.688   4.860
32764W        W 3364  33.119   4.573  10.687
32765W        W 3365  26.780  44.083   0.002
32766W        W 3366   4.298  20.251   2.863
32767W        W 3367  41.965  12.653   1.216
32768W        W 3368  27.667  11.598  13.817
32769W        W 3369  12.070   9.802  11.558
32770W        W 3370  15.245  37.497  14.449
32771W        W 3371   9.189   2.323   2.083
32772W        W 3372  41.502  21.987  12.540
32773W        W 3373   5.896   1.186   0.180
32774W        W 3374  41.394  32.550  11.996
32775W        W 3375  31.485  13.872  13.923
32776W        W 3376   1.011   6.782  12.028
32777W        W 3377   3.953   0.808   1.261
32778W        W 3378   9.839  19.566  11.412
32779W        W 3379  23.673  24.723  14.699
32780W        W 3380   4.371  22.341   1.981
32781W        W 3381  29.078  36.088  14.347
32782W        W 3382  16.709  40.751  12.959
32783W        W 3383  17.269  39.977  13.003
32784W        W 3384  18.097  13.866   0.546
32785W        W 3385  34.274   7.286   0.957
32786W        W 3386   3.770   9.188  10.996
32787W        W 3387  19.004  30.386  14.825
32788W        W 3388   7.200  12.032  11.892
32789W        W 3389  22.655   2.730  14.394
32790W        W 3390  20.570  32.590   3.790
32791W        W 3391  14.198  43.043   1.767
32792W        W 3392   5.224  39.778  13.885
32793W        W 3393  21.332   5.927  13.393
32794W        W 3394  27.586   1.712  13.552
32795W        W 3395  39.846  28.984  13.973
32796W        W 3396   8.987  30.583  10.713
32797W        W 3397  20.155  10.858  11.709
32798W        W 3398  31.485  17.083   1.370
32799W        W 3399  21.579  23.818   0.927
32800W        W 3400  32.972  28.291  11.096
32801W        W 3401  13.614  32.569   1.322
32802W        W 3402  12.084  26.006  12.778
32803W        W 3403  18.274  35.586  12.892
32804W        W 3404  16.681  28.198   2.931
32805W        W 3405  22.739  26.161  12.071
32806W        W 3406  22.719  20.997   4.100
32807W        W 3407  42.016  16.784  11.206
32808W        W 3408  30.997  22.488   4.861
32809W        W 3409  11.722  35.403  13.135
32810W        W 3410   2.674  21.452   1.304
32811W        W 3411   6.481  26.000   3.952
32812W        W 3412   3.790  10.758   3.664
32813W        W 3413  18.509   8.946   9.898
32814W        W 3414  38.017   8.399   2.663
32815W        W 3415  33.905  16.658  13.690
32816W        W 3416  39.951  44.770   1.887
32817W        W 3417   5.722  23.038  11.513
32818W        W 3418  25.998  40.913  11.516
32819W        W 3419   2.984  17.395  14.273
32820W        W 3420   0.453  27.436  10.934
32821W        W 3421  25.615  26.573   3.884
32822W        W 3422  34.638   4.395   3.311
32823W        W 3423  23.959  29.457   3.240
32824W        W 3424   5.351   8.841   2.814
32825W        W 3425  19.997   2.247  13.565
32826W        W 3426  14.136  36.603   2.620
32827W        W 3427  42.321  11.036   0.497
32828W        W 3428  11.675  43.763   0.826
32829W        W 3429  41.950   8.623  14.327
32830W        W 3430   6.096  31.940  10.304
32831W        W 3431  33.455   8.821   1.929
32832W        W 3432   9.394  14.230  13.987
32833W        W 3433  26.074  38.526  11.746
32834W        W 3434  31.997  30.443  13.130
32835W        W 3435  28.851  26.109   2.242
32836W        W 3436  39.369  38.028  10.556
32837W        W 3437  19.322  11.018  11.588
32838W        W 3438  32.862  42.888   2.293
32839W        W 3439  13.878  32.076   0.024
32840W        W 3440  40.506  27.667  10.436
32841W        W 3441  18.410  28.030  11.082
32842W        W 3442  43.473  17.697   0.822
32843W        W 3443  35.761  26.560   3.616
32844W        W 3444   0.507  26.879   4.141
32845W        W 3445   1.319   2.474  10.646
32846W        W 3446  15.852  29.056  10.319
32847W        W 3447  21.211  32.155   1.202
32848W        W 3448  41.784   4.949  11.392
32849W        W 3449   7.217   8.492  12.378
32850W        W 3450   7.147  30.902  14.273
32851W        W 3451  18.793  26.677  10.417
32852W        W 3452  29.198  11.833   2.751
32853W        W 3453  41.916  38.081  11.846
32854W        W 3454  26.393  38.036  11.442
32855W        W 3455  40.049  27.981   0.885
32856W        W 3456  37.347  32.731   3.606
32857W        W 3457  44.275  40.638  14.737
32858W        W 3458  40.454  33.959   2.320
32859W        W 3459  42.328  16.822   3.335
32860W        W 3460   1.004  38.417  11.980
32861W        W 3461  43.320  26.232   3.765
32862W        W 3462  30.046  16.496  12.333
32863W        W 3463  38.375  33.081   2.805
32864W        W 3464   9.175  26.952   4.182
32865W        W 3465  36.867  43.177  13.257
32866W        W 3466   8.371  11.279  11.137
32867W        W 3467  37.084  34.140   1.697
32868W        W 3468  23.964   4.417   0.886
32869W        W 3469  14.106  23.106   4.581
32870W        W 3470  22.000   4.349   4.593
32871W        W 3471   8.649  32.751  11.110
32872W        W 3472  19.369  21.210   1.232
32873W        W 3473  41.075   4.826  13.030
32874W        W 3474  21.402  20.341   3.698
32875W        W 3475  16.692  20.013   1.687
32876W        W 3476  30.960  35.152  12.065
32877W        W 3477  12.791  14.290  14.815
32878W        W 3478  26.458  18.581  13.995
32879W        W 3479   4.744   3.930   0.015
32880W        W 3480   4.212  43.042  11.041
32881W        W 3481  29.809   4.043   0.310
32882W        W 3482  21.979   6.198  10.689
32883W        W 3483  21.292  38.704  10.666
32884W        W 3484  24.592  25.564   1.261
32885W        W 3485   4.280   9.696   0.220
32886W        W 3486   1.079  31.925  11.173
32887W        W 3487  10.138  39.637  14.395
32888W        W 3488   1.935  25.616   1.727
32889W        W 3489   0.840  28.436   2.755
32890W        W 3490  18.602  43.249  10.657
32891W        W 3491  43.574  12.338   3.753
32892W        W 3492  16.188  30.011  12.549
32893W        W 3493   2.202   9.116  12.221
32894W        W 3494   3.695  41.102   1.420
32895W        W 3495   6.840  12.818  11.622
32896W        W 3496  35.222  34.935   4.997
32897W        W 3497  24.460   0.958   2.729
32898W        W 3498   0.290  24.080   3.404
32899W        W 3499  26.049  43.349  13.120
32900W        W 3500  42.043   6.712  14.947
32901W        W 3501  13.561  23.021  13.099
32902W        W 3502   7.369  33.576   2.800
32903W        W 3503  42.361  27.715  13.537
32904W        W 3504  24.518   2.288  10.871
32905W        W 3505  22.538   4.302   2.197
32906W        W 3506  19.344  35.086  11.437
32907W        W 3507  20.648  25.936   2.340
32908W        W 3508  14.322  22.640  13.000
32909W        W 3509  28.462  15.478   0.761
32910W        W 3510   9.192  25.210   3.125
32911W        W 3511   9.262   0.670  13.863
32912W        W 3512  25.362   4.056   0.907
32913W        W 3513   5.979  43.849  13.475
32914W        W 3514  35.434  30.319   2.204
32915W        W 3515  32.659  37.329   5.036
32916W        W 3516   7.769  21.574  14.798
32917W        W 3517  11.836  31.986   1.314
32918W        W 3518   3.761  36.613   5.132
32919W        W 3519  17.063  13.121   3.286
32920W        W 3520  44.039  13.811  12.498
32921W        W 3521  25.434  44.234   2.382
32922W        W 3522  35.460  22.167  13.600
32923W        W 3523  27.210   7.938   2.727
32924W        W 3524  41.248  11.960   4.626
32925W        W 3525  29.140  41.006   0.242
32926W        W 3526  20.711   0.933   0.695
32927W        W 3527  17.788  17.336   0.065
32928W        W 3528  25.718   0.320   2.663
32929W        W 3529   0.877  40.624  10.418
32930W        W 3530  21.700  28.567   4.385
32931W        W 3531  23.417  13.146  13.462
32932W        W 3532  33.899   5.723   3.109
32933W        W 3533  28.930  20.130   4.264
32934W        W 3534  17.438   7.100  11.583
32935W        W 3535  13.183   9.708   1.081
32936W        W 3536   2.969  27.561   1.221
32937W        W 3537  19.706  26.931  13.460
32938W        W 3538   2.713  34.606   0.832
32939W        W 3539   0.806  35.324  12.469
32940W        W 3540  37.640  10.717   3.310
32941W        W 3541  39.542  41.386   3.915
32942W        W 3542  23.248  40.065   1.293
32943W        W 3543  34.686   4.423   2.796
32944W        W 3544  12.148   1.299  11.754
32945W        W 3545   2.842  36.534   1.019
32946W        W 3546  11.633  25.788  11.019
32947W        W 3547  34.576  12.630  12.869
32948W        W 3548  40.311  16.641   2.323
32949W        W 3549  41.819  20.278  12.075
32950W        W 3550  11.672  10.913   0.318
32951W        W 3551  40.874  12.651   3.289
32952W        W 3552  32.101  40.940  11.518
32953W        W 3553  35.379  14.304   2.589
32954W        W 3554  14.712  18.334   1.485
32955W        W 3555  28.198  18.327   1.204
32956W        W 3556  22.359  32.406   2.539
32957W        W 3557  17.746  24.243  12.470
32958W        W 3558  30.950   0.822   4.703
32959W        W 3559  15.589  35.554  12.551
32960W        W 3560  14.042  28.024  12.624
32961W        W 3561  23.559  22.665   1.160
32962W        W 3562   1.326  22.105   2.711
32963W        W 3563  10.273  37.915   3.610
32964W        W 3564   4.979  22.867  14.442
32965W        W 3565  23.439  11.756   1.275
32966W        W 3566  39.013  35.054  10.788
32967W        W 3567  21.005  43.000  14.428
32968W        W 3568  33.033  42.283   4.125
32969W        W 3569  33.467  27.582   0.777
32970W        W 3570   4.862  34.834   0.223
32971W        W 3571  41.100  32.532  14.272
32972W        W 3572   4.748  26.042  14.100
32973W        W 3573  18.613  13.601  12.563
32974W        W 3574  29.108   3.235   4.472
32975W        W 3575  27.897   2.365  10.222
32976W        W 3576  25.147  22.126   0.244
32977W        W 3577  37.824  15.592   3.125
32978W        W 3578  33.537  23.069   2.730
32979W        W 3579  40.366   4.339   2.844
32980W        W 3580  37.645  19.095   4.917
32981W        W 3581  21.428  41.846   1.289
32982W        W 3582   9.344  38.115  14.417
32983W        W 3583  12.244  31.373  13.086
32984W        W 3584  34.883  26.128   3.118
32985W        W 3585   9.299   5.093   3.286
32986W        W 3586  20.174   5.715   0.615
32987W        W 3587  32.246  37.675  11.130
32988W        W 3588  27.572  23.460  12.040
32989W        W 3589  39.090  21.162  11.182
32990W        W 3590  32.606  18.123   0.940
32991W        W 3591  11.864   1.168   3.725
32992W        W 3592  36.939  22.714  11.380
32993W        W 3593   1.999   9.848  11.646
32994W        W 3594   7.714  22.628   3.626
32995W        W 3595  29.393  11.311   3.105
32996W        W 3596  18.037  38.760   3.717
32997W        W 3597  29.936   3.569   3.381
32998W        W 3598   7.892  28.051  13.805
32999W        W 3599  22.702  17.473  10.274
33000W        W 3600  26.558   0.005  14.958
33001W        W 3601  39.815  28.664   3.075
33002W        W 3602   7.685   9.872  12.875
33003W        W 3603  30.411  34.496   0.954
33004W        W 3604  28.037  25.261   5.084
33005W        W 3605  20.312   2.356   1.478
33006W        W 3606  29.371  27.683   1.014
33007W        W 3607  17.311  42.349  12.284
33008W        W 3608  36.962  10.286   0.901
33009W        W 3609  21.391  32.930   4.187
33010W        W 3610   8.764  24.475  10.824
33011W        W 3611  27.353  31.413  11.587
33012W        W 3612  34.631  11.880  12.413
33013W        W 3613   3.508  43.376   4.643
33014W        W 3614   6.162  16.795  11.970
33015W        W 3615  26.919  27.682  10.399
33016W        W 3616  13.773   2.181   4.737
33017W        W 3617  40.081   8.489  10.550
33018W        W 3618   0.445  42.298  11.977
33019W        W 3619   8.366  17.511  14.012
33020W        W 3620  24.422  43.963   2.390
33021W        W 3621  41.958  27.443  14.309
33022W        W 3622  12.272  37.184  14.012
33023W        W 3623  24.687  19.160   2.618
33024W        W 3624  16.843  10.693  14.410
33025W        W 3625  12.880   0.840  14.682
33026W        W 3626   0.020  33.326  14.328
33027W        W 3627  15.225  23.516   4.622
33028W        W 3628  34.037  23.291   2.782
33029W        W 3629  20.704  32.687  11.629
33030W        W 3630  15.695  39.821   2.115
33031W        W 3631  17.029  11.316  10.718
33032W        W 3632  33.607   0.804   2.405
33033W        W 3633  39.382  33.888   2.399
33034W        W 3634  17.638  10.905  13.442
33035W        W 3635  21.951  35.948  12.855
33036W        W 3636  11.257   3.688  10.750
33037W        W 3637  38.357  33.096   0.925
33038W        W 3638  21.961   9.646  13.133
33039W        W 3639   3.485  37.029   4.859
33040W        W 3640  11.386  25.252  11.988
33041W        W 3641  15.536  19.662  11.888
33042W        W 3642   5.850  29.759  13.654
33043W        W 3643  38.588  33.584   4.099
33044W        W 3644  11.387   6.316   3.691
33045W        W 3645  25.343   7.857  14.888
33046W        W 3646  23.274   9.784  13.500
33047W        W 3647  32.857  34.289   1.833
33048W        W 3648  21.534   7.414  12.551
33049W        W 3649  44.510  41.887   1.473
33050W        W 3650  26.457  20.749   0.597
33051W        W 3651  18.449  32.552  13.470
33052W        W 3652  22.223  15.684   3.186
33053W        W 3653  24.055  10.656   0.298
33054W        W 3654  10.545  29.108  12.415
33055W        W 3655  35.340  35.442   4.059
33056W        W 3656  30.670  27.672  10.540
33057W        W 3657  23.407  40.623  12.143
33058W        W 3658  14.797  44.923   2.589
33059W        W 3659  24.970  37.942  14.023
33060W        W 3660  41.309  20.762  11.079
33061W        W 3661  17.640  29.641   1.174
33062W        W 3662  41.098  32.172   3.414
33063W        W 3663  39.612   8.529  10.773
33064W        W 3664  14.131  41.804   2.058
33065W        W 3665   9.093  15.092   2.633
33066W        W 3666  18.574  19.297  10.634
33067W        W 3667   7.454  17.541   3.618
33068W        W 3668  21.764  35.365   0.239
33069W        W 3669  28.194   5.324  11.678
33070W        W 3670  38.842  23.718  11.187
33071W        W 3671  40.022  25.220  12.520
33072W        W 3672  42.313  31.377   1.867
33073W        W 3673  34.018  41.907   2.381
33074W        W 3674  32.409  42.902   4.455
33075W        W 3675  19.771   0.265   0.657
33076W        W 3676  10.823  40.985   3.872
33077W        W 3677  12.731   4.165   2.929
33078W        W 3678  27.517  30.202   2.849
33079W        W 3679  11.130  32.951  12.324
33080W        W 3680  42.922  24.906  14.552
33081W        W 3681  28.043  21.789   0.251
33082W        W 3682   3.500  18.752   0.186
33083W        W 3683  40.426  16.871  13.960
33084W        W 3684  30.012  24.467  14.259
33085W        W 3685  37.932  23.998   4.544
33086W        W 3686  41.456   5.822  12.027
33087W        W 3687   6.272  35.562   4.034
33088W        W 3688  19.143  13.194  13.361
33089W        W 3689  38.277   5.116  13.301
33090W        W 3690  28.217  26.933  11.959
33091W        W 3691   9.319  39.598   4.423
33092W        W 3692  28.658  42.378   0.838
33093W        W 3693  39.035  29.776  13.507
33094W        W 3694  44.488   2.109   3.124
33095W        W 3695  35.873   6.414   5.020
33096W        W 3696  12.430  31.124   1.279
33097W        W 3697  36.368  22.426   5.172
33098W        W 3698  17.723  19.833   0.305
33099W        W 3699  35.026  14.248   4.058
33100W        W 3700  11.728  26.868  14.932
33101W        W 3701   3.443  43.927   0.442
33102W        W 3702   7.322   7.174   2.741
33103W        W 3703  39.480  26.774   2.824
33104W        W 3704   1.512  12.240  11.239
33105W        W 3705  10.621  32.139   0.876
33106W        W 3706  35.107  14.700   4.317
33107W        W 3707   3.972   9.046   4.573
33108W        W 3708  35.380  29.065  14.000
33109W        W 3709   5.875  22.300   0.993
33110W        W 3710  23.569  29.889  12.089
33111W        W 3711  10.075   6.902   2.810
33112W        W 3712  42.893   4.639  12.176
33113W        W 3713  32.506  42.113  10.637
33114W        W 3714  34.972   2.038  10.609
33115W        W 3715  42.476  28.514  13.948
33116W        W 3716  25.538  12.716  12.821
33117W        W 3717  28.723  12.806   2.744
33118W        W 3718  10.925  29.995   1.297
33119W        W 3719  33.805  29.482   1.070
33120W        W 3720  32.384  28.186   1.561
33121W        W 3721  21.046  29.254   5.157
33122W        W 3722  36.461  37.439  10.726
33123W        W 3723  32.606  26.041  11.656
33124W        W 3724   0.513  27.520   3.221
33125W        W 3725  24.655   7.257   1.416
33126W        W 3726  32.927  16.325   2.311
33127W        W 3727  19.058  44.059   2.716
33128W        W 3728  28.003  43.443   2.638
33129W        W 3729  34.408   6.734   1.513
33130W        W 3730  37.580  41.996  14.503
33131W        W 3731  19.240  36.880  12.140
33132W        W 3732  28.078   3.294   1.286
33133W        W 3733   2.359  17.537  14.764
33134W        W 3734  40.427   8.589   1.223
33135W        W 3735   1.890  15.306  10.916
33136W        W 3736  12.403   5.292   3.558
33137W        W 3737   5.196  39.371  10.748
33138W        W 3738  20.478  13.190   1.917
33139W        W 3739  26.358  28.901   3.183
33140W        W 3740   6.415  15.287   0.429
33141W        W 3741  41.525  20.716  11.943
33142W        W 3742  32.135   8.163  12.061
33143W        W 3743  31.856   6.409   3.274
33144W        W 3744  39.772  43.566  11.406
33145W        W 3745  23.993   1.884  13.242
33146W        W 3746   5.973  15.963   2.866
33147W        W 3747  29.449  32.544   2.826
33148W        W 3748  22.225  26.196   3.452
33149W        W 3749  38.027  15.322  11.679
33150W        W 3750  36.025  32.056  10.713
33151W        W 3751  15.553   5.114   0.437
33152W        W 3752  28.702  33.542   0.270
33153W        W 3753  28.235  37.383  11.650
33154W        W 3754  12.142  41.340  11.524
33155W        W 3755  18.359  40.949   2.717
33156W        W 3756  40.795  21.043  13.858
33157W        W 3757  26.923  18.876  14.955
33158W        W 3758  37.754  41.911   1.856
33159W        W 3759  38.390  15.305  12.912
33160W        W 3760  16.106  34.892   0.220
33161W        W 3761   7.942  29.124  11.967
33162W        W 3762  42.276  27.111  12.492
33163W        W 3763  30.427  43.855  14.387
33164W        W 3764  27.505  13.617  11.381
33165W        W 3765   0.204  15.083   3.220
33166W        W 3766  28.404  17.524   1.631
33167W        W 3767   1.786  15.416  10.412
33168W        W 3768  19.275  20.099   0.855
33169W        W 3769  13.765   1.126  10.581
33170W        W 3770  33.933  23.384  11.112
33171W        W 3771  32.425  29.456   1.895
33172W        W 3772  31.581  42.029  13.434
33173W        W 3773  30.097  30.577  11.072
33174W        W 3774  23.716  35.540  11.969
33175W        W 3775   8.569  15.682  11.157
33176W        W 3776  39.846  12.340  13.246
33177W        W 3777   2.515  33.196  14.430
33178W        W 3778  19.731  15.753  10.995
33179W        W 3779  10.846  14.657   1.272
33180W        W 3780  19.270  23.716   2.762
33181W        W 3781  13.223  21.707   2.267
33182W        W 3782   2.881  32.469   9.816
33183W        W 3783  18.816  21.151  14.335
33184W        W 3784   0.491  42.518   3.299
33185W        W 3785  26.231  36.784  11.995
33186W        W 3786   7.777   5.730  13.444
33187W        W 3787  26.032   8.380  10.697
33188W        W 3788  33.611   8.605  11.181
33189W        W 3789   1.319  23.664  13.817
33190W        W 3790  19.615  25.213   3.781
33191W        W 3791  33.780  18.996   3.353
33192W        W 3792  33.496   4.450  13.919
33193W        W 3793  16.515  30.035   0.336
33194W        W 3794  14.761  16.733   3.275
33195W        W 3795  15.798  20.014  10.636
33196W        W 3796  33.635  23.672  13.435
33197W        W 3797  24.052  14.447   0.856
33198W        W 3798  27.613   0.423   2.859
33199W        W 3799  38.405  13.453   4.295
33200W        W 3800  10.340  12.703  11.984
33201W        W 3801  16.630  26.748  11.886
33202W        W 3802  34.580  44.970  12.821
33203W        W 3803  18.002   5.166   4.338
33204W        W 3804  43.815  35.061  12.484
33205W        W 3805  25.307  29.996   2.186
33206W        W 3806  29.044   5.854  14.496
33207W        W 3807  26.421   0.756  10.610
33208W        W 3808  37.409  37.728  10.694
33209W        W 3809  29.108  19.720   2.671
33210W        W 3810  29.593  20.655  12.174
33211W        W 3811  39.411  31.856   2.231
33212W        W 3812  37.557  18.464  14.367
33213W        W 3813  12.382   2.388   1.385
33214W        W 3814  12.124  22.973  11.011
33215W        W 3815  23.206  10.102   1.158
33216W        W 3816  35.392  39.528  13.902
33217W        W 3817  25.927  11.867  12.952
33218W        W 3818   1.303  23.421  14.569
33219W        W 3819   9.432  26.150  14.069
33220W        W 3820   6.770  37.255   0.833
33221W        W 3821  21.494  40.929  12.875
33222W        W 3822  38.356  28.792  12.732
33223W        W 3823  29.449  16.798  11.185
33224W        W 3824  12.117  22.236  13.518
33225W        W 3825  12.107   0.372  10.968
33226W        W 3826  41.777  24.288  12.165
33227W        W 3827  25.936  29.513  14.860
33228W        W 3828  14.273  11.444   1.699
33229W        W 3829  23.004  40.069  13.314
33230W        W 3830   7.976  33.583  13.429
33231W        W 3831   0.450  31.694  10.649
33232W        W 3832  17.553   0.083  13.499
33233W        W 3833  30.601  42.066  14.363
33234W        W 3834  44.495  35.124   1.739
33235W        W 3835  41.833  21.167   2.385
33236W        W 3836   3.455  43.552  11.521
33237W        W 3837  42.382  12.794  12.112
33238W        W 3838  41.866   6.211   4.612
33239W        W 3839  42.451  29.619   4.026
33240W        W 3840  40.333  11.845  12.519
33241W        W 3841  32.719  29.623   2.740
33242W        W 3842  24.642  41.485   4.668
33243W        W 3843  14.946  19.148   3.676
33244W        W 3844  19.723  31.354  10.796
33245W        W 3845   0.415  42.103   4.635
33246W        W 3846  30.043  44.827  11.962
33247W        W 3847  42.472   0.265   1.986
33248W        W 3848  20.238  41.558  13.941
33249W        W 3849  11.220   7.514   3.217
33250W        W 3850  12.127  42.918  11.397
33251W        W 3851  29.575   1.451  14.789
33252W        W 3852  28.524  14.808  13.635
33253W        W 3853  11.894  31.603  11.570
33254W        W 3854  11.582   9.723  13.362
33255W        W 3855  24.585  33.789   0.277
33256W        W 3856   8.736  35.859  12.562
33257W        W 3857  30.162   1.853  13.287
33258W        W 3858  16.803  30.436  12.945
33259W        W 3859  20.366  27.271   9.948
33260W        W 3860   7.273  13.805   0.883
33261W        W 3861   9.889  27.385  13.387
33262W        W 3862  21.971  40.024   2.390
33263W        W 3863   5.238  43.878  11.829
33264W        W 3864  39.361  36.899  10.689
33265W        W 3865  38.894  29.237   1.054
33266W        W 3866   5.796   3.443   3.827
33267W        W 3867  21.645  14.741  10.618
33268W        W 3868  37.861  20.715  14.835
33269W        W 3869  23.259  16.877   1.746
33270W        W 3870  16.260  37.429   0.466
33271W        W 3871  44.509  37.968   4.774
33272W        W 3872   4.577  36.978  11.142
33273W        W 3873   8.198  28.572  10.272
33274W        W 3874  27.971  34.436   4.564
33275W        W 3875  27.100  19.549   1.866
33276W        W 3876  12.137   2.420  14.388
33277W        W 3877  43.706  20.607   4.464
33278W        W 3878  28.359   8.855  14.807
33279W        W 3879   5.053  26.623   1.480
33280W        W 3880   3.517  44.601  11.624
33281W        W 3881  14.529  40.063  11.175
33282W        W 3882  31.921  34.101  11.643
33283W        W 3883   8.407  37.524   4.420
33284W        W 3884  42.704   7.202   2.372
33285W        W 3885   0.291   2.535  12.588
33286W        W 3886   8.850  26.994   4.594
33287W        W 3887   1.150  24.542   1.148
33288W        W 3888  40.825   2.560   1.315
33289W        W 3889   2.655  34.903  12.974
33290W        W 3890  12.725  19.609   3.594
33291W        W 3891  26.675  43.567  14.887
33292W        W 3892  31.807  30.744   3.503
33293W        W 3893  11.612  42.839  12.610
33294W        W 3894  44.082  13.703   1.595
33295W        W 3895  43.857  21.279  11.606
33296W        W 3896  16.206  28.474  14.258
33297W        W 3897  31.055  10.433   1.852
33298W        W 3898  18.559  26.395   3.959
33299W        W 3899  14.603  13.711   3.050
33300W        W 3900  24.719  37.385  14.804
33301W        W 3901  40.865  11.430   1.661
33302W        W 3902  11.096  30.551  11.470
33303W        W 3903  23.052  36.119   2.249
33304W        W 3904   7.829  16.038   3.162
33305W        W 3905  41.583  27.535   3.766
33306W        W 3906  39.027  29.655   4.876
33307W        W 3907  32.388  31.852   2.643
33308W        W 3908  34.154  43.480  10.689
33309W        W 3909  35.652  15.662  11.185
33310W        W 3910  28.692  14.329  13.432
33311W        W 3911   9.305   2.797   2.265
33312W        W 3912  14.045   4.768   3.608
33313W        W 3913  40.138  30.885   2.311
33314W        W 3914   0.403   5.712   2.619
33315W        W 3915   0.980   6.210   0.714
33316W        W 3916  38.517   8.769  14.501
33317W        W 3917  18.258  35.970  12.048
33318W        W 3918  22.106   6.383   5.380
33319W        W 3919  42.300  40.743  14.403
33320W        W 3920  20.215   3.958  12.620
33321W        W 3921  18.987  44.160  12.506
33322W        W 3922  30.888  28.986   0.847
33323W        W 3923  10.799  15.513  12.997
33324W        W 3924  35.954  16.328   3.627
33325W        W 3925   3.935  22.483  13.351
33326W        W 3926   8.669   0.949  14.551
33327W        W 3927   5.894  14.533  12.465
33328W        W 3928  18.107  25.004   2.314
33329W        W 3929  12.760  37.076  13.827
33330W        W 3930   1.687  42.767   0.191
33331W        W 3931  44.883   4.780   3.604
33332W        W 3932  29.671  30.929  14.261
33333W        W 3933  26.100  35.002   2.426
33334W        W 3934   9.114  29.396  11.125
33335W        W 3935  36.406  17.184   1.983
33336W        W 3936  15.564  10.826  12.025
33337W        W 3937   7.167  14.397   1.256
33338W        W 3938  21.408  42.812   2.350
33339W        W 3939  36.596  17.313   0.442
33340W        W 3940  25.611   7.688  11.499
33341W        W 3941  39.085  29.188   1.551
33342W        W 3942  40.276  38.032  13.907
33343W        W 3943   7.894  19.595   4.778
33344W        W 3944   5.011  39.034   1.637
33345W        W 3945  41.559  13.811  13.785
33346W        W 3946  20.714  11.507  12.041
33347W        W 3947   1.776  11.004  13.462
33348W        W 3948  44.456  31.105  10.905
33349W        W 3949  23.078  24.103  14.291
33350W        W 3950  44.456  18.401   4.502
33351W        W 3951   7.273  43.883   4.341
33352W        W 3952  44.441  37.868   4.242
33353W        W 3953  44.180  15.615   3.656
33354W        W 3954  40.059   0.324  13.018
33355W        W 3955  26.589  28.060  14.403
33356W        W 3956  36.130  42.040   1.270
33357W        W 3957  38.489  15.697  11.052
33358W        W 3958  16.183  33.727   3.695
33359W        W 3959   9.346  34.991  10.145
33360W        W 3960  40.716  12.080   0.342
33361W        W 3961  15.305  17.171   0.733
33362W        W 3962   0.936   5.863   1.989
33363W        W 3963  39.486  22.019   1.788
33364W        W 3964  22.438  10.693  13.382
33365W        W 3965  41.026  43.103   3.281
33366W        W 3966   2.972   1.812   9.735
33367W        W 3967   0.200   4.522   3.964
33368W        W 3968  32.787  12.803  13.445
33369W        W 3969  16.632  31.564  14.817
33370W        W 3970  43.388  17.684  10.712
33371W        W 3971  42.959  32.946   3.652
33372W        W 3972  38.391  29.522  13.980
33373W        W 3973  29.532  25.123   2.701
33374W        W 3974  33.499  43.722   1.470
33375W        W 3975   0.146  34.046  13.962
33376W        W 3976  18.504  34.412   1.913
33377W        W 3977  24.256  44.491  12.578
33378W        W 3978  41.924  44.742  13.465
33379W        W 3979  22.296  14.753   2.810
33380W        W 3980  39.976  23.221  13.287
33381W        W 3981  36.021   9.214  14.513
33382W        W 3982   7.742  34.415   4.037
33383W        W 3983  20.976  28.904  12.967
33384W        W 3984  28.210  18.824   1.360
33385W        W 3985   5.886   7.365   1.268
33386W        W 3986  27.013  35.602  10.635
33387W        W 3987  11.996  20.604   0.194
33388W        W 3988  28.726   8.027   3.724
33389W        W 3989  43.740  16.114  13.039
33390W        W 3990  42.550  17.239   4.875
33391W        W 3991   5.336   2.531  11.510
33392W        W 3992  40.277   3.673   3.666
33393W        W 3993  30.374  37.403  14.960
33394W        W 3994   6.364  43.015  13.346
33395W        W 3995  35.179  18.170  10.780
33396W        W 3996  44.095  11.601   1.343
33397W        W 3997   4.010  12.762  13.130
33398W        W 3998  25.473  19.388   1.824
33399W        W 3999  17.213  37.778  11.173
33400W        W 4000  18.051  29.467  14.849
33401W        W 4001  11.173  30.369   2.157
33402W        W 4002   3.170  17.852  14.451
33403W        W 4003   4.398   5.816  13.112
33404W        W 4004   8.069  28.619   2.493
33405W        W 4005  22.223   9.370  12.323
33406W        W 4006  44.428  17.505   3.830
33407W        W 4007  22.811   4.911   0.849
33408W        W 4008  11.327  26.120  10.772
33409W        W 4009  11.700  43.524  12.920
33410W        W 4010  41.011   2.742   2.714
33411W        W 4011  36.991  41.128   0.015
33412W        W 4012  43.884  26.706  14.043
33413W        W 4013   8.881  24.478   2.214
33414W        W 4014  29.536   7.918  14.010
33415W        W 4015   4.037   3.881   0.375
33416W        W 4016   3.180  24.167   0.367
33417W        W 4017  17.046   1.368   4.112
33418W        W 4018  21.069  11.147   0.558
33419W        W 4019  41.471  23.485   3.001
33420W        W 4020  31.617  36.027  11.958
33421W        W 4021   8.534   7.974   1.011
33422W        W 4022  13.313  21.914  13.954
33423W        W 4023  16.242  12.355   3.867
33424W        W 4024  16.176   4.728   4.842
33425W        W 4025  11.326   0.350  14.405
33426W        W 4026  36.219  17.646   2.792
33427W        W 4027  40.463   8.775   2.759
33428W        W 4028  13.086  20.257   4.614
33429W        W 4029  15.607  13.871   0.415
33430W        W 4030  29.923  14.324   2.254
33431W        W 4031  39.485   9.735   3.448
33432W        W 4032   8.394  12.223  14.311
33433W        W 4033  41.892   3.390   3.207
33434W        W 4034  30.114   6.000   4.950
33435W        W 4035  38.467  37.120  11.111
33436W        W 4036  25.966   4.379  12.002
33437W        W 4037  30.323   5.605   4.607
33438W        W 4038  23.816  15.613   0.933
33439W        W 4039   1.403  32.793   2.754
33440W        W 4040  33.494   7.648  13.049
33441W        W 4041  38.324  14.031   2.427
33442W        W 4042  10.343  36.575   2.309
33443W        W 4043  40.424   2.843   1.120
33444W        W 4044  44.862  11.544  11.223
33445W        W 4045  26.659   9.470   1.413
33446W        W 4046   5.317   5.357   4.166
33447W        W 4047  44.303  35.494   4.346
33448W        W 4048  30.910   4.252  14.282
33449W        W 4049  24.623  14.550  14.937
33450W        W 4050  26.567  25.829   4.633
33451W        W 4051  28.111   6.305  12.848
33452W        W 4052   0.953  22.143   4.204
33453W        W 4053  42.812   6.455   1.383
33454W        W 4054  37.340  44.787  10.751
33455W        W 4055   6.341   0.456   0.952
33456W        W 4056  33.809  40.634   0.305
33457W        W 4057   1.765  44.126  10.342
33458W        W 4058  25.239  25.960  14.871
33459W        W 4059  18.796  31.837  12.142
33460W        W 4060   3.921  14.112   1.848
33461W        W 4061  23.982   8.020   2.707
33462W        W 4062  22.062  44.031  11.586
33463W        W 4063  20.839  37.608  12.165
33464W        W 4064  32.409  41.357  13.447
33465W        W 4065  36.990   4.707   3.178
33466W        W 4066  23.634  25.733   2.320
33467W        W 4067  44.315   5.795  14.351
33468W        W 4068  17.228  18.288   1.885
33469W        W 4069   0.544  32.901   2.641
33470W        W 4070   0.655  34.317  12.472
33471W        W 4071  14.045   7.159  14.033
33472W        W 4072   7.462  31.415  14.948
33473W        W 4073  18.299  43.654  10.605
33474W        W 4074   7.691  22.447  14.617
33475W        W 4075   8.774  28.911  14.507
33476W        W 4076  34.361   8.352   1.919
33477W        W 4077  32.726  43.023   0.742
33478W        W 4078  27.860  38.224   1.939
33479W        W 4079   6.661  38.407   1.251
33480W        W 4080  42.513  30.215  12.938
33481W        W 4081  44.345  41.287   2.202
33482W        W 4082  11.274  41.605   3.697
33483W        W 4083  29.650  37.515   3.768
33484W        W 4084  19.340  12.804  14.109
33485W        W 4085  27.593  21.598   0.791
33486W        W 4086  41.055  20.809   4.515
33487W        W 4087  32.297   5.408  11.260
33488W        W 4088  22.975  34.026  12.467
33489W        W 4089  33.393  22.222  11.486
33490W        W 4090  14.526  18.652  11.665
33491W        W 4091  44.234  12.924  13.905
33492W        W 4092   1.154  25.018   5.143
33493W        W 4093  19.131  20.510   2.342
33494W        W 4094  23.667   6.244   2.698
33495W        W 4095   3.453  15.664  13.026
33496W        W 4096  41.819  38.931  13.096
33497W        W 4097  22.762   0.450   0.419
33498W        W 4098  29.778  26.864   3.109
33499W        W 4099   8.911  24.725   3.463
33500W        W 4100  21.784   0.732  14.794
33501W        W 4101   6.690  18.796   2.196
33502W        W 4102  39.447   6.392  13.861
33503W        W 4103   6.877  12.513   2.355
33504W        W 4104  18.073  10.173  14.666
33505W        W 4105  26.934   6.007  14.581
33506W        W 4106   3.537  18.161   4.174
33507W        W 4107  21.613   2.232   1.816
33508W        W 4108  24.354  25.025   2.299
33509W        W 4109   1.303  18.268   2.134
33510W        W 4110  44.958  34.610  13.894
33511W        W 4111  27.968  26.970   1.344
33512W        W 4112  13.870  11.570  14.770
33513W        W 4113  41.949  21.532   3.099
33514W        W 4114  26.972  39.966   2.745
33515W        W 4115  11.664  16.294  14.927
33516W        W 4116  34.445   0.329   2.975
33517W        W 4117  39.297  28.910   3.607
33518W        W 4118  29.898   0.315  13.545
33519W        W 4119   3.253  20.650  14.062
33520W        W 4120  28.629  20.709  13.080
33521W        W 4121  28.350  44.555   3.870
33522W        W 4122   5.294  34.559   1.457
33523W        W 4123  19.401  24.744   3.856
33524W        W 4124  27.261  26.446  12.077
33525W        W 4125  24.696  21.860   0.344
33526W        W 4126  41.608  43.197   2.853
33527W        W 4127  20.162  28.100  13.143
33528W        W 4128  18.499   5.511  10.950
33529W        W 4129  24.909   4.023  12.444
33530W        W 4130  21.724  28.953  11.459
33531W        W 4131  37.906  20.762   4.245
33532W        W 4132   6.833  44.944  11.169
33533W        W 4133   3.490  40.055   3.359
33534W        W 4134  29.210  33.468   0.303
33535W        W 4135  28.701  35.815  10.546
33536W        W 4136  13.699  11.779  13.822
33537W        W 4137   5.297  26.008  10.561
33538W        W 4138  29.070  11.113  14.213
33539W        W 4139  16.316  27.329   2.349
33540W        W 4140  19.061  41.925   1.821
33541W        W 4141   9.869  16.683   1.537
33542W        W 4142  43.821  21.994  14.067
33543W        W 4143   5.868  43.221  11.647
33544W        W 4144   4.465   8.373   1.151
33545W        W 4145   1.892  24.591  10.469
33546W        W 4146  16.708  21.521  12.943
33547W        W 4147   6.369  42.532   3.567
33548W        W 4148  38.139  24.187   0.826
33549W        W 4149  39.116  24.291   0.405
33550W        W 4150  33.541  38.971   4.547
33551W        W 4151   1.215   6.424   3.718
33552W        W 4152  37.332  41.407   4.333
33553W        W 4153   5.299  20.695   1.431
33554W        W 4154  41.053  32.539   0.673
33555W        W 4155  10.820  39.835   2.386
33556W        W 4156  12.539  34.996   1.105
33557W        W 4157  39.646  24.535  10.691
33558W        W 4158   2.422   3.158   4.971
33559W        W 4159  35.525  39.466   1.288
33560W        W 4160  36.375  27.184  12.012
33561W        W 4161  28.485  30.850   2.461
33562W        W 4162   2.959  16.295   2.689
33563W        W 4163   1.801  44.840  14.899
33564W        W 4164   9.181  12.137   1.763
33565W        W 4165  25.215  27.713   4.044
33566W        W 4166  43.364  37.103   1.424
33567W        W 4167  26.874   4.855  12.432
33568W        W 4168   8.763  31.145   0.223
33569W        W 4169  21.616  16.305   2.577
33570W        W 4170   6.251   5.689  12.527
33571W        W 4171  12.360  10.405   2.265
33572W        W 4172  24.981   3.508  12.499
33573W        W 4173  26.324   1.301   1.853
33574W        W 4174  31.143   1.830   3.725
33575W        W 4175  31.392  17.036   4.759
33576W        W 4176  41.941  16.435  12.447
33577W        W 4177  29.387   5.331   0.068
33578W        W 4178  15.828  27.694   0.215
33579W        W 4179  42.769   6.949  12.446
33580W        W 4180  27.692   2.249  11.682
33581W        W 4181   3.013  24.675  12.793
33582W        W 4182  38.374  24.557   2.388
33583W        W 4183   0.962  17.283  13.237
33584W        W 4184  42.885  20.192  13.740
33585W        W 4185   6.813  25.534  13.013
33586W        W 4186  22.101  44.692   4.039
33587W        W 4187  39.430  24.264  14.958
33588W        W 4188   8.457   5.853   3.651
33589W        W 4189  15.120   2.565   3.339
33590W        W 4190  23.582  39.582  11.323
33591W        W 4191  33.112  24.592  11.903
33592W        W 4192   8.208   4.628   0.997
33593W        W 4193  14.753   3.335  10.621
33594W        W 4194  30.103   8.610  11.095
33595W        W 4195  12.718  13.274   2.232
33596W        W 4196   4.653  26.639  10.661
33597W        W 4197  16.147  43.862   3.226
33598W        W 4198   0.228   7.510   0.896
33599W        W 4199  32.021  21.290   1.696
33600W        W 4200   2.098  44.638   4.158
33601W        W 4201   8.123  34.451   0.865
33602W        W 4202  16.956  13.006   5.412
33603W        W 4203   8.824  18.589  11.737
33604W        W 4204  18.487  41.238  12.725
33605W        W 4205  18.833  23.491   4.365
33606W        W 4206  40.905  35.825  12.703
33607W        W 4207  32.885  43.463  11.774
33608W        W 4208  39.316  28.179  10.581
33609W        W 4209   4.850  39.537   4.435
33610W        W 4210  30.576  22.583   3.362
33611W        W 4211  19.628  28.674  14.310
33612W        W 4212  33.142  25.588   2.179
33613W        W 4213   9.206  37.547  11.079
33614W        W 4214   0.438  25.711  12.915
33615W        W 4215  23.797  26.988  12.869
33616W        W 4216   4.489  12.163   2.953
33617W        W 4217  25.993   0.482  13.958
33618W        W 4218  29.009  11.249   4.484
33619W        W 4219  17.535  36.831  12.454
33620W        W 4220  10.234  38.006   0.300
33621W        W 4221  38.498   0.248   1.452
33622W        W 4222  42.179   9.732  12.452
33623W        W 4223  31.630  17.070  10.760
33624W        W 4224  33.638  42.576   3.333
33625W        W 4225  44.193   9.028  12.828
33626W        W 4226  32.600   6.039  14.374
33627W        W 4227  39.595  30.952   0.457
33628W        W 4228   0.762  14.554  13.171
33629W        W 4229   3.864  19.347  14.311
33630W        W 4230  25.084  43.913  13.786
33631W        W 4231  34.889  23.616  10.575
33632W        W 4232  16.750  42.528   0.960
33633W        W 4233  24.579  27.474  12.017
33634W        W 4234  27.478  21.266  13.721
33635W        W 4235   5.421  23.283  11.172
33636W        W 4236   3.280   0.731   0.078
33637W        W 4237   2.193  12.387   0.232
33638W        W 4238   2.988  30.559  12.965
33639W        W 4239  28.977   1.887  10.737
33640W        W 4240   7.748  14.582   2.258
33641W        W 4241  28.911   2.252  12.484
33642W        W 4242  13.212   4.682   1.308
33643W        W 4243  19.309  30.468   4.839
33644W        W 4244  36.947  14.699   0.793
33645W        W 4245  18.309   1.492   3.847
33646W        W 4246  15.190   6.146   1.116
33647W        W 4247  40.791  24.135  12.616
33648W        W 4248   7.667   8.651  12.974
33649W        W 4249  18.700  43.093  13.992
33650W        W 4250   1.536  32.053   0.571
33651W        W 4251  43.748  44.647  11.960
33652W        W 4252  29.564  30.633   0.542
33653W        W 4253  44.302  28.905  11.185
33654W        W 4254  34.978  14.160  12.689
33655W        W 4255  16.674   2.149  11.798
33656W        W 4256   2.439  41.525   3.266
33657W        W 4257  12.394   8.590   4.304
33658W        W 4258  10.840  31.425  10.623
33659W        W 4259  26.045  42.474   3.277
33660W        W 4260  30.926  21.577  12.629
33661W        W 4261   1.996   1.718   3.278
33662W        W 4262  20.190  11.222   2.836
33663W        W 4263   4.276   7.423  11.613
33664W        W 4264  11.238  34.877  14.350
33665W        W 4265  32.816   7.307   0.660
33666W        W 4266   9.739  20.160  13.699
33667W        W 4267  31.128  44.851  10.614
33668W        W 4268  43.609   0.795  11.563
33669W        W 4269  27.671  20.411  10.739
33670W        W 4270   7.700  26.228  13.742
33671W        W 4271   7.341  30.453   0.883
33672W        W 4272   6.360  18.522  13.967
33673W        W 4273  24.214  39.598   2.823
33674W        W 4274  31.081  12.583  10.765
33675W        W 4275  13.025  40.280   4.572
33676W        W 4276  34.088  29.470  11.417
33677W        W 4277   1.361  17.184   4.852
33678W        W 4278   6.259  27.074  11.666
33679W        W 4279  22.526  18.201   2.876
33680W        W 4280  37.839   0.898   2.276
33681W        W 4281  31.855  25.620  14.310
33682W        W 4282  44.815  43.147  12.518
33683W        W 4283  29.058  32.138   4.630
33684W        W 4284  43.258   3.656   0.464
33685W        W 4285  41.104   1.011   2.519
33686W        W 4286  13.181  34.036  14.278
33687W        W 4287  15.268  28.543   2.168
33688W        W 4288  41.559  37.821  13.334
33689W        W 4289  41.789   5.867  14.254
33690W        W 4290  30.453  29.195  12.510
33691W        W 4291   8.462  41.972   2.243
33692W        W 4292  43.218  28.382   0.455
33693W        W 4293   1.790  15.584   2.829
33694W        W 4294   3.404   6.357   1.639
33695W        W 4295  27.187  30.642   4.859
33696W        W 4296  27.926  36.491   4.729
33697W        W 4297  35.404  10.388  14.764
33698W        W 4298  35.110   4.306   3.071
33699W        W 4299  35.134  34.434   3.735
33700W        W 4300  40.901   2.880   0.315
33701W        W 4301   2.266  12.595   0.730
33702W        W 4302  12.724  23.160  13.989
33703W        W 4303   3.939  32.078   3.241
33704W        W 4304  40.466  11.522  11.157
33705W        W 4305  22.107   1.263  10.525
33706W        W 4306  16.465  21.844   4.698
33707W        W 4307  33.143   9.357  13.906
33708W        W 4308  14.043   5.505   1.147
33709W        W 4309   6.146  29.099   3.340
33710W        W 4310  44.926  28.513   4.811
33711W        W 4311  19.729  17.360   2.785
33712W        W 4312  14.194   1.498  13.982
33713W        W 4313  38.477  14.724   1.651
33714W        W 4314  34.384   2.833  12.632
33715W        W 4315   4.210   2.674   3.636
33716W        W 4316  11.447   9.104   4.107
33717W        W 4317  26.219   9.911   1.512
33718W        W 4318  20.735  28.018   4.487
33719W        W 4319   3.266   5.218  12.547
33720W        W 4320  32.883  11.418   4.597
33721W        W 4321  41.771  20.487   3.175
33722W        W 4322  36.878  22.099   2.717
33723W        W 4323   6.926  16.046  11.075
33724W        W 4324  36.792   1.129   2.762
33725W        W 4325  39.441   0.689  14.670
33726W        W 4326  43.775  43.871   3.636
33727W        W 4327  37.397   4.280   0.443
33728W        W 4328   7.743   4.329  12.325
33729W        W 4329  14.148   4.938   1.839
33730W        W 4330  27.021  44.759  10.204
33731W        W 4331  29.417  31.237  12.928
33732W        W 4332  12.415  35.465   0.892
33733W        W 4333  11.681  12.321   1.392
33734W        W 4334  19.751   4.920   0.671
33735W        W 4335  32.350   1.513   2.213
33736W        W 4336  37.076  17.289  11.188
33737W        W 4337  13.068  37.896   3.375
33738W        W 4338  32.174  31.328   0.945
33739W        W 4339   6.594   7.777  12.004
33740W        W 4340  29.831  24.937   2.305
33741W        W 4341  33.883  22.634  12.670
33742W        W 4342   7.643   8.298   0.709
33743W        W 4343  39.456  13.197   2.217
33744W        W 4344  36.340  15.310   2.830
33745W        W 4345   8.691  39.345   1.434
33746W        W 4346  21.603   6.492  14.825
33747W        W 4347  13.204   7.399   3.702
33748W        W 4348   0.460  37.114   2.125
33749W        W 4349  11.377  30.456   2.675
33750W        W 4350   8.793   3.298   4.135
33751W        W 4351  10.201  34.334   4.938
33752W        W 4352   1.796  30.461  11.379
33753W        W 4353  16.967  30.838   0.123
33754W        W 4354  37.494  14.575   2.096
33755W        W 4355   0.851  23.482   0.054
33756W        W 4356  18.505   2.293   3.737
33757W        W 4357  25.376  16.325   3.344
33758W        W 4358  27.011  16.763   1.454
33759W        W 4359  24.607  29.053  12.885
33760W        W 4360   5.904  40.042  14.196
33761W        W 4361   1.949   8.120   0.200
33762W        W 4362  30.894  41.981  14.810
33763W        W 4363  30.431  14.169  11.353
33764W        W 4364  35.370   8.310  12.428
33765W        W 4365   0.498  41.123   4.485
33766W        W 4366   0.681  13.061  10.780
33767W        W 4367  27.220  31.803  12.328
33768W        W 4368  20.664  29.083  11.907
33769W        W 4369   1.814  11.053   4.519
33770W        W 4370  19.839  13.266   3.686
33771W        W 4371   0.946  42.005  14.885
33772W        W 4372  25.839   7.077  12.516
33773W        W 4373  21.271  11.378   3.683
33774W        W 4374  12.834   6.398   2.404
33775W        W 4375  21.300  22.388   1.966
33776W        W 4376  36.049   1.402   3.443
33777W        W 4377  38.261  37.468  12.354
33778W        W 4378  38.081  30.160   1.217
33779W        W 4379  23.576  23.447   2.860
33780W        W 4380   4.701  18.904   1.389
33781W        W 4381  21.148   6.841   0.241
33782W        W 4382  44.911  17.264   0.018
33783W        W 4383  20.635   0.970  11.511
33784W        W 4384   0.558  24.583   4.654
33785W        W 4385  17.976  42.967  10.163
33786W        W 4386  33.871  28.243   2.350
33787W        W 4387   0.373  29.406   4.633
33788W        W 4388  35.660  15.363   2.398
33789W        W 4389  28.691  30.718  11.658
33790W        W 4390  34.367  34.484  14.986
33791W        W 4391  14.197   4.369   0.663
33792W        W 4392  30.109  16.091   0.608
33793W        W 4393  23.717   9.922   2.753
33794W        W 4394   2.517  22.052   2.097
33795W        W 4395  27.179  23.910  10.954
33796W        W 4396  34.243   8.601  14.812
33797W        W 4397  27.784  17.061  11.059
33798W        W 4398  28.483  18.676  10.530
33799W        W 4399  32.379   5.394  13.500
33800W        W 4400  37.024   9.734   3.363
33801W        W 4401  23.034   4.799   3.155
33802W        W 4402   9.794  40.393   0.360
33803W        W 4403   0.477  15.720   0.506
33804W        W 4404  22.648  16.336  14.893
33805W        W 4405  11.558   8.906  14.517
33806W        W 4406  15.270  39.883   1.290
33807W        W 4407  35.473  20.057   0.951
33808W        W 4408   8.126  12.370  11.604
33809W        W 4409  22.745  16.304  13.994
33810W        W 4410  24.560  23.781   0.007
33811W        W 4411   4.920  33.957   0.242
33812W        W 4412  35.655  38.927  11.940
33813W        W 4413  24.224  35.940  13.823
33814W        W 4414  38.286   8.093  12.008
33815W        W 4415  15.101  44.779  13.413
33816W        W 4416  16.584  22.390   0.401
33817W        W 4417  24.141  44.755  13.479
33818W        W 4418  16.071  30.134  10.634
33819W        W 4419  41.704  23.226   1.743
33820W        W 4420  44.245  30.142  12.381
33821W        W 4421   5.962  14.189  14.100
33822W        W 4422  12.120  15.224  12.372
33823W        W 4423  26.617  16.854  13.443
33824W        W 4424  22.524  23.883   2.003
33825W        W 4425  18.771  34.887  13.983
33826W        W 4426   3.743  10.215   1.793
33827W        W 4427  27.744  44.986   1.256
33828W        W 4428  44.423  39.065  13.193
33829W        W 4429  15.170  21.834   1.362
33830W        W 4430  13.593  12.843  12.438
33831W        W 4431   9.673   7.166  10.817
33832W        W 4432  36.918  43.492  11.034
33833W        W 4433   1.015   3.062  11.072
33834W        W 4434  25.754  16.186   3.662
33835W        W 4435  19.580  18.997   1.821
33836W        W 4436  20.995  24.772  13.829
33837W        W 4437  12.138  13.128  12.064
33838W        W 4438  13.346  16.788  12.908
33839W        W 4439   8.610  24.550  11.506
33840W        W 4440  26.468  23.941   0.766
33841W        W 4441  44.394  26.545   2.071
33842W        W 4442  41.957  10.684   0.514
33843W        W 4443  16.148  36.165  11.910
33844W        W 4444  29.243  12.187  11.596
33845W        W 4445   6.137  39.556   1.757
33846W        W 4446  15.489  43.012   3.332
33847W        W 4447   7.292  42.038   4.288
33848W        W 4448  25.392  26.893   2.738
33849W        W 4449  18.725  18.239  12.054
33850W        W 4450  32.597  33.619   2.369
33851W        W 4451  37.029   9.163   4.707
33852W        W 4452  21.947  41.952   1.417
33853W        W 4453  39.763  39.072  14.687
33854W        W 4454  18.691   5.934  13.477
33855W        W 4455  17.151   6.295   0.294
33856W        W 4456  42.383  27.890   1.319
33857W        W 4457  44.833  23.490  13.728
33858W        W 4458  10.566  21.557   4.578
33859W        W 4459   3.155  17.122  12.659
33860W        W 4460   6.550  10.326   2.225
33861W        W 4461  18.190  31.278  12.497
33862W        W 4462  28.205  42.458   3.863
33863W        W 4463  29.539  32.950  14.535
33864W        W 4464  33.456  39.968   3.216
33865W        W 4465  32.892  23.006   4.869
33866W        W 4466   1.735  15.058   4.099
33867W        W 4467  25.812  23.480   2.129
33868W        W 4468  27.822  40.031   4.625
33869W        W 4469  10.934  22.987  14.332
33870W        W 4470  14.261  11.926  13.428
33871W        W 4471  42.719  41.838  14.328
33872W        W 4472   3.799  19.637   3.298
33873W        W 4473  36.993  26.139   2.133
33874W        W 4474   2.599  22.062  11.584
33875W        W 4475  10.237  16.656  13.496
33876W        W 4476  34.244   5.262   2.279
33877W        W 4477  21.654  41.295  13.479
33878W        W 4478   2.293  31.199   1.266
33879W        W 4479   0.891  22.134  13.031
33880W        W 4480  34.613  36.852  13.351
33881W        W 4481  37.348  13.578   2.311
33882W        W 4482  14.194  21.013   2.907
33883W        W 4483  35.304  17.227  11.807
33884W        W 4484  44.022  32.676  10.663
33885W        W 4485   1.800  34.617  12.857
33886W        W 4486   2.201  18.196   4.908
33887W        W 4487  11.363   1.313  14.434
33888W        W 4488   4.952  26.523   0.219
33889W        W 4489  38.475  27.943   3.711
33890W        W 4490  40.728   9.080   3.721
33891W        W 4491  42.400  38.516   4.246
33892W        W 4492  27.089  24.386   1.298
33893W        W 4493  33.153  40.489  10.893
33894W        W 4494  27.697  18.672   0.034
33895W        W 4495  41.909  14.446  11.383
33896W        W 4496  21.743  39.753  14.179
33897W        W 4497  17.536   3.313  14.436
33898W        W 4498  10.741   2.147  10.755
33899W        W 4499  39.047  11.258  12.580
33900W        W 4500   1.715  39.300  12.876
33901W        W 4501   3.404  41.290  11.853
33902W        W 4502  41.928  38.593  11.932
33903W        W 4503  10.311  20.710  12.629
33904W        W 4504  41.937  36.913  13.578
33905W        W 4505  28.551  11.443   2.717
33906W        W 4506  31.780  35.403  13.060
33907W        W 4507  32.689  20.346   4.673
33908W        W 4508  10.634  38.470  14.226
33909W        W 4509  20.007   7.376   0.789
33910W        W 4510   1.733  20.044   3.310
33911W        W 4511   5.816   1.041  12.095
33912W        W 4512  21.123  36.564   3.649
33913W        W 4513  20.039   3.688   1.200
33914W        W 4514  27.269   3.758  14.834
33915W        W 4515  11.545  24.123  14.961
33916W        W 4516  13.623  38.793   3.224
33917W        W 4517   1.923   8.361   1.637
33918W        W 4518   6.957  35.215  13.882
33919W        W 4519  19.418   8.461  14.492
33920W        W 4520  31.680  31.019   0.467
33921W        W 4521  31.659  20.224   3.236
33922W        W 4522  20.039  23.747  11.371
33923W        W 4523  10.593   6.334   4.254
33924W        W 4524  14.647  29.539   1.351
33925W        W 4525   2.949  24.093  14.547
33926W        W 4526   0.899  24.085   2.059
33927W        W 4527  23.581  29.336  12.927
33928W        W 4528  34.710  18.767   4.461
33929W        W 4529   1.920  12.627   4.908
33930W        W 4530  31.944  16.300   3.964
33931W        W 4531  38.565  33.389  11.602
33932W        W 4532   9.611  16.762  11.115
33933W        W 4533   8.794  28.378   0.378
33934W        W 4534  38.547   0.764  11.178
33935W        W 4535  17.991  38.105   2.280
33936W        W 4536  21.595  34.634   3.248
33937W        W 4537   9.776   0.072   1.240
33938W        W 4538  23.126  40.570  14.511
33939W        W 4539  11.869  39.912   0.933
33940W        W 4540   0.409  30.567   4.401
33941W        W 4541  12.083   3.908   1.156
33942W        W 4542   4.419  33.439  11.381
33943W        W 4543  40.081  36.718  13.782
33944W        W 4544  40.103  19.941   0.323
33945W        W 4545   8.268  16.991   2.607
33946W        W 4546   0.900  27.795   2.272
33947W        W 4547   3.208  10.709   1.484
33948W        W 4548  10.738  18.994   3.411
33949W        W 4549  29.577  28.940  10.979
33950W        W 4550  42.766  23.973  14.449
33951W        W 4551  14.766  36.048  13.905
33952W        W 4552  30.608  42.419   0.798
33953W        W 4553  22.344  19.860  14.942
33954W        W 4554  42.355  19.381   0.009
33955W        W 4555  31.477   9.838  10.703
33956W        W 4556  24.660  25.237  11.862
33957W        W 4557   2.959  22.082   4.697
33958W        W 4558  43.202  37.948   1.440
33959W        W 4559  19.480  44.942  12.905
33960W        W 4560  18.834  43.599  13.938
33961W        W 4561  42.974  25.985  13.409
33962W        W 4562  42.021  11.847   2.098
33963W        W 4563  30.396  44.871   0.903
33964W        W 4564  41.410   0.775  14.832
33965W        W 4565  24.401  11.318   3.783
33966W        W 4566  32.682  16.142   4.256
33967W        W 4567   3.741  17.750   3.447
33968W        W 4568  34.336  38.239   3.694
33969W        W 4569  36.418  17.188   0.917
33970W        W 4570  29.586  24.138  11.270
33971W        W 4571   7.163   7.194  11.542
33972W        W 4572  34.776  38.704   4.488
33973W        W 4573   0.044  18.282   1.695
33974W        W 4574  14.719   9.168  14.480
33975W        W 4575  29.202  27.071  12.032
33976W        W 4576  38.590  41.598   2.850
33977W        W 4577   0.897   7.167  11.691
33978W        W 4578  34.395   4.727  14.448
33979W        W 4579  33.157  30.061   4.127
33980W        W 4580   7.140  44.266   4.676
33981W        W 4581  30.549  16.865   3.225
33982W        W 4582   2.689  17.190   3.674
33983W        W 4583  10.185   1.189  13.493
33984W        W 4584  39.050  18.514   2.768
33985W        W 4585   5.935  27.067   2.708
33986W        W 4586  42.738   0.027  11.329
33987W        W 4587  10.731  35.472  10.769
33988W        W 4588  19.196   3.798  13.153
33989W        W 4589  17.107   9.725   3.244
33990W        W 4590  41.610  12.130  12.915
33991W        W 4591  10.351  43.017  14.757
33992W        W 4592   4.452  39.559  11.177
33993W        W 4593  44.204  13.587   0.447
33994W        W 4594  35.361  37.993   3.140
33995W        W 4595  10.323   3.354   3.653
33996W        W 4596   6.588  11.805  14.381
33997W        W 4597   3.850  39.137  11.291
33998W        W 4598  29.657  25.596   4.262
33999W        W 4599  20.083  22.772   1.481
34000W        W 4600   0.228   6.179   1.308
34001W        W 4601  34.053  40.788  13.941
34002W        W 4602  16.047  26.364  10.653
34003W        W 4603  34.363  21.121   3.236
34004W        W 4604  35.944  41.227  13.477
34005W        W 4605  10.037   3.061   0.939
34006W        W 4606  44.540  33.228  13.255
34007W        W 4607  41.248  23.477   1.615
34008W        W 4608   0.773  23.649  10.895
34009W        W 4609   1.910  33.370  12.224
34010W        W 4610  40.848   2.006  10.719
34011W        W 4611  24.557  10.360  11.721
34012W        W 4612  35.003  42.540  14.864
34013W        W 4613  32.178  25.042  13.395
34014W        W 4614  26.571  34.417   3.816
34015W        W 4615  42.257   0.935   0.231
34016W        W 4616   5.355  29.034   4.069
34017W        W 4617  20.691  28.214   1.272
34018W        W 4618   5.439  38.047  10.754
34019W        W 4619  33.979  32.056   2.325
34020W        W 4620   0.923  17.719  13.964
34021W        W 4621  43.130  21.242  11.928
34022W        W 4622  21.302  15.570  11.113
34023W        W 4623   7.437  34.054  10.390
34024W        W 4624  35.991  32.400   0.390
34025W        W 4625  14.882   9.635  13.600
34026W        W 4626  23.531  14.583   2.258
34027W        W 4627  21.233   3.982   1.830
34028W        W 4628  42.345  10.232   1.175
34029W        W 4629  35.401   9.227   4.346
34030W        W 4630  22.308  35.575  14.353
34031W        W 4631   5.216   4.449   0.463
34032W        W 4632  35.398  38.059  14.128
34033W        W 4633  27.433  35.601  12.848
34034W        W 4634  16.876  36.702   4.560
34035W        W 4635  41.277   3.653  12.517
34036W        W 4636  30.103  13.111  12.216
34037W        W 4637  27.225  12.210  13.418
34038W        W 4638  17.118  21.339   1.671
34039W        W 4639  34.907   9.696   0.351
34040W        W 4640  19.183  10.159   5.190
34041W        W 4641  15.319  23.662   3.172
34042W        W 4642  17.107  33.091  13.849
34043W        W 4643  15.576  35.757   5.067
34044W        W 4644   9.385  38.622  10.670
34045W        W 4645  44.976  25.955   0.193
34046W        W 4646  14.286   9.857  10.482
34047W        W 4647  22.677  42.212   4.351
34048W        W 4648  34.918  15.299   1.735
34049W        W 4649   8.883  11.879   3.662
34050W        W 4650  14.853  23.394   3.668
34051W        W 4651  10.409   3.248   5.316
34052W        W 4652  44.697  21.612  11.100
34053W        W 4653  23.987  38.896   1.718
34054W        W 4654  32.166  44.416   1.918
34055W        W 4655  14.887   0.371   0.469
34056W        W 4656  10.089   8.538  14.342
34057W        W 4657  17.553  40.515  10.630
34058W        W 4658  16.281  10.850  12.346
34059W        W 4659  30.938  21.998  14.362
34060W        W 4660   5.924  28.503   3.827
34061W        W 4661   6.146  13.988  11.596
34062W        W 4662   6.659  27.166   1.353
34063W        W 4663   3.431  43.339   2.259
34064W        W 4664  16.028  32.539   5.572
34065W        W 4665  11.289  19.640  10.620
34066W        W 4666  42.312  13.169   1.798
34067W        W 4667  37.438  38.987   3.614
34068W        W 4668  41.784  35.601   2.719
34069W        W 4669  19.224  32.582  13.639
34070W        W 4670  25.944  41.970   4.784
34071W        W 4671  12.810   9.476   2.455
34072W        W 4672  38.310   1.177  14.856
34073W        W 4673  32.612   8.725   0.872
34074W        W 4674  33.944  32.388  12.964
34075W        W 4675  41.420  41.569  14.211
34076W        W 4676  23.230  17.659  12.589
34077W        W 4677  44.193  26.428  12.818
34078W        W 4678  20.472  34.373  13.914
34079W        W 4679  15.597   6.179  12.220
34080W        W 4680  35.052   9.414  11.135
34081W        W 4681   3.946  34.003   0.440
34082W        W 4682  24.282   1.913   4.538
34083W        W 4683  12.672  29.077   0.442
34084W        W 4684  28.398  32.385   3.298
34085W        W 4685  41.886   3.874  12.669
34086W        W 4686  21.153  23.826   0.021
34087W        W 4687  10.166  43.904   0.751
34088W        W 4688  16.613  30.638   0.968
34089W        W 4689  35.071   1.367  14.987
34090W        W 4690  26.484  36.033  14.333
34091W        W 4691  30.403  34.481   3.375
34092W        W 4692  40.188  42.647   4.551
34093W        W 4693  14.444  25.181  10.347
34094W        W 4694   2.852   5.202  13.004
34095W        W 4695  20.777  37.206   4.194
34096W        W 4696  18.832  36.844   1.404
34097W        W 4697   2.644  26.069  13.140
34098W        W 4698  25.673   3.017  11.115
34099W        W 4699  38.493  42.504  14.867
34100W        W 4700  39.482  41.331   1.931
34101W        W 4701  11.197   0.941  12.568
34102W        W 4702  42.109  10.770  13.501
34103W        W 4703  36.164  26.868  11.661
34104W        W 4704  10.832   3.746  14.971
34105W        W 4705  28.560   4.102   1.438
34106W        W 4706  36.337   2.530  11.629
34107W        W 4707   0.701  40.066  11.540
34108W        W 4708  39.708  20.655  11.628
34109W        W 4709   1.348  34.651   0.166
34110W        W 4710  16.611  43.075  10.191
34111W        W 4711   1.753  39.302  14.401
34112W        W 4712   4.935   4.698   3.593
34113W        W 4713  19.298  16.289  14.415
34114W        W 4714  17.332   6.331   4.536
34115W        W 4715  14.517  25.718  13.599
34116W        W 4716   4.516  18.516   4.264
34117W        W 4717   7.086  30.000   0.857
34118W        W 4718  28.955  23.094   1.744
34119W        W 4719  16.080  39.917  11.899
34120W        W 4720  17.045  31.970  10.718
34121W        W 4721  11.679  27.536  12.981
34122W        W 4722  42.573   8.459   3.601
34123W        W 4723  39.050  31.112  13.266
34124W        W 4724  19.286  43.307  12.814
34125W        W 4725  21.070  28.432   1.525
34126W        W 4726  11.647  28.309  12.511
34127W        W 4727  28.689  36.856  10.667
34128W        W 4728  25.005  20.973  13.861
34129W        W 4729  38.452  22.973   3.755
34130W        W 4730  36.160  39.947   0.404
34131W        W 4731  35.086  15.342  12.829
34132W        W 4732  43.444   7.878   3.771
34133W        W 4733   3.211   7.885   0.955
34134W        W 4734  25.668   7.842   4.208
34135W        W 4735  30.405   0.400  13.583
34136W        W 4736   1.093  44.260  13.377
34137W        W 4737  35.167  20.255  14.300
34138W        W 4738  25.585   7.914  13.498
34139W        W 4739  37.407  17.832  13.543
34140W        W 4740  38.850  22.615   5.025
34141W        W 4741  22.759  41.481   1.181
34142W        W 4742  44.386  14.028   5.033
34143W        W 4743  15.787  29.889   2.714
34144W        W 4744   6.457  22.774  12.562
34145W        W 4745   4.732  23.197  13.789
34146W        W 4746  36.464  15.185   0.365
34147W        W 4747   1.394  10.119  13.644
34148W        W 4748   2.867  18.231  14.656
34149W        W 4749  29.156   3.412  11.944
34150W        W 4750   5.510  30.101  11.906
34151W        W 4751  16.531   7.233  12.579
34152W        W 4752  30.549  32.619  14.935
34153W        W 4753  35.074   0.335  13.016
34154W        W 4754  36.999   7.304   0.709
34155W        W 4755  37.576  21.621   2.356
34156W        W 4756  37.051  32.895   2.952
34157W        W 4757   6.495  35.364  12.619
34158W        W 4758   3.505   0.914   2.692
34159W        W 4759  37.395   5.115  13.890
34160W        W 4760  25.521  32.629   4.399
34161W        W 4761   4.182  24.275  10.676
34162W        W 4762  20.449  35.545   4.001
34163W        W 4763  13.635  41.248   3.740
34164W        W 4764   8.416  13.873   4.684
34165W        W 4765   2.658   9.086  14.419
34166W        W 4766  21.573   5.228   4.772
34167W        W 4767  43.340   5.205   3.340
34168W        W 4768  35.882   4.780  11.921
34169W        W 4769  21.624   5.358   2.225
34170W        W 4770  36.463  19.577  11.823
34171W        W 4771   1.193  19.224  11.648
34172W        W 4772   8.885  17.745   1.772
34173W        W 4773  43.783   4.435  13.551
34174W        W 4774  16.603  37.018   4.895
34175W        W 4775  41.878  17.688  13.017
34176W        W 4776  28.432   2.389  14.430
34177W        W 4777  42.378  26.810   1.380
34178W        W 4778  27.042   7.673   0.365
34179W        W 4779  26.904   6.520   2.299
34180W        W 4780  27.233  26.544  11.216
34181W        W 4781  14.291  26.156  13.523
34182W        W 4782  16.805  16.701  13.976
34183W        W 4783  34.648  21.611  11.125
34184W        W 4784  42.380   8.860   1.188
34185W        W 4785  30.213  28.375   3.691
34186W        W 4786   1.435  29.768  13.010
34187W        W 4787  33.892  12.285  11.845
34188W        W 4788  37.630   1.831   0.789
34189W        W 4789  11.027  19.243  11.932
34190W        W 4790  19.924  24.765  11.880
34191W        W 4791  38.925  14.155   0.417
34192W        W 4792   8.489  12.068   2.681
34193W        W 4793  42.790  13.829   1.253
34194W        W 4794   1.720  21.027  14.610
34195W        W 4795  42.348  28.832  11.615
34196W        W 4796   9.283   7.674  12.784
34197W        W 4797  32.125   9.116   2.830
34198W        W 4798  22.502  44.807  12.489
34199W        W 4799  31.331  31.000  12.963
34200W        W 4800  29.378  25.021  13.915
34201W        W 4801   1.359  27.928  10.763
34202W        W 4802  42.374  35.631   4.716
34203W        W 4803  20.670  15.412  14.846
34204W        W 4804   1.751   1.797   4.576
34205W        W 4805  37.069  20.532  12.474
34206W        W 4806  10.254   4.254   4.270
34207W        W 4807   8.381  42.232  14.381
34208W        W 4808  30.993  22.032  12.364
34209W        W 4809  44.279   5.621  13.836
34210W        W 4810  41.686  39.450  11.284
34211W        W 4811  22.955  29.287   1.718
34212W        W 4812  24.138  13.800   2.165
34213W        W 4813  40.821  23.698  14.328
34214W        W 4814   2.301   5.952   4.188
34215W        W 4815  28.917  17.281  13.120
34216W        W 4816  15.638  24.183  13.885
34217W        W 4817  25.251   1.737  11.142
34218W        W 4818  31.532  12.393   2.738
34219W        W 4819  14.865  38.311  14.517
34220W        W 4820  12.105  32.177   0.900
34221W        W 4821  37.303  18.567  13.045
34222W        W 4822  19.661  27.631   0.900
34223W        W 4823   7.002  12.349  12.224
34224W        W 4824   7.748  12.312   1.915
34225W        W 4825  17.089   6.770  11.430
34226W        W 4826  23.529  24.913   0.959
34227W        W 4827  16.019  12.401   0.408
34228W        W 4828  37.096   7.822   1.881
34229W        W 4829  25.104  21.087   0.286
34230W        W 4830  13.551   6.816   2.290
34231W        W 4831  21.587  27.552  13.417
34232W        W 4832  39.507  36.607   2.228
34233W        W 4833  43.051  24.650  11.987
34234W        W 4834  43.302  32.781   4.809
34235W        W 4835   3.165   2.332   0.746
34236W        W 4836  18.260  21.574   1.078
34237W        W 4837  27.505   2.326   3.562
34238W        W 4838  19.203  44.334  13.887
34239W        W 4839  21.310  35.992  12.589
34240W        W 4840   4.234  13.086   1.232
34241W        W 4841  29.915   3.458   2.522
34242W        W 4842  32.022  30.674  12.631
34243W        W 4843  40.864  31.618  12.795
34244W        W 4844  23.808  29.428   0.517
34245W        W 4845  36.799   8.186  14.059
34246W        W 4846  29.917  10.899  12.507
34247W        W 4847  14.191  36.694  13.542
34248W        W 4848   2.908   2.851  12.513
34249W        W 4849  44.730  13.872   2.900
34250W        W 4850  31.146  23.957   3.663
34251W        W 4851   6.809  18.924   3.963
34252W        W 4852  20.312  13.592   0.765
34253W        W 4853  13.718   7.370  14.380
34254W        W 4854  36.600   8.349  12.029
34255W        W 4855   8.679  22.995  11.178
34256W        W 4856  38.976  43.062   3.308
34257W        W 4857  14.219  22.618   3.272
34258W        W 4858  34.807  38.472   3.700
34259W        W 4859   8.861  27.423  13.390
34260W        W 4860  15.024   1.646  11.603
34261W        W 4861  15.998   3.602   4.069
34262W        W 4862  37.078  39.880   2.757
34263W        W 4863  28.141  15.347  11.595
34264W        W 4864  20.724  35.057   2.306
34265W        W 4865  24.147   1.307  11.928
34266W        W 4866  32.904  43.340   2.028
34267W        W 4867  22.127  22.549  14.721
34268W        W 4868  37.924  32.812   2.741
34269W        W 4869   5.227  21.999  13.459
34270W        W 4870  10.270  20.184  14.439
34271W        W 4871  17.041   4.494  11.181
34272W        W 4872  19.599   4.422  12.501
34273W        W 4873   3.365  10.949  13.992
34274W        W 4874  16.396   0.395   2.689
34275W        W 4875  28.926  17.959  12.533
34276W        W 4876  38.311   9.230  13.423
34277W        W 4877  30.927  40.007  11.205
34278W        W 4878  10.860  15.202   4.149
34279W        W 4879  22.075  10.222  11.839
34280W        W 4880   8.943  21.528   3.781
34281W        W 4881   4.555  41.793  11.861
34282W        W 4882  28.465  38.335   0.271
34283W        W 4883  18.520  23.380  10.814
34284W        W 4884  28.598   5.421   0.585
34285W        W 4885  44.898  20.423   1.211
34286W        W 4886  44.812  14.364   2.849
34287W        W 4887  26.444  19.166  10.638
34288W        W 4888  13.215  39.708  12.385
34289W        W 4889  29.173  28.149   0.840
34290W        W 4890   8.293  27.986   4.013
34291W        W 4891  13.632  21.822   3.441
34292W        W 4892  14.378  28.264   3.154
34293W        W 4893  36.600  32.509  13.340
34294W        W 4894  39.594   3.501  12.949
34295W        W 4895  42.013  39.906  14.982
34296W        W 4896  10.364  36.038  12.850
34297W        W 4897  19.639  36.714   5.095
34298W        W 4898  23.561  10.124  11.919
34299W        W 4899   0.555  12.941  13.966
34300W        W 4900  16.267  34.187   4.511
34301W        W 4901  12.340  26.528  12.487
34302W        W 4902  42.448  21.788  11.238
34303W        W 4903  44.019  20.583  12.542
34304W        W 4904  17.479  10.821  12.957
34305W        W 4905   8.655  30.570   3.853
34306W        W 4906  15.145  44.467  14.536
34307W        W 4907  23.758  19.713   2.777
34308W        W 4908  11.767  36.035   1.761
34309W        W 4909   2.167   0.899   0.716
34310W        W 4910  16.542  19.991  14.925
34311W        W 4911  22.815  11.726  12.510
34312W        W 4912  44.809  28.598  11.241
34313W        W 4913  39.489  27.891  11.559
34314W        W 4914  23.629  30.160   2.718
34315W        W 4915  18.605  11.291   2.907
34316W        W 4916  37.282  31.133  14.911
34317W        W 4917   6.805  41.401  12.914
34318W        W 4918   3.269  16.320  14.410
34319W        W 4919   3.020   4.713  12.957
34320W        W 4920  10.297  30.777  14.325
34321W        W 4921  13.714  43.830  12.623
34322W        W 4922  32.153  23.455  10.750
34323W        W 4923  12.771  12.352  11.109
34324W        W 4924  26.711  13.259  12.334
34325W        W 4925  44.220  32.609  13.987
34326W        W 4926  18.060  39.450  10.618
34327W        W 4927  22.747  39.956  12.468
34328W        W 4928  18.643  42.948   4.653
34329W        W 4929   6.231  19.860  11.591
34330W        W 4930   4.671  17.830   2.081
34331W        W 4931   1.625   6.843  14.347
34332W        W 4932   9.513  13.312  14.966
34333W        W 4933  25.808   3.518  11.159
34334W        W 4934  24.459  25.660  11.621
34335W        W 4935  26.132  15.123   4.944
34336W        W 4936  12.862   7.731  14.979
34337W        W 4937  40.007  23.301   2.229
34338W        W 4938  40.613  31.131   2.843
34339W        W 4939   0.415  11.770   4.139
34340W        W 4940  41.731   0.062   0.769
34341W        W 4941  20.560  17.620   2.115
34342W        W 4942  23.311  20.652  14.309
34343W        W 4943  14.137  39.050   1.788
34344W        W 4944  30.494  30.470  11.897
34345W        W 4945  26.571  41.927   2.622
34346W        W 4946  35.372  10.851  12.000
34347W        W 4947   3.349   7.609  11.210
34348W        W 4948  37.209  39.865   1.245
34349W        W 4949   3.773  41.944  13.942
34350W        W 4950   2.668  38.861  11.994
34351W        W 4951  14.218  42.322  10.533
34352W        W 4952   3.833   0.073   4.092
34353W        W 4953  26.384  35.763   2.702
34354W        W 4954  41.817  44.378  10.779
34355W        W 4955  41.750  14.923  11.451
34356W        W 4956  43.539  14.918  14.910
34357W        W 4957   8.259  43.671   3.352
34358W        W 4958   9.661  35.061   2.837
34359W        W 4959  31.880  42.962  12.617
34360W        W 4960  11.907  43.939   0.282
34361W        W 4961  44.315  22.965   0.650
34362W        W 4962  33.032  37.448  13.909
34363W        W 4963  42.893  13.577  13.962
34364W        W 4964  40.982  26.614  10.696
34365W        W 4965  10.709   8.194   4.374
34366W        W 4966  12.850  43.246  13.832
34367W        W 4967   8.793  33.688  10.700
34368W        W 4968  41.463  37.480  11.398
34369W        W 4969  20.161  43.301   4.771
34370W        W 4970  15.993  17.225   2.851
34371W        W 4971  18.151  15.399   0.249
34372W        W 4972  42.734  15.032   2.308
34373W        W 4973  25.165   2.617   5.083
34374W        W 4974   4.313  12.496  12.776
34375W        W 4975  37.972  42.757  13.903
34376W        W 4976  22.485   3.869   0.912
34377W        W 4977  31.718  26.452  12.374
34378W        W 4978   5.257  44.040   3.630
34379W        W 4979   7.708  18.163  14.039
34380W        W 4980   0.007  12.044  14.486
34381W        W 4981  39.001  16.729  13.120
34382W        W 4982  17.672   6.852  12.797
34383W        W 4983   4.678  24.670   3.758
34384W        W 4984   5.846  15.521   1.353
34385W        W 4985   4.205  13.687  10.588
34386W        W 4986  20.019  15.179   0.175
34387W        W 4987  36.513  29.066  14.486
34388W        W 4988  10.729  13.847  10.634
34389W        W 4989  25.016  11.346   0.074
34390W        W 4990  29.204   2.382  13.871
34391W        W 4991  28.382   2.397   0.470
34392W        W 4992  22.186  10.172  12.864
34393W        W 4993  21.979  21.443   2.770
34394W        W 4994  14.369  16.306  12.489
34395W        W 4995  44.236  36.885  13.050
34396W        W 4996  32.364  38.052   2.112
34397W        W 4997  21.492  41.053  11.084
34398W        W 4998  20.584  13.917   2.625
34399W        W 4999   3.112  21.122   1.051
34400W        W 5000   6.023   6.423   2.139
34401W        W 5001  23.037  34.608  14.848
34402W        W 5002   5.799   1.428  14.746
34403W        W 5003  11.775   4.486  11.583
34404W        W 5004  32.008  28.148  10.486
34405W        W 5005  20.749   3.172   4.513
34406W        W 5006   0.200   5.062   3.251
34407W        W 5007  31.322  18.642   0.177
34408W        W 5008  40.874  18.150   9.568
34409W        W 5009  21.514  22.014   4.595
34410W        W 5010  34.289  11.774  14.363
34411W        W 5011  32.020   0.543  13.519
34412W        W 5012  38.707  39.841   1.150
34413W        W 5013  16.764  16.678   3.725
34414W        W 5014   6.694  28.407   2.266
34415W        W 5015  41.926   1.855  10.337
34416W        W 5016   9.298  21.073  14.005
34417W        W 5017  25.160  32.527  11.885
34418W        W 5018  15.167  10.441  12.097
34419W        W 5019  32.459  42.071   0.811
34420W        W 5020  42.952  24.076   4.048
34421W        W 5021  27.133   2.218  14.022
34422W        W 5022  17.219  34.674   1.210
34423W        W 5023   1.417  16.090  11.480
34424W        W 5024  30.075  44.249   4.023
34425W        W 5025   3.587  25.521   0.348
34426W        W 5026   4.320   6.492  14.174
34427W        W 5027   7.691   3.727  12.002
34428W        W 5028  32.488   6.807   4.545
34429W        W 5029   7.360  39.039   4.150
34430W        W 5030  29.551  26.680   2.683
34431W        W 5031  43.224   9.722  12.594
34432W        W 5032  36.436  24.672  11.002
34433W        W 5033  11.075  44.914  14.504
34434W        W 5034  35.480   5.642  14.283
34435W        W 5035  29.955  38.621  10.186
34436W        W 5036  28.334   7.689   1.231
34437W        W 5037  35.468   4.073  12.505
34438W        W 5038  14.096  29.219   3.372
34439W        W 5039  22.752  15.914   3.247
34440W        W 5040  19.684   2.788  11.422
34441W        W 5041  18.628  32.234   5.291
34442W        W 5042   0.562  26.304   5.093
34443W        W 5043  40.995   0.730  11.207
34444W        W 5044  20.489  22.208  10.633
34445W        W 5045   9.788  40.042   0.798
34446W        W 5046  25.738  23.210  10.446
34447W        W 5047  16.570  13.327  13.877
34448W        W 5048   0.709  27.106   0.293
34449W        W 5049  25.485  17.737  13.862
34450W        W 5050  42.565  34.564  13.542
34451W        W 5051  24.134  32.360  13.226
34452W        W 5052  41.325  33.645  11.155
34453W        W 5053   6.622  10.813  14.509
34454W        W 5054  35.397   9.922  14.511
34455W        W 5055  24.963  33.925   1.730
34456W        W 5056  33.922   8.139  11.589
34457W        W 5057  26.192  37.370   3.604
34458W        W 5058  41.001   8.643  14.060
34459W        W 5059  44.818  28.452   3.215
34460W        W 5060  39.438   4.563  14.794
34461W        W 5061   0.830  11.129   0.174
34462W        W 5062  38.837  42.270  11.516
34463W        W 5063  17.949  26.878   2.274
34464W        W 5064   5.406  44.922  11.426
34465W        W 5065  28.115  37.336  12.559
34466W        W 5066   1.090  25.481  12.479
34467W        W 5067  21.337  40.756  10.598
34468W        W 5068   9.214   3.389   0.278
34469W        W 5069  20.233  22.682  12.523
34470W        W 5070  42.184  13.961  13.519
34471W        W 5071  32.608  12.218  10.623
34472W        W 5072  21.918  41.948   4.737
34473W        W 5073  13.883  10.301  10.947
34474W        W 5074  35.552  38.485  13.875
34475W        W 5075  40.991  24.271  11.486
34476W        W 5076  11.579  44.822   2.891
34477W        W 5077   1.978  19.676   5.075
34478W        W 5078  43.863  24.999   0.501
34479W        W 5079  41.529  15.185  14.943
34480W        W 5080   0.235   3.792   4.588
34481W        W 5081   9.104  30.274  10.305
34482W        W 5082   8.288   7.286  13.939
34483W        W 5083  27.428  22.242  13.969
34484W        W 5084  11.054  12.171  13.954
34485W        W 5085   8.750   5.810  11.311
34486W        W 5086  28.133  40.027  11.108
34487W        W 5087  38.575   7.135   2.234
34488W        W 5088  34.643  41.112  11.609
34489W        W 5089  37.853  19.877   3.300
34490W        W 5090  38.600  39.366   4.599
34491W        W 5091   5.177  27.422  14.358
34492W        W 5092  22.181  12.264  10.715
34493W        W 5093  40.369  35.281  12.933
34494W        W 5094   9.404  39.896   3.628
34495W        W 5095  20.354   7.548   1.414
34496W        W 5096  12.158  15.398   2.791
34497W        W 5097  20.592  24.559  14.540
34498W        W 5098  13.553  32.253  12.559
34499W        W 5099  10.911  21.145   3.284
34500W        W 5100  44.608  34.552   0.439
34501W        W 5101   5.903  41.544  12.379
34502W        W 5102   9.729  22.644   2.155
34503W        W 5103  28.393  33.958  11.409
34504W        W 5104  36.053   6.714   3.798
34505W        W 5105   0.657  15.887  13.541
34506W        W 5106  17.704   7.829   0.856
34507W        W 5107   2.742  38.556  11.483
34508W        W 5108  43.557  40.612   0.447
34509W        W 5109  15.023   5.730  14.084
34510W        W 5110  31.552   2.053   0.369
34511W        W 5111  10.243  21.655  14.927
34512W        W 5112  18.589  38.942  11.760
34513W        W 5113  24.593  32.960  10.676
34514W        W 5114  27.265  37.506   1.817
34515W        W 5115   4.809   0.885   0.684
34516W        W 5116  29.907  23.668  12.951
34517W        W 5117   3.261  42.556  13.769
34518W        W 5118   2.005  26.468  11.085
34519W        W 5119  34.740  21.987  11.831
34520W        W 5120  26.794  44.901  13.887
34521W        W 5121  36.594  29.370   2.233
34522W        W 5122   0.984  16.375  11.468
34523W        W 5123  28.157  15.647  10.220
34524W        W 5124   4.197  15.478   4.024
34525W        W 5125  15.784  25.906  11.218
34526W        W 5126   9.741  27.848  11.958
34527W        W 5127  43.280  10.560   1.503
34528W        W 5128  10.114  18.233   3.447
34529W        W 5129  42.411   9.756   2.725
34530W        W 5130  28.721  40.013  14.594
34531W        W 5131   9.712  24.210   0.218
34532W        W 5132  22.485  12.750   0.696
34533W        W 5133   3.100  27.926   3.134
34534W        W 5134  15.174   6.962   4.653
34535W        W 5135   6.496  41.762  13.124
34536W        W 5136  34.375  38.221  12.841
34537W        W 5137  38.601  21.634   2.291
34538W        W 5138  33.949   9.701  12.770
34539W        W 5139   7.927  29.569  14.761
34540W        W 5140  21.270  29.918  12.962
34541W        W 5141  27.009   1.974   0.498
34542W        W 5142   5.424  36.512   4.731
34543W        W 5143   6.988  17.121  12.058
34544W        W 5144  12.493  22.923   3.373
34545W        W 5145  42.705  41.772  13.331
34546W        W 5146  26.647   3.072  11.493
34547W        W 5147  22.625  20.488   4.160
34548W        W 5148  17.582   8.806  12.419
34549W        W 5149   4.160   6.073  13.941
34550W        W 5150  38.432   0.513   4.762
34551W        W 5151   7.660  18.689   3.213
34552W        W 5152  25.493  28.071   4.697
34553W        W 5153  27.610   9.014   4.113
34554W        W 5154   5.494  23.054  14.263
34555W        W 5155  34.942  36.641   0.860
34556W        W 5156  25.201   7.186   1.432
34557W        W 5157  27.478  18.080   3.683
34558W        W 5158  19.299  10.372   2.595
34559W        W 5159  29.132  23.686  12.462
34560W        W 5160  40.037   1.939  12.159
34561W        W 5161  17.480  40.553  11.916
34562W        W 5162   9.716  31.346   1.290
34563W        W 5163   2.964  30.903   4.158
34564W        W 5164  15.241  20.184   4.533
34565W        W 5165  12.205  12.259  14.718
34566W        W 5166   5.997  20.637  13.344
34567W        W 5167  21.752  32.582  11.598
34568W        W 5168  16.697   0.978   1.395
34569W        W 5169  42.398   8.325   5.577
34570W        W 5170  20.995  38.559   3.679
34571W        W 5171  32.283  25.544   0.805
34572W        W 5172  33.967  16.227   1.460
34573W        W 5173  19.913  13.869  13.024
34574W        W 5174  39.022  15.477   1.758
34575W        W 5175  31.910  27.022  14.087
34576W        W 5176  25.244   6.881  10.398
34577W        W 5177  31.147  19.538   3.633
34578W        W 5178  25.516  33.117   4.651
34579W        W 5179  23.604  12.225  13.421
34580W        W 5180   9.722  28.089  13.004
34581W        W 5181  44.904   4.233  10.603
34582W        W 5182   5.184  14.860   4.615
34583W        W 5183  12.392  15.254   2.286
34584W        W 5184  35.347  21.245   2.245
34585W        W 5185  37.269   3.663  10.804
34586W        W 5186  27.914  11.777  10.671
34587W        W 5187  31.033  44.139   0.174
34588W        W 5188   0.103  19.069   1.514
34589W        W 5189  34.438  29.404  12.315
34590W        W 5190  28.986  26.103  11.681
34591W        W 5191  34.546  21.688  13.004
34592W        W 5192  19.106  42.297   2.214
34593W        W 5193  18.528  10.831  11.239
34594W        W 5194  26.207  23.580   1.768
34595W        W 5195  43.451  14.529   0.236
34596W        W 5196  23.959  31.847   1.349
34597W        W 5197   1.698   1.740  13.315
34598W        W 5198  21.746  26.050   3.392
34599W        W 5199  17.196  37.510  14.584
34600W        W 5200  12.324  42.942  12.403
34601W        W 5201  29.578  30.176   1.426
34602W        W 5202  39.229  39.972  12.572
34603W        W 5203  26.994  13.777   4.557
34604W        W 5204  25.050  13.355  10.689
34605W        W 5205  43.323  28.992  12.921
34606W        W 5206  17.259  21.220   0.423
34607W        W 5207  19.882  20.740  13.276
34608W        W 5208  43.830  27.086  10.706
34609W        W 5209   3.453  34.578  13.704
34610W        W 5210  31.861  12.633   1.426
34611W        W 5211   0.496  40.894   2.950
34612W        W 5212  27.008  24.964   4.210
34613W        W 5213  35.126  16.272  14.922
34614W        W 5214  42.745  13.882   4.565
34615W        W 5215  24.949  34.643   3.226
34616W        W 5216  11.796  28.514   4.548
34617W        W 5217  22.124  21.286  14.022
34618W        W 5218  18.316  34.525   3.718
34619W        W 5219  12.616  37.963  12.994
34620W        W 5220  19.122  20.863   2.714
34621W        W 5221  27.319  22.812   3.117
34622W        W 5222  33.899  34.030  10.889
34623W        W 5223  20.923  34.686   5.193
34624W        W 5224  24.558  18.262   1.684
34625W        W 5225   4.702  14.624   1.842
34626W        W 5226  32.581  13.209  12.528
34627W        W 5227   6.755  17.538  14.667
34628W        W 5228   2.230  28.647   0.668
34629W        W 5229  11.075  22.647   1.916
34630W        W 5230  22.454  14.105   1.761
34631W        W 5231  18.683  35.314   4.481
34632W        W 5232  43.113  11.040  13.950
34633W        W 5233  16.401  13.090  11.084
34634W        W 5234   4.189  34.362  11.871
34635W        W 5235  39.911  26.511   1.498
34636W        W 5236  37.520  40.878   1.999
34637W        W 5237  10.435  27.924  13.783
34638W        W 5238   3.826  25.189  10.929
34639W        W 5239  41.993  18.116  13.955
34640W        W 5240  37.115  16.045  11.186
34641W        W 5241  18.552  41.788   2.639
34642W        W 5242  36.573   8.244   2.635
34643W        W 5243  26.108  17.399   1.339
34644W        W 5244   6.663   9.454  13.503
34645W        W 5245  33.431  10.800  10.516
34646W        W 5246  37.834  23.259  14.537
34647W        W 5247  21.017   6.434   3.466
34648W        W 5248  26.377  13.123  13.920
34649W        W 5249  29.389  18.017   4.568
34650W        W 5250  43.003   2.801   1.723
34651W        W 5251  19.731  11.677  12.576
34652W        W 5252  18.854  10.550  13.823
34653W        W 5253  24.415  43.909   0.751
34654W        W 5254  12.305  39.683   3.365
34655W        W 5255  15.653  11.903  14.530
34656W        W 5256   0.981  31.796   2.842
34657W        W 5257   9.898  27.495   3.652
34658W        W 5258  15.051  23.107  14.755
34659W        W 5259  35.579   7.820   0.804
34660W        W 5260  44.043   8.275  12.896
34661W        W 5261  37.990  27.369   1.788
34662W        W 5262  34.564  21.735   2.256
34663W        W 5263  14.247  20.565   3.181
34664W        W 5264  34.405   3.734   3.636
34665W        W 5265  18.673  44.343  10.654
34666W        W 5266  35.735  24.194   1.838
34667W        W 5267  26.161  37.097   0.446
34668W        W 5268  25.932   9.731  11.080
34669W        W 5269   1.229  11.714  13.329
34670W        W 5270  36.424  16.068  12.019
34671W        W 5271   1.469  43.519   0.197
34672W        W 5272  24.467  31.725   3.282
34673W        W 5273  32.985  16.367   3.743
34674W        W 5274   3.467  39.437  12.134
34675W        W 5275   3.515  43.888  14.449
34676W        W 5276  28.533   1.962   3.262
34677W        W 5277   6.589  20.370  14.437
34678W        W 5278  40.790   5.823   1.977
34679W        W 5279   2.333  41.352   4.718
34680W        W 5280  14.658  31.319   2.976
34681W        W 5281  43.163  39.413   2.394
34682W        W 5282  20.038  25.556   1.708
34683W        W 5283  44.342  13.417  13.088
34684W        W 5284  13.044   0.914   4.145
34685W        W 5285  20.808  10.766  14.805
34686W        W 5286  28.703  21.588  13.016
34687W        W 5287  21.732  16.147  13.822
34688W        W 5288  13.029  35.884   0.304
34689W        W 5289  39.287  33.595  14.533
34690W        W 5290  15.816  18.154   4.076
34691W        W 5291  17.803  40.061  13.157
34692W        W 5292  10.195  39.144  14.462
34693W        W 5293  30.972  29.746   1.356
34694W        W 5294  39.751  19.555   0.297
34695W        W 5295  31.650  12.329   0.255
34696W        W 5296  17.606  32.637  13.279
34697W        W 5297  19.706  20.494   0.035
34698W        W 5298  42.037  38.140   4.191
34699W        W 5299  41.219   7.180   2.594
34700W        W 5300   0.916  22.397  11.998
34701W        W 5301  43.366  26.564   0.695
34702W        W 5302  23.915   0.297   3.665
34703W        W 5303  14.400  20.020   2.806
34704W        W 5304  27.999  28.141   2.170
34705W        W 5305  29.668   5.262  11.649
34706W        W 5306  32.554  35.014  14.300
34707W        W 5307   8.881  23.416  12.013
34708W        W 5308  40.001  42.213  11.195
34709W        W 5309  42.520  24.610   3.789
34710W        W 5310  20.405  33.072   3.226
34711W        W 5311   3.018   5.997  12.630
34712W        W 5312   6.279  34.472  12.095
34713W        W 5313  19.439  16.322  12.086
34714W        W 5314  28.189   3.253   0.023
34715W        W 5315  38.735   3.439   5.128
34716W        W 5316   3.981  23.816  12.190
34717W        W 5317  29.507   5.812   0.795
34718W        W 5318  17.126  33.150  13.310
34719W        W 5319  31.946   9.773  13.915
34720W        W 5320  21.527  13.719  14.554
34721W        W 5321  11.706  17.947   3.808
34722W        W 5322  37.964  28.450   3.238
34723W        W 5323  38.469  22.779   4.658
34724W        W 5324  14.680   3.233   3.795
34725W        W 5325   7.301  23.984   4.591
34726W        W 5326  17.523  19.279  13.201
34727W        W 5327  21.048  28.634   0.485
34728W        W 5328   5.743   4.936   4.649
34729W        W 5329  41.295  36.043  11.000
34730W        W 5330  25.699  39.412   4.353
34731W        W 5331  29.057  16.834   2.163
34732W        W 5332  34.921  13.002   4.178
34733W        W 5333  43.204  13.498   1.324
34734W        W 5334  39.115  30.905   3.652
34735W        W 5335  11.836  10.317  14.105
34736W        W 5336  37.055  41.959  14.618
34737W        W 5337  27.083  30.431   0.370
34738W        W 5338  14.207  21.752   4.194
34739W        W 5339  38.059  30.985  12.177
34740W        W 5340  32.141  38.976  12.594
34741W        W 5341  28.010   4.461  13.278
34742W        W 5342  13.620  24.718  12.544
34743W        W 5343  33.401  17.119  11.910
34744W        W 5344  10.783  22.707   0.956
34745W        W 5345  31.674  20.048   2.371
34746W        W 5346  10.084  41.839  14.780
34747W        W 5347  36.303   9.246  13.602
34748W        W 5348  25.171   2.006   3.624
34749W        W 5349  32.260  42.830  14.812
34750W        W 5350  28.529   6.794  10.675
34751W        W 5351  20.632   6.355  10.922
34752W        W 5352   6.146  11.583   3.713
34753W        W 5353  30.571  38.948   3.681
34754W        W 5354   3.643  30.133  11.477
34755W        W 5355  18.684  34.521  13.263
34756W        W 5356   4.704  21.155  10.720
34757W        W 5357  21.990  15.395   1.661
34758W        W 5358  15.711   2.447  13.343
34759W        W 5359  25.970  24.497  10.632
34760W        W 5360   4.315  30.024   0.803
34761W        W 5361  29.281   6.323   2.821
34762W        W 5362   8.810  29.851   0.715
34763W        W 5363  42.600  16.351  10.825
34764W        W 5364  38.426  42.485  13.779
34765W        W 5365   6.839  23.930  11.191
34766W        W 5366   4.505   7.628   4.894
34767W        W 5367  36.030  23.398  12.461
34768W        W 5368   4.940  17.454  13.862
34769W        W 5369  38.865  31.139   4.286
34770W        W 5370  30.955  26.466   2.731
34771W        W 5371  29.355   7.785   1.200
34772W        W 5372  25.181  19.090  12.190
34773W        W 5373  44.456   4.204   3.443
34774W        W 5374  39.419  28.409  11.449
34775W        W 5375  17.787   5.554  13.136
34776W        W 5376   2.888  22.700  12.071
34777W        W 5377  39.021   8.067   0.915
34778W        W 5378  16.738  25.913  11.032
34779W        W 5379  12.693   8.716  13.542
34780W        W 5380  34.573  44.294   3.694
34781W        W 5381  38.840   2.932  13.905
34782W        W 5382   6.780  29.623   5.037
34783W        W 5383  22.115  19.774   0.394
34784W        W 5384  23.933  41.609  13.019
34785W        W 5385  16.444   1.807   3.705
34786W        W 5386  36.986   2.676  12.320
34787W        W 5387  30.772   4.421  11.993
34788W        W 5388   2.373  10.203   1.899
34789W        W 5389  43.851  18.068   3.731
34790W        W 5390   4.880  20.844  12.313
34791W        W 5391  19.250  21.259   1.750
34792W        W 5392   5.314  32.271  10.702
34793W        W 5393  37.021  29.096  12.549
34794W        W 5394  44.902  33.027   0.272
34795W        W 5395  40.571  32.525  11.081
34796W        W 5396   4.407   9.740   4.152
34797W        W 5397   5.643  20.220  14.249
34798W        W 5398  41.304  40.030   3.898
34799W        W 5399  31.516  27.168   0.682
34800W        W 5400  16.050  30.963   2.773
34801W        W 5401  25.800   0.071  11.622
34802W        W 5402   8.768  24.424  11.995
34803W        W 5403  29.882   1.629   4.085
34804W        W 5404  25.106  17.756  11.626
34805W        W 5405  25.687  29.157   0.351
34806W        W 5406   9.902   2.295  13.048
34807W        W 5407  17.286  22.189   3.851
34808W        W 5408  22.812   9.125   0.634
34809W        W 5409  31.931  39.580  11.560
34810W        W 5410  35.374  23.091   0.881
34811W        W 5411  25.727  25.481   1.361
34812W        W 5412  41.864  25.954  14.379
34813W        W 5413   7.819  40.814  12.828
34814W        W 5414   3.147  39.918  14.080
34815W        W 5415   1.281  14.250   1.534
34816W        W 5416  16.225   7.516   2.356
34817W        W 5417  32.687  40.744  10.876
34818W        W 5418  30.521  34.005   0.785
34819W        W 5419   7.297  25.470   2.441
34820W        W 5420   8.204  29.611   1.441
34821W        W 5421   7.022  26.598  13.605
34822W        W 5422  42.057  36.535  11.170
34823W        W 5423  24.207  29.393  11.113
34824W        W 5424  40.478   9.292  14.016
34825W        W 5425  32.490  14.603   1.300
34826W        W 5426  18.167  14.180  14.870
34827W        W 5427  36.461  13.887   0.880
34828W        W 5428  24.228  18.080   3.327
34829W        W 5429  15.934  22.649  11.608
34830W        W 5430   0.210   8.232  12.033
34831W        W 5431  10.239  35.190   2.226
34832W        W 5432  19.628   9.737  12.401
34833W        W 5433  40.872  42.401  13.559
34834W        W 5434   3.003  31.048  12.176
34835W        W 5435  34.899  27.485   2.635
34836W        W 5436  35.626  37.840  12.078
34837W        W 5437  33.504  36.489   3.321
34838W        W 5438  22.422  10.217   3.248
34839W        W 5439  12.703  41.530   4.279
34840W        W 5440  14.754   0.853   0.618
34841W        W 5441  37.075  22.730  12.372
34842W        W 5442   6.312  26.131  13.015
34843W        W 5443  38.961   5.640  13.594
34844W        W 5444  15.768  11.765  12.012
34845W        W 5445  26.180  15.308   4.455
34846W        W 5446  16.099  23.095   0.663
34847W        W 5447  10.401  12.714   3.867
34848W        W 5448  36.562  32.145  10.616
34849W        W 5449   3.120  14.265   2.208
34850W        W 5450  32.907  18.077  11.404
34851W        W 5451  19.616  24.503   0.942
34852W        W 5452  21.089   0.246  13.973
34853W        W 5453  27.468  33.552   4.143
34854W        W 5454  43.533  11.199  11.573
34855W        W 5455  43.811  35.085  13.448
34856W        W 5456   6.457  17.717  11.573
34857W        W 5457   5.398  26.107  13.552
34858W        W 5458   2.808   1.304   3.322
34859W        W 5459  27.265  31.870   4.129
34860W        W 5460  44.730  14.736  12.495
34861W        W 5461  26.820  39.815   4.660
34862W        W 5462  22.350  29.624  11.072
34863W        W 5463  38.994  11.802  11.989
34864W        W 5464  41.117  23.536   4.170
34865W        W 5465  30.903  37.500   9.903
34866W        W 5466   5.066  41.492   4.095
34867W        W 5467  21.719  26.071   1.146
34868W        W 5468  36.449  23.935   4.559
34869W        W 5469  38.487  37.149   0.542
34870W        W 5470   2.327  20.170   0.382
34871W        W 5471   6.664  16.630  13.898
34872W        W 5472   0.034  39.445   3.078
34873W        W 5473  31.420  22.691   2.004
34874W        W 5474  30.929  34.607  12.045
34875W        W 5475  17.164  19.966   3.296
34876W        W 5476  13.727   7.200  12.413
34877W        W 5477   0.736  22.704   2.366
34878W        W 5478  41.991  29.641  12.149
34879W        W 5479  16.561  26.175  14.812
34880W        W 5480  44.695  28.035  11.122
34881W        W 5481  35.501  31.959   0.134
34882W        W 5482  23.130  16.694   4.330
34883W        W 5483  43.323   6.119   3.040
34884W        W 5484  24.312  31.996   1.936
34885W        W 5485  14.193  18.497   0.813
34886W        W 5486  11.352   5.197  12.796
34887W        W 5487  27.095   3.914  12.585
34888W        W 5488  44.662   0.353  14.311
34889W        W 5489  28.448  41.929   0.681
34890W        W 5490   8.842  14.605  12.273
34891W        W 5491  41.798   5.403  11.134
34892W        W 5492  21.353  16.069   1.774
34893W        W 5493   1.988  15.678   0.300
34894W        W 5494  20.468  43.715   1.682
34895W        W 5495  31.992  26.425   0.901
34896W        W 5496  31.286  31.172  11.570
34897W        W 5497  15.819  39.148  14.808
34898W        W 5498  30.901  21.706  11.576
34899W        W 5499   5.625  11.858   4.083
34900W        W 5500  11.226   6.183  13.919
34901W        W 5501  17.254  40.489   4.964
34902W        W 5502  19.070  20.690  12.914
34903W        W 5503  24.301  36.835  11.132
34904W        W 5504  14.060  17.588   0.931
34905W        W 5505  15.766   0.654  14.561
34906W        W 5506  37.605  44.269  11.862
34907W        W 5507   3.333  32.489   1.488
34908W        W 5508  43.553  22.738  12.302
34909W        W 5509   2.669   1.790  13.063
34910W        W 5510  29.148  37.035  10.408
34911W        W 5511  37.334  30.582   1.398
34912W        W 5512  37.673  12.024  14.418
34913W        W 5513  38.537  36.745   0.230
34914W        W 5514   9.259  39.304   0.259
34915W        W 5515  32.113   9.664   4.618
34916W        W 5516  24.247  12.804  13.616
34917W        W 5517  19.323  31.922   2.056
34918W        W 5518  36.276  11.597  13.881
34919W        W 5519   6.445  17.740   0.953
34920W        W 5520  36.907  19.839  11.052
34921W        W 5521  31.612  18.084   0.982
34922W        W 5522  20.283  21.556   4.618
34923W        W 5523  22.758  13.653  11.216
34924W        W 5524  13.389  27.548   1.445
34925W        W 5525  43.993  16.716  11.909
34926W        W 5526  24.768  44.998   3.621
34927W        W 5527  38.374  40.350   4.726
34928W        W 5528   7.231   4.701  13.922
34929W        W 5529   4.375   3.787  13.859
34930W        W 5530   9.281  43.003   1.459
34931W        W 5531   8.083  42.197  11.596
34932W        W 5532   1.773  39.531   3.714
34933W        W 5533  18.974  44.532   2.554
34934W        W 5534   9.723  17.994   3.738
34935W        W 5535   5.740  34.347  13.404
34936W        W 5536  17.715  26.372  13.803
34937W        W 5537   0.620   5.919  10.576
34938W        W 5538  22.553   1.756  12.536
34939W        W 5539  31.563  13.773   2.167
34940W        W 5540  14.713  13.771  13.811
34941W        W 5541  39.696  22.798  13.370
34942W        W 5542  19.032  36.600   1.863
34943W        W 5543   2.053  34.764  11.106
34944W        W 5544  26.912  17.084   2.425
34945W        W 5545  38.641  28.596   4.305
34946W        W 5546  24.032  14.309   0.013
34947W        W 5547  11.230  22.875  11.402
34948W        W 5548   8.281  15.331  10.555
34949W        W 5549  15.147  31.203  12.897
34950W        W 5550  11.898   7.340   4.639
34951W        W 5551  21.651  20.748  10.728
34952W        W 5552  36.352  23.703   4.110
34953W        W 5553  38.064   1.047  11.924
34954W        W 5554   8.098   5.143  14.557
34955W        W 5555  27.721  43.851   3.696
34956W        W 5556  37.282  41.619  14.280
34957W        W 5557  38.522  11.760  14.345
34958W        W 5558  34.530   3.765  12.926
34959W        W 5559  38.317  44.264  14.591
34960W        W 5560  34.881  17.657   4.517
34961W        W 5561  12.111  25.521  14.603
34962W        W 5562  35.894   3.191   1.215
34963W        W 5563  17.746  33.838   3.881
34964W        W 5564  33.399   9.866   3.129
34965W        W 5565  20.611  10.775  12.866
34966W        W 5566   5.333  32.517   4.691
34967W        W 5567  20.688  41.361  13.781
34968W        W 5568  28.158  12.143   3.189
34969W        W 5569  38.427   9.660   2.343
34970W        W 5570  28.645  44.728  10.365
34971W        W 5571  11.777  12.923   0.315
34972W        W 5572  12.721  28.776  14.538
34973W        W 5573   7.730  30.379   0.176
34974W        W 5574  39.769   0.649  11.593
34975W        W 5575  43.826  41.581   0.353
34976W        W 5576  15.133  11.252   2.874
34977W        W 5577  19.542   1.470  11.676
34978W        W 5578  19.572  14.649  12.354
34979W        W 5579  26.187  34.197   0.811
34980W        W 5580  29.944  37.477  10.895
34981W        W 5581  28.657  34.941  11.459
34982W        W 5582  39.348  25.821   2.503
34983W        W 5583   5.944  22.538   2.871
34984W        W 5584  42.195  44.339   5.053
34985W        W 5585  27.014   5.065  14.754
34986W        W 5586  21.838  37.988   0.752
34987W        W 5587   6.645  32.052   0.766
34988W        W 5588  16.630  36.517   4.983
34989W        W 5589  29.036  14.631   1.946
34990W        W 5590  19.736  14.110   1.619
34991W        W 5591  31.250  16.964  11.599
34992W        W 5592  22.724  14.995   4.143
34993W        W 5593  26.746  13.261  14.270
34994W        W 5594  41.939  40.908  14.736
34995W        W 5595  22.699   5.853  11.101
34996W        W 5596  19.608  21.135  12.349
34997W        W 5597  16.431  31.914   2.820
34998W        W 5598   5.522   2.146   1.114
34999W        W 5599  39.500  38.319   3.684
35000W        W 5600  31.383  22.121   4.286
35001W        W 5601  28.273  39.036  14.856
35002W        W 5602   4.962  32.431   4.311
35003W        W 5603  21.192  20.497  14.878
35004W        W 5604  20.199  15.220  12.011
35005W        W 5605  25.081  22.562  11.398
35006W        W 5606  22.107  13.034   4.220
35007W        W 5607  19.963  34.050  14.421
35008W        W 5608  21.052  24.490  14.243
35009W        W 5609   0.932  30.462   3.056
35010W        W 5610  25.956  11.689   0.338
35011W        W 5611   6.870  10.961  11.587
35012W        W 5612  15.625   1.382  12.431
35013W        W 5613  33.203   6.395   0.862
35014W        W 5614  25.616   2.970  12.025
35015W        W 5615   8.275  23.054  13.571
35016W        W 5616  33.645  32.409   4.552
35017W        W 5617  30.387  37.396  12.122
35018W        W 5618  40.715  20.946   4.934
35019W        W 5619  44.957  19.102   2.756
35020W        W 5620  10.858   2.683   0.530
35021W        W 5621  23.135  37.497  10.488
35022W        W 5622   4.685  11.912  13.110
35023W        W 5623  20.226  22.508   4.727
35024W        W 5624  22.421  37.472   2.659
35025W        W 5625  25.671  29.686   0.306
35026W        W 5626  44.982  43.332   3.654
35027W        W 5627   9.857  16.166   1.194
35028W        W 5628   8.370  11.169  11.981
35029W        W 5629  43.293  21.154   2.340
35030W        W 5630  38.952  11.393  14.083
35031W        W 5631  20.171  38.955  10.318
35032W        W 5632  33.285  18.773   3.341
35033W        W 5633  16.681  21.659  14.322
35034W        W 5634  26.647   7.280  12.267
35035W        W 5635  34.891  16.357  12.954
35036W        W 5636  13.166   9.957  14.380
35037W        W 5637  38.879  25.600  12.924
35038W        W 5638  28.538  43.251  11.680
35039W        W 5639  37.457   9.582   2.635
35040W        W 5640  12.670  32.458  12.873
35041W        W 5641   3.936  33.597   1.132
35042W        W 5642  41.539  38.647   0.328
35043W        W 5643   1.245   3.713   2.667
35044W        W 5644  15.372   6.360  14.166
35045W        W 5645   7.877  39.385   2.354
35046W        W 5646   6.849   6.945   1.373
35047W        W 5647  15.431  16.366   2.805
35048W        W 5648   0.480  28.090  12.972
35049W        W 5649   6.198  33.012  13.477
35050W        W 5650  30.415   9.099  12.466
35051W        W 5651  31.130  13.050   2.555
35052W        W 5652  22.685  27.463  10.708
35053W        W 5653   9.761  27.131  11.954
35054W        W 5654  21.154  26.690   4.002
35055W        W 5655   6.585  26.581  12.821
35056W        W 5656  31.136  12.281  12.062
35057W        W 5657   7.172  33.170   3.074
35058W        W 5658  41.335  40.035  11.091
35059W        W 5659  43.814   6.729  12.635
35060W        W 5660  11.418  43.957  14.511
35061W        W 5661  16.202  31.869  14.803
35062W        W 5662   3.399   9.362  14.938
35063W        W 5663  38.101  32.380   3.624
35064W        W 5664   1.927   0.896   0.103
35065W        W 5665  35.536  22.088   1.784
35066W        W 5666  34.996  27.884  13.885
35067W        W 5667  29.036  17.156   4.287
35068W        W 5668   7.485  22.138  11.951
35069W        W 5669  32.954  34.436   4.209
35070W        W 5670  10.538   6.591   2.740
35071W        W 5671  36.995  44.284   3.219
35072W        W 5672  12.585  37.428  11.421
35073W        W 5673   8.327  29.753  13.917
35074W        W 5674  10.814  41.001   1.425
35075W        W 5675  38.714   2.006   0.444
35076W        W 5676  40.334  10.613  10.935
35077W        W 5677  13.101  11.620  11.128
35078W        W 5678  27.716  19.474   4.989
35079W        W 5679  29.622  11.761   3.289
35080W        W 5680  24.070  26.930  14.515
35081W        W 5681  37.577  34.390  11.161
35082W        W 5682  33.200  33.579  13.361
35083W        W 5683   9.976  43.591  12.608
35084W        W 5684  37.038  22.225   2.205
35085W        W 5685  19.532  12.404   3.347
35086W        W 5686  21.610  13.161  14.418
35087W        W 5687   4.830  39.416  12.487
35088W        W 5688  34.053   5.574  14.297
35089W        W 5689  12.233  30.873  13.009
35090W        W 5690  27.183  32.436   4.636
35091W        W 5691   4.015  11.093   0.937
35092W        W 5692  15.290  24.776  10.687
35093W        W 5693  34.873  31.629   4.906
35094W        W 5694  30.071  24.222  12.523
35095W        W 5695   0.853  24.878  10.761
35096W        W 5696   7.670  12.728  10.991
35097W        W 5697   2.874  15.186  11.945
35098W        W 5698   3.616  20.844  12.892
35099W        W 5699  13.624   0.521  14.776
35100W        W 5700  30.173  24.969  14.362
35101W        W 5701  14.355  40.532   4.634
35102W        W 5702   7.836  31.151   2.705
35103W        W 5703   6.401  18.179   2.719
35104W        W 5704  35.000  32.523   4.472
35105W        W 5705  34.700  15.075  13.068
35106W        W 5706  31.594  26.384   3.191
35107W        W 5707  43.304  10.760  10.777
35108W        W 5708  38.565   0.800  12.055
35109W        W 5709  32.134  37.824   3.774
35110W        W 5710  22.710  39.132  14.476
35111W        W 5711  33.074  44.451   2.741
35112W        W 5712  20.209   0.932  13.889
35113W        W 5713  30.540   0.483   4.749
35114W        W 5714  30.632  30.639   4.409
35115W        W 5715  19.798  18.355   4.215
35116W        W 5716  30.694  22.707   1.381
35117W        W 5717  30.012   8.667  12.893
35118W        W 5718   1.257  11.369   4.898
35119W        W 5719  12.012  12.116   2.756
35120W        W 5720  24.237  26.588   0.452
35121W        W 5721  38.817   8.599  14.911
35122W        W 5722  41.005   5.126   2.721
35123W        W 5723  42.226  12.653   2.665
35124W        W 5724   2.795  41.076  14.342
35125W        W 5725  21.148  10.514   1.180
35126W        W 5726  15.753   5.356  12.589
35127W        W 5727  14.796   9.989   4.057
35128W        W 5728  27.874  16.796   5.043
35129W        W 5729  42.317  18.836   0.121
35130W        W 5730  35.028  43.440   4.869
35131W        W 5731  18.164   7.195   1.394
35132W        W 5732  26.699  18.283  10.256
35133W        W 5733  27.502   6.622   4.623
35134W        W 5734  27.678  28.031   3.402
35135W        W 5735  37.691  13.360  14.944
35136W        W 5736  18.504  42.336  12.456
35137W        W 5737  33.441   9.333   0.309
35138W        W 5738  25.813   7.133   3.709
35139W        W 5739  16.295  39.520  11.153
35140W        W 5740  19.082  32.060   1.021
35141W        W 5741  36.991   4.876   3.667
35142W        W 5742  16.983  27.763  11.135
35143W        W 5743  22.998  20.109   1.975
35144W        W 5744  25.407   8.351   0.471
35145W        W 5745  39.586  28.443  12.446
35146W        W 5746  16.615  39.101   4.726
35147W        W 5747  30.479   4.672  10.910
35148W        W 5748  21.856  29.315   1.436
35149W        W 5749   0.905  34.122   0.947
35150W        W 5750  13.700  36.387  10.463
35151W        W 5751   1.047  35.918  13.991
35152W        W 5752   6.152  16.306   3.633
35153W        W 5753  36.510   2.784  12.494
35154W        W 5754  27.640  20.264   0.515
35155W        W 5755  40.763   8.726  13.115
35156W        W 5756   0.356   5.859   4.492
35157W        W 5757  19.274   8.955  12.059
35158W        W 5758   6.312  44.908   3.159
35159W        W 5759  11.554  39.524   0.805
35160W        W 5760  29.048  27.906   2.538
35161W        W 5761  34.987  14.959   1.332
35162W        W 5762  11.891  13.298  11.252
35163W        W 5763  41.759  28.431  13.341
35164W        W 5764  33.006  23.259  14.312
35165W        W 5765  17.814  32.456  11.441
35166W        W 5766   5.479  18.402  14.252
35167W        W 5767  25.041  26.662  13.484
35168W        W 5768  17.271  19.003   4.688
35169W        W 5769  27.990  23.916  10.859
35170W        W 5770  17.828  20.761   2.311
35171W        W 5771  40.351  22.122   2.307
35172W        W 5772  17.197   2.718   4.176
35173W        W 5773  43.257  27.000   1.237
35174W        W 5774  29.899  36.994  12.995
35175W        W 5775  22.315  39.900   4.707
35176W        W 5776  21.604  25.701  13.954
35177W        W 5777  40.017  20.254  12.861
35178W        W 5778  39.826  27.733   3.396
35179W        W 5779  15.393  28.380  13.012
35180W        W 5780   0.837  41.846   4.883
35181W        W 5781   5.295  11.340   3.323
35182W        W 5782  19.777  23.139   0.951
35183W        W 5783   2.653  26.899  13.485
35184W        W 5784  32.089   0.957   4.577
35185W        W 5785   7.221  19.978   4.554
35186W        W 5786  38.845  27.694  12.500
35187W        W 5787  21.687  17.222  14.979
35188W        W 5788   7.174  28.370  10.616
35189W        W 5789  31.734  23.015   2.312
35190W        W 5790  20.601   5.737  13.217
35191W        W 5791  39.077  15.260   3.310
35192W        W 5792  27.435  36.929   2.926
35193W        W 5793  38.034  19.145  14.812
35194W        W 5794  38.310  26.784   4.628
35195W        W 5795  24.091   5.654   2.185
35196W        W 5796  31.349  43.030  12.656
35197W        W 5797  15.825  12.702  12.842
35198W        W 5798  44.520  26.001   1.373
35199W        W 5799  40.866  39.841   0.729
35200W        W 5800   3.467   4.396   3.973
35201W        W 5801  34.067  40.528  13.467
35202W        W 5802  19.129  20.996  14.778
35203W        W 5803  39.644   4.326  12.603
35204W        W 5804  38.903  29.628  10.043
35205W        W 5805   0.747  25.615   1.859
35206W        W 5806  43.433  42.578  13.913
35207W        W 5807  15.547  20.183  14.932
35208W        W 5808   1.839   2.987  11.125
35209W        W 5809  30.218   2.304   2.715
35210W        W 5810  22.808  30.892   4.106
35211W        W 5811   1.229  16.607   0.710
35212W        W 5812  19.067  40.869   4.694
35213W        W 5813  28.683  16.216  10.702
35214W        W 5814   6.214  30.746  14.781
35215W        W 5815  34.828  44.336  12.945
35216W        W 5816  44.393  36.323   1.823
35217W        W 5817  23.063   8.275   3.085
35218W        W 5818  28.495  24.051   1.627
35219W        W 5819  36.510  26.731   2.749
35220W        W 5820   5.243  22.751  14.891
35221W        W 5821  25.946   7.456  10.289
35222W        W 5822  43.585  10.861  12.124
35223W        W 5823  23.493  22.390   2.736
35224W        W 5824  40.421  36.441   2.178
35225W        W 5825  42.308  15.565  13.493
35226W        W 5826  26.786  31.129   1.920
35227W        W 5827  28.921  30.117  10.775
35228W        W 5828  27.187  18.801  13.175
35229W        W 5829  25.962  12.237   3.570
35230W        W 5830  19.543  42.988   3.274
35231W        W 5831   5.815  12.672  14.813
35232W        W 5832  15.742  10.578   1.826
35233W        W 5833  17.284  20.716   2.907
35234W        W 5834  26.320   3.447   0.172
35235W        W 5835  19.700  25.540   2.208
35236W        W 5836  44.112   5.286   3.827
35237W        W 5837  36.480  26.445   1.380
35238W        W 5838  39.436  30.952   4.628
35239W        W 5839   8.841  18.312  13.927
35240W        W 5840  25.620  38.473  11.069
35241W        W 5841  29.860  17.554  10.834
35242W        W 5842  19.573  12.538   2.282
35243W        W 5843  15.603  41.893  12.467
35244W        W 5844  14.497   0.094  14.329
35245W        W 5845  19.054  10.696   1.377
35246W        W 5846  27.965  42.594   0.327
35247W        W 5847  14.894  35.566   2.277
35248W        W 5848  20.186  32.529  12.436
35249W        W 5849  14.970  40.589   0.315
35250W        W 5850  12.495  26.897  12.066
35251W        W 5851  39.244  41.082  11.630
35252W        W 5852  32.349  16.411  13.017
35253W        W 5853  12.744  34.343  13.966
35254W        W 5854  43.897   8.304   1.847
35255W        W 5855  20.697  20.589  14.748
35256W        W 5856  22.583  34.518   0.753
35257W        W 5857   8.100  32.010  10.886
35258W        W 5858  31.840  37.006   3.231
35259W        W 5859   7.934  44.201   5.009
35260W        W 5860  14.626   5.721  11.631
35261W        W 5861  28.122  44.032  13.834
35262W        W 5862  30.847  15.335  10.943
35263W        W 5863  42.422  16.738   0.952
35264W        W 5864  40.858  27.587  11.640
35265W        W 5865  14.711  27.001  12.517
35266W        W 5866  22.592  33.189   4.670
35267W        W 5867  40.493  16.043   3.287
35268W        W 5868  11.622   6.159   9.943
35269W        W 5869  16.402  12.518   2.596
35270W        W 5870  38.339  16.503  11.692
35271W        W 5871  27.416   2.208  14.447
35272W        W 5872  27.602  33.590   3.645
35273W        W 5873  35.944  23.800   3.131
35274W        W 5874  26.184  22.268  13.506
35275W        W 5875  34.477  12.386   2.852
35276W        W 5876  38.932  36.391   0.092
35277W        W 5877   4.167  38.238  12.494
35278W        W 5878  19.519   8.904  11.071
35279W        W 5879  20.470  10.761  14.319
35280W        W 5880  29.425  30.163  11.622
35281W        W 5881  20.575  11.857  12.399
35282W        W 5882  25.592  44.927   2.328
35283W        W 5883   1.440  32.588  11.718
35284W        W 5884  17.094  21.189   4.358
35285W        W 5885  23.524  35.577  14.971
35286W        W 5886  10.765  26.045   0.314
35287W        W 5887  12.897  30.567  13.605
35288W        W 5888  26.834   0.319   4.094
35289W        W 5889  42.162  36.521   0.893
35290W        W 5890   2.494  38.930   2.269
35291W        W 5891   0.306  23.961  14.517
35292W        W 5892  41.824  28.986   1.781
35293W        W 5893  26.509   9.684   4.057
35294W        W 5894  18.619  40.430   3.117
35295W        W 5895   6.580  31.921   0.268
35296W        W 5896  12.714  10.570  10.422
35297W        W 5897  14.656  39.285  10.974
35298W        W 5898  16.407  26.452  13.829
35299W        W 5899  24.420  29.632   4.170
35300W        W 5900  12.303  15.219  10.882
35301W        W 5901   5.148  35.081   1.428
35302W        W 5902  34.853  12.195   1.347
35303W        W 5903  33.869   6.167  13.681
35304W        W 5904  22.744  25.967  14.061
35305W        W 5905  29.903   5.900  11.611
35306W        W 5906  37.038  20.624   3.642
35307W        W 5907  14.727  42.347   1.862
35308W        W 5908  13.957  35.304   4.166
35309W        W 5909  10.862  42.398   0.711
35310W        W 5910  29.040  13.752   4.638
35311W        W 5911  36.604  24.566   1.310
35312W        W 5912  19.271   3.714  11.725
35313W        W 5913  22.952  17.606   4.412
35314W        W 5914  44.279  30.031   2.722
35315W        W 5915   1.710  32.374  10.595
35316W        W 5916  13.520   8.731   0.730
35317W        W 5917  27.005  38.204   0.018
35318W        W 5918   6.957  12.809  14.408
35319W        W 5919  23.691   4.473  11.573
35320W        W 5920   4.072   7.078  11.950
35321W        W 5921  23.405   2.691   0.036
35322W        W 5922  36.827   0.383   0.074
35323W        W 5923  41.368  40.499   4.117
35324W        W 5924  21.595   1.261   2.866
35325W        W 5925  40.212  18.324  12.222
35326W        W 5926  27.926  16.541   0.727
35327W        W 5927   5.773  12.657   1.768
35328W        W 5928  40.799  36.365  10.827
35329W        W 5929  17.295  42.569  11.034
35330W        W 5930  17.161  11.104  13.489
35331W        W 5931  30.538   8.803  14.309
35332W        W 5932  20.435  20.552   2.162
35333W        W 5933  23.892  14.123   3.646
35334W        W 5934  28.113  28.100   2.701
35335W        W 5935   4.018  21.609   0.051
35336W        W 5936  33.358  15.702   5.037
35337W        W 5937  26.227  23.970   3.619
35338W        W 5938  34.060  35.371  12.758
35339W        W 5939  21.071   6.244  11.144
35340W        W 5940  12.821   2.920  12.889
35341W        W 5941  44.759  30.153   1.746
35342W        W 5942  42.136  17.820   4.116
35343W        W 5943  39.624  36.194   4.897
35344W        W 5944  26.543  18.865   4.840
35345W        W 5945  15.791  25.417   2.231
35346W        W 5946  39.467  39.057   3.067
35347W        W 5947   1.409  17.287   3.349
35348W        W 5948  25.929   6.012  11.953
35349W        W 5949  27.613   2.694   2.385
35350W        W 5950  11.125   6.666  11.261
35351W        W 5951  15.355  37.392  11.032
35352W        W 5952  11.771   8.444   2.588
35353W        W 5953   0.284   0.846   2.339
35354W        W 5954  20.829  20.912   2.183
35355W        W 5955  29.891  40.895   1.940
35356W        W 5956  11.274  13.467  14.257
35357W        W 5957  33.087  35.675   0.413
35358W        W 5958  23.242  39.974   3.048
35359W        W 5959  30.200  42.980  13.305
35360W        W 5960  23.611  13.446  13.073
35361W        W 5961  11.701  42.364   3.673
35362W        W 5962  23.010  10.227  13.550
35363W        W 5963   2.458   9.878  14.086
35364W        W 5964  27.018   7.903   0.853
35365W        W 5965  12.501  22.011  13.172
35366W        W 5966  37.087  43.271   2.349
35367W        W 5967  34.673  37.514   2.291
35368W        W 5968   5.155  17.153  10.661
35369W        W 5969  11.618  30.630   2.201
35370W        W 5970   2.106   0.633  12.652
35371W        W 5971  44.849  17.487   4.181
35372W        W 5972   0.290   5.678  11.930
35373W        W 5973  12.486  22.490   0.308
35374W        W 5974  11.096  42.755   2.262
35375W        W 5975  15.270  15.094   4.427
35376W        W 5976  37.909  21.736   4.077
35377W        W 5977   9.405  25.360  12.523
35378W        W 5978  14.011  20.960   3.772
35379W        W 5979  31.619  36.480   0.355
35380W        W 5980  10.281  16.837  12.945
35381W        W 5981  25.649  27.462   1.305
35382W        W 5982  30.844  44.212   1.467
35383W        W 5983  26.093  32.814   4.098
35384W        W 5984  28.326  38.343   1.748
35385W        W 5985  42.043  20.675  11.868
35386W        W 5986   3.309   7.408  12.971
35387W        W 5987  34.099  15.735  12.917
35388W        W 5988   2.358  25.632  13.095
35389W        W 5989  14.596  27.218  14.863
35390W        W 5990  29.977  25.584  10.447
35391W        W 5991  14.304   0.907  12.287
35392W        W 5992   0.802  44.632   3.804
35393W        W 5993  33.285  21.380  12.943
35394W        W 5994   1.354  19.725   0.755
35395W        W 5995   4.917  31.682  14.570
35396W        W 5996  10.948  29.787   0.443
35397W        W 5997   9.498   3.264   2.393
35398W        W 5998  40.041   3.733   4.963
35399W        W 5999   4.197  32.992   2.633
35400W        W 6000  26.708  15.113   0.376
35401W        W 6001  28.107  17.437  11.022
35402W        W 6002   3.272   3.383   2.850
35403W        W 6003  41.884  26.708  14.778
35404W        W 6004   0.119   2.711   0.244
35405W        W 6005  35.685  27.952  14.290
35406W        W 6006  44.317  43.923   1.177
35407W        W 6007  29.405  11.224   0.578
35408W        W 6008  25.222  22.932  11.705
35409W        W 6009   2.229  15.151  13.898
35410W        W 6010  11.233  27.631   4.161
35411W        W 6011  25.867  44.946  12.147
35412W        W 6012  39.721  15.946  12.010
35413W        W 6013  13.108  16.117   3.933
35414W        W 6014   3.957  31.078  13.501
35415W        W 6015   6.892  43.254   3.339
35416W        W 6016  17.292  11.388  13.941
35417W        W 6017  28.614  16.754  14.093
35418W        W 6018   4.939  35.616   4.531
35419W        W 6019  31.345   1.391  13.931
35420W        W 6020  19.544  43.813   0.334
35421W        W 6021  24.060   5.866  13.443
35422W        W 6022   5.611   4.662   1.741
35423W        W 6023  20.330  26.242  13.580
35424W        W 6024  38.572  10.737   4.238
35425W        W 6025   5.008  43.249  14.961
35426W        W 6026  19.948  41.144  13.766
35427W        W 6027  29.990  19.149  11.082
35428W        W 6028   6.755  39.490  10.715
35429W        W 6029  25.695   0.421  11.228
35430W        W 6030  36.380   1.681  11.339
35431W        W 6031  42.291  34.966  12.568
35432W        W 6032  31.140  43.810   3.652
35433W        W 6033  31.265  39.987  12.031
35434W        W 6034  22.701  35.787  11.599
35435W        W 6035   3.396  31.267   3.262
35436W        W 6036  14.132  25.470  10.657
35437W        W 6037  35.384   7.522  11.151
35438W        W 6038  39.618  21.049   3.818
35439W        W 6039  18.667  44.517   4.138
35440W        W 6040   7.230   7.875  11.586
35441W        W 6041  38.495  31.937  14.781
35442W        W 6042   5.331  21.456   3.206
35443W        W 6043   0.949  19.586  14.221
35444W        W 6044  29.380  26.226  14.390
35445W        W 6045  13.600   6.604   0.873
35446W        W 6046   0.950  20.800  11.098
35447W        W 6047  38.063   6.824  12.489
35448W        W 6048  12.876  38.097   0.805
35449W        W 6049  36.792  26.444   0.450
35450W        W 6050  42.094  21.216   1.432
35451W        W 6051  25.009  30.609  11.641
35452W        W 6052  12.715  24.064   0.324
35453W        W 6053  12.266  24.001   4.590
35454W        W 6054  34.508   4.912  13.938
35455W        W 6055  27.854  41.355   1.917
35456W        W 6056  13.760  35.528   4.624
35457W        W 6057  35.956  26.874  12.562
35458W        W 6058  32.192  33.573  12.436
35459W        W 6059  40.924   2.782   4.914
35460W        W 6060  30.571  25.784   1.413
35461W        W 6061  34.976  41.756  12.017
35462W        W 6062  38.925  31.014  11.400
35463W        W 6063  32.510  27.527  10.998
35464W        W 6064   0.113  11.103  12.890
35465W        W 6065  28.698  17.123   1.888
35466W        W 6066   8.717  10.399   1.210
35467W        W 6067  37.401  34.898   0.286
35468W        W 6068  17.477  26.603   3.171
35469W        W 6069   8.753  42.519   1.239
35470W        W 6070  44.425  29.902  13.400
35471W        W 6071  30.699   2.830  14.308
35472W        W 6072  12.727  34.112   4.474
35473W        W 6073  42.991   2.951   0.919
35474W        W 6074  28.459  43.076  14.403
35475W        W 6075  34.055  27.440   4.516
35476W        W 6076   6.182  40.137  10.102
35477W        W 6077  44.056  21.003  12.010
35478W        W 6078  12.791  36.049   2.608
35479W        W 6079  19.756  43.522  12.073
35480W        W 6080  40.639  24.671  14.540
35481W        W 6081  32.289  22.706  12.088
35482W        W 6082  29.089  23.727   3.485
35483W        W 6083  36.491  33.404  14.891
35484W        W 6084  24.074   2.362  11.154
35485W        W 6085  37.459  27.284  12.675
35486W        W 6086  29.635  15.589   4.866
35487W        W 6087  40.811  40.609   3.306
35488W        W 6088  18.820  24.376   2.647
35489W        W 6089   8.221  23.449  10.683
35490W        W 6090   6.238  11.998   0.025
35491W        W 6091  12.316  22.500   0.829
35492W        W 6092   0.172  12.193  11.671
35493W        W 6093  20.590  23.717   4.007
35494W        W 6094  13.083   0.572   0.552
35495W        W 6095  11.321   5.000  10.284
35496W        W 6096  12.823  13.109  10.601
35497W        W 6097  41.960  20.901  14.353
35498W        W 6098  40.435  22.859  14.736
35499W        W 6099  12.376   0.065   3.166
35500W        W 6100   3.718  41.346  14.883
35501W        W 6101  38.070  24.085  12.873
35502W        W 6102  38.455  43.375  14.311
35503W        W 6103  35.370   9.845  12.480
35504W        W 6104  16.265  44.479   2.861
35505W        W 6105   2.697   1.219   2.815
35506W        W 6106  44.633  17.024   4.077
35507W        W 6107  21.456  35.616  13.482
35508W        W 6108  21.091  16.771   3.116
35509W        W 6109  38.115  19.178   2.387
35510W        W 6110  22.355  43.159   9.801
35511W        W 6111   3.476  32.094   4.379
35512W        W 6112   7.742   2.433   0.213
35513W        W 6113   3.948  10.410   1.359
35514W        W 6114   2.411  31.542   1.625
35515W        W 6115  24.739  40.626   5.009
35516W        W 6116  30.013   4.743   2.915
35517W        W 6117  42.919  26.705   3.207
35518W        W 6118  21.171   7.869  14.903
35519W        W 6119   7.199  34.373  12.619
35520W        W 6120  36.979  41.324   1.513
35521W        W 6121  37.256  28.711  14.015
35522W        W 6122  14.530  39.513   1.335
35523W        W 6123   1.511  17.221  11.628
35524W        W 6124  43.048  38.052  13.852
35525W        W 6125  14.362   6.859   0.463
35526W        W 6126  25.005   4.903   2.644
35527W        W 6127  20.241  25.129   1.922
35528W        W 6128  35.968  25.590   2.636
35529W        W 6129  10.914  21.334  12.910
35530W        W 6130  18.255  26.305  11.028
35531W        W 6131  24.953  32.979  13.634
35532W        W 6132  44.427  20.003  14.598
35533W        W 6133  39.916  14.070  14.524
35534W        W 6134   4.788  23.962  14.524
35535W        W 6135  40.648   1.677  11.076
35536W        W 6136  14.030  36.127  10.781
35537W        W 6137  13.219  27.565   4.933
35538W        W 6138  40.586  29.221  11.856
35539W        W 6139  32.601  42.356   3.827
35540W        W 6140  14.767   4.125  11.025
35541W        W 6141  26.166  12.312   2.260
35542W        W 6142  32.947   0.200  13.893
35543W        W 6143  22.937  10.444   0.889
35544W        W 6144  33.513  41.554   3.927
35545W        W 6145  28.179  39.890   0.036
35546W        W 6146   0.910  15.024   4.081
35547W        W 6147  43.680  10.177  13.260
35548W        W 6148  17.534  15.007  13.404
35549W        W 6149  34.861  32.546   2.967
35550W        W 6150  18.657  30.455  10.330
35551W        W 6151  22.988  25.170  14.973
35552W        W 6152  26.363  36.348  12.249
35553W        W 6153  41.340   9.761  14.940
35554W        W 6154  16.298  23.649   2.681
35555W        W 6155  28.386  24.978   4.453
35556W        W 6156   2.846   6.935   1.480
35557W        W 6157  24.224  31.979  14.057
35558W        W 6158  16.075   3.237   0.927
35559W        W 6159   5.097  23.126   1.759
35560W        W 6160  30.432  24.181   3.567
35561W        W 6161  32.039  20.455   2.186
35562W        W 6162   0.945  37.245  14.866
35563W        W 6163  42.101  33.384   4.870
35564W        W 6164   2.328  27.455   1.813
35565W        W 6165  44.277  15.661   4.519
35566W        W 6166  37.890  31.090  14.934
35567W        W 6167   4.339  39.467   3.272
35568W        W 6168   7.159  17.634  10.618
35569W        W 6169  30.774  27.805   9.901
35570W        W 6170  30.428  27.203   2.228
35571W        W 6171  19.591  26.727   0.379
35572W        W 6172  25.018  24.668   0.429
35573W        W 6173  13.260   2.017   4.725
35574W        W 6174   0.383  11.780   2.700
35575W        W 6175  38.743  12.681  14.781
35576W        W 6176  42.673  14.103  13.587
35577W        W 6177  18.836   9.465   3.212
35578W        W 6178   5.414  36.157   3.316
35579W        W 6179   2.255  11.147   4.131
35580W        W 6180  26.930   6.965  14.455
35581W        W 6181  24.424  26.103  11.358
35582W        W 6182  29.183  16.883   3.591
35583W        W 6183  42.282   7.911   0.407
35584W        W 6184  17.834  14.206   1.899
35585W        W 6185  34.551  40.278  13.516
35586W        W 6186  10.896  36.452   4.111
35587W        W 6187  20.981  12.020   5.073
35588W        W 6188  33.071  12.080  12.389
35589W        W 6189  19.231  22.234   1.898
35590W        W 6190  25.937   0.451  11.956
35591W        W 6191  36.271  44.086  13.875
35592W        W 6192  16.129   8.673  14.624
35593W        W 6193  28.191   6.343   2.806
35594W        W 6194  14.312  34.550   3.183
35595W        W 6195  38.481  36.336   4.300
35596W        W 6196   4.197  21.166  10.666
35597W        W 6197  40.969  39.527   1.166
35598W        W 6198   9.827  10.561   4.101
35599W        W 6199   8.885  39.578   0.506
35600W        W 6200  36.536  35.066   1.609
35601W        W 6201  13.136   1.817  11.613
35602W        W 6202   1.029   7.360  13.525
35603W        W 6203  43.838  37.038   2.899
35604W        W 6204  38.738  32.174  13.904
35605W        W 6205  12.615  41.454   0.960
35606W        W 6206  37.362  30.159  14.877
35607W        W 6207   8.124  43.246  10.731
35608W        W 6208  36.537  40.478  12.957
35609W        W 6209   2.302  22.255  13.821
35610W        W 6210  27.638  33.913   0.516
35611W        W 6211   9.352   7.855  10.573
35612W        W 6212   5.484  19.049   3.341
35613W        W 6213  30.482   9.935  12.800
35614W        W 6214  17.499  17.073   1.790
35615W        W 6215  22.259  27.047   0.016
35616W        W 6216  10.733  38.157   2.948
35617W        W 6217  30.595  37.487  11.526
35618W        W 6218  14.351  27.924  10.669
35619W        W 6219   5.203  34.741  11.618
35620W        W 6220  20.698  30.630   1.649
35621W        W 6221  37.445  28.747  12.629
35622W        W 6222   7.845  30.306  11.850
35623W        W 6223  23.998  13.613  10.534
35624W        W 6224  20.242  16.803  11.603
35625W        W 6225   9.324   8.124   4.473
35626W        W 6226  28.881  22.769  12.149
35627W        W 6227   3.310  22.761  14.049
35628W        W 6228  41.926  19.144  14.288
35629W        W 6229  29.843  44.814  11.105
35630W        W 6230  21.444  19.805   3.697
35631W        W 6231  17.140   1.037  14.851
35632W        W 6232  41.947  21.149   1.901
35633W        W 6233  16.642   5.674   1.637
35634W        W 6234   7.122  17.132   3.551
35635W        W 6235  12.591  26.016  11.157
35636W        W 6236  40.531  19.796  12.874
35637W        W 6237  14.770  36.607   2.195
35638W        W 6238  37.310  36.080   3.174
35639W        W 6239  39.799  30.548  14.215
35640W        W 6240  24.820  32.810   4.696
35641W        W 6241  36.737  44.856   3.063
35642W        W 6242  27.170  32.219  11.029
35643W        W 6243  29.697  18.032  14.742
35644W        W 6244  33.417   1.967  11.529
35645W        W 6245   8.099  39.081  10.278
35646W        W 6246  38.376  26.571   1.227
35647W        W 6247  16.027  19.554  13.953
35648W        W 6248  40.505  44.894  14.578
35649W        W 6249  31.573   9.406  12.156
35650W        W 6250  14.923  12.075   5.100
35651W        W 6251  16.198  17.603   2.255
35652W        W 6252  17.993  43.509  13.660
35653W        W 6253   4.915  28.104  12.737
35654W        W 6254  37.625  35.411  10.760
35655W        W 6255  36.508  35.133   3.729
35656W        W 6256  16.232  33.259  11.875
35657W        W 6257   1.661  30.422  13.425
35658W        W 6258  30.414  19.466  11.568
35659W        W 6259  28.210   1.056   0.480
35660W        W 6260  30.502  18.142   1.418
35661W        W 6261   0.794   3.329   4.082
35662W        W 6262  35.564  23.860   4.455
35663W        W 6263   1.416  38.567   3.772
35664W        W 6264  35.984   5.376   0.798
35665W        W 6265   5.428  42.522  13.388
35666W        W 6266  31.596  24.519   2.375
35667W        W 6267  39.570  15.035   1.754
35668W        W 6268  42.747  22.435   3.697
35669W        W 6269   0.571  41.467   1.695
35670W        W 6270   6.059  10.472  12.206
35671W        W 6271   9.362  29.985  11.770
35672W        W 6272  41.907  36.908  14.091
35673W        W 6273   6.726  19.669   1.884
35674W        W 6274  12.508  34.464   1.758
35675W        W 6275   3.815   8.155   1.763
35676W        W 6276  25.695  25.820  13.998
35677W        W 6277  37.311  32.821  14.330
35678W        W 6278  18.176  12.107   4.554
35679W        W 6279   5.341   9.198  12.027
35680W        W 6280  35.052  23.650  13.815
35681W        W 6281  21.932  30.417   3.975
35682W        W 6282  17.212  25.590  13.252
35683W        W 6283  27.667  41.968   5.107
35684W        W 6284  38.214  27.647  13.112
35685W        W 6285  32.962  17.529  13.588
35686W        W 6286  33.736  21.555   0.098
35687W        W 6287  16.173  30.160  13.039
35688W        W 6288  35.793  30.861   0.463
35689W        W 6289  40.828  44.823   0.988
35690W        W 6290  33.659  34.207  12.545
35691W        W 6291  37.987  44.091  12.471
35692W        W 6292   4.174  19.112  12.094
35693W        W 6293  44.683  16.622  11.677
35694W        W 6294  14.796   0.969  12.053
35695W        W 6295  10.237   2.486  14.777
35696W        W 6296   6.642  33.123  14.754
35697W        W 6297  43.298  18.108   4.625
35698W        W 6298  37.733  21.263   4.223
35699W        W 6299  19.482  41.805  14.618
35700W        W 6300  34.302  12.710   0.630
35701W        W 6301  11.239  19.255  11.137
35702W        W 6302  20.528   9.177  14.969
35703W        W 6303  36.681  18.881  12.238
35704W        W 6304   3.155  28.525   0.314
35705W        W 6305  43.398   9.260   1.827
35706W        W 6306  15.746  16.896  11.025
35707W        W 6307   7.822  27.366   4.349
35708W        W 6308  15.544  44.343  14.177
35709W        W 6309  18.271  25.193  13.020
35710W        W 6310  20.335  24.991  13.185
35711W        W 6311   6.049  33.893   1.492
35712W        W 6312  34.163  32.432  12.500
35713W        W 6313  43.469  14.393  12.342
35714W        W 6314   7.884  26.075   4.266
35715W        W 6315  34.052  43.357   0.872
35716W        W 6316  29.087  22.158  14.940
35717W        W 6317  26.455  41.358  10.563
35718W        W 6318  22.872   9.624  14.316
35719W        W 6319  28.020   7.449  12.207
35720W        W 6320   9.678  37.377   1.929
35721W        W 6321   7.735  19.809  13.356
35722W        W 6322  14.850  25.677   3.661
35723W        W 6323  20.143   4.795  10.675
35724W        W 6324  26.049  44.011  12.410
35725W        W 6325  25.175   6.884  14.975
35726W        W 6326  11.182  41.908   4.929
35727W        W 6327   4.932  12.642  14.425
35728W        W 6328  24.075  16.761  10.636
35729W        W 6329  11.218   0.706  13.438
35730W        W 6330  40.269  17.507   2.161
35731W        W 6331  43.748  23.911   2.300
35732W        W 6332  32.340  43.959  10.994
35733W        W 6333  44.995  39.049   0.290
35734W        W 6334  23.640  38.819   0.702
35735W        W 6335  10.696  44.907  12.972
35736W        W 6336  33.634  44.672  13.298
35737W        W 6337  15.860  10.539   5.174
35738W        W 6338  23.182   6.165   1.368
35739W        W 6339  12.546   0.936   4.277
35740W        W 6340  37.564  34.465  10.284
35741W        W 6341   6.995  44.404  11.501
35742W        W 6342  10.858  28.180   4.248
35743W        W 6343   6.745   2.535   0.871
35744W        W 6344  14.667  14.373  12.460
35745W        W 6345   9.612  36.509   4.651
35746W        W 6346   9.568   1.978   3.348
35747W        W 6347   5.571   7.636  11.930
35748W        W 6348  22.712  16.429   3.276
35749W        W 6349   2.913   5.988  11.444
35750W        W 6350  22.048  35.918   0.613
35751W        W 6351  33.285  26.936   4.382
35752W        W 6352  25.447  33.172   2.310
35753W        W 6353  32.381  29.714   2.348
35754W        W 6354  17.707  39.388  14.470
35755W        W 6355  22.407  22.130  13.800
35756W        W 6356  10.716  35.317   2.023
35757W        W 6357  20.067  40.344   3.691
35758W        W 6358  20.593  43.269  13.299
35759W        W 6359  35.331   4.643   0.054
35760W        W 6360   6.170  20.799   1.709
35761W        W 6361  34.345  38.560   1.438
35762W        W 6362  37.904  35.917   0.416
35763W        W 6363  24.058  12.316  13.698
35764W        W 6364  30.730  39.020  11.129
35765W        W 6365  25.470  11.962  12.130
35766W        W 6366  28.171  31.123  11.571
35767W        W 6367  32.174   3.628   2.233
35768W        W 6368  17.447  15.143   1.305
35769W        W 6369  37.260   0.296   0.962
35770W        W 6370  26.947  10.981  11.895
35771W        W 6371  14.383  30.039   0.876
35772W        W 6372  37.413  22.501  12.029
35773W        W 6373   1.864  16.637   2.163
35774W        W 6374  24.984  40.866   2.986
35775W        W 6375  37.787  30.039   0.741
35776W        W 6376  38.472   6.292   1.881
35777W        W 6377  26.158  44.760  14.470
35778W        W 6378  44.516   7.328   2.511
35779W        W 6379  41.120  32.632   0.172
35780W        W 6380  37.822   6.733  10.619
35781W        W 6381  14.294  29.059  14.776
35782W        W 6382  43.760  26.889   2.471
35783W        W 6383  26.438  23.276  12.969
35784W        W 6384  39.643  36.103  14.718
35785W        W 6385  15.523  20.510   0.324
35786W        W 6386  25.687  32.900   2.678
35787W        W 6387  43.865   3.612  11.896
35788W        W 6388  32.841  16.318  14.405
35789W        W 6389  13.896  36.194  14.015
35790W        W 6390  43.831  12.730   1.221
35791W        W 6391   7.718  26.774   2.320
35792W        W 6392  38.243  16.731   4.176
35793W        W 6393   1.841  18.570  10.438
35794W        W 6394   4.199  31.283  11.271
35795W        W 6395  10.751  44.271  10.808
35796W        W 6396  35.521  17.087   3.654
35797W        W 6397  10.804  10.638  13.921
35798W        W 6398   9.923  36.708  12.101
35799W        W 6399  17.058  22.398   5.146
35800W        W 6400  24.018  37.995  12.544
35801W        W 6401  32.971  21.139  10.448
35802W        W 6402  10.655   2.732  12.087
35803W        W 6403  41.069   7.235  14.153
35804W        W 6404   7.800  42.284  12.960
35805W        W 6405  14.736   6.793   1.471
35806W        W 6406  15.696  42.147   3.658
35807W        W 6407  16.316   7.941   2.728
35808W        W 6408  38.433  39.967  14.759
35809W        W 6409  37.075  25.626   4.176
35810W        W 6410  13.874  41.018  12.558
35811W        W 6411  15.688  19.854  12.351
35812W        W 6412  35.362  17.223  13.051
35813W        W 6413  18.552  13.925  10.341
35814W        W 6414  29.483  13.609   4.390
35815W        W 6415  42.836  34.457   1.286
35816W        W 6416  26.418  20.801   3.251
35817W        W 6417  18.086  43.394  13.180
35818W        W 6418  22.035  23.029  13.079
35819W        W 6419  11.309  37.968  11.597
35820W        W 6420  40.298  13.325  12.601
35821W        W 6421  21.689  23.088   3.354
35822W        W 6422  34.580  17.435   4.902
35823W        W 6423  25.992  25.707   3.444
35824W        W 6424  27.184  29.387   2.891
35825W        W 6425  10.665  16.605  14.729
35826W        W 6426  42.377  28.960  12.677
35827W        W 6427  29.619  15.606   1.190
35828W        W 6428  10.200  40.339  13.853
35829W        W 6429  36.848  43.702   4.572
35830W        W 6430   3.795  35.154  11.981
35831W        W 6431  44.981  30.732  11.087
35832W        W 6432   1.936  37.944  11.826
35833W        W 6433  42.410   8.262   3.133
35834W        W 6434  43.111   9.680  13.546
35835W        W 6435   6.535  15.425  13.290
35836W        W 6436   0.689  36.010   0.478
35837W        W 6437  12.792  31.471  13.626
35838W        W 6438   7.826  33.741  13.911
35839W        W 6439  15.064  40.043  12.508
35840W        W 6440  43.534   2.405   1.828
35841W        W 6441   1.204  13.621  12.049
35842W        W 6442   3.647  29.942   0.009
35843W        W 6443  12.204   2.724   0.456
35844W        W 6444  24.670  20.122  12.412
35845W        W 6445  44.395  29.211   0.559
35846W        W 6446   0.087  44.346   0.737
35847W        W 6447  32.399  33.931   0.364
35848W        W 6448  44.834  33.046  11.066
35849W        W 6449  18.373  11.291  13.946
35850W        W 6450   3.722   4.663   4.336
35851W        W 6451  16.314  16.991  14.739
35852W        W 6452  13.982  30.567   4.370
35853W        W 6453  43.112  10.670  12.193
35854W        W 6454  37.551  28.296   2.150
35855W        W 6455   8.475  13.241  12.534
35856W        W 6456   9.181   7.416   2.768
35857W        W 6457  31.901  23.556   4.183
35858W        W 6458   2.903  15.661  11.678
35859W        W 6459  29.950   8.929  10.736
35860W        W 6460  44.399  18.132  14.929
35861W        W 6461   3.898   5.198  13.062
35862W        W 6462   3.415  20.332   2.731
35863W        W 6463  11.083  28.597  10.621
35864W        W 6464  41.456   3.779   1.418
35865W        W 6465  44.490  42.458  13.499
35866W        W 6466   2.861   3.733   3.661
35867W        W 6467  15.018  43.509   3.527
35868W        W 6468  18.615  26.826   4.519
35869W        W 6469   3.419  33.942   1.911
35870W        W 6470  42.436  42.667  14.519
35871W        W 6471  35.043  12.414   0.873
35872W        W 6472  14.514  10.406   4.083
35873W        W 6473  34.795  37.025   2.160
35874W        W 6474   7.671  33.999  14.374
35875W        W 6475  23.733  17.826  12.528
35876W        W 6476  29.932  41.580   4.578
35877W        W 6477  15.579  11.657  14.988
35878W        W 6478  16.756   2.368   4.186
35879W        W 6479  19.399  10.206   3.064
35880W        W 6480  21.297  31.907   4.270
35881W        W 6481  19.076  17.052   4.127
35882W        W 6482  18.106  24.253  11.500
35883W        W 6483  44.823  36.114   1.588
35884W        W 6484  39.122  35.402  11.167
35885W        W 6485  37.622  11.816  11.595
35886W        W 6486  30.907  36.850   4.526
35887W        W 6487  40.090   9.230  13.073
35888W        W 6488   1.015  34.626  11.563
35889W        W 6489  35.491  19.759   3.307
35890W        W 6490  19.204  12.451   1.845
35891W        W 6491  36.837  16.724   1.520
35892W        W 6492  43.374  25.442   3.135
35893W        W 6493  12.377   1.673  12.075
35894W        W 6494  37.444  25.002   3.788
35895W        W 6495  35.061  21.003   0.418
35896W        W 6496  23.496  20.491  14.767
35897W        W 6497   9.449  21.711  12.037
35898W        W 6498  34.835  23.900   1.286
35899W        W 6499  41.520  15.525  12.152
35900W        W 6500  29.542   8.210   0.309
35901W        W 6501  23.528  19.677  12.856
35902W        W 6502  29.665  34.177   1.853
35903W        W 6503  35.543   1.888  13.490
35904W        W 6504   7.300  37.262   0.906
35905W        W 6505  38.568  27.575  14.022
35906W        W 6506  41.962  32.657  12.525
35907W        W 6507   2.782  44.028   4.707
35908W        W 6508   7.547   4.961   0.189
35909W        W 6509  27.489  43.792  11.545
35910W        W 6510  18.494   4.476   2.856
35911W        W 6511  39.901   4.686   1.399
35912W        W 6512  20.154  13.470  12.555
35913W        W 6513  19.320  23.374  13.382
35914W        W 6514  41.072   8.402   0.769
35915W        W 6515  24.475   2.419   0.798
35916W        W 6516  11.097  38.328   4.434
35917W        W 6517  35.981  28.654   1.193
35918W        W 6518  23.957  31.829  14.485
35919W        W 6519   4.412  40.872   1.851
35920W        W 6520   7.171  35.968   4.526
35921W        W 6521  15.889  42.125  13.338
35922W        W 6522  25.289  43.733   2.218
35923W        W 6523  29.206  24.132  13.988
35924W        W 6524  12.289   0.022   2.263
35925W        W 6525  18.306   9.492   0.381
35926W        W 6526  43.873  22.611  11.133
35927W        W 6527  11.343  44.027   0.490
35928W        W 6528   2.698   1.703  14.382
35929W        W 6529  26.663  40.001   4.141
35930W        W 6530  14.770  21.102  10.844
35931W        W 6531  33.158  42.778  12.483
35932W        W 6532  17.584  36.361  14.872
35933W        W 6533  41.318  42.940  13.899
35934W        W 6534  22.386   6.827  13.935
35935W        W 6535  38.518  43.531   0.914
35936W        W 6536   9.092  39.356  11.312
35937W        W 6537  28.261  30.375   1.646
35938W        W 6538  41.304  20.797   5.519
35939W        W 6539   1.974  17.294  13.581
35940W        W 6540  34.573  31.121  14.432
35941W        W 6541  19.232  28.130   0.452
35942W        W 6542  26.761   7.593  11.355
35943W        W 6543  13.564  24.227  14.803
35944W        W 6544   8.513  30.167  11.995
35945W        W 6545  37.479   2.429  10.466
35946W        W 6546   1.701  35.019  13.937
35947W        W 6547   3.203   1.061  11.748
35948W        W 6548  20.274  41.385  13.434
35949W        W 6549  43.405   1.018  11.138
35950W        W 6550   2.462  22.759  11.641
35951W        W 6551   9.859  32.652  13.946
35952W        W 6552  42.703   4.357   1.730
35953W        W 6553  12.174  22.458  11.067
35954W        W 6554   8.797   7.708   0.621
35955W        W 6555  12.998  26.330  11.120
35956W        W 6556   0.036  43.826   1.063
35957W        W 6557  15.305   9.198   3.230
35958W        W 6558  10.336   2.106  11.684
35959W        W 6559  25.415   8.864  12.776
35960W        W 6560   3.157   6.354  13.094
35961W        W 6561  13.344  18.236   4.154
35962W        W 6562  23.015  22.184  11.223
35963W        W 6563  32.646  16.652   4.557
35964W        W 6564  10.709  15.055  14.826
35965W        W 6565  24.674  14.187  10.994
35966W        W 6566  16.759  33.049   2.876
35967W        W 6567  25.503   7.729   1.793
35968W        W 6568  38.390  38.527   0.765
35969W        W 6569   0.208   0.602  12.424
35970W        W 6570  18.570  13.514   3.141
35971W        W 6571  19.466   7.556  12.946
35972W        W 6572  44.000   0.025  10.671
35973W        W 6573  41.536  35.766   1.166
35974W        W 6574  27.146  26.425   4.263
35975W        W 6575  19.312  38.324   2.840
35976W        W 6576  14.475  33.546   1.837
35977W        W 6577  34.981  32.136   4.802
35978W        W 6578  23.071  35.820  11.217
35979W        W 6579  29.617  42.905   2.987
35980W        W 6580  31.959  40.752   2.552
35981W        W 6581  13.601  27.469  11.012
35982W        W 6582  34.914  19.089  11.025
35983W        W 6583  38.357  12.228   0.094
35984W        W 6584   2.610   4.298   0.205
35985W        W 6585  12.626  36.383  13.415
35986W        W 6586  35.986  14.785   3.771
35987W        W 6587  29.842  29.375  10.821
35988W        W 6588  43.012  27.572   2.714
35989W        W 6589  10.690   6.918  14.483
35990W        W 6590   5.316  38.974  12.899
35991W        W 6591   6.902  35.280   4.611
35992W        W 6592  12.115  37.509  14.421
35993W        W 6593  24.123  13.875  12.053
35994W        W 6594  12.461  41.257   2.384
35995W        W 6595   4.948  27.754   4.126
35996W        W 6596  22.213   1.600  12.130
35997W        W 6597  41.315  25.739  11.502
35998W        W 6598  43.122   7.224   2.741
35999W        W 6599  17.603   7.890   1.715
36000W        W 6600   3.319   5.521  14.356
36001W        W 6601  42.302  29.998   2.702
36002W        W 6602  12.743  13.688  14.005
36003W        W 6603   2.749  27.830  11.716
36004W        W 6604  24.525  21.557   0.952
36005W        W 6605   0.394  35.620  12.596
36006W        W 6606  36.054  32.450   1.273
36007W        W 6607  33.773   5.323  13.461
36008W        W 6608  17.339  10.587   0.719
36009W        W 6609  28.096   9.882   3.149
36010W        W 6610  17.927   7.106   1.848
36011W        W 6611  35.481  38.637   2.376
36012W        W 6612  10.661  39.314   0.015
36013W        W 6613  42.740  14.776  13.382
36014W        W 6614  20.201  38.550   0.414
36015W        W 6615   5.642  17.652   3.067
36016W        W 6616  40.617  31.633   2.238
36017W        W 6617  28.619  29.639   2.755
36018W        W 6618   9.749  15.997   3.687
36019W        W 6619  39.838   0.740   0.818
36020W        W 6620  26.900   7.608   1.255
36021W        W 6621   1.284   5.676  14.842
36022W        W 6622  41.876  39.266  10.700
36023W        W 6623  20.802  32.883  11.160
36024W        W 6624  11.622  14.241   4.548
36025W        W 6625  23.479  26.719  13.935
36026W        W 6626  40.524  24.941  12.536
36027W        W 6627  39.871   1.261  14.005
36028W        W 6628  19.219  33.340   2.342
36029W        W 6629  26.583   8.315  12.081
36030W        W 6630  40.870  38.326  14.908
36031W        W 6631  38.554  20.308  14.511
36032W        W 6632  32.715  25.498   4.043
36033W        W 6633  36.892  32.952   0.593
36034W        W 6634   3.495  22.699  12.887
36035W        W 6635   5.714   6.643  14.594
36036W        W 6636  31.095  11.570   2.689
36037W        W 6637  25.028  20.418  13.839
36038W        W 6638  30.220   2.576   3.194
36039W        W 6639  26.568  13.332   1.154
36040W        W 6640  24.038  31.517  13.829
36041W        W 6641   4.241  17.752  12.169
36042W        W 6642  37.922   5.316  12.129
36043W        W 6643  20.227  39.977   1.406
36044W        W 6644  44.747  19.324  11.161
36045W        W 6645  41.038  43.572  14.683
36046W        W 6646   4.145  25.509  14.653
36047W        W 6647  10.101   0.888   4.187
36048W        W 6648  10.973  25.171  13.828
36049W        W 6649  19.266  20.762   1.901
36050W        W 6650  21.093  29.455  13.810
36051W        W 6651  23.446  22.190   0.956
36052W        W 6652  30.621  11.791   4.487
36053W        W 6653  33.268  24.602   4.054
36054W        W 6654  33.628   6.273   2.757
36055W        W 6655  29.844  20.222   2.702
36056W        W 6656   6.489  11.873  11.677
36057W        W 6657  40.073  36.084  11.910
36058W        W 6658  33.325  19.793   3.098
36059W        W 6659   5.340  36.964  14.951
36060W        W 6660  13.313  42.515   1.272
36061W        W 6661   4.952  15.435   2.929
36062W        W 6662  27.635   8.846  10.618
36063W        W 6663   0.032  32.587  14.326
36064W        W 6664  41.032   8.149   0.304
36065W        W 6665   5.181  12.311   0.826
36066W        W 6666  37.849  31.973   2.340
36067W        W 6667  27.181  39.244  14.240
36068W        W 6668   8.736  13.324  11.132
36069W        W 6669   9.150   9.646   4.077
36070W        W 6670  37.334  37.349   2.127
36071W        W 6671   2.171  36.554   1.863
36072W        W 6672  13.911  35.115  11.105
36073W        W 6673  41.162  40.792  11.721
36074W        W 6674  35.680  25.531   0.939
36075W        W 6675  14.604  21.499  12.078
36076W        W 6676   5.304  31.041  11.920
36077W        W 6677   6.031  16.287  11.957
36078W        W 6678  43.505   8.223  10.372
36079W        W 6679  38.707   3.951   3.845
36080W        W 6680  40.646   7.262  12.863
36081W        W 6681  10.101   7.370  14.478
36082W        W 6682   3.219  24.200   0.889
36083W        W 6683  43.971  37.395  14.858
36084W        W 6684  10.426  34.046   4.568
36085W        W 6685   0.942   6.321   2.307
36086W        W 6686   1.184  32.979   3.567
36087W        W 6687   0.231  19.597   2.662
36088W        W 6688  11.624   8.751  12.045
36089W        W 6689  30.062  39.326   3.131
36090W        W 6690  19.648  42.032   3.147
36091W        W 6691  28.125  28.444   1.705
36092W        W 6692  27.417   6.594   0.345
36093W        W 6693   7.090  16.741  12.463
36094W        W 6694  42.569  39.396   3.186
36095W        W 6695  28.094  19.311   4.159
36096W        W 6696   2.180  40.751  11.936
36097W        W 6697   3.721  32.628   5.312
36098W        W 6698  14.010  41.924   2.558
36099W        W 6699   5.137  12.809   4.206
36100W        W 6700  34.916   4.137   1.286
36101W        W 6701   6.152  31.023  13.898
36102W        W 6702  14.371  40.416   2.771
36103W        W 6703  22.513  23.491   0.832
36104W        W 6704  44.836  24.066   2.853
36105W        W 6705   5.716  36.550   2.466
36106W        W 6706  27.735  16.742  12.909
36107W        W 6707   0.705  15.096   3.183
36108W        W 6708  40.126  28.564   3.838
36109W        W 6709  33.148  20.063  11.660
36110W        W 6710  42.745  35.110  10.677
36111W        W 6711  17.317  40.370  11.081
36112W        W 6712  33.129   6.329   2.887
36113W        W 6713  22.522  31.047   1.700
36114W        W 6714  31.033  17.267  14.518
36115W        W 6715  12.384  41.834   0.710
36116W        W 6716   2.454  16.565   3.723
36117W        W 6717  21.097  40.230   1.344
36118W        W 6718   5.816   3.416   4.874
36119W        W 6719  33.661  14.671   1.780
36120W        W 6720  37.178  42.458   5.168
36121W        W 6721  12.169  43.474  14.003
36122W        W 6722   2.149   0.049  12.543
36123W        W 6723  24.188  19.594   3.066
36124W        W 6724  19.530  29.995   4.592
36125W        W 6725  42.466   6.026   5.387
36126W        W 6726   5.476  15.059   1.147
36127W        W 6727  33.526   7.327  12.375
36128W        W 6728  24.243  36.685   3.258
36129W        W 6729  44.541   5.772   2.895
36130W        W 6730  21.603  41.794  13.387
36131W        W 6731  39.209  10.741   1.433
36132W        W 6732  34.175  16.251  13.400
36133W        W 6733  29.115  25.919  13.498
36134W        W 6734  11.068  30.590   4.589
36135W        W 6735  20.828  36.176  12.614
36136W        W 6736  31.340   3.232  11.508
36137W        W 6737  35.798  41.919   1.714
36138W        W 6738  35.788  29.127   1.928
36139W        W 6739  36.152  25.070   2.809
36140W        W 6740   4.109  33.825   1.549
36141W        W 6741  40.376  29.799   4.336
36142W        W 6742  29.056  32.901   2.809
36143W        W 6743  32.429   1.841  12.828
36144W        W 6744   8.937   6.713  13.809
36145W        W 6745  21.780  34.152   3.229
36146W        W 6746  18.060   0.029   0.743
36147W        W 6747  16.275   8.408   2.423
36148W        W 6748  31.495   8.190  14.243
36149W        W 6749  22.708   6.468  12.499
36150W        W 6750  16.496  43.401   2.390
36151W        W 6751  14.627   1.437   1.872
36152W        W 6752  10.942  12.420  10.392
36153W        W 6753  32.116  37.767  13.173
36154W        W 6754  16.010   6.862  11.862
36155W        W 6755  33.117  29.354   4.012
36156W        W 6756  14.008  13.597   2.916
36157W        W 6757  43.904  38.042  13.891
36158W        W 6758  13.643  24.121   4.557
36159W        W 6759   3.745   2.807  13.511
36160W        W 6760  41.861   5.184   0.875
36161W        W 6761  29.839  11.263  11.033
36162W        W 6762   6.881  21.504   1.486
36163W        W 6763  43.018  41.437  14.485
36164W        W 6764  27.810   4.191  12.902
36165W        W 6765  24.636  36.460  14.840
36166W        W 6766   5.349  27.024  10.685
36167W        W 6767  26.630  33.974  10.506
36168W        W 6768  35.842  15.116   2.936
36169W        W 6769  35.382  42.033   0.771
36170W        W 6770   5.955  31.929   4.159
36171W        W 6771   7.435   1.995   0.459
36172W        W 6772  22.523  13.390  12.454
36173W        W 6773  22.292  22.212   0.499
36174W        W 6774   4.542  13.393  14.277
36175W        W 6775  11.418  29.041  13.910
36176W        W 6776  30.538  10.959  13.768
36177W        W 6777  19.860  10.471  11.889
36178W        W 6778  32.018  30.989  10.880
36179W        W 6779  12.298  34.450   4.155
36180W        W 6780  43.798   6.187   1.760
36181W        W 6781   3.932  15.897  12.927
36182W        W 6782  12.803  35.503  14.018
36183W        W 6783  24.751  30.130   0.738
36184W        W 6784  13.648  31.555   2.312
36185W        W 6785  26.296  17.678   4.203
36186W        W 6786  27.005  35.448   1.425
36187W        W 6787  32.674  32.877  11.184
36188W        W 6788  25.924  12.254  13.528
36189W        W 6789  43.534  34.620  14.073
36190W        W 6790  38.029   4.008   0.305
36191W        W 6791  33.546   6.268  14.571
36192W        W 6792  15.701  35.826   0.986
36193W        W 6793  31.267  13.453   2.890
36194W        W 6794  11.276  16.787   2.270
36195W        W 6795  37.391  17.028  13.110
36196W        W 6796  14.113  40.485   2.315
36197W        W 6797  10.524  43.793   4.574
36198W        W 6798   0.828   0.856  10.707
36199W        W 6799   3.857  33.613   2.023
36200W        W 6800  34.961  31.558   3.405
36201W        W 6801  14.678  30.410  13.068
36202W        W 6802  11.510  33.894  11.191
36203W        W 6803  17.269  22.563   4.647
36204W        W 6804  12.926  42.686   2.416
36205W        W 6805  31.011  14.060  10.649
36206W        W 6806  32.849  37.402   1.867
36207W        W 6807   3.773  14.150  11.789
36208W        W 6808  11.223  19.690  12.096
36209W        W 6809   4.164  30.487  12.142
36210W        W 6810  41.458  27.532  14.998
36211W        W 6811  44.878  20.527   0.001
36212W        W 6812   8.246  16.021   0.499
36213W        W 6813  24.922  40.032  13.383
36214W        W 6814   7.005  27.287  11.557
36215W        W 6815   4.539  33.609   0.351
36216W        W 6816  25.141  37.272  12.422
36217W        W 6817  26.567  17.542   2.816
36218W        W 6818  17.651  40.232   0.469
36219W        W 6819  40.055  11.674  11.526
36220W        W 6820  41.146   6.301   0.288
36221W        W 6821  17.271  16.732  14.576
36222W        W 6822  12.485  20.260   3.268
36223W        W 6823   8.388   8.935  13.519
36224W        W 6824   3.929   5.096  12.080
36225W        W 6825  38.242   0.243   0.995
36226W        W 6826  18.671  16.817  14.970
36227W        W 6827  16.983  19.303  11.664
36228W        W 6828   3.915  41.299   3.570
36229W        W 6829  23.135  41.339   2.844
36230W        W 6830  37.585  29.980   1.665
36231W        W 6831  14.571  40.029  10.292
36232W        W 6832   0.076  10.501  11.159
36233W        W 6833  44.175   2.311  14.271
36234W        W 6834  34.101   7.695   0.143
36235W        W 6835  27.678  24.473   3.343
36236W        W 6836  38.666   4.189   1.373
36237W        W 6837  10.736  34.355  14.770
36238W        W 6838   4.270   5.404  12.779
36239W        W 6839  27.156  43.382  13.918
36240W        W 6840   1.387   5.947   0.264
36241W        W 6841  12.756  17.341   4.888
36242W        W 6842  36.115  12.491   1.768
36243W        W 6843  30.966   2.460  14.633
36244W        W 6844  24.515  29.410   0.753
36245W        W 6845  35.970  37.197  11.969
36246W        W 6846  43.088   5.163  14.989
36247W        W 6847  31.638   4.436   2.081
36248W        W 6848  30.976  29.691  12.461
36249W        W 6849  18.867  31.542   0.511
36250W        W 6850   9.073  24.635  11.262
36251W        W 6851  31.620  29.177   4.452
36252W        W 6852   2.430  26.374  14.926
36253W        W 6853  18.164  28.664   2.085
36254W        W 6854  19.015  32.101  10.669
36255W        W 6855   3.337  29.391   3.336
36256W        W 6856   4.455  30.100  11.972
36257W        W 6857  24.663  20.312  11.915
36258W        W 6858  25.558  27.958   2.189
36259W        W 6859  24.366   5.436   4.543
36260W        W 6860   5.585  30.575   3.016
36261W        W 6861  15.113  14.509   3.227
36262W        W 6862  12.191  12.994   1.493
36263W        W 6863  41.479  31.417  12.713
36264W        W 6864  40.232  44.838  13.045
36265W        W 6865  32.470  41.167   1.188
36266W        W 6866  12.185  32.451   4.481
36267W        W 6867  31.190   5.996  14.522
36268W        W 6868  44.434  36.853   0.794
36269W        W 6869  44.433   1.376   4.659
36270W        W 6870  35.678  37.728   2.796
36271W        W 6871   3.884  14.380   0.953
36272W        W 6872  31.617  40.396  10.235
36273W        W 6873  13.395  39.892  14.220
36274W        W 6874  15.517  25.178  13.779
36275W        W 6875  20.712   6.923  14.907
36276W        W 6876  14.636  13.608  12.970
36277W        W 6877   0.789   3.936   4.873
36278W        W 6878  42.366  44.819  12.934
36279W        W 6879  25.063  13.763   1.489
36280W        W 6880  30.955  40.060   3.188
36281W        W 6881  33.290  30.344  11.581
36282W        W 6882  19.369  37.393  12.892
36283W        W 6883  19.609  37.842  12.859
36284W        W 6884   2.603  43.574  11.169
36285W        W 6885  12.357   4.239  14.270
36286W        W 6886   4.245  22.012   3.674
36287W        W 6887  15.033  13.358  13.832
36288W        W 6888  39.842  13.891  14.031
36289W        W 6889   0.940  15.634  13.045
36290W        W 6890   9.316  44.468  11.985
36291W        W 6891  23.620  25.049  11.615
36292W        W 6892   6.366  22.994  14.421
36293W        W 6893  15.193  16.949  11.144
36294W        W 6894  25.940  42.868  13.319
36295W        W 6895  40.428  19.742  11.461
36296W        W 6896  21.031  30.114   0.590
36297W        W 6897  39.713  26.045  13.797
36298W        W 6898  16.196  11.728  10.770
36299W        W 6899  15.736  16.150  12.506
36300W        W 6900   3.860  15.837  13.864
36301W        W 6901  21.533  21.155   0.692
36302W        W 6902  15.709  26.558   0.758
36303W        W 6903  29.877  10.206  13.898
36304W        W 6904  34.521  17.930   4.267
36305W        W 6905  37.385  41.997   0.027
36306W        W 6906  16.820  40.393   1.621
36307W        W 6907   3.899  10.786  10.650
36308W        W 6908  43.050  32.712  13.459
36309W        W 6909  26.175  20.213   4.703
36310W        W 6910   1.453  34.056   0.360
36311W        W 6911  10.265  17.203  11.557
36312W        W 6912  34.789  17.460   4.022
36313W        W 6913  43.476  34.372   0.463
36314W        W 6914   7.668   1.473   1.115
36315W        W 6915  31.039   1.058   0.949
36316W        W 6916   6.322   5.610   4.319
36317W        W 6917  36.833  43.306  14.616
36318W        W 6918  28.232  25.575  11.030
36319W        W 6919  13.313  19.936  12.195
36320W        W 6920  24.871  27.517   1.725
36321W        W 6921  30.645   7.185   3.093
36322W        W 6922  16.561   4.856   4.394
36323W        W 6923  25.962  40.256  14.006
36324W        W 6924   8.386  11.127   2.238
36325W        W 6925  16.385  33.631  11.556
36326W        W 6926   4.312  11.725  12.368
36327W        W 6927  10.239  11.362  12.923
36328W        W 6928  35.025   7.529  14.460
36329W        W 6929   5.920   5.471   4.850
36330W        W 6930  16.070   1.639  12.470
36331W        W 6931  28.885  39.745  13.042
36332W        W 6932  19.442   0.820  13.330
36333W        W 6933  23.698  13.607   2.449
36334W        W 6934  36.091  22.108   4.863
36335W        W 6935  21.502  17.276  13.069
36336W        W 6936   7.755  19.208   0.474
36337W        W 6937  19.845  39.629   1.822
36338W        W 6938   8.372  20.810  13.159
36339W        W 6939  17.959   4.854   1.566
36340W        W 6940  34.474   1.431  13.590
36341W        W 6941  36.010   3.890  13.019
36342W        W 6942  42.274  23.223  11.564
36343W        W 6943  25.819   9.182  12.888
36344W        W 6944  14.142  34.410  10.164
36345W        W 6945  38.457  26.386  12.022
36346W        W 6946  21.040  37.993   3.645
36347W        W 6947  33.914   1.300   3.976
36348W        W 6948  41.465  42.017  13.932
36349W        W 6949   3.162  22.522   4.579
36350W        W 6950  37.348  10.958   3.669
36351W        W 6951  19.255  16.277   4.737
36352W        W 6952   1.020  19.654  10.802
36353W        W 6953   1.727  34.172   3.949
36354W        W 6954  31.230  24.641  11.385
36355W        W 6955   4.385  34.687   9.615
36356W        W 6956  35.094  28.687   1.249
36357W        W 6957  19.849   1.399  11.267
36358W        W 6958  44.303  12.286   4.601
36359W        W 6959  11.224  15.015   0.850
36360W        W 6960   2.171  21.608   1.325
36361W        W 6961  43.940  25.920  11.223
36362W        W 6962  11.786  16.245   2.665
36363W        W 6963  18.159  41.448   2.707
36364W        W 6964  12.940  12.079   2.022
36365W        W 6965  19.173  29.078   0.829
36366W        W 6966  20.110  27.580   1.189
36367W        W 6967   1.417  35.674  14.928
36368W        W 6968  27.288  27.556   2.295
36369W        W 6969  34.553   4.846   3.060
36370W        W 6970  16.280  21.670   1.385
36371W        W 6971  15.672  30.680   2.397
36372W        W 6972  37.364  28.424   1.695
36373W        W 6973  30.577  37.986  11.423
36374W        W 6974  33.901  37.596   3.158
36375W        W 6975  29.532  12.227  13.689
36376W        W 6976  16.444  19.343  14.816
36377W        W 6977  30.946   3.683   4.132
36378W        W 6978  10.967  42.358  12.091
36379W        W 6979  17.173   8.566  13.073
36380W        W 6980   7.006   2.200  12.100
36381W        W 6981  37.037  18.706   3.335
36382W        W 6982  44.355  32.490   1.712
36383W        W 6983  24.046  24.765  10.422
36384W        W 6984  17.863  19.662  14.355
36385W        W 6985  11.287  28.540   2.358
36386W        W 6986  16.847  21.502   3.294
36387W        W 6987  17.071  29.737  14.012
36388W        W 6988  41.449  31.522   4.456
36389W        W 6989  39.311   5.877  13.948
36390W        W 6990   3.297  28.055   1.243
36391W        W 6991  28.607  39.335   1.094
36392W        W 6992  16.827  39.489  14.705
36393W        W 6993  32.822  32.321   1.904
36394W        W 6994   5.936  32.695   3.543
36395W        W 6995  20.708   7.125   1.358
36396W        W 6996  29.872  44.036  11.658
36397W        W 6997  24.203  23.005  14.012
36398W        W 6998  32.908  28.979   4.876
36399W        W 6999  15.055  42.946  12.630
36400W        W 7000  36.985  12.552  10.651
36401W        W 7001   9.337   4.278  10.359
36402W        W 7002  41.247  18.669   2.338
36403W        W 7003  16.834  13.665  14.385
36404W        W 7004   6.552  14.744   1.938
36405W        W 7005  20.042  31.839  11.627
36406W        W 7006   5.010  34.411   0.004
36407W        W 7007  44.470  23.826  13.996
36408W        W 7008  24.690  27.834   2.128
36409W        W 7009  42.507   6.909   1.713
36410W        W 7010  18.624  18.708   1.469
36411W        W 7011  26.203  12.986  11.066
36412W        W 7012   7.212  27.958  13.060
36413W        W 7013  44.391  30.772  10.195
36414W        W 7014  20.758   5.302   4.517
36415W        W 7015   7.555  20.505   0.184
36416W        W 7016   5.785  32.510  11.576
36417W        W 7017  13.414   0.360   4.503
36418W        W 7018  29.976  39.048  12.000
36419W        W 7019  10.836  24.791   1.078
36420W        W 7020  31.353  41.821  13.965
36421W        W 7021   6.411   6.705   4.257
36422W        W 7022  37.831  42.812  12.104
36423W        W 7023  23.089  16.667  12.598
36424W        W 7024  21.828   7.943  13.208
36425W        W 7025   6.055  27.946   3.045
36426W        W 7026  37.826  35.131   0.047
36427W        W 7027  16.286  22.661  10.127
36428W        W 7028  21.738  44.600   3.675
36429W        W 7029  37.934  32.533  13.456
36430W        W 7030   2.916   1.938  14.896
36431W        W 7031   6.011  31.701   0.317
36432W        W 7032  22.119   7.101  11.599
36433W        W 7033  23.786   6.757   2.826
36434W        W 7034   4.672   4.579  10.886
36435W        W 7035  35.455  44.033   1.169
36436W        W 7036  19.523  20.904   2.334
36437W        W 7037  24.609   4.315   1.463
36438W        W 7038  36.131   5.192  14.631
36439W        W 7039  28.050  24.167   1.347
36440W        W 7040  43.450  20.418  13.750
36441W        W 7041  28.677  24.653  10.810
36442W        W 7042   1.249  17.763  14.352
36443W        W 7043  11.186  29.501  11.071
36444W        W 7044  31.506   4.119   0.831
36445W        W 7045  23.786  15.703   2.233
36446W        W 7046  31.506   7.414   2.314
36447W        W 7047  27.205   4.405   0.799
36448W        W 7048  35.539   7.024  11.262
36449W        W 7049  26.323  13.594   0.764
36450W        W 7050  17.256  38.361  13.779
36451W        W 7051  22.288  35.059   4.510
36452W        W 7052  12.685  41.353   1.910
36453W        W 7053   0.523  29.644  12.782
36454W        W 7054   5.712  17.716  12.122
36455W        W 7055  42.768   8.242  14.218
36456W        W 7056  16.693  23.516  14.272
36457W        W 7057  38.808  26.887   0.378
36458W        W 7058  23.232  29.376  10.678
36459W        W 7059   8.726  28.184  10.685
36460W        W 7060  28.486  38.075   3.906
36461W        W 7061  20.081  42.867   4.068
36462W        W 7062  28.949  19.170   0.667
36463W        W 7063  15.314   6.702   1.923
36464W        W 7064  35.843  33.595  12.857
36465W        W 7065  22.979  44.003  13.352
36466W        W 7066   4.570  38.729  11.013
36467W        W 7067  21.973   3.037   2.275
36468W        W 7068   8.683  15.609   2.222
36469W        W 7069  16.450   3.198   3.843
36470W        W 7070  20.328  34.081   2.222
36471W        W 7071   5.879  18.534  11.702
36472W        W 7072  19.804   4.609  13.033
36473W        W 7073  30.915  22.312   1.148
36474W        W 7074  21.118  13.580   4.983
36475W        W 7075  25.938  34.319  11.017
36476W        W 7076  41.760   8.104  11.123
36477W        W 7077   2.315  32.635  12.657
36478W        W 7078   1.878  17.902   4.610
36479W        W 7079  38.497  37.804  12.711
36480W        W 7080  11.593  21.085  12.668
36481W        W 7081  25.883  43.909  13.963
36482W        W 7082  44.496  12.913  10.143
36483W        W 7083  16.844  39.336  13.479
36484W        W 7084  23.104  42.765   0.431
36485W        W 7085   1.219  17.333   3.841
36486W        W 7086  23.311  41.089  14.315
36487W        W 7087  13.967  42.480  13.338
36488W        W 7088  25.065   0.365  13.599
36489W        W 7089  17.763  16.074  12.651
36490W        W 7090  39.605  10.166  12.942
36491W        W 7091   2.944   5.752  12.107
36492W        W 7092  14.687  33.713  10.357
36493W        W 7093  27.581   3.296  13.702
36494W        W 7094   5.672  23.941  12.137
36495W        W 7095  15.702   8.664   4.520
36496W        W 7096  16.669  16.075   1.253
36497W        W 7097   8.838  31.016   1.149
36498W        W 7098  21.254  13.588  11.981
36499W        W 7099  15.196  38.006  12.781
36500W        W 7100   1.831  27.965  13.062
36501W        W 7101  33.622  43.907  11.157
36502W        W 7102   3.775  25.690   4.263
36503W        W 7103  41.291   5.952  14.082
36504W        W 7104  42.165  20.797   4.544
36505W        W 7105  29.850  34.537   2.876
36506W        W 7106  36.174  32.308   4.023
36507W        W 7107  24.260  35.697   4.767
36508W        W 7108  12.576  43.737   1.839
36509W        W 7109   1.445  37.589  13.989
36510W        W 7110  44.024  40.443   3.585
36511W        W 7111   4.023  21.222  14.737
36512W        W 7112  19.109  33.993   9.751
36513W        W 7113  17.020   4.963   4.143
36514W        W 7114   2.211  36.852   0.351
36515W        W 7115  12.945  23.537  13.446
36516W        W 7116  29.670  22.258  12.022
36517W        W 7117  27.061  23.601  12.098
36518W        W 7118  12.398  36.097   4.437
36519W        W 7119   3.922  32.570   2.556
36520W        W 7120  14.182  21.260  14.217
36521W        W 7121  28.505   5.297   1.569
36522W        W 7122  20.653  29.162   2.797
36523W        W 7123   3.942   0.463   4.404
36524W        W 7124  33.636  43.549   2.339
36525W        W 7125   9.648  28.776   4.142
36526W        W 7126  14.258  41.930  13.382
36527W        W 7127  43.467  23.064   0.254
36528W        W 7128  37.006  39.013   1.716
36529W        W 7129  16.953   0.875  13.346
36530W        W 7130  24.637   5.081   1.930
36531W        W 7131  44.711  44.235   4.090
36532W        W 7132   5.759  39.797   1.343
36533W        W 7133  15.581   7.491  14.973
36534W        W 7134  15.813  41.420   0.434
36535W        W 7135  23.086   2.501  12.477
36536W        W 7136  31.620  28.632  14.012
36537W        W 7137  15.215  32.183   2.371
36538W        W 7138  32.484  12.788   2.801
36539W        W 7139  17.247  11.941   2.342
36540W        W 7140  44.883  40.307  12.996
36541W        W 7141  15.842  25.726  12.162
36542W        W 7142  43.021  28.526   2.643
36543W        W 7143  18.699  33.400  13.846
36544W        W 7144  10.816  11.651  12.143
36545W        W 7145  39.372  31.672  13.376
36546W        W 7146  35.461  40.755   3.717
36547W        W 7147  25.461  44.977  10.421
36548W        W 7148  12.909  29.114   2.677
36549W        W 7149  29.453   0.491   0.279
36550W        W 7150  17.271  18.593  14.017
36551W        W 7151  29.005  26.125  14.850
36552W        W 7152  13.118   0.162   3.648
36553W        W 7153  26.394  22.030   3.662
36554W        W 7154  18.449  38.928   4.941
36555W        W 7155  28.238  38.848  14.236
36556W        W 7156  11.308  35.034  13.830
36557W        W 7157  32.604   1.076  13.974
36558W        W 7158  13.598  35.897   2.620
36559W        W 7159  10.223  28.925  11.528
36560W        W 7160  25.237  17.760   0.446
36561W        W 7161   6.338  41.440  12.060
36562W        W 7162  40.034  15.732   1.308
36563W        W 7163  43.834  30.522  11.610
36564W        W 7164   8.143  34.902   2.923
36565W        W 7165  13.551  34.389  13.539
36566W        W 7166   1.207  21.195  10.615
36567W        W 7167  29.170   3.345  10.549
36568W        W 7168   0.011  19.033   3.289
36569W        W 7169  18.166  31.899   2.290
36570W        W 7170  40.463  19.922   1.994
36571W        W 7171  41.300  29.376  14.363
36572W        W 7172  42.238  23.519   4.334
36573W        W 7173  18.074  44.393  14.015
36574W        W 7174  43.498  19.542  14.258
36575W        W 7175   5.925  44.971  11.523
36576W        W 7176   9.214  36.073   3.087
36577W        W 7177  26.623  44.837   4.272
36578W        W 7178  13.296  31.979  12.923
36579W        W 7179  43.855  39.839  11.357
36580W        W 7180  22.725  15.197  11.102
36581W        W 7181  21.236  25.383  11.426
36582W        W 7182   8.483  33.545  13.399
36583W        W 7183  30.348   5.337   2.875
36584W        W 7184  29.060  37.499  10.636
36585W        W 7185  30.567  43.008  11.171
36586W        W 7186  29.880  36.457   0.966
36587W        W 7187  30.127  40.272   1.339
36588W        W 7188   8.801  14.156  12.622
36589W        W 7189  14.863  15.272   3.499
36590W        W 7190  20.687  43.161   4.608
36591W        W 7191  27.015   5.392  13.974
36592W        W 7192  37.540   8.091  13.987
36593W        W 7193  34.528   1.465   2.391
36594W        W 7194  38.327   1.297  12.297
36595W        W 7195  40.881  21.969   2.286
36596W        W 7196   2.240  18.844  10.697
36597W        W 7197  36.872  27.084   3.993
36598W        W 7198   7.868  14.778  14.551
36599W        W 7199  17.595   6.127  10.763
36600W        W 7200  43.948  24.665  13.818
36601W        W 7201   4.416  13.553   4.506
36602W        W 7202  14.088  24.215  14.826
36603W        W 7203  37.927  43.815   2.497
36604W        W 7204   9.671  15.131  13.002
36605W        W 7205  42.509  43.851   3.981
36606W        W 7206  24.604  18.537  12.543
36607W        W 7207  31.186  30.031  12.824
36608W        W 7208  40.007  29.192   0.134
36609W        W 7209   8.564   4.784   1.566
36610W        W 7210  18.818  17.691   1.930
36611W        W 7211   6.782  30.658  11.090
36612W        W 7212  34.610   2.986  13.918
36613W        W 7213  11.175  15.080   4.606
36614W        W 7214  43.079   3.456   0.935
36615W        W 7215   0.292  35.107   1.338
36616W        W 7216  14.677  33.165  12.000
36617W        W 7217   2.276  38.511   2.512
36618W        W 7218  44.566   6.589   1.798
36619W        W 7219  18.941   0.441  13.814
36620W        W 7220  29.091  34.614  13.386
36621W        W 7221  32.428  16.757   1.199
36622W        W 7222  29.858  25.874   0.832
36623W        W 7223   1.421  23.240   3.674
36624W        W 7224  36.717  26.294  14.419
36625W        W 7225  43.222  33.994   0.228
36626W        W 7226   0.294  13.401  12.080
36627W        W 7227  33.827   4.481   1.847
36628W        W 7228  34.116  14.155  11.148
36629W        W 7229  10.008  12.643   0.512
36630W        W 7230  21.357  16.904   0.926
36631W        W 7231  10.829  29.964   4.665
36632W        W 7232  34.574  24.714   3.238
36633W        W 7233  29.427  41.025  12.998
36634W        W 7234  42.693  25.933   1.818
36635W        W 7235  36.507  37.839  12.419
36636W        W 7236  11.777  33.005   0.956
36637W        W 7237   5.424  22.981   0.699
36638W        W 7238  44.823  41.005  11.510
36639W        W 7239   1.700  25.156   3.826
36640W        W 7240  19.054  40.551  11.473
36641W        W 7241  39.718   6.496  10.880
36642W        W 7242  34.175  38.290  13.900
36643W        W 7243  41.821   8.355  11.967
36644W        W 7244  18.360   4.883  10.323
36645W        W 7245  31.176  44.925   3.615
36646W        W 7246   0.186   4.396  13.318
36647W        W 7247  40.714  36.065   2.843
36648W        W 7248  27.106  25.672   2.309
36649W        W 7249  40.272  21.088  13.997
36650W        W 7250  28.005  39.184  13.341
36651W        W 7251  24.201  20.086  11.114
36652W        W 7252  26.436  14.272  14.414
36653W        W 7253  40.380  16.284  13.936
36654W        W 7254  15.611  28.587  11.949
36655W        W 7255   8.269  43.481  14.763
36656W        W 7256  38.839  38.664   4.208
36657W        W 7257  30.235   5.762  13.528
36658W        W 7258  24.566  35.609   3.894
36659W        W 7259  21.112  19.998   3.194
36660W        W 7260   1.498  39.609  14.956
36661W        W 7261  33.030  15.378   1.773
36662W        W 7262  30.009  10.199  11.429
36663W        W 7263  18.445  31.930   4.912
36664W        W 7264   2.231  28.469   1.810
36665W        W 7265  32.036  32.039  14.890
36666W        W 7266  15.873   5.773  13.534
36667W        W 7267  17.679   5.941   1.016
36668W        W 7268  35.428   0.954  13.535
36669W        W 7269  31.559  21.702  13.448
36670W        W 7270  35.839   7.488   1.795
36671W        W 7271   7.829   2.889  13.765
36672W        W 7272  23.414  31.109   1.281
36673W        W 7273  36.358  27.681   2.866
36674W        W 7274  15.843   1.321   0.346
36675W        W 7275  41.738  40.410   4.528
36676W        W 7276  15.737  21.946  10.438
36677W        W 7277  25.413  15.671   2.273
36678W        W 7278  14.734  22.474   3.394
36679W        W 7279  43.833  41.309  11.073
36680W        W 7280  10.733  34.504  12.152
36681W        W 7281  37.456  30.195  12.315
36682W        W 7282  30.645  12.067   0.902
36683W        W 7283  17.183  25.967  13.961
36684W        W 7284  12.203  23.226  11.450
36685W        W 7285  42.744  36.248   3.377
36686W        W 7286  24.187  10.131   0.429
36687W        W 7287   3.329  15.320  11.521
36688W        W 7288   9.207  24.526   2.633
36689W        W 7289  36.301  27.590   0.446
36690W        W 7290  23.409  40.482  11.651
36691W        W 7291   1.993  19.838   2.672
36692W        W 7292  27.541  14.396   3.088
36693W        W 7293  25.744  26.803  12.164
36694W        W 7294  30.465  12.422   2.315
36695W        W 7295  19.766  16.351   2.546
36696W        W 7296  34.806  26.118   1.830
36697W        W 7297  11.095  33.004  14.684
36698W        W 7298   2.527   5.493  11.953
36699W        W 7299   8.425   0.785   4.656
36700W        W 7300  11.193  44.447   1.777
36701W        W 7301  18.550  37.030   1.978
36702W        W 7302  18.001  25.053  13.460
36703W        W 7303  24.436   5.986   4.559
36704W        W 7304  39.882   7.949  11.336
36705W        W 7305  12.531  20.940   2.307
36706W        W 7306  40.999  32.595   1.707
36707W        W 7307  12.751  15.522   0.234
36708W        W 7308  22.065  33.597  12.903
36709W        W 7309  41.155   3.819   2.782
36710W        W 7310  33.918   3.960  10.608
36711W        W 7311   5.852  34.319   4.387
36712W        W 7312  20.694   4.903   0.973
36713W        W 7313  20.666  34.594   3.672
36714W        W 7314  26.522   1.191  12.428
36715W        W 7315  23.432  25.411   4.495
36716W        W 7316  21.616   8.059   1.885
36717W        W 7317   8.555  15.536  12.696
36718W        W 7318  15.353   7.228   5.092
36719W        W 7319  27.241   1.917  14.843
36720W        W 7320  13.570  39.243  11.729
36721W        W 7321  38.808   0.344   1.919
36722W        W 7322   2.142   6.173   1.298
36723W        W 7323  27.149  15.859  13.957
36724W        W 7324  12.257   4.244   2.638
36725W        W 7325   6.095  39.156  13.908
36726W        W 7326  33.798  28.632  13.457
36727W        W 7327   5.663  39.330  13.033
36728W        W 7328  38.128  11.785  11.536
36729W        W 7329  15.366   4.949  12.520
36730W        W 7330  30.139  43.077  11.950
36731W        W 7331  37.759  31.045   3.241
36732W        W 7332  37.376  17.120   0.853
36733W        W 7333  13.741   2.961  13.023
36734W        W 7334   3.589  41.853   0.182
36735W        W 7335  19.349  38.833   1.363
36736W        W 7336  38.973  28.416  11.155
36737W        W 7337  39.367  25.262   4.166
36738W        W 7338   0.694  13.812   3.709
36739W        W 7339  28.826   7.450  13.494
36740W        W 7340  12.662  28.167  11.493
36741W        W 7341   7.536  20.216   1.935
36742W        W 7342  13.581  39.215   1.410
36743W        W 7343  29.671  29.968  14.499
36744W        W 7344   7.491  33.529   1.353
36745W        W 7345  28.377  40.882  11.407
36746W        W 7346  40.449   8.221   4.940
36747W        W 7347  38.927   9.735  12.054
36748W        W 7348   4.938  15.177  14.416
36749W        W 7349   6.847   9.343   0.996
36750W        W 7350  43.439   9.837  10.689
36751W        W 7351  17.246  20.621  13.874
36752W        W 7352  24.823  11.361  10.711
36753W        W 7353  41.915  33.134   2.596
36754W        W 7354   3.432  16.584  10.845
36755W        W 7355  27.092   1.820   5.146
36756W        W 7356  10.629   6.790  11.373
36757W        W 7357   1.929  23.174   2.737
36758W        W 7358  32.384  30.752  12.996
36759W        W 7359  14.227   3.160   0.683
36760W        W 7360  41.221  34.620  12.957
36761W        W 7361  12.733  29.539  10.740
36762W        W 7362  12.612  43.900   4.602
36763W        W 7363  19.783  36.921   2.700
36764W        W 7364  44.782  40.303  13.898
36765W        W 7365  24.720  16.818  13.375
36766W        W 7366   5.877  31.653  12.494
36767W        W 7367  26.273   3.629   1.874
36768W        W 7368  38.162  12.657  10.543
36769W        W 7369  39.587  41.202  12.800
36770W        W 7370  37.451  34.615   4.246
36771W        W 7371  18.630  18.345  13.415
36772W        W 7372  21.346  32.936   3.239
36773W        W 7373   8.089  13.355  10.430
36774W        W 7374  14.734  41.027  10.468
36775W        W 7375  41.812  10.314  11.992
36776W        W 7376  17.584  36.884   4.790
36777W        W 7377  27.517   6.411  14.123
36778W        W 7378  20.683  23.656   4.635
36779W        W 7379  29.966   7.372   3.791
36780W        W 7380  44.372  42.646   0.923
36781W        W 7381  27.536  26.784   0.407
36782W        W 7382  44.717  39.841   3.041
36783W        W 7383  12.559  23.134   1.276
36784W        W 7384   5.115   1.410   2.845
36785W        W 7385  21.345  22.528   3.289
36786W        W 7386  24.097   6.868  14.490
36787W        W 7387  25.740  18.185  13.865
36788W        W 7388   7.259  27.033  14.835
36789W        W 7389  20.706  37.127  12.935
36790W        W 7390  22.616  16.681  12.373
36791W        W 7391  13.835   3.597   3.333
36792W        W 7392  29.629  23.465   9.566
36793W        W 7393   7.763  40.502  12.012
36794W        W 7394  15.841   9.792   2.770
36795W        W 7395  11.090   5.524   3.323
36796W        W 7396   2.251   7.342  14.860
36797W        W 7397  29.100   3.191   0.388
36798W        W 7398  28.459  38.390  11.250
36799W        W 7399  25.942  33.580  12.133
36800W        W 7400  24.252   9.346   1.608
36801W        W 7401  39.962  12.988   0.426
36802W        W 7402  32.009  13.852   3.301
36803W        W 7403   2.108  32.659   1.798
36804W        W 7404  32.038  38.629  12.963
36805W        W 7405  13.052   5.000  14.851
36806W        W 7406  13.805   6.624  11.019
36807W        W 7407  36.365  28.127   0.306
36808W        W 7408  39.763  44.345  10.815
36809W        W 7409  30.617  28.586  12.955
36810W        W 7410   9.869  34.616  11.228
36811W        W 7411  15.757  38.352  13.400
36812W        W 7412  33.646   3.676  12.451
36813W        W 7413  19.693   1.913   0.302
36814W        W 7414  38.126   0.828   2.697
36815W        W 7415  37.924  31.055   2.396
36816W        W 7416   3.535  41.416   2.364
36817W        W 7417  25.071  24.088   2.239
36818W        W 7418  38.960   1.288   4.687
36819W        W 7419  16.247   0.900  14.752
36820W        W 7420  17.753   0.898   4.383
36821W        W 7421  43.595   3.201  11.664
36822W        W 7422  35.340  24.063  13.108
36823W        W 7423   5.298   6.747   1.976
36824W        W 7424  13.604   4.801  11.601
36825W        W 7425   5.398  35.534  11.264
36826W        W 7426  37.489   0.503  14.349
36827W        W 7427  10.306  19.166   1.659
36828W        W 7428  36.677  41.143   1.090
36829W        W 7429  30.367  19.658   4.069
36830W        W 7430  17.073  30.230   2.663
36831W        W 7431   1.438   1.307   0.929
36832W        W 7432  34.009   1.895   3.730
36833W        W 7433   7.740  43.741  13.920
36834W        W 7434  15.117  28.625  12.628
36835W        W 7435  27.662  39.049  14.127
36836W        W 7436   0.523  30.882  12.416
36837W        W 7437  23.205  10.632   4.268
36838W        W 7438   3.003  40.091  10.583
36839W        W 7439  17.698  12.503   2.938
36840W        W 7440  40.902  11.524  11.925
36841W        W 7441  16.200  14.813  13.411
36842W        W 7442   9.172  21.433   4.723
36843W        W 7443  19.155  14.612   3.903
36844W        W 7444  27.189  34.459  13.423
36845W        W 7445   9.376  33.350  12.085
36846W        W 7446  28.491  32.686  14.367
36847W        W 7447   4.259  26.781  13.866
36848W        W 7448  13.368  16.382  10.984
36849W        W 7449  15.791  33.391   3.679
36850W        W 7450   5.918  24.199   2.908
36851W        W 7451  26.648  38.216   4.665
36852W        W 7452  11.383   8.997  10.605
36853W        W 7453  29.132  41.507   3.597
36854W        W 7454  40.744  35.373   0.715
36855W        W 7455  33.906   8.953  14.090
36856W        W 7456  28.028  43.941  12.235
36857W        W 7457   5.516  40.884   1.996
36858W        W 7458  43.731  43.999   2.279
36859W        W 7459  38.573  22.567   2.245
36860W        W 7460  38.436  44.508   2.536
36861W        W 7461   6.962   1.197  10.755
36862W        W 7462  20.625   0.434  12.587
36863W        W 7463   2.910  16.385  13.931
36864W        W 7464  36.371   5.487  13.814
36865W        W 7465   9.002  24.078   1.871
36866W        W 7466   4.342  17.050   0.399
36867W        W 7467  43.223   5.290   1.749
36868W        W 7468   3.776   5.650  10.478
36869W        W 7469   4.439  26.147  14.531
36870W        W 7470   3.201  25.516  10.500
36871W        W 7471  38.462  36.463  13.865
36872W        W 7472  10.786  25.166  11.728
36873W        W 7473  39.039  19.370   3.175
36874W        W 7474  44.996  35.939  13.555
36875W        W 7475  25.649  22.290   3.267
36876W        W 7476  30.097  22.235  12.326
36877W        W 7477  19.688  28.028  14.455
36878W        W 7478  22.718   3.829   2.428
36879W        W 7479  16.184  22.269  13.122
36880W        W 7480  11.393  32.611  14.485
36881W        W 7481  30.948   0.602   1.336
36882W        W 7482  14.255  42.476  11.029
36883W        W 7483  30.440  37.946  14.911
36884W        W 7484  38.399  39.346   1.246
36885W        W 7485  39.767  28.959  12.176
36886W        W 7486   9.168  26.242   1.043
36887W        W 7487  29.369  37.385  13.464
36888W        W 7488  23.649  33.792  10.717
36889W        W 7489  10.565   3.896   2.817
36890W        W 7490  21.996  28.387  12.088
36891W        W 7491  28.415  15.410   4.165
36892W        W 7492   5.963  12.615   2.292
36893W        W 7493  23.829  35.974   0.144
36894W        W 7494  12.217  15.346   1.792
36895W        W 7495  23.303   4.853   1.346
36896W        W 7496  27.783  16.739  11.932
36897W        W 7497  35.291  27.502   3.576
36898W        W 7498  36.157   6.114  11.625
36899W        W 7499  12.586  20.675  11.171
36900W        W 7500  25.684  17.181  12.512
36901W        W 7501   2.638  16.221   3.100
36902W        W 7502  26.401  44.330   4.243
36903W        W 7503  40.475  11.203   2.866
36904W        W 7504  12.680   7.272   0.132
36905W        W 7505  13.960  24.630  13.001
36906W        W 7506  13.703  39.868  12.385
36907W        W 7507   1.501  39.195  11.258
36908W        W 7508  36.015  35.024  11.101
36909W        W 7509   6.744  44.220   3.863
36910W        W 7510   7.907  23.096   3.784
36911W        W 7511   2.349  43.486  13.391
36912W        W 7512  15.284   9.112   0.973
36913W        W 7513   1.697  44.821   1.658
36914W        W 7514  23.810  36.199  11.608
36915W        W 7515  17.269  42.858  11.967
36916W        W 7516  10.489  25.092   1.340
36917W        W 7517  26.451  41.452  13.021
36918W        W 7518  26.093  10.811  12.914
36919W        W 7519  17.310  38.606   1.051
36920W        W 7520   1.550  10.912  14.186
36921W        W 7521  39.025  31.012   4.959
36922W        W 7522   2.720  22.928  12.516
36923W        W 7523  13.715  32.491   2.295
36924W        W 7524  27.468  28.735   4.147
36925W        W 7525  11.318  43.766  12.098
36926W        W 7526   6.464  31.434   0.256
36927W        W 7527   4.024  23.641   1.109
36928W        W 7528  23.948  39.408  14.029
36929W        W 7529  33.529  22.494   2.858
36930W        W 7530  30.990  14.342   0.915
36931W        W 7531   8.153  24.286  14.436
36932W        W 7532  40.584   3.529  13.794
36933W        W 7533  31.978  37.654   0.756
36934W        W 7534  44.633  11.336   2.624
36935W        W 7535  37.574  10.380  13.973
36936W        W 7536  41.386  19.434   0.287
36937W        W 7537  19.535  16.350   4.287
36938W        W 7538  16.481  41.525  12.840
36939W        W 7539   8.765  16.211   2.477
36940W        W 7540   5.642  22.136  13.144
36941W        W 7541  41.573  44.737   4.534
36942W        W 7542  44.852  40.329   3.150
36943W        W 7543  34.209   2.768  13.113
36944W        W 7544  20.559   2.895  11.395
36945W        W 7545  32.567   1.146   3.983
36946W        W 7546   3.858  12.183   1.892
36947W        W 7547  15.663  44.358   0.728
36948W        W 7548  23.453  29.415   1.803
36949W        W 7549  32.132  37.322   4.098
36950W        W 7550  34.022  14.639  14.905
36951W        W 7551  38.557   7.328   0.265
36952W        W 7552  15.206  17.586  14.414
36953W        W 7553  23.905  38.483   0.978
36954W        W 7554  42.919  42.965  11.747
36955W        W 7555  31.637  34.686   4.601
36956W        W 7556   9.272  35.986   4.623
36957W        W 7557  27.560  11.466   2.025
36958W        W 7558  19.051  38.657   0.974
36959W        W 7559  33.372   6.355  11.454
36960W        W 7560  32.507  37.359  12.567
36961W        W 7561  38.232  42.941  11.185
36962W        W 7562  18.151   2.716  11.541
36963W        W 7563  23.502  16.820  11.581
36964W        W 7564   0.526   5.213  14.819
36965W        W 7565  42.882  16.793   2.249
36966W        W 7566  40.012  44.682   0.454
36967W        W 7567   0.407   0.972   1.822
36968W        W 7568  12.729  18.318  14.336
36969W        W 7569  44.483  16.257   2.735
36970W        W 7570  29.659   0.002   4.196
36971W        W 7571   3.492  23.235  10.698
36972W        W 7572   4.772  22.997  14.905
36973W        W 7573  28.081  32.717   0.532
36974W        W 7574  38.816  16.673  11.550
36975W        W 7575   4.933  29.515  11.516
36976W        W 7576  23.536  42.035   2.246
36977W        W 7577  36.627  35.327  13.527
36978W        W 7578  26.022  23.692  11.389
36979W        W 7579   4.463  31.187   2.947
36980W        W 7580   3.735  36.448  10.739
36981W        W 7581  25.269  43.671  11.893
36982W        W 7582  41.962   4.437  14.449
36983W        W 7583  40.765  37.855  13.851
36984W        W 7584  16.496  17.012  13.048
36985W        W 7585  27.835  44.360   4.697
36986W        W 7586   1.225  24.433  13.450
36987W        W 7587  34.366   5.161  12.639
36988W        W 7588  39.279  44.670   2.735
36989W        W 7589  33.432  31.574   0.085
36990W        W 7590  40.150  44.315  11.194
36991W        W 7591  38.588   1.906   4.808
36992W        W 7592  36.758   9.769  10.718
36993W        W 7593  13.796  32.545   3.200
36994W        W 7594  37.402  11.003  14.344
36995W        W 7595  27.212  13.267  14.958
36996W        W 7596  14.270   7.424   4.596
36997W        W 7597  19.626  32.115   0.300
36998W        W 7598  20.544  32.167  11.627
36999W        W 7599  42.959  24.258   5.032
37000W        W 7600  42.660  20.623   4.470
37001W        W 7601  12.711  44.804  13.930
37002W        W 7602   0.260   5.544   0.755
37003W        W 7603  24.060  42.440  12.835
37004W        W 7604   7.038   3.712   0.425
37005W        W 7605   0.030  22.086  14.875
37006W        W 7606  15.517  26.605   3.617
37007W        W 7607  12.285  32.625   1.786
37008W        W 7608  17.166  31.835  10.229
37009W        W 7609  34.154  23.861   0.871
37010W        W 7610   4.703  36.454  14.070
37011W        W 7611  30.213  29.094   2.185
37012W        W 7612   7.441  24.543   0.329
37013W        W 7613  17.162  39.838   2.176
37014W        W 7614  25.251  21.280   1.671
37015W        W 7615   1.693  21.787   3.609
37016W        W 7616  37.380   4.996   4.346
37017W        W 7617  22.270  27.576  11.622
37018W        W 7618   9.835  28.364   0.332
37019W        W 7619  16.662   3.472  12.607
37020W        W 7620  12.274  13.006   0.574
37021W        W 7621  18.133  15.548  11.708
37022W        W 7622  22.199  30.614   2.731
37023W        W 7623  19.565  33.619   3.522
37024W        W 7624  41.375  27.394   2.814
37025W        W 7625  20.200  22.652  10.644
37026W        W 7626  27.048  28.592   3.220
37027W        W 7627  37.122  25.188   1.002
37028W        W 7628  21.574  25.830   3.843
37029W        W 7629  33.881   9.690  11.516
37030W        W 7630   2.658  27.953   4.291
37031W        W 7631  42.422  18.181   1.969
37032W        W 7632  35.561  37.991   1.678
37033W        W 7633   7.292  30.085  14.858
37034W        W 7634  19.439  41.396  13.815
37035W        W 7635   3.697  31.067   4.615
37036W        W 7636   5.668  17.062   0.855
37037W        W 7637  32.706   9.220   0.930
37038W        W 7638   0.795  18.554   1.868
37039W        W 7639   4.362  19.048  10.670
37040W        W 7640  13.712  44.082  14.386
37041W        W 7641  16.875  15.337   3.781
37042W        W 7642  20.180  33.655   1.280
37043W        W 7643   7.691   2.928   0.905
37044W        W 7644  38.440  35.140   2.779
37045W        W 7645   8.392  33.988   2.942
37046W        W 7646  41.386   0.764  12.050
37047W        W 7647  11.880  34.527   3.879
37048W        W 7648  34.945  36.628  14.018
37049W        W 7649  10.653   4.934   4.664
37050W        W 7650  19.701  31.483  14.549
37051W        W 7651  10.495  15.546   2.389
37052W        W 7652  27.526  30.910   4.438
37053W        W 7653  39.919  18.028   3.342
37054W        W 7654  22.709   6.708   3.903
37055W        W 7655   8.742  12.444  12.932
37056W        W 7656  25.479  24.016   0.866
37057W        W 7657  36.853  21.548   0.978
37058W        W 7658  28.528  35.784  11.989
37059W        W 7659  20.670  13.695  13.594
37060W        W 7660  27.476  33.419  13.375
37061W        W 7661  31.715  40.521  11.391
37062W        W 7662  17.184  31.388   2.352
37063W        W 7663  20.655  29.531   0.542
37064W        W 7664  21.130  10.422  12.461
37065W        W 7665   1.830   1.094  12.639
37066W        W 7666  27.144  25.645   0.062
37067W        W 7667  43.892   7.837  13.133
37068W        W 7668  16.078  38.406   2.741
37069W        W 7669  35.524  42.956  12.218
37070W        W 7670  32.926  13.692   0.365
37071W        W 7671  28.491  20.212  13.975
37072W        W 7672   4.270  32.890   3.742
37073W        W 7673  18.079  19.215   0.223
37074W        W 7674  39.554   1.923   2.251
37075W        W 7675  25.611  44.745   4.152
37076W        W 7676  24.603  10.612   1.421
37077W        W 7677  28.051  40.455  10.165
37078W        W 7678  38.985  23.466  11.621
37079W        W 7679  19.587  15.505   5.090
37080W        W 7680  28.602  32.319   2.130
37081W        W 7681   6.639  19.214  13.067
37082W        W 7682  30.631   8.283  14.268
37083W        W 7683  44.426   3.464   4.089
37084W        W 7684  36.330  28.252   3.433
37085W        W 7685  18.387  25.483  11.077
37086W        W 7686   4.890  42.552   2.736
37087W        W 7687  31.162   5.442  12.087
37088W        W 7688   4.801  43.732  11.000
37089W        W 7689  42.409  18.865   2.877
37090W        W 7690   2.673  41.132   2.414
37091W        W 7691  29.529  21.078   1.571
37092W        W 7692  34.661   7.737   3.555
37093W        W 7693  25.445   2.380   1.384
37094W        W 7694  25.421   2.179   2.972
37095W        W 7695  12.297  39.275  11.606
37096W        W 7696  29.187   5.220   3.291
37097W        W 7697  22.269  37.674   0.211
37098W        W 7698   8.584  25.089  13.596
37099W        W 7699   9.216  36.303  14.730
37100W        W 7700  43.315  42.972  12.516
37101W        W 7701  31.747  36.941  10.707
37102W        W 7702  14.014  36.220  13.358
37103W        W 7703   7.289  17.060   1.290
37104W        W 7704  12.642  37.786   1.147
37105W        W 7705  30.182  41.494  13.934
37106W        W 7706  34.890   2.915  12.509
37107W        W 7707  11.703  41.280   0.479
37108W        W 7708   9.391   6.412  13.975
37109W        W 7709  35.945  12.581  11.036
37110W        W 7710  38.860  41.026  10.550
37111W        W 7711  35.624   0.787  14.999
37112W        W 7712   9.678   4.438   4.587
37113W        W 7713  37.051  16.623  12.456
37114W        W 7714  16.355   8.192  14.801
37115W        W 7715  31.760  14.797  13.903
37116W        W 7716  22.234  37.187  12.055
37117W        W 7717  37.798  22.321   3.385
37118W        W 7718  28.465  27.412  12.035
37119W        W 7719  21.468  25.963  11.565
37120W        W 7720   8.374  15.628  14.207
37121W        W 7721  40.297  31.163  14.767
37122W        W 7722  38.591  44.826  11.612
37123W        W 7723   4.796  10.475  13.739
37124W        W 7724  43.769   7.367  14.357
37125W        W 7725  28.161  41.041   0.242
37126W        W 7726  26.427  14.375  10.714
37127W        W 7727  12.096  17.649  13.893
37128W        W 7728  22.551  38.909  12.220
37129W        W 7729  29.664  29.352   1.940
37130W        W 7730   4.185  26.619  11.429
37131W        W 7731   9.153  30.712   3.690
37132W        W 7732  27.639  37.611  12.653
37133W        W 7733  36.515   6.691   0.852
37134W        W 7734  21.601  25.198   0.723
37135W        W 7735  26.947  33.484  11.364
37136W        W 7736  21.548  32.016  13.925
37137W        W 7737  17.146   4.821   4.610
37138W        W 7738   3.809  22.810  11.974
37139W        W 7739  21.288   2.968   1.737
37140W        W 7740   8.908   4.363  10.651
37141W        W 7741  33.903  40.875   2.695
37142W        W 7742  31.420  42.891  10.357
37143W        W 7743  34.981  38.339   2.607
37144W        W 7744   7.829  29.474   3.462
37145W        W 7745  24.570  34.522   0.943
37146W        W 7746  38.334  16.125   4.215
37147W        W 7747  11.800  30.383  12.182
37148W        W 7748  29.636  23.412  12.265
37149W        W 7749  24.421   6.268   0.944
37150W        W 7750  27.944   2.257  12.530
37151W        W 7751  23.114  34.353  10.699
37152W        W 7752  23.106  37.142   0.076
37153W        W 7753  16.825  32.866   5.838
37154W        W 7754  39.763   3.259  12.502
37155W        W 7755  22.181  43.770  13.078
37156W        W 7756  22.347  41.306   3.384
37157W        W 7757  15.963   6.135  13.885
37158W        W 7758  31.421   3.026   4.911
37159W        W 7759  40.316   7.247  11.482
37160W        W 7760  11.273  16.332   0.288
37161W        W 7761  11.643   2.776   4.424
37162W        W 7762  36.083   0.781  14.749
37163W        W 7763  14.877  37.430  14.892
37164W        W 7764  31.202  14.127  14.940
37165W        W 7765  23.232  43.401  12.732
37166W        W 7766  27.456  44.463  10.163
37167W        W 7767  33.820  31.036   2.417
37168W        W 7768   6.209  14.543   1.338
37169W        W 7769  12.282  30.456   0.761
37170W        W 7770  15.908  17.061  13.788
37171W        W 7771  14.487  39.855  11.973
37172W        W 7772   7.748  32.442   3.144
37173W        W 7773  44.994  34.441   3.749
37174W        W 7774  16.816  12.679   1.161
37175W        W 7775  13.181  27.965  12.126
37176W        W 7776  32.195   4.522  10.318
37177W        W 7777  10.066  22.570   1.755
37178W        W 7778  33.163   4.728   3.675
37179W        W 7779  12.249  29.908   0.002
37180W        W 7780  28.445  35.603   3.274
37181W        W 7781  19.012  26.391  14.471
37182W        W 7782  12.759  31.498  13.114
37183W        W 7783   7.381  27.009   3.599
37184W        W 7784  38.582  44.194   1.535
37185W        W 7785  10.322   2.904   1.340
37186W        W 7786  39.007   3.820   4.838
37187W        W 7787   2.383  10.895   3.081
37188W        W 7788  25.227  24.838   2.863
37189W        W 7789  33.382   7.905   2.972
37190W        W 7790  39.065  17.132   4.588
37191W        W 7791  12.200  28.211   4.535
37192W        W 7792  36.780  37.993  14.802
37193W        W 7793   9.747  30.078  13.018
37194W        W 7794  24.997  16.298   0.432
37195W        W 7795   4.733  22.746  10.846
37196W        W 7796  32.233  42.740   3.752
37197W        W 7797   1.497  42.848   1.456
37198W        W 7798  21.570   1.603   3.787
37199W        W 7799  27.590  42.080  13.643
37200W        W 7800   6.443  44.319  10.527
37201W        W 7801  37.284  11.582  12.632
37202W        W 7802  39.856   6.903  14.538
37203W        W 7803  25.728  33.083   3.644
37204W        W 7804  15.846  20.629  14.925
37205W        W 7805  19.227  41.518   4.515
37206W        W 7806  23.618  31.562   3.726
37207W        W 7807  25.624  28.149  12.639
37208W        W 7808   1.438  24.906  13.387
37209W        W 7809   5.400  24.732   4.138
37210W        W 7810   7.934  29.575   2.473
37211W        W 7811  15.337  20.677  14.864
37212W        W 7812  22.217  27.278  13.791
37213W        W 7813  32.038  39.445  12.413
37214W        W 7814   2.075  22.739  13.244
37215W        W 7815   4.159  30.038  11.542
37216W        W 7816  44.910  33.496  10.660
37217W        W 7817  42.776   2.846   4.622
37218W        W 7818  34.007   6.834   1.194
37219W        W 7819  33.521  38.519   4.809
37220W        W 7820  27.730  15.090   2.258
37221W        W 7821   0.963  42.656   4.017
37222W        W 7822   8.433  34.430   3.257
37223W        W 7823   5.646  34.975   1.471
37224W        W 7824  29.059  28.951   4.520
37225W        W 7825   9.351  29.498   2.482
37226W        W 7826  30.100  16.746   1.371
37227W        W 7827  32.574  29.396   0.993
37228W        W 7828  19.781   6.670  12.552
37229W        W 7829  43.884  18.843   3.617
37230W        W 7830  40.950  37.272   1.416
37231W        W 7831  12.438  39.699   4.266
37232W        W 7832  40.980  27.016  13.917
37233W        W 7833   0.502  28.687   0.853
37234W        W 7834   4.194  38.985   2.363
37235W        W 7835   7.724  11.782   4.147
37236W        W 7836  19.248  14.305   1.740
37237W        W 7837   9.698  26.014   1.880
37238W        W 7838   4.888  42.655  14.494
37239W        W 7839  39.823   2.906  14.024
37240W        W 7840   3.254  35.554  10.348
37241W        W 7841  26.746   8.156  13.932
37242W        W 7842   3.823  34.630   2.502
37243W        W 7843  12.357   2.658   1.886
37244W        W 7844  10.612  25.783  11.985
37245W        W 7845  37.528  37.108   0.864
37246W        W 7846  42.893  42.385   4.918
37247W        W 7847  17.696  10.910  14.935
37248W        W 7848  35.975  24.954  11.124
37249W        W 7849  41.704  30.145   4.193
37250W        W 7850  42.542  37.968  10.661
37251W        W 7851  31.621   0.969  13.813
37252W        W 7852  38.988  12.743   0.251
37253W        W 7853  36.666  28.680   2.767
37254W        W 7854  21.291  28.463   2.880
37255W        W 7855  40.850  32.534  13.302
37256W        W 7856  19.491  23.068  14.960
37257W        W 7857  11.195  17.758  14.879
37258W        W 7858  10.684  34.438  12.653
37259W        W 7859  25.544  23.232  12.514
37260W        W 7860  30.675   5.667  12.646
37261W        W 7861  42.772  12.104  10.572
37262W        W 7862  29.834  17.141  13.864
37263W        W 7863  20.383  14.696  11.223
37264W        W 7864  40.865  25.989  12.892
37265W        W 7865  20.592  44.069   4.880
37266W        W 7866  27.476  16.765   0.819
37267W        W 7867   1.589  25.353  12.447
37268W        W 7868   1.261  12.363  14.959
37269W        W 7869  31.683  39.883  13.924
37270W        W 7870  23.028   0.547   3.828
37271W        W 7871  33.946  35.058   1.697
37272W        W 7872  14.083  22.602   1.807
37273W        W 7873  19.821   6.124   1.286
37274W        W 7874  13.583  34.949   2.208
37275W        W 7875  19.930  35.537  13.445
37276W        W 7876   3.431  13.188   1.746
37277W        W 7877  24.668   2.031   3.486
37278W        W 7878  32.852   5.919  13.905
37279W        W 7879  22.142   7.253   0.010
37280W        W 7880  11.939  43.383  13.407
37281W        W 7881  38.473   7.830  13.636
37282W        W 7882  32.583  32.597  13.406
37283W        W 7883   9.806  17.185  14.910
37284W        W 7884  19.898   0.300  11.261
37285W        W 7885  14.114  25.763  11.068
37286W        W 7886  32.561  42.763  14.357
37287W        W 7887  25.651  14.756  13.952
37288W        W 7888  27.383   2.311   1.712
37289W        W 7889   4.879  13.239  12.394
37290W        W 7890   3.985  42.351  11.471
37291W        W 7891  29.928  32.666   3.303
37292W        W 7892  11.838   0.246   4.515
37293W        W 7893  23.938  22.006   0.913
37294W        W 7894   2.975  21.082  13.100
37295W        W 7895   3.707   2.498  10.723
37296W        W 7896  21.556  14.287   4.768
37297W        W 7897  11.391  17.690   2.425
37298W        W 7898  19.734   2.446  12.158
37299W        W 7899  24.969  17.635   0.868
37300W        W 7900  10.302  10.441   5.038
37301W        W 7901  14.688  18.128  14.441
37302W        W 7902  18.146  25.066   3.790
37303W        W 7903  33.632  28.200  11.426
37304W        W 7904   9.378  44.396  10.876
37305W        W 7905  10.164  16.666  10.224
37306W        W 7906  18.083  11.633  11.221
37307W        W 7907  19.925  37.603   0.536
37308W        W 7908  15.263  41.917  14.886
37309W        W 7909   6.749  25.020   0.802
37310W        W 7910  40.478   0.077  10.868
37311W        W 7911  34.642  28.592   1.763
37312W        W 7912  24.339  27.479   3.047
37313W        W 7913  39.527   4.375   1.270
37314W        W 7914  36.372   1.262  11.608
37315W        W 7915  42.875  16.528   1.754
37316W        W 7916  36.626  21.269   0.346
37317W        W 7917   0.082  39.347  12.077
37318W        W 7918   1.598  44.499  14.552
37319W        W 7919  42.093   9.127   4.785
37320W        W 7920  14.718   2.350  12.359
37321W        W 7921  43.772  41.899  13.457
37322W        W 7922  23.706  26.363   4.482
37323W        W 7923  30.450  16.682   1.791
37324W        W 7924  31.814  20.473  11.082
37325W        W 7925  38.363   6.982   3.083
37326W        W 7926  39.927  17.308   4.626
37327W        W 7927  44.361   0.662   2.904
37328W        W 7928   5.326   2.714  12.340
37329W        W 7929  38.252  30.665   1.330
37330W        W 7930  29.415  14.622  12.907
37331W        W 7931  37.256  19.034   0.622
37332W        W 7932   3.870  36.208  11.166
37333W        W 7933  35.523  28.969  11.145
37334W        W 7934  11.235  21.611  11.151
37335W        W 7935  34.966  18.765   0.596
37336W        W 7936  12.239  17.407  14.330
37337W        W 7937  34.336  25.200   2.209
37338W        W 7938  38.995  12.372  13.828
37339W        W 7939   4.152   7.891   0.483
37340W        W 7940   4.598  32.850  14.767
37341W        W 7941   5.199  43.747  12.878
37342W        W 7942  33.465  18.989  12.091
37343W        W 7943  19.676   0.273   1.236
37344W        W 7944  40.976  23.482  14.786
37345W        W 7945   1.265  44.788  11.167
37346W        W 7946  39.807   6.695  13.618
37347W        W 7947  44.294   3.591  14.529
37348W        W 7948   7.479  44.229  11.569
37349W        W 7949  35.562   9.286  11.608
37350W        W 7950  37.804  19.720  12.470
37351W        W 7951  32.047  44.716  10.667
37352W        W 7952  43.262   2.838  11.576
37353W        W 7953  30.129  16.628   3.979
37354W        W 7954  38.388  15.643   3.987
37355W        W 7955  19.247  24.581   3.381
37356W        W 7956  44.724  32.766   3.635
37357W        W 7957  27.690  32.955  11.875
37358W        W 7958  24.648  15.171  14.939
37359W        W 7959  28.558   9.351   2.701
37360W        W 7960  24.073  26.669   3.171
37361W        W 7961  25.866  19.227  14.883
37362W        W 7962   3.057  18.643   5.015
37363W        W 7963  44.463  33.408   2.224
37364W        W 7964  44.730  20.555   1.686
37365W        W 7965  28.643  18.706   4.588
37366W        W 7966  19.228  40.508   4.361
37367W        W 7967  10.412  18.871  11.350
37368W        W 7968  32.115  31.903   1.481
37369W        W 7969  37.095  29.542   0.754
37370W        W 7970   0.626  22.941  11.153
37371W        W 7971  24.536  15.091   2.275
37372W        W 7972  23.195  14.044  14.510
37373W        W 7973   0.737  16.498   0.840
37374W        W 7974  44.330  40.855  13.378
37375W        W 7975  31.002   2.198   4.327
37376W        W 7976  23.622  31.658  14.110
37377W        W 7977  30.607  19.475   1.507
37378W        W 7978   7.187   4.812  10.112
37379W        W 7979   4.417  35.115  14.532
37380W        W 7980  23.112   3.814  11.682
37381W        W 7981   5.695   7.701  13.909
37382W        W 7982  18.125  27.666  10.865
37383W        W 7983  41.945  20.351  13.454
37384W        W 7984  44.707   3.249   3.690
37385W        W 7985   1.859   9.818   0.752
37386W        W 7986  40.859  33.575  13.425
37387W        W 7987   4.885  42.277  11.134
37388W        W 7988  21.067  15.555   2.558
37389W        W 7989  19.106  28.561   4.603
37390W        W 7990  29.886  37.797   4.136
37391W        W 7991   4.177  13.352  14.720
37392W        W 7992  37.916  10.692  14.982
37393W        W 7993  24.228  10.862   1.710
37394W        W 7994  30.136  28.591   2.231
37395W        W 7995  32.159  43.336  13.638
37396W        W 7996  35.823  36.046  14.430
37397W        W 7997  32.402  43.949   1.801
37398W        W 7998  34.517  28.114   3.025
37399W        W 7999   1.711  14.463  12.134
37400W        W 8000   3.827   0.466  12.833
37401W        W 8001  41.675  35.201   4.595
37402W        W 8002  11.125   7.670   2.687
37403W        W 8003   0.266  37.269   3.199
37404W        W 8004   4.188  27.477   3.708
37405W        W 8005   8.815  39.052   1.003
37406W        W 8006   6.870  27.730  11.295
37407W        W 8007  26.907  31.498  13.920
37408W        W 8008   5.895   2.693  14.558
37409W        W 8009  41.302  23.452  11.334
37410W        W 8010   1.958  22.656   2.772
37411W        W 8011  20.625  15.559  11.977
37412W        W 8012   0.344  27.179  10.512
37413W        W 8013   2.435  24.023   4.326
37414W        W 8014   8.312  17.250  13.526
37415W        W 8015   8.414  16.645   3.702
37416W        W 8016  20.047  39.302   3.944
37417W        W 8017  43.806   5.442  13.377
37418W        W 8018  35.360   7.248   1.802
37419W        W 8019  19.740  44.263  13.154
37420W        W 8020  34.435  29.691   0.537
37421W        W 8021  32.187  24.753  14.090
37422W        W 8022  30.169  15.729   1.257
37423W        W 8023  38.320  18.606  12.731
37424W        W 8024  38.508   2.635  14.399
37425W        W 8025   6.168   8.244  10.461
37426W        W 8026  15.086   7.504  12.458
37427W        W 8027   4.123  42.956  13.352
37428W        W 8028  41.560   6.348  14.278
37429W        W 8029  27.086  40.542   1.818
37430W        W 8030  26.175  39.819   2.622
37431W        W 8031   5.929  33.521   1.165
37432W        W 8032   0.309   4.274  13.804
37433W        W 8033   9.813  36.859   0.261
37434W        W 8034   3.816  29.440   3.077
37435W        W 8035  12.628  34.972  12.149
37436W        W 8036  12.396  11.107   4.231
37437W        W 8037  30.614  16.143   3.909
37438W        W 8038  11.903   2.973  13.101
37439W        W 8039   3.236   0.805  10.794
37440W        W 8040  40.545  44.249  10.385
37441W        W 8041   6.370  29.676  14.591
37442W        W 8042  34.979  43.167   3.859
37443W        W 8043  10.167  27.584   4.106
37444W        W 8044  28.629  26.138   4.637
37445W        W 8045  10.859  25.190   1.897
37446W        W 8046  15.570  27.978  13.348
37447W        W 8047  37.411   9.103  14.183
37448W        W 8048  27.116  11.848   4.748
37449W        W 8049  35.131  27.912   2.341
37450W        W 8050  23.058  43.725  11.472
37451W        W 8051  24.411  26.077  13.634
37452W        W 8052  44.339  10.381   3.579
37453W        W 8053  38.462   6.380  12.664
37454W        W 8054  39.669  22.098  13.004
37455W        W 8055   0.306  15.547  13.361
37456W        W 8056  14.635   1.278  12.461
37457W        W 8057  16.242  29.475   0.330
37458W        W 8058  16.255  27.987  13.965
37459W        W 8059  40.930  34.317  13.941
37460W        W 8060  33.093  16.459   0.864
37461W        W 8061  19.559  17.199  12.029
37462W        W 8062  31.137  39.363   2.300
37463W        W 8063  14.036  27.675  12.049
37464W        W 8064  36.982  30.151  11.104
37465W        W 8065   3.379  14.531  14.952
37466W        W 8066   3.447  44.413  14.383
37467W        W 8067   9.249  15.132  14.722
37468W        W 8068   3.974  27.530   1.884
37469W        W 8069  10.422  32.427   5.120
37470W        W 8070  30.404  41.558  10.729
37471W        W 8071  40.410   4.357   2.305
37472W        W 8072  18.664  32.518   0.414
37473W        W 8073   3.473  22.639   4.185
37474W        W 8074  26.694  11.550  13.406
37475W        W 8075  30.477  18.640   3.037
37476W        W 8076   0.749   3.739   4.398
37477W        W 8077  40.290   9.223  14.488
37478W        W 8078   6.545  20.632   0.329
37479W        W 8079  34.563  39.048   2.368
37480W        W 8080  10.284   4.334   2.803
37481W        W 8081  39.092  24.964   2.366
37482W        W 8082   9.247  25.034  11.641
37483W        W 8083   7.982  25.854   3.763
37484W        W 8084  33.468  42.707  13.124
37485W        W 8085  23.217   5.676   2.644
37486W        W 8086  41.546  32.427   3.481
37487W        W 8087   1.781  14.180  10.612
37488W        W 8088  43.427  26.416   0.191
37489W        W 8089  26.222  33.030  13.617
37490W        W 8090  22.437  21.272   0.704
37491W        W 8091   6.925   9.366   2.355
37492W        W 8092   6.911  28.393  12.374
37493W        W 8093  33.858  10.276  13.946
37494W        W 8094  43.939   3.883  14.815
37495W        W 8095  30.834  21.558  12.124
37496W        W 8096   6.879  27.662   1.339
37497W        W 8097   7.694  34.814   4.399
37498W        W 8098  43.486   6.778   0.882
37499W        W 8099  12.849  38.284   2.641
37500W        W 8100   4.346   1.343  10.755
37501W        W 8101  17.200  15.073  11.686
37502W        W 8102   4.631  26.633  11.664
37503W        W 8103  25.138  38.238   1.421
37504W        W 8104  37.275   4.922  12.386
37505W        W 8105  27.701  11.303   0.224
37506W        W 8106   6.259  14.007  14.783
37507W        W 8107  42.310   8.161  13.440
37508W        W 8108  25.196  23.425  11.508
37509W        W 8109  32.840  26.580  14.512
37510W        W 8110   8.886  24.064  11.123
37511W        W 8111  17.062  15.801  10.708
37512W        W 8112  23.202  21.202   1.411
37513W        W 8113   4.010  12.622  11.228
37514W        W 8114  25.501  11.935  10.418
37515W        W 8115   5.264  43.265   2.040
37516W        W 8116  44.625  44.378  13.619
37517W        W 8117  42.258  21.850   3.366
37518W        W 8118  28.619  10.770   3.976
37519W        W 8119   7.863  26.395  12.440
37520W        W 8120  18.930  24.670  11.936
37521W        W 8121   8.705  28.250  13.101
37522W        W 8122   5.887  30.707  10.910
37523W        W 8123   7.205  27.177  12.539
37524W        W 8124  33.494   3.823  11.073
37525W        W 8125  16.721  32.006  12.028
37526W        W 8126  25.474  44.841   0.677
37527W        W 8127  35.069  25.084  12.491
37528W        W 8128  15.686  14.154  14.861
37529W        W 8129  43.266  38.596  14.350
37530W        W 8130  35.033  31.434   1.805
37531W        W 8131   0.037  28.377  13.990
37532W        W 8132  26.646   6.067   4.536
37533W        W 8133   9.732  42.618   1.801
37534W        W 8134  44.030   3.824   1.798
37535W        W 8135  32.889  44.426   3.758
37536W        W 8136   3.820  16.403  13.832
37537W        W 8137   7.603  25.573  11.154
37538W        W 8138  38.431  29.747  11.097
37539W        W 8139  38.328   3.234  13.533
37540W        W 8140  16.322   2.777   0.646
37541W        W 8141  21.514  15.575   1.834
37542W        W 8142  43.624  14.147   3.358
37543W        W 8143   2.481  22.695   1.011
37544W        W 8144  35.887  17.849   0.694
37545W        W 8145   0.456  25.818   4.907
37546W        W 8146  22.002  18.552  11.369
37547W        W 8147  42.730  16.373  13.424
37548W        W 8148   7.555  23.284  11.272
37549W        W 8149  33.901  15.210  14.497
37550W        W 8150   4.254  40.052   1.495
37551W        W 8151  25.935  26.577   3.444
37552W        W 8152  17.327  40.196  13.486
37553W        W 8153   3.405  33.924  12.646
37554W        W 8154  28.626  40.035   0.914
37555W        W 8155   7.919  11.847   2.745
37556W        W 8156   2.383   2.419   2.049
37557W        W 8157  36.915  15.389  14.449
37558W        W 8158  22.583  33.752   1.020
37559W        W 8159  19.730   8.746  14.812
37560W        W 8160   0.680  41.615  14.170
37561W        W 8161  44.977  29.740  13.530
37562W        W 8162  36.033  28.806  13.838
37563W        W 8163  35.898  26.158   3.330
37564W        W 8164   2.984  30.204  13.849
37565W        W 8165  25.789  34.922   4.067
37566W        W 8166  32.002  43.776   4.613
37567W        W 8167  25.573  42.094  13.872
37568W        W 8168  10.803  21.004  11.093
37569W        W 8169  13.250  39.008  11.406
37570W        W 8170  21.013  14.571   4.508
37571W        W 8171  32.312  16.177  14.382
37572W        W 8172  44.534  26.496   4.101
37573W        W 8173  33.905   2.209   0.447
37574W        W 8174   7.797  24.767  11.602
37575W        W 8175  43.971  21.223  10.668
37576W        W 8176  43.021  35.377   1.793
37577W        W 8177  38.758  26.027  10.988
37578W        W 8178  32.639  18.643   1.643
37579W        W 8179  21.440  31.654  14.404
37580W        W 8180  30.642  15.339  14.826
37581W        W 8181   6.883  24.120   4.312
37582W        W 8182  21.366  26.711   4.503
37583W        W 8183  43.110   5.399   2.578
37584W        W 8184  31.380  17.146   2.196
37585W        W 8185  25.919  31.892  14.844
37586W        W 8186  43.373  21.264  13.424
37587W        W 8187  13.776  16.079   2.818
37588W        W 8188  12.551   0.822   3.322
37589W        W 8189  31.232  15.370   1.153
37590W        W 8190  28.496  16.373   0.521
37591W        W 8191  17.292  30.574  11.746
37592W        W 8192   3.902  38.928  13.882
37593W        W 8193  29.409   6.311   1.441
37594W        W 8194  25.619  22.248   1.245
37595W        W 8195   4.887  22.723  13.533
37596W        W 8196  38.517  13.142   4.699
37597W        W 8197   8.359   7.268  11.009
37598W        W 8198   3.305  43.401  14.071
37599W        W 8199  37.565  27.789  14.966
37600W        W 8200  23.516   5.107   3.224
37601W        W 8201   5.583  38.903   3.964
37602W        W 8202  26.965  19.746   4.686
37603W        W 8203  32.470  35.875  13.086
37604W        W 8204  40.765  28.048  14.526
37605W        W 8205  26.567  26.111   5.064
37606W        W 8206   4.271  31.833   4.571
37607W        W 8207  16.381  17.052  14.232
37608W        W 8208  10.149  38.232   1.910
37609W        W 8209  26.712  10.179   4.749
37610W        W 8210  29.062  40.769   3.073
37611W        W 8211  33.982  31.999   3.876
37612W        W 8212  32.132  27.135  13.470
37613W        W 8213  22.676   8.280   0.514
37614W        W 8214  19.254  14.837   3.209
37615W        W 8215  16.270  17.774  11.900
37616W        W 8216  25.715  17.744  14.494
37617W        W 8217  37.560   2.454  11.774
37618W        W 8218  37.968  14.845  12.606
37619W        W 8219  38.669   6.137  14.466
37620W        W 8220  10.643  16.397  12.857
37621W        W 8221  37.702  29.808   2.719
37622W        W 8222   3.562  11.107  10.433
37623W        W 8223  17.056  33.468  14.235
37624W        W 8224  17.619  40.479   2.272
37625W        W 8225  25.622  20.055   2.150
37626W        W 8226  13.877  40.602  13.350
37627W        W 8227  35.836  13.999   4.633
37628W        W 8228  38.341  41.291   3.239
37629W        W 8229  15.545  26.682  11.438
37630W        W 8230  35.656  23.027  11.695
37631W        W 8231  42.576   0.410   2.868
37632W        W 8232  27.675  27.744  10.988
37633W        W 8233  35.514   2.695   3.831
37634W        W 8234  43.881  32.150  11.524
37635W        W 8235   1.998  35.939  12.106
37636W        W 8236  26.110   6.502  11.890
37637W        W 8237  16.717  17.837   4.888
37638W        W 8238  38.868  39.586  12.331
37639W        W 8239  34.406  33.067  12.654
37640W        W 8240  44.263   5.113   4.309
37641W        W 8241  18.169  19.163   4.961
37642W        W 8242  34.676  44.999  10.971
37643W        W 8243  18.883  29.238  12.611
37644W        W 8244   1.676  15.827  13.461
37645W        W 8245  42.563   0.417   4.715
37646W        W 8246  11.042  30.166  11.972
37647W        W 8247  34.370  22.568  12.087
37648W        W 8248  32.075  16.808   3.231
37649W        W 8249  19.122  32.383   2.198
37650W        W 8250   8.317  35.966  10.345
37651W        W 8251   9.207  44.313  12.933
37652W        W 8252  23.947  23.474  11.586
37653W        W 8253  22.603  12.402   3.276
37654W        W 8254  44.772  31.357   1.388
37655W        W 8255  19.159  21.581  14.153
37656W        W 8256  35.353   2.809  11.669
37657W        W 8257  25.604  29.738   3.777
37658W        W 8258  15.411  23.982  11.145
37659W        W 8259  10.891  36.940  14.411
37660W        W 8260  14.565  26.421   2.187
37661W        W 8261   9.136  17.065   1.807
37662W        W 8262  44.359  11.401  14.267
37663W        W 8263  26.967  16.597   2.835
37664W        W 8264  16.734  31.526   1.805
37665W        W 8265  44.514  36.033   3.066
37666W        W 8266   8.926  30.473   2.864
37667W        W 8267   5.682  33.655   3.214
37668W        W 8268  12.290   2.523  13.863
37669W        W 8269  11.074  42.408   9.687
37670W        W 8270  26.795   9.115   1.791
37671W        W 8271  22.631   3.002   3.021
37672W        W 8272  30.137   1.392   0.436
37673W        W 8273   3.487   5.849   0.384
37674W        W 8274  39.908  16.622  12.483
37675W        W 8275  15.248  13.622  12.516
37676W        W 8276  35.990   1.265  14.856
37677W        W 8277  20.876  43.995  13.053
37678W        W 8278  11.234  36.561  11.522
37679W        W 8279   7.170   5.926   2.784
37680W        W 8280  36.156  11.348  13.300
37681W        W 8281  20.074  32.783  13.222
37682W        W 8282  42.511  17.138  13.089
37683W        W 8283  29.112  17.586   2.717
37684W        W 8284   3.491  14.065   0.890
37685W        W 8285  33.550  17.514   2.370
37686W        W 8286   4.442  39.971  14.347
37687W        W 8287   0.381   8.788  14.757
37688W        W 8288  18.966  27.143  12.007
37689W        W 8289   8.624  41.767  11.232
37690W        W 8290  10.634  23.133   1.171
37691W        W 8291  11.380  38.824   2.624
37692W        W 8292  18.842  38.176  10.456
37693W        W 8293   0.349   0.459  11.662
37694W        W 8294   9.311  25.600   3.852
37695W        W 8295  29.358  36.485  13.307
37696W        W 8296   6.103  35.051   0.333
37697W        W 8297  15.001   9.844   0.704
37698W        W 8298  33.607  22.217   2.396
37699W        W 8299   1.406  25.633  12.872
37700W        W 8300  10.227   3.067  13.892
37701W        W 8301   3.907   0.453   4.918
37702W        W 8302   6.662  30.557   1.498
37703W        W 8303  12.411  18.528   0.194
37704W        W 8304  38.856  18.093   0.283
37705W        W 8305  42.062  33.947   1.274
37706W        W 8306  30.172   0.018   2.312
37707W        W 8307  32.632  33.134   3.229
37708W        W 8308  30.575  31.351  11.875
37709W        W 8309   1.699  31.864  10.765
37710W        W 8310  17.655   2.460   0.431
37711W        W 8311  16.330  22.779  13.020
37712W        W 8312  13.366  17.827  12.946
37713W        W 8313  20.550  24.637   1.268
37714W        W 8314  43.456  34.749   2.487
37715W        W 8315   3.471  25.910   2.782
37716W        W 8316  26.023   4.495  10.979
37717W        W 8317  21.542  29.196   2.535
37718W        W 8318  15.677  11.994   4.983
37719W        W 8319  38.516  30.785   0.726
37720W        W 8320  14.866  22.378   3.882
37721W        W 8321  22.754   3.501  13.877
37722W        W 8322   3.487  20.282  12.905
37723W        W 8323  44.992  24.543   4.640
37724W        W 8324  34.496  25.613  11.600
37725W        W 8325   9.657  31.434  12.791
37726W        W 8326  24.827  25.471  13.102
37727W        W 8327  28.106  38.048   2.736
37728W        W 8328  42.584  27.699  11.073
37729W        W 8329  31.521  28.531  12.430
37730W        W 8330  37.566  39.749   0.288
37731W        W 8331   0.976  36.416   0.290
37732W        W 8332  42.873   1.652   0.442
37733W        W 8333  34.307  29.042   3.164
37734W        W 8334   2.547  38.356  11.916
37735W        W 8335  18.177  34.450  14.789
37736W        W 8336   1.220  10.677  14.504
37737W        W 8337  40.052  19.332   1.205
37738W        W 8338   9.869  25.274  10.624
37739W        W 8339  23.110   3.916  13.910
37740W        W 8340  16.382   4.962   3.036
37741W        W 8341  41.719  23.520   4.125
37742W        W 8342  24.583  10.694  10.744
37743W        W 8343  28.263  38.374  12.491
37744W        W 8344  33.354  44.755   3.081
37745W        W 8345  30.048  18.082   3.634
37746W        W 8346  23.667  22.988  13.356
37747W        W 8347  14.718   0.766  12.557
37748W        W 8348  17.158  17.742   3.403
37749W        W 8349  22.031   3.688  10.712
37750W        W 8350  41.241  34.205  12.635
37751W        W 8351   2.008  22.211   1.257
37752W        W 8352  39.022  17.220   0.879
37753W        W 8353   5.903  44.853  13.584
37754W        W 8354  19.806  38.562   1.494
37755W        W 8355   6.742   1.479  14.859
37756W        W 8356  20.332  26.993   4.207
37757W        W 8357  33.457  13.149   4.511
37758W        W 8358  44.128  43.246   4.097
37759W        W 8359  29.889  43.291  13.984
37760W        W 8360   5.748  24.511   0.974
37761W        W 8361   6.294   2.894  12.650
37762W        W 8362   6.277   8.820   3.284
37763W        W 8363  38.122   6.726  13.851
37764W        W 8364   8.527   1.583   2.640
37765W        W 8365  10.656  40.632   1.058
37766W        W 8366  36.337  22.564  14.833
37767W        W 8367   7.090  33.930  11.796
37768W        W 8368  41.980   9.759   0.239
37769W        W 8369  10.645  16.251  11.523
37770W        W 8370  25.903  20.773   2.030
37771W        W 8371  24.964  26.223   2.270
37772W        W 8372   4.749  44.324   3.368
37773W        W 8373   9.540  11.881   0.784
37774W        W 8374   0.967   5.940  14.498
37775W        W 8375  33.893  43.942   1.217
37776W        W 8376  34.013   3.704  11.034
37777W        W 8377  20.282  18.516   0.419
37778W        W 8378  16.534   7.448   4.197
37779W        W 8379  25.565  12.728  14.898
37780W        W 8380   3.044  36.514  10.368
37781W        W 8381  11.603   1.500  14.900
37782W        W 8382  14.617   9.635  12.563
37783W        W 8383  41.494  11.038  11.053
37784W        W 8384  41.030  44.386   0.231
37785W        W 8385   5.149  41.857   0.393
37786W        W 8386  41.899  24.495  13.380
37787W        W 8387   5.176   3.725  11.060
37788W        W 8388  31.055  23.774  12.903
37789W        W 8389   2.249  16.092   0.442
37790W        W 8390   9.349   7.642   3.225
37791W        W 8391  24.964  20.659   0.708
37792W        W 8392  23.334   4.224  12.934
37793W        W 8393  41.360  21.476  10.768
37794W        W 8394   4.327  27.236   0.347
37795W        W 8395  36.878  34.997   1.205
37796W        W 8396   5.765  26.911  12.295
37797W        W 8397  17.141  19.372  11.191
37798W        W 8398  37.354   3.964   2.307
37799W        W 8399  18.932  23.737   0.927
37800W        W 8400  16.205   3.957  12.823
37801W        W 8401  28.220  19.489   4.713
37802W        W 8402  19.115  28.040   5.194
37803W        W 8403  33.897  33.003  10.442
37804W        W 8404  23.426   0.194   3.826
37805W        W 8405   9.148   3.768   4.957
37806W        W 8406  17.775  26.105  14.916
37807W        W 8407   5.958  20.443  12.848
37808W        W 8408  15.445  36.892  11.183
37809W        W 8409   0.259  42.493   0.804
37810W        W 8410  29.363  28.165   2.219
37811W        W 8411  31.020  39.764  14.762
37812W        W 8412   6.990  36.582   1.433
37813W        W 8413   8.385   8.407   4.901
37814W        W 8414  29.157  32.072   0.779
37815W        W 8415   1.507  36.439  13.102
37816W        W 8416  37.284  43.533  13.280
37817W        W 8417  14.141  39.483   0.927
37818W        W 8418  11.224  20.626  10.627
37819W        W 8419  16.263   9.381  11.432
37820W        W 8420  40.891   1.415  12.029
37821W        W 8421  20.091   9.597  14.079
37822W        W 8422  28.802  24.925   2.220
37823W        W 8423  44.504  10.802  14.065
37824W        W 8424  40.896  37.697   4.611
37825W        W 8425  42.874  21.914   0.309
37826W        W 8426  44.706  14.635  13.379
37827W        W 8427   6.896   8.216   1.679
37828W        W 8428  31.393  24.033   2.335
37829W        W 8429  30.376   0.757   3.252
37830W        W 8430  27.935  41.326  12.932
37831W        W 8431  11.392  44.496   1.292
37832W        W 8432   6.243  30.989  12.019
37833W        W 8433  32.980  28.067   3.351
37834W        W 8434  35.089  33.557   2.171
37835W        W 8435  40.281  38.969  12.181
37836W        W 8436   9.279   2.823  14.320
37837W        W 8437  42.534  37.020  11.905
37838W        W 8438   4.190  39.864   4.396
37839W        W 8439  17.237  13.766  12.131
37840W        W 8440   2.140  25.280  14.013
37841W        W 8441   9.165   0.890  11.948
37842W        W 8442  34.574   8.095   4.554
37843W        W 8443  44.725  35.849  11.250
37844W        W 8444  41.903  42.108   3.849
37845W        W 8445  25.252   1.665  10.581
37846W        W 8446  38.610   2.866   0.539
37847W        W 8447  40.187  29.885  11.101
37848W        W 8448  24.748  38.993  11.454
37849W        W 8449  33.905  16.057   3.719
37850W        W 8450  18.326  18.123   4.762
37851W        W 8451  38.523   2.044   2.058
37852W        W 8452  34.944  38.176   0.002
37853W        W 8453  15.665   6.959   2.737
37854W        W 8454  20.173  33.636  10.954
37855W        W 8455  36.819  18.624  11.547
37856W        W 8456  27.451  41.241   0.712
37857W        W 8457  34.877  34.522   0.026
37858W        W 8458  15.687   7.127  12.991
37859W        W 8459  18.297  32.395   4.174
37860W        W 8460  19.610  19.358  14.116
37861W        W 8461  38.479  31.504   2.904
37862W        W 8462  40.965  34.676   4.426
37863W        W 8463  11.705  35.910  12.995
37864W        W 8464  33.867  29.646   0.117
37865W        W 8465  28.310  19.176   5.121
37866W        W 8466   3.255  32.431  12.660
37867W        W 8467  27.212  28.166  14.443
37868W        W 8468  40.129  25.524  14.470
37869W        W 8469  19.665  16.703   2.162
37870W        W 8470  26.753   5.306  13.536
37871W        W 8471  17.549  15.530  13.479
37872W        W 8472   6.270  38.411   4.295
37873W        W 8473  42.553  40.277   3.649
37874W        W 8474  12.371   0.718  14.824
37875W        W 8475  33.997  41.473   3.172
37876W        W 8476  31.723  10.825   3.114
37877W        W 8477  21.994  25.283   3.965
37878W        W 8478   3.873  25.141  12.867
37879W        W 8479  20.016  19.353   2.697
37880W        W 8480  38.864   3.190  13.428
37881W        W 8481   2.178  21.794   3.882
37882W        W 8482  37.114  20.144   1.336
37883W        W 8483   8.392   1.956   0.258
37884W        W 8484  33.055   6.068  10.732
37885W        W 8485  11.233  27.969  12.461
37886W        W 8486  37.596   2.723   0.879
37887W        W 8487  11.894  24.787  12.981
37888W        W 8488  40.811  28.588   2.676
37889W        W 8489  42.746  23.602   0.474
37890W        W 8490  44.102  37.439  10.918
37891W        W 8491  42.518   7.820   1.777
37892W        W 8492   2.641  42.854  11.534
37893W        W 8493  10.699  43.497  14.192
37894W        W 8494  24.678  32.566  14.513
37895W        W 8495   7.277  41.382  13.138
37896W        W 8496   5.800  32.367   4.473
37897W        W 8497  32.377  19.593   2.113
37898W        W 8498   9.825  12.525  11.885
37899W        W 8499  42.085  39.829  13.299
37900W        W 8500  40.014  31.192  10.966
37901W        W 8501   5.683  16.685  11.860
37902W        W 8502  11.684  11.137  10.748
37903W        W 8503  28.726  42.140   3.373
37904W        W 8504   7.848  24.562   4.702
37905W        W 8505  26.703  34.908   0.999
37906W        W 8506  41.548  10.724   0.211
37907W        W 8507  36.248  34.043  13.772
37908W        W 8508  26.473  25.324  13.871
37909W        W 8509  36.552   0.696  10.951
37910W        W 8510  28.021  37.557  13.033
37911W        W 8511   8.113  38.386  12.890
37912W        W 8512  40.478  26.668  13.332
37913W        W 8513  28.699   7.354   2.407
37914W        W 8514   7.309   9.814   0.749
37915W        W 8515  29.460   0.198  11.147
37916W        W 8516   4.382   4.920  11.348
37917W        W 8517  18.354  22.835   1.156
37918W        W 8518  18.213  39.133   4.531
37919W        W 8519   0.268  30.567   0.791
37920W        W 8520  42.547  13.132  12.495
37921W        W 8521  39.742  15.740   3.765
37922W        W 8522  19.810  34.353   3.294
37923W        W 8523  42.413  43.565   3.240
37924W        W 8524  21.613   1.347  10.707
37925W        W 8525   8.348   0.823   1.162
37926W        W 8526  43.841   8.399   0.315
37927W        W 8527  40.439  44.964   1.982
37928W        W 8528   6.476   5.806  13.831
37929W        W 8529  16.602  40.903  10.959
37930W        W 8530  37.525   8.731  12.438
37931W        W 8531  36.651   1.288  12.069
37932W        W 8532   6.783  12.298  14.378
37933W        W 8533  17.621  41.794  13.887
37934W        W 8534  12.444  33.596   2.741
37935W        W 8535  40.635   8.276  12.887
37936W        W 8536  42.350   4.954  12.062
37937W        W 8537  17.275  16.778   0.595
37938W        W 8538  31.123   1.266   1.956
37939W        W 8539  13.723  32.462  14.234
37940W        W 8540  34.898  16.260   3.349
37941W        W 8541  22.076  21.720  11.132
37942W        W 8542   3.267  39.545   0.385
37943W        W 8543   7.017  12.179   4.152
37944W        W 8544  37.268  27.179  13.536
37945W        W 8545  39.112   5.060   2.800
37946W        W 8546  31.971  10.268  13.693
37947W        W 8547  35.434  27.178  11.146
37948W        W 8548  33.984  16.876   0.671
37949W        W 8549  23.512   4.464   3.844
37950W        W 8550  24.437   6.928   2.303
37951W        W 8551  27.677  42.308  11.860
37952W        W 8552  37.976  30.592   4.165
37953W        W 8553   5.807  20.772  11.025
37954W        W 8554  37.871  20.157   0.805
37955W        W 8555  29.022  44.925  14.915
37956W        W 8556   7.318  28.995  14.005
37957W        W 8557  37.672  17.109  11.968
37958W        W 8558  24.104  34.694   3.209
37959W        W 8559   7.361  26.003   2.278
37960W        W 8560  11.873  31.873   4.196
37961W        W 8561  18.276  11.321   1.072
37962W        W 8562   4.708   5.084  10.816
37963W        W 8563   7.100  14.414  13.673
37964W        W 8564   4.223  32.544   1.445
37965W        W 8565  14.466  37.712   4.956
37966W        W 8566  14.038  43.872  11.491
37967W        W 8567  16.141  31.359  14.894
37968W        W 8568  22.999  24.497  13.978
37969W        W 8569  16.191  32.977   4.986
37970W        W 8570  19.733  29.621  12.895
37971W        W 8571  33.110  24.339  11.090
37972W        W 8572   3.005   0.906  13.098
37973W        W 8573  44.201  21.661  10.845
37974W        W 8574  29.076  24.557  11.619
37975W        W 8575  16.127  11.105   1.350
37976W        W 8576  18.758  38.732   2.610
37977W        W 8577  38.134  24.154  11.588
37978W        W 8578  32.003  15.545   2.863
37979W        W 8579  41.762  36.882   2.750
37980W        W 8580  36.172  23.079   1.337
37981W        W 8581   8.917  21.640   2.656
37982W        W 8582  11.907  10.080   0.322
37983W        W 8583  22.590  34.083   3.649
37984W        W 8584  36.839  25.710   4.623
37985W        W 8585   6.430  32.148   4.106
37986W        W 8586  22.522  36.044  12.024
37987W        W 8587  25.707   6.412  13.320
37988W        W 8588   8.923  12.800   1.635
37989W        W 8589   6.165  28.973  14.789
37990W        W 8590   4.513  42.878  14.814
37991W        W 8591  10.773  35.805   1.888
37992W        W 8592  34.019  34.722  11.994
37993W        W 8593  28.836  15.432  12.093
37994W        W 8594  44.963  27.233  14.507
37995W        W 8595  25.523  33.152   0.341
37996W        W 8596   9.745  24.795   4.572
37997W        W 8597  44.396  24.386   5.033
37998W        W 8598   5.918  10.678   3.345
37999W        W 8599  31.129  36.614   0.443
38000W        W 8600  41.844   8.748  11.452
38001W        W 8601  31.424  10.798  13.363
38002W        W 8602  13.275  44.438  12.101
38003W        W 8603   6.383  25.651  14.740
38004W        W 8604  25.027  22.271   1.766
38005W        W 8605  29.976  18.757   4.362
38006W        W 8606  28.512  31.232  10.886
38007W        W 8607  26.462  15.321  10.765
38008W        W 8608  41.783  18.291  12.111
38009W        W 8609  34.175  13.839  13.396
38010W        W 8610  21.097  42.897   2.773
38011W        W 8611   3.696  13.623   0.653
38012W        W 8612  28.575   5.312   2.585
38013W        W 8613  18.053  19.565   3.670
38014W        W 8614  20.804  10.279  11.567
38015W        W 8615  18.773   2.530  14.450
38016W        W 8616   1.488   6.327   4.134
38017W        W 8617  30.400  12.266   4.520
38018W        W 8618  41.235  29.975   0.844
38019W        W 8619  35.458  39.632  11.542
38020W        W 8620  33.068  30.586   4.146
38021W        W 8621   0.023   9.337   1.860
38022W        W 8622  36.537  35.542   4.598
38023W        W 8623  38.081  18.655   0.964
38024W        W 8624  34.767  43.372   2.889
38025W        W 8625  33.073  10.921  12.025
38026W        W 8626   7.323  29.120   0.451
38027W        W 8627  10.828  17.455  11.137
38028W        W 8628   7.359  42.746   5.116
38029W        W 8629  26.269  20.694  13.388
38030W        W 8630  14.780   1.803   2.241
38031W        W 8631  44.829  30.137   4.230
38032W        W 8632  35.977  24.057   4.204
38033W        W 8633  14.684  22.052   1.223
38034W        W 8634   1.930  24.413  11.374
38035W        W 8635   4.446  37.992  12.101
38036W        W 8636   4.044   2.283   3.932
38037W        W 8637  13.656   7.810  11.706
38038W        W 8638   3.171  23.933   1.816
38039W        W 8639  31.125   9.150   2.585
38040W        W 8640   1.409   4.994   2.778
38041W        W 8641  39.890  40.576   2.194
38042W        W 8642  33.544   5.358  11.693
38043W        W 8643  40.687  34.809   1.801
38044W        W 8644  17.269  26.715   0.460
38045W        W 8645  27.765  35.551  11.398
38046W        W 8646  24.168  30.278  14.512
38047W        W 8647  21.967  29.045  12.806
38048W        W 8648  40.557  22.185   0.963
38049W        W 8649  32.725  18.792   2.634
38050W        W 8650  33.355   8.288   0.521
38051W        W 8651  37.453  23.026   0.503
38052W        W 8652  20.767  34.563   1.243
38053W        W 8653  15.896  20.898  12.659
38054W        W 8654   2.363  42.087   1.094
38055W        W 8655  11.661   7.848  13.619
38056W        W 8656   4.256  29.061   2.197
38057W        W 8657  41.876  38.558  14.699
38058W        W 8658  15.034  32.259   5.237
38059W        W 8659  24.409  37.472  13.932
38060W        W 8660  27.284   6.149   1.571
38061W        W 8661  44.007   6.438   3.136
38062W        W 8662   5.845   0.555   0.765
38063W        W 8663  27.664  12.869  13.551
38064W        W 8664   4.389   2.228  13.983
38065W        W 8665  29.283   1.917  11.166
38066W        W 8666  16.843  29.926   3.527
38067W        W 8667  38.516  10.609  14.319
38068W        W 8668   7.322  19.118   1.398
38069W        W 8669  34.672  43.419   4.458
38070W        W 8670  14.397  39.341   0.374
38071W        W 8671   4.409  20.009  11.605
38072W        W 8672   6.427  43.042   1.099
38073W        W 8673   1.778  22.442   0.758
38074W        W 8674  23.990  29.477   1.804
38075W        W 8675  36.521  10.251  10.485
38076W        W 8676  26.095   5.928  14.450
38077W        W 8677   4.752  34.029  14.761
38078W        W 8678  18.560  40.885   1.418
38079W        W 8679  22.522  36.050   0.427
38080W        W 8680  19.964   8.666   3.642
38081W        W 8681  22.919   5.310  13.754
38082W        W 8682   1.011  42.502   3.290
38083W        W 8683  22.027  42.837  14.233
38084W        W 8684  39.696  41.780  11.190
38085W        W 8685  36.305   7.215   0.800
38086W        W 8686  14.145  36.032  11.913
38087W        W 8687  28.166  44.993  11.173
38088W        W 8688  19.062   0.771  12.121
38089W        W 8689   6.620  12.056  13.935
38090W        W 8690  30.143  42.552  12.585
38091W        W 8691  42.393  38.305  12.603
38092W        W 8692  27.065   7.971  14.334
38093W        W 8693  27.970  13.093   4.288
38094W        W 8694  32.013  38.346   2.794
38095W        W 8695  11.489  44.468  11.554
38096W        W 8696  26.708  13.016  11.154
38097W        W 8697  12.624  34.839   2.133
38098W        W 8698   5.759  35.506  11.621
38099W        W 8699   5.450  29.404  11.504
38100W        W 8700  18.338  34.025   1.551
38101W        W 8701  26.197   3.392  13.738
38102W        W 8702  32.154  41.953   4.400
38103W        W 8703  31.680   5.653  12.597
38104W        W 8704   9.812  34.260  14.392
38105W        W 8705  42.774  39.305   0.367
38106W        W 8706  19.120   2.908  12.870
38107W        W 8707   1.290  18.696   1.806
38108W        W 8708  41.717  42.837   9.980
38109W        W 8709   5.760  19.264  12.031
38110W        W 8710   7.338  29.014  12.653
38111W        W 8711   6.424  12.690  14.434
38112W        W 8712   9.920  14.629  12.512
38113W        W 8713  34.041  10.402   2.208
38114W        W 8714   2.986  31.424   4.165
38115W        W 8715  10.455  11.144   0.236
38116W        W 8716  23.147  27.076   1.707
38117W        W 8717  28.185  30.030  13.263
38118W        W 8718  15.550   6.242  13.523
38119W        W 8719   9.238   6.754   1.014
38120W        W 8720  44.649   6.404   9.803
38121W        W 8721  42.408  37.505   4.333
38122W        W 8722  11.686  34.409  14.929
38123W        W 8723  41.503  23.075  13.998
38124W        W 8724  37.347  24.497   0.222
38125W        W 8725  34.550  14.916   1.819
38126W        W 8726  17.122  28.450  12.214
38127W        W 8727   1.162  40.320  12.614
38128W        W 8728  37.330  27.490   3.839
38129W        W 8729  15.626  36.587  14.064
38130W        W 8730  23.570  39.828   1.617
38131W        W 8731  21.041  43.643   5.508
38132W        W 8732  15.059  32.936   2.012
38133W        W 8733  14.783  39.971   3.304
38134W        W 8734  20.205   4.921  11.178
38135W        W 8735  29.596   8.209   4.227
38136W        W 8736   9.109   6.713  10.703
38137W        W 8737  21.623   4.445   0.845
38138W        W 8738   1.214   2.439   4.154
38139W        W 8739  40.721  21.696   3.666
38140W        W 8740  23.015  27.569   1.772
38141W        W 8741  38.186  16.642  13.260
38142W        W 8742   5.307  12.820  14.104
38143W        W 8743   3.130  44.402  12.021
38144W        W 8744  40.804  15.746   2.393
38145W        W 8745  28.648  20.535   2.427
38146W        W 8746   4.665  37.714  13.393
38147W        W 8747  40.379  28.442  12.979
38148W        W 8748  27.050  39.568  12.002
38149W        W 8749  36.301   8.151  10.703
38150W        W 8750  42.884  26.875  13.712
38151W        W 8751   7.040  25.125  12.442
38152W        W 8752   8.970  37.935   0.327
38153W        W 8753  31.057  35.325   1.776
38154W        W 8754   1.484  14.935  14.756
38155W        W 8755  37.583  25.542   2.767
38156W        W 8756  21.562  36.851   3.775
38157W        W 8757  36.384  12.150   3.362
38158W        W 8758   6.400  26.137   2.516
38159W        W 8759  13.743  40.086  11.590
38160W        W 8760  37.592  21.167  10.734
38161W        W 8761  18.565  38.433  10.828
38162W        W 8762  39.646   5.424  11.143
38163W        W 8763  30.836  36.035  11.588
38164W        W 8764  14.835  15.697  11.262
38165W        W 8765  38.707  28.796  13.448
38166W        W 8766  15.396  37.523  14.943
38167W        W 8767  15.196  39.684   2.265
38168W        W 8768  44.662  24.267  12.377
38169W        W 8769  42.530  24.721   2.859
38170W        W 8770  38.039  39.773   3.197
38171W        W 8771  12.183  31.590   3.403
38172W        W 8772  18.602  42.989   0.805
38173W        W 8773  16.777  29.596   4.156
38174W        W 8774  22.252  44.075   2.770
38175W        W 8775  37.151   2.305  12.030
38176W        W 8776  21.003   6.543   2.156
38177W        W 8777  17.722  15.090   0.227
38178W        W 8778   4.358  20.830   1.649
38179W        W 8779   3.752  10.200   0.875
38180W        W 8780  18.255  29.507   4.592
38181W        W 8781  32.394  28.006  13.208
38182W        W 8782  26.685  28.120  11.644
38183W        W 8783   9.014  11.208  13.583
38184W        W 8784  14.562   7.244   4.134
38185W        W 8785  44.771   5.824  10.612
38186W        W 8786  43.537  13.888  14.729
38187W        W 8787  21.994  35.188  13.579
38188W        W 8788   1.157   6.823  12.502
38189W        W 8789  37.535  28.977   0.396
38190W        W 8790  24.479  33.295   0.374
38191W        W 8791  14.733  23.483  14.932
38192W        W 8792  42.817  42.591   0.949
38193W        W 8793  32.153  29.098   0.307
38194W        W 8794  20.658   9.315   1.420
38195W        W 8795  29.538  18.843  11.168
38196W        W 8796  34.866  16.803  11.118
38197W        W 8797  10.193  19.667   1.415
38198W        W 8798  34.495  36.057  14.720
38199W        W 8799   7.784  15.811   3.632
38200W        W 8800  17.605   2.099   3.596
38201W        W 8801  22.272   4.257   3.237
38202W        W 8802   0.253   6.833   3.913
38203W        W 8803  32.134  37.812   2.825
38204W        W 8804  30.929   1.701   4.182
38205W        W 8805  28.625  33.917  12.309
38206W        W 8806  27.580  29.054  14.203
38207W        W 8807  36.938  14.011   2.355
38208W        W 8808   0.126  32.775  13.845
38209W        W 8809  14.171   9.616   1.361
38210W        W 8810  10.703   1.230  12.847
38211W        W 8811  26.242   4.366   1.226
38212W        W 8812  15.827  23.032   0.216
38213W        W 8813   6.811   4.591   1.778
38214W        W 8814  14.145   3.733   2.931
38215W        W 8815  34.462   8.693  10.855
38216W        W 8816  26.130  25.911  14.954
38217W        W 8817  30.414  21.597  14.827
38218W        W 8818  17.088  15.366  13.343
38219W        W 8819  38.800   5.457  10.426
38220W        W 8820  16.405  30.474   1.945
38221W        W 8821  22.243  34.824   1.296
38222W        W 8822  21.052  22.140   3.404
38223W        W 8823  21.783  39.973  14.880
38224W        W 8824  40.271   0.726  14.870
38225W        W 8825  17.657  41.530   4.323
38226W        W 8826   2.837   4.996   3.158
38227W        W 8827  22.020   6.754   0.795
38228W        W 8828  22.749  41.042   3.586
38229W        W 8829  11.803  12.093  13.422
38230W        W 8830  10.805  41.907  10.579
38231W        W 8831   9.313   1.524  13.013
38232W        W 8832  42.358  13.062  14.369
38233W        W 8833   3.468   9.194   3.673
38234W        W 8834  21.141  44.479  14.279
38235W        W 8835  34.621   5.836  10.918
38236W        W 8836  26.007  15.750   9.866
38237W        W 8837  29.178  20.312   1.142
38238W        W 8838  37.536  30.862   4.199
38239W        W 8839  39.756  28.583  11.790
38240W        W 8840  28.917  38.947  11.941
38241W        W 8841  43.554  35.383   1.723
38242W        W 8842  25.237   7.675   5.026
38243W        W 8843  19.584  13.197  10.923
38244W        W 8844  26.506  14.700   3.322
38245W        W 8845  18.548  39.502   4.232
38246W        W 8846  37.506  28.676  12.047
38247W        W 8847  39.510   1.214   2.810
38248W        W 8848   0.095   9.303  11.559
38249W        W 8849  43.736  24.028   1.338
38250W        W 8850  14.188  41.917   1.042
38251W        W 8851  17.757  17.710  10.782
38252W        W 8852  29.228  30.592   3.069
38253W        W 8853   5.583  30.597  11.757
38254W        W 8854  40.956   1.838  13.063
38255W        W 8855  15.173  25.271  14.182
38256W        W 8856  33.937  36.372   2.779
38257W        W 8857  33.818   0.285  14.816
38258W        W 8858  27.205  19.779   2.882
38259W        W 8859  25.365  22.159   3.743
38260W        W 8860  21.618   6.665   3.798
38261W        W 8861  12.079  35.027   3.392
38262W        W 8862   4.909  24.129  12.539
38263W        W 8863  38.548   1.184  13.877
38264W        W 8864   0.941  10.279   1.412
38265W        W 8865  25.472  27.252   4.110
38266W        W 8866  40.705  18.663  13.845
38267W        W 8867   8.801  17.777  12.981
38268W        W 8868  31.507   2.743  13.610
38269W        W 8869   8.484   6.608   3.249
38270W        W 8870   7.816  31.597  10.718
38271W        W 8871   5.945  36.935  14.295
38272W        W 8872  25.505  42.983  13.579
38273W        W 8873  21.893   3.522   2.407
38274W        W 8874   9.769   8.778   4.244
38275W        W 8875   0.927  18.225   1.394
38276W        W 8876   0.303  25.684  14.899
38277W        W 8877  34.460  29.522   3.182
38278W        W 8878  38.588  28.435  14.269
38279W        W 8879  27.006  37.575  13.312
38280W        W 8880  19.296  10.694  12.350
38281W        W 8881  28.106  21.595   0.791
38282W        W 8882  22.796  31.181   3.666
38283W        W 8883   7.916  24.012  13.414
38284W        W 8884  25.951  33.859   1.820
38285W        W 8885  25.386  15.154   2.359
38286W        W 8886  42.458  16.214   1.833
38287W        W 8887  14.286  15.871   3.121
38288W        W 8888  27.125  13.387  12.043
38289W        W 8889   1.359  42.095   0.214
38290W        W 8890  20.727  23.631  12.587
38291W        W 8891  40.004  38.026  11.152
38292W        W 8892   3.130  35.027   3.188
38293W        W 8893  15.009  40.812   3.281
38294W        W 8894  33.640  30.666  11.818
38295W        W 8895   2.489   3.396  13.896
38296W        W 8896  41.813   1.632   0.636
38297W        W 8897   1.177  30.612  14.047
38298W        W 8898  18.274  18.251   0.393
38299W        W 8899  43.083  17.142  13.870
38300W        W 8900  41.409  14.716   2.687
38301W        W 8901  39.877  33.066   2.776
38302W        W 8902  26.194  40.949   0.928
38303W        W 8903   8.955  11.805   2.707
38304W        W 8904   5.788  11.715  11.391
38305W        W 8905  19.022  39.071  11.465
38306W        W 8906  27.614   3.188   5.111
38307W        W 8907  19.867   7.295  14.909
38308W        W 8908  36.134  29.126  12.123
38309W        W 8909  16.358  31.469   2.137
38310W        W 8910  41.638  36.372  12.452
38311W        W 8911  26.901  11.811   1.259
38312W        W 8912   4.361  12.110  12.021
38313W        W 8913  18.702  19.568   3.857
38314W        W 8914  29.044  37.102  12.376
38315W        W 8915  28.336  39.501   3.668
38316W        W 8916  25.416  30.549   3.350
38317W        W 8917  18.383   4.170  11.469
38318W        W 8918  42.914  28.699   4.752
38319W        W 8919  37.795   3.926   2.740
38320W        W 8920  27.222   5.173   0.245
38321W        W 8921   1.325   2.666  12.869
38322W        W 8922  35.655  27.981  12.853
38323W        W 8923   0.525  12.040  14.469
38324W        W 8924  36.148   6.216   0.458
38325W        W 8925  31.922  29.563   0.376
38326W        W 8926  32.370   1.367  13.597
38327W        W 8927  39.841  28.176  10.867
38328W        W 8928  16.848   8.227  13.321
38329W        W 8929  11.368   9.671   0.966
38330W        W 8930  22.102  35.565   4.585
38331W        W 8931  44.005  29.487  14.487
38332W        W 8932  23.837  15.124   2.798
38333W        W 8933  34.774  20.077   1.149
38334W        W 8934   8.642  24.902  11.124
38335W        W 8935  44.285  42.994  12.364
38336W        W 8936  37.866   4.505   1.918
38337W        W 8937  10.052  35.643  14.970
38338W        W 8938  15.680  40.113  13.114
38339W        W 8939  25.109  44.962  13.920
38340W        W 8940   4.226   1.261   1.185
38341W        W 8941  31.054  39.731  12.421
38342W        W 8942  14.723   1.298   2.864
38343W        W 8943  38.989  18.008   2.770
38344W        W 8944  25.125  10.260   4.256
38345W        W 8945   3.262  43.297  13.018
38346W        W 8946  15.722  30.637   0.873
38347W        W 8947  21.066  43.535  13.275
38348W        W 8948  30.684  13.334  11.119
38349W        W 8949  18.593   4.275  13.845
38350W        W 8950   3.447   2.488  14.403
38351W        W 8951  27.378  42.670  12.102
38352W        W 8952   4.835  32.138  12.928
38353W        W 8953  16.330  12.766  10.685
38354W        W 8954   3.497  12.566   3.739
38355W        W 8955  20.770  11.416  14.006
38356W        W 8956   2.460  32.057   0.100
38357W        W 8957  18.077   2.776  10.567
38358W        W 8958  21.829  17.010  14.054
38359W        W 8959  42.227  28.599   4.161
38360W        W 8960  22.108  17.690  11.864
38361W        W 8961  24.917  33.261  14.048
38362W        W 8962  29.155   0.781  12.656
38363W        W 8963   4.647  14.222  13.426
38364W        W 8964  14.269  19.222   3.113
38365W        W 8965  17.676  29.574   4.528
38366W        W 8966  24.724  28.604   4.104
38367W        W 8967  32.833  13.910  14.404
38368W        W 8968  23.611   8.605  13.823
38369W        W 8969  19.110  10.019  13.009
38370W        W 8970  20.364  35.494   1.456
38371W        W 8971  36.988  23.581  12.467
38372W        W 8972   3.903  18.021  11.909
38373W        W 8973   1.886  40.103   0.559
38374W        W 8974   7.228  13.935  12.447
38375W        W 8975  43.034  13.864  11.040
38376W        W 8976   6.817  13.761  12.065
38377W        W 8977   6.230  36.965  13.864
38378W        W 8978  33.092   9.363   3.684
38379W        W 8979   3.176  33.174  14.953
38380W        W 8980  12.665  32.848  11.557
38381W        W 8981  38.281   5.593   2.304
38382W        W 8982  41.025   9.691  11.659
38383W        W 8983  31.604  37.058  12.165
38384W        W 8984  21.724   1.901   3.100
38385W        W 8985   3.205   4.518   2.256
38386W        W 8986  41.947  37.510   4.581
38387W        W 8987  41.090   6.385   2.546
38388W        W 8988  43.620  19.777  13.347
38389W        W 8989   5.410   4.186  11.129
38390W        W 8990  20.586   2.870  13.867
38391W        W 8991  30.670   7.533   2.066
38392W        W 8992  41.027  36.889  14.427
38393W        W 8993   9.203  30.046  10.780
38394W        W 8994  23.937  31.784   0.336
38395W        W 8995  15.355  19.031   0.353
38396W        W 8996  31.671  17.584   3.132
38397W        W 8997  38.309  30.054  13.998
38398W        W 8998  30.005  41.486  14.438
38399W        W 8999  40.147  37.768   1.406
38400W        W 9000  37.977   5.001   1.957
38401W        W 9001  33.402  23.026  12.887
38402W        W 9002  13.570  44.801  12.615
38403W        W 9003  30.916  28.690   4.198
38404W        W 9004  37.595  27.510  11.940
38405W        W 9005   1.170  38.097   3.799
38406W        W 9006  24.648  15.667   0.781
38407W        W 9007   3.961  20.687  10.687
38408W        W 9008  28.390  10.238  12.815
38409W        W 9009  23.779   8.817   1.139
38410W        W 9010   6.461  14.571   4.110
38411W        W 9011  43.328   5.446  13.749
38412W        W 9012  37.415   5.263   1.721
38413W        W 9013  13.621  17.591  13.742
38414W        W 9014  29.631  21.878  12.990
38415W        W 9015  24.523  27.586   1.252
38416W        W 9016   0.709  15.600   0.948
38417W        W 9017  41.308  17.725   4.499
38418W        W 9018   2.218  28.667  13.278
38419W        W 9019   7.925  40.048   2.736
38420W        W 9020   1.630  17.634   4.168
38421W        W 9021  43.287  26.552   4.665
38422W        W 9022  36.495   8.723   4.681
38423W        W 9023  19.367  15.192  10.784
38424W        W 9024  40.932  26.835  14.841
38425W        W 9025  42.942   3.707   4.577
38426W        W 9026  18.226  29.005   3.800
38427W        W 9027  13.719  27.992  11.002
38428W        W 9028  10.674  12.426   3.047
38429W        W 9029  38.322  26.482   2.177
38430W        W 9030  41.424  35.213   0.462
38431W        W 9031  40.420  40.932   0.253
38432W        W 9032  30.065   3.687  14.339
38433W        W 9033  22.216   8.890  14.435
38434W        W 9034   2.207  32.126   1.183
38435W        W 9035  26.615  15.706  13.801
38436W        W 9036  11.149   4.256   0.554
38437W        W 9037  34.908  21.146  11.660
38438W        W 9038  16.129  13.897   2.181
38439W        W 9039  26.955  12.540   4.778
38440W        W 9040   4.808  22.606   3.329
38441W        W 9041   4.110   9.157  12.110
38442W        W 9042  22.271  39.887   1.993
38443W        W 9043  10.766  35.453  12.089
38444W        W 9044  41.902  24.097   2.722
38445W        W 9045  24.901  33.352  11.949
38446W        W 9046  39.909  28.693  10.764
38447W        W 9047  43.457  37.532   1.743
38448W        W 9048   5.471  28.388   3.519
38449W        W 9049  11.352  11.790   3.093
38450W        W 9050  31.644   8.682  11.532
38451W        W 9051   5.242  20.209  10.684
38452W        W 9052  38.858  43.505  12.490
38453W        W 9053  11.787   6.665  12.084
38454W        W 9054  22.411  19.606   2.182
38455W        W 9055   0.030  16.985   0.438
38456W        W 9056  19.402  35.108   2.929
38457W        W 9057  14.686  26.147   3.822
38458W        W 9058  31.948  42.853   4.170
38459W        W 9059   4.113  17.157  12.456
38460W        W 9060  42.582  42.796   0.046
38461W        W 9061  23.678   0.783   0.295
38462W        W 9062  41.079  44.957  10.746
38463W        W 9063  26.108  37.592  11.424
38464W        W 9064  21.510  32.172   0.297
38465W        W 9065  25.132  34.348   2.002
38466W        W 9066  26.719  38.424  12.539
38467W        W 9067  12.422  20.127  11.767
38468W        W 9068  18.678  21.536   1.804
38469W        W 9069  32.030  33.579  14.936
38470W        W 9070  12.625   4.960   4.227
38471W        W 9071  23.180  29.307   4.813
38472W        W 9072  28.092  44.030   1.427
38473W        W 9073  43.774  26.243  13.856
38474W        W 9074  10.247  21.714  11.176
38475W        W 9075   0.378   2.656  13.132
38476W        W 9076  27.633   4.765  11.118
38477W        W 9077  30.266  28.632  12.565
38478W        W 9078  14.761  19.619   2.710
38479W        W 9079  42.029  43.838  14.450
38480W        W 9080   5.663  36.795  13.853
38481W        W 9081  19.742   4.203  11.134
38482W        W 9082  24.907  12.101  13.463
38483W        W 9083  40.011  40.795   2.674
38484W        W 9084  20.030  40.931  13.252
38485W        W 9085   4.620  20.327  14.330
38486W        W 9086  11.270  23.225  10.971
38487W        W 9087  33.176  42.810   0.780
38488W        W 9088  33.478  44.236  13.533
38489W        W 9089  34.286  25.082  12.071
38490W        W 9090  24.446  43.578   2.774
38491W        W 9091   8.204  24.520  14.902
38492W        W 9092  40.372  20.625   2.387
38493W        W 9093  18.189  23.632   3.595
38494W        W 9094  24.420  38.661  13.015
38495W        W 9095  28.766   7.753  14.273
38496W        W 9096  16.604  12.200  12.919
38497W        W 9097  19.300  19.817   1.657
38498W        W 9098  34.919   1.226   1.380
38499W        W 9099  31.212   0.760   3.681
38500W        W 9100  17.512   5.090   4.196
38501W        W 9101  13.909   0.711  10.870
38502W        W 9102   4.269  44.342  14.999
38503W        W 9103  38.883  31.678   0.824
38504W        W 9104  14.879  31.009   4.757
38505W        W 9105  12.739  38.740   4.523
38506W        W 9106  26.709  24.555   4.161
38507W        W 9107  32.589  31.577  12.850
38508W        W 9108  37.520  33.653   2.802
38509W        W 9109  14.599  42.406  11.611
38510W        W 9110  37.578  19.581   4.722
38511W        W 9111  14.929  13.534   1.257
38512W        W 9112  40.965  13.868   1.471
38513W        W 9113   5.991  13.739   3.718
38514W        W 9114  26.135  21.757  13.463
38515W        W 9115  37.121   6.886   4.374
38516W        W 9116   1.328  43.834  10.477
38517W        W 9117  24.788  32.918  14.980
38518W        W 9118  17.177  38.578  10.782
38519W        W 9119  41.135  42.403   4.713
38520W        W 9120  11.016  21.181   2.125
38521W        W 9121  36.800  17.808   2.343
38522W        W 9122  32.119  37.479  14.488
38523W        W 9123  36.269  25.845   2.250
38524W        W 9124  25.615   0.872  14.978
38525W        W 9125  40.613  12.329  11.438
38526W        W 9126  10.940  12.176  11.319
38527W        W 9127  11.775  20.256   2.736
38528W        W 9128   2.430  21.157  13.036
38529W        W 9129  10.766   2.191  12.005
38530W        W 9130  23.293  37.319  12.569
38531W        W 9131   9.877  18.837  12.070
38532W        W 9132  21.444  23.612  11.550
38533W        W 9133  40.542  30.254   0.272
38534W        W 9134  20.082  25.893  13.997
38535W        W 9135  26.699   7.918  11.770
38536W        W 9136   4.826   5.921  13.439
38537W        W 9137  19.327  26.658   2.807
38538W        W 9138  25.979  41.323  13.912
38539W        W 9139   7.855   5.382  14.941
38540W        W 9140  34.582  11.113   4.313
38541W        W 9141  18.792   5.976   0.472
38542W        W 9142  20.894  27.076   4.253
38543W        W 9143   3.970  41.015  10.747
38544W        W 9144  19.556  39.502   4.639
38545W        W 9145  23.005   3.488   1.947
38546W        W 9146  11.156  25.834  11.183
38547W        W 9147  26.421  27.628  10.266
38548W        W 9148  21.407  28.526  11.454
38549W        W 9149   0.305  18.767   4.307
38550W        W 9150  40.058  21.184   4.140
38551W        W 9151  39.116  11.728  10.609
38552W        W 9152  16.590  14.681   2.727
38553W        W 9153  20.958  38.544  13.530
38554W        W 9154  22.001  28.525  11.582
38555W        W 9155  16.735   9.633   4.512
38556W        W 9156  25.041  16.135  10.787
38557W        W 9157  39.366  11.146  12.162
38558W        W 9158  19.332  23.508   3.618
38559W        W 9159  43.712   6.946   1.315
38560W        W 9160  25.638  20.652   3.808
38561W        W 9161  34.105  33.508   0.942
38562W        W 9162   7.810  18.950   2.765
38563W        W 9163  33.525  40.361  11.794
38564W        W 9164  39.487   9.825   0.676
38565W        W 9165  36.159  44.889  14.834
38566W        W 9166  36.498  33.586   2.670
38567W        W 9167  15.006  15.695  14.392
38568W        W 9168  39.356  22.945  10.739
38569W        W 9169  21.549   7.295   3.122
38570W        W 9170  12.840   4.393   1.913
38571W        W 9171  17.595  39.811  14.098
38572W        W 9172  31.451   3.720  12.523
38573W        W 9173  36.654  18.005  11.089
38574W        W 9174  37.818   7.650  14.898
38575W        W 9175  29.863  27.227   2.257
38576W        W 9176   8.678   1.454  11.953
38577W        W 9177  15.877  29.787   5.064
38578W        W 9178  26.292  29.449  13.751
38579W        W 9179  31.346  25.605  12.529
38580W        W 9180  22.142  12.726  11.059
38581W        W 9181   9.350  19.592  11.514
38582W        W 9182  29.767  31.088  13.293
38583W        W 9183  33.882  39.622   0.306
38584W        W 9184   3.783  35.658   3.136
38585W        W 9185  33.494  33.829  14.284
38586W        W 9186  18.505  30.982   1.909
38587W        W 9187  40.009   9.261   4.519
38588W        W 9188  16.597  19.626  12.413
38589W        W 9189   4.764  39.641   3.603
38590W        W 9190  11.171  26.414   0.378
38591W        W 9191  10.398  39.653  11.868
38592W        W 9192  32.669  30.987  14.252
38593W        W 9193  41.746   9.429  14.903
38594W        W 9194  34.892  10.838   3.336
38595W        W 9195  28.223  22.999  10.760
38596W        W 9196  34.908  12.542  14.875
38597W        W 9197  19.502  21.724   2.761
38598W        W 9198   8.732  43.571   0.525
38599W        W 9199  26.954   1.453   0.523
38600W        W 9200   2.837   4.130  11.992
38601W        W 9201  43.939  37.961   3.846
38602W        W 9202  31.126  33.654   2.429
38603W        W 9203  13.738  25.643  12.888
38604W        W 9204  38.560   6.317   2.814
38605W        W 9205  40.638  21.471   4.968
38606W        W 9206  39.732  36.988   2.699
38607W        W 9207  39.802  23.773   2.885
38608W        W 9208   1.351  36.155   2.190
38609W        W 9209  21.401  35.327   1.449
38610W        W 9210  21.511   6.260  10.899
38611W        W 9211  25.289  32.903  14.070
38612W        W 9212  36.006  33.326   2.611
38613W        W 9213  40.525  20.243  11.303
38614W        W 9214  10.068  21.653  14.418
38615W        W 9215   9.847  33.881   0.681
38616W        W 9216  18.877   8.290  12.666
38617W        W 9217  24.436  41.871   4.384
38618W        W 9218  36.539  27.633   0.911
38619W        W 9219  35.801  39.397  12.116
38620W        W 9220  35.568  24.297  13.516
38621W        W 9221   6.644  15.017  12.448
38622W        W 9222  37.345  11.927   0.400
38623W        W 9223  27.089  34.953   1.585
38624W        W 9224  35.719  28.450   3.673
38625W        W 9225  33.891  38.126  12.077
38626W        W 9226  40.807   2.591  12.072
38627W        W 9227  41.698   3.737   4.104
38628W        W 9228  14.190  34.449  12.160
38629W        W 9229  32.679   9.436  14.859
38630W        W 9230  29.770  19.129   4.680
38631W        W 9231  32.573   2.195   0.759
38632W        W 9232  22.293  40.558  12.925
38633W        W 9233   1.424   8.335   1.871
38634W        W 9234  30.103   0.061  12.878
38635W        W 9235  34.729  13.794  14.403
38636W        W 9236   3.589  10.133   2.862
38637W        W 9237  13.512   0.479   0.808
38638W        W 9238  28.648   3.442  14.767
38639W        W 9239  38.508  39.883  12.091
38640W        W 9240  41.724  41.831   1.739
38641W        W 9241  20.334  19.263   0.924
38642W        W 9242  40.429  24.985   1.851
38643W        W 9243  12.559   2.930  11.361
38644W        W 9244  12.264  31.181  13.614
38645W        W 9245   7.912  29.099   2.299
38646W        W 9246  15.298  14.618  12.317
38647W        W 9247   6.317  24.008  12.936
38648W        W 9248  43.749   8.286   2.737
38649W        W 9249  29.077   8.370   1.468
38650W        W 9250   3.811   9.078  14.110
38651W        W 9251  41.520  27.127  13.088
38652W        W 9252  10.085  24.687  13.130
38653W        W 9253  25.793  26.423  11.279
38654W        W 9254  14.683   0.263  11.641
38655W        W 9255  43.467   0.252   3.215
38656W        W 9256  27.064  17.087  12.414
38657W        W 9257  22.695  27.195   4.703
38658W        W 9258  18.248  17.341   1.330
38659W        W 9259  22.899  19.262  13.331
38660W        W 9260  38.504   6.802  14.215
38661W        W 9261  38.426  31.879   0.948
38662W        W 9262   0.478  37.140   2.668
38663W        W 9263  32.454  23.996  12.440
38664W        W 9264   0.504  38.931  13.807
38665W        W 9265  37.885  14.351  12.531
38666W        W 9266  20.565  25.055  13.800
38667W        W 9267  37.465   9.885   3.623
38668W        W 9268  21.279   6.860   3.274
38669W        W 9269  28.528  32.044   4.523
38670W        W 9270  42.521  37.809   2.247
38671W        W 9271  44.316  24.660  12.476
38672W        W 9272  15.238  25.238  10.952
38673W        W 9273  30.884  44.892   0.770
38674W        W 9274  21.492  35.525  14.820
38675W        W 9275  19.796  27.662  12.423
38676W        W 9276  26.728  19.963   2.121
38677W        W 9277  14.645   8.898   3.618
38678W        W 9278   4.946  35.172   5.107
38679W        W 9279  39.518  22.006   2.665
38680W        W 9280   6.927  18.140   2.787
38681W        W 9281  21.277  38.393  13.911
38682W        W 9282  25.187  16.952  14.245
38683W        W 9283  21.190  21.509  13.900
38684W        W 9284  44.283  36.344  13.960
38685W        W 9285  33.598   4.662   0.192
38686W        W 9286   0.446  36.356   3.915
38687W        W 9287  15.625  34.392   2.791
38688W        W 9288  11.363  16.109  12.413
38689W        W 9289   7.316  17.054   4.979
38690W        W 9290  20.515  22.437   3.744
38691W        W 9291  38.911  29.877  12.156
38692W        W 9292  41.524  30.979   3.657
38693W        W 9293  19.746  43.346  10.723
38694W        W 9294  20.297  31.644  14.636
38695W        W 9295   9.217  38.381  12.031
38696W        W 9296  27.591   7.117   0.848
38697W        W 9297  10.173  23.170  12.459
38698W        W 9298  37.339   3.454   1.470
38699W        W 9299   1.984   6.868   1.473
38700W        W 9300  39.825   0.718  12.542
38701W        W 9301  42.491   9.462   4.798
38702W        W 9302   6.532  30.209   4.190
38703W        W 9303  13.547  13.281  13.760
38704W        W 9304  43.505   5.061   3.811
38705W        W 9305   4.946  12.414   2.110
38706W        W 9306   9.327  42.379  14.043
38707W        W 9307  15.474  13.262   0.837
38708W        W 9308  32.199   8.325   1.436
38709W        W 9309  10.939  19.645  13.519
38710W        W 9310   9.280  37.101  13.396
38711W        W 9311   5.784  40.710   3.140
38712W        W 9312  42.353  18.088  13.591
38713W        W 9313   5.435  33.316   3.541
38714W        W 9314  18.634  26.854   0.416
38715W        W 9315  21.277  29.234   0.262
38716W        W 9316  29.580  18.369   0.846
38717W        W 9317  27.800   0.199   1.750
38718W        W 9318  21.152  28.506  14.007
38719W        W 9319  16.571   1.106  14.034
38720W        W 9320  28.199  15.601  12.070
38721W        W 9321   4.156  15.746   4.487
38722W        W 9322  38.495  35.200  13.396
38723W        W 9323  41.041  32.846   2.407
38724W        W 9324  27.547  21.581   1.298
38725W        W 9325  26.687  21.013   2.285
38726W        W 9326  38.406  31.343   0.826
38727W        W 9327  28.774   8.845   5.015
38728W        W 9328   8.181  22.533   4.570
38729W        W 9329  20.625  12.986   2.351
38730W        W 9330   6.129  11.819   4.175
38731W        W 9331   0.513  13.247   4.543
38732W        W 9332  32.643  27.559   4.690
38733W        W 9333   8.999  20.302  11.135
38734W        W 9334  29.041  19.843   1.385
38735W        W 9335   6.225  19.889   3.190
38736W        W 9336  43.332  33.558   1.257
38737W        W 9337  31.400  30.210   1.456
38738W        W 9338  28.179  23.662   1.522
38739W        W 9339  42.932  19.098   1.808
38740W        W 9340  13.906  15.047   1.762
38741W        W 9341  16.637  13.125   2.354
38742W        W 9342  37.027  29.725  14.923
38743W        W 9343   8.855  15.668  11.611
38744W        W 9344  15.859  37.226  11.254
38745W        W 9345   4.832  27.497   0.462
38746W        W 9346  13.767  10.739  12.311
38747W        W 9347   7.870   4.818   2.284
38748W        W 9348  13.595  25.889   0.241
38749W        W 9349  30.888  34.512   3.105
38750W        W 9350  11.423   3.371  13.003
38751W        W 9351  34.429   2.193  11.670
38752W        W 9352  18.146  34.109  13.853
38753W        W 9353  15.975  26.612  12.889
38754W        W 9354  21.051  34.994   1.223
38755W        W 9355  35.877  29.949  11.499
38756W        W 9356  12.711  42.806  13.132
38757W        W 9357  39.827   5.218   1.337
38758W        W 9358  23.715  17.150   2.449
38759W        W 9359  37.548  12.063  12.876
38760W        W 9360  33.846   0.672   0.394
38761W        W 9361  36.519   4.165  13.574
38762W        W 9362   1.902  14.140   2.813
38763W        W 9363  12.352  18.112  14.027
38764W        W 9364  31.392  21.211  13.360
38765W        W 9365  11.305  35.394   3.727
38766W        W 9366  40.840  27.712   4.551
38767W        W 9367  28.388   8.180   3.332
38768W        W 9368  11.756  30.902  10.353
38769W        W 9369  37.069   2.975   1.451
38770W        W 9370  36.428  36.942   3.297
38771W        W 9371  37.675  27.084   1.215
38772W        W 9372  25.626  31.563  13.000
38773W        W 9373  13.326  40.209  12.175
38774W        W 9374  14.142  41.851   4.920
38775W        W 9375  17.893  24.247  13.012
38776W        W 9376  11.900  44.409   4.033
38777W        W 9377  22.760  36.344   4.103
38778W        W 9378  22.111   3.443   1.933
38779W        W 9379  11.546   9.987  11.545
38780W        W 9380  34.569   8.905   2.815
38781W        W 9381  19.015  43.320  14.910
38782W        W 9382  29.336   9.525   0.742
38783W        W 9383  29.502  20.350  12.607
38784W        W 9384   0.312  39.825  12.024
38785W        W 9385  14.154  35.997  14.870
38786W        W 9386  41.957   1.681  14.064
38787W        W 9387  32.288   9.907   1.302
38788W        W 9388  15.285  35.541  12.976
38789W        W 9389  40.931  13.255  10.504
38790W        W 9390  20.766  38.887  12.513
38791W        W 9391   2.318  30.408   2.748
38792W        W 9392  35.866  26.228  13.558
38793W        W 9393  10.263   7.671   3.251
38794W        W 9394  35.552  12.697   4.675
38795W        W 9395  22.507   2.463   2.705
38796W        W 9396  42.091   5.701  13.837
38797W        W 9397  22.216  20.555   1.080
38798W        W 9398  38.863  12.248   0.012
38799W        W 9399   2.419   3.710  12.305
38800W        W 9400  19.235  43.076   2.852
38801W        W 9401  35.661   5.924   1.179
38802W        W 9402  33.042  31.877   2.195
38803W        W 9403  26.268  28.139  13.443
38804W        W 9404  33.087  41.852   3.802
38805W        W 9405  35.575  34.846   1.222
38806W        W 9406  36.941  43.335   0.590
38807W        W 9407   3.801  10.787   0.177
38808W        W 9408  39.540   5.361  13.979
38809W        W 9409   6.972  16.829  13.511
38810W        W 9410   8.349   4.317  14.529
38811W        W 9411  19.812  43.257   1.243
38812W        W 9412   7.527  39.290  12.788
38813W        W 9413   3.263  23.566   3.846
38814W        W 9414  11.120  43.498  14.482
38815W        W 9415  18.366   0.720   0.318
38816W        W 9416   5.241  13.304  14.887
38817W        W 9417  23.733  19.510   3.272
38818W        W 9418   0.950  13.341   1.793
38819W        W 9419  39.722   7.016  10.769
38820W        W 9420  19.730  39.954   1.287
38821W        W 9421  23.759  42.800  14.005
38822W        W 9422  20.026  21.549   0.953
38823W        W 9423   5.732  23.545  12.488
38824W        W 9424  31.456  29.864  11.569
38825W        W 9425   5.817   0.379   1.257
38826W        W 9426   0.914  24.026  12.550
38827W        W 9427  15.004  11.804  10.924
38828W        W 9428   7.778  40.989  13.304
38829W        W 9429  25.398  43.816  14.217
38830W        W 9430  16.203  38.008   1.152
38831W        W 9431  13.458  35.222   4.244
38832W        W 9432  41.622   3.839   4.997
38833W        W 9433  28.382  24.148  13.279
38834W        W 9434  20.688  19.785   1.510
38835W        W 9435   6.309  14.759  14.048
38836W        W 9436  14.713   8.243   1.767
38837W        W 9437  38.810  33.354  14.403
38838W        W 9438  10.743  42.066   1.678
38839W        W 9439  20.157   2.665  11.632
38840W        W 9440   4.756   1.302  10.441
38841W        W 9441   1.453  11.138  11.757
38842W        W 9442  36.992   6.000  13.403
38843W        W 9443  26.602   8.787   3.969
38844W        W 9444   6.950   4.854   1.347
38845W        W 9445  43.150  34.877   1.161
38846W        W 9446  23.954  38.568   2.312
38847W        W 9447  38.656  12.239  11.182
38848W        W 9448   9.718  21.422  12.503
38849W        W 9449  27.524  12.877   2.204
38850W        W 9450   4.090   1.716   5.071
38851W        W 9451   5.720  10.347  13.346
38852W        W 9452   2.449  18.022  13.988
38853W        W 9453   4.978  22.008   1.702
38854W        W 9454  22.529   4.021  12.479
38855W        W 9455   6.477  20.454  13.539
38856W        W 9456  44.818   3.608  13.910
38857W        W 9457  30.121  43.005   1.729
38858W        W 9458  14.489  42.780  10.664
38859W        W 9459  30.346  34.585   1.455
38860W        W 9460   5.927  38.950  13.460
38861W        W 9461   8.395  40.323  14.939
38862W        W 9462  41.779  20.157   0.479
38863W        W 9463  27.488   7.521   2.944
38864W        W 9464  35.901   6.851  10.500
38865W        W 9465  24.122  38.794  10.616
38866W        W 9466  28.425   7.377  14.942
38867W        W 9467  31.546  37.824  10.619
38868W        W 9468  10.437  24.390  11.270
38869W        W 9469  43.768  21.817   3.306
38870W        W 9470  13.397  29.937   1.358
38871W        W 9471   9.540  20.683   0.221
38872W        W 9472  29.970  33.362  13.571
38873W        W 9473  17.333   7.885   1.258
38874W        W 9474  34.481  29.056  13.262
38875W        W 9475  33.824  23.896  11.195
38876W        W 9476   5.029   0.014  12.430
38877W        W 9477  15.708  20.798  11.459
38878W        W 9478  40.878  41.408  11.541
38879W        W 9479  31.789  36.812  12.573
38880W        W 9480  37.867  20.987  13.260
38881W        W 9481  38.954  13.139  13.376
38882W        W 9482  27.161  36.563  10.709
38883W        W 9483  31.618  12.290   1.775
38884W        W 9484  22.707   9.948  11.673
38885W        W 9485   4.300  35.809  13.419
38886W        W 9486  32.604  12.481  14.086
38887W        W 9487  21.231  22.013   2.960
38888W        W 9488  13.453  10.698   0.858
38889W        W 9489  28.363  28.535   2.274
38890W        W 9490  21.449  34.021   2.852
38891W        W 9491   4.599  25.796  13.220
38892W        W 9492  41.402  41.432  11.133
38893W        W 9493  40.619   6.818   0.002
38894W        W 9494  44.247   3.371   1.368
38895W        W 9495  32.386  40.460   3.635
38896W        W 9496  27.091   6.977  13.033
38897W        W 9497  30.892  17.330   2.378
38898W        W 9498   1.993  27.377  12.491
38899W        W 9499  21.568  22.652  12.977
38900W        W 9500   0.809  19.094  14.471
38901W        W 9501  41.794  26.995   0.222
38902W        W 9502   2.657  17.289   0.099
38903W        W 9503  12.669  27.628  10.650
38904W        W 9504  11.096  13.214  13.783
38905W        W 9505  41.465  12.610   0.274
38906W        W 9506  29.227  15.941   0.250
38907W        W 9507  33.997  28.742   2.339
38908W        W 9508  19.080  30.133   2.801
38909W        W 9509   4.796  22.708  12.207
38910W        W 9510   1.800  25.947  11.144
38911W        W 9511  14.941  44.872   3.594
38912W        W 9512  15.241  10.329  14.960
38913W        W 9513  38.741  34.370  14.389
38914W        W 9514  19.565  20.500  12.949
38915W        W 9515  30.847  34.111  12.847
38916W        W 9516  37.058  36.160  14.402
38917W        W 9517  11.891  36.642  10.807
38918W        W 9518  19.631  13.991  11.583
38919W        W 9519  11.719  16.973  11.665
38920W        W 9520  15.072  32.942   3.385
38921W        W 9521  42.828   5.889   4.379
38922W        W 9522  39.319   3.300   2.339
38923W        W 9523  31.613   3.095   0.556
38924W        W 9524  31.669  37.983  14.574
38925W        W 9525  42.426  34.103  13.944
38926W        W 9526  34.076  28.096   1.261
38927W        W 9527  32.292   4.720  14.184
38928W        W 9528   4.926   5.217   4.480
38929W        W 9529  37.569  29.149   1.361
38930W        W 9530  19.685   5.648   0.377
38931W        W 9531  40.756  28.922  14.902
38932W        W 9532  31.403  33.002   0.037
38933W        W 9533  26.956  42.009  14.443
38934W        W 9534  24.916  40.361  14.839
38935W        W 9535  12.392  43.202  13.076
38936W        W 9536  10.779  33.466  12.973
38937W        W 9537  37.730  29.482   0.181
38938W        W 9538  13.767  38.486  14.546
38939W        W 9539  19.769  38.840   4.167
38940W        W 9540  25.875  20.951   2.559
38941W        W 9541  19.711   9.611   0.800
38942W        W 9542   8.939  21.712  12.922
38943W        W 9543  40.480   7.417   3.170
38944W        W 9544  17.517  11.864  13.792
38945W        W 9545   8.912   5.546   1.348
38946W        W 9546  37.495  40.713   1.477
38947W        W 9547   8.148   5.389  10.601
38948W        W 9548  43.946  15.749   3.218
38949W        W 9549  25.027  19.028  14.744
38950W        W 9550  16.005  12.527   4.320
38951W        W 9551  37.469  30.939  11.379
38952W        W 9552   6.114   3.639   1.240
38953W        W 9553  37.454   0.919   3.195
38954W        W 9554  28.649  36.630   4.162
38955W        W 9555  29.140   5.287  12.967
38956W        W 9556   5.269   6.893  11.650
38957W        W 9557  18.169  43.078  11.494
38958W        W 9558  13.782  19.267   3.325
38959W        W 9559  11.175  15.372  14.872
38960W        W 9560  33.308  31.010  11.102
38961W        W 9561  22.280   3.860   3.782
38962W        W 9562  31.587  29.897   3.864
38963W        W 9563   1.837  43.987  11.292
38964W        W 9564   5.504  37.308  12.561
38965W        W 9565  14.128  43.498  13.612
38966W        W 9566   5.007  40.517   3.697
38967W        W 9567  41.015  17.785  12.081
38968W        W 9568  40.830  17.288   9.983
38969W        W 9569  27.691  20.268   1.546
38970W        W 9570  21.402  39.455  13.870
38971W        W 9571  15.066  15.714   3.754
38972W        W 9572   9.177  12.677  13.842
38973W        W 9573  24.175   2.620  11.594
38974W        W 9574  26.698  16.755  11.596
38975W        W 9575  21.204  34.937  14.845
38976W        W 9576  14.576  23.858  12.646
38977W        W 9577  27.497   6.965  11.501
38978W        W 9578   2.802  29.548   4.470
38979W        W 9579  38.058  28.610  10.223
38980W        W 9580   8.143   8.439  12.155
38981W        W 9581  31.395  37.506  14.844
38982W        W 9582   3.890  43.421   1.957
38983W        W 9583  44.705  16.029   2.318
38984W        W 9584  37.604  41.962  12.532
38985W        W 9585  26.498  26.457  10.258
38986W        W 9586  21.543  44.901   2.799
38987W        W 9587   8.820  14.528   1.329
38988W        W 9588  43.927  32.203   2.887
38989W        W 9589  38.853  15.397   4.771
38990W        W 9590  31.174  22.501   0.193
38991W        W 9591  44.858  30.412  11.466
38992W        W 9592  26.098  20.828  10.781
38993W        W 9593  40.576  21.509  13.831
38994W        W 9594  14.699  40.259  14.972
38995W        W 9595  10.272  17.802   1.496
38996W        W 9596  11.718  42.207   1.833
38997W        W 9597  39.110  44.021   2.772
38998W        W 9598   3.130  44.996   2.943
38999W        W 9599  27.474  35.421   3.726
39000W        W 9600  25.515  13.364   1.952
39001W        W 9601   5.317  22.267  14.837
39002W        W 9602  10.566   2.801   4.133
39003W        W 9603  24.572  15.864  11.646
39004W        W 9604  41.479  30.071   3.665
39005W        W 9605  11.602  38.357   4.267
39006W        W 9606  28.390  13.312   2.009
39007W        W 9607  30.982  11.601  13.613
39008W        W 9608  34.901  15.712   4.538
39009W        W 9609  40.124  21.064   0.945
39010W        W 9610  18.695  37.905  14.517
39011W        W 9611  28.232   9.215   0.405
39012W        W 9612   4.250  19.032  14.242
39013W        W 9613  34.559  15.944   4.247
39014W        W 9614  13.581  11.359   2.319
39015W        W 9615  39.997  13.111  14.839
39016W        W 9616   4.696   2.306   1.259
39017W        W 9617   2.447   6.311  13.453
39018W        W 9618  33.148  34.131   3.121
39019W        W 9619  38.009  40.572   0.321
39020W        W 9620  23.989  36.472  12.017
39021W        W 9621  30.174  15.643  14.959
39022W        W 9622  16.729  28.072   0.488
39023W        W 9623   8.764  33.584  12.843
39024W        W 9624  25.113   4.227  14.535
39025W        W 9625  21.665  40.917   3.154
39026W        W 9626  39.575  36.921   3.815
39027W        W 9627  22.196  24.866  11.195
39028W        W 9628  19.321  16.160   0.289
39029W        W 9629  15.344   5.494   0.052
39030W        W 9630  34.447  42.001   4.631
39031W        W 9631  16.815  35.115  11.793
39032W        W 9632  12.263  36.450   0.840
39033W        W 9633  18.280  22.374   5.120
39034W        W 9634  12.903   6.210  14.436
39035W        W 9635  23.602  29.074   3.931
39036W        W 9636  34.156  28.180   4.070
39037W        W 9637  30.963  15.745  14.582
39038W        W 9638  22.012  36.780   1.098
39039W        W 9639   5.424  44.849  13.879
39040W        W 9640  25.704  14.705  10.726
39041W        W 9641   3.632  33.196   0.985
39042W        W 9642  21.654  28.692   2.383
39043W        W 9643  26.565  28.420   3.183
39044W        W 9644  25.248  23.123  10.651
39045W        W 9645  37.454   1.433  12.391
39046W        W 9646   7.412  21.588   2.834
39047W        W 9647  40.036  26.447  13.959
39048W        W 9648  12.844  18.162   4.226
39049W        W 9649  17.175  42.628  14.850
39050W        W 9650  15.145   7.233  12.000
39051W        W 9651  34.004  28.055   0.207
39052W        W 9652  36.070   8.263   4.210
39053W        W 9653  10.323  38.390   4.884
39054W        W 9654  38.590  25.164   2.322
39055W        W 9655   7.041  11.577   1.900
39056W        W 9656  24.646   2.427   0.297
39057W        W 9657   6.999  31.481   0.191
39058W        W 9658  23.294  37.084  12.086
39059W        W 9659  17.152  28.418   3.055
39060W        W 9660  34.844  18.265   1.291
39061W        W 9661   0.210  19.044   3.798
39062W        W 9662   0.864  38.468   4.661
39063W        W 9663   2.421  39.609   0.388
39064W        W 9664   4.164   4.755  14.845
39065W        W 9665  33.550  34.926  14.799
39066W        W 9666  42.573  29.469  13.883
39067W        W 9667  34.307  13.070  12.926
39068W        W 9668  39.684  28.152   1.242
39069W        W 9669  18.277  22.771  10.723
39070W        W 9670  44.716  21.156  11.343
39071W        W 9671  19.173  23.790   4.586
39072W        W 9672  38.804  42.979   1.182
39073W        W 9673  12.711  27.176   2.369
39074W        W 9674  29.604  35.907  10.266
39075W        W 9675  26.667   4.481  14.488
39076W        W 9676   8.004  35.593  14.928
39077W        W 9677  33.900  12.804  11.987
39078W        W 9678  43.526  27.040   0.795
39079W        W 9679   6.302  13.351  10.677
39080W        W 9680   2.523  13.913   3.144
39081W        W 9681  34.930  27.591   0.312
39082W        W 9682  29.833   4.202  12.039
39083W        W 9683   2.347  39.368  10.607
39084W        W 9684   8.738  42.488  12.482
39085W        W 9685  15.612   7.876  14.107
39086W        W 9686  34.839  42.683   4.238
39087W        W 9687  40.068  41.469   3.815
39088W        W 9688  28.940  25.243  14.031
39089W        W 9689   9.805  20.223   0.301
39090W        W 9690   8.118   5.934  14.954
39091W        W 9691  14.104   2.884  12.436
39092W        W 9692  18.724  13.741  11.639
39093W        W 9693  37.919  12.208  10.679
39094W        W 9694  44.923  18.220   4.669
39095W        W 9695  25.968  14.247   2.767
39096W        W 9696  42.762  21.287   2.364
39097W        W 9697  24.049  44.471  13.045
39098W        W 9698   2.638   5.217  13.795
39099W        W 9699   7.788  37.162   0.725
39100W        W 9700   8.864  19.793  11.256
39101W        W 9701   7.683  34.149  12.577
39102W        W 9702  18.272  19.755  10.660
39103W        W 9703   2.252   1.219   2.531
39104W        W 9704  13.282  41.584  12.633
39105W        W 9705  25.691  10.472  12.064
39106W        W 9706   0.795  35.082  11.508
39107W        W 9707  32.872  15.812   0.054
39108W        W 9708  27.640  44.347   3.845
39109W        W 9709  25.717  41.905   1.445
39110W        W 9710  19.999  28.490   1.666
39111W        W 9711   1.366  11.225   3.879
39112W        W 9712  25.908  37.979   0.635
39113W        W 9713  43.462   9.297  12.415
39114W        W 9714   8.328  36.047   3.261
39115W        W 9715   3.658  32.574  12.315
39116W        W 9716   0.397  12.881  12.038
39117W        W 9717   8.304  39.759  10.732
39118W        W 9718  31.674  20.457   4.642
39119W        W 9719  33.408  32.000   3.035
39120W        W 9720  41.119  12.818  10.770
39121W        W 9721   0.452  34.469   3.990
39122W        W 9722  18.520  23.938   3.219
39123W        W 9723   5.481   5.317   0.258
39124W        W 9724  10.881   7.758  10.646
39125W        W 9725  44.359   2.256   2.202
39126W        W 9726  32.062  14.398  14.475
39127W        W 9727  17.801  22.619  11.213
39128W        W 9728  35.650  42.051  14.880
39129W        W 9729  38.992  41.109  12.133
39130W        W 9730   5.694  43.024  13.913
39131W        W 9731  42.811  27.675   1.786
39132W        W 9732  44.743  14.184  10.786
39133W        W 9733   1.974  40.330  13.174
39134W        W 9734  18.652  12.164   0.659
39135W        W 9735   4.083  20.415  12.007
39136W        W 9736  27.934   5.892   1.753
39137W        W 9737  21.527  37.876  13.990
39138W        W 9738  10.736   0.149   1.222
39139W        W 9739   9.147  36.004   2.135
39140W        W 9740  29.572  28.070   2.852
39141W        W 9741  11.610  27.429  11.654
39142W        W 9742  24.067   7.667   2.288
39143W        W 9743  27.076  35.894   2.274
39144W        W 9744  41.337  14.785  11.156
39145W        W 9745   8.750  34.238  11.493
39146W        W 9746  32.890  42.371  12.103
39147W        W 9747   2.293  13.848   3.607
39148W        W 9748  10.126  14.630  12.036
39149W        W 9749  44.554  43.902  13.444
39150W        W 9750  37.702  23.465   3.185
39151W        W 9751  42.832   8.211   1.789
39152W        W 9752  28.959  42.288   0.437
39153W        W 9753   4.273  43.340  14.057
39154W        W 9754   1.527  35.200  12.016
39155W        W 9755   2.422   2.616   0.203
39156W        W 9756   8.736  32.536  14.719
39157W        W 9757  38.359  31.585  13.411
39158W        W 9758  30.382  21.248   1.159
39159W        W 9759   8.320  28.376   0.685
39160W        W 9760   8.683  29.164  10.494
39161W        W 9761   9.983  29.151  11.076
39162W        W 9762  39.316  27.915  12.483
39163W        W 9763  42.462  22.751  14.403
39164W        W 9764  11.651  43.956   2.845
39165W        W 9765  35.450  42.556   0.678
39166W        W 9766  29.437   6.260   0.532
39167W        W 9767  16.349  25.435   4.516
39168W        W 9768  31.614  42.071   2.332
39169W        W 9769  37.399   3.682  14.026
39170W        W 9770   6.203   4.965  13.294
39171W        W 9771  24.075  13.679   4.614
39172W        W 9772  11.649   2.745   1.195
39173W        W 9773  16.203  41.753   1.298
39174W        W 9774  25.967  22.538  13.935
39175W        W 9775  42.068   6.956   5.202
39176W        W 9776  20.715  10.439   2.701
39177W        W 9777  36.481  37.303  12.269
39178W        W 9778  34.293   5.304   3.774
39179W        W 9779  23.985  33.784   9.789
39180W        W 9780  29.713   1.446   1.317
39181W        W 9781  42.196  26.023   1.673
39182W        W 9782   9.395   3.546  13.115
39183W        W 9783  36.798  11.685  13.916
39184W        W 9784  37.980   9.448  12.100
39185W        W 9785  40.351  12.384  12.448
39186W        W 9786  26.062  27.952  12.438
39187W        W 9787   0.790  27.917   0.907
39188W        W 9788   8.031  32.154  12.990
39189W        W 9789  13.474  17.339   3.491
39190W        W 9790   4.534   4.409  13.519
39191W        W 9791  44.277  42.807  11.354
39192W        W 9792  11.027  36.934   4.234
39193W        W 9793   8.124  44.959  14.345
39194W        W 9794  42.168   1.782  11.212
39195W        W 9795   2.014  27.925  13.913
39196W        W 9796  26.196  30.083   1.999
39197W        W 9797  10.200  38.640  14.473
39198W        W 9798  32.821  39.418   4.237
39199W        W 9799  42.609  36.492  11.169
39200W        W 9800  22.792  11.073  13.449
39201W        W 9801  27.014  35.099   4.484
39202W        W 9802   6.590   9.536   1.416
39203W        W 9803  33.089  38.650  11.824
39204W        W 9804  28.017  15.138  14.391
39205W        W 9805  21.021   8.995   0.514
39206W        W 9806   7.292  11.348   3.177
39207W        W 9807  20.664  44.315   4.042
39208W        W 9808  13.554  37.747   1.394
39209W        W 9809  27.266  15.743  12.880
39210W        W 9810  17.121  16.310   2.403
39211W        W 9811  17.301  18.199  10.690
39212W        W 9812  23.263  31.556   4.512
39213W        W 9813  19.729  38.979  13.519
39214W        W 9814  39.260  30.060   2.376
39215W        W 9815  21.592  33.549  11.231
39216W        W 9816  43.048  37.580   2.718
39217W        W 9817   9.220  17.082  13.586
39218W        W 9818  19.834  40.257   0.163
39219W        W 9819  34.080  42.589   1.720
39220W        W 9820   5.144  30.650   4.247
39221W        W 9821  24.089  29.693  10.548
39222W        W 9822  23.723  16.732  14.501
39223W        W 9823  38.300   6.485   3.258
39224W        W 9824  43.921  11.649   3.169
39225W        W 9825  32.948  29.433  12.810
39226W        W 9826  15.768   6.600  13.031
39227W        W 9827  19.241   3.517  11.222
39228W        W 9828  19.398  31.129  11.124
39229W        W 9829  43.886  33.211  10.660
39230W        W 9830  11.723  31.047   3.903
39231W        W 9831  18.015  35.950   3.659
39232W        W 9832  43.742  13.123  14.494
39233W        W 9833  20.632  31.019  10.363
39234W        W 9834   3.845  36.360  12.874
39235W        W 9835  13.972  16.276  14.069
39236W        W 9836  27.171  27.457  12.589
39237W        W 9837  42.416   4.705   2.769
39238W        W 9838   6.198  34.159   2.674
39239W        W 9839  37.287  34.409  10.723
39240W        W 9840  33.713  11.355   4.272
39241W        W 9841  43.136  26.515  11.028
39242W        W 9842  40.950  24.978  12.947
39243W        W 9843   0.435  25.114   1.469
39244W        W 9844  20.827  10.355  11.032
39245W        W 9845  26.465  25.191  14.740
39246W        W 9846  43.587  36.058  10.253
39247W        W 9847  33.632  14.386   3.836
39248W        W 9848  10.800  33.119   2.890
39249W        W 9849  13.343  29.419  12.508
39250W        W 9850  32.428  37.361  13.071
39251W        W 9851   0.428  16.860   3.074
39252W        W 9852  39.323  25.029  14.408
39253W        W 9853  20.195   6.352   2.291
39254W        W 9854   8.273  11.918  12.496
39255W        W 9855  26.687  30.712   3.904
39256W        W 9856  15.621  15.989  11.092
39257W        W 9857  37.857  39.677  13.073
39258W        W 9858  38.576  35.948  12.934
39259W        W 9859  19.561  44.821   4.108
39260W        W 9860  14.589   4.506   2.736
39261W        W 9861  34.070  29.901  12.021
39262W        W 9862  36.342  35.000   1.141
39263W        W 9863  27.529  41.981   2.899
39264W        W 9864  36.832  34.394   2.453
39265W        W 9865  21.322   9.296  12.889
39266W        W 9866  43.745   6.847   0.435
39267W        W 9867  13.511   7.182   2.733
39268W        W 9868  10.254   2.321  10.752
39269W        W 9869   5.685  37.767  12.396
39270W        W 9870  16.244  39.727   0.284
39271W        W 9871   1.462   2.275   3.732
39272W        W 9872   8.381  14.846  14.668
39273W        W 9873  16.776   3.252   1.248
39274W        W 9874  22.623  26.759   0.378
39275W        W 9875  26.754  25.061  13.445
39276W        W 9876   9.066   1.785  14.519
39277W        W 9877   8.379  22.804   2.383
39278W        W 9878  38.025   6.108  11.415
39279W        W 9879  27.931  22.132   2.851
39280W        W 9880  12.650  12.810   3.628
39281W        W 9881  10.236   9.307   4.832
39282W        W 9882  39.903  21.695  11.631
39283W        W 9883  24.426   0.788   3.215
39284W        W 9884   6.715  33.336  11.109
39285W        W 9885  28.059  25.079   1.234
39286W        W 9886  34.155  42.841   0.861
39287W        W 9887   0.904  29.655   1.939
39288W        W 9888  33.550  37.765  11.951
39289W        W 9889   3.264  29.758   3.713
39290W        W 9890   3.369  19.252  14.291
39291W        W 9891  14.660  29.020   1.244
39292W        W 9892  37.313  39.409   2.831
39293W        W 9893  42.086  27.108  13.024
39294W        W 9894  38.318  14.244  14.253
39295W        W 9895  34.879  42.487   0.437
39296W        W 9896  10.193  44.914  12.355
39297W        W 9897  16.132  27.457  13.928
39298W        W 9898  23.270  38.091   3.555
39299W        W 9899  39.077  15.068   3.788
39300W        W 9900   8.183   2.733   3.370
39301W        W 9901  30.574   9.016   2.265
39302W        W 9902  19.966  43.769   0.651
39303W        W 9903  33.620  34.596   1.364
39304W        W 9904  32.436   2.351  12.902
39305W        W 9905  33.873  44.714   2.892
39306W        W 9906   4.366  11.590  11.861
39307W        W 9907  23.701  32.380  14.094
39308W        W 9908  11.186  36.523   4.540
39309W        W 9909  24.476  11.361  14.395
39310W        W 9910  11.751  29.784   0.835
39311W        W 9911  34.678  40.836  14.355
39312W        W 9912   1.780   5.896   2.938
39313W        W 9913  20.790  39.855   4.597
39314W        W 9914  28.178  30.896   1.674
39315W        W 9915  18.392  12.345   1.925
39316W        W 9916  15.232  19.522  14.451
39317W        W 9917  31.652  36.332  12.372
39318W        W 9918  30.719  10.990   3.198
39319W        W 9919  17.507  29.664   0.663
39320W        W 9920  14.863  21.989  10.761
39321W        W 9921  39.405  41.810   0.329
39322W        W 9922  36.392  18.634   4.488
39323W        W 9923  22.823   7.874  14.793
39324W        W 9924  12.482  14.841  13.542
39325W        W 9925  41.541  10.758  11.977
39326W        W 9926  25.096  16.770   2.265
39327W        W 9927  22.274  20.764   0.476
39328W        W 9928   5.657   9.926  14.811
39329W        W 9929  38.285   9.235  14.394
39330W        W 9930  14.084  39.417  14.004
39331W        W 9931  24.107   4.631   2.151
39332W        W 9932  25.060   9.311   3.233
39333W        W 9933  13.014  19.681   1.213
39334W        W 9934   0.290  27.650   2.320
39335W        W 9935  42.201  10.821   4.248
39336W        W 9936   4.380   5.876   0.377
39337W        W 9937  34.096  26.862   2.782
39338W        W 9938  36.223   7.380  13.254
39339W        W 9939  27.215   4.694  13.280
39340W        W 9940  44.254  17.642  14.178
39341W        W 9941   7.876  31.148   4.722
39342W        W 9942  28.282  20.949   2.725
39343W        W 9943  31.025  30.108  14.334
39344W        W 9944  26.451  41.027  14.272
39345W        W 9945  39.296  11.170  14.410
39346W        W 9946  17.652  31.924  13.483
39347W        W 9947  35.277  35.324   0.057
39348W        W 9948  19.771   3.956  12.351
39349W        W 9949  29.757  28.513  12.492
39350W        W 9950  15.668   7.052   1.738
39351W        W 9951  26.599   7.608   0.047
39352W        W 9952  42.385  19.646  11.761
39353W        W 9953  29.960  21.055  13.159
39354W        W 9954  26.434  39.695   3.775
39355W        W 9955  29.145  44.793  12.607
39356W        W 9956  34.390  11.709   0.429
39357W        W 9957  28.024  44.048   0.288
39358W        W 9958  18.794  33.088  11.662
39359W        W 9959   8.414  25.123   4.340
39360W        W 9960  31.982   7.233   2.255
39361W        W 9961   8.272  42.827  12.369
39362W        W 9962  24.043   0.921  13.053
39363W        W 9963  12.662  17.288   0.056
39364W        W 9964   6.726  23.816   2.201
39365W        W 9965  22.849  39.600  12.868
39366W        W 9966   4.997  18.311  14.440
39367W        W 9967  24.270  39.927  14.792
39368W        W 9968  42.848  32.187  13.396
39369W        W 9969  13.775   5.281  13.862
39370W        W 9970  15.994  13.211   0.867
39371W        W 9971   1.268  36.049   1.196
39372W        W 9972  27.224  42.983   2.776
39373W        W 9973  38.109  43.407   2.271
39374W        W 9974  17.386  24.436   1.494
39375W        W 9975   2.795  30.031   0.525
39376W        W 9976  30.592  32.754  10.202
39377W        W 9977  12.620  20.093  14.998
39378W        W 9978  26.285  26.573   0.444
39379W        W 9979  20.086   9.625  12.958
39380W        W 9980   6.749   3.781  11.486
39381W        W 9981  10.439  10.648  12.681
39382W        W 9982   5.180  39.764   4.101
39383W        W 9983   4.923  23.469   1.336
39384W        W 9984  10.539  20.575  11.199
39385W        W 9985  37.996  24.697   2.725
39386W        W 9986  18.562  11.690   4.784
39387W        W 9987  27.563  18.321  12.405
39388W        W 9988   6.979   0.869   4.901
39389W        W 9989  25.824  30.958   4.939
39390W        W 9990  23.629  22.591   0.664
39391W        W 9991   3.439  43.858   3.322
39392W        W 9992  34.427  29.435  11.049
39393W        W 9993  27.601  29.406  12.359
39394W        W 9994  12.424  21.929  13.809
39395W        W 9995  36.560  38.390  13.791
39396W        W 9996  33.507  17.962  12.047
39397W        W 9997  32.252  38.978   3.726
39398W        W 9998  17.171  27.850   0.670
39399W        W 9999   0.565  33.794   0.759
39400W        W10000  40.457  27.691  13.690
39401W        W10001  39.432  12.634  14.197
39402W        W10002  39.906  25.050   2.789
39403W        W10003  25.864  22.328  14.412
39404W        W10004  13.731  12.840  14.496
39405W        W10005  27.638  27.784   0.352
39406W        W10006  11.144  43.235  14.025
39407W        W10007  24.238  39.841  10.737
39408W        W10008  38.745  10.908  11.026
39409W        W10009  33.879  37.791  13.051
39410W        W10010  31.987   6.316  14.922
39411W        W10011  40.492  33.397   3.558
39412W        W10012   9.225  24.380  13.882
39413W        W10013   0.875  19.511   3.243
39414W        W10014  30.155   8.932  13.567
39415W        W10015  12.923  18.788  14.369
39416W        W10016   6.921  34.161  14.838
39417W        W10017  42.580  18.969   2.201
39418W        W10018  39.145  24.761  10.509
39419W        W10019  31.988  42.774   4.719
39420W        W10020   4.385  34.759  13.424
39421W        W10021   7.285  37.579   1.322
39422W        W10022  25.568  39.893  14.013
39423W        W10023  41.561   7.743   1.842
39424W        W10024  43.763  19.713   4.512
39425W        W10025  12.136  43.466   1.704
39426W        W10026   8.145  10.340  13.500
39427W        W10027  18.013  37.836  11.421
39428W        W10028   5.205   4.232  14.001
39429W        W10029  29.955  33.053  11.612
39430W        W10030   8.678   8.476  10.651
39431W        W10031  43.473  44.211  14.850
39432W        W10032  15.404  44.778  11.424
39433W        W10033  38.807  44.439  10.284
39434W        W10034  33.344  34.418   0.962
39435W        W10035  21.223  25.453   0.443
39436W        W10036   8.736  40.177  11.922
39437W        W10037   0.429  43.291  12.874
39438W        W10038  38.013  14.297  14.877
39439W        W10039  42.273  40.415   4.515
39440W        W10040  14.456   5.688  13.954
39441W        W10041  42.420  41.791   3.653
39442W        W10042   9.969  39.039   1.877
39443W        W10043  16.368  41.282   1.377
39444W        W10044  37.488  43.983  12.518
39445W        W10045  19.063  43.018  11.653
39446W        W10046  40.241  31.906   3.217
39447W        W10047  10.046  37.919   4.102
39448W        W10048  29.004  37.925  14.022
39449W        W10049  42.886   3.424   3.367
39450W        W10050  28.019   2.135   3.294
39451W        W10051  15.592  26.058   4.273
39452W        W10052  36.473   2.965  13.521
39453W        W10053  44.293  22.522  11.850
39454W        W10054   4.554  44.145   4.559
39455W        W10055  33.345  19.056   0.924
39456W        W10056  26.491  13.139   4.191
39457W        W10057   8.260  30.521   0.501
39458W        W10058  36.869  33.973   0.215
39459W        W10059  14.898   9.292  11.066
39460W        W10060  23.562  40.618  12.617
39461W        W10061  11.193  27.635  11.029
39462W        W10062   8.608  42.735  13.928
39463W        W10063  17.147  43.175  11.570
39464W        W10064  36.956  16.307  13.787
39465W        W10065  38.643  41.577   5.045
39466W        W10066  32.006  23.630   0.950
39467W        W10067   1.497  18.111  11.845
39468W        W10068   1.878  37.168   2.786
39469W        W10069  15.738  39.892   4.343
39470W        W10070  13.134  27.447   0.276
39471W        W10071  30.504   0.451  14.095
39472W        W10072  23.789  14.477  13.018
39473W        W10073   8.904  38.016  11.895
39474W        W10074   4.917  39.538  13.537
39475W        W10075  14.855   0.880  14.643
39476W        W10076  25.197   0.364   4.172
39477W        W10077  17.743  42.764  14.083
39478W        W10078  35.392  39.876  13.462
39479W        W10079  13.766  43.924  14.867
39480W        W10080  39.953  41.584  12.864
39481W        W10081  36.368   6.974  10.263
39482W        W10082  11.323  25.587  13.281
39483W        W10083   9.760  29.582  13.780
39484W        W10084   0.455  32.538  11.663
39485W        W10085  37.909  37.092   1.266
39486W        W10086  30.106  42.730  11.126
39487W        W10087  41.247  44.368   3.288
39488W        W10088  31.799  44.442   2.332
39489W        W10089  12.535  27.560  13.175
39490W        W10090   9.397   2.298   1.604
39491W        W10091  27.422   2.702   0.906
39492W        W10092  29.617  28.125  14.291
39493W        W10093  26.249  25.904   1.853
39494W        W10094   7.676  11.750   2.308
39495W        W10095   8.917   9.895  14.267
39496W        W10096  33.550  19.212  13.476
39497W        W10097  17.456  38.970   2.235
39498W        W10098  15.673  36.965  11.674
39499W        W10099  27.932  40.498  12.651
39500W        W10100  24.127  22.613  11.608
39501W        W10101  43.637   7.315  10.751
39502W        W10102   6.759  28.239   0.440
39503W        W10103  38.313   9.589   3.737
39504W        W10104   3.830   6.091  10.739
39505W        W10105  15.269  31.521   4.129
39506W        W10106  27.468  29.477  13.877
39507W        W10107  15.459  22.708   1.088
39508W        W10108  29.355  20.172   2.803
39509W        W10109  27.470   9.386   3.586
39510W        W10110  15.916   7.349   3.721
39511W        W10111  29.141  43.458  13.067
39512W        W10112   9.517  32.185  11.095
39513W        W10113  27.105  12.124   1.899
39514W        W10114  39.334  35.124   0.966
39515W        W10115  16.794   2.802   0.899
39516W        W10116  10.184  31.853   0.825
39517W        W10117  27.859  31.508  11.610
39518W        W10118  42.654  44.223  11.338
39519W        W10119  23.726   5.725   2.569
39520W        W10120  35.400  16.811  12.429
39521W        W10121  29.216  35.590   0.275
39522W        W10122  42.906   9.908  12.950
39523W        W10123  18.842  30.087   0.273
39524W        W10124  40.242  40.080   2.904
39525W        W10125  11.387  29.974  11.020
39526W        W10126   3.600  29.412  14.939
39527W        W10127   8.209  10.631   2.357
39528W        W10128  12.160  39.564  12.137
39529W        W10129  29.096  16.240   1.823
39530W        W10130   0.051  12.128   0.834
39531W        W10131  36.435   8.445   0.367
39532W        W10132  22.499  44.384  13.989
39533W        W10133  43.942   4.963   0.005
39534W        W10134  44.778  30.866  11.681
39535W        W10135  34.630   9.148   2.343
39536W        W10136  19.429  15.729  10.581
39537W        W10137  31.541  38.085   1.445
39538W        W10138  32.455  16.148   0.363
39539W        W10139   5.719  17.104  12.948
39540W        W10140  36.123  11.887   1.670
39541W        W10141  28.024  19.315  14.238
39542W        W10142  18.065  31.082   1.391
39543W        W10143  38.039  24.774  14.612
39544W        W10144  18.775  25.192   2.622
39545W        W10145  12.025  26.860   1.756
39546W        W10146  30.413  36.030   0.378
39547W        W10147  42.566   3.320   3.760
39548W        W10148   8.705  40.403   4.718
39549W        W10149  43.871  30.103   3.739
39550W        W10150  24.917  33.978  11.474
39551W        W10151  42.987  15.579   5.061
39552W        W10152  30.776  22.226   0.382
39553W        W10153  22.790  17.350  11.193
39554W        W10154   8.247   9.078  11.621
39555W        W10155   1.298  32.909  13.940
39556W        W10156  32.418  10.203   3.827
39557W        W10157  10.195  11.316   0.703
39558W        W10158  20.488  42.028  11.143
39559W        W10159  30.329  12.283   0.525
39560W        W10160  25.208  20.311  11.107
39561W        W10161  14.032  41.599   3.772
39562W        W10162  43.802  38.976  12.516
39563W        W10163  18.832  25.190  13.068
39564W        W10164  30.021   6.804  11.131
39565W        W10165   0.247  18.605   3.471
39566W        W10166  32.363  31.847   0.841
39567W        W10167  18.274   8.306  10.467
39568W        W10168  30.588  24.188  11.217
39569W        W10169   6.746  39.962   2.310
39570W        W10170  27.245   8.250   1.866
39571W        W10171   1.859  16.056   3.039
39572W        W10172   2.445  28.740   2.281
39573W        W10173   6.602   8.144  14.117
39574W        W10174  17.246   7.873   2.760
39575W        W10175  39.114  42.941   2.826
39576W        W10176  17.467   8.797  13.527
39577W        W10177  24.473  36.341  13.004
39578W        W10178  29.328  30.667  13.931
39579W        W10179  24.291   4.666   1.238
39580W        W10180  18.565   6.963  14.972
39581W        W10181   5.247   6.651  14.838
39582W        W10182  38.530  22.241   4.827
39583W        W10183  19.015  42.619  13.253
39584W        W10184  34.160  12.848  12.435
39585W        W10185  16.879  12.518  13.842
39586W        W10186  23.444  34.506  11.164
39587W        W10187  34.849  32.583   1.972
39588W        W10188  17.842  29.109  10.737
39589W        W10189   9.753  32.624  10.932
39590W        W10190  40.866  26.166  10.915
39591W        W10191  13.651  33.095   0.953
39592W        W10192  40.441  20.742  12.384
39593W        W10193  35.869  15.178  12.030
39594W        W10194   6.458   5.659   0.494
39595W        W10195   2.160  20.483  13.146
39596W        W10196  26.812  33.882  13.576
39597W        W10197  24.978  44.520   3.303
39598W        W10198  24.961  29.612   2.174
39599W        W10199   0.046  25.944   1.394
39600W        W10200  16.701  12.676  11.115
39601W        W10201  13.132  19.033  12.358
39602W        W10202  12.453  14.391  10.778
39603W        W10203  21.669  11.291   2.825
39604W        W10204  33.866  33.494  11.718
39605W        W10205  28.182  41.583   0.298
39606W        W10206   0.420  25.880   3.931
39607W        W10207  33.847  10.253  12.551
39608W        W10208  19.352   4.125  12.063
39609W        W10209  37.909  24.995   3.125
39610W        W10210  39.353  16.741   3.330
39611W        W10211   2.963  14.081   0.928
39612W        W10212  29.547  39.954  14.399
39613W        W10213  29.822   7.728  10.984
39614W        W10214  37.946  11.195   2.066
39615W        W10215  20.243   7.747   1.898
39616W        W10216  43.962  27.198   1.730
39617W        W10217  43.290   3.148  12.070
39618W        W10218  38.925  25.890   1.176
39619W        W10219  44.881   0.214   0.818
39620W        W10220  24.052  24.258   0.381
39621W        W10221  29.720  18.065  10.769
39622W        W10222  32.147   2.752   1.877
39623W        W10223  18.545  44.484   1.787
39624W        W10224  29.374  36.930   1.496
39625W        W10225  42.684  37.400   0.973
39626W        W10226  20.535   6.644  12.065
39627W        W10227   8.607  13.674  14.911
39628W        W10228   6.326   9.167   4.564
39629W        W10229  42.327  44.848  14.456
39630W        W10230  24.700  18.727   4.459
39631W        W10231  32.635   7.028   3.710
39632W        W10232   4.415  40.904  13.354
39633W        W10233  30.420  43.536   3.865
39634W        W10234   5.144  21.987  11.989
39635W        W10235  29.215   2.851   3.146
39636W        W10236  33.847  39.217  12.929
39637W        W10237   3.168   3.965  13.008
39638W        W10238  36.109  41.997   4.074
39639W        W10239  20.974  19.721   4.435
39640W        W10240  22.040  29.217  10.411
39641W        W10241   8.245  15.818   2.434
39642W        W10242  23.259  19.730  12.419
39643W        W10243  11.344  22.033   1.337
39644W        W10244  38.608  18.582  14.360
39645W        W10245  44.040   0.230   4.569
39646W        W10246   0.076  18.192   2.861
39647W        W10247  39.511  13.867   2.377
39648W        W10248  18.751  11.412  11.959
39649W        W10249  43.096   7.269   3.929
39650W        W10250  44.209  35.003   0.243
39651W        W10251  29.103  44.964  12.105
39652W        W10252  33.933  41.484  14.312
39653W        W10253   0.301  44.047  14.699
39654W        W10254   9.127  14.735   2.246
39655W        W10255   9.805  29.478   2.916
39656W        W10256  33.377   7.939  10.629
39657W        W10257  15.306  14.629  14.853
39658W        W10258   4.695  26.949   2.266
39659W        W10259  18.404  39.061   2.784
39660W        W10260  32.132   1.645  14.572
39661W        W10261  27.520  30.443  12.612
39662W        W10262  11.423   4.026   3.175
39663W        W10263  11.948  44.397  11.323
39664W        W10264  16.532  25.455   0.817
39665W        W10265  39.307  11.691   2.243
39666W        W10266  10.714  27.601  11.240
39667W        W10267  34.877   9.184   0.454
39668W        W10268  13.534   6.887  11.976
39669W        W10269  42.818  36.518  14.798
39670W        W10270  38.046   4.753   1.503
39671W        W10271  37.835  43.225  14.847
39672W        W10272   8.945  31.970  12.548
39673W        W10273  23.666  23.148   3.304
39674W        W10274  22.126  40.837   0.700
39675W        W10275  13.113  32.091  11.114
39676W        W10276  41.869  40.902   3.701
39677W        W10277  29.661   5.617   2.101
39678W        W10278  10.760  22.759  10.605
39679W        W10279  31.957  21.212  12.042
39680W        W10280  15.696   9.576  13.423
39681W        W10281   9.334  25.567  13.931
39682W        W10282   0.300  20.317   0.284
39683W        W10283  10.591  28.562   0.835
39684W        W10284  22.722  41.035   3.043
39685W        W10285  22.612  11.280  14.794
39686W        W10286   1.115   6.937   3.507
39687W        W10287  20.260   5.417   4.656
39688W        W10288  21.698   3.988   2.379
39689W        W10289  41.235  35.413  11.613
39690W        W10290  40.805   7.499  11.681
39691W        W10291   0.862  37.422   4.519
39692W        W10292   1.738  16.776  12.443
39693W        W10293  40.983  12.548  11.706
39694W        W10294   6.829   7.944  12.782
39695W        W10295  42.525  29.061  10.704
39696W        W10296  38.836  39.984  14.338
39697W        W10297  20.052  27.296  11.211
39698W        W10298  23.669  32.546   1.021
39699W        W10299  20.179   9.060   1.438
39700W        W10300  14.181  32.204   0.451
39701W        W10301  23.644   8.330  14.280
39702W        W10302  22.058  12.569   0.968
39703W        W10303  34.138  33.048  14.448
39704W        W10304   9.823  42.176  13.848
39705W        W10305   6.936  42.290  12.794
39706W        W10306  20.647   3.275  10.720
39707W        W10307  20.284   3.429   4.581
39708W        W10308  42.789   2.595   1.232
39709W        W10309  37.606  33.439   1.893
39710W        W10310  20.020  38.308   3.572
39711W        W10311  24.625  41.011   3.847
39712W        W10312  36.070  28.120   2.680
39713W        W10313  24.192   0.454  12.569
39714W        W10314  30.134  22.467   3.030
39715W        W10315  29.508  39.277  13.735
39716W        W10316  15.589  22.676   0.534
39717W        W10317  37.915  11.733   2.282
39718W        W10318  13.191  36.087  12.358
39719W        W10319  42.979  22.109   0.773
39720W        W10320  18.970  30.121  12.500
39721W        W10321   7.147  44.860  14.836
39722W        W10322   6.117  39.802   2.686
39723W        W10323  26.591  42.386  14.303
39724W        W10324  23.063  26.101   0.748
39725W        W10325  15.731   6.349   4.037
39726W        W10326  18.232  24.148   0.480
39727W        W10327  40.642   3.468   0.449
39728W        W10328   3.870  24.233  14.924
39729W        W10329  37.010  18.687  12.577
39730W        W10330   5.254  16.307  13.213
39731W        W10331  33.477  39.056  10.295
39732W        W10332  40.463  26.705   0.124
39733W        W10333  25.480   5.515   4.945
39734W        W10334  19.139  36.616   1.051
39735W        W10335  30.161  30.083  14.513
39736W        W10336   8.423  34.609   4.595
39737W        W10337   1.879  44.439  12.631
39738W        W10338   5.332  27.682  13.902
39739W        W10339   3.743  19.922   1.274
39740W        W10340  24.239  39.067  11.948
39741W        W10341   2.113  19.359   0.031
39742W        W10342  13.262   0.521   3.294
39743W        W10343  19.679  28.240  11.488
39744W        W10344  41.038  18.050   3.878
39745W        W10345  40.634  25.600   3.177
39746W        W10346   5.909  26.140   2.721
39747W        W10347  18.620   8.676   4.734
39748W        W10348  13.225  39.933  11.499
39749W        W10349  17.275  12.261  14.019
39750W        W10350  17.721  15.075  10.591
39751W        W10351  22.503  42.357   2.741
39752W        W10352  21.539  16.642   3.759
39753W        W10353  33.586  37.031   3.246
39754W        W10354  25.180  13.406   2.355
39755W        W10355   8.007  33.559  11.129
39756W        W10356  34.790  12.229  11.631
39757W        W10357  22.503  44.173  13.017
39758W        W10358  29.714  21.950   4.615
39759W        W10359  33.923   5.064   0.020
39760W        W10360  14.166  12.276  11.331
39761W        W10361  31.039  39.019  13.604
39762W        W10362  33.055   4.957  11.649
39763W        W10363  17.812  41.560  14.339
39764W        W10364  18.468   5.113   0.431
39765W        W10365  17.522   4.862   1.902
39766W        W10366   6.201  11.630  14.669
39767W        W10367  32.641  12.148  13.139
39768W        W10368  41.631   6.399  13.309
39769W        W10369  37.539  37.101  11.272
39770W        W10370  42.456  43.524  10.662
39771W        W10371  17.540  37.074  10.999
39772W        W10372  25.550  16.521   2.133
39773W        W10373  21.344  40.995  14.434
39774W        W10374   0.864  26.086   4.725
39775W        W10375  37.871   8.149   3.638
39776W        W10376  13.813   5.150  12.464
39777W        W10377  40.487  36.922   1.314
39778W        W10378  15.470  32.114  12.457
39779W        W10379  42.530  22.767  11.175
39780W        W10380   8.415  21.707  12.964
39781W        W10381  36.308  14.247  11.991
39782W        W10382  21.558  32.063   3.728
39783W        W10383   1.768  23.589   0.996
39784W        W10384  11.587  41.048  14.568
39785W        W10385  16.991  28.276  11.021
39786W        W10386  35.482  14.618  11.938
39787W        W10387   9.305  21.898   1.714
39788W        W10388  40.858  25.698   1.897
39789W        W10389   8.448  36.538   3.556
39790W        W10390   1.727  29.993   3.374
39791W        W10391  24.035  10.292  11.857
39792W        W10392  24.089  20.923   4.243
39793W        W10393  29.450  37.620  14.742
39794W        W10394  20.881   3.710  11.096
39795W        W10395  18.312  39.913  10.567
39796W        W10396  23.728  15.816  10.602
39797W        W10397  12.244  36.391  14.307
39798W        W10398   5.241  31.596  13.655
39799W        W10399  22.689   5.458   2.707
39800W        W10400  19.465  43.780   2.456
39801W        W10401   9.291  36.324   2.636
39802W        W10402  14.096   1.471   2.151
39803W        W10403  29.041  11.748  14.939
39804W        W10404  14.118  25.622   0.969
39805W        W10405  22.692  43.517   2.400
39806W        W10406  44.444  13.347  14.967
39807W        W10407  33.459   3.935   2.946
39808W        W10408   7.466  28.559   1.833
39809W        W10409   0.749  40.331   0.911
39810W        W10410  37.058  38.097  10.598
39811W        W10411  41.943  24.795  13.798
39812W        W10412   7.432  28.158  12.603
39813W        W10413  34.350   9.449  11.540
39814W        W10414   3.564  43.437   2.913
39815W        W10415  40.095  31.097   3.830
39816W        W10416   5.997  26.704  13.516
39817W        W10417   8.270  26.721  14.264
39818W        W10418  31.926  25.951   2.393
39819W        W10419  14.571  30.152   1.878
39820W        W10420   1.203   1.209   2.387
39821W        W10421  25.632  37.368   0.056
39822W        W10422  29.194  10.732  12.149
39823W        W10423  30.988  40.075  12.783
39824W        W10424   2.445  19.704  12.397
39825W        W10425   8.459  14.529  12.623
39826W        W10426   2.745  19.852   1.251
39827W        W10427   6.967  14.575   4.187
39828W        W10428  10.643  15.738  10.182
39829W        W10429  35.838  22.194  14.105
39830W        W10430   0.764  27.390  10.252
39831W        W10431  15.730  14.529  12.571
39832W        W10432  34.459  37.351   0.927
39833W        W10433  36.638  33.947  14.718
39834W        W10434  29.086  41.775  13.342
39835W        W10435  16.576  30.205  10.295
39836W        W10436  24.658  32.420   1.401
39837W        W10437  11.372  37.842  13.615
39838W        W10438  42.816  12.856  12.965
39839W        W10439  12.250  38.465   4.653
39840W        W10440  17.004  21.733   1.961
39841W        W10441   1.163  31.158   0.489
39842W        W10442  44.301   2.658   4.531
39843W        W10443  28.150  30.504  12.493
39844W        W10444  28.340  36.534   3.760
39845W        W10445   4.870  43.032  10.460
39846W        W10446  15.722   4.598   0.401
39847W        W10447  19.006  33.797   0.431
39848W        W10448   5.496  33.513   4.898
39849W        W10449  15.627   8.812  14.566
39850W        W10450  24.626  10.494  13.535
39851W        W10451  35.988  18.221  14.346
39852W        W10452   3.171   2.378  10.712
39853W        W10453  14.637  28.660   0.845
39854W        W10454  30.873  18.090  13.798
39855W        W10455  41.505  41.996   1.283
39856W        W10456   1.612  16.615  12.944
39857W        W10457  38.081  35.547   2.291
39858W        W10458  38.741  39.040  14.440
39859W        W10459  35.451  19.348   1.683
39860W        W10460  23.290  41.805   1.853
39861W        W10461  16.453  36.041  11.485
39862W        W10462  43.200   8.159   5.008
39863W        W10463  42.732  22.274   1.202
39864W        W10464  15.684   5.432   0.835
39865W        W10465  13.645  32.645  10.532
39866W        W10466  25.609  40.820  14.377
39867W        W10467  12.018  17.314  11.994
39868W        W10468  32.439  43.419  12.689
39869W        W10469  32.889  39.893   0.479
39870W        W10470  33.741   0.251  12.464
39871W        W10471  15.678  16.528   4.136
39872W        W10472  40.742  28.514   0.744
39873W        W10473   7.667  30.141   1.707
39874W        W10474   0.065   0.059   4.530
39875W        W10475  42.461   8.788   3.186
39876W        W10476  23.977  25.546   2.735
39877W        W10477   7.859  17.585  12.842
39878W        W10478  21.774  32.484  13.856
39879W        W10479  12.411   3.947   4.147
39880W        W10480  23.684  26.666   4.075
39881W        W10481  26.805  12.521  13.285
39882W        W10482  13.154  22.716  13.024
39883W        W10483  33.106  10.679   3.384
39884W        W10484  33.445  33.983   4.964
39885W        W10485  11.525  37.035   1.852
39886W        W10486  21.036  18.891  13.383
39887W        W10487   5.407  25.044  13.078
39888W        W10488  11.764   0.723  13.868
39889W        W10489  40.906  42.247   1.566
39890W        W10490  23.682  37.544  14.225
39891W        W10491  29.623  10.948  11.946
39892W        W10492  19.040   3.458   0.712
39893W        W10493  19.264  24.192  10.226
39894W        W10494  13.317  10.005   0.100
39895W        W10495  10.219  42.824   3.244
39896W        W10496   1.485  38.158  14.882
39897W        W10497  10.108  25.678  14.560
39898W        W10498  17.708  42.403  11.926
39899W        W10499  43.516  40.958   0.941
39900W        W10500  16.724  34.118  10.757
39901W        W10501  12.718  36.238  12.497
39902W        W10502   2.634  39.486   0.846
39903W        W10503  36.545  20.268   3.819
39904W        W10504  21.478  24.498  11.606
39905W        W10505  34.051  32.002   4.398
39906W        W10506  31.391   2.687   2.780
39907W        W10507  24.556  44.454   2.583
39908W        W10508  31.336  10.979   1.374
39909W        W10509  24.531  27.530  13.458
39910W        W10510  27.633  42.786   3.362
39911W        W10511   4.294  32.024   0.244
39912W        W10512  44.466  40.813   4.468
39913W        W10513   6.942  42.913   0.809
39914W        W10514  28.152  14.138   3.223
39915W        W10515  11.207   2.991   1.315
39916W        W10516  42.415  25.496   4.955
39917W        W10517  16.525  24.083   3.420
39918W        W10518  11.577  24.719  12.004
39919W        W10519  44.913  24.635  10.789
39920W        W10520   5.016  37.020  12.089
39921W        W10521  44.159  10.776  13.005
39922W        W10522  32.133  25.038   4.739
39923W        W10523  20.656  23.197  14.689
39924W        W10524   0.730  16.252  11.003
39925W        W10525  15.176   9.945   4.402
39926W        W10526   8.062  11.771  10.385
39927W        W10527  13.693  24.701   3.637
39928W        W10528   3.501  42.892  11.627
39929W        W10529  13.619  14.219  14.433
39930W        W10530  12.161  12.851  10.780
39931W        W10531  34.641  38.503   2.265
39932W        W10532  24.373  40.311  12.048
39933W        W10533  27.202  29.086   0.277
39934W        W10534  37.067  11.357   4.734
39935W        W10535  42.846  22.060   1.654
39936W        W10536  44.837  44.015   2.843
39937W        W10537  35.583  27.735   1.882
39938W        W10538  24.197  36.031  14.781
39939W        W10539  19.195   4.816   1.310
39940W        W10540  42.603  25.929  10.608
39941W        W10541   6.076   4.458   1.745
39942W        W10542  10.480   7.149   1.299
39943W        W10543  15.188  28.788  12.150
39944W        W10544   4.778  44.355   4.993
39945W        W10545  29.608  18.384  12.495
39946W        W10546  41.987  22.178  12.522
39947W        W10547  16.293   5.731  13.844
39948W        W10548  19.645  28.973  13.459
39949W        W10549   5.791  29.147   0.513
39950W        W10550  11.768  17.828  12.527
39951W        W10551  20.564  31.555   2.613
39952W        W10552  22.692  32.929  13.945
39953W        W10553  43.329   1.397   1.652
39954W        W10554  38.408  13.636   0.082
39955W        W10555  31.365  29.023   4.902
39956W        W10556  14.441  31.868  12.501
39957W        W10557   5.742  20.713  12.464
39958W        W10558   8.313   0.277   1.053
39959W        W10559  15.629  13.569   1.846
39960W        W10560  12.228   8.702   0.008
39961W        W10561  21.566   8.384   1.443
39962W        W10562  44.007   1.966  10.399
39963W        W10563   2.213  10.207   0.292
39964W        W10564  22.809  23.980  13.876
39965W        W10565   9.079  11.341  10.769
39966W        W10566  22.693  12.139   1.870
39967W        W10567   3.613   1.003  11.101
39968W        W10568  23.815  19.126  12.147
39969W        W10569  33.660  42.987   0.821
39970W        W10570  16.367   5.674   2.262
39971W        W10571  22.888  22.888   1.645
39972W        W10572  22.656  30.599   1.425
39973W        W10573   3.020  16.139  11.474
39974W        W10574  38.098  31.135   2.866
39975W        W10575   5.588  22.050  11.744
39976W        W10576  17.234  23.557   0.015
39977W        W10577  44.143  19.102   1.240
39978W        W10578   0.525   8.072  11.260
39979W        W10579  30.395  35.657   2.802
39980W        W10580  34.862  31.567  14.712
39981W        W10581  26.926  17.288   0.688
39982W        W10582  11.483  37.586   3.193
39983W        W10583   9.245  14.297  12.414
39984W        W10584   2.039  44.365   3.709
39985W        W10585  43.990  41.899   1.338
39986W        W10586  27.738  36.496   2.917
39987W        W10587  20.892  43.482   4.981
39988W        W10588  37.392   0.946  12.551
39989W        W10589  12.765  11.631   0.508
39990W        W10590  21.581  13.610   2.741
39991W        W10591  29.652   6.150   1.885
39992W        W10592  19.676  24.263   1.407
39993W        W10593  32.084   5.905   4.116
39994W        W10594  36.415  15.808   2.596
39995W        W10595  24.679  38.300  13.326
39996W        W10596   5.078  13.647   1.345
39997W        W10597  33.098   9.910  12.010
39998W        W10598  27.607   4.279   4.369
39999W        W10599  17.408  27.006  13.443
40000W        W10600  35.534  22.350   1.343
40001W        W10601  20.120  41.918  10.761
40002W        W10602  16.183   2.664  13.401
40003W        W10603  20.729  40.370  12.964
40004W        W10604   7.621  26.737  10.751
40005W        W10605  24.242   7.397  11.933
40006W        W10606  35.357  40.783  13.529
40007W        W10607  21.852  20.536  14.318
40008W        W10608   6.437  40.935  12.219
40009W        W10609  34.769  26.564   1.286
40010W        W10610   4.406  11.393  11.009
40011W        W10611  32.178  30.162  11.079
40012W        W10612  17.736  41.719  12.922
40013W        W10613  25.653  35.951   4.591
40014W        W10614  31.434   0.305   0.409
40015W        W10615  44.802   3.868   1.277
40016W        W10616  21.326  23.965  13.380
40017W        W10617  26.895  28.589  13.926
40018W        W10618  29.983  13.355  10.994
40019W        W10619  20.563  17.065  12.133
40020W        W10620  24.966  36.204  12.117
40021W        W10621  14.824   8.244  14.493
40022W        W10622  17.196  18.107   4.137
40023W        W10623   3.847   0.275  13.298
40024W        W10624  11.218  21.628   2.283
40025W        W10625  13.044   7.723  14.487
40026W        W10626  20.775  40.443   4.301
40027W        W10627  43.011  12.756   1.962
40028W        W10628  38.420  43.777  12.456
40029W        W10629  19.578  21.304  13.891
40030W        W10630  24.050   1.065   2.378
40031W        W10631  19.500  14.621  10.721
40032W        W10632   1.816  30.061   0.794
40033W        W10633  23.797  28.322  13.003
40034W        W10634  30.489   5.714   4.114
40035W        W10635   3.595  26.187   2.361
40036W        W10636  31.147  38.609  13.924
40037W        W10637  40.463  16.190  12.658
40038W        W10638  27.199  22.277   2.495
40039W        W10639  22.520  10.244  13.597
40040W        W10640  35.894  10.266  14.820
40041W        W10641  13.189  27.595  12.488
40042W        W10642  31.441  24.506  13.463
40043W        W10643  38.551  32.599   4.920
40044W        W10644  31.371  41.031  13.432
40045W        W10645   7.785  44.567   2.315
40046W        W10646   3.780  11.719  13.602
40047W        W10647  32.567  18.830   4.457
40048W        W10648  34.842  11.600  13.055
40049W        W10649  32.203  14.361   3.411
40050W        W10650   5.098  37.426  10.418
40051W        W10651  20.081  28.562  12.398
40052W        W10652  11.127  31.983   0.817
40053W        W10653   7.202   2.049   2.162
40054W        W10654   0.530  36.883  14.009
40055W        W10655  20.275  42.752   5.000
40056W        W10656  17.830   5.751   0.558
40057W        W10657  20.548   2.814  10.905
40058W        W10658   3.430   4.996  12.085
40059W        W10659   3.630  30.163  12.428
40060W        W10660  16.944  36.778   0.304
40061W        W10661  42.537   3.029   4.179
40062W        W10662  22.665   2.966   0.915
40063W        W10663  15.397  33.774  14.534
40064W        W10664   2.202  35.243  11.120
40065W        W10665  32.112  32.605  14.905
40066W        W10666  33.503  42.518   1.048
40067W        W10667  35.940  13.518   4.830
40068W        W10668  15.119  37.027  10.754
40069W        W10669  18.267  26.059  13.071
40070W        W10670  33.515  42.261  11.440
40071W        W10671   4.729  43.919  10.513
40072W        W10672  21.363  23.534  12.460
40073W        W10673  15.434  37.294   1.067
40074W        W10674  19.270  35.413   3.600
40075W        W10675  17.293  24.485  12.417
40076W        W10676  38.973  13.402  11.945
40077W        W10677  37.295  42.814   2.308
40078W        W10678  29.480  16.688   0.004
40079W        W10679   9.293  38.092  12.640
40080W        W10680   9.770   7.608  12.520
40081W        W10681  37.539   9.428   3.850
40082W        W10682   5.292   4.293   4.872
40083W        W10683  20.097   9.071  14.096
40084W        W10684  31.709  11.666   0.993
40085W        W10685  26.472  16.026  14.574
40086W        W10686  16.911   3.181  12.260
40087W        W10687  25.518  29.868  12.513
40088W        W10688  36.820  29.176   1.802
40089W        W10689   6.358  23.878  10.915
40090W        W10690  44.197  27.078   2.851
40091W        W10691  24.233   5.369   0.847
40092W        W10692  26.034   8.643  13.971
40093W        W10693  33.945  26.119   4.098
40094W        W10694  25.982  18.192  14.339
40095W        W10695   6.243   8.108   0.911
40096W        W10696   7.405  13.381  14.493
40097W        W10697  13.391  31.749   2.727
40098W        W10698  15.110  31.282  14.116
40099W        W10699  38.079   5.153   0.054
40100W        W10700  22.513  25.238   4.728
40101W        W10701  10.183  40.620   3.786
40102W        W10702   3.184  40.392   4.459
40103W        W10703  11.670  21.935  10.497
40104W        W10704  22.131  29.976  13.867
40105W        W10705  25.069  36.633   4.837
40106W        W10706  16.932  27.199   3.551
40107W        W10707  42.542  27.395   4.666
40108W        W10708   9.131  37.333  11.541
40109W        W10709   5.654  16.491   3.643
40110W        W10710   5.380  22.506   0.922
40111W        W10711  10.040   3.132   4.614
40112W        W10712  40.427  34.164  14.844
40113W        W10713  35.022  15.002   0.426
40114W        W10714  27.713  27.612  14.302
40115W        W10715  25.329  34.862   1.960
40116W        W10716   9.634  14.129  13.205
40117W        W10717  41.249  29.438   2.011
40118W        W10718   6.687   3.302   0.460
40119W        W10719  22.415  34.201   3.161
40120W        W10720  13.343  28.549  11.047
40121W        W10721  29.652  25.825   1.379
40122W        W10722   8.158  25.573   1.234
40123W        W10723  33.614  41.863   2.748
40124W        W10724  29.913   5.337  14.954
40125W        W10725   0.494  44.527   3.261
40126W        W10726  35.811  30.684  13.948
40127W        W10727  22.866   4.755   2.253
40128W        W10728  15.558  32.073   3.147
40129W        W10729  28.021  11.129  13.157
40130W        W10730   7.339  18.603   1.593
40131W        W10731  41.565  43.905   1.264
40132W        W10732   0.047  13.679  11.616
40133W        W10733  38.127  12.761  13.375
40134W        W10734  21.025  27.567   4.074
40135W        W10735  11.661  11.095   1.846
40136W        W10736  16.386   9.093   4.016
40137W        W10737  41.824   7.847  12.625
40138W        W10738  10.070  20.469  10.960
40139W        W10739  28.230  31.496   4.173
40140W        W10740  19.667   2.288  14.580
40141W        W10741   1.828  25.424   2.205
40142W        W10742  40.179  11.350  14.075
40143W        W10743  22.836  32.095   3.744
40144W        W10744  25.619  19.194   4.152
40145W        W10745  27.619   9.301   2.679
40146W        W10746  35.676  40.539  13.988
40147W        W10747  37.867   4.816   4.249
40148W        W10748  27.640   3.645  11.904
40149W        W10749   7.905  35.701   3.319
40150W        W10750   7.385  16.282  11.128
40151W        W10751  10.351  18.133  10.268
40152W        W10752  43.528   2.693   4.205
40153W        W10753  35.341  28.932  13.036
40154W        W10754  43.888  42.439   0.763
40155W        W10755  17.176  21.029  14.168
40156W        W10756  32.463  16.309  11.658
40157W        W10757  38.453   6.198  10.768
40158W        W10758  14.704  30.046  11.001
40159W        W10759  12.224  35.454   3.646
40160W        W10760  32.175   7.837  14.460
40161W        W10761  14.258   6.624   2.837
40162W        W10762  20.224  35.345  13.843
40163W        W10763  13.800  11.577  10.659
40164W        W10764  27.048  21.938  12.444
40165W        W10765  11.581   3.916   0.388
40166W        W10766  43.514  27.560  12.822
40167W        W10767  13.234   4.272  12.683
40168W        W10768   3.096  18.705   0.806
40169W        W10769  22.527  17.358   4.562
40170W        W10770   7.083   9.147   2.784
40171W        W10771   1.003  13.855  11.646
40172W        W10772  11.627   5.256  12.041
40173W        W10773  40.517  14.515   3.792
40174W        W10774  36.993  16.997  11.633
40175W        W10775  36.412   5.722  11.025
40176W        W10776   5.354  16.534   1.280
40177W        W10777  18.721  35.363  13.058
40178W        W10778  19.648  39.751  11.531
40179W        W10779  21.507  13.318   3.453
40180W        W10780  18.649  43.778   1.308
40181W        W10781  35.611  30.225   4.384
40182W        W10782  15.057  15.095  14.815
40183W        W10783  33.555  22.900  14.567
40184W        W10784  43.352  28.284   1.413
40185W        W10785  39.320  36.716  11.173
40186W        W10786  30.066  25.209   3.680
40187W        W10787  18.086  14.927   4.580
40188W        W10788   3.117  25.956   2.382
40189W        W10789   9.655  43.316   0.351
40190W        W10790  30.254  29.148  12.982
40191W        W10791  28.344  28.098   4.599
40192W        W10792  29.373   4.827   2.285
40193W        W10793  16.385  36.914  12.105
40194W        W10794  29.004  24.228   3.410
40195W        W10795  34.645  12.733  11.621
40196W        W10796  11.191  20.176  11.895
40197W        W10797  13.244  15.748  10.548
40198W        W10798  18.007  30.232   1.187
40199W        W10799  20.281  30.598  11.052
40200W        W10800   7.911  13.120  13.471
40201W        W10801   2.303  42.174  12.115
40202W        W10802  18.727  21.508  11.955
40203W        W10803  11.915  39.522   4.187
40204W        W10804  32.607  37.159  13.897
40205W        W10805  22.632  28.953   3.176
40206W        W10806   0.297   4.522  14.276
40207W        W10807  19.437  40.505  14.907
40208W        W10808  13.527  40.371   4.481
40209W        W10809  21.809  24.834   3.704
40210W        W10810  12.928  39.217   0.298
40211W        W10811  37.232  22.507   1.763
40212W        W10812  41.031   8.185  13.807
40213W        W10813  15.170  11.322   1.439
40214W        W10814  36.932  36.386  14.903
40215W        W10815  12.195  23.094   3.742
40216W        W10816  14.970  19.103   0.721
40217W        W10817  44.167  37.065  11.537
40218W        W10818   5.274  44.280  12.156
40219W        W10819  12.262  42.896  14.523
40220W        W10820  15.207  15.414   4.814
40221W        W10821  24.504   8.615  12.907
40222W        W10822  27.402   8.576   3.927
40223W        W10823  10.721  15.280  12.306
40224W        W10824  21.068   7.234   5.475
40225W        W10825  31.094  17.554   1.942
40226W        W10826  28.619  15.715   9.922
40227W        W10827  32.968  17.752  10.990
40228W        W10828  32.085  18.770  11.866
40229W        W10829  36.212  12.538  13.854
40230W        W10830  26.076  27.601   3.699
40231W        W10831   3.232  38.804  10.674
40232W        W10832  22.300  16.150   3.397
40233W        W10833  22.934  22.229   1.008
40234W        W10834  43.286  25.596   0.057
40235W        W10835   8.379  12.825   1.714
40236W        W10836  40.315  32.207   4.174
40237W        W10837  37.309  12.826  14.071
40238W        W10838  14.195  26.882  11.580
40239W        W10839  32.634  39.737  11.042
40240W        W10840  20.521  35.186   4.375
40241W        W10841  44.787  42.837   4.238
40242W        W10842  39.898  32.743   3.210
40243W        W10843  26.204   3.440   1.202
40244W        W10844  29.379  43.833  11.447
40245W        W10845  35.356  26.449  13.975
40246W        W10846  26.476  42.627  11.130
40247W        W10847  42.115  15.094  11.759
40248W        W10848  41.980   7.346  10.497
40249W        W10849  10.263  20.344   0.929
40250W        W10850  44.238  22.797  11.428
40251W        W10851  12.362  29.551   3.414
40252W        W10852   8.344   8.868  10.607
40253W        W10853  29.978   3.514   1.514
40254W        W10854  15.692  10.171  10.543
40255W        W10855  43.358  18.236   0.044
40256W        W10856  41.368  33.930   0.785
40257W        W10857  14.271   2.209  13.063
40258W        W10858  26.382  33.792  14.338
40259W        W10859   3.828  23.223  13.913
40260W        W10860  13.134  27.120  14.837
40261W        W10861   4.869  32.589  13.439
40262W        W10862   9.446  32.974   2.334
40263W        W10863   6.360  20.973   4.534
40264W        W10864  22.469  18.141  14.348
40265W        W10865  34.685  41.368  11.111
40266W        W10866  36.970  12.617  12.100
40267W        W10867   5.428  24.547  14.295
40268W        W10868  28.228   6.758  13.911
40269W        W10869  13.324  35.393  12.618
40270W        W10870   3.156  19.593   4.167
40271W        W10871  13.227  44.236  14.375
40272W        W10872  28.071   2.887  13.033
40273W        W10873  40.624  32.091  13.492
40274W        W10874  32.386  13.738   0.306
40275W        W10875  36.513  11.695  11.443
40276W        W10876  12.208  17.089  11.506
40277W        W10877  16.362  34.937   2.327
40278W        W10878  42.456  26.141   2.701
40279W        W10879   0.902  16.037   4.257
40280W        W10880  22.489  28.228   4.618
40281W        W10881  18.795  38.969  10.782
40282W        W10882  26.069  29.009  14.031
40283W        W10883  35.795   0.994   4.648
40284W        W10884  27.116  26.860  14.343
40285W        W10885   0.296  29.657   1.361
40286W        W10886  24.894   3.845  11.541
40287W        W10887   5.355  25.242   3.507
40288W        W10888  43.663  23.726  12.004
40289W        W10889  41.697  40.441   0.590
40290W        W10890   7.355   2.947  13.402
40291W        W10891   1.987  27.721   1.364
40292W        W10892   2.892  26.595   3.746
40293W        W10893  17.843  29.137   1.228
40294W        W10894   6.856  28.931   4.307
40295W        W10895   5.260   7.665  12.317
40296W        W10896   9.333  24.599  14.430
40297W        W10897  34.279   0.910  12.804
40298W        W10898  37.919  14.102   2.736
40299W        W10899  43.933  18.475  10.579
40300W        W10900   3.498   9.910   4.095
40301W        W10901  11.250  37.717   3.648
40302W        W10902  39.287  41.435  12.467
40303W        W10903   8.862   7.234  11.136
40304W        W10904  25.184  31.609   0.483
40305W        W10905  26.267  35.589  11.434
40306W        W10906  27.477  21.685  12.204
40307W        W10907  32.137  20.499   3.680
40308W        W10908  14.639  21.239  12.510
40309W        W10909  39.280   3.972   2.589
40310W        W10910  23.501  23.734  12.914
40311W        W10911  37.110  42.077   0.961
40312W        W10912  35.409   0.311   1.470
40313W        W10913  15.386   2.372   4.177
40314W        W10914   8.735   4.810   2.052
40315W        W10915  13.695  14.427   3.196
40316W        W10916  18.328  16.072  11.017
40317W        W10917  26.231  17.805   2.346
40318W        W10918   0.435  43.492   1.005
40319W        W10919  11.036  17.549  13.790
40320W        W10920  37.460  38.781  12.009
40321W        W10921  16.930  28.053  14.550
40322W        W10922  44.072  34.721   1.812
40323W        W10923   0.708  23.076   3.186
40324W        W10924  31.392   9.115   3.682
40325W        W10925  10.644   2.952   1.877
40326W        W10926  21.425   3.027  11.035
40327W        W10927  15.641  36.076   3.746
40328W        W10928  15.225  35.909  12.113
40329W        W10929  24.113   1.711   1.041
40330W        W10930   7.642  30.192   2.582
40331W        W10931  13.646  26.998  13.050
40332W        W10932   6.992  33.089  12.996
40333W        W10933  28.102  43.743  12.737
40334W        W10934  25.080  24.621   3.305
40335W        W10935  23.698   4.335   1.337
40336W        W10936  24.470  31.859   1.442
40337W        W10937  34.414  37.043  14.343
40338W        W10938   8.689   0.862   1.916
40339W        W10939  11.676  32.541   0.717
40340W        W10940  26.721  39.799  13.769
40341W        W10941  22.233   3.880  11.660
40342W        W10942  25.928  23.755  14.456
40343W        W10943  22.734   7.769  12.503
40344W        W10944  27.684  41.380  11.762
40345W        W10945  28.269  36.320  11.019
40346W        W10946   7.734  41.314  12.884
40347W        W10947  40.447   7.226   1.777
40348W        W10948  16.705  10.892  13.334
40349W        W10949  32.496  14.332   0.852
40350W        W10950  42.562  21.004  14.119
40351W        W10951  44.310  11.046   1.430
40352W        W10952  33.847  16.143  14.434
40353W        W10953  37.918  28.224  13.987
40354W        W10954  38.454  32.516   1.756
40355W        W10955  19.520  23.570   2.180
40356W        W10956  42.685  24.537  14.841
40357W        W10957  23.208  10.982  12.888
40358W        W10958  25.312  39.601   3.025
40359W        W10959  25.174  22.896  12.527
40360W        W10960  43.809  14.837   4.197
40361W        W10961  24.697   0.600   4.154
40362W        W10962  33.732  34.121  13.513
40363W        W10963  42.354   7.923   1.304
40364W        W10964  37.021  14.533   2.382
40365W        W10965  40.015  36.787   2.294
40366W        W10966   3.778  22.452   2.954
40367W        W10967   9.727  43.035  12.825
40368W        W10968  27.434   1.480   3.673
40369W        W10969  42.980  36.042  14.982
40370W        W10970   5.269  24.640  12.375
40371W        W10971  42.673  15.524   3.717
40372W        W10972   2.475  35.417   3.789
40373W        W10973   7.165  36.941  11.228
40374W        W10974  30.047  22.495  11.311
40375W        W10975   3.845  18.522  12.071
40376W        W10976  42.212  10.348  13.808
40377W        W10977  40.303  31.905   3.749
40378W        W10978  29.508  19.355  11.149
40379W        W10979  32.747  27.578   1.412
40380W        W10980  33.837   3.373   4.663
40381W        W10981  10.185   5.871   0.193
40382W        W10982  42.454  40.921  14.921
40383W        W10983  10.263  32.048   2.799
40384W        W10984   1.675  44.360   4.100
40385W        W10985  15.166   4.343   1.055
40386W        W10986  15.930  25.836  10.729
40387W        W10987   2.460  12.701  13.926
40388W        W10988  36.391  21.247   1.242
40389W        W10989  28.653  19.327  11.603
40390W        W10990  29.458  25.481  12.615
40391W        W10991  37.465  10.097   2.670
40392W        W10992  15.043  38.449  13.029
40393W        W10993  34.134  28.137  11.626
40394W        W10994   4.612  39.796   4.074
40395W        W10995   5.299  13.843   4.449
40396W        W10996  44.866  41.818   1.881
40397W        W10997  20.678  26.841   3.605
40398W        W10998  14.314  25.385   0.163
40399W        W10999  11.858  44.521  12.776
40400W        W11000   9.082  32.982   1.452
40401W        W11001  27.108  13.261   1.427
40402W        W11002  34.956  26.452   4.174
40403W        W11003   6.096  33.086   2.584
40404W        W11004  25.115  12.731  14.631
40405W        W11005  30.593   3.806  12.817
40406W        W11006  13.598  33.994   4.373
40407W        W11007  21.116  13.041   2.276
40408W        W11008  33.880   1.122   2.733
40409W        W11009  38.099  21.555  12.496
40410W        W11010  25.370  37.905  10.409
40411W        W11011   7.943  36.101   1.431
40412W        W11012  12.210  10.807   5.085
40413W        W11013  20.956  35.023   3.669
40414W        W11014  36.901   2.931  11.387
40415W        W11015  40.637  39.445  11.153
40416W        W11016   0.444  44.248   3.680
40417W        W11017  29.245  11.789  10.289
40418W        W11018   3.175  26.679  14.888
40419W        W11019  28.133  16.594   2.034
40420W        W11020  12.327  27.453   2.629
40421W        W11021  18.382  15.320   4.772
40422W        W11022   6.903  26.439   0.753
40423W        W11023  13.506   4.825  13.894
40424W        W11024  39.548  15.177   3.573
40425W        W11025  16.070   2.353   0.403
40426W        W11026  34.353   1.836   3.345
40427W        W11027  42.017  37.870   0.312
40428W        W11028   4.932  43.039  13.545
40429W        W11029  12.331  11.778  11.611
40430W        W11030  42.039  21.284  13.052
40431W        W11031  29.858  12.293   3.102
40432W        W11032  17.620  26.199  12.673
40433W        W11033  12.289  36.031   2.870
40434W        W11034  34.819  44.774  14.922
40435W        W11035  31.570   0.793  13.328
40436W        W11036  34.976  25.581  12.429
40437W        W11037  39.511   5.893   4.743
40438W        W11038   1.744  43.328   4.218
40439W        W11039  40.919  40.165  14.656
40440W        W11040  27.060  16.014   4.258
40441W        W11041  31.509  18.803  14.268
40442W        W11042  23.055  24.193   3.694
40443W        W11043   3.683  25.709  10.522
40444W        W11044  13.165  25.169   1.919
40445W        W11045  32.060  11.704  13.875
40446W        W11046   7.115  34.852   1.299
40447W        W11047  12.493   8.248  13.356
40448W        W11048  30.564  44.832  14.849
40449W        W11049  21.285  38.902  12.461
40450W        W11050   1.046  20.710   0.523
40451W        W11051   2.646  17.813  14.413
40452W        W11052   5.912  21.123   3.234
40453W        W11053  39.623   3.896  11.294
40454W        W11054  36.343  32.934  13.475
40455W        W11055  19.238  44.464   1.012
40456W        W11056  44.288   2.895  12.956
40457W        W11057  42.289  40.233   3.199
40458W        W11058  42.268  28.240  14.353
40459W        W11059   1.758  40.516  14.767
40460W        W11060  26.200  15.327   3.897
40461W        W11061  36.383  16.341  11.597
40462W        W11062  44.993  30.470   0.334
40463W        W11063   4.235   9.440  11.643
40464W        W11064  22.331  40.837   3.839
40465W        W11065  25.855  23.601   2.622
40466W        W11066  29.451  15.664   2.600
40467W        W11067  19.236  24.548   4.845
40468W        W11068  44.705  42.296  13.039
40469W        W11069  36.868  10.467   4.075
40470W        W11070  15.695  43.764   0.804
40471W        W11071  40.347  29.637   1.775
40472W        W11072  18.577  24.101   2.274
40473W        W11073  23.641   7.660   0.907
40474W        W11074  41.283   2.790   2.289
40475W        W11075  11.374  17.494   3.052
40476W        W11076  10.795  13.328  13.357
40477W        W11077  11.045  32.604  11.953
40478W        W11078   5.487   5.223  12.074
40479W        W11079   8.318  38.758   3.770
40480W        W11080  27.185  35.969   1.703
40481W        W11081   6.079  40.539  12.339
40482W        W11082  11.347  29.900   2.248
40483W        W11083  13.232  41.007   1.403
40484W        W11084   4.765  30.637  13.384
40485W        W11085  11.189  27.746   1.917
40486W        W11086  15.875  15.304   3.652
40487W        W11087  43.850  44.788   4.329
40488W        W11088  11.525  17.221   1.254
40489W        W11089  24.997  16.768   2.782
40490W        W11090   9.351  13.151  13.053
40491W        W11091  29.551  37.369  10.571
40492W        W11092  19.180  16.833   2.338
40493W        W11093  40.092  18.586   2.622
40494W        W11094  39.874  20.615   0.792
40495W        W11095  42.043   7.145  13.900
40496W        W11096  37.551  25.084   4.707
40497W        W11097  43.863  36.038  11.462
40498W        W11098  43.490  10.441  14.718
40499W        W11099  29.538   3.053   0.120
40500W        W11100  32.453  34.085  14.870
40501W        W11101  40.035  18.055   0.948
40502W        W11102  29.276  44.687   2.081
40503W        W11103  11.827   1.861  10.551
40504W        W11104  28.579  41.110   1.892
40505W        W11105  36.441  31.430   0.705
40506W        W11106  28.175  41.210  14.305
40507W        W11107  36.138  18.687  10.767
40508W        W11108   9.127  18.314   1.125
40509W        W11109  36.091  27.181   2.915
40510W        W11110  41.583  40.482  11.137
40511W        W11111  23.130  21.887  10.764
40512W        W11112  44.983  27.123   3.608
40513W        W11113  43.984  32.437   4.899
40514W        W11114  42.986  15.525   4.131
40515W        W11115  40.847  28.140   0.355
40516W        W11116   8.782  44.785  12.081
40517W        W11117   3.741  30.495  13.484
40518W        W11118  22.282  11.854   2.719
40519W        W11119   2.734  23.667  13.033
40520W        W11120  27.924  24.556  11.207
40521W        W11121  12.136   1.935   2.636
40522W        W11122  41.864  36.533  14.894
40523W        W11123   6.507  28.441   0.935
40524W        W11124  28.976  15.654  12.550
40525W        W11125   3.831   6.419  11.135
40526W        W11126  42.549   5.339  11.618
40527W        W11127  13.850  19.651  12.818
40528W        W11128  10.885   1.320   4.475
40529W        W11129  27.737  35.880   5.010
40530W        W11130  32.145   3.935  12.208
40531W        W11131  38.301  33.455  12.079
40532W        W11132  10.798   0.437  11.730
40533W        W11133  21.537  41.305  14.921
40534W        W11134  29.468  14.014   3.501
40535W        W11135  33.875   9.066   5.051
40536W        W11136  22.241  43.811   0.335
40537W        W11137  22.975   0.678   4.546
40538W        W11138  32.907   4.147  11.954
40539W        W11139  14.133  27.099  12.913
40540W        W11140  17.583  25.120   2.334
40541W        W11141   7.239  34.847   4.684
40542W        W11142  16.573   3.692  13.081
40543W        W11143  30.428  27.529   0.764
40544W        W11144  23.663   8.832  12.581
40545W        W11145   1.716  42.809   4.225
40546W        W11146  15.549  23.086  14.777
40547W        W11147  29.595  42.425  10.952
40548W        W11148  18.855  10.151   0.712
40549W        W11149  18.270  36.139  13.683
40550W        W11150   6.769  31.620  11.202
40551W        W11151  41.105  31.875  11.652
40552W        W11152  29.637  33.154  10.849
40553W        W11153  26.671  24.734   0.053
40554W        W11154  18.768  11.179   0.954
40555W        W11155   9.069  11.820  11.006
40556W        W11156  16.291  16.010   4.794
40557W        W11157  25.198  22.540   3.300
40558W        W11158   3.038  15.633   0.417
40559W        W11159  30.587  17.034   0.440
40560W        W11160  40.087  26.406   2.917
40561W        W11161  22.974  33.549   4.534
40562W        W11162   2.758  38.590  10.652
40563W        W11163  32.561   8.015   3.743
40564W        W11164   8.407  29.221   0.476
40565W        W11165  26.564  21.480  11.565
40566W        W11166  14.039  22.730  12.069
40567W        W11167  33.585  12.782  13.813
40568W        W11168  24.646  22.049   4.463
40569W        W11169  33.508  13.520  11.156
40570W        W11170   8.387  44.862  12.936
40571W        W11171  42.763   9.000  11.163
40572W        W11172   1.026  39.305  11.054
40573W        W11173  41.293  30.972  11.557
40574W        W11174   9.900   1.869   4.214
40575W        W11175  22.236  42.350   4.606
40576W        W11176  12.389  19.241  14.841
40577W        W11177  14.296  27.867  14.846
40578W        W11178  28.939  26.624   2.041
40579W        W11179  27.962   1.798  11.601
40580W        W11180  40.265   1.517  12.415
40581W        W11181  18.711  14.668   1.894
40582W        W11182  44.478   9.734  12.128
40583W        W11183  42.643  39.006   2.822
40584W        W11184  14.886   7.815   4.889
40585W        W11185  19.796  44.919   1.921
40586W        W11186   1.505  14.410   4.622
40587W        W11187  15.630  25.092   4.064
40588W        W11188  24.586  11.200   3.310
40589W        W11189  17.275  43.298   1.040
40590W        W11190  12.357   5.459   1.518
40591W        W11191   8.771  37.270  11.093
40592W        W11192   5.778  26.752  14.937
40593W        W11193  34.110  35.061  11.350
40594W        W11194  39.110  44.017  14.582
40595W        W11195   8.856  25.394  12.528
40596W        W11196  20.546  12.427  14.484
40597W        W11197  13.196  18.677   3.557
40598W        W11198   0.518  38.939   3.639
40599W        W11199  37.979  40.552   3.614
40600W        W11200  40.872  25.182  14.221
40601W        W11201  34.008  21.037  12.511
40602W        W11202  16.807  22.310  11.925
40603W        W11203  27.161   7.856  13.789
40604W        W11204  23.147   6.261   0.396
40605W        W11205  40.014  26.957  13.879
40606W        W11206  10.120  28.137   4.945
40607W        W11207   9.544  23.991  11.651
40608W        W11208  40.259  40.522   1.705
40609W        W11209  11.298  22.090   4.556
40610W        W11210   5.489  12.207   0.421
40611W        W11211   2.219   7.594  13.009
40612W        W11212   7.878   9.181  13.947
40613W        W11213   3.276  26.773  12.537
40614W        W11214  30.982  23.051   3.119
40615W        W11215  40.535  41.016   4.616
40616W        W11216  12.422   8.479   1.370
40617W        W11217  18.976   3.785  10.861
40618W        W11218  26.174  20.641   3.937
40619W        W11219  33.613  23.141   0.015
40620W        W11220  17.253  22.135  14.932
40621W        W11221   5.926  44.356   1.265
40622W        W11222  11.256   5.673  13.043
40623W        W11223   6.640   0.153   0.228
40624W        W11224  25.769  30.525  10.274
40625W        W11225  41.280   2.385   5.045
40626W        W11226  43.698   6.903  11.085
40627W        W11227  11.763  16.558   3.117
40628W        W11228  25.135  27.190   1.429
40629W        W11229   8.317  44.693   0.314
40630W        W11230  39.862  24.793  13.587
40631W        W11231  15.755   3.355   1.413
40632W        W11232   1.698  13.340  13.026
40633W        W11233  35.552  34.093   3.736
40634W        W11234  22.468   6.016  12.452
40635W        W11235  25.718  23.491   0.908
40636W        W11236  19.468   4.226  12.963
40637W        W11237  39.018  38.302   0.185
40638W        W11238  18.075   6.817  10.743
40639W        W11239   5.576  28.471  11.548
40640W        W11240  43.394  17.223  10.239
40641W        W11241  18.220  20.302  12.335
40642W        W11242  24.367  37.474   2.690
40643W        W11243  32.245  25.779   4.277
40644W        W11244  11.380  38.476   1.305
40645W        W11245  23.633  26.180  14.099
40646W        W11246  37.981   9.276  14.817
40647W        W11247  39.353  14.550   1.817
40648W        W11248  24.743  11.572  13.709
40649W        W11249  16.797  15.282   0.180
40650W        W11250  13.109  42.866   2.875
40651W        W11251   5.818  30.141   0.284
40652W        W11252  30.987  13.573  12.400
40653W        W11253  22.894  20.452   2.859
40654W        W11254  22.670   8.184   2.668
40655W        W11255  10.120  15.407  10.681
40656W        W11256  34.428   7.232  12.535
40657W        W11257  19.836   8.664   4.911
40658W        W11258  32.050  38.534   0.880
40659W        W11259  37.456  38.914   4.655
40660W        W11260  28.935  32.093  11.540
40661W        W11261   3.748  18.289   1.260
40662W        W11262  43.306   6.940   4.699
40663W        W11263  18.280  38.598   1.398
40664W        W11264  34.559  41.276  14.866
40665W        W11265  18.004  28.209  12.735
40666W        W11266  15.641  36.103   1.842
40667W        W11267   5.274   2.512   3.111
40668W        W11268  32.351  17.266  14.039
40669W        W11269   0.857  29.458   2.403
40670W        W11270   3.462  41.833   2.687
40671W        W11271  34.489  44.432   0.254
40672W        W11272  28.072   0.209   0.814
40673W        W11273  33.812  43.830  12.480
40674W        W11274   0.123  22.693  12.361
40675W        W11275   6.041  25.298  12.452
40676W        W11276  42.995   0.065  13.723
40677W        W11277  44.235  18.315  12.565
40678W        W11278   2.264  10.905  13.010
40679W        W11279  24.246  17.402   0.359
40680W        W11280  20.889   7.619   1.389
40681W        W11281  31.403  20.678   3.200
40682W        W11282  18.836  43.817  13.400
40683W        W11283   7.729  23.581   2.504
40684W        W11284  36.618  33.180  10.625
40685W        W11285  13.551   0.744   1.297
40686W        W11286  23.454   1.469  11.498
40687W        W11287  15.318   2.019   1.433
40688W        W11288   0.837  24.586   4.201
40689W        W11289  40.066  35.882   9.887
40690W        W11290  37.549  33.973  11.442
40691W        W11291  34.185  34.402   3.703
40692W        W11292  19.354  18.682  13.049
40693W        W11293  28.718   2.700   4.464
40694W        W11294  15.026  16.784  13.377
40695W        W11295  30.642   4.369   3.171
40696W        W11296  26.957  42.318  10.674
40697W        W11297  27.321   7.682   4.428
40698W        W11298  12.188  15.313   4.131
40699W        W11299   2.773  23.500   3.659
40700W        W11300  29.696  34.066   0.410
40701W        W11301  20.290  37.911   3.208
40702W        W11302  19.263  17.661  11.921
40703W        W11303  37.422  20.101  12.327
40704W        W11304  40.843  21.030   2.633
40705W        W11305  23.006  31.477  12.384
40706W        W11306   1.746   2.738   4.594
40707W        W11307  21.231  27.281  10.858
40708W        W11308   5.177  12.797   1.789
40709W        W11309  32.386  19.079   1.857
40710W        W11310   9.802   1.981   0.366
40711W        W11311  16.086   9.772  13.767
40712W        W11312  12.343  12.604  11.206
40713W        W11313  43.500  19.194  12.553
40714W        W11314   1.812  40.047   2.396
40715W        W11315  21.427  43.340   1.156
40716W        W11316   5.704  15.802  14.074
40717W        W11317  37.458  15.100  13.688
40718W        W11318  13.748  41.787  12.077
40719W        W11319  40.537  43.411  14.715
40720W        W11320  38.061  34.855   1.279
40721W        W11321  27.488   3.019   3.339
40722W        W11322   4.245  37.141  12.881
40723W        W11323   0.918  33.465  12.571
40724W        W11324  14.739  20.672  11.127
40725W        W11325  15.403  44.481  10.982
40726W        W11326   4.668   5.175  12.477
40727W        W11327  42.814  13.443  11.635
40728W        W11328  29.079  31.378   0.386
40729W        W11329  43.348  10.782   0.583
40730W        W11330  11.147  38.866  13.486
40731W        W11331  34.575  21.925  14.261
40732W        W11332   5.172  18.613   1.304
40733W        W11333   2.312   5.884   2.933
40734W        W11334  30.689   7.273  12.372
40735W        W11335  14.023  25.783   3.272
40736W        W11336   1.424   3.024   3.318
40737W        W11337  37.664  27.506  14.529
40738W        W11338  11.746  40.844   0.040
40739W        W11339   3.249   9.082   3.229
40740W        W11340   3.499  32.211   0.212
40741W        W11341  10.718   3.524  13.412
40742W        W11342  40.943   9.534  12.154
40743W        W11343  44.929  42.757   1.304
40744W        W11344   6.560  43.821   3.220
40745W        W11345  26.133  11.698  14.326
40746W        W11346  33.475  10.203   1.743
40747W        W11347  34.079  17.369   0.821
40748W        W11348  15.410  41.797   3.961
40749W        W11349  13.259  34.437  13.133
40750W        W11350  27.663  43.528  11.136
40751W        W11351  33.165  44.424  11.967
40752W        W11352  17.351  17.108   2.299
40753W        W11353  20.443   7.966  12.044
40754W        W11354  23.024  22.751   2.916
40755W        W11355  27.140  44.339   3.804
40756W        W11356  36.039  28.483   2.219
40757W        W11357  27.501  28.682  10.525
40758W        W11358  31.153  28.686  12.773
40759W        W11359  19.494  17.225   5.030
40760W        W11360  28.759  21.822   0.885
40761W        W11361  19.790  36.694   1.750
40762W        W11362  26.079   5.483   3.261
40763W        W11363  32.540  24.008   2.676
40764W        W11364  42.468  37.774  13.961
40765W        W11365   4.786  24.678   0.832
40766W        W11366   3.484  31.908  10.866
40767W        W11367  44.838  40.656  12.148
40768W        W11368  13.623   4.933   4.278
40769W        W11369   6.381  13.656  13.449
40770W        W11370  39.962  14.506   1.841
40771W        W11371  18.899  39.081  13.194
40772W        W11372  31.051  27.481   2.832
40773W        W11373  12.707  20.561  12.824
40774W        W11374  22.003  25.589   1.806
40775W        W11375  30.007  12.718   4.660
40776W        W11376  34.364  16.994  14.834
40777W        W11377  35.272  13.269   3.254
40778W        W11378   0.242   6.921   1.860
40779W        W11379  14.848  17.750  13.468
40780W        W11380  21.467   5.984   4.895
40781W        W11381  21.691   8.408  11.628
40782W        W11382   5.762  28.953  11.395
40783W        W11383  14.329   7.740   0.951
40784W        W11384  11.784   7.651   3.838
40785W        W11385   6.792  18.115  11.576
40786W        W11386  14.496  10.787  10.911
40787W        W11387  14.206  21.388  14.754
40788W        W11388  15.904  16.211   2.732
40789W        W11389  25.732  31.468   1.215
40790W        W11390  23.012  19.526   0.491
40791W        W11391  17.467  13.339  11.957
40792W        W11392  43.324   8.968   4.654
40793W        W11393  33.882  33.410   3.853
40794W        W11394  20.286  20.104  14.115
40795W        W11395  39.876  21.584  14.565
40796W        W11396  15.079  26.905  12.846
40797W        W11397   7.759  17.892   3.858
40798W        W11398  21.651  21.254   1.183
40799W        W11399  10.462  32.528   3.001
40800W        W11400   8.803  32.946   1.898
40801W        W11401  17.722  24.214   0.504
40802W        W11402  39.854  44.717   0.947
40803W        W11403   1.817  22.549   2.285
40804W        W11404  16.511  30.972  12.127
40805W        W11405  10.634   5.771  14.044
40806W        W11406   2.225  37.481   1.670
40807W        W11407   2.044   5.984   4.679
40808W        W11408  28.417  34.454  10.702
40809W        W11409  33.523  25.801   5.073
40810W        W11410  14.610  30.796  13.425
40811W        W11411  26.443  15.362   0.025
40812W        W11412  12.658  15.595   3.353
40813W        W11413  16.161  23.242  12.856
40814W        W11414   4.062  33.978   2.399
40815W        W11415   1.857  36.020  12.608
40816W        W11416   0.022  11.751   0.437
40817W        W11417   4.447  25.717  13.741
40818W        W11418   9.439  32.692  12.951
40819W        W11419  36.949   5.291  10.634
40820W        W11420  42.560  25.925  11.443
40821W        W11421  23.677  18.203   1.913
40822W        W11422   0.089  30.491   2.690
40823W        W11423   5.521  11.266   2.730
40824W        W11424  22.171  34.358  13.409
40825W        W11425  26.994  23.569  14.266
40826W        W11426  20.612  34.492  10.782
40827W        W11427  29.577  43.734   1.735
40828W        W11428  41.780   6.471  12.542
40829W        W11429  18.755  17.595   0.952
40830W        W11430  36.485  21.003   2.124
40831W        W11431  19.613  19.299  10.952
40832W        W11432  40.514   1.009  10.468
40833W        W11433  30.360  12.300   3.210
40834W        W11434  34.923   1.304   5.131
40835W        W11435  39.288  24.917  13.018
40836W        W11436  44.366  17.175   0.977
40837W        W11437  12.097  30.170  12.565
40838W        W11438  28.697  35.591   4.165
40839W        W11439   6.908  17.528   1.880
40840W        W11440  38.334   5.435   3.325
40841W        W11441  41.833  21.381   4.037
40842W        W11442  21.608  40.940   0.733
40843W        W11443   7.878  17.461  12.332
40844W        W11444  21.253  40.917   4.890
40845W        W11445   5.408   9.057  14.774
40846W        W11446   9.241  44.880  12.298
40847W        W11447  36.298  41.985  11.567
40848W        W11448  34.471  34.402  11.465
40849W        W11449   4.630  12.851   4.247
40850W        W11450  15.532  25.565   0.835
40851W        W11451  33.905  40.021  13.486
40852W        W11452  35.551   3.680  12.855
40853W        W11453  35.415  29.364  12.736
40854W        W11454  30.093   8.402   3.569
40855W        W11455  30.086  19.073  11.567
40856W        W11456  22.945   0.043   2.731
40857W        W11457  20.225  33.673   0.414
40858W        W11458  14.591  28.378   0.387
40859W        W11459   3.790  36.906  12.856
40860W        W11460  42.378  18.361  14.916
40861W        W11461  37.099  18.328  11.197
40862W        W11462  30.436  20.724  12.369
40863W        W11463  20.688  18.503   1.923
40864W        W11464  37.350  33.159   0.721
40865W        W11465  40.449  14.277   3.075
40866W        W11466  13.530   7.405  11.986
40867W        W11467  13.805   8.627   2.419
40868W        W11468  25.029  31.077   4.870
40869W        W11469  35.206  42.415  11.722
40870W        W11470  39.502   4.960  14.320
40871W        W11471  44.530   7.660   5.195
40872W        W11472   9.267  21.059  14.562
40873W        W11473  22.748  22.851  13.490
40874W        W11474  28.200  22.503   0.973
40875W        W11475  39.911  44.381  12.559
40876W        W11476  40.587   8.544  10.385
40877W        W11477  36.556  31.095   4.832
40878W        W11478  31.419   5.695   2.809
40879W        W11479   9.013  34.706   1.137
40880W        W11480  23.078  12.885   2.734
40881W        W11481  20.824  17.082   3.733
40882W        W11482  44.571  24.150  10.687
40883W        W11483  39.973  17.318   1.230
40884W        W11484   1.222  29.203   3.678
40885W        W11485  25.236   8.502   3.597
40886W        W11486  23.076  11.625   4.105
40887W        W11487  17.859   0.968  10.995
40888W        W11488  43.917  17.523  13.087
40889W        W11489  12.848  14.347  13.271
40890W        W11490  20.767   9.166   2.250
40891W        W11491  26.956  14.872   2.364
40892W        W11492   2.710  40.031  13.302
40893W        W11493  22.561  35.492   4.358
40894W        W11494  36.349  12.150   4.956
40895W        W11495  22.009  39.007  14.879
40896W        W11496  12.586   3.576   5.092
40897W        W11497   0.214  24.770  12.643
40898W        W11498  27.752  24.070   3.671
40899W        W11499  22.783  37.457   2.268
40900W        W11500   6.888  41.802  14.983
40901W        W11501   5.308  27.868   0.628
40902W        W11502  29.298  44.670  13.523
40903W        W11503  21.472  42.287  13.417
40904W        W11504  15.645  20.796   0.787
40905W        W11505  15.684  38.771   3.621
40906W        W11506   6.278  31.657   2.864
40907W        W11507   5.524   5.827   4.886
40908W        W11508  12.671  44.673   2.292
40909W        W11509  40.551  18.982  14.858
40910W        W11510  30.901  25.540  13.385
40911W        W11511  16.713  19.152  12.667
40912W        W11512  31.388  10.647  14.385
40913W        W11513  15.654  19.947   4.773
40914W        W11514  37.484   7.857  13.531
40915W        W11515  24.568  36.926  10.624
40916W        W11516  40.860  24.510  14.983
40917W        W11517  22.345  24.771   1.737
40918W        W11518   4.741  27.582   4.589
40919W        W11519  10.111  16.312  11.611
40920W        W11520   5.406  41.353   2.142
40921W        W11521  42.013  27.304   0.700
40922W        W11522   3.144   5.662  11.098
40923W        W11523   3.503  24.038  11.145
40924W        W11524  28.648  33.269  14.828
40925W        W11525  27.913  38.425   1.072
40926W        W11526  28.407  27.467  13.981
40927W        W11527  12.518  40.137   4.555
40928W        W11528  42.206  30.593  13.103
40929W        W11529   3.788   6.266   3.477
40930W        W11530   4.001  18.253   1.713
40931W        W11531  13.593   8.768   1.651
40932W        W11532   6.632  40.160  13.487
40933W        W11533  19.059  25.645  12.914
40934W        W11534  11.083   8.084  10.981
40935W        W11535  34.725  38.961   1.488
40936W        W11536  31.458   6.801   4.972
40937W        W11537  24.220   5.954  12.000
40938W        W11538  29.052  25.512  14.509
40939W        W11539  32.430   1.512   1.426
40940W        W11540  43.310  19.179  11.253
40941W        W11541  12.832  11.047  10.600
40942W        W11542   7.123   6.363  13.302
40943W        W11543  15.862  33.163   1.583
40944W        W11544  38.015  42.354   1.268
40945W        W11545  44.400  41.018  12.885
40946W        W11546  44.737  41.361   2.773
40947W        W11547  12.844   5.572   1.187
40948W        W11548  44.773  12.737  10.590
40949W        W11549   9.565  12.311   3.445
40950W        W11550  20.957  21.496  12.488
40951W        W11551   1.703   4.076   3.389
40952W        W11552  11.829  23.657  14.926
40953W        W11553  33.671  16.632   0.140
40954W        W11554  21.208  10.213  12.951
40955W        W11555   1.309   0.069  13.758
40956W        W11556  24.704   0.965  11.626
40957W        W11557  21.942  33.398   3.610
40958W        W11558  24.182  34.293  13.952
40959W        W11559  12.996  23.082  11.296
40960W        W11560   9.138  10.280  13.455
40961W        W11561  22.952   1.361  11.566
40962W        W11562  37.303  37.561   0.806
40963W        W11563  40.287  31.513  11.482
40964W        W11564  23.762   2.946  13.354
40965W        W11565  29.769  20.476   4.531
40966W        W11566  26.706   6.731  12.031
40967W        W11567   6.799  21.275  10.773
40968W        W11568  35.861  35.571   4.163
40969W        W11569   8.651  43.796  13.852
40970W        W11570  44.319   4.748   1.396
40971W        W11571  26.857  29.069   3.160
40972W        W11572  14.237  11.254   4.669
40973W        W11573  13.583  44.420   4.629
40974W        W11574  26.931  29.625   3.253
40975W        W11575  34.893  21.937   0.433
40976W        W11576  27.130  34.080   1.305
40977W        W11577  33.833  44.881   2.241
40978W        W11578  39.538  14.689  11.675
40979W        W11579  32.964  21.594   0.345
40980W        W11580   4.678  31.323   1.740
40981W        W11581   4.559  32.816  13.833
40982W        W11582   6.075  39.131   5.140
40983W        W11583  17.387  11.209   1.019
40984W        W11584  37.008  12.598   2.328
40985W        W11585  20.129   9.879   4.408
40986W        W11586  18.322  12.333  12.761
40987W        W11587   9.924  43.467  13.567
40988W        W11588   1.986  42.288  10.463
40989W        W11589  11.642  28.571  13.983
40990W        W11590  28.745  20.802   4.726
40991W        W11591  43.399  38.853  13.832
40992W        W11592  30.488  16.601  11.217
40993W        W11593  33.925  33.778   4.210
40994W        W11594  39.512  15.738   1.435
40995W        W11595  22.028  24.374  14.375
40996W        W11596  14.782  19.107  11.729
40997W        W11597  17.136   7.838  11.063
40998W        W11598  13.792  33.595   4.619
40999W        W11599   8.691  15.488  12.171
41000W        W11600   4.473  41.552  10.210
41001W        W11601   6.666  12.584  10.755
41002W        W11602  18.518  24.107   0.909
41003W        W11603   7.427  42.195   0.436
41004W        W11604  23.086  12.096  13.418
41005W        W11605  24.585  42.017  13.348
41006W        W11606  36.869  22.206   4.357
41007W        W11607  30.384  17.284  12.815
41008W        W11608  21.439  40.389   1.738
41009W        W11609  31.353  16.855   0.799
41010W        W11610   1.407  17.766   3.655
41011W        W11611  36.919  42.822   0.474
41012W        W11612  23.066  23.207  11.168
41013W        W11613  20.749  12.826  11.916
41014W        W11614  24.483   0.206  11.465
41015W        W11615  27.716  26.999  14.974
41016W        W11616  10.852   8.885   1.780
41017W        W11617  27.097   1.251   4.399
41018W        W11618  23.850  26.656   2.215
41019W        W11619  39.941   0.680   3.685
41020W        W11620  25.227  18.180  13.870
41021W        W11621  22.225  21.728   3.955
41022W        W11622   7.314  43.400   2.948
41023W        W11623   0.345   2.201  13.375
41024W        W11624  16.013  39.435   2.253
41025W        W11625  18.103   6.261   2.401
41026W        W11626   0.070   8.610  14.348
41027W        W11627  42.805  28.029   0.453
41028W        W11628   1.999  22.774  14.549
41029W        W11629  29.589   1.814   0.958
41030W        W11630  11.178  42.966   3.861
41031W        W11631  23.604  30.453   4.569
41032W        W11632  34.525  18.937  13.283
41033W        W11633  40.025  12.557  12.016
41034W        W11634   0.992  44.274   1.365
41035W        W11635  32.896  23.506   3.320
41036W        W11636  15.097   0.044   4.068
41037W        W11637  25.252   0.538   4.985
41038W        W11638  35.458  39.120  11.513
41039W        W11639  36.114  36.927   2.842
41040W        W11640  35.395  11.736  14.417
41041W        W11641  41.106  18.284  13.915
41042W        W11642  37.387  36.742  13.447
41043W        W11643  22.263  38.747   2.374
41044W        W11644  11.740   4.298   1.291
41045W        W11645  33.731  26.527  12.030
41046W        W11646  42.101  13.300   0.595
41047W        W11647  26.482  25.749  10.841
41048W        W11648   8.192  25.291  14.016
41049W        W11649   5.409   4.225  12.480
41050W        W11650  30.426   3.669  12.329
41051W        W11651  33.293  39.198  11.209
41052W        W11652  13.735  18.783  11.709
41053W        W11653  23.337   7.831  14.831
41054W        W11654  25.021   1.357  11.403
41055W        W11655  34.332  26.659  14.943
41056W        W11656  43.584  10.428   2.450
41057W        W11657   7.729  38.138   3.183
41058W        W11658  20.077   7.450   4.283
41059W        W11659  30.037   6.867   4.811
41060W        W11660  14.970   6.117  14.462
41061W        W11661  24.919  31.384  12.877
41062W        W11662  15.591  26.108   3.764
41063W        W11663  41.550   6.941   5.114
41064W        W11664  36.900  38.326  11.040
41065W        W11665  22.585  15.733   2.792
41066W        W11666  13.166   7.927   1.062
41067W        W11667   1.113  14.198   2.309
41068W        W11668  24.741  12.787  11.829
41069W        W11669  25.087  26.983   0.382
41070W        W11670  43.277  22.554   2.165
41071W        W11671  27.888  13.589   1.622
41072W        W11672  23.538  10.659  12.616
41073W        W11673   3.688   1.554   1.710
41074W        W11674  36.998  22.655  14.437
41075W        W11675  22.993  42.283   1.787
41076W        W11676  25.141  42.872   4.290
41077W        W11677  14.072  37.415   0.503
41078W        W11678  24.508  41.843  10.480
41079W        W11679  32.160  13.250   0.230
41080W        W11680  34.100  15.090  10.802
41081W        W11681  11.473   1.839   3.350
41082W        W11682  21.321  21.177   2.245
41083W        W11683   8.827  22.269   4.524
41084W        W11684  11.100  38.526   2.961
41085W        W11685   9.630   7.408   1.362
41086W        W11686  34.160   0.011  11.096
41087W        W11687  16.857  37.416   2.898
41088W        W11688  17.313   3.736   9.675
41089W        W11689  40.499  38.001   0.430
41090W        W11690  10.862  38.273  14.900
41091W        W11691  27.515  35.560   1.505
41092W        W11692  39.685  33.992  14.549
41093W        W11693   0.008  41.812   2.723
41094W        W11694  34.378   9.224   4.362
41095W        W11695  17.670  10.183  10.435
41096W        W11696   5.494  28.393  13.452
41097W        W11697  17.990  11.743   0.233
41098W        W11698  36.061  31.205   1.895
41099W        W11699  31.363   5.544  11.617
41100W        W11700   9.148  42.475  13.347
41101W        W11701  35.124  31.088  13.369
41102W        W11702  13.118  34.773  13.497
41103W        W11703  43.552  27.977  13.580
41104W        W11704  23.157   5.885  11.599
41105W        W11705   9.636  29.352   3.387
41106W        W11706  15.399   4.356   4.455
41107W        W11707  23.950  11.361   0.815
41108W        W11708  44.894   4.774  13.575
41109W        W11709   6.780   5.950   3.129
41110W        W11710  33.198   8.340   1.272
41111W        W11711  17.458  37.809  12.461
41112W        W11712  33.488  13.639  13.119
41113W        W11713  21.784  37.502   2.026
41114W        W11714  37.927   1.132   0.938
41115W        W11715  44.335  28.968   4.567
41116W        W11716   0.986  36.658  14.817
41117W        W11717  18.420  38.953   2.264
41118W        W11718  27.652  33.457  14.976
41119W        W11719   2.423   9.208   2.171
41120W        W11720  33.017  22.987  10.687
41121W        W11721  33.282  43.828  12.533
41122W        W11722  14.234   5.961   4.841
41123W        W11723   5.698  34.970  11.705
41124W        W11724  41.965  22.014  14.577
41125W        W11725  23.984   3.718   4.225
41126W        W11726  30.087  30.706  13.442
41127W        W11727   4.238   6.003   2.215
41128W        W11728  19.250  14.711   0.407
41129W        W11729  42.713   2.308  12.124
41130W        W11730  44.216  15.877   1.020
41131W        W11731  24.597  20.728   4.057
41132W        W11732  15.818   2.482  14.775
41133W        W11733  13.719  35.040  12.651
41134W        W11734  23.086  30.730   1.668
41135W        W11735  26.114   5.409   1.227
41136W        W11736  29.188  21.242  13.575
41137W        W11737  32.344  33.848  10.896
41138W        W11738  41.821  17.071   3.805
41139W        W11739  39.602   7.404  12.051
41140W        W11740  34.303  39.404   5.116
41141W        W11741  20.539  17.088  14.407
41142W        W11742  36.487  30.494   2.130
41143W        W11743  18.652  37.676  11.207
41144W        W11744  35.064  22.505  13.799
41145W        W11745  38.568  28.189   4.611
41146W        W11746  10.802   4.134  14.235
41147W        W11747  29.959  32.950   0.328
41148W        W11748  42.868  11.317   4.541
41149W        W11749  15.049  38.253   4.255
41150W        W11750   7.378   8.128  14.835
41151W        W11751  35.428   7.427  13.874
41152W        W11752  18.375  27.465  12.539
41153W        W11753  34.010  33.384  12.750
41154W        W11754   0.476  38.763   1.326
41155W        W11755  33.038   7.953  12.965
41156W        W11756  41.823  31.118  12.461
41157W        W11757   2.724   1.452  12.400
41158W        W11758  29.004   2.817   2.296
41159W        W11759  41.818  36.562   3.146
41160W        W11760  44.459  25.623  13.747
41161W        W11761  21.280   7.762  13.794
41162W        W11762  19.579   7.301   1.241
41163W        W11763  20.023  24.173   1.029
41164W        W11764  37.775  25.053   1.785
41165W        W11765   0.020  40.438   0.385
41166W        W11766  14.829  19.146  10.735
41167W        W11767  34.126   8.585  13.753
41168W        W11768  11.199   4.269  11.581
41169W        W11769  16.983  31.130  13.595
41170W        W11770   0.781  35.105   3.722
41171W        W11771  20.661  34.365   4.569
41172W        W11772  44.533  31.527   4.967
41173W        W11773  13.650  12.666   0.999
41174W        W11774  23.014  24.029   0.754
41175W        W11775  16.162  43.035  11.347
41176W        W11776  13.381  15.363  10.886
41177W        W11777  17.452   4.037   1.358
41178W        W11778  37.943  34.279   5.084
41179W        W11779  38.476  16.062  11.462
41180W        W11780  27.933  31.514  13.378
41181W        W11781  22.765   2.996   2.019
41182W        W11782  19.744  15.672   3.693
41183W        W11783  15.904  26.139  13.500
41184W        W11784  24.816  16.177  12.538
41185W        W11785   9.975  16.788   2.029
41186W        W11786  28.048  15.043  13.144
41187W        W11787  44.021   6.914  10.653
41188W        W11788  19.746  15.129  13.066
41189W        W11789  28.888  21.710  12.548
41190W        W11790  12.332  16.347   0.813
41191W        W11791   9.198  29.683   1.964
41192W        W11792   9.771   6.394   2.230
41193W        W11793  27.678  12.387   3.214
41194W        W11794  29.239  33.833  13.996
41195W        W11795  39.071  26.674  10.465
41196W        W11796   1.106   5.372   0.248
41197W        W11797   9.414  37.452   4.630
41198W        W11798  38.939   9.782  11.076
41199W        W11799  32.937   0.775   0.719
41200W        W11800  15.685  20.993   0.280
41201W        W11801  15.326  12.704   3.738
41202W        W11802  18.282  21.677  11.687
41203W        W11803  30.819  38.788  10.286
41204W        W11804  19.167   2.711  10.670
41205W        W11805   9.311  44.664  11.320
41206W        W11806  23.288  35.324   0.381
41207W        W11807  17.957  17.972   3.232
41208W        W11808  27.066  29.388  12.492
41209W        W11809   1.564  10.182  11.639
41210W        W11810  26.625  15.569   1.926
41211W        W11811  25.592   8.192   4.604
41212W        W11812  25.223   6.944  11.925
41213W        W11813  18.975  14.502   0.003
41214W        W11814   0.566  31.926  11.082
41215W        W11815  44.930  32.383  11.972
41216W        W11816  17.710  15.178   2.230
41217W        W11817   8.279   3.634   4.694
41218W        W11818  39.039   7.464   2.834
41219W        W11819   6.352  40.003   3.291
41220W        W11820  23.041  37.204   3.226
41221W        W11821  36.543  41.403   4.914
41222W        W11822   0.799  32.962   1.992
41223W        W11823   5.314  40.820  14.749
41224W        W11824  14.317  11.267   3.302
41225W        W11825  21.098  20.291  12.016
41226W        W11826  25.203  12.419  13.956
41227W        W11827  36.333  10.249  11.439
41228W        W11828  24.466  33.667  11.232
41229W        W11829  39.468  26.793  10.803
41230W        W11830  10.929  12.808  12.617
41231W        W11831   8.394  36.049  11.849
41232W        W11832   8.368  20.540  11.492
41233W        W11833  35.413  43.571   0.931
41234W        W11834  27.672  25.074  12.019
41235W        W11835   9.491  38.960   3.124
41236W        W11836  36.832  38.485   1.081
41237W        W11837   2.423  31.025   1.765
41238W        W11838  39.296   6.826   0.479
41239W        W11839  28.650  12.043   3.754
41240W        W11840   4.186  13.073   4.374
41241W        W11841  22.541  38.506   4.515
41242W        W11842  36.590  38.805  13.078
41243W        W11843  31.430   3.886   3.293
41244W        W11844  27.886   8.981  14.357
41245W        W11845  16.048   6.365   3.244
41246W        W11846  24.241  34.911  13.351
41247W        W11847   2.194  17.062   3.737
41248W        W11848  24.760  23.431  12.097
41249W        W11849   1.735  24.168   3.606
41250W        W11850   2.943  40.366   0.697
41251W        W11851  12.669  43.908   0.958
41252W        W11852  30.118  15.943   3.098
41253W        W11853  38.138  23.152   3.369
41254W        W11854   3.406  39.476  13.464
41255W        W11855  15.677  30.151  12.361
41256W        W11856  12.130  15.428   3.636
41257W        W11857  22.735   9.399  12.556
41258W        W11858  23.927  18.809   5.052
41259W        W11859  37.662  36.840  13.925
41260W        W11860  41.923  34.090   1.761
41261W        W11861  39.467  12.254  10.775
41262W        W11862  36.105  35.704   0.864
41263W        W11863  44.051  21.250  14.516
41264W        W11864  39.958  31.700  11.140
41265W        W11865  35.504   6.445   3.378
41266W        W11866  18.612  12.273  14.622
41267W        W11867  42.048   8.448   0.197
41268W        W11868  39.821  20.159  13.820
41269W        W11869  11.713  37.971   2.941
41270W        W11870   3.780   1.878   3.718
41271W        W11871  37.967  24.184   2.728
41272W        W11872  26.428  12.320   0.766
41273W        W11873  30.586  34.951  14.174
41274W        W11874  12.220  28.996  14.542
41275W        W11875   3.837  43.266  11.706
41276W        W11876  42.310   6.773  13.376
41277W        W11877  34.443  33.482  10.901
41278W        W11878  30.564  22.603   0.866
41279W        W11879  28.055  31.487   3.098
41280W        W11880  33.075  22.248   3.626
41281W        W11881   3.784  15.322  12.023
41282W        W11882   2.746  39.781   2.326
41283W        W11883  36.954   1.488   3.642
41284W        W11884  35.005  26.121   0.441
41285W        W11885  11.582  22.708   1.940
41286W        W11886  26.238  12.239   1.252
41287W        W11887  38.469   8.306   1.911
41288W        W11888  44.987  26.550  12.195
41289W        W11889  27.498  41.775   4.672
41290W        W11890  21.313  35.071  11.354
41291W        W11891  44.178  30.468  14.564
41292W        W11892  41.547  38.097   0.457
41293W        W11893   3.774  37.432   3.416
41294W        W11894   5.793   7.686  11.459
41295W        W11895  16.833  22.121  11.101
41296W        W11896  27.915  25.184  14.004
41297W        W11897   0.709  10.252   0.219
41298W        W11898  36.560   6.151  11.283
41299W        W11899   3.988  29.627   0.934
41300W        W11900   6.448  21.844   0.872
41301W        W11901  35.538   2.655  14.967
41302W        W11902  42.727   1.334  13.044
41303W        W11903  32.917  19.284  13.046
41304W        W11904  31.095  12.648   2.893
41305W        W11905  25.853  32.176  14.395
41306W        W11906  29.917  19.831   1.293
41307W        W11907  19.217   7.824   0.315
41308W        W11908  34.565  17.274   3.595
41309W        W11909  14.006  31.182   5.058
41310W        W11910  27.399   5.627  13.600
41311W        W11911  37.023  12.895   4.418
41312W        W11912  20.059  27.197  14.891
41313W        W11913   4.633  41.961   0.305
41314W        W11914  42.607  16.728   2.912
41315W        W11915  17.190  16.470   3.930
41316W        W11916   0.718  25.204   2.736
41317W        W11917  24.545  14.367  14.451
41318W        W11918   6.962  21.568   0.062
41319W        W11919  40.853  34.611  11.716
41320W        W11920   7.315  16.552   1.209
41321W        W11921  38.568  29.601  14.890
41322W        W11922   3.159   9.873   2.946
41323W        W11923  24.607  31.952   2.771
41324W        W11924  12.471  17.804   4.183
41325W        W11925   3.357  26.985   4.748
41326W        W11926  10.748   7.407   2.386
41327W        W11927  36.901  22.828   4.118
41328W        W11928   6.780  25.898  13.401
41329W        W11929  22.449  31.876   1.135
41330W        W11930  33.006  13.902   4.888
41331W        W11931  40.258  20.626   2.890
41332W        W11932  44.739  38.745   4.593
41333W        W11933  20.346  20.075   0.761
41334W        W11934   9.252  39.926  14.027
41335W        W11935  25.180  40.593  14.469
41336W        W11936  13.051  15.699  12.381
41337W        W11937   1.697  19.198   1.827
41338W        W11938  13.897  14.502  11.865
41339W        W11939  14.221  21.822  11.980
41340W        W11940  27.082  24.022   1.680
41341W        W11941  21.262   1.188  13.503
41342W        W11942   0.776   4.464  14.047
41343W        W11943   4.162   0.406  10.642
41344W        W11944   3.651   4.588  14.184
41345W        W11945   8.871  41.951   2.594
41346W        W11946  31.097  16.290   4.578
41347W        W11947  39.858  15.809   0.448
41348W        W11948  37.873  20.969  10.347
41349W        W11949  42.998  33.959   2.636
41350W        W11950   0.129  38.622  13.567
41351W        W11951  42.463  33.511  13.283
41352W        W11952   1.309  25.423  11.987
41353W        W11953  24.437  10.525   4.120
41354W        W11954  43.457  12.306  13.816
41355W        W11955   6.120  12.483  10.205
41356W        W11956  30.658   0.136  11.496
41357W        W11957  30.904  25.686   4.667
41358W        W11958  35.035  10.818   2.175
41359W        W11959   2.900  20.603  10.920
41360W        W11960  18.494   5.296   3.747
41361W        W11961  17.910  39.285   2.950
41362W        W11962  10.073  13.218  14.008
41363W        W11963  19.029  28.658   3.596
41364W        W11964  38.814   4.731  11.724
41365W        W11965  10.353  10.295  11.383
41366W        W11966   1.750  33.088   5.295
41367W        W11967   2.913   9.290  10.453
41368W        W11968  37.825  21.037   4.690
41369W        W11969  17.751  35.395  12.669
41370W        W11970  25.087  42.461   3.007
41371W        W11971   5.220  19.170   3.793
41372W        W11972  28.194  30.633  11.625
41373W        W11973  24.410  23.030  11.986
41374W        W11974  21.985  27.998  10.769
41375W        W11975  36.436   0.680   1.050
41376W        W11976  30.904  22.116   3.517
41377W        W11977   7.474  39.061   0.916
41378W        W11978  42.706  37.961   2.718
41379W        W11979  27.730  34.477   4.088
41380W        W11980   7.801  34.788  13.976
41381W        W11981  23.304  42.344   3.123
41382W        W11982   6.931  22.241   4.956
41383W        W11983  19.203  14.819   1.842
41384W        W11984  24.442  18.714  14.070
41385W        W11985  15.125   3.464  12.894
41386W        W11986  24.526  10.583   0.473
41387W        W11987   5.091  28.284  11.538
41388W        W11988  14.510  32.721   2.691
41389W        W11989  20.254  42.173  14.848
41390W        W11990  10.174  13.671   4.173
41391W        W11991   4.927  30.408  14.807
41392W        W11992  37.008  33.146   1.540
41393W        W11993  41.724  43.441   3.768
41394W        W11994  15.031  11.226   0.453
41395W        W11995   8.626  16.932  12.532
41396W        W11996  14.170  16.736   3.810
41397W        W11997  41.831  26.176  10.981
41398W        W11998  15.645  27.421   2.967
41399W        W11999  26.719   1.811   1.356
41400W        W12000   5.912  17.243  12.024
41401W        W12001   3.715   9.190   0.768
41402W        W12002   2.863  22.502  13.884
41403W        W12003  35.916  16.752  13.309
41404W        W12004   4.424  20.981   2.126
41405W        W12005  17.670  43.006   5.067
41406W        W12006  24.307  27.971   3.000
41407W        W12007  16.573  31.462  11.932
41408W        W12008  26.128  29.618   2.777
41409W        W12009  34.683  12.662  13.733
41410W        W12010   3.428  26.504   4.603
41411W        W12011  42.476  16.838   0.431
41412W        W12012   0.666  19.231  11.596
41413W        W12013  18.245   7.076   0.893
41414W        W12014  24.787   6.044  12.388
41415W        W12015   3.945  36.988   4.162
41416W        W12016  14.645  17.451  13.842
41417W        W12017  44.265  35.961   4.541
41418W        W12018  34.153  34.312  13.917
41419W        W12019  20.547  27.733   4.100
41420W        W12020  10.350  18.284   1.924
41421W        W12021  28.693  24.434   2.001
41422W        W12022  27.429  30.564  12.123
41423W        W12023  12.766  32.527   2.898
41424W        W12024   7.985  18.307   4.114
41425W        W12025   1.818  27.718  10.658
41426W        W12026  25.889  22.487   2.850
41427W        W12027  35.099  29.225   1.372
41428W        W12028  43.327  42.265   2.174
41429W        W12029  35.544  35.951   4.080
41430W        W12030  10.055  13.782   4.686
41431W        W12031  33.960   2.253   4.896
41432W        W12032  42.324  18.667  11.892
41433W        W12033  27.487   7.142   4.748
41434W        W12034  35.602  11.243  10.761
41435W        W12035  25.120  33.485   2.529
41436W        W12036  23.082  33.416   0.195
41437W        W12037  16.626  14.845  14.342
41438W        W12038  33.687  27.135   3.012
41439W        W12039   0.385   4.876   0.245
41440W        W12040  18.157  42.930   3.939
41441W        W12041  41.060  24.144   1.712
41442W        W12042   9.682   1.923  13.357
41443W        W12043   3.744  35.611  14.765
41444W        W12044  25.102   0.324  12.577
41445W        W12045  21.530  33.498   0.018
41446W        W12046  19.111  33.876  14.333
41447W        W12047  38.746   5.199  13.474
41448W        W12048   3.256  29.429  13.361
41449W        W12049  26.557   1.516   2.262
41450W        W12050  18.087  25.230   1.440
41451W        W12051  43.306  20.150   2.336
41452W        W12052  27.517  41.538   2.603
41453W        W12053  32.339  22.173   4.667
41454W        W12054  37.540  15.701   3.555
41455W        W12055  20.338  44.871   1.925
41456W        W12056   2.876  27.186  14.922
41457W        W12057   5.056  23.305  14.177
41458W        W12058  19.311  30.351   0.374
41459W        W12059  27.166  28.405   1.400
41460W        W12060  32.977  34.444  11.101
41461W        W12061   8.772  42.392   3.421
41462W        W12062   8.396  10.748  13.276
41463W        W12063   4.497  32.942   1.652
41464W        W12064  30.051   4.036  11.407
41465W        W12065  25.080  43.376  13.875
41466W        W12066   1.393  40.761   2.338
41467W        W12067  14.750  27.062   2.001
41468W        W12068   0.326  17.877   4.015
41469W        W12069  29.991  36.095  14.300
41470W        W12070   5.475  28.530   0.881
41471W        W12071  35.161  31.395  12.065
41472W        W12072  29.897  38.740   4.992
41473W        W12073  37.902  28.436   1.689
41474W        W12074   7.906  10.104   1.321
41475W        W12075   8.769   8.240   4.091
41476W        W12076  41.047  36.689  11.157
41477W        W12077  34.100  11.534  13.521
41478W        W12078  40.919  24.029   0.760
41479W        W12079  14.062  18.286   2.770
41480W        W12080  27.423  44.689   0.810
41481W        W12081   2.692  17.745  11.554
41482W        W12082  21.909  44.881   1.452
41483W        W12083   0.916  40.942  14.702
41484W        W12084  34.651  43.458  14.798
41485W        W12085   5.387  12.101   1.237
41486W        W12086  17.987  33.575   5.022
41487W        W12087  37.891  33.063  13.490
41488W        W12088  34.867  19.681  12.229
41489W        W12089  17.745  18.182   0.345
41490W        W12090   4.242   9.674  13.001
41491W        W12091  35.523   9.777   1.036
41492W        W12092  15.579   3.007  11.548
41493W        W12093  28.091  30.960   3.102
41494W        W12094   3.876  11.849  12.101
41495W        W12095  38.061  33.057   3.221
41496W        W12096   3.136  39.052   4.441
41497W        W12097  13.862  35.475   3.356
41498W        W12098  25.455  34.530  13.542
41499W        W12099  14.178  38.403   0.820
41500W        W12100  19.009   5.050   0.346
41501W        W12101  13.634  38.702  13.169
41502W        W12102  44.630  14.123  13.990
41503W        W12103  21.266  39.895  13.390
41504W        W12104   8.666  32.460   0.270
41505W        W12105  24.619  11.365  12.036
41506W        W12106  24.995  14.681  13.863
41507W        W12107  19.642  35.312  13.067
41508W        W12108  16.595  43.460  12.181
41509W        W12109  35.133   8.093   2.294
41510W        W12110   3.995  20.183  14.992
41511W        W12111  43.758  12.913  11.506
41512W        W12112   2.726  33.534  14.925
41513W        W12113  37.618  18.289  11.549
41514W        W12114   3.963   7.868  12.462
41515W        W12115  31.500  24.317   1.221
41516W        W12116   4.931   8.016  12.486
41517W        W12117  28.701  39.526  13.495
41518W        W12118  32.000  32.944   0.289
41519W        W12119  39.032  40.990  11.163
41520W        W12120  44.269  26.951   0.338
41521W        W12121  20.586  20.668   3.163
41522W        W12122  36.027  36.979   1.843
41523W        W12123  20.474  28.900  12.881
41524W        W12124  24.024  34.477   4.171
41525W        W12125   4.659  36.028   3.671
41526W        W12126  20.292  10.190   2.833
41527W        W12127  16.566   6.319   4.153
41528W        W12128  26.210  26.104   0.887
41529W        W12129  41.315  22.747   3.634
41530W        W12130  17.260   1.748  13.054
41531W        W12131  43.394   5.751  10.538
41532W        W12132  39.477   8.175  11.551
41533W        W12133  18.644  14.376  11.231
41534W        W12134  40.862  37.880   4.135
41535W        W12135  35.362  31.606  11.618
41536W        W12136  19.953  35.748  11.532
41537W        W12137  27.149  35.700   2.760
41538W        W12138  41.776  15.248   1.326
41539W        W12139   6.353   7.364  10.895
41540W        W12140  36.189  15.189   4.173
41541W        W12141  40.291   0.723  13.335
41542W        W12142  32.970  11.911   2.669
41543W        W12143  30.057  14.234  11.004
41544W        W12144  26.776  20.504  13.496
41545W        W12145  44.244  13.156  11.394
41546W        W12146   1.791  20.488  12.779
41547W        W12147  39.115  15.503  13.446
41548W        W12148  20.135  37.662   1.006
41549W        W12149   9.240  39.396   1.804
41550W        W12150  41.437   1.755   3.339
41551W        W12151   8.757  41.416  14.277
41552W        W12152  21.207  22.441   1.018
41553W        W12153  34.442  31.589   1.233
41554W        W12154  17.182  17.614   4.710
41555W        W12155  11.174  36.341   1.378
41556W        W12156  11.897  17.173  13.895
41557W        W12157  31.432  40.245   3.288
41558W        W12158  39.316   7.261  11.045
41559W        W12159  34.655  28.927  12.406
41560W        W12160  28.166   0.289   4.664
41561W        W12161  42.756  21.417   0.273
41562W        W12162   8.682  26.724   4.183
41563W        W12163  39.911   4.390  13.080
41564W        W12164  32.525  36.008  14.557
41565W        W12165  33.954  32.907  12.463
41566W        W12166   7.610  21.543  12.104
41567W        W12167  22.956   1.494   0.280
41568W        W12168  40.835  22.521   0.440
41569W        W12169  39.881  33.006  13.149
41570W        W12170  13.694  31.976   0.531
41571W        W12171   5.362  15.806  11.151
41572W        W12172  17.308   9.781  12.854
41573W        W12173  41.305  10.567   2.155
41574W        W12174  21.433   9.712  14.457
41575W        W12175  18.077   3.102   3.305
41576W        W12176  36.150  40.899  14.630
41577W        W12177  26.658   2.062  11.619
41578W        W12178  43.265  16.623  11.583
41579W        W12179   3.123  14.087   0.021
41580W        W12180  20.996  35.867   0.223
41581W        W12181  10.177  29.050  10.187
41582W        W12182  19.566  44.940  11.049
41583W        W12183  39.148  21.751  13.481
41584W        W12184  21.250  30.495  11.389
41585W        W12185  44.717  15.757   1.871
41586W        W12186  21.068  33.054   4.555
41587W        W12187  42.342  43.211  14.841
41588W        W12188   2.984  28.681   0.985
41589W        W12189  20.792  39.105  11.173
41590W        W12190  42.507  10.745   2.920
41591W        W12191  39.822  17.137  12.369
41592W        W12192   6.207  39.828  11.598
41593W        W12193  24.677  21.066   1.264
41594W        W12194  31.130   0.891   0.461
41595W        W12195   3.176   3.719  11.128
41596W        W12196  39.118  32.871   2.166
41597W        W12197   4.782  10.013  13.997
41598W        W12198   1.010  31.091  14.989
41599W        W12199  14.975  12.193   0.331
41600W        W12200   6.251  30.379  12.361
41601W        W12201  24.364  17.522  10.998
41602W        W12202  14.700  25.144  11.950
41603W        W12203  40.019  12.830   2.456
41604W        W12204  13.337   0.465   2.001
41605W        W12205  16.825  22.996   2.600
41606W        W12206  35.129  37.844   0.396
41607W        W12207  10.917   5.489   0.865
41608W        W12208  29.957   4.811  10.793
41609W        W12209   3.211   7.337  12.097
41610W        W12210  32.709  23.676   4.562
41611W        W12211  13.591  24.570   1.007
41612W        W12212  11.317  20.049  13.475
41613W        W12213   8.448  36.567  14.316
41614W        W12214  44.736   7.578  10.591
41615W        W12215  25.227  32.971  13.173
41616W        W12216  35.084  42.035   1.341
41617W        W12217   6.738   8.841  11.975
41618W        W12218   8.413  43.324   4.875
41619W        W12219   2.246   3.904   1.492
41620W        W12220  30.987  33.526   1.431
41621W        W12221  36.519  18.503  11.088
41622W        W12222  23.997  43.354   3.676
41623W        W12223  23.250  39.337  13.129
41624W        W12224  43.498  39.360  13.444
41625W        W12225  26.218  15.379  13.742
41626W        W12226  30.358  35.117   2.770
41627W        W12227   0.914  37.582  11.678
41628W        W12228  15.619  44.305   1.236
41629W        W12229   2.237  44.523  11.215
41630W        W12230  32.754  25.916   1.885
41631W        W12231   5.795  14.221   3.655
41632W        W12232  25.987  17.753   4.618
41633W        W12233  26.212  43.942   9.860
41634W        W12234   4.916   9.020  10.173
41635W        W12235  40.753  44.819  12.512
41636W        W12236   4.829  40.828  14.571
41637W        W12237   2.343  42.271  11.212
41638W        W12238  10.862   1.835  11.657
41639W        W12239  33.734  10.051   5.134
41640W        W12240   6.917  40.072   1.207
41641W        W12241   0.312   4.042   2.440
41642W        W12242  44.909   6.467  11.934
41643W        W12243  23.857  31.787   3.318
41644W        W12244  26.248  33.122  14.943
41645W        W12245  33.692   8.307  13.831
41646W        W12246   0.368  26.181  14.775
41647W        W12247  21.298  12.848  11.504
41648W        W12248  12.631  38.399  14.774
41649W        W12249  43.945  40.910   3.294
41650W        W12250   7.128  15.740  10.716
41651W        W12251   7.875  23.298   2.920
41652W        W12252   0.358  29.455  12.240
41653W        W12253  41.251  32.341  11.536
41654W        W12254  42.382  25.155  13.007
41655W        W12255  40.310  38.119   2.857
41656W        W12256  18.461  29.482  13.854
41657W        W12257   7.789  24.734   4.196
41658W        W12258  22.177  18.154  14.775
41659W        W12259   5.823  17.784  10.729
41660W        W12260  14.846  25.575   1.454
41661W        W12261   7.398   3.267   1.177
41662W        W12262  39.060  33.959   1.255
41663W        W12263  23.481  18.768   3.801
41664W        W12264  30.504  25.201  11.660
41665W        W12265  44.870  28.576  13.529
41666W        W12266  20.797  44.805  14.001
41667W        W12267  10.803  24.748   1.599
41668W        W12268   3.809  39.892  12.916
41669W        W12269   7.760  22.136   3.413
41670W        W12270  33.483  17.659  10.174
41671W        W12271  28.168   8.295   0.031
41672W        W12272  11.934   4.675   4.800
41673W        W12273   1.337   2.953  11.503
41674W        W12274  15.955   3.097   4.003
41675W        W12275  15.144   7.075  13.433
41676W        W12276  18.880   9.703   3.824
41677W        W12277   0.757  12.137  14.916
41678W        W12278  35.467  19.558   3.800
41679W        W12279  29.680  36.957   0.267
41680W        W12280  15.782  13.770   3.618
41681W        W12281   8.769  44.206   2.292
41682W        W12282  27.911  26.495   2.152
41683W        W12283  14.187  43.337  14.092
41684W        W12284  27.452  20.518  13.170
41685W        W12285   4.400  24.309   1.480
41686W        W12286  16.816  20.727   4.483
41687W        W12287   6.925  38.563   2.698
41688W        W12288  33.475  12.740  14.308
41689W        W12289  22.093  44.426  11.948
41690W        W12290  23.507  44.646   2.002
41691W        W12291  43.232  31.526  14.267
41692W        W12292  18.368  25.608   1.197
41693W        W12293   4.412  34.130  12.868
41694W        W12294  41.834  17.991   0.690
41695W        W12295  39.273  41.835  10.895
41696W        W12296  38.438  23.813   1.868
41697W        W12297   6.823   3.721   2.643
41698W        W12298  17.886  28.229  13.794
41699W        W12299  40.127  35.055   4.153
41700W        W12300  35.042   9.526   0.833
41701W        W12301  11.622   3.613  11.167
41702W        W12302   5.240  24.258  14.894
41703W        W12303  44.992  20.838  14.603
41704W        W12304   1.240  18.272  14.535
41705W        W12305  44.182  26.648  12.359
41706W        W12306  42.405  42.027   0.286
41707W        W12307  36.166   2.622   3.077
41708W        W12308  42.760  19.620   0.307
41709W        W12309  17.658  38.907   3.182
41710W        W12310  37.367  16.167  12.509
41711W        W12311  17.399  28.128  11.926
41712W        W12312  20.674  20.783   0.755
41713W        W12313  40.775  40.276   0.358
41714W        W12314   8.118   1.766  13.303
41715W        W12315  38.342  14.648  11.633
41716W        W12316  18.766  31.382  13.047
41717W        W12317  43.558  16.560  10.761
41718W        W12318  33.579   6.893  10.586
41719W        W12319  29.489  29.646  11.621
41720W        W12320   4.161   3.726  13.005
41721W        W12321  28.676  31.295   2.293
41722W        W12322  11.688   6.122   4.067
41723W        W12323  20.138   3.155  10.874
41724W        W12324  43.882  27.512   2.738
41725W        W12325  17.712  24.454   4.998
41726W        W12326  42.965   0.352   0.294
41727W        W12327   2.807  15.169   0.263
41728W        W12328  15.445  24.567  12.021
41729W        W12329   4.972  30.879   1.728
41730W        W12330   2.199   6.049  13.082
41731W        W12331  19.764  23.021  11.835
41732W        W12332  20.487  34.429   0.817
41733W        W12333  24.826  43.957  10.107
41734W        W12334  17.885   0.475  14.687
41735W        W12335  34.867  37.450   1.268
41736W        W12336   6.194  31.126   0.918
41737W        W12337  40.856  42.212  13.064
41738W        W12338  29.194   2.301   2.257
41739W        W12339  35.101  20.107  12.526
41740W        W12340  43.963  34.213   1.790
41741W        W12341  18.151  19.652   0.505
41742W        W12342  18.648   9.707   4.867
41743W        W12343  12.382  37.342  10.963
41744W        W12344  13.375  31.653   1.882
41745W        W12345  41.060  35.626   2.261
41746W        W12346   1.748  10.859  12.978
41747W        W12347  39.987  18.515  14.441
41748W        W12348  21.576  32.478   3.361
41749W        W12349  22.633   7.473   3.254
41750W        W12350  18.659  18.510   0.977
41751W        W12351  37.061  38.874  11.716
41752W        W12352  43.298  30.172  14.800
41753W        W12353  15.413   0.005  13.767
41754W        W12354  20.098  16.598   0.350
41755W        W12355  17.877  28.164   1.304
41756W        W12356   1.949  15.806  10.713
41757W        W12357   6.916   7.350  13.543
41758W        W12358  35.613  35.634   0.984
41759W        W12359  38.984  19.536  13.435
41760W        W12360  40.595  33.018  11.990
41761W        W12361  20.469  34.089   0.275
41762W        W12362  42.384  22.735  11.661
41763W        W12363  14.184  35.340   1.285
41764W        W12364  44.309  17.838  11.705
41765W        W12365  36.165  25.106  13.550
41766W        W12366  15.593  21.493   3.646
41767W        W12367  24.083   4.138  11.487
41768W        W12368  26.998  15.201   4.505
41769W        W12369  41.010   3.498  14.377
41770W        W12370  36.314  36.350   0.907
41771W        W12371  31.110   2.379  10.629
41772W        W12372  32.500  31.611   0.352
41773W        W12373  12.398  10.597   3.072
41774W        W12374  30.022  15.288   1.967
41775W        W12375  38.591   9.878   2.786
41776W        W12376  40.877  12.352  10.829
41777W        W12377   1.541  40.041   3.732
41778W        W12378  42.057  16.032  10.811
41779W        W12379   8.253  19.760  12.420
41780W        W12380  30.617  15.827   4.787
41781W        W12381   0.519   1.340  11.976
41782W        W12382  38.422  22.508  12.112
41783W        W12383  41.209  37.788   1.911
41784W        W12384  41.276  40.435   3.159
41785W        W12385  24.029  43.607   4.127
41786W        W12386  39.750  28.339   1.732
41787W        W12387   3.731  27.056  11.104
41788W        W12388  27.860  44.565  12.429
41789W        W12389   1.394  15.843  12.973
41790W        W12390  32.397  19.446  12.964
41791W        W12391   3.489   4.679  11.636
41792W        W12392  25.736   6.991  10.215
41793W        W12393  36.992  32.897  11.586
41794W        W12394  40.671  15.817  10.418
41795W        W12395   5.806  11.607  10.379
41796W        W12396  10.213  32.166   3.307
41797W        W12397  40.599  30.111  14.403
41798W        W12398  36.503  28.967  12.526
41799W        W12399  22.706   4.922  13.027
41800W        W12400  44.557   2.445  12.939
41801W        W12401  10.321  13.271  10.689
41802W        W12402  33.558  28.389  13.845
41803W        W12403  14.069  31.141  11.858
41804W        W12404  12.708  29.573   2.559
41805W        W12405  33.599  30.666  14.337
41806W        W12406   8.469  19.883   0.761
41807W        W12407  33.447   1.214  14.361
41808W        W12408   6.649   8.396  10.664
41809W        W12409  20.317  11.808   2.709
41810W        W12410  21.780  35.354  13.151
41811W        W12411  18.994   4.899  11.582
41812W        W12412  31.483  26.685  11.379
41813W        W12413  31.702  25.997   0.093
41814W        W12414   4.754  17.846  12.977
41815W        W12415  16.900  37.054   2.094
41816W        W12416  44.994  18.316  11.163
41817W        W12417  36.036  33.760   4.526
41818W        W12418  16.640   1.679  14.851
41819W        W12419  30.190   6.903   3.807
41820W        W12420  30.808  23.699  11.073
41821W        W12421  34.546  14.429  11.004
41822W        W12422  34.831  21.637   1.830
41823W        W12423  36.088  39.111   3.390
41824W        W12424  43.033   2.244   3.138
41825W        W12425   8.604  26.908   1.463
41826W        W12426  22.147   2.469  11.500
41827W        W12427   9.130   7.816  11.041
41828W        W12428   4.918  17.666   5.056
41829W        W12429  44.347   4.816  11.489
41830W        W12430  25.130  39.456  10.638
41831W        W12431  34.364  24.126   3.599
41832W        W12432  29.150  16.265  10.966
41833W        W12433  40.582  34.413   3.094
41834W        W12434  20.966   7.928  12.941
41835W        W12435  24.742  41.097  11.191
41836W        W12436  26.908  25.078   3.338
41837W        W12437  11.754  34.064   4.102
41838W        W12438  10.748  15.269   0.873
41839W        W12439  30.673   0.419   2.994
41840W        W12440  28.007  32.880  14.301
41841W        W12441  27.459  17.322  14.053
41842W        W12442  15.340  18.194  11.055
41843W        W12443   8.215  33.339  14.671
41844W        W12444  40.014  26.084   4.533
41845W        W12445  39.297  31.183   3.270
41846W        W12446  17.802  20.675   3.233
41847W        W12447  24.231  12.666   0.587
41848W        W12448  22.631  31.877  13.923
41849W        W12449  32.356  40.948  14.687
41850W        W12450  12.111  28.578   0.818
41851W        W12451  12.994   8.644  13.106
41852W        W12452  36.160  37.060  12.794
41853W        W12453  25.252  42.383   4.462
41854W        W12454  27.234   9.563   0.548
41855W        W12455  18.591   4.647  11.420
41856W        W12456  10.152  17.710   3.640
41857W        W12457   4.373  25.004   2.593
41858W        W12458  17.633  27.714   1.250
41859W        W12459  20.675  33.380  12.877
41860W        W12460  20.226  42.326  12.513
41861W        W12461  15.612  11.715  14.026
41862W        W12462  30.008  20.543  11.902
41863W        W12463   5.147  17.539  11.261
41864W        W12464  16.092  40.245  13.440
41865W        W12465  12.221  29.426   2.250
41866W        W12466  12.517  35.971  14.610
41867W        W12467  26.867  25.234  11.178
41868W        W12468  33.381  25.134  13.022
41869W        W12469  32.654  41.336  10.032
41870W        W12470  16.791  18.794   2.103
41871W        W12471  43.703   9.784  11.171
41872W        W12472  27.952  35.434   3.184
41873W        W12473   2.368  18.550   2.451
41874W        W12474  18.644  10.437   4.119
41875W        W12475  36.433  29.729   1.901
41876W        W12476  14.608  22.980  13.816
41877W        W12477   4.155  34.908  13.932
41878W        W12478   8.958  30.535   1.899
41879W        W12479  35.894  31.105   3.356
41880W        W12480   2.340  30.967   0.795
41881W        W12481   0.060  19.299   0.459
41882W        W12482  37.267  32.925  10.753
41883W        W12483  35.495  29.953  14.479
41884W        W12484   5.304   4.468   3.907
41885W        W12485  39.729   9.371   1.811
41886W        W12486  43.064  34.621   1.745
41887W        W12487  15.193  32.538  12.286
41888W        W12488   6.881  33.545   1.165
41889W        W12489  24.092  30.210  13.140
41890W        W12490  30.076  25.239   4.598
41891W        W12491  36.820   5.290   2.319
41892W        W12492  20.877  12.444   2.868
41893W        W12493  44.353  16.267   0.291
41894W        W12494  35.414   7.277   2.756
41895W        W12495  27.178  14.279   4.592
41896W        W12496  36.437  29.113  11.669
41897W        W12497  18.675  26.447  11.677
41898W        W12498   3.079  29.167   4.707
41899W        W12499  10.315  22.194  12.070
41900W        W12500  23.450  14.404   1.768
41901W        W12501  26.116  34.082   4.224
41902W        W12502   5.446  14.893  11.290
41903W        W12503   6.345  34.418   4.567
41904W        W12504  18.735  40.437   4.563
41905W        W12505  16.717   3.481   0.300
41906W        W12506  44.769   2.880   4.553
41907W        W12507  43.471  39.918  10.990
41908W        W12508  36.863  33.993   4.007
41909W        W12509  35.273  15.676   1.788
41910W        W12510  13.615   1.619  11.535
41911W        W12511  12.775   6.833  14.834
41912W        W12512  42.758  19.191   2.655
41913W        W12513   9.833  15.632  11.858
41914W        W12514   7.787  24.738  13.930
41915W        W12515  16.610  12.792  10.241
41916W        W12516  35.031   5.240   4.584
41917W        W12517   0.128  23.107   2.317
41918W        W12518  19.346   0.898   2.678
41919W        W12519  25.608  28.138  13.151
41920W        W12520  13.207  44.779   0.844
41921W        W12521   6.814  15.897  12.405
41922W        W12522   6.273  11.635  12.120
41923W        W12523  16.247  42.909   2.149
41924W        W12524  21.032  12.386  14.336
41925W        W12525  11.767  25.601  13.531
41926W        W12526  19.293  42.505  11.048
41927W        W12527   9.442  24.654   0.366
41928W        W12528  27.050  27.126   3.607
41929W        W12529  33.467  10.756  13.447
41930W        W12530   5.855  35.809  12.095
41931W        W12531  20.613   8.791   0.796
41932W        W12532   1.790  23.073   4.686
41933W        W12533  19.311  36.552  12.565
41934W        W12534  13.223  17.343  11.204
41935W        W12535  41.396  10.569   4.448
41936W        W12536  19.176  39.954  12.343
41937W        W12537  16.059  16.476   0.719
41938W        W12538  24.428  38.397  14.836
41939W        W12539  22.606  21.177   1.640
41940W        W12540  13.850  40.078  13.451
41941W        W12541   6.718  14.570   1.469
41942W        W12542  33.864  18.973  14.433
41943W        W12543  28.393   3.952   4.219
41944W        W12544   4.357  21.807   3.208
41945W        W12545  18.184  16.764   0.192
41946W        W12546   7.800  25.281  11.592
41947W        W12547   7.996  30.912  11.073
41948W        W12548   5.602   6.839   0.758
41949W        W12549  15.168   7.643  10.777
41950W        W12550   6.353  12.499   3.655
41951W        W12551  15.117   4.825  14.032
41952W        W12552  43.286  26.283   1.737
41953W        W12553   6.996  27.571  13.361
41954W        W12554  36.882  37.271   3.219
41955W        W12555  14.606   4.109   4.672
41956W        W12556  29.678   9.314   3.633
41957W        W12557  18.676  29.036   3.544
41958W        W12558  43.462   4.736   4.231
41959W        W12559  37.400  42.500  13.353
41960W        W12560  29.110  35.819  14.814
41961W        W12561  36.494  17.660   3.319
41962W        W12562  20.748  38.151   3.229
41963W        W12563  19.950   3.159   0.460
41964W        W12564  20.054  41.797   3.858
41965W        W12565  38.453   8.592  11.030
41966W        W12566  23.444   9.249   3.186
41967W        W12567   5.711  21.641  14.320
41968W        W12568  20.116   1.799  11.061
41969W        W12569  27.060  15.529  12.450
41970W        W12570  22.758  25.106  14.505
41971W        W12571   8.218  15.734   3.903
41972W        W12572   8.503   2.400   1.271
41973W        W12573   1.228  35.466   3.189
41974W        W12574  17.416  13.159   5.613
41975W        W12575  24.109  38.309   0.361
41976W        W12576  31.956  34.049  10.596
41977W        W12577  26.547  38.321   1.114
41978W        W12578  44.411  34.433  14.466
41979W        W12579  27.875  41.385  10.437
41980W        W12580  17.508  34.091  12.803
41981W        W12581  21.717  42.960  11.207
41982W        W12582  17.847   5.400   1.007
41983W        W12583   6.406  33.520   3.843
41984W        W12584  23.477  37.468   4.667
41985W        W12585  44.866  30.906  12.959
41986W        W12586   1.983   3.534   3.329
41987W        W12587  13.640   1.544  13.934
41988W        W12588  31.929  30.671  14.600
41989W        W12589  23.485  15.135  11.562
41990W        W12590   2.687   5.874   3.314
41991W        W12591  28.781   2.759   2.828
41992W        W12592  24.186  35.729   3.576
41993W        W12593   3.283  29.648   4.697
41994W        W12594  16.308  19.130   1.770
41995W        W12595  39.347  33.383  11.117
41996W        W12596  15.264   9.999  13.020
41997W        W12597  41.730  43.905   3.504
41998W        W12598  18.304   2.319   1.681
41999W        W12599  21.693  28.232   2.652
42000W        W12600  43.974  43.447  12.362
42001W        W12601  10.831  37.911  10.655
42002W        W12602  30.469  42.767   4.166
42003W        W12603  30.248  31.333  11.491
42004W        W12604  22.425  22.250   0.999
42005W        W12605  12.421  15.763  11.611
42006W        W12606  35.856  23.774   1.484
42007W        W12607   0.765  31.691   2.347
42008W        W12608  34.499  19.132   4.169
42009W        W12609  21.236  26.810  11.096
42010W        W12610  17.385  35.572  13.039
42011W        W12611   5.347  36.480   2.102
42012W        W12612  18.881  10.175   1.234
42013W        W12613  12.650   5.708   4.181
42014W        W12614  20.824  17.978  11.169
42015W        W12615  37.905   8.486   4.693
42016W        W12616   5.350   8.785  14.314
42017W        W12617   6.846   1.940  10.809
42018W        W12618  36.963  35.927   4.558
42019W        W12619  31.983   9.388   1.961
42020W        W12620  18.567  10.267  11.516
42021W        W12621  22.151  35.805   2.655
42022W        W12622   3.821  26.215   0.751
42023W        W12623  41.041  27.462  11.137
42024W        W12624  11.393   7.438  13.328
42025W        W12625   1.545  42.495  10.653
42026W        W12626   1.023  23.049  11.477
42027W        W12627   5.930  18.234   1.853
42028W        W12628  17.477  28.493  10.994
42029W        W12629  28.936  15.788  10.882
42030W        W12630   9.976  15.142  12.009
42031W        W12631  26.034  16.256  14.359
42032W        W12632  15.338  32.526   1.790
42033W        W12633  18.206  39.772   3.778
42034W        W12634  43.580  13.237   2.431
42035W        W12635  16.963  32.060   2.753
42036W        W12636  11.683  16.560  12.558
42037W        W12637  38.826  37.837  13.174
42038W        W12638  24.185  44.215  13.496
42039W        W12639  15.829  38.871   4.142
42040W        W12640  35.480  27.555  13.097
42041W        W12641  28.032  13.088  11.871
42042W        W12642  22.297  31.514   1.836
42043W        W12643   7.211  19.654  14.846
42044W        W12644  40.262  37.104   0.890
42045W        W12645  18.249   9.835   4.523
42046W        W12646  39.507  26.854  11.614
42047W        W12647  25.131  39.049  14.537
42048W        W12648  33.562  42.063   3.716
42049W        W12649  38.805   7.239  14.825
42050W        W12650   5.705  29.885  14.359
42051W        W12651  18.755  12.672  11.648
42052W        W12652  29.620   0.641  10.947
42053W        W12653  12.117  28.043   1.409
42054W        W12654   9.405   6.717  13.078
42055W        W12655  26.884  16.818  12.042
42056W        W12656  21.094   1.803   2.303
42057W        W12657  40.838  13.740  14.919
42058W        W12658  30.916  10.435   4.550
42059W        W12659   9.319  12.113   0.313
42060W        W12660   3.641  38.985  14.824
42061W        W12661  20.407  38.106  13.861
42062W        W12662  38.626  19.751  13.743
42063W        W12663  26.659  38.469   4.208
42064W        W12664  25.646  40.366   1.029
42065W        W12665  34.429  19.421  13.432
42066W        W12666  25.716  14.372  11.410
42067W        W12667  30.238  31.491   4.822
42068W        W12668  21.843   7.175   5.179
42069W        W12669  36.149  25.242  10.736
42070W        W12670   9.771  30.960  12.618
42071W        W12671  37.150   3.923   0.713
42072W        W12672  16.612  14.400  14.057
42073W        W12673  11.340  27.506   2.367
42074W        W12674  31.048  32.005   3.588
42075W        W12675  12.808  27.987   1.868
42076W        W12676  15.217  18.054   2.181
42077W        W12677  11.253  18.288  12.821
42078W        W12678   0.384  30.150   0.459
42079W        W12679  41.335  20.643   2.358
42080W        W12680  29.828  39.319   2.669
42081W        W12681  19.600  18.718  12.054
42082W        W12682  30.066  16.885  14.279
42083W        W12683  16.080  34.091   0.506
42084W        W12684   2.258  35.567  13.422
42085W        W12685   0.892   4.923   0.444
42086W        W12686  10.522  13.690  14.911
42087W        W12687  13.586  17.442   4.066
42088W        W12688  36.406  20.089   0.898
42089W        W12689  28.679  18.745  14.798
42090W        W12690  32.158  44.020   2.272
42091W        W12691  24.777   2.829   0.898
42092W        W12692  41.836  10.297  14.378
42093W        W12693   5.781  20.458  13.790
42094W        W12694  42.308  30.096   0.816
42095W        W12695  27.965  33.390  13.188
42096W        W12696  34.184  30.221  12.405
42097W        W12697   7.742  44.445  13.168
42098W        W12698  29.563  13.314  11.892
42099W        W12699  12.690  29.112   1.342
42100W        W12700  37.498  42.060   5.073
42101W        W12701  25.121  31.936   2.387
42102W        W12702  34.097  20.050  12.692
42103W        W12703  15.294  41.000   3.691
42104W        W12704  39.064   7.253   0.286
42105W        W12705  20.888  39.533   0.360
42106W        W12706  35.481   1.885  11.543
42107W        W12707  22.448   2.965   1.379
42108W        W12708   3.318   9.259  11.259
42109W        W12709  29.721  38.564   3.634
42110W        W12710  17.668  27.745   2.646
42111W        W12711  10.413  34.969  10.956
42112W        W12712   5.362  23.990   2.309
42113W        W12713  16.121  15.576  10.489
42114W        W12714  25.977  10.673  12.427
42115W        W12715  17.319   4.557   4.177
42116W        W12716  42.880  29.426   0.288
42117W        W12717  38.167  13.606  12.895
42118W        W12718  20.560  19.656   4.133
42119W        W12719   3.370  38.625   4.636
42120W        W12720  23.374   8.258   1.374
42121W        W12721  29.035  36.408   3.233
42122W        W12722  32.609  19.729  13.364
42123W        W12723   8.662  38.319   1.510
42124W        W12724  31.850  32.631  14.460
42125W        W12725  24.961  12.413   4.184
42126W        W12726   1.989   8.813  12.595
42127W        W12727  44.879  17.279  11.994
42128W        W12728  15.312  40.997   4.576
42129W        W12729  24.511  25.649   2.771
42130W        W12730   1.014  34.836   4.908
42131W        W12731  27.000  34.016  14.874
42132W        W12732  27.255  30.456   1.437
42133W        W12733  27.630   9.196   1.230
42134W        W12734  41.212  10.241  14.063
42135W        W12735  13.499   0.818  14.331
42136W        W12736   1.656  28.405  11.477
42137W        W12737  39.855  18.600   2.169
42138W        W12738  17.326  32.106   1.660
42139W        W12739  42.113  21.275  14.041
42140W        W12740  37.501   4.900  11.495
42141W        W12741  15.783  33.022   4.035
42142W        W12742  25.651  26.474   2.012
42143W        W12743  34.510  31.055  12.560
42144W        W12744  16.688   3.719  14.823
42145W        W12745   4.344  20.955   3.609
42146W        W12746  15.310  40.518  12.953
42147W        W12747  27.190  14.083   1.013
42148W        W12748   2.282   7.855   1.082
42149W        W12749  42.925  10.661   2.271
42150W        W12750  33.211  26.633  11.983
42151W        W12751  14.260   9.920  10.997
42152W        W12752  42.545  11.895  12.111
42153W        W12753  27.017  18.995   0.470
42154W        W12754  12.695  37.108   0.343
42155W        W12755  28.081   4.322   1.352
42156W        W12756  35.020  26.594   0.727
42157W        W12757  12.579  20.052  12.886
42158W        W12758  20.432  37.545   0.402
42159W        W12759  13.067  44.917  12.660
42160W        W12760  40.558  42.266   2.395
42161W        W12761  34.963  30.394   4.127
42162W        W12762   4.931   7.437   0.245
42163W        W12763  30.901  21.242  13.488
42164W        W12764  16.229  14.590   1.816
42165W        W12765   1.394  15.036   1.508
42166W        W12766  22.523  10.379  14.957
42167W        W12767  43.730  38.352   4.525
42168W        W12768  17.040   3.170  11.088
42169W        W12769  17.801  20.250   2.265
42170W        W12770   8.236  28.260   0.129
42171W        W12771  26.934   6.046  13.037
42172W        W12772   3.444   5.383   0.209
42173W        W12773   8.355  35.513   3.149
42174W        W12774  17.081  27.323   4.063
42175W        W12775  31.827  26.290  11.310
42176W        W12776  17.539   4.567   1.436
42177W        W12777  18.139  13.182   1.640
42178W        W12778  41.226  40.205   1.847
42179W        W12779  27.846  41.342   5.040
42180W        W12780   8.050  32.487   0.449
42181W        W12781  13.705  12.344  14.861
42182W        W12782  26.424  11.725  13.882
42183W        W12783   1.861   2.063  12.951
42184W        W12784  41.895  33.426  11.891
42185W        W12785  19.931  42.364   1.203
42186W        W12786  13.820   2.771  14.390
42187W        W12787  32.997   4.354  14.015
42188W        W12788  17.634  41.289   2.607
42189W        W12789  15.832  41.395   1.365
42190W        W12790   9.180   2.607   0.720
42191W        W12791   4.613  14.595  13.044
42192W        W12792  43.986  14.529   2.814
42193W        W12793  14.022  26.803   2.768
42194W        W12794   2.481  37.797  13.061
42195W        W12795  18.813  26.189  14.969
42196W        W12796  30.142  34.520   4.822
42197W        W12797  37.000   8.705  13.342
42198W        W12798   9.241  20.781  13.525
42199W        W12799  29.932  16.130  13.041
42200W        W12800  11.347  28.364   4.727
42201W        W12801  34.009  30.224   3.196
42202W        W12802  18.827  28.427  13.118
42203W        W12803   7.405   3.016   2.278
42204W        W12804  22.522  29.558  14.312
42205W        W12805   0.223  33.123   9.874
42206W        W12806  16.882   9.391   0.409
42207W        W12807  35.372  32.624   1.961
42208W        W12808  14.233  21.550  13.290
42209W        W12809   1.736  28.839   0.253
42210W        W12810  36.048  38.355   0.431
42211W        W12811  13.338  17.143  13.831
42212W        W12812   9.458   0.241   2.705
42213W        W12813  25.174   5.945  14.992
42214W        W12814  18.274  15.933  12.448
42215W        W12815  37.459  29.738   3.155
42216W        W12816  16.111  15.175  14.842
42217W        W12817  43.479  34.835  12.864
42218W        W12818  38.155  41.802  12.061
42219W        W12819  38.284  36.984   2.868
42220W        W12820  39.089  21.274  12.137
42221W        W12821  36.040  24.490  13.379
42222W        W12822  23.117  30.890   3.192
42223W        W12823   0.996  42.539  10.576
42224W        W12824  16.574  23.056  11.455
42225W        W12825  34.508  15.407   4.249
42226W        W12826  18.980  39.558   3.363
42227W        W12827  21.594  17.764   3.648
42228W        W12828  40.858  28.099   1.874
42229W        W12829  26.558  11.289   1.474
42230W        W12830   4.998  25.835  12.879
42231W        W12831   5.449  43.229   3.988
42232W        W12832  31.461   8.699  13.346
42233W        W12833   0.244  27.317   0.384
42234W        W12834  19.539  42.065  10.962
42235W        W12835  36.318  40.666   4.183
42236W        W12836   6.698  43.399   1.964
42237W        W12837   7.589  42.313  11.625
42238W        W12838   5.495  11.277  12.622
42239W        W12839  31.647  33.126   3.758
42240W        W12840  35.402  44.988  12.115
42241W        W12841  19.527  24.479  12.931
42242W        W12842  11.155  31.503   0.968
42243W        W12843   1.619  40.872   3.308
42244W        W12844  10.739  28.894  11.557
42245W        W12845  17.537  38.328  12.454
42246W        W12846  17.278  37.232   1.764
42247W        W12847  21.011  16.602   3.781
42248W        W12848  34.583   3.393   3.265
42249W        W12849  40.755  30.527   4.051
42250W        W12850   9.294   2.864  12.053
42251W        W12851  42.832  12.172  14.306
42252W        W12852  36.992  12.053  10.552
42253W        W12853   7.878  12.259   2.436
42254W        W12854  22.699  14.188   1.238
42255W        W12855  11.805  20.130  14.510
42256W        W12856  32.589  10.849   2.605
42257W        W12857  19.230   7.384  13.375
42258W        W12858  44.498  16.066   3.701
42259W        W12859  10.693  34.496  10.610
42260W        W12860  39.128  32.680   0.869
42261W        W12861  42.538  32.885   1.910
42262W        W12862   1.729  11.510   3.641
42263W        W12863  11.608  44.084   3.743
42264W        W12864   0.334  30.008   3.602
42265W        W12865  11.036  23.988   0.823
42266W        W12866  39.305  24.828   0.742
42267W        W12867  10.681  42.770   3.005
42268W        W12868   8.447   3.237  11.623
42269W        W12869  40.560  25.836   3.651
42270W        W12870   0.882  42.254  12.373
42271W        W12871   8.125  41.329   3.722
42272W        W12872   1.866  10.648  13.873
42273W        W12873   6.527  26.934   1.858
42274W        W12874  19.014  33.499  10.937
42275W        W12875  34.592  26.597   2.787
42276W        W12876  12.120  26.307   5.046
42277W        W12877   3.908   8.279   3.163
42278W        W12878   6.191  38.031   3.975
42279W        W12879  22.004  25.132   2.062
42280W        W12880   2.206  24.981   3.777
42281W        W12881  25.525   4.362   3.827
42282W        W12882  38.283   6.943   0.458
42283W        W12883  16.799   0.436   3.690
42284W        W12884  31.157  44.916   1.271
42285W        W12885   5.311   0.491   3.082
42286W        W12886  34.190  30.145   0.836
42287W        W12887   9.479  30.031   0.228
42288W        W12888   6.841  13.419  13.543
42289W        W12889  32.475  31.702  13.830
42290W        W12890  36.429  16.686   1.855
42291W        W12891  15.168   4.427  13.676
42292W        W12892  13.191   3.954   0.008
42293W        W12893  43.800   9.836   1.271
42294W        W12894  30.434  36.338  10.704
42295W        W12895   8.762  21.739   4.631
42296W        W12896  33.545  18.670   2.483
42297W        W12897  16.340   3.868  11.994
42298W        W12898   9.155  35.995  11.057
42299W        W12899  34.166  13.192   3.726
42300W        W12900  37.940  17.092   2.873
42301W        W12901  40.689  37.879   1.448
42302W        W12902   9.585   1.866  14.392
42303W        W12903   7.249  43.891   2.760
42304W        W12904   7.329   7.640   2.956
42305W        W12905   5.236  40.510   1.682
42306W        W12906  20.562  37.945   2.215
42307W        W12907  24.674   8.593   0.014
42308W        W12908  32.566  30.134   0.475
42309W        W12909   7.682  31.600   2.506
42310W        W12910  26.625  29.738   2.750
42311W        W12911  32.474  44.957   2.566
42312W        W12912  11.912  12.800  11.414
42313W        W12913  12.276  30.899  12.084
42314W        W12914  15.836  31.266  12.651
42315W        W12915  41.645   7.370  12.670
42316W        W12916  23.070  22.099  14.358
42317W        W12917  27.685  34.620   3.164
42318W        W12918   8.640  29.536  14.384
42319W        W12919  11.088  38.037  13.996
42320W        W12920  37.503  20.717  12.974
42321W        W12921  17.706  44.472  11.383
42322W        W12922  27.207  39.463  13.315
42323W        W12923   4.989  19.119  10.425
42324W        W12924  44.839   2.470  13.376
42325W        W12925  43.060  31.126   0.346
42326W        W12926  32.443  31.908  13.221
42327W        W12927  21.617   1.048   1.094
42328W        W12928  37.055  12.206  14.944
42329W        W12929  13.354  34.601   1.341
42330W        W12930  21.519   3.700  12.487
42331W        W12931  37.648  37.782  13.311
42332W        W12932  21.947  19.292  13.361
42333W        W12933  19.157  32.644   3.397
42334W        W12934  44.963  38.270  11.282
42335W        W12935  27.193  30.081   2.362
42336W        W12936   5.145   9.752  13.087
42337W        W12937  12.647  15.809   4.744
42338W        W12938  26.983  12.252  12.452
42339W        W12939   4.677   2.409  12.448
42340W        W12940  34.665  27.033   2.420
42341W        W12941   0.000  41.719   1.391
42342W        W12942  34.591  18.253   2.460
42343W        W12943  44.394  33.088   3.908
42344W        W12944  31.286   7.358  13.131
42345W        W12945  18.716  10.224   4.997
42346W        W12946  25.588  41.252   1.750
42347W        W12947   1.675   9.675   1.396
42348W        W12948  44.474   3.864  13.602
42349W        W12949  37.946   6.123   0.642
42350W        W12950  40.720  39.940   2.070
42351W        W12951  10.666   2.904  12.597
42352W        W12952   7.792   3.673   0.520
42353W        W12953   5.138   6.164   4.786
42354W        W12954  30.001  16.508  10.872
42355W        W12955   8.728  14.859  11.440
42356W        W12956  30.356  22.505   5.158
42357W        W12957  11.355  28.253   1.896
42358W        W12958   3.727  19.944  12.591
42359W        W12959  44.222  22.993   2.597
42360W        W12960  29.622  16.548   1.300
42361W        W12961  40.119  13.797  12.682
42362W        W12962   0.078  39.569  13.478
42363W        W12963   4.633  24.061  13.392
42364W        W12964  14.300  35.237   5.472
42365W        W12965   9.488  30.635  14.032
42366W        W12966  44.038  13.150  11.858
42367W        W12967   0.377   7.165   3.030
42368W        W12968  23.454  43.287  14.756
42369W        W12969  21.768   6.666   1.949
42370W        W12970  43.312  41.620   0.381
42371W        W12971  38.361  20.121  13.478
42372W        W12972  10.856   1.806  13.213
42373W        W12973   5.471   2.014   3.149
42374W        W12974  25.060  31.675  12.451
42375W        W12975  17.569  39.009   3.679
42376W        W12976  12.363  34.172   2.708
42377W        W12977   5.503  26.609  13.384
42378W        W12978  13.072   8.158  14.776
42379W        W12979   2.922  35.413   3.517
42380W        W12980   6.413  22.451   4.537
42381W        W12981  40.629  24.504  12.285
42382W        W12982  32.506   7.265  12.497
42383W        W12983  16.826   4.706  12.088
42384W        W12984  32.423  34.551   1.751
42385W        W12985   9.284  38.952  14.398
42386W        W12986  38.596  44.774  13.918
42387W        W12987  19.133  37.598  11.596
42388W        W12988  33.920   4.359  10.955
42389W        W12989  26.003   3.873   3.359
42390W        W12990  17.453  24.946  10.329
42391W        W12991  35.640   9.770   1.555
42392W        W12992  19.664  12.923   3.331
42393W        W12993   2.951   6.772   3.225
42394W        W12994  12.581  17.057   3.396
42395W        W12995  20.571   3.338   0.630
42396W        W12996  44.291  13.735   0.970
42397W        W12997   7.161  35.963   1.008
42398W        W12998  37.876  17.180  10.074
42399W        W12999   1.807  13.126  12.536
42400W        W13000  22.077  13.686  13.312
42401W        W13001   7.406   6.666  14.506
42402W        W13002  16.659  27.077  12.576
42403W        W13003  27.990  18.138  14.245
42404W        W13004   0.527  18.079  13.853
42405W        W13005  26.124  34.089  10.548
42406W        W13006  42.783   7.658  13.981
42407W        W13007  21.021   0.482  10.779
42408W        W13008  32.447   9.388   2.384
42409W        W13009  19.314   9.438   2.748
42410W        W13010  11.412  36.041   2.707
42411W        W13011  40.556  36.563  13.832
42412W        W13012  35.145   9.481  14.359
42413W        W13013  40.116  10.715  13.116
42414W        W13014  33.133  35.527  10.520
42415W        W13015  32.695  29.683  14.487
42416W        W13016  44.074   2.798   0.966
42417W        W13017  30.527   9.772  10.894
42418W        W13018  14.745  13.740   3.562
42419W        W13019   5.539  33.418  14.282
42420W        W13020  10.667  17.395  13.460
42421W        W13021  25.107   6.881  12.857
42422W        W13022   5.448  42.006  14.522
42423W        W13023  31.970  25.829  11.143
42424W        W13024   0.386  36.464  10.583
42425W        W13025  26.226  10.378   1.289
42426W        W13026   5.142  21.469  13.486
42427W        W13027   1.829  28.197   2.769
42428W        W13028  10.126  25.556   4.201
42429W        W13029  31.436  16.262   4.140
42430W        W13030  14.091  16.745  11.554
42431W        W13031  23.930   2.475  12.653
42432W        W13032   5.339  20.619   3.673
42433W        W13033  41.376   4.384   1.376
42434W        W13034  35.048   4.830   2.826
42435W        W13035  14.785  16.987  12.925
42436W        W13036  11.202  35.480   2.109
42437W        W13037  16.986   8.507  11.648
42438W        W13038   5.852  19.720   4.654
42439W        W13039  30.593  30.121   4.194
42440W        W13040  35.382   7.684  14.878
42441W        W13041  41.764  15.582   4.582
42442W        W13042  14.222  19.554  12.470
42443W        W13043  32.409  23.171  12.723
42444W        W13044  24.030   5.947   0.270
42445W        W13045   6.642   0.254  13.327
42446W        W13046  14.822  16.072  12.466
42447W        W13047  27.646   6.364   4.168
42448W        W13048  40.063  42.596  14.609
42449W        W13049  23.596  44.748  11.008
42450W        W13050  26.680   2.489  12.912
42451W        W13051  41.490  35.371   2.363
42452W        W13052   6.981  36.853   4.145
42453W        W13053  12.695  33.346  13.244
42454W        W13054  11.993  32.378  10.625
42455W        W13055  23.504  37.723   1.392
42456W        W13056  37.512   8.645   4.320
42457W        W13057  20.262  16.254   2.427
42458W        W13058  28.121   5.872  12.523
42459W        W13059   6.178  36.506   3.646
42460W        W13060  39.119  35.420  14.560
42461W        W13061  38.970  27.454   1.230
42462W        W13062  22.200  28.413   4.208
42463W        W13063  30.886  10.496  11.002
42464W        W13064  22.638  31.294  10.385
42465W        W13065  36.908  44.690   1.756
42466W        W13066  21.691  12.222   2.411
42467W        W13067  29.185  39.361  12.071
42468W        W13068  32.047  33.463   3.773
42469W        W13069  27.274  21.229  11.938
42470W        W13070   0.355  12.862  12.957
42471W        W13071   7.026  37.429  11.113
42472W        W13072  34.957  21.149   3.713
42473W        W13073  20.018   9.923   2.437
42474W        W13074  12.065  37.726   3.234
42475W        W13075  29.912  35.762  11.799
42476W        W13076  10.716   1.631   4.106
42477W        W13077  31.325  26.037  14.193
42478W        W13078  41.895  44.322   0.353
42479W        W13079  39.960  32.649   0.370
42480W        W13080  36.970  28.422   2.180
42481W        W13081   7.240  20.603  12.039
42482W        W13082  21.594   3.642  14.327
42483W        W13083   0.106   9.997  11.251
42484W        W13084  23.512   9.845   4.301
42485W        W13085  43.396  14.004   0.208
42486W        W13086  11.693   9.127   1.728
42487W        W13087  44.696   3.435  13.378
42488W        W13088  36.535  38.942  13.954
42489W        W13089  38.966   3.701  13.500
42490W        W13090  18.733  24.866   0.271
42491W        W13091  19.962  15.551  13.456
42492W        W13092  34.911  15.752  13.715
42493W        W13093   9.769  11.152  12.170
42494W        W13094  37.392  16.692   3.914
42495W        W13095  44.104  34.657  13.441
42496W        W13096  34.085  39.284   9.661
42497W        W13097  44.960  35.504   9.959
42498W        W13098  20.161  42.611  10.442
42499W        W13099   9.639  28.181  11.574
42500W        W13100  39.462  19.788  13.406
42501W        W13101  17.354  18.532   0.374
42502W        W13102  34.481  17.771  11.117
42503W        W13103  27.724  31.056  13.238
42504W        W13104  20.685  20.043  12.765
42505W        W13105  11.698   7.538  11.197
42506W        W13106   2.264  16.694  14.384
42507W        W13107  16.747  16.254  11.382
42508W        W13108  12.662  39.080  10.654
42509W        W13109  21.732   8.742  14.556
42510W        W13110   7.152  18.762   3.110
42511W        W13111   4.704  22.859  11.724
42512W        W13112  11.078  12.333  12.049
42513W        W13113  32.339  26.294  13.365
42514W        W13114  22.612   4.816  14.953
42515W        W13115  32.077  29.249   3.197
42516W        W13116  32.194   8.026   4.112
42517W        W13117   2.775  40.560  14.371
42518W        W13118  15.233   7.501   4.667
42519W        W13119  11.991  42.543  12.434
42520W        W13120  30.131  31.868  14.996
42521W        W13121  23.017  15.165  12.471
42522W        W13122  21.992  10.854  14.300
42523W        W13123  18.794  19.989   2.640
42524W        W13124  21.442  40.093  14.443
42525W        W13125  14.983  17.156   2.712
42526W        W13126  20.629  35.073   3.284
42527W        W13127  27.184  19.780  12.828
42528W        W13128  23.933  27.709   3.298
42529W        W13129  15.881  31.691   0.459
42530W        W13130  17.224  10.157  14.961
42531W        W13131   9.832  14.597   4.906
42532W        W13132  36.045  10.231  13.509
42533W        W13133  16.254  30.968  12.570
42534W        W13134  36.936  20.528   2.694
42535W        W13135   8.234  41.821   3.682
42536W        W13136   7.671  33.643  12.459
42537W        W13137  30.149   6.352  12.323
42538W        W13138  41.847  33.321   3.434
42539W        W13139  21.497  28.402  11.947
42540W        W13140  34.100   3.183  14.028
42541W        W13141  11.216  23.718  12.835
42542W        W13142  42.058   9.353  10.720
42543W        W13143  24.933  35.416  12.791
42544W        W13144  21.567  28.450   1.304
42545W        W13145   9.838  34.105  13.904
42546W        W13146  41.224  14.188  11.946
42547W        W13147  39.470   2.475  14.387
42548W        W13148   0.437   1.294   4.659
42549W        W13149  12.853  43.898  14.408
42550W        W13150  16.030  41.944   5.325
42551W        W13151   1.181  21.713   2.179
42552W        W13152  20.803   4.375   0.009
42553W        W13153  24.835  40.926   2.444
42554W        W13154  22.733  34.956   3.581
42555W        W13155  39.932  41.889   4.611
42556W        W13156  43.844  28.648  11.167
42557W        W13157   7.965  15.182  13.519
42558W        W13158  26.112  31.644   0.869
42559W        W13159  14.316  29.693  13.962
42560W        W13160  31.584  20.706  14.040
42561W        W13161  26.572  18.655  12.236
42562W        W13162  42.765  26.713  11.842
42563W        W13163  39.939  44.456   1.408
42564W        W13164  33.801  36.528   0.820
42565W        W13165  44.217  44.652   2.433
42566W        W13166  17.518   6.125   1.510
42567W        W13167  25.492  32.565  12.683
42568W        W13168  10.847  43.176  14.990
42569W        W13169  20.163  14.844   4.129
42570W        W13170  42.962   1.789   4.092
42571W        W13171  26.033  13.761   1.597
42572W        W13172  44.507  12.296   1.663
42573W        W13173   3.392   8.669   2.315
42574W        W13174   8.400  15.119   3.091
42575W        W13175   7.909  36.790  13.760
42576W        W13176  26.178   3.472  12.455
42577W        W13177  13.594  16.276   1.264
42578W        W13178  33.471  18.360   4.711
42579W        W13179  30.375  42.013  11.447
42580W        W13180  27.994  27.217  12.800
42581W        W13181  20.239   8.097  12.585
42582W        W13182  32.601  36.857  10.674
42583W        W13183  23.102  20.855  13.873
42584W        W13184  25.499  17.313  14.924
42585W        W13185  41.859  27.900   0.389
42586W        W13186  43.515  10.273  10.967
42587W        W13187  40.506   6.219   4.569
42588W        W13188  39.294   9.231  14.477
42589W        W13189   2.912   0.485   0.355
42590W        W13190  12.455  22.961  14.530
42591W        W13191  13.620  21.707  14.717
42592W        W13192   0.358   8.381  12.584
42593W        W13193  31.521  36.947   0.605
42594W        W13194   7.702   6.914  13.562
42595W        W13195  14.087  44.526   4.610
42596W        W13196   1.274  41.483   2.699
42597W        W13197   8.324   5.697   1.329
42598W        W13198  42.015   0.424   1.441
42599W        W13199  23.503  34.431  12.959
42600W        W13200  12.078  18.166   4.101
42601W        W13201   4.318  44.013  12.815
42602W        W13202  26.157  11.790   2.242
42603W        W13203   8.846  26.481  12.895
42604W        W13204  35.458  35.695  14.702
42605W        W13205  33.741  25.693  10.606
42606W        W13206  19.084  26.026   2.152
42607W        W13207  35.119  11.383  13.532
42608W        W13208  25.549  19.799  14.592
42609W        W13209  37.559  19.093   3.178
42610W        W13210  36.960   2.966  10.880
42611W        W13211  27.123  41.111   3.625
42612W        W13212  20.194  26.719  14.979
42613W        W13213  27.691   9.284   0.374
42614W        W13214  17.722   6.307  13.688
42615W        W13215  40.450  17.757   3.925
42616W        W13216  20.590   8.578   3.111
42617W        W13217  11.687  26.215   0.412
42618W        W13218  19.559   9.897   2.671
42619W        W13219  44.042  41.344   4.629
42620W        W13220  44.151   1.504   4.208
42621W        W13221  30.201  10.891   3.200
42622W        W13222   2.530   7.814  10.467
42623W        W13223  15.945  41.822   4.001
42624W        W13224  34.388  44.437   1.178
42625W        W13225  16.129  31.859   1.855
42626W        W13226  29.542  15.493   1.739
42627W        W13227   9.652  31.167   2.099
42628W        W13228  34.400  41.533   4.402
42629W        W13229  13.192  34.040   4.727
42630W        W13230   3.466  15.376   3.569
42631W        W13231   2.389  12.732  12.144
42632W        W13232   9.353  10.967  11.380
42633W        W13233  14.072   4.718  12.520
42634W        W13234  30.922  36.963   3.482
42635W        W13235  24.162  40.937   3.227
42636W        W13236  17.785   1.453   0.315
42637W        W13237   9.875   4.549  11.047
42638W        W13238  33.387  26.138  11.996
42639W        W13239  24.540  37.353  12.875
42640W        W13240  21.618  29.361  14.422
42641W        W13241  41.396   0.567  11.481
42642W        W13242  10.266   8.230  12.714
42643W        W13243  12.058  35.593  12.782
42644W        W13244  36.240  43.127   5.038
42645W        W13245   7.268   9.867   4.580
42646W        W13246  27.407  35.193   1.922
42647W        W13247  24.121  22.100  14.142
42648W        W13248  33.088  15.934   0.968
42649W        W13249  21.989  26.086   2.472
42650W        W13250   1.034   9.658  12.018
42651W        W13251  20.433  12.644  13.599
42652W        W13252   0.876  41.861   0.929
42653W        W13253  37.459  37.304  13.455
42654W        W13254  36.551  19.187   2.323
42655W        W13255  44.955  17.540  14.013
42656W        W13256  24.762  41.794   1.872
42657W        W13257   1.907  20.665   4.759
42658W        W13258  10.259   0.974  14.940
42659W        W13259  14.756  21.154   3.666
42660W        W13260   5.839  22.280  12.686
42661W        W13261  33.043   9.703   4.083
42662W        W13262   4.045  13.559  12.547
42663W        W13263   5.830  12.181   1.982
42664W        W13264  22.454  19.766   3.656
42665W        W13265   8.675  33.512  14.840
42666W        W13266  39.866  30.521  14.720
42667W        W13267   2.797  13.195   3.564
42668W        W13268   1.934   6.707   3.206
42669W        W13269  40.354  27.954   1.891
42670W        W13270  31.537  43.316   2.754
42671W        W13271  37.810  17.545  14.533
42672W        W13272  43.712  17.732   1.296
42673W        W13273  27.336  25.989   4.011
42674W        W13274  13.250   9.667  10.706
42675W        W13275  31.923  27.171  12.468
42676W        W13276  19.692   2.387  12.679
42677W        W13277   6.261  30.649   4.176
42678W        W13278  31.050  19.424  13.589
42679W        W13279   6.167   4.486  11.525
42680W        W13280   6.387  19.664   0.431
42681W        W13281  20.818   9.269  11.999
42682W        W13282  31.155   3.928  11.103
42683W        W13283  14.754  39.246   1.747
42684W        W13284  16.260  41.218   4.595
42685W        W13285   8.125  17.017  13.944
42686W        W13286   8.371  27.079   2.810
42687W        W13287  33.911  12.717  14.863
42688W        W13288  25.041  20.795  11.232
42689W        W13289   5.154  32.457   3.812
42690W        W13290  10.142  18.682   1.681
42691W        W13291  31.150  32.904   3.753
42692W        W13292  27.061  16.624   0.512
42693W        W13293  17.323  43.595   1.468
42694W        W13294  34.460  32.260   1.837
42695W        W13295  24.475   0.462   3.639
42696W        W13296  25.549  24.103   3.869
42697W        W13297  15.023  43.025  13.972
42698W        W13298  44.058  35.229  10.434
42699W        W13299  31.839  24.261  13.984
42700W        W13300   9.638  28.550   1.444
42701W        W13301  19.754  15.232   0.922
42702W        W13302  11.839  26.875  11.088
42703W        W13303  18.159  10.492  14.268
42704W        W13304  27.186  43.334   3.632
42705W        W13305  17.146   1.197   2.757
42706W        W13306  38.441  44.315  12.445
42707W        W13307  19.731  25.466  13.567
42708W        W13308   7.043  26.377  14.605
42709W        W13309  12.260  30.973   0.472
42710W        W13310  38.424  17.302   2.766
42711W        W13311  20.226  17.286  14.768
42712W        W13312  39.828  24.727   0.796
42713W        W13313   0.293  33.525   4.141
42714W        W13314  27.265   9.852   0.969
42715W        W13315  22.246   5.813   0.823
42716W        W13316  19.282   4.902  10.160
42717W        W13317  38.673  40.902   3.320
42718W        W13318  25.098  41.807  12.170
42719W        W13319  26.049  17.734  14.924
42720W        W13320  18.304  28.044   3.824
42721W        W13321  14.844  34.590   1.451
42722W        W13322  32.074  12.212   1.148
42723W        W13323  18.486  29.997  14.072
42724W        W13324  26.196  11.691  12.094
42725W        W13325  16.931  35.028   5.025
42726W        W13326   1.986  23.845  12.554
42727W        W13327  10.269  33.863   2.703
42728W        W13328  26.104   5.420  12.946
42729W        W13329  40.450   9.210   4.846
42730W        W13330   2.585  34.137   3.175
42731W        W13331  12.774  12.574  12.540
42732W        W13332  27.156  33.444   1.943
42733W        W13333  15.308   2.717  13.493
42734W        W13334  15.050  30.871  10.965
42735W        W13335   3.463  11.037  11.893
42736W        W13336   7.394   8.900  13.457
42737W        W13337  43.276   8.448  11.808
42738W        W13338  21.615  20.739  11.626
42739W        W13339  16.087   4.438   1.491
42740W        W13340   0.924   2.858   3.313
42741W        W13341  30.832  42.707  14.985
42742W        W13342   6.285  12.301  12.826
42743W        W13343  12.246  34.006  12.238
42744W        W13344  33.915   9.646  10.709
42745W        W13345  42.018  20.257   1.744
42746W        W13346  20.751  14.353   0.776
42747W        W13347  14.836  41.659   4.178
42748W        W13348  17.134  34.947  10.120
42749W        W13349  42.894  17.361   4.482
42750W        W13350  24.403  41.511  12.851
42751W        W13351  15.283   7.870   2.862
42752W        W13352  19.049  34.017  14.962
42753W        W13353  23.760  40.280   1.780
42754W        W13354  38.430  12.524   3.120
42755W        W13355  32.954   1.893  12.542
42756W        W13356  31.950  26.200   4.373
42757W        W13357  11.762  42.698   1.695
42758W        W13358  42.733  24.401   2.262
42759W        W13359  18.197   7.872   4.154
42760W        W13360  25.624  34.564   5.375
42761W        W13361   6.466  13.311   3.392
42762W        W13362   6.736  33.466   3.046
42763W        W13363   1.351   8.743   2.982
42764W        W13364  11.705  24.830   4.989
42765W        W13365  40.765  15.587  14.767
42766W        W13366  42.386  43.740  14.871
42767W        W13367  15.644  33.079   4.935
42768W        W13368  37.788   5.810   2.343
42769W        W13369  30.238  26.665   3.206
42770W        W13370   5.316  34.354   3.640
42771W        W13371  26.028  25.197  11.006
42772W        W13372  18.670   5.683  11.409
42773W        W13373  18.486  43.220   0.010
42774W        W13374  10.568  13.765  13.555
42775W        W13375   3.144  28.480   4.363
42776W        W13376  10.664   0.988  11.108
42777W        W13377  19.279  42.887   5.215
42778W        W13378   1.395   8.477  14.706
42779W        W13379  15.129  12.639  12.076
42780W        W13380  10.022  11.858   0.977
42781W        W13381   3.221  40.999   1.210
42782W        W13382  17.891  21.579   0.712
42783W        W13383  28.717  34.474   4.133
42784W        W13384   5.275  34.054   2.181
42785W        W13385  29.087   8.679   0.881
42786W        W13386  21.224  25.632   2.263
42787W        W13387  25.096  33.475  12.413
42788W        W13388  22.660  37.905   2.495
42789W        W13389  33.298  24.258  12.275
42790W        W13390   5.725  15.701  13.565
42791W        W13391   9.452  21.789  11.154
42792W        W13392  16.129   2.123  11.133
42793W        W13393  40.425  28.780   4.191
42794W        W13394  12.705   2.909   0.967
42795W        W13395  14.475   0.493   4.696
42796W        W13396  24.312  12.281  14.179
42797W        W13397  30.261  11.772  14.164
42798W        W13398  40.468  18.714  11.995
42799W        W13399  15.830  14.327  10.250
42800W        W13400  30.129  37.737  11.542
42801W        W13401  20.340  41.389   2.775
42802W        W13402   8.345  43.833   1.289
42803W        W13403  20.996  11.861   2.253
42804W        W13404  43.468  15.222   4.301
42805W        W13405  30.069  36.097  10.414
42806W        W13406  40.204  29.965   0.507
42807W        W13407  18.994  28.679  11.178
42808W        W13408  36.051  43.376   4.200
42809W        W13409  26.387  18.183  12.027
42810W        W13410  11.582   2.349  12.060
42811W        W13411  28.995  37.626  14.456
42812W        W13412  18.296  15.802   1.932
42813W        W13413  14.625  19.322   1.760
42814W        W13414  21.056  38.335   0.050
42815W        W13415  29.728  11.301   4.085
42816W        W13416  17.760  11.651  10.636
42817W        W13417  29.431  43.271  13.744
42818W        W13418  36.011  19.456  14.765
42819W        W13419  35.155  43.981  13.133
42820W        W13420  35.391  16.555   2.769
42821W        W13421  13.811   6.594   1.359
42822W        W13422   8.179  42.424   4.773
42823W        W13423  28.217  16.127  11.977
42824W        W13424  40.877   5.424   0.425
42825W        W13425  34.858   4.388  11.893
42826W        W13426   9.792  15.131  12.509
42827W        W13427  16.197  36.538  11.545
42828W        W13428   2.808  25.276  12.109
42829W        W13429  29.455  11.426   2.204
42830W        W13430  41.891  11.355   3.135
42831W        W13431  41.363  31.162  13.975
42832W        W13432  22.599   3.340   0.174
42833W        W13433  44.729   0.369  10.992
42834W        W13434  20.300  39.679   0.932
42835W        W13435   3.355  24.639  11.063
42836W        W13436  43.329  14.189   3.764
42837W        W13437  37.433  12.037   1.753
42838W        W13438  18.133   4.440  13.975
42839W        W13439   4.673  31.415  13.902
42840W        W13440  33.581  20.993  13.867
42841W        W13441  20.245  19.558  14.478
42842W        W13442  18.993  34.463   2.248
42843W        W13443  10.205  14.571   4.053
42844W        W13444  23.196  39.437  11.629
42845W        W13445  21.758  32.852  14.842
42846W        W13446  17.855  24.664   4.548
42847W        W13447  41.307   6.497   5.017
42848W        W13448  38.228   1.451  13.580
42849W        W13449  33.030  41.881  12.188
42850W        W13450  22.032  43.310   4.692
42851W        W13451  39.065  27.577   2.630
42852W        W13452   5.220  44.517   0.043
42853W        W13453  18.848  40.357  12.427
42854W        W13454  20.397  43.502  12.413
42855W        W13455   7.931  26.071  14.967
42856W        W13456  25.865  14.683   3.352
42857W        W13457  35.256   1.742   4.032
42858W        W13458  22.772   0.255   2.262
42859W        W13459  17.725  26.231   2.932
42860W        W13460  27.681  24.541  13.157
42861W        W13461   4.658   9.784  11.586
42862W        W13462  20.828  22.116  11.927
42863W        W13463  10.789  37.064   2.367
42864W        W13464  30.753  32.608   4.646
42865W        W13465   2.369  13.412   0.310
42866W        W13466   7.254  43.549  13.931
42867W        W13467  30.063  35.879  12.781
42868W        W13468   6.602  31.115  14.882
42869W        W13469  40.043  26.854  14.810
42870W        W13470   4.273  33.798   0.776
42871W        W13471  23.872  16.782   1.745
42872W        W13472  22.714  19.479  11.569
42873W        W13473  22.294  33.529   1.380
42874W        W13474  13.546  15.205  11.353
42875W        W13475  33.511  11.592   5.036
42876W        W13476  17.606  15.773  14.002
42877W        W13477   8.432  18.992   3.232
42878W        W13478  11.664  36.044   0.886
42879W        W13479  37.653  42.519  10.477
42880W        W13480   5.544  27.068   3.668
42881W        W13481  35.637  19.807   1.894
42882W        W13482  30.739  22.180  10.752
42883W        W13483  28.104  20.856  14.380
42884W        W13484  27.692  15.598   2.739
42885W        W13485  31.039  23.693  11.530
42886W        W13486  33.445   7.619  11.041
42887W        W13487  34.918   5.385   1.668
42888W        W13488   5.244  40.534   9.915
42889W        W13489   2.845   5.247  14.312
42890W        W13490  38.547  36.502  10.836
42891W        W13491  37.325  40.830  13.337
42892W        W13492  10.447  25.244   2.626
42893W        W13493  18.558  41.504   0.929
42894W        W13494   6.012  17.239   1.749
42895W        W13495  16.565   6.722   0.749
42896W        W13496   2.707   1.727   1.853
42897W        W13497  13.749  19.171   1.888
42898W        W13498   4.260  26.270   4.869
42899W        W13499  34.881  41.797   0.840
42900W        W13500  31.213  25.599   4.259
42901W        W13501  38.920   2.164  13.488
42902W        W13502   2.082  25.200  12.479
42903W        W13503  39.338  13.164  11.658
42904W        W13504   5.692  17.119  10.620
42905W        W13505  15.744  20.245   1.663
42906W        W13506  12.384  24.560   3.433
42907W        W13507  26.522  13.287   2.080
42908W        W13508   9.292  26.603  12.588
42909W        W13509  29.622  33.660  10.939
42910W        W13510  15.441   1.356   0.646
42911W        W13511  36.822  42.425  10.970
42912W        W13512  37.047  22.169  10.576
42913W        W13513  40.629  10.819  14.845
42914W        W13514  29.824  19.066   3.765
42915W        W13515  42.513  36.113  12.758
42916W        W13516  28.569  19.264  14.150
42917W        W13517  29.587  44.857  12.302
42918W        W13518   7.280   2.240   3.149
42919W        W13519   4.313  19.090   3.755
42920W        W13520  22.152  14.145  13.566
42921W        W13521  33.134  20.672  10.710
42922W        W13522   8.430  23.129   3.819
42923W        W13523  44.864  23.181  13.287
42924W        W13524  23.646  19.492  14.829
42925W        W13525   6.985  24.285   0.362
42926W        W13526  12.681   9.699  14.476
42927W        W13527   0.430  35.145   0.417
42928W        W13528  12.705  34.219   0.873
42929W        W13529   5.772  11.704   2.609
42930W        W13530  12.686  32.913   1.618
42931W        W13531  33.134  12.341   3.239
42932W        W13532  24.316  13.856   4.185
42933W        W13533   8.320  25.603  10.660
42934W        W13534   3.189  25.635   0.680
42935W        W13535   4.456  34.911   2.249
42936W        W13536  34.574  15.264   1.304
42937W        W13537  19.150  27.571   4.995
42938W        W13538  33.780  42.288   1.433
42939W        W13539   3.925  37.050   3.126
42940W        W13540  18.802  40.462   4.054
42941W        W13541  34.995   9.839   3.809
42942W        W13542  16.870  27.623  12.447
42943W        W13543  36.835  21.690   0.102
42944W        W13544  23.769  21.708  14.950
42945W        W13545  27.344  42.083  14.109
42946W        W13546  17.513  42.859   0.818
42947W        W13547  12.180  40.231   3.289
42948W        W13548   5.692   8.647   1.702
42949W        W13549  44.214  21.628   0.683
42950W        W13550  39.054  43.103  10.777
42951W        W13551  20.278  42.691  14.896
42952W        W13552  18.537  26.176  12.172
42953W        W13553   6.218  38.017   1.747
42954W        W13554  14.347  18.844   5.220
42955W        W13555  21.665  11.937  13.785
42956W        W13556  43.817  40.940  13.395
42957W        W13557   6.806  40.466  13.067
42958W        W13558  14.688  28.192   2.675
42959W        W13559   2.271  35.097   4.527
42960W        W13560  10.181  42.985  13.699
42961W        W13561   6.094  34.901  11.397
42962W        W13562  13.054   3.339  11.179
42963W        W13563  42.000  26.583  10.726
42964W        W13564  41.895  24.059   0.346
42965W        W13565  24.527  36.871  14.436
42966W        W13566  12.320  33.885   1.641
42967W        W13567   0.726  40.439   2.971
42968W        W13568  43.828  15.314   3.907
42969W        W13569   6.503  24.762   2.270
42970W        W13570  23.615   1.152   3.481
42971W        W13571  10.347  14.608   1.460
42972W        W13572  33.503   3.578   9.908
42973W        W13573  15.653  26.752  10.791
42974W        W13574  30.170  31.438   3.873
42975W        W13575  20.175  21.439  10.975
42976W        W13576  44.475   7.230   3.586
42977W        W13577  11.162  31.819   2.752
42978W        W13578  11.650  23.089   3.666
42979W        W13579  30.524  30.773   1.920
42980W        W13580  13.556  32.198   1.766
42981W        W13581  22.885  39.643   3.244
42982W        W13582   5.659   9.388   4.405
42983W        W13583  19.334  28.891  13.883
42984W        W13584  44.384  27.995   4.279
42985W        W13585  43.306  11.083   1.414
42986W        W13586  35.345  38.515   0.962
42987W        W13587  44.798  30.832   2.346
42988W        W13588  39.996  33.484  13.277
42989W        W13589   9.187   8.735  14.858
42990W        W13590   3.727  23.447   4.426
42991W        W13591  41.936   8.220  13.813
42992W        W13592   1.498  40.141  12.981
42993W        W13593  28.642  28.570   4.654
42994W        W13594   5.338  17.054   1.275
42995W        W13595  28.913  42.425   2.964
42996W        W13596  12.850  26.210  10.644
42997W        W13597  34.518   8.577   3.225
42998W        W13598   1.924   5.874   0.397
42999W        W13599  36.873   8.754   0.241
43000W        W13600  12.703  11.347   2.230
43001W        W13601  28.894  40.938  11.608
43002W        W13602  23.346  35.385  14.501
43003W        W13603  11.257   9.897  11.132
43004W        W13604  30.985  15.022   2.214
43005W        W13605  40.202   7.780  13.365
43006W        W13606  10.387  10.371  13.119
43007W        W13607  16.182  40.422   0.924
43008W        W13608   4.395  40.263  11.997
43009W        W13609  11.850  39.487  10.304
43010W        W13610   3.353  10.664  10.688
43011W        W13611  14.107  17.160  12.476
43012W        W13612  18.165  15.406   2.379
43013W        W13613   2.857  42.735  13.472
43014W        W13614   0.850   8.829   4.225
43015W        W13615  44.273  30.606   0.544
43016W        W13616  39.183  42.727  13.794
43017W        W13617  13.787  16.625  13.171
43018W        W13618  36.618  43.553   1.506
43019W        W13619  19.811   1.291  12.055
43020W        W13620  17.510  26.583   2.333
43021W        W13621  19.352   6.786   3.282
43022W        W13622  36.758  40.752   0.319
43023W        W13623  36.174  36.306   0.376
43024W        W13624   2.888  44.131   3.270
43025W        W13625  16.534   7.972   4.151
43026W        W13626  17.252  38.713   2.910
43027W        W13627  15.074  10.956  12.100
43028W        W13628  10.175   6.671   2.365
43029W        W13629  19.724   3.350   1.477
43030W        W13630   4.003  43.011   1.620
43031W        W13631  10.929  38.828   4.719
43032W        W13632   9.203  25.775   1.833
43033W        W13633   6.254  10.961   2.565
43034W        W13634   7.970  35.371   4.744
43035W        W13635  16.834  14.162  11.670
43036W        W13636   3.249   3.193  11.132
43037W        W13637   0.695  28.920   2.876
43038W        W13638   3.919  37.961  13.826
43039W        W13639   4.193  32.130   2.684
43040W        W13640  20.092  31.403   1.307
43041W        W13641  13.160   9.621  11.543
43042W        W13642  16.181  44.861  13.104
43043W        W13643   0.379  32.150  12.108
43044W        W13644   3.770  25.185  12.334
43045W        W13645  12.290  31.399  11.862
43046W        W13646  24.739  36.379  11.504
43047W        W13647  34.644  27.057  10.770
43048W        W13648  14.266  40.083   3.170
43049W        W13649  19.038  25.420  12.407
43050W        W13650  21.049  17.310   0.866
43051W        W13651  36.388  20.674   0.129
43052W        W13652   3.846  19.715  11.195
43053W        W13653  14.164  37.474  13.910
43054W        W13654  29.198  19.090   4.682
43055W        W13655  38.830  30.116  14.826
43056W        W13656  29.420  33.319   5.090
43057W        W13657   9.268   3.121  13.858
43058W        W13658  38.819  33.604   3.236
43059W        W13659  42.001  33.871   4.743
43060W        W13660  13.828  13.265  14.200
43061W        W13661   2.536  35.390   0.275
43062W        W13662  31.684  17.659  12.025
43063W        W13663   3.428  12.551   2.362
43064W        W13664  38.795   6.725  11.023
43065W        W13665  38.102  43.437   1.258
43066W        W13666  22.961  30.410  13.980
43067W        W13667  33.734  29.972  12.401
43068W        W13668  17.458  36.049  11.754
43069W        W13669  35.837  17.732  14.382
43070W        W13670   2.143  21.081   1.438
43071W        W13671  43.952  21.395   3.574
43072W        W13672  29.064   3.409   0.862
43073W        W13673  12.843  44.013   5.051
43074W        W13674  24.801  30.152  11.491
43075W        W13675   5.902  32.555   2.682
43076W        W13676  40.951  21.063   4.084
43077W        W13677  30.568  13.721  11.548
43078W        W13678   1.227   3.823   4.599
43079W        W13679  30.719  44.991  13.441
43080W        W13680  19.565  19.639   0.792
43081W        W13681  44.214  23.006  14.763
43082W        W13682  23.763  32.981   2.707
43083W        W13683  16.300   6.916  14.424
43084W        W13684  35.272  17.674  11.523
43085W        W13685  44.580  20.577   4.190
43086W        W13686   8.849  11.376   1.386
43087W        W13687  34.532  28.258   0.851
43088W        W13688  13.714  15.730   3.803
43089W        W13689  26.790  18.768  13.535
43090W        W13690   6.225  44.195  14.892
43091W        W13691  41.495  42.022  12.083
43092W        W13692  29.427  12.843  12.519
43093W        W13693   4.345   3.983  12.529
43094W        W13694   0.748  19.066   4.516
43095W        W13695  39.852  44.474  13.470
43096W        W13696  10.587  18.260  14.171
43097W        W13697  27.677  15.386  12.956
43098W        W13698   6.139  37.130   0.659
43099W        W13699  15.382  31.850  14.904
43100W        W13700  14.171  13.836   0.763
43101W        W13701  11.702  37.395   1.295
43102W        W13702  13.242   6.950  12.416
43103W        W13703  17.846  37.057   4.343
43104W        W13704  39.866  38.376  14.551
43105W        W13705  14.730  41.972  13.606
43106W        W13706  36.087  43.435  11.621
43107W        W13707  11.673  21.570   3.271
43108W        W13708  33.001  12.335  11.891
43109W        W13709  26.053  36.942  14.542
43110W        W13710  42.582  13.572  13.489
43111W        W13711  20.473  23.587   3.176
43112W        W13712  41.771   6.316   3.681
43113W        W13713   6.024  35.060  13.500
43114W        W13714   0.378  24.005  12.519
43115W        W13715  26.948  16.884   3.287
43116W        W13716  17.511  12.531   0.513
43117W        W13717   3.967  32.019  14.014
43118W        W13718  25.946  23.033   1.011
43119W        W13719  20.982   8.419   3.411
43120W        W13720   3.485  19.975  14.928
43121W        W13721  44.840   1.973  11.045
43122W        W13722   2.973  13.253  11.567
43123W        W13723  22.495  33.657   4.331
43124W        W13724  12.731   7.253   4.208
43125W        W13725  15.908  31.949   2.764
43126W        W13726   7.905  34.929   2.290
43127W        W13727  24.138  25.309   1.837
43128W        W13728  29.404  15.808  13.918
43129W        W13729  33.913  17.801  12.371
43130W        W13730  34.848   5.408  13.533
43131W        W13731   1.982  12.165  12.482
43132W        W13732  36.527  14.436   2.242
43133W        W13733  12.813  20.155   0.466
43134W        W13734  29.677  34.112  13.843
43135W        W13735  23.587  37.224   1.343
43136W        W13736  25.082  20.514   4.036
43137W        W13737  29.130  36.571  10.711
43138W        W13738  29.935  37.950   1.235
43139W        W13739  33.765  32.382  14.404
43140W        W13740  32.509   6.345  14.787
43141W        W13741  12.642  38.959  12.534
43142W        W13742   3.842   2.815  14.572
43143W        W13743  14.381   0.456   0.410
43144W        W13744  14.298  40.027  14.729
43145W        W13745  19.976  25.664   2.657
43146W        W13746  40.298   7.025  12.520
43147W        W13747  24.509  29.669   4.722
43148W        W13748  14.346  14.323   0.054
43149W        W13749  29.641  22.164  12.552
43150W        W13750   8.990   0.235  14.997
43151W        W13751  40.998  44.992  14.485
43152W        W13752  30.376   2.477  11.938
43153W        W13753   6.226  17.481  10.732
43154W        W13754   5.232  27.024   1.167
43155W        W13755  13.616   1.265   2.809
43156W        W13756  16.126  13.731  14.990
43157W        W13757  19.279   6.256   1.985
43158W        W13758  37.998  35.759   1.825
43159W        W13759   3.844  18.887  10.695
43160W        W13760  12.101  12.339  13.779
43161W        W13761  33.245  37.181   0.220
43162W        W13762  38.085  25.205   2.178
43163W        W13763  15.786  37.341   0.667
43164W        W13764  23.476  34.955  13.019
43165W        W13765  35.984  29.043   2.409
43166W        W13766  31.134  18.641  13.780
43167W        W13767   7.827  25.776  10.743
43168W        W13768  22.289  40.794   0.192
43169W        W13769  24.706  26.473  14.534
43170W        W13770  21.650  18.119  14.802
43171W        W13771   2.693  41.721   0.320
43172W        W13772  38.488  13.093  14.621
43173W        W13773   7.301  12.395  12.651
43174W        W13774  19.091  32.795   0.515
43175W        W13775  30.916  29.592   2.274
43176W        W13776   4.711   5.326   2.473
43177W        W13777  37.910  11.370   1.117
43178W        W13778  36.599  31.119  11.632
43179W        W13779  14.107   4.822  13.025
43180W        W13780   0.133   1.242  10.669
43181W        W13781  43.588  19.470   4.939
43182W        W13782   9.161  20.933   4.594
43183W        W13783  28.066   0.545   0.404
43184W        W13784  28.912  38.132   1.357
43185W        W13785  10.151   4.820  10.674
43186W        W13786   9.372  20.607   1.396
43187W        W13787  17.759  43.831  14.915
43188W        W13788  19.234  24.687  14.910
43189W        W13789  24.214  14.681   1.840
43190W        W13790  15.002  44.052   2.645
43191W        W13791   1.652  11.718  14.749
43192W        W13792  26.160  26.904  11.876
43193W        W13793  40.062  14.673   2.866
43194W        W13794  31.527   0.872   1.001
43195W        W13795   9.208   7.150   3.219
43196W        W13796  44.728   1.435   3.250
43197W        W13797  24.204  24.057  12.381
43198W        W13798  40.088   1.203   0.324
43199W        W13799  17.803  21.414  14.161
43200W        W13800  25.811  43.052   2.614
43201W        W13801  44.550  42.028  14.760
43202W        W13802  40.805  27.194   2.271
43203W        W13803   1.850  40.569   4.704
43204W        W13804  33.271  34.985   4.918
43205W        W13805  31.248  43.905  14.483
43206W        W13806  29.965  33.899  11.233
43207W        W13807  32.616  29.430   4.173
43208W        W13808  11.359  17.753   1.894
43209W        W13809  16.813  30.646  13.450
43210W        W13810  22.976   0.737   1.822
43211W        W13811   0.027  22.931  11.911
43212W        W13812  40.757   7.966   0.767
43213W        W13813  38.784  38.804  11.830
43214W        W13814   7.609  17.985   3.352
43215W        W13815  17.882  14.661   0.911
43216W        W13816  34.905   3.283   2.832
43217W        W13817  32.360  31.006  14.677
43218W        W13818   6.337   3.280   3.090
43219W        W13819  31.533  15.320  14.821
43220W        W13820   9.239  33.126   0.435
43221W        W13821  32.488  18.367  11.270
43222W        W13822  39.319   2.018  13.102
43223W        W13823   0.869  35.438  13.865
43224W        W13824  43.778   8.929   0.351
43225W        W13825  13.947   0.521  14.344
43226W        W13826  16.777  12.272   3.817
43227W        W13827  23.937   6.102   4.670
43228W        W13828   5.781  11.712  11.935
43229W        W13829   9.155  37.036  12.365
43230W        W13830  22.519  42.042   0.449
43231W        W13831   1.302  23.620  13.287
43232W        W13832  22.304  17.302  11.007
43233W        W13833  35.216  39.880   3.348
43234W        W13834  14.216  12.897  14.273
43235W        W13835  29.893  15.352   4.470
43236W        W13836  33.534  42.152   2.317
43237W        W13837  25.517  27.491   3.650
43238W        W13838  20.581  39.783   2.162
43239W        W13839  27.075  30.012   4.239
43240W        W13840  43.417   2.191   2.299
43241W        W13841  32.421  24.520  12.335
43242W        W13842  25.993  43.825   0.485
43243W        W13843  11.998  31.497  14.129
43244W        W13844  14.249   0.967   0.347
43245W        W13845   3.024  44.727  11.613
43246W        W13846  40.898  39.348  13.819
43247W        W13847  27.685  18.795  11.516
43248W        W13848  15.687  24.700  13.884
43249W        W13849  33.023  35.975  10.749
43250W        W13850  41.997  30.874   3.888
43251W        W13851  17.358  13.977  13.017
43252W        W13852  39.579   0.401   3.996
43253W        W13853   1.755  26.681  12.003
43254W        W13854  41.677  36.324   5.285
43255W        W13855  36.395  10.819  14.360
43256W        W13856   9.166   6.636  14.803
43257W        W13857   1.978  25.651  10.747
43258W        W13858  11.397  36.055  11.581
43259W        W13859  17.324  13.379  10.107
43260W        W13860   8.774   5.359  11.081
43261W        W13861  39.097  28.499   2.395
43262W        W13862  22.732  34.697   1.213
43263W        W13863  19.144  40.270   0.283
43264W        W13864  35.401  34.884   4.157
43265W        W13865   0.147  26.040   0.691
43266W        W13866  21.725  38.099   4.752
43267W        W13867   6.667  27.949   0.953
43268W        W13868   7.277   5.397   2.744
43269W        W13869  18.610  44.776  11.845
43270W        W13870  15.078  43.385   9.616
43271W        W13871  11.772  18.873  12.681
43272W        W13872   7.293  42.438   1.335
43273W        W13873  16.065   8.868  13.595
43274W        W13874  44.502   4.478   0.760
43275W        W13875  33.637   1.953   1.768
43276W        W13876  24.993   2.723  14.521
43277W        W13877  27.659  41.810  11.050
43278W        W13878  10.233  34.997  12.254
43279W        W13879  42.270   7.653  13.582
43280W        W13880  14.483  22.018   3.852
43281W        W13881  17.758   0.507   4.766
43282W        W13882  21.550   7.368   0.827
43283W        W13883  42.840  23.716  11.864
43284W        W13884  30.598   2.534  13.834
43285W        W13885  38.150  38.887   0.348
43286W        W13886  25.405  21.438  10.358
43287W        W13887  13.888  28.479  11.062
43288W        W13888  14.939  36.959  11.230
43289W        W13889  24.240  12.783   1.672
43290W        W13890   3.278  21.188   0.253
43291W        W13891   1.715  17.088  11.167
43292W        W13892  39.025  44.782   3.627
43293W        W13893  35.075  42.993   2.368
43294W        W13894  21.767  40.417   0.789
43295W        W13895  28.491  38.537   3.205
43296W        W13896   1.888  19.738  11.219
43297W        W13897   5.997   3.363  13.960
43298W        W13898   6.460  12.832   2.315
43299W        W13899  27.384  44.829   1.808
43300W        W13900  26.581  22.254   4.112
43301W        W13901  24.675  20.820  11.820
43302W        W13902   2.973  41.249  13.883
43303W        W13903  28.628  23.658   1.263
43304W        W13904  24.056  18.227   1.545
43305W        W13905   0.027  23.578   3.579
43306W        W13906   9.342   6.093   4.609
43307W        W13907   8.687   8.166   0.342
43308W        W13908  18.346  27.954  13.791
43309W        W13909  10.752  43.925   2.840
43310W        W13910  23.619  30.141  12.549
43311W        W13911  16.883   4.780  11.588
43312W        W13912  33.077  22.012   3.130
43313W        W13913  16.059  39.472  11.621
43314W        W13914  13.936  10.266   4.155
43315W        W13915  12.127  35.860  11.952
43316W        W13916  30.505  30.007  11.651
43317W        W13917   5.147  17.166   3.652
43318W        W13918  18.174  42.794   0.245
43319W        W13919   5.969  15.085   2.762
43320W        W13920  38.846   5.898  13.158
43321W        W13921  42.268  18.188  11.671
43322W        W13922  28.626  30.000   1.930
43323W        W13923  41.433  14.852   3.637
43324W        W13924  36.007  29.164  11.159
43325W        W13925  30.489   9.398   1.278
43326W        W13926  24.984  14.128  12.649
43327W        W13927  11.117   1.359   3.413
43328W        W13928   5.189   0.448   1.712
43329W        W13929  29.847  33.099   1.177
43330W        W13930  22.824  15.163   1.377
43331W        W13931   5.879  22.558  13.323
43332W        W13932   2.681  27.094  10.773
43333W        W13933  27.495  31.705   0.969
43334W        W13934  41.170  44.958   3.718
43335W        W13935  42.315  12.844  13.072
43336W        W13936   6.042  26.565  14.380
43337W        W13937  44.389  43.312   3.223
43338W        W13938  14.742  11.130  11.546
43339W        W13939  30.409  32.233   1.738
43340W        W13940  22.217   6.781   3.740
43341W        W13941  26.395  26.535  11.591
43342W        W13942  26.867   0.874  14.326
43343W        W13943   0.439  21.879  10.418
43344W        W13944  40.769  13.817  13.479
43345W        W13945   3.220  12.476   4.181
43346W        W13946   4.691  28.956  12.242
43347W        W13947  37.323  13.101  11.607
43348W        W13948  43.447  36.090   4.170
43349W        W13949  32.683  16.085  10.507
43350W        W13950  43.965  41.760  12.984
43351W        W13951   6.203   8.881   1.927
43352W        W13952  29.185  30.091   3.180
43353W        W13953  28.075  10.981  13.653
43354W        W13954   5.582  40.882  14.146
43355W        W13955  10.737   5.759  13.047
43356W        W13956  20.308  26.529   3.848
43357W        W13957  29.150   8.353   4.433
43358W        W13958  13.372  17.640   2.247
43359W        W13959  44.203  44.130  11.173
43360W        W13960  43.876  40.522   2.587
43361W        W13961  22.049   7.855   4.212
43362W        W13962  40.608   2.075   3.864
43363W        W13963  36.044  21.151   1.874
43364W        W13964  35.505   0.984  12.479
43365W        W13965  36.979  11.089  11.763
43366W        W13966  19.888  23.601   0.654
43367W        W13967  11.716  11.861   0.330
43368W        W13968  14.457   5.984   1.840
43369W        W13969   4.824  16.120  13.418
43370W        W13970  42.083  29.523  13.943
43371W        W13971   2.017  25.574   2.747
43372W        W13972  44.883  39.302  13.076
43373W        W13973  24.779  35.132  14.881
43374W        W13974  42.527  30.603   0.857
43375W        W13975  15.932   3.508   5.083
43376W        W13976  11.788   7.130   2.463
43377W        W13977   9.343   3.881   0.329
43378W        W13978  16.611  41.467  10.853
43379W        W13979  37.113  13.805   1.901
43380W        W13980  42.889   4.162  11.256
43381W        W13981  28.119  36.870   4.099
43382W        W13982  13.190  16.240   0.276
43383W        W13983  37.831  43.433   4.575
43384W        W13984  44.402  42.855   0.426
43385W        W13985  42.445   0.895   2.962
43386W        W13986  36.300  29.524  14.292
43387W        W13987  37.541  40.614   2.486
43388W        W13988  11.073  35.400  12.501
43389W        W13989  27.416   5.678   2.796
43390W        W13990  32.673  34.403  12.119
43391W        W13991  24.653  16.124  13.880
43392W        W13992  15.596  20.977   3.719
43393W        W13993  24.220  20.709  10.592
43394W        W13994  43.755  34.985  11.554
43395W        W13995   0.414  24.582  10.620
43396W        W13996  41.113  35.051   0.887
43397W        W13997   4.334  31.622   2.721
43398W        W13998  16.425  27.548   1.761
43399W        W13999  21.532  17.991   0.409
43400W        W14000  19.130  27.149   2.838
43401W        W14001   6.159  39.558   0.927
43402W        W14002  10.224   4.838   2.901
43403W        W14003  38.694  21.200   4.005
43404W        W14004  10.720  11.397   3.459
43405W        W14005  27.234  17.062  14.853
43406W        W14006  18.251   6.546  12.095
43407W        W14007   5.210  42.227  13.768
43408W        W14008  44.282   7.756  10.790
43409W        W14009  19.053  21.895   0.969
43410W        W14010   7.925  30.617   3.238
43411W        W14011  27.166  38.346   3.943
43412W        W14012  36.684  26.654   1.840
43413W        W14013  31.516  37.191  13.087
43414W        W14014   8.669   7.808   3.732
43415W        W14015  39.791   6.366   4.066
43416W        W14016  31.905   7.204   1.745
43417W        W14017  25.134   6.926  11.420
43418W        W14018  20.777  22.668  11.316
43419W        W14019  30.239  42.356   3.777
43420W        W14020  34.103   1.140  13.899
43421W        W14021  25.777  20.572   1.229
43422W        W14022  31.322  29.512  14.762
43423W        W14023  18.254   7.913   2.207
43424W        W14024  12.482  21.192   3.168
43425W        W14025  34.023   3.738  12.831
43426W        W14026  35.436  30.365  14.784
43427W        W14027  21.257   2.519   4.131
43428W        W14028  19.030   6.119  12.063
43429W        W14029  35.111   4.386   0.796
43430W        W14030   2.207  42.494   0.814
43431W        W14031  10.803  13.065   0.398
43432W        W14032  31.913   5.606   2.646
43433W        W14033  38.106  42.450   0.220
43434W        W14034   0.851  21.849   0.061
43435W        W14035  26.457  32.883   1.332
43436W        W14036  11.260   3.326  10.363
43437W        W14037  43.745  21.702   0.474
43438W        W14038  21.981  18.763   1.410
43439W        W14039   8.358   7.775   4.711
43440W        W14040  21.510   8.797   1.103
43441W        W14041  18.359  24.052  14.798
43442W        W14042  22.724   2.344   1.217
43443W        W14043  27.898  28.525   2.503
43444W        W14044  40.293  12.258   1.888
43445W        W14045  38.458  22.481   3.687
43446W        W14046   1.954  29.594   2.870
43447W        W14047  25.122  39.532  12.435
43448W        W14048   4.931  16.623  12.529
43449W        W14049  40.148   1.861   4.077
43450W        W14050   5.718  18.289   4.828
43451W        W14051  42.045  44.364  10.259
43452W        W14052  22.716  33.588   0.552
43453W        W14053   6.741  13.865  13.123
43454W        W14054  30.665  28.910   3.330
43455W        W14055   0.682  12.595   4.204
43456W        W14056  29.654  13.229   1.224
43457W        W14057   9.583  43.010   0.812
43458W        W14058  15.073   2.878  10.758
43459W        W14059  19.583  27.713   3.269
43460W        W14060  37.302  19.255   2.753
43461W        W14061   9.049   6.141  14.899
43462W        W14062   9.870   3.152  10.715
43463W        W14063   8.307  22.133   3.068
43464W        W14064   3.192  11.188   4.187
43465W        W14065   4.984   2.436  13.009
43466W        W14066  16.754  19.692  11.907
43467W        W14067  44.958  20.609   2.903
43468W        W14068  36.881  30.337   3.713
43469W        W14069  25.213  19.617   1.336
43470W        W14070  16.516  40.098   3.768
43471W        W14071  43.817  21.722  13.077
43472W        W14072  14.121  17.786   2.668
43473W        W14073  14.057  34.048  11.182
43474W        W14074  38.357  20.016   3.122
43475W        W14075  24.150  37.329  11.213
43476W        W14076  22.362  39.869   0.969
43477W        W14077  33.589  14.211   2.503
43478W        W14078  37.889  23.384  12.458
43479W        W14079  22.384   9.347   3.061
43480W        W14080   8.265  39.791  14.860
43481W        W14081   3.158  24.594  14.469
43482W        W14082   9.326  28.182   3.172
43483W        W14083  32.398  27.073   0.811
43484W        W14084  37.985  25.215   0.893
43485W        W14085  41.966  23.672   1.802
43486W        W14086  23.654  42.022  11.595
43487W        W14087  20.211  24.725  14.848
43488W        W14088  43.819  24.215   2.740
43489W        W14089  12.506  11.816  14.763
43490W        W14090  35.626  42.185  12.624
43491W        W14091  19.166  15.325   1.739
43492W        W14092  10.286  18.329  10.736
43493W        W14093  15.518  21.954   5.072
43494W        W14094  18.853  41.608  12.145
43495W        W14095  26.608  36.546   3.155
43496W        W14096  23.236  44.022   1.347
43497W        W14097  26.048  21.329  10.676
43498W        W14098  17.579  11.615  12.020
43499W        W14099  26.467   0.572   1.252
43500W        W14100   4.357  13.123   2.848
43501W        W14101  30.040  22.934   3.240
43502W        W14102  14.884  31.916  14.894
43503W        W14103  18.211  24.992   4.801
43504W        W14104  22.225   9.132   1.218
43505W        W14105  29.251   9.378  13.983
43506W        W14106  17.100  29.478   0.964
43507W        W14107   1.219  35.925  11.516
43508W        W14108  36.471  20.623   2.468
43509W        W14109  23.126  35.287  11.161
43510W        W14110  20.618  18.503   2.428
43511W        W14111  14.223  13.673   3.757
43512W        W14112   7.682  37.419  12.972
43513W        W14113   3.006  43.606   3.986
43514W        W14114  11.641  37.470   0.755
43515W        W14115  11.334  12.743  12.269
43516W        W14116  14.809   1.035   0.127
43517W        W14117  19.481  35.802   3.334
43518W        W14118  40.489  17.173   0.788
43519W        W14119  37.569  30.174   1.196
43520W        W14120  40.708  13.085   3.657
43521W        W14121  36.820  39.436  11.965
43522W        W14122  21.834  38.883  12.495
43523W        W14123  32.888  35.409  12.067
43524W        W14124  20.455   7.821  13.054
43525W        W14125  37.471   4.822   3.857
43526W        W14126  23.485  11.135  14.058
43527W        W14127  11.854  34.373  12.091
43528W        W14128  26.463  33.610   3.218
43529W        W14129  40.166  31.125  12.365
43530W        W14130  10.675  13.765   0.411
43531W        W14131  30.725  32.936  13.401
43532W        W14132  32.970  20.049   5.001
43533W        W14133  19.344   7.284  14.805
43534W        W14134   0.519   1.416  11.419
43535W        W14135  29.739   8.600   3.262
43536W        W14136  35.787  43.497  14.449
43537W        W14137   5.838  27.148  10.526
43538W        W14138  38.928   4.864  10.235
43539W        W14139   9.593  23.237  11.108
43540W        W14140  43.263   7.753  12.285
43541W        W14141  44.822  13.604  12.058
43542W        W14142  31.359  12.822   0.292
43543W        W14143  33.039  34.164   4.653
43544W        W14144   4.436  21.982   4.506
43545W        W14145  19.294  13.492   0.850
43546W        W14146  33.005  26.478   0.928
43547W        W14147  44.845  22.681   4.834
43548W        W14148  41.508  17.889  12.318
43549W        W14149  34.851   3.811  14.259
43550W        W14150  10.157  31.419  10.801
43551W        W14151   9.700  25.498  14.307
43552W        W14152  32.537   2.630   3.922
43553W        W14153  39.281  11.628  12.925
43554W        W14154  36.990  42.547  13.878
43555W        W14155   4.580  36.038   1.823
43556W        W14156  24.250  34.964   2.774
43557W        W14157  13.049  11.817  14.526
43558W        W14158  42.723  37.901  12.470
43559W        W14159  18.501   1.493   2.642
43560W        W14160  29.649  16.339  12.627
43561W        W14161   4.943  22.798   0.701
43562W        W14162   5.944   8.932   0.803
43563W        W14163  24.163   5.139   2.168
43564W        W14164  12.787  44.098   4.151
43565W        W14165   6.427  10.080   3.659
43566W        W14166  10.778  30.457   2.468
43567W        W14167   7.386  38.897   4.654
43568W        W14168  16.368   2.749   4.154
43569W        W14169  15.332  24.766   5.104
43570W        W14170  14.787  35.905   0.935
43571W        W14171   9.066  26.528  13.903
43572W        W14172  36.058   4.771  13.344
43573W        W14173  26.714   4.815   0.286
43574W        W14174  24.577   6.870  10.721
43575W        W14175  16.605  33.347   4.164
43576W        W14176  42.828  43.438  11.898
43577W        W14177  43.889   8.938  11.537
43578W        W14178  29.473  13.590  14.883
43579W        W14179   2.717   4.863   0.916
43580W        W14180  41.003  10.218  10.604
43581W        W14181   3.454  18.815   1.664
43582W        W14182  36.788  31.639   0.323
43583W        W14183  17.385   4.879  11.585
43584W        W14184  21.057   5.466  13.152
43585W        W14185   2.210  22.011   1.692
43586W        W14186  31.859  24.131   2.167
43587W        W14187  17.941  38.764   2.179
43588W        W14188   3.694  32.887  13.302
43589W        W14189  21.273  42.411   2.021
43590W        W14190  23.089   3.870   4.589
43591W        W14191  42.463  26.145  12.731
43592W        W14192   3.199  34.072  13.590
43593W        W14193   0.336  23.890   3.891
43594W        W14194  29.507  11.359   4.544
43595W        W14195  34.435  25.555  14.013
43596W        W14196   5.900  28.253  13.769
43597W        W14197   3.063  17.019   1.003
43598W        W14198  18.229  35.483   3.679
43599W        W14199  32.744  35.847  11.722
43600W        W14200  44.971  11.249   4.435
43601W        W14201  30.361  28.626   4.247
43602W        W14202  11.160  13.778   3.256
43603W        W14203  38.411   1.014   4.984
43604W        W14204  37.365  37.946  14.272
43605W        W14205  30.087  30.628   3.139
43606W        W14206  34.588   3.394   0.394
43607W        W14207  24.000  23.258   0.486
43608W        W14208   3.751  29.563   3.630
43609W        W14209  36.174  23.738   2.630
43610W        W14210  31.670   5.252  11.920
43611W        W14211  10.691  44.232  11.334
43612W        W14212   2.424  39.423  12.080
43613W        W14213  21.358  24.309  14.975
43614W        W14214  34.905  34.575  10.583
43615W        W14215  38.674  29.914   0.287
43616W        W14216  13.099  10.800   4.789
43617W        W14217  36.174   0.414  12.138
43618W        W14218  39.425   6.490  12.137
43619W        W14219  31.857  44.820  11.122
43620W        W14220  30.430  30.695   0.412
43621W        W14221  29.504  43.441  14.305
43622W        W14222  12.216  20.554   2.621
43623W        W14223   9.713  17.706  12.128
43624W        W14224  25.303  35.066  12.910
43625W        W14225   7.961  36.955   2.722
43626W        W14226  20.066  13.706   0.339
43627W        W14227  19.796  19.542  14.730
43628W        W14228  39.051  23.102  11.998
43629W        W14229  27.727  38.982  12.944
43630W        W14230   9.331  37.596  14.413
43631W        W14231  38.837  42.791  11.124
43632W        W14232  20.139  39.816   3.922
43633W        W14233  33.914  36.304   3.630
43634W        W14234  35.144  41.905  14.893
43635W        W14235   8.747  11.167   4.494
43636W        W14236  31.979  14.184   0.957
43637W        W14237  14.142  27.550   4.450
43638W        W14238  26.231  30.388  14.315
43639W        W14239  17.568   0.351  11.331
43640W        W14240  43.514  29.636   0.934
43641W        W14241  24.886  43.819   4.543
43642W        W14242  25.415  30.629   4.746
43643W        W14243  12.838  44.393   0.841
43644W        W14244  18.646  18.705  11.841
43645W        W14245  43.855   6.464   3.653
43646W        W14246  27.096  21.409   4.908
43647W        W14247  27.793  20.517  12.468
43648W        W14248  43.438  22.767   1.716
43649W        W14249  39.300   6.707   4.144
43650W        W14250   4.113  42.302   3.757
43651W        W14251  28.151  28.243   0.623
43652W        W14252  16.792  25.926   0.797
43653W        W14253   0.929  26.658  12.934
43654W        W14254  27.651  14.077  11.204
43655W        W14255  23.479  12.594  12.529
43656W        W14256   9.466   9.375   1.064
43657W        W14257  12.336   6.211  11.582
43658W        W14258  43.833  13.735   0.132
43659W        W14259  38.338   1.439   4.662
43660W        W14260  29.040  42.915  13.926
43661W        W14261  44.937  37.938   1.669
43662W        W14262  15.762  25.578  10.305
43663W        W14263  22.965   3.635   4.126
43664W        W14264  42.447  26.934   3.352
43665W        W14265   9.619  27.281   4.074
43666W        W14266  10.103  29.658   3.614
43667W        W14267   6.194   3.396  10.273
43668W        W14268  36.619  14.526  13.323
43669W        W14269  21.050  26.317  13.813
43670W        W14270  42.310   5.175   2.300
43671W        W14271  32.174  32.968   3.904
43672W        W14272   4.291   3.929  14.767
43673W        W14273  10.855  20.804  11.561
43674W        W14274   4.700  20.192   0.397
43675W        W14275  33.510  40.973  12.440
43676W        W14276  15.580  34.563  11.677
43677W        W14277  24.941  38.612  14.361
43678W        W14278   3.397  44.594  13.400
43679W        W14279  30.920  12.601  12.432
43680W        W14280   3.041  21.637   1.822
43681W        W14281   2.194  26.133   2.211
43682W        W14282  35.596  25.253   0.009
43683W        W14283   1.419  36.671   4.254
43684W        W14284  40.352  20.768   1.886
43685W        W14285  10.366  20.181   5.032
43686W        W14286   9.819  23.131   3.736
43687W        W14287  36.265   6.326  13.049
43688W        W14288  41.525  36.907  10.832
43689W        W14289  25.321  43.759   3.602
43690W        W14290  38.897  25.429  11.608
43691W        W14291   7.829  33.924   3.796
43692W        W14292  23.231   9.434   4.528
43693W        W14293  43.915  35.418   4.038
43694W        W14294  27.205  23.104  10.748
43695W        W14295  42.305  13.025   1.288
43696W        W14296  41.454  10.350   1.706
43697W        W14297  16.279  20.826  11.239
43698W        W14298  24.892   6.772   1.400
43699W        W14299  14.069  38.815   2.288
43700W        W14300  27.130  19.970  14.065
43701W        W14301  19.039   8.787   0.493
43702W        W14302  13.890  29.442   5.219
43703W        W14303  34.987  13.847   4.866
43704W        W14304  14.611   9.123  12.423
43705W        W14305  43.007  42.464  11.654
43706W        W14306  20.746   4.165  14.530
43707W        W14307  19.738  24.654   3.238
43708W        W14308  43.087  36.302  11.935
43709W        W14309  23.294  12.215   0.488
43710W        W14310   2.369  29.482   1.801
43711W        W14311  18.189   4.455   3.285
43712W        W14312  13.577  23.113   1.240
43713W        W14313   8.465   4.198  11.132
43714W        W14314   4.452  27.799   0.250
43715W        W14315   3.336   3.731  12.578
43716W        W14316  12.514  19.182   0.711
43717W        W14317   5.527  16.555  13.592
43718W        W14318  34.239   0.007   2.608
43719W        W14319  16.337   1.823  14.410
43720W        W14320  36.817   6.907   2.889
43721W        W14321  18.120   6.124   0.803
43722W        W14322  43.948  28.113  13.993
43723W        W14323  33.844   7.998  14.220
43724W        W14324   8.909  31.302  11.206
43725W        W14325  16.507  11.314  10.675
43726W        W14326  32.879   6.142   2.426
43727W        W14327   1.780   3.392   4.189
43728W        W14328   2.692  10.867  13.346
43729W        W14329  26.082  41.466   3.564
43730W        W14330  26.812  21.772   1.823
43731W        W14331  25.454   2.493  14.727
43732W        W14332  16.741  10.011   1.884
43733W        W14333  23.791  26.125   3.536
43734W        W14334  37.611  13.940  11.579
43735W        W14335  13.251  36.321   2.663
43736W        W14336   1.703   6.081  14.817
43737W        W14337  43.812  24.488  12.422
43738W        W14338  10.777  32.331   2.604
43739W        W14339  35.330  30.671   4.408
43740W        W14340  25.145  11.459  12.842
43741W        W14341  29.502   4.851  11.926
43742W        W14342   1.257  14.842   4.427
43743W        W14343  40.519  18.049  12.585
43744W        W14344  28.430   2.057  12.610
43745W        W14345  39.381  18.764   0.231
43746W        W14346   4.988  17.989   4.636
43747W        W14347  10.298  37.252  10.891
43748W        W14348  23.399  22.826  11.163
43749W        W14349  12.334  43.985   3.925
43750W        W14350  36.270   8.754   2.418
43751W        W14351  17.062  43.760   0.817
43752W        W14352  22.751   9.210   1.254
43753W        W14353  39.801   5.926   0.837
43754W        W14354  15.750  38.524  11.887
43755W        W14355   9.375  33.201  12.981
43756W        W14356  38.947  13.992  11.531
43757W        W14357   4.324  21.190   4.074
43758W        W14358   1.229   1.427   3.261
43759W        W14359   7.774  25.261   2.394
43760W        W14360  21.644  20.112   3.285
43761W        W14361   4.197   1.037  14.485
43762W        W14362  32.616  19.588  11.968
43763W        W14363  24.669  20.324   0.347
43764W        W14364  16.735  19.213  13.657
43765W        W14365  19.492  26.208   3.218
43766W        W14366  22.871  34.078   0.689
43767W        W14367  44.168  42.932  14.275
43768W        W14368  41.898  28.515  12.067
43769W        W14369  39.979  21.746   2.252
43770W        W14370  22.092  26.601  12.186
43771W        W14371  10.205   6.696   4.372
43772W        W14372  31.930  11.099   3.694
43773W        W14373  42.867  30.324  11.956
43774W        W14374  34.761  32.782  13.370
43775W        W14375  20.725  22.239   4.217
43776W        W14376   0.797   9.824   0.508
43777W        W14377  35.613   3.652   2.902
43778W        W14378   3.432  39.731   1.835
43779W        W14379   8.743   2.218  11.705
43780W        W14380  22.183  20.380  10.702
43781W        W14381  38.424  16.703   1.745
43782W        W14382   2.486  23.202  11.398
43783W        W14383  20.207  25.194  12.720
43784W        W14384  16.490   8.896  14.326
43785W        W14385  22.032   5.330  13.466
43786W        W14386  28.741  12.631  12.125
43787W        W14387  29.001  33.179   4.841
43788W        W14388  24.742   1.367   2.877
43789W        W14389  15.895  28.871   2.848
43790W        W14390  34.109   6.134  12.132
43791W        W14391  23.517  25.149  14.971
43792W        W14392   7.203  17.619   0.568
43793W        W14393   5.956   2.058   2.927
43794W        W14394  29.796   4.719  14.446
43795W        W14395  22.062   4.187   0.898
43796W        W14396  18.657  20.639   2.494
43797W        W14397  40.460   6.225   0.768
43798W        W14398   2.650   4.381  10.639
43799W        W14399  39.884  32.554  13.365
43800W        W14400  37.091  12.868   1.836
43801W        W14401   6.688   7.432   4.242
43802W        W14402  18.159  18.422   3.445
43803W        W14403   0.949   8.602  11.946
43804W        W14404  17.776  38.126   4.177
43805W        W14405  39.494  15.700  13.123
43806W        W14406   6.018  19.825   3.718
43807W        W14407   8.859  23.421   2.906
43808W        W14408   0.289  37.831   3.843
43809W        W14409  24.879   7.281  10.214
43810W        W14410  24.824  34.774   1.903
43811W        W14411  19.985  16.142   3.399
43812W        W14412  31.435  22.559   4.555
43813W        W14413   9.713  44.752  14.885
43814W        W14414  43.900  35.815  14.756
43815W        W14415   6.181  18.043  13.739
43816W        W14416   3.899  16.487  14.612
43817W        W14417  22.132  27.901   4.396
43818W        W14418   7.231  34.861  14.784
43819W        W14419  18.552  13.947   4.118
43820W        W14420  24.250   6.888   0.545
43821W        W14421  35.552  12.636  11.901
43822W        W14422  37.501  14.060  13.345
43823W        W14423  36.904   8.667  10.570
43824W        W14424  31.679  33.037  12.969
43825W        W14425  22.181   0.842   0.446
43826W        W14426  25.647  13.348  12.675
43827W        W14427  43.858   0.617  14.866
43828W        W14428   2.641  21.840  11.121
43829W        W14429  38.311  27.043  12.491
43830W        W14430  44.403  31.446   2.733
43831W        W14431  31.097   6.798   1.959
43832W        W14432  10.772  28.407   2.163
43833W        W14433  27.255   9.213  13.922
43834W        W14434  40.949  29.558  12.000
43835W        W14435  13.347  22.258  12.936
43836W        W14436  38.670  34.165  14.992
43837W        W14437  11.835  31.160  12.793
43838W        W14438  35.449  25.432   0.480
43839W        W14439  35.065   3.535  10.191
43840W        W14440  44.904   6.374  10.969
43841W        W14441  36.543   0.865  14.504
43842W        W14442  27.939  19.321   0.202
43843W        W14443   8.398  28.474   2.866
43844W        W14444  23.610  12.391   3.798
43845W        W14445   0.918  35.119   0.735
43846W        W14446  38.227  22.063   4.386
43847W        W14447   0.791  33.194  10.514
43848W        W14448  17.453   7.035   2.291
43849W        W14449  37.054  11.611   0.061
43850W        W14450  14.825  14.387   2.831
43851W        W14451  40.794  35.857   0.924
43852W        W14452  12.967  19.271  11.660
43853W        W14453  33.386  28.654  11.430
43854W        W14454   1.017  14.256   4.628
43855W        W14455   3.711  40.475   4.589
43856W        W14456  16.344  35.358  12.998
43857W        W14457  10.021  31.444  14.240
43858W        W14458  35.967  11.856   0.299
43859W        W14459  23.005  17.027  11.587
43860W        W14460  22.514   3.862  12.959
43861W        W14461   1.685  28.276   3.271
43862W        W14462  37.134  36.865  10.753
43863W        W14463   6.523  17.200   1.770
43864W        W14464  23.544  12.780  10.567
43865W        W14465  29.669   2.641   4.066
43866W        W14466  43.245  24.627  13.293
43867W        W14467   3.008  43.569   4.567
43868W        W14468  42.306  28.023  10.699
43869W        W14469  33.995  41.441   4.759
43870W        W14470  29.734  12.189   4.035
43871W        W14471  12.875  44.237  10.919
43872W        W14472  23.560  15.618   4.803
43873W        W14473  39.073   1.910   3.946
43874W        W14474   2.055   6.210   3.289
43875W        W14475  23.513  15.075   0.222
43876W        W14476   6.368  27.503  14.772
43877W        W14477  33.059   5.292  12.082
43878W        W14478  28.965  37.643   2.121
43879W        W14479  41.902  26.175  12.448
43880W        W14480  42.567  11.823  13.027
43881W        W14481  21.502   4.245   2.794
43882W        W14482  14.092   7.464  12.054
43883W        W14483  17.128  11.620  13.468
43884W        W14484  32.136   1.452  11.512
43885W        W14485  24.247  12.090   1.361
43886W        W14486  37.869  29.551  12.881
43887W        W14487   7.095   4.907  11.744
43888W        W14488  29.367  38.128  11.465
43889W        W14489  42.813   5.355  12.045
43890W        W14490  12.710  15.768  13.987
43891W        W14491  42.863  37.188  13.085
43892W        W14492   1.368  32.259  12.134
43893W        W14493  42.992  18.370   3.637
43894W        W14494   3.691  16.836  13.028
43895W        W14495  36.820  23.664  11.973
43896W        W14496  10.960  15.683   4.235
43897W        W14497  43.388  27.542  10.777
43898W        W14498  20.060  22.175  11.449
43899W        W14499   7.357  11.517  11.115
43900W        W14500  41.029  20.029   1.895
43901W        W14501  33.134   8.656   2.290
43902W        W14502  33.357  38.537  13.331
43903W        W14503  28.101  27.008   3.406
43904W        W14504   6.281  39.099   3.334
43905W        W14505  31.430   2.272   3.590
43906W        W14506   2.724  44.948   3.621
43907W        W14507  34.762  43.905  14.036
43908W        W14508   4.692   2.260  14.807
43909W        W14509   3.982  25.928  13.554
43910W        W14510  16.666  15.238   0.679
43911W        W14511  17.736   1.798  14.278
43912W        W14512  41.934  36.167  12.059
43913W        W14513  24.209   0.266   0.812
43914W        W14514  19.302  29.829   0.311
43915W        W14515   7.739  24.754  14.885
43916W        W14516  14.191  43.628  14.947
43917W        W14517  23.296  23.680   2.505
43918W        W14518  16.055  11.638  14.270
43919W        W14519  13.548   0.852  13.433
43920W        W14520   6.322  44.806   4.212
43921W        W14521  30.507  22.034   4.205
43922W        W14522   5.957  19.200  12.500
43923W        W14523  23.188  19.588  11.090
43924W        W14524  22.667  32.761  14.977
43925W        W14525  28.568  20.634  10.560
43926W        W14526  34.963  32.587  10.806
43927W        W14527  16.486   0.761   0.926
43928W        W14528  25.782  32.400   2.713
43929W        W14529  22.812   8.308  14.513
43930W        W14530  12.015  35.957  14.540
43931W        W14531  29.150  26.014  12.157
43932W        W14532  14.778  39.916  11.586
43933W        W14533  29.121  14.491  11.874
43934W        W14534  15.322  44.872   2.733
43935W        W14535  42.146  19.816   2.620
43936W        W14536   2.811   9.108  11.466
43937W        W14537   0.131  31.945  10.271
43938W        W14538  42.480  10.187  12.515
43939W        W14539  12.956  22.050   3.261
43940W        W14540  34.500   4.477   1.276
43941W        W14541  10.586  29.594   1.408
43942W        W14542  42.073  19.097  13.419
43943W        W14543  32.423   1.712   4.287
43944W        W14544  16.080  35.094  13.464
43945W        W14545   8.247   3.670  11.875
43946W        W14546  36.015  12.059  13.994
43947W        W14547  11.667  41.566   3.373
43948W        W14548   8.752  29.613   3.693
43949W        W14549  25.567  15.504   1.210
43950W        W14550  28.941  34.809  10.552
43951W        W14551   1.737  12.223   1.840
43952W        W14552   8.305  13.037   4.120
43953W        W14553   4.765   5.227   0.987
43954W        W14554  37.672   4.146   0.959
43955W        W14555  19.989   1.388  10.773
43956W        W14556  43.763  23.525   0.357
43957W        W14557  27.517  18.838  12.397
43958W        W14558  31.111  35.092  13.992
43959W        W14559   1.427  23.102   0.464
43960W        W14560   2.475  41.915  14.537
43961W        W14561  27.264  37.681   0.807
43962W        W14562  18.385  19.721  14.375
43963W        W14563  43.826  40.793  11.108
43964W        W14564  38.861  24.744  13.297
43965W        W14565  20.765   3.808   2.013
43966W        W14566  10.779   8.876   1.270
43967W        W14567  10.200  18.434  12.817
43968W        W14568  39.298  14.241  11.901
43969W        W14569  30.851  11.173  13.383
43970W        W14570  11.286   2.241  14.757
43971W        W14571   7.954  44.323   4.099
43972W        W14572  28.114   7.753   0.745
43973W        W14573  42.880  26.193   3.359
43974W        W14574   6.130  23.388   1.870
43975W        W14575  24.182  12.703   0.071
43976W        W14576  15.573  32.088   0.320
43977W        W14577   2.145   4.306  10.610
43978W        W14578  13.950   2.825  11.429
43979W        W14579  27.370  38.478  12.797
43980W        W14580  12.911  10.271   4.145
43981W        W14581  39.406  14.234   0.672
43982W        W14582  26.027  20.144   4.195
43983W        W14583  40.449  29.506  12.430
43984W        W14584  41.230  43.982  13.302
43985W        W14585  33.947   5.957   4.774
43986W        W14586  18.855  17.238   2.209
43987W        W14587  11.267  20.245   0.815
43988W        W14588   0.359  22.709   1.460
43989W        W14589  39.077  44.840   4.538
43990W        W14590   9.921  25.962  14.106
43991W        W14591  43.277  41.316   1.284
43992W        W14592  41.752  43.675   2.668
43993W        W14593  25.177  30.886   2.219
43994W        W14594   9.934  17.156  11.166
43995W        W14595   0.963   2.822  12.378
43996W        W14596   4.690  13.683  13.145
43997W        W14597  29.025  28.564   1.916
43998W        W14598  11.491  32.943  12.683
43999W        W14599   1.516  10.667   0.721
44000W        W14600  40.105  44.986   4.557
44001W        W14601  21.606  39.347  13.405
44002W        W14602  17.751   7.507  10.899
44003W        W14603  12.651  35.585   2.798
44004W        W14604  38.897  15.734  12.387
44005W        W14605  21.050  26.956  10.445
44006W        W14606  21.052  15.700   1.597
44007W        W14607  12.271   0.046   0.852
44008W        W14608  34.299  12.256  11.525
44009W        W14609  20.079  23.129   2.254
44010W        W14610   7.021  15.335  13.477
44011W        W14611  42.983  11.317  13.286
44012W        W14612  10.296  20.287  11.806
44013W        W14613  25.691  41.365   0.246
44014W        W14614   2.726   2.149   2.659
44015W        W14615   0.852  26.726  13.444
44016W        W14616  10.792   2.373   4.320
44017W        W14617  14.191   7.296   3.723
44018W        W14618  18.399   5.924   3.292
44019W        W14619  15.192  44.329  11.574
44020W        W14620  39.565  43.678  13.918
44021W        W14621  27.665  39.830  11.098
44022W        W14622  36.516   6.251   4.501
44023W        W14623   7.461  24.984   3.807
44024W        W14624  37.470  10.773  12.555
44025W        W14625  27.201   7.115   1.193
44026W        W14626  41.100   9.112  13.201
44027W        W14627  31.606  21.937   0.871
44028W        W14628  43.111  36.409  12.480
44029W        W14629  32.687  18.221   9.745
44030W        W14630  22.745  12.577  13.454
44031W        W14631  40.807  15.386   2.771
44032W        W14632  42.621  32.018  11.726
44033W        W14633   5.347  28.594  14.937
44034W        W14634  44.898  36.294  11.439
44035W        W14635   1.895  36.420   2.309
44036W        W14636  39.721  22.728  11.708
44037W        W14637  20.340   1.350  11.179
44038W        W14638  39.669  38.084  11.527
44039W        W14639  26.259   9.287  10.268
44040W        W14640  36.372  33.047  14.374
44041W        W14641  30.595  28.343  11.139
44042W        W14642  15.772  40.028  14.087
44043W        W14643  19.327  10.612   0.010
44044W        W14644  23.885   7.477   1.785
44045W        W14645  21.939  18.347   1.014
44046W        W14646  43.955  25.666   3.964
44047W        W14647  24.589  39.859  11.938
44048W        W14648  14.659  13.314   2.209
44049W        W14649  17.291   1.986   3.190
44050W        W14650  12.893  29.199   4.447
44051W        W14651  14.985  37.005   3.886
44052W        W14652  34.186  18.077  13.288
44053W        W14653  20.250   0.985  14.607
44054W        W14654  17.131  13.732   2.956
44055W        W14655  14.650  18.701  14.850
44056W        W14656  43.320   8.875   2.189
44057W        W14657  17.041  32.732   1.285
44058W        W14658  42.948  41.747   1.404
44059W        W14659  18.521   4.668   2.195
44060W        W14660   6.360  43.865  11.126
44061W        W14661  29.563  36.464  10.968
44062W        W14662  17.593  10.246   0.345
44063W        W14663   7.770  28.957  11.122
44064W        W14664   9.557  41.813  14.860
44065W        W14665  16.703  43.343   5.517
44066W        W14666  37.853  21.446   3.633
44067W        W14667  15.642  21.091  11.874
44068W        W14668  20.445  23.226  12.329
44069W        W14669  10.104  37.586   0.020
44070W        W14670  13.601  43.967   0.707
44071W        W14671  42.313  19.564   1.328
44072W        W14672  11.516  11.307   2.920
44073W        W14673  26.598  39.435  14.915
44074W        W14674  10.777  33.167   3.763
44075W        W14675   0.151   6.727   4.976
44076W        W14676  11.690   3.175   1.507
44077W        W14677  24.063   3.367  13.488
44078W        W14678  11.394  22.421  12.501
44079W        W14679   6.322  31.675  10.704
44080W        W14680  41.930  26.121   3.425
44081W        W14681   4.034   1.777   4.219
44082W        W14682  36.836  38.957   2.201
44083W        W14683  16.236  40.540  13.027
44084W        W14684  15.770  24.234   1.665
44085W        W14685  30.832  30.969  13.003
44086W        W14686   7.400  29.761   3.658
44087W        W14687   6.661  31.550  13.057
44088W        W14688  10.340  25.113  10.799
44089W        W14689  42.201  21.350  10.708
44090W        W14690  13.562  28.591  11.510
44091W        W14691  41.768  36.470  13.345
44092W        W14692  27.866  37.628  13.546
44093W        W14693   9.799  34.779   2.399
44094W        W14694  17.007  34.444  11.040
44095W        W14695  24.286  11.311  11.604
44096W        W14696  32.365   3.973   1.439
44097W        W14697  17.317  35.380   3.320
44098W        W14698  35.412   8.382   4.967
44099W        W14699  19.727   5.145  13.065
44100W        W14700  18.032  28.708  12.568
44101W        W14701  31.848  37.655   3.239
44102W        W14702  41.401  21.703   2.448
44103W        W14703  22.124   4.660  12.416
44104W        W14704  40.310  12.016  11.119
44105W        W14705  38.936   2.923  14.544
44106W        W14706  44.087  20.085  14.998
44107W        W14707  12.641  12.149   2.823
44108W        W14708  32.990  23.177   0.282
44109W        W14709  39.597  32.135  13.327
44110W        W14710  13.257  44.236  10.552
44111W        W14711  10.745  37.852   0.282
44112W        W14712  23.514  28.145   2.624
44113W        W14713  11.189  27.700  10.494
44114W        W14714   0.173  34.534  12.496
44115W        W14715  28.025   6.804   2.192
44116W        W14716   8.316  28.663  14.318
44117W        W14717   2.708   0.338  11.960
44118W        W14718  18.796  28.583   9.320
44119W        W14719  27.903  30.262  12.904
44120W        W14720  30.391   0.222  11.954
44121W        W14721  19.937  20.309  11.625
44122W        W14722  19.050   6.831  10.870
44123W        W14723  34.125  30.577  13.034
44124W        W14724  41.106  36.019   1.326
44125W        W14725   9.532   4.202   2.704
44126W        W14726  41.051  41.300   0.720
44127W        W14727   5.699  29.584   1.803
44128W        W14728  37.788  27.478   4.239
44129W        W14729   4.884  42.565  11.574
44130W        W14730  29.141  17.122   0.001
44131W        W14731  28.212   2.251  11.660
44132W        W14732   5.738  37.405   4.592
44133W        W14733  11.703  18.155   3.328
44134W        W14734  16.253  34.860   3.847
44135W        W14735  31.317  33.523   4.530
44136W        W14736  10.138  10.082  13.464
44137W        W14737  37.839  23.283   2.372
44138W        W14738  13.086  44.301   2.878
44139W        W14739  24.744  15.812   4.173
44140W        W14740  17.105  39.124  14.421
44141W        W14741  33.497  25.853   1.361
44142W        W14742   0.496   6.390  11.033
44143W        W14743  32.654  20.414   3.760
44144W        W14744  22.035   7.408  13.946
44145W        W14745  30.059  32.577  13.298
44146W        W14746  36.609  33.117  13.074
44147W        W14747  15.904   5.243  13.064
44148W        W14748  17.790  36.648  11.145
44149W        W14749  14.499  22.626  14.342
44150W        W14750  37.880  41.483   3.176
44151W        W14751  17.658  27.292   2.919
44152W        W14752   0.469  18.329  11.579
44153W        W14753  42.392  11.378  12.100
44154W        W14754  41.290  27.578   1.892
44155W        W14755   4.911   5.169   3.937
44156W        W14756  17.801  26.789   2.769
44157W        W14757   5.165  16.671  11.819
44158W        W14758  21.647  37.971  13.498
44159W        W14759  22.790  12.781   3.617
44160W        W14760   3.364  20.622   0.889
44161W        W14761  34.643  15.823   3.388
44162W        W14762  34.040  35.824  13.057
44163W        W14763  14.962  24.206  12.601
44164W        W14764  40.854   2.884  11.625
44165W        W14765  24.487  10.725   4.635
44166W        W14766  31.134  43.305   1.812
44167W        W14767  37.622  14.220   1.247
44168W        W14768   9.314  39.787   0.876
44169W        W14769   7.350  35.344   3.199
44170W        W14770  42.768  36.924   0.159
44171W        W14771   0.997  25.651   2.770
44172W        W14772  14.702  18.824   2.209
44173W        W14773  41.425  43.592   3.225
44174W        W14774  13.306  37.875  13.200
44175W        W14775  31.473  39.461   3.671
44176W        W14776  29.775   7.638  10.062
44177W        W14777  27.166   1.898  10.940
44178W        W14778  33.490  18.558  11.182
44179W        W14779  33.530  40.887   4.114
44180W        W14780  14.659  11.429   1.367
44181W        W14781  43.892  27.105  12.474
44182W        W14782  26.679  11.884  14.817
44183W        W14783   4.820  22.764  12.992
44184W        W14784  37.557  42.714  11.677
44185W        W14785  14.654  34.540  11.526
44186W        W14786  18.034  32.485  10.949
44187W        W14787  22.232  43.256   2.301
44188W        W14788  25.756  26.777  10.338
44189W        W14789  42.720  31.466   3.809
44190W        W14790   6.377  11.326   2.195
44191W        W14791  41.515  29.152  11.684
44192W        W14792  44.347   4.926  12.944
44193W        W14793  37.868  27.899   3.284
44194W        W14794  31.611   9.656   2.796
44195W        W14795  30.673   3.839   4.549
44196W        W14796  12.351  19.591  12.725
44197W        W14797   8.448  21.674   2.873
44198W        W14798  19.616  24.033   2.394
44199W        W14799  20.637   5.725  12.703
44200W        W14800  23.638  24.011  12.141
44201W        W14801  32.479  30.504   2.778
44202W        W14802  39.360  42.952  12.075
44203W        W14803  30.234  44.066   2.837
44204W        W14804  43.833  11.433  12.562
44205W        W14805   5.139  31.065  14.898
44206W        W14806  33.465   5.933  14.972
44207W        W14807  23.451  16.364  12.982
44208W        W14808  14.524  32.865   4.776
44209W        W14809   2.667  30.413  11.460
44210W        W14810  34.604   1.151   3.869
44211W        W14811  44.728  42.736  12.229
44212W        W14812  30.664  37.830   4.625
44213W        W14813  23.328  12.244  14.556
44214W        W14814  26.789  19.249  11.488
44215W        W14815   3.450  23.972   1.333
44216W        W14816  17.512   1.874   4.629
44217W        W14817  34.791   8.227  13.066
44218W        W14818  34.646  10.371  14.371
44219W        W14819  19.308  29.452  13.858
44220W        W14820   3.147  22.491   2.376
44221W        W14821  32.127  35.064  13.533
44222W        W14822  34.299   1.047  13.299
44223W        W14823  16.168   1.610  13.364
44224W        W14824  41.300   1.317   1.199
44225W        W14825  43.006  41.406  13.537
44226W        W14826   0.968   3.851  14.354
44227W        W14827   1.353  18.702   3.846
44228W        W14828  41.869  41.304   4.922
44229W        W14829  18.432  13.635   2.455
44230W        W14830  14.814  36.677   3.535
44231W        W14831  22.656  34.907   2.634
44232W        W14832   3.952  37.996   4.571
44233W        W14833  18.632  27.147   4.074
44234W        W14834  17.730  16.833  14.882
44235W        W14835  24.816  35.886  11.717
44236W        W14836   5.795  34.935   0.752
44237W        W14837  10.265  43.434  14.476
44238W        W14838  41.256  17.449   4.960
44239W        W14839   7.290   4.508  13.427
44240W        W14840  29.004  24.236  14.896
44241W        W14841  23.118  34.654   4.497
44242W        W14842  21.119   1.627  11.496
44243W        W14843   8.527  41.492   1.402
44244W        W14844  33.443  28.210  13.363
44245W        W14845  37.319  38.981   3.109
44246W        W14846  20.977  33.308   3.274
44247W        W14847  31.508  44.553  12.422
44248W        W14848  40.314  12.801  13.906
44249W        W14849  20.059  43.736   4.477
44250W        W14850   1.717  25.809   0.286
44251W        W14851   8.661  25.073   0.942
44252W        W14852   7.758  21.294  13.511
44253W        W14853   9.731  11.579   1.338
44254W        W14854   4.158  30.054  14.872
44255W        W14855  44.662  32.023   1.021
44256W        W14856  35.570   8.171  12.987
44257W        W14857  37.500  16.679  14.925
44258W        W14858  12.252  13.541   0.385
44259W        W14859   8.328   0.894  11.480
44260W        W14860  15.484  38.745  14.851
44261W        W14861  13.608  18.061   2.801
44262W        W14862   7.448  16.738   4.572
44263W        W14863  40.389  19.870   3.325
44264W        W14864  11.356  28.165  10.654
44265W        W14865  33.091  40.016  11.087
44266W        W14866  38.553  26.945  14.915
44267W        W14867  35.621  38.206   2.148
44268W        W14868  36.902  40.696   3.228
44269W        W14869  38.411   3.292   3.526
44270W        W14870  33.895   8.869   4.571
44271W        W14871  24.029  36.833  13.549
44272W        W14872   8.740   4.677  13.388
44273W        W14873  33.534  14.682   2.831
44274W        W14874   8.389  26.324  11.344
44275W        W14875   6.672  43.354   0.752
44276W        W14876  43.332  37.003  11.229
44277W        W14877  23.965  26.127   2.169
44278W        W14878  43.485  43.518   4.332
44279W        W14879  25.578  41.864  12.388
44280W        W14880   1.641  38.549  13.542
44281W        W14881  24.169  28.933   2.787
44282W        W14882   1.305  10.831   4.782
44283W        W14883  33.188  15.163   4.174
44284W        W14884  28.991   9.294   4.855
44285W        W14885  27.883  27.107  13.538
44286W        W14886  33.380   5.311  10.751
44287W        W14887  26.009   2.621  11.101
44288W        W14888  24.495  15.398  10.767
44289W        W14889  36.982  31.366  11.980
44290W        W14890  31.815  27.723  12.510
44291W        W14891  25.625  38.594  12.560
44292W        W14892   1.421  21.222   2.234
44293W        W14893  31.100  33.021   4.621
44294W        W14894   6.251  13.721  12.933
44295W        W14895   0.654  24.986   1.012
44296W        W14896  39.324   0.494  10.851
44297W        W14897   1.472  42.475   3.887
44298W        W14898  37.870  27.009  11.204
44299W        W14899  24.258   4.275  14.904
44300W        W14900   3.090  31.590  10.677
44301W        W14901  11.310  35.437   3.093
44302W        W14902  12.905  15.553  14.513
44303W        W14903  12.676  15.308  11.569
44304W        W14904  34.095  37.120   3.133
44305W        W14905  26.299  32.461   2.704
44306W        W14906  39.306  42.251  12.835
44307W        W14907  27.083  10.381  13.951
44308W        W14908   3.129  17.669  13.499
44309W        W14909  23.488   0.829   3.109
44310W        W14910  32.941  38.848  13.409
44311W        W14911  26.728   3.253  11.032
44312W        W14912  38.345  27.244  13.418
44313W        W14913  20.215  11.463   9.890
44314W        W14914  30.117  28.918  13.977
44315W        W14915  14.122  15.027  13.622
44316W        W14916  39.326   7.288  14.840
44317W        W14917  13.590  34.879  13.683
44318W        W14918  23.230  20.221  13.439
44319W        W14919   3.252  18.696  10.900
44320W        W14920   8.835   2.572   4.628
44321W        W14921  30.865  26.482  12.561
44322W        W14922   0.053  15.717  12.888
44323W        W14923  18.361  37.368  14.259
44324W        W14924   7.166  31.000   3.275
44325W        W14925  23.611  29.928  10.655
44326W        W14926  20.109  19.083   3.126
44327W        W14927   2.196  24.502   1.439
44328W        W14928  19.000  37.776  12.054
44329W        W14929  21.116  12.667   4.088
44330W        W14930  28.450  21.621   3.782
44331W        W14931  36.332   7.314  13.778
44332W        W14932   5.385  37.188   3.348
44333W        W14933  20.255  24.013   0.593
44334W        W14934   4.705  19.216  14.013
44335W        W14935  32.761  39.502  11.878
44336W        W14936  31.495  11.189   3.414
44337W        W14937  29.001  12.378   2.678
44338W        W14938   1.240  44.832   2.863
44339W        W14939  38.424  38.349   2.938
44340W        W14940  16.385  42.315  13.508
44341W        W14941  42.281  42.175  14.453
44342W        W14942   8.767   2.448   2.873
44343W        W14943  34.921   6.412  14.975
44344W        W14944  19.499  17.253  11.132
44345W        W14945  29.502  28.887   4.801
44346W        W14946   1.287  44.393   3.726
44347W        W14947  29.547  25.012   3.707
44348W        W14948  31.499  22.718  11.088
44349W        W14949  10.532  43.762  13.686
44350W        W14950  23.694  39.453  12.881
44351W        W14951   8.601  38.597  14.021
44352W        W14952  25.962  26.167   0.365
44353W        W14953  37.427  17.829  11.613
44354W        W14954   6.230  19.447  14.502
44355W        W14955   3.960  12.679   3.524
44356W        W14956  15.122  24.665   0.529
44357W        W14957  29.785  13.706   1.346
44358W        W14958   6.898  35.918  12.869
44359W        W14959  43.379  18.929  11.692
44360W        W14960  11.556  41.920  12.217
44361W        W14961   0.905  42.717   0.679
44362W        W14962  19.609  22.813   4.083
44363W        W14963  22.580  34.528   1.670
44364W        W14964  17.322   1.675   1.572
44365W        W14965  16.139   4.807  12.905
44366W        W14966  25.001   1.337   4.500
44367W        W14967  22.488  26.412  11.461
44368W        W14968  39.550  19.584   2.282
44369W        W14969  25.804  42.957   3.503
44370W        W14970  27.904  24.435  14.429
44371W        W14971   7.478   3.804  12.926
44372W        W14972  25.239  14.738  10.474
44373W        W14973  15.598  25.182  10.596
44374W        W14974  22.582   7.341  11.597
44375W        W14975  35.620  26.402   0.281
44376W        W14976  43.463  18.831   4.194
44377W        W14977  32.374  23.518   3.352
44378W        W14978  29.512  18.324  13.797
44379W        W14979  15.461  41.935  11.941
44380W        W14980  17.295  23.950   1.735
44381W        W14981  15.033  37.595  11.797
44382W        W14982  28.240   4.800  14.388
44383W        W14983   0.790  22.746  10.701
44384W        W14984   5.311  30.866  14.439
44385W        W14985  10.665   6.321   3.298
44386W        W14986  20.209   7.443  11.550
44387W        W14987  41.302  15.933  12.873
44388W        W14988  38.166  43.889   4.602
44389W        W14989  43.535  10.607  13.660
44390W        W14990  19.360  26.655  14.080
44391W        W14991  29.756  15.510   3.015
44392W        W14992  26.677  43.399  11.816
44393W        W14993  15.521  23.178   3.150
44394W        W14994  25.418   6.865  13.304
44395W        W14995   2.559  22.955   0.242
44396W        W14996  26.403   3.841  14.854
44397W        W14997   0.212  11.668  13.592
44398W        W14998  13.688  38.612  13.679
44399W        W14999  27.543  37.148  13.875
44400W        W15000  13.871  10.569  11.405
44401W        W15001  35.071  30.248  14.372
44402W        W15002  21.738  34.900  11.055
44403W        W15003  41.009  37.080   4.951
44404W        W15004  24.464  34.932  12.553
44405W        W15005  15.720  20.282  11.528
44406W        W15006  22.050  13.890   0.432
44407W        W15007  37.616  41.287   0.688
44408W        W15008  29.550  43.014   3.963
44409W        W15009  28.515  43.866  10.950
44410W        W15010  39.068  37.058   2.288
44411W        W15011   5.670  11.268   1.797
44412W        W15012   0.391  25.494   3.564
44413W        W15013  33.401  39.082  13.206
44414W        W15014   8.261  30.965   3.822
44415W        W15015  20.592  10.224  12.421
44416W        W15016  19.238   4.170   4.198
44417W        W15017   3.000  10.179  14.947
44418W        W15018   8.924  37.360   2.337
44419W        W15019  19.991  16.630   3.969
44420W        W15020  33.037  29.586  13.778
44421W        W15021  23.757  29.909   0.255
44422W        W15022  15.831  34.912   2.841
44423W        W15023   7.349  38.546  14.846
44424W        W15024  35.400  20.260  11.070
44425W        W15025  43.579  35.114  14.338
44426W        W15026  11.952  28.661   3.142
44427W        W15027  13.556   8.313  14.811
44428W        W15028  18.158   9.095  11.129
44429W        W15029  25.786   6.904   0.848
44430W        W15030   3.322  31.946  12.394
44431W        W15031  12.296  21.236  11.718
44432W        W15032  34.302  40.956   3.735
44433W        W15033  30.438  23.606  13.773
44434W        W15034  13.635   6.703  11.498
44435W        W15035  26.870  34.846   4.971
44436W        W15036  13.124   4.889   4.083
44437W        W15037   3.313  27.699   0.865
44438W        W15038  20.414  24.945  11.930
44439W        W15039   9.274  23.541   3.757
44440W        W15040  31.630  19.270   3.265
44441W        W15041   2.841  35.048  12.323
44442W        W15042  43.451  44.885   0.471
44443W        W15043   7.838  26.258   2.295
44444W        W15044  14.694  30.567   3.566
44445W        W15045   3.526  19.446  12.599
44446W        W15046  38.880   0.792   3.543
44447W        W15047  15.323  10.868   2.599
44448W        W15048  15.318  22.816   3.785
44449W        W15049  33.291  29.175   1.701
44450W        W15050  31.899  17.744  13.392
44451W        W15051  22.495  17.028  11.520
44452W        W15052   4.504   2.011   3.196
44453W        W15053   7.264   6.786   3.695
44454W        W15054  35.988   8.874  14.983
44455W        W15055  37.001  10.728   1.165
44456W        W15056  29.506  43.723   2.655
44457W        W15057  28.147  26.130   0.349
44458W        W15058  36.553  40.039   2.667
44459W        W15059  21.486  15.123  12.380
44460W        W15060  19.032  31.606  10.490
44461W        W15061  44.827  31.318  11.951
44462W        W15062  21.214  11.092  14.602
44463W        W15063   9.732  37.926   0.227
44464W        W15064  15.834  21.602   2.339
44465W        W15065  24.652  31.441   4.694
44466W        W15066  31.020   7.224   2.259
44467W        W15067  35.234  33.849  11.587
44468W        W15068  25.066  31.431   4.381
44469W        W15069  25.722   0.376  10.236
44470W        W15070  23.627  21.577   3.204
44471W        W15071  41.994   2.682   3.776
44472W        W15072  22.624  43.436  10.133
44473W        W15073   2.942  11.181   2.876
44474W        W15074  26.709  21.697  11.121
44475W        W15075  10.232   8.831  13.863
44476W        W15076  25.167  38.264  11.204
44477W        W15077  42.255  29.616  13.469
44478W        W15078  18.297  35.105  13.968
44479W        W15079  17.572  39.980   2.464
44480W        W15080  31.856  31.667   2.728
44481W        W15081   4.507  33.799  12.492
44482W        W15082  19.577  28.656   1.940
44483W        W15083  17.627  44.318  11.854
44484W        W15084   3.672  36.958   2.118
44485W        W15085   0.242  10.730   1.871
44486W        W15086   0.451  34.643  12.057
44487W        W15087   1.955  23.017   1.890
44488W        W15088  11.058  36.650  11.049
44489W        W15089  39.874   0.211  13.955
44490W        W15090  33.459  32.135  10.250
44491W        W15091  33.334  40.272  14.344
44492W        W15092  28.635   3.765   3.746
44493W        W15093   3.256  29.750  11.546
44494W        W15094  27.519  36.467  11.614
44495W        W15095  14.270  21.749   3.010
44496W        W15096  35.577  22.579  11.456
44497W        W15097  20.824  25.505   5.142
44498W        W15098   9.234  29.031  14.344
44499W        W15099   9.221  26.061   0.547
44500W        W15100   2.988  36.467   1.526
44501W        W15101   4.225  20.873  13.486
44502W        W15102  39.632  24.055  11.488
44503W        W15103   7.849  19.284   1.482
44504W        W15104  18.373  36.608  13.309
44505W        W15105  24.082  17.250   1.682
44506W        W15106  30.443  15.900  11.512
44507W        W15107  33.925  31.013   0.701
44508W        W15108  19.466  29.606   3.418
44509W        W15109   5.542  19.319   4.599
44510W        W15110  23.200   4.376   1.507
44511W        W15111  14.571  38.495  13.948
44512W        W15112  10.763  21.501   0.472
44513W        W15113  29.778  16.337   3.300
44514W        W15114  31.130  10.365  12.352
44515W        W15115  28.501   2.707  11.660
44516W        W15116  29.951   4.748  12.131
44517W        W15117  35.812   1.903  11.965
44518W        W15118  24.524  37.519   1.298
44519W        W15119  10.071   0.891   2.394
44520W        W15120  32.367  43.972  13.730
44521W        W15121  41.823   7.621   1.261
44522W        W15122  28.908  22.946  11.198
44523W        W15123  31.803  11.589  13.434
44524W        W15124  28.696  17.143   2.436
44525W        W15125  36.433   1.328   1.147
44526W        W15126  37.796  13.059   1.020
44527W        W15127   6.595  40.565  11.460
44528W        W15128   9.861  35.508  10.707
44529W        W15129  16.747  38.415   2.259
44530W        W15130  34.405  23.849   4.054
44531W        W15131   3.900   7.719  10.570
44532W        W15132  27.725  18.471  13.296
44533W        W15133  12.359  37.912   2.017
44534W        W15134  23.484   6.418   3.151
44535W        W15135  26.996  25.912  10.704
44536W        W15136  35.427  36.769  13.903
44537W        W15137  30.081  36.400  11.125
44538W        W15138  22.575   2.475   0.730
44539W        W15139   8.475  20.528  11.974
44540W        W15140  35.683  41.447   3.317
44541W        W15141  25.937   5.388   4.705
44542W        W15142  27.884  35.149  14.522
44543W        W15143  27.033   9.634   0.082
44544W        W15144  29.391   5.421   1.137
44545W        W15145  36.955  13.715   1.056
44546W        W15146   2.937   1.490   0.618
44547W        W15147   8.375   4.749   3.206
44548W        W15148  25.703   9.156  13.895
44549W        W15149  42.477   1.258   1.581
44550W        W15150   9.468  23.572  12.808
44551W        W15151  25.731  22.269   4.119
44552W        W15152  17.061  35.466   4.239
44553W        W15153   0.712  23.581  10.397
44554W        W15154  19.853  12.142  13.022
44555W        W15155   6.318  14.249   4.491
44556W        W15156   4.598  32.383  12.073
44557W        W15157  23.453   1.697  12.508
44558W        W15158   8.140  13.577  12.313
44559W        W15159  31.159   9.006   0.820
44560W        W15160  33.766  30.562   2.803
44561W        W15161  23.719   6.283  12.145
44562W        W15162  40.056  31.475   3.008
44563W        W15163  41.284  30.300  11.147
44564W        W15164   0.523  23.591   3.487
44565W        W15165  41.630  40.380  12.473
44566W        W15166  15.010  28.484  14.674
44567W        W15167   5.835  27.591   0.406
44568W        W15168  37.208  14.783  13.999
44569W        W15169  16.555   6.647   3.768
44570W        W15170  17.757  42.001   0.396
44571W        W15171  44.536  35.936   3.572
44572W        W15172  26.478  12.386  12.473
44573W        W15173  12.214  18.531  10.882
44574W        W15174  27.044  15.365   2.194
44575W        W15175   7.391  16.405  14.372
44576W        W15176  11.217  43.264   2.217
44577W        W15177  25.534  20.466  12.842
44578W        W15178  10.182  30.970  11.137
44579W        W15179  35.277   0.889  13.038
44580W        W15180  11.742  11.516   2.129
44581W        W15181  15.229  29.648   4.541
44582W        W15182  25.655  33.633   2.414
44583W        W15183  30.037  24.625  10.668
44584W        W15184  24.722  14.322   3.274
44585W        W15185   8.777  28.770  12.984
44586W        W15186  32.103  26.495  12.937
44587W        W15187  29.550  20.414   3.829
44588W        W15188  41.089  26.943   4.148
44589W        W15189  43.466  29.493   2.727
44590W        W15190  44.182   2.299  11.559
44591W        W15191  32.523  21.636   2.117
44592W        W15192  38.078   2.765   0.688
44593W        W15193  43.902  15.585   0.742
44594W        W15194   3.529  14.312  12.826
44595W        W15195  16.525  42.363   3.374
44596W        W15196  22.908  31.043   1.278
44597W        W15197  22.686  22.571   2.025
44598W        W15198   8.792  35.820   3.261
44599W        W15199  21.023  15.316   0.216
44600W        W15200  28.222  17.699  11.451
44601W        W15201   2.493  19.809   1.688
44602W        W15202   4.990   3.252   2.806
44603W        W15203  26.467  33.086   3.206
44604W        W15204  26.680   0.250   2.893
44605W        W15205   5.425  43.869  14.185
44606W        W15206  16.707  16.129  11.898
44607W        W15207  20.023   5.371   3.852
44608W        W15208  30.190   7.707  14.814
44609W        W15209   2.768  28.231   4.732
44610W        W15210   7.384   9.171   4.087
44611W        W15211  29.212   0.836  12.124
44612W        W15212  27.748   3.216  11.601
44613W        W15213   5.174  26.006   2.287
44614W        W15214   2.906  43.407  12.055
44615W        W15215  40.313  17.694   1.217
44616W        W15216  40.923   7.495   4.661
44617W        W15217  31.058  11.292  14.252
44618W        W15218  38.443  21.871  10.233
44619W        W15219   1.249  13.040  13.818
44620W        W15220  22.650  41.763  14.780
44621W        W15221  25.712  30.713   3.740
44622W        W15222   4.462   9.297   3.750
44623W        W15223  22.297  40.901   2.148
44624W        W15224   4.625   2.793   2.792
44625W        W15225   7.828  26.036   0.467
44626W        W15226  22.843   0.134  12.947
44627W        W15227   8.738  18.590   3.347
44628W        W15228   8.682   4.350   1.822
44629W        W15229  38.748  29.626  12.593
44630W        W15230   5.166   4.394   1.835
44631W        W15231   2.925   6.465  13.585
44632W        W15232   8.475  38.601   3.278
44633W        W15233  27.669  13.227  13.196
44634W        W15234   0.202  40.546   3.829
44635W        W15235  34.300   9.332   1.855
44636W        W15236  21.507   1.506   0.194
44637W        W15237  20.255  18.766  11.238
44638W        W15238  17.894   3.692   1.414
44639W        W15239   2.127  12.314   4.533
44640W        W15240   1.331   9.372   1.908
44641W        W15241  17.717   4.667  11.916
44642W        W15242   5.882  42.932  14.943
44643W        W15243   3.839  42.116   2.447
44644W        W15244  22.118  25.199   3.456
44645W        W15245   1.234  27.091  12.913
44646W        W15246  10.400  10.323  13.880
44647W        W15247  39.869  33.188  11.332
44648W        W15248  36.113  17.312  12.534
44649W        W15249   1.654  17.570  14.624
44650W        W15250  29.539  29.480  14.533
44651W        W15251  32.908  22.710  11.105
44652W        W15252   4.985  20.122  12.865
44653W        W15253  43.116  28.376   0.969
44654W        W15254   0.979   5.208  10.453
44655W        W15255  24.634  37.436  11.507
44656W        W15256  10.842   5.700  10.682
44657W        W15257   8.923  25.048   4.230
44658W        W15258  35.960  10.745  12.595
44659W        W15259  29.114  28.997   0.735
44660W        W15260  20.669  14.485   3.275
44661W        W15261  28.125  38.593   2.619
44662W        W15262   1.411   2.981  10.732
44663W        W15263  30.279  40.974  13.839
44664W        W15264  30.654  26.523  11.537
44665W        W15265  17.922   5.299   2.855
44666W        W15266  43.890  35.968   0.987
44667W        W15267  42.845  36.132  13.808
44668W        W15268  44.442   8.354   4.647
44669W        W15269  41.048  14.177  10.630
44670W        W15270   7.371  24.480   4.020
44671W        W15271  26.778  27.197  13.438
44672W        W15272   1.198  16.841  11.544
44673W        W15273  21.971  34.892   2.805
44674W        W15274  11.355   1.881  13.267
44675W        W15275   2.193  27.966  10.926
44676W        W15276  13.820  17.696   3.656
44677W        W15277   4.378  30.887  12.382
44678W        W15278  25.652  42.014   0.939
44679W        W15279  40.894   3.133   2.249
44680W        W15280  12.030  40.438   2.217
44681W        W15281  20.622  29.401  13.566
44682W        W15282  18.746  41.983   3.091
44683W        W15283  20.378  39.435   0.470
44684W        W15284   2.966  37.264   0.053
44685W        W15285  27.182  16.644   2.364
44686W        W15286  42.001   5.859  11.292
44687W        W15287  21.318  26.764   0.861
44688W        W15288  28.864  10.132  12.888
44689W        W15289  17.831  23.450  12.404
44690W        W15290   3.637  11.729   1.655
44691W        W15291  13.535  27.117  12.505
44692W        W15292  38.130   1.740  14.789
44693W        W15293   9.952   8.405  13.088
44694W        W15294  38.959  13.484  11.419
44695W        W15295  39.288  23.837  13.464
44696W        W15296  11.718  24.950   3.657
44697W        W15297   6.167  34.510  10.618
44698W        W15298  29.264   0.745   2.776
44699W        W15299  25.047  23.200   3.575
44700W        W15300   8.270   9.423   0.877
44701W        W15301  25.009  41.986   5.010
44702W        W15302  25.001  42.083  14.416
44703W        W15303  17.821  35.323  13.894
44704W        W15304  17.272  28.125   1.858
44705W        W15305  21.488  29.708   2.581
44706W        W15306  43.292  42.542   3.568
44707W        W15307   6.767   7.984   1.198
44708W        W15308  35.086  24.086   4.552
44709W        W15309  38.892   2.687  11.512
44710W        W15310  21.574  16.445   0.786
44711W        W15311  42.558  27.630  12.048
44712W        W15312  16.633  19.284  10.989
44713W        W15313  22.207   5.863  12.920
44714W        W15314  41.497  37.350  11.905
44715W        W15315   7.734  31.865  12.073
44716W        W15316   9.886  26.699   4.662
44717W        W15317  35.665  12.223   1.840
44718W        W15318  23.208  17.845   2.448
44719W        W15319  25.576  10.743   4.801
44720W        W15320  32.449  29.072  14.861
44721W        W15321   4.247   3.327   1.715
44722W        W15322  28.638  20.511  13.571
44723W        W15323   0.511   4.798   1.763
44724W        W15324   1.297  18.084  13.307
44725W        W15325  25.015   7.671   0.859
44726W        W15326  30.614  10.678   0.963
44727W        W15327   9.350   3.733  12.464
44728W        W15328  23.666  34.721   2.910
44729W        W15329  14.718  21.690  13.408
44730W        W15330  20.764  30.908  14.152
44731W        W15331  38.365  40.866   3.730
44732W        W15332   0.208  35.878  11.456
44733W        W15333  40.795   3.408  11.635
44734W        W15334  36.190  40.085  12.013
44735W        W15335   7.810  23.580   1.966
44736W        W15336  36.663  22.250  14.479
44737W        W15337  20.275  17.581  11.972
44738W        W15338  41.407  32.836  11.526
44739W        W15339  27.648  12.259  11.471
44740W        W15340  23.393  39.662  14.305
44741W        W15341  29.266  44.969   1.221
44742W        W15342   2.502  15.589   0.377
44743W        W15343   6.174  36.761  11.446
44744W        W15344  40.523  20.553  11.915
44745W        W15345  29.432  38.982  10.664
44746W        W15346  42.035  44.826   3.119
44747W        W15347  33.000  33.180  12.443
44748W        W15348  33.418   9.407  11.583
44749W        W15349  41.842  22.069  12.045
44750W        W15350  15.822  38.974   1.337
44751W        W15351   1.745  22.185  10.568
44752W        W15352   7.700  38.325   3.851
44753W        W15353   2.074  31.163  12.901
44754W        W15354  42.409  32.704   2.405
44755W        W15355  11.106  28.495   0.916
44756W        W15356  21.040  39.418   4.255
44757W        W15357  31.010  19.129   4.157
44758W        W15358  41.160   0.898  13.605
44759W        W15359  25.758  27.369  11.016
44760W        W15360  12.299  34.627  13.065
44761W        W15361  24.533  34.269  14.965
44762W        W15362  13.155  17.739   4.224
44763W        W15363   2.915  44.015  11.186
44764W        W15364  26.905   2.052   1.794
44765W        W15365  17.319  16.235  14.391
44766W        W15366   5.051  43.956  10.064
44767W        W15367   0.851  30.411  10.211
44768W        W15368   7.611  44.580   0.006
44769W        W15369  34.659   0.320   4.781
44770W        W15370  43.970  19.339   0.779
44771W        W15371   3.913   0.234   0.395
44772W        W15372  19.800  15.655   1.216
44773W        W15373  11.872  19.030  11.813
44774W        W15374  29.655  44.886  13.850
44775W        W15375  15.586  25.154   1.247
44776W        W15376  24.192  35.837  11.122
44777W        W15377  35.610  27.093  10.656
44778W        W15378  15.816  36.123  10.882
44779W        W15379   1.229  10.607  10.348
44780W        W15380  29.010  22.742   3.521
44781W        W15381  26.539  20.061  10.626
44782W        W15382  33.915  34.726   5.016
44783W        W15383  43.379  42.544   4.660
44784W        W15384   9.215   1.683  14.044
44785W        W15385  24.202   9.184  11.560
44786W        W15386  14.707  42.726   2.754
44787W        W15387  18.408  10.602   3.683
44788W        W15388  24.417  29.599  14.863
44789W        W15389  15.257  17.059   4.531
44790W        W15390  12.295   5.730   1.950
44791W        W15391  16.714  40.981   3.467
44792W        W15392  16.336  35.802  11.047
44793W        W15393  22.237  34.914   1.822
44794W        W15394  21.532  21.715  11.687
44795W        W15395  43.808  14.690   1.212
44796W        W15396  38.117  14.542  11.192
44797W        W15397  12.304  37.823  13.408
44798W        W15398   4.899  21.884   4.053
44799W        W15399  20.677  20.803  13.822
44800W        W15400   2.510   1.939  12.498
44801W        W15401  21.763  34.428   0.347
44802W        W15402  11.344  42.304  14.984
44803W        W15403  22.727  29.624   2.749
44804W        W15404  15.565   5.109   4.541
44805W        W15405  15.275   7.488  13.912
44806W        W15406  30.488  26.291  13.443
44807W        W15407  20.569  26.152  12.589
44808W        W15408   6.346   8.280   1.378
44809W        W15409   2.431  24.295  13.856
44810W        W15410  16.160  23.748  10.453
44811W        W15411  11.370  13.510   1.872
44812W        W15412   1.899  29.347  11.584
44813W        W15413   8.939  29.578  14.833
44814W        W15414   4.811   3.279   0.810
44815W        W15415  27.135  22.548   1.673
44816W        W15416  13.575  13.222   4.926
44817W        W15417  39.520  44.538   4.331
44818W        W15418  23.594  21.849  12.044
44819W        W15419   9.365  25.678   3.335
44820W        W15420  44.708  21.640   0.820
44821W        W15421   6.669  15.772  14.785
44822W        W15422  10.731  11.775   3.815
44823W        W15423  12.798  29.940   3.737
44824W        W15424  39.343  13.837   4.599
44825W        W15425   8.096   8.207   2.788
44826W        W15426   6.154  32.127  11.591
44827W        W15427   2.176  21.179  12.540
44828W        W15428   5.669  18.626  12.631
44829W        W15429  23.725  22.477  13.443
44830W        W15430   7.503  40.992   4.481
44831W        W15431  35.521  38.969   4.568
44832W        W15432   7.569   3.843  11.161
44833W        W15433  14.159  42.213  11.456
44834W        W15434  14.471  26.527  11.353
44835W        W15435   7.772  15.081   2.248
44836W        W15436  14.075  12.161  13.868
44837W        W15437   0.837  41.870   1.912
44838W        W15438  21.438  36.739   2.369
44839W        W15439   8.228   2.638   0.840
44840W        W15440  40.710  44.362   4.245
44841W        W15441  16.818  34.914  14.151
44842W        W15442  18.514  20.457   0.319
44843W        W15443  25.493  13.592   4.139
44844W        W15444   2.289  42.057   3.643
44845W        W15445   5.313   4.706  12.037
44846W        W15446  44.856  37.325   0.024
44847W        W15447  21.153  13.361  14.460
44848W        W15448  35.035  40.901   4.326
44849W        W15449   4.966  30.691   0.257
44850W        W15450  26.942  23.541  10.680
44851W        W15451  36.043  14.381  11.084
44852W        W15452  17.803   2.190   2.194
44853W        W15453  10.355  20.932  14.894
44854W        W15454  36.361   6.893   4.772
44855W        W15455  39.079  14.501   2.797
44856W        W15456  18.100  22.105  11.463
44857W        W15457  20.763  26.365  11.303
44858W        W15458  32.008  29.471   4.685
44859W        W15459  34.241   4.641   2.660
44860W        W15460  27.934   7.291   2.867
44861W        W15461   1.385  39.640  13.083
44862W        W15462  43.331   3.660  12.046
44863W        W15463  37.397  29.555  10.998
44864W        W15464  21.214   2.719   0.197
44865W        W15465  25.287  17.142   5.065
44866W        W15466   9.511  15.344  12.130
44867W        W15467   6.809  26.246  10.669
44868W        W15468  26.141  25.587  14.243
44869W        W15469  21.619  40.276  13.458
44870W        W15470  12.553  21.448  12.501
44871W        W15471  31.060   3.873   0.976
44872W        W15472  22.933  42.585  12.015
44873W        W15473  18.164  33.904  14.987
44874W        W15474   3.168  36.226  14.639
44875W        W15475   0.296   3.041   1.640
44876W        W15476  44.316  26.155  12.410
44877W        W15477  16.576  10.320  12.864
44878W        W15478   2.649  43.299   4.274
44879W        W15479  34.109  38.685  12.854
44880W        W15480  21.093  23.635   3.920
44881W        W15481  43.817  30.001  10.735
44882W        W15482   0.857   1.755  11.204
44883W        W15483  26.480  31.097  11.584
44884W        W15484   9.245  39.883  12.520
44885W        W15485  25.499   5.075  13.968
44886W        W15486  30.667   8.699   0.777
44887W        W15487   7.202  23.690  12.997
44888W        W15488  41.899  19.393  13.804
44889W        W15489  31.026   2.036   1.285
44890W        W15490   9.384  30.834   1.834
44891W        W15491  18.768  14.547   0.494
44892W        W15492  39.241   7.390   3.667
44893W        W15493   0.824  44.894  14.861
44894W        W15494  12.862   4.454  12.335
44895W        W15495  21.669   3.184   2.707
44896W        W15496   0.339   7.652   1.388
44897W        W15497   0.800  30.014   3.293
44898W        W15498  13.414  37.435  12.974
44899W        W15499  28.135   7.724   4.037
44900W        W15500  13.550  43.341  11.904
44901W        W15501  26.222  30.568   1.275
44902W        W15502  28.897   1.984  12.029
44903W        W15503  34.142  39.891  12.123
44904W        W15504   6.736   0.264   4.812
44905W        W15505   0.760  41.354  13.070
44906W        W15506  37.157  42.362  11.728
44907W        W15507  17.261  12.731   4.983
44908W        W15508  28.224  27.628   2.112
44909W        W15509  19.401  19.742  14.440
44910W        W15510  34.516  43.428   3.985
44911W        W15511   8.275  11.338   0.694
44912W        W15512  19.920  13.066  11.796
44913W        W15513   0.086  34.556   1.836
44914W        W15514  22.189  11.312  14.467
44915W        W15515  11.455   9.621   3.000
44916W        W15516   2.779  23.094   1.147
44917W        W15517  11.617  40.317   0.713
44918W        W15518  29.633  14.975   1.826
44919W        W15519  31.428   2.336  14.427
44920W        W15520  18.748  44.995   1.885
44921W        W15521  20.015  21.117   4.408
44922W        W15522  20.330  29.622  11.804
44923W        W15523  16.579   9.684   2.306
44924W        W15524  38.331  12.663   4.615
44925W        W15525  30.517   6.080   4.619
44926W        W15526   2.430  27.199  14.643
44927W        W15527  34.963   0.887   0.896
44928W        W15528  36.584   6.822   1.928
44929W        W15529  27.160   7.482   2.085
44930W        W15530  22.683  30.160   3.770
44931W        W15531  10.286   8.933   2.661
44932W        W15532  34.884   4.715  14.259
44933W        W15533   8.922  33.380   4.078
44934W        W15534  44.724  13.093   0.304
44935W        W15535  21.748  18.197  11.011
44936W        W15536  32.449   6.357  11.408
44937W        W15537  35.873  17.675   1.200
44938W        W15538  44.796  39.382  10.346
44939W        W15539   0.232  17.255  12.387
44940W        W15540   5.776  34.097   2.314
44941W        W15541  10.896  15.115   0.307
44942W        W15542  33.121  43.908   3.263
44943W        W15543  14.392  18.017   0.889
44944W        W15544  18.804  26.703   3.599
44945W        W15545   7.951  16.296  12.832
44946W        W15546   6.362  26.971  14.574
44947W        W15547   4.638  44.751  12.226
44948W        W15548   4.832  28.356   2.288
44949W        W15549  40.228  36.464  13.351
44950W        W15550  33.574  11.164   0.629
44951W        W15551  18.899  18.990  10.351
44952W        W15552   9.412  17.563   1.769
44953W        W15553  12.369   2.324  10.274
44954W        W15554  33.608  44.042   2.447
44955W        W15555  33.570  39.315   1.015
44956W        W15556  18.399   8.124  14.376
44957W        W15557  28.243  43.357  14.826
44958W        W15558   4.417  38.963   0.958
44959W        W15559  40.775  27.070   0.299
44960W        W15560  34.736  17.998  13.102
44961W        W15561  11.152   5.419  11.980
44962W        W15562   0.632  26.918   4.760
44963W        W15563  36.857  39.447   4.343
44964W        W15564  22.994   5.785  10.677
44965W        W15565  36.889   3.133   2.339
44966W        W15566  41.186   2.249  12.139
44967W        W15567  34.446   0.941   0.246
44968W        W15568  34.004  41.355  10.507
44969W        W15569  39.863  24.070  12.905
44970W        W15570   4.777  41.895  12.317
44971W        W15571  25.195  30.077  14.735
44972W        W15572  36.945  23.198  10.634
44973W        W15573  16.978  35.155   1.348
44974W        W15574   3.227  14.530   3.418
44975W        W15575  18.109   0.493   2.172
44976W        W15576  33.154  23.850  13.528
44977W        W15577   2.843   0.414   3.844
44978W        W15578  44.044  14.602  11.125
44979W        W15579   5.814  36.319  12.973
44980W        W15580   8.363  28.636   1.731
44981W        W15581  24.411  27.961  13.923
44982W        W15582   9.533   5.200   4.100
44983W        W15583  22.246  12.881   1.934
44984W        W15584  40.950  17.295  14.888
44985W        W15585  13.974  43.882   0.342
44986W        W15586  44.970  21.280   0.511
44987W        W15587  22.046  34.269  12.170
44988W        W15588   2.178  31.958  12.811
44989W        W15589  24.719  43.932   1.945
44990W        W15590  11.645  40.230  11.530
44991W        W15591  23.456  16.631   3.713
44992W        W15592  19.301  26.486   3.608
44993W        W15593   1.376  39.004  13.557
44994W        W15594  15.303   5.665   4.169
44995W        W15595  42.494   5.909  14.930
44996W        W15596  19.012  18.517   0.002
44997W        W15597  28.192   4.102  12.580
44998W        W15598  34.873  14.269  12.211
44999W        W15599  10.140   2.424   0.310
45000W        W15600  12.105  19.803  11.952
45001W        W15601  42.041  30.981   1.138
45002W        W15602  25.758  35.478  13.213
45003W        W15603  15.163   5.506   3.709
45004W        W15604  33.524  22.914  12.401
45005W        W15605  19.280  21.641  13.204
45006W        W15606   4.897   9.882   4.173
45007W        W15607  23.650   2.130   4.775
45008W        W15608  39.884  21.605  13.190
45009W        W15609   8.289  20.601   4.061
45010W        W15610  17.572   9.344  13.050
45011W        W15611  30.983  34.527  14.699
45012W        W15612  29.528   5.730  14.329
45013W        W15613  27.848  40.039  13.875
45014W        W15614   7.612  44.864  12.044
45015W        W15615   2.046  18.243  12.160
45016W        W15616  30.897  14.800   4.071
45017W        W15617  11.201  39.448  11.556
45018W        W15618  25.686  24.098   4.875
45019W        W15619   7.083  43.874   3.752
45020W        W15620  40.924  34.155  11.437
45021W        W15621  33.421  42.681   1.526
45022W        W15622  36.895  12.073   3.260
45023W        W15623  12.576  36.988   2.754
45024W        W15624   7.256  24.229  14.474
45025W        W15625  40.958  35.263   0.213
45026W        W15626  20.522   1.054   1.802
45027W        W15627  30.517  17.593  14.415
45028W        W15628   9.271  11.200  12.114
45029W        W15629  15.389  44.375  13.595
45030W        W15630  24.574  28.885   0.834
45031W        W15631  42.240   3.286  12.061
45032W        W15632   7.375  34.954   0.837
45033W        W15633  19.573   9.138   4.870
45034W        W15634  38.923  34.906  13.304
45035W        W15635  44.765  41.330  13.996
45036W        W15636  16.765   3.641  13.974
45037W        W15637  26.978  37.994   1.106
45038W        W15638  19.672  12.587   4.337
45039W        W15639  36.288  41.582  10.345
45040W        W15640  17.198   2.793  12.481
45041W        W15641  13.214  31.535  14.806
45042W        W15642  40.561  39.793   1.379
45043W        W15643  24.140   5.826  12.495
45044W        W15644  21.775  22.591  14.323
45045W        W15645  29.222  26.511  11.889
45046W        W15646  12.313   0.498   4.104
45047W        W15647  41.385   3.377   5.039
45048W        W15648  18.003  27.135   3.844
45049W        W15649  28.126  33.873   1.944
45050W        W15650  38.408   6.865  12.882
45051W        W15651  24.489  29.427   3.238
45052W        W15652  42.948  19.138  14.484
45053W        W15653  40.468  35.059  14.918
45054W        W15654  26.656  23.796  13.890
45055W        W15655  22.717  13.961   3.221
45056W        W15656  36.821  13.947  14.646
45057W        W15657  38.038   4.663  10.153
45058W        W15658  36.959  36.542  13.075
45059W        W15659  42.626  10.241   2.238
45060W        W15660  23.240  17.195  10.665
45061W        W15661  25.981   3.825   1.487
45062W        W15662  18.271  10.873   0.231
45063W        W15663   7.438   0.212   3.201
45064W        W15664   3.430   1.514  13.510
45065W        W15665  11.653  39.421   3.234
45066W        W15666  37.332  33.544   2.341
45067W        W15667  17.308  38.564   1.559
45068W        W15668  30.650  20.335   0.017
45069W        W15669  23.364   9.903   2.355
45070W        W15670  21.502  25.143   1.246
45071W        W15671  34.056  29.649  13.488
45072W        W15672  37.982  10.843   2.954
45073W        W15673  33.062  19.850  13.737
45074W        W15674   5.267  15.781  13.334
45075W        W15675  11.024  36.388  13.317
45076W        W15676   0.014  25.025   4.229
45077W        W15677   6.502  23.513  11.262
45078W        W15678   4.286  23.449  12.401
45079W        W15679  27.728  17.786   4.543
45080W        W15680  28.775   0.289  14.656
45081W        W15681  24.464  19.026   1.087
45082W        W15682  40.856  38.341   1.270
45083W        W15683   0.927  39.572  11.507
45084W        W15684  20.543  39.390  13.981
45085W        W15685  16.178   5.104  11.572
45086W        W15686  16.865  28.499   0.218
45087W        W15687   7.395  14.688   0.435
45088W        W15688  26.448  16.637   3.618
45089W        W15689  33.474  12.754   2.817
45090W        W15690  38.893  17.605  10.615
45091W        W15691  23.308  15.244   1.213
45092W        W15692   5.953  35.787  14.813
45093W        W15693   4.760  35.449   4.072
45094W        W15694   2.266   9.154   3.603
45095W        W15695   2.414   8.708   2.238
45096W        W15696  32.081  37.223   0.465
45097W        W15697  43.847   6.390  11.858
45098W        W15698  20.845   1.717  12.002
45099W        W15699  14.800  18.265   4.092
45100W        W15700  37.784  31.510   2.609
45101W        W15701  19.492  34.940   3.532
45102W        W15702  21.707  33.366   9.990
45103W        W15703   0.089  25.512  14.279
45104W        W15704  16.243  12.101  13.296
45105W        W15705  32.244   6.338   4.419
45106W        W15706  12.211  18.064  12.583
45107W        W15707  25.413  21.333   4.154
45108W        W15708  35.910  21.990   2.747
45109W        W15709  25.451  34.821   3.256
45110W        W15710  28.585  33.016  12.460
45111W        W15711  43.576  44.373  12.557
45112W        W15712   6.408  42.138  14.923
45113W        W15713  27.056  44.431   0.498
45114W        W15714   1.698   3.304   0.066
45115W        W15715  40.343  24.328   3.592
45116W        W15716   9.779  16.242   3.223
45117W        W15717  16.853   0.938   3.834
45118W        W15718  42.959   0.953  11.389
45119W        W15719   9.413  10.771  13.468
45120W        W15720  31.432  16.343  13.462
45121W        W15721  29.456  34.687   1.900
45122W        W15722  41.906   7.226  14.949
45123W        W15723  19.189  10.141  13.875
45124W        W15724  13.739  27.283  14.435
45125W        W15725  24.104  38.108   4.168
45126W        W15726  19.738   0.987  14.815
45127W        W15727  19.551  33.727  12.614
45128W        W15728  29.737  27.226  12.095
45129W        W15729   7.630  44.986  13.344
45130W        W15730  10.818  43.519   4.917
45131W        W15731  31.045   6.917   3.764
45132W        W15732  36.061  11.817  11.670
45133W        W15733  25.798   9.952  14.998
45134W        W15734  38.311   9.718  10.583
45135W        W15735  28.016  41.544  12.468
45136W        W15736  23.566  11.131   3.209
45137W        W15737  23.817   0.906   3.901
45138W        W15738  21.800  16.348   4.081
45139W        W15739  34.537  12.377   0.954
45140W        W15740  13.661  30.935   4.111
45141W        W15741  21.088  20.498  13.865
45142W        W15742  34.909  25.093   0.407
45143W        W15743  27.013  23.156  13.792
45144W        W15744  33.844  17.689   2.791
45145W        W15745   4.157   2.931   2.908
45146W        W15746  36.464  39.215  11.124
45147W        W15747  18.733   2.382   4.803
45148W        W15748  18.979   7.450   5.230
45149W        W15749  30.052  26.000  13.563
45150W        W15750   6.251  29.873  11.214
45151W        W15751  23.981  11.995  12.194
45152W        W15752   0.494  34.571   4.490
45153W        W15753   8.059  25.560   4.523
45154W        W15754  33.008  24.148  13.128
45155W        W15755   8.938  34.652  12.063
45156W        W15756  14.860   5.725   3.336
45157W        W15757  13.175   1.006   4.627
45158W        W15758   6.288   6.639  12.144
45159W        W15759  15.208  24.536  11.126
45160W        W15760  16.501   3.681   1.245
45161W        W15761   2.762  31.529  14.967
45162W        W15762   4.805  21.048  12.795
45163W        W15763  35.413   6.904  11.742
45164W        W15764  27.941   0.841   3.674
45165W        W15765   0.217  17.747  12.581
45166W        W15766  11.046  42.508   4.721
45167W        W15767   4.796  35.527  12.678
45168W        W15768  30.925   5.612  13.099
45169W        W15769   9.982  43.244  11.113
45170W        W15770  35.315  10.424  10.681
45171W        W15771   8.358  20.631   1.665
45172W        W15772  31.691  21.496  12.948
45173W        W15773  17.797  31.474   3.391
45174W        W15774  10.258   1.068   1.960
45175W        W15775  21.152  19.095   4.690
45176W        W15776  34.471  11.682  14.879
45177W        W15777   3.926  42.439   0.373
45178W        W15778  19.838  42.301   2.727
45179W        W15779  18.580  36.480   0.792
45180W        W15780  20.036  18.035   2.909
45181W        W15781  14.714  32.448  10.731
45182W        W15782   2.360  10.312   1.368
45183W        W15783  43.831  27.727   0.231
45184W        W15784   5.798  38.602   4.347
45185W        W15785  15.550  34.883  12.080
45186W        W15786  37.423   3.912  14.564
45187W        W15787  20.093   0.085   1.510
45188W        W15788  14.692  27.452   4.633
45189W        W15789  33.015   5.146   1.776
45190W        W15790  25.147  18.097  11.152
45191W        W15791  28.477  39.282  10.799
45192W        W15792  16.740  39.836   3.358
45193W        W15793  11.336   8.643   2.844
45194W        W15794  10.623  13.607   1.519
45195W        W15795  31.871  30.041   2.982
45196W        W15796  32.403  14.892  11.056
45197W        W15797  34.313  21.284   2.291
45198W        W15798  16.638   1.943  10.730
45199W        W15799  27.651  28.247   1.535
45200W        W15800   3.781   1.774   4.660
45201W        W15801  26.373   6.521  12.370
45202W        W15802   0.341  35.975   4.314
45203W        W15803  27.689  39.120   1.018
45204W        W15804  25.604  31.454   0.716
45205W        W15805  14.956   4.565   1.856
45206W        W15806  25.150  28.552   2.679
45207W        W15807  17.463  41.045  10.688
45208W        W15808   0.993  18.678   4.806
45209W        W15809  43.666  39.456  11.084
45210W        W15810   3.287  33.924   0.941
45211W        W15811  31.193   2.874   1.360
45212W        W15812   0.822   0.679   1.962
45213W        W15813  16.798  34.155  14.952
45214W        W15814  24.041  36.674  13.034
45215W        W15815  17.027  21.210  12.415
45216W        W15816  10.382   5.399   2.354
45217W        W15817   3.911   9.236  12.972
45218W        W15818  18.037  29.712   0.411
45219W        W15819   6.551   1.390  11.667
45220W        W15820  22.053   6.742   5.028
45221W        W15821  24.898   0.958  12.122
45222W        W15822  12.728  17.798   4.626
45223W        W15823  13.606  12.014   2.377
45224W        W15824  15.054  36.040  13.042
45225W        W15825  28.168   0.336  10.257
45226W        W15826  32.877  34.482   2.780
45227W        W15827  13.098  44.152   3.736
45228W        W15828  25.084   9.997  11.436
45229W        W15829  12.674  40.776  12.829
45230W        W15830   9.654  32.116   4.552
45231W        W15831  37.830  38.096   0.865
45232W        W15832  25.682  33.103  10.880
45233W        W15833  12.796  35.478   1.269
45234W        W15834   6.360  21.108   2.182
45235W        W15835   9.853   4.352  14.459
45236W        W15836  15.650  15.240   5.024
45237W        W15837  24.350  17.641  10.292
45238W        W15838   3.809   3.262  14.296
45239W        W15839  16.354  35.071  11.589
45240W        W15840   1.876  34.295   0.995
45241W        W15841  43.553  17.139  14.078
45242W        W15842   0.994  40.718  13.981
45243W        W15843  16.058  44.407  14.956
45244W        W15844  40.874  11.307   4.143
45245W        W15845  10.217  41.038  11.701
45246W        W15846   0.011  34.041   1.953
45247W        W15847  12.871  38.354   3.281
45248W        W15848  31.093  21.097   4.491
45249W        W15849   5.452  30.025   1.851
45250W        W15850  31.565  42.858   5.003
45251W        W15851   4.253  17.753   3.670
45252W        W15852   5.827  38.093   4.333
45253W        W15853  25.150  13.633   2.839
45254W        W15854  10.317  42.959   1.760
45255W        W15855  35.471  43.411  12.451
45256W        W15856  29.244  18.201  12.165
45257W        W15857  19.490  11.771  13.042
45258W        W15858  14.671   5.530   2.887
45259W        W15859  13.358   9.721   2.757
45260W        W15860  26.749  34.930   3.176
45261W        W15861  11.741   9.692  11.170
45262W        W15862  14.061  23.238   4.054
45263W        W15863  13.204  12.046   1.231
45264W        W15864  41.033  34.071   1.157
45265W        W15865  18.655  16.511   0.408
45266W        W15866   3.157  36.873  12.465
45267W        W15867  33.319   5.426  13.724
45268W        W15868  15.136  32.061   1.858
45269W        W15869  17.567  22.728   0.972
45270W        W15870  43.869  44.042   3.170
45271W        W15871  43.381  28.112   4.283
45272W        W15872   1.291  35.131   2.265
45273W        W15873  43.554  12.672  14.362
45274W        W15874  22.617  33.853  11.433
45275W        W15875  15.368  22.112  14.824
45276W        W15876  39.851  12.302  11.149
45277W        W15877  13.742   2.424  10.754
45278W        W15878   0.767   9.097  11.971
45279W        W15879  25.115  10.367   3.394
45280W        W15880  40.705  18.707   2.477
45281W        W15881  11.286  40.419  11.196
45282W        W15882  42.361   6.453   1.934
45283W        W15883  25.533  17.687  12.500
45284W        W15884  38.301  22.044  12.497
45285W        W15885   9.158  32.887  13.363
45286W        W15886  19.304  36.965   0.381
45287W        W15887   6.676  34.570  10.585
45288W        W15888  44.524  20.252   4.588
45289W        W15889  15.512  41.175   1.701
45290W        W15890   3.967  38.197   2.204
45291W        W15891  23.584  33.340  13.728
45292W        W15892  38.360  20.053  11.907
45293W        W15893  34.692  35.116  14.911
45294W        W15894  21.658   3.374   0.233
45295W        W15895   8.682  41.223   2.894
45296W        W15896  21.799  24.033  11.106
45297W        W15897  16.184  15.720   3.704
45298W        W15898  21.992  26.596  14.967
45299W        W15899  26.770  21.231  11.977
45300W        W15900  30.844  32.303   0.233
45301W        W15901   2.728  31.321  13.351
45302W        W15902  22.081  12.757  12.819
45303W        W15903  40.530  34.815  12.830
45304W        W15904  15.205  42.903   1.887
45305W        W15905  43.723   8.787  14.060
45306W        W15906  16.348  29.101  13.503
45307W        W15907  38.743  23.578   0.603
45308W        W15908  27.714  28.760   1.467
45309W        W15909  18.775  16.760   1.861
45310W        W15910  29.964  11.778   4.295
45311W        W15911  17.170  25.567   3.191
45312W        W15912  26.639   9.952   1.219
45313W        W15913   8.553  29.093  12.637
45314W        W15914  22.731   0.501   2.738
45315W        W15915  39.097  15.721   4.387
45316W        W15916  43.864  17.347   0.897
45317W        W15917  14.392  34.615   0.187
45318W        W15918   3.362   1.465   0.254
45319W        W15919  30.401  29.566   2.244
45320W        W15920   0.476  13.659   3.254
45321W        W15921   4.833  16.773  14.320
45322W        W15922   8.378  16.219   2.135
45323W        W15923  37.855  19.485  11.090
45324W        W15924   9.009  24.195  11.598
45325W        W15925   3.889  21.977   2.725
45326W        W15926   6.073  41.199   5.176
45327W        W15927  12.233  29.429   4.731
45328W        W15928   8.430   1.391  13.034
45329W        W15929   7.760  22.321  11.490
45330W        W15930   5.224  44.047   1.313
45331W        W15931   7.319  33.800   2.340
45332W        W15932  35.459  26.248  11.518
45333W        W15933  35.664  30.929   4.112
45334W        W15934  25.966  43.468   0.992
45335W        W15935  42.843  18.112  14.964
45336W        W15936   9.785   1.077   1.191
45337W        W15937   6.480  33.164  11.556
45338W        W15938  24.612  34.318   1.865
45339W        W15939  27.639  13.340   2.475
45340W        W15940  22.244  24.790   4.634
45341W        W15941  33.503  38.529  12.408
45342W        W15942  12.928   8.761   3.526
45343W        W15943  20.638  21.514  11.228
45344W        W15944  35.959  13.084  13.962
45345W        W15945  14.677  21.536   1.246
45346W        W15946  11.280  35.714   0.109
45347W        W15947  21.034  21.421   1.856
45348W        W15948   5.006  32.981   1.732
45349W        W15949  13.729   7.843  13.051
45350W        W15950   7.242  25.448   0.201
45351W        W15951  37.349  15.875   1.281
45352W        W15952  13.314   8.960   0.305
45353W        W15953   2.043  30.367   4.570
45354W        W15954  30.298  16.413   3.125
45355W        W15955  28.212  25.399  10.147
45356W        W15956   9.689  27.786   4.026
45357W        W15957  25.483   3.314  13.203
45358W        W15958  44.103  43.036   4.580
45359W        W15959  42.545  41.905  14.808
45360W        W15960   4.691  26.736   4.139
45361W        W15961  39.113  26.644   4.110
45362W        W15962  38.280  21.735   2.747
45363W        W15963   3.523  43.294   1.575
45364W        W15964  44.543  29.626  12.484
45365W        W15965  10.331  38.328   3.885
45366W        W15966  41.399   6.419   4.510
45367W        W15967  18.544  12.756  12.950
45368W        W15968  43.843   2.299   0.906
45369W        W15969  17.372  28.505   0.167
45370W        W15970  14.508  40.900  10.017
45371W        W15971  20.989  34.016   0.250
45372W        W15972   2.396  41.787   5.012
45373W        W15973   0.367  35.344  11.416
45374W        W15974  28.392   2.331   2.658
45375W        W15975   9.858   6.766  14.022
45376W        W15976  11.580   5.433   3.304
45377W        W15977   8.353  18.226   0.254
45378W        W15978  22.968   2.680   2.842
45379W        W15979  34.554  10.871   2.831
45380W        W15980  25.762  32.976  11.363
45381W        W15981  19.625  16.491   1.642
45382W        W15982  16.662  30.526   4.618
45383W        W15983  26.876  32.480  13.064
45384W        W15984  15.686  39.813   1.007
45385W        W15985  16.203  27.707   3.355
45386W        W15986  23.084   7.743   3.188
45387W        W15987  14.183  18.093  14.307
45388W        W15988   2.777  38.541   2.978
45389W        W15989  24.018  21.152   1.833
45390W        W15990   4.900   0.824   3.218
45391W        W15991  26.432  16.999  11.249
45392W        W15992  18.344  18.300  10.620
45393W        W15993   4.722  19.641   3.222
45394W        W15994   9.884  10.308  13.878
45395W        W15995   3.411  17.646  14.023
45396W        W15996  15.347   3.587  10.251
45397W        W15997  36.249   0.275   0.783
45398W        W15998  29.522  22.096   3.734
45399W        W15999  44.223  18.277  10.157
45400W        W16000   1.004  19.943   2.406
45401W        W16001   2.303   9.411   3.127
45402W        W16002  14.585  44.884  13.462
45403W        W16003  18.596  14.400  14.666
45404W        W16004  38.909   2.288   4.274
45405W        W16005   0.805  25.233   3.837
45406W        W16006  44.432  27.591   0.032
45407W        W16007  18.764  44.172  14.764
45408W        W16008   6.884  24.503  12.973
45409W        W16009   9.365  17.414   0.126
45410W        W16010   3.965  12.656   2.199
45411W        W16011   0.392  20.733   4.625
45412W        W16012  40.021  19.597   0.743
45413W        W16013  35.559  40.899  12.765
45414W        W16014  25.077  18.666  11.920
45415W        W16015   4.136  30.017  12.360
45416W        W16016   9.212  14.303  12.941
45417W        W16017   6.842   1.888   1.423
45418W        W16018  27.945  14.372   0.436
45419W        W16019  33.433  16.715  10.634
45420W        W16020  13.991  44.055   1.902
45421W        W16021  31.076   2.397  13.088
45422W        W16022  24.821  28.130  11.587
45423W        W16023  24.950  39.018  12.310
45424W        W16024  40.889  20.120  11.644
45425W        W16025  43.974  30.530  14.105
45426W        W16026  32.445  27.370   3.308
45427W        W16027  29.962  28.204   1.273
45428W        W16028  14.688  44.779   0.790
45429W        W16029  43.446   1.939   1.326
45430W        W16030   2.448   4.725   3.738
45431W        W16031   9.375  17.209   4.100
45432W        W16032  25.045  16.499  11.571
45433W        W16033  38.537   8.010  12.458
45434W        W16034   2.340   3.647   2.226
45435W        W16035  39.877  25.919  10.654
45436W        W16036  13.809  21.492   4.947
45437W        W16037   6.340  36.119  14.745
45438W        W16038  24.525  32.451   0.001
45439W        W16039   5.918  21.534   1.406
45440W        W16040  14.336  11.954  14.276
45441W        W16041  34.465  28.827   2.733
45442W        W16042  35.817   9.367   3.368
45443W        W16043  37.918   1.696   4.277
45444W        W16044  33.971  21.490  12.285
45445W        W16045   9.024  35.325  11.188
45446W        W16046  23.067  39.549   3.727
45447W        W16047  19.624  44.651   5.088
45448W        W16048   8.759  13.744   3.903
45449W        W16049   8.409   9.086   4.098
45450W        W16050  18.981  40.873  13.008
45451W        W16051  31.562  14.944  11.507
45452W        W16052  12.659  33.894   3.996
45453W        W16053   4.758  24.512   3.253
45454W        W16054  37.947  28.754   3.647
45455W        W16055  24.442  26.653   2.773
45456W        W16056   1.452  28.433  12.177
45457W        W16057  41.324  28.210  10.521
45458W        W16058   4.301  35.706   3.171
45459W        W16059   5.380   7.229   2.695
45460W        W16060  11.390   0.989   5.112
45461W        W16061  40.171  19.721  13.988
45462W        W16062  11.788  32.608   1.930
45463W        W16063  29.403  41.813  11.639
45464W        W16064   9.396  36.134   0.208
45465W        W16065  15.239  31.104   3.828
45466W        W16066  12.832  18.118   1.866
45467W        W16067  28.523  18.583  12.957
45468W        W16068   7.183  20.034  13.915
45469W        W16069   2.301   3.234  11.142
45470W        W16070  35.602   4.479  11.609
45471W        W16071  19.843  18.542   1.815
45472W        W16072  16.576   5.727   4.503
45473W        W16073  21.217  20.799  12.942
45474W        W16074   9.190  18.392  11.012
45475W        W16075  33.599   3.739   1.941
45476W        W16076  16.152  21.278  10.974
45477W        W16077   7.670   8.321  12.566
45478W        W16078  41.442  19.119   1.130
45479W        W16079  41.965  30.949  10.603
45480W        W16080   2.968   9.651  14.885
45481W        W16081  11.048   8.419   1.843
45482W        W16082  19.982  14.773  12.778
45483W        W16083  37.107  25.487   1.436
45484W        W16084  33.944   1.317  10.966
45485W        W16085   2.240  36.412   0.902
45486W        W16086  15.687  21.040  10.961
45487W        W16087   1.902  39.769  13.055
45488W        W16088  44.277  32.416  14.856
45489W        W16089  16.868  35.934   4.131
45490W        W16090  44.789  31.974   4.784
45491W        W16091  26.437   0.210  14.090
45492W        W16092   5.302   8.227   4.620
45493W        W16093  31.637  35.703   3.470
45494W        W16094  10.261   5.694   4.216
45495W        W16095  42.401  18.556  13.314
45496W        W16096   9.416  24.774   1.240
45497W        W16097  20.620  16.603   1.359
45498W        W16098  21.628   8.742   2.990
45499W        W16099   4.745   0.880   2.242
45500W        W16100  12.157  16.811   4.573
45501W        W16101  33.567  24.720  12.769
45502W        W16102  21.254  15.644   4.579
45503W        W16103  27.620  14.268  14.248
45504W        W16104  33.477  18.091  14.330
45505W        W16105  13.903  35.869   2.160
45506W        W16106   2.439   0.858  12.007
45507W        W16107  26.716  31.591   3.546
45508W        W16108  33.414   9.087   2.428
45509W        W16109   0.576  25.438  12.472
45510W        W16110   4.750  29.707   1.456
45511W        W16111  27.980  21.014  14.865
45512W        W16112  14.301  39.406  12.106
45513W        W16113  39.890  37.691  14.012
45514W        W16114  44.573  38.311   1.522
45515W        W16115  26.705  31.831  10.233
45516W        W16116  19.944  33.402  12.702
45517W        W16117  33.198  23.087   3.260
45518W        W16118  25.453  36.473  13.000
45519W        W16119  30.321  41.321   1.187
45520W        W16120  37.232  40.212  10.921
45521W        W16121   9.826  23.738  10.803
45522W        W16122  15.612  29.075   3.274
45523W        W16123   6.259   2.997  11.329
45524W        W16124  24.977   6.548  12.172
45525W        W16125  31.511   2.727  11.540
45526W        W16126  27.693  41.850  10.524
45527W        W16127  17.707   7.133  14.170
45528W        W16128  18.825   7.913   4.785
45529W        W16129  13.100  31.934   3.103
45530W        W16130   5.252  22.016  10.697
45531W        W16131  29.368  17.680   3.147
45532W        W16132  23.186   1.785   0.856
45533W        W16133  15.308   3.777   2.329
45534W        W16134  15.908  23.939   0.215
45535W        W16135  36.909   5.523  13.570
45536W        W16136  23.186  40.706  10.530
45537W        W16137   8.783  15.060  14.922
45538W        W16138  18.164   9.459  11.512
45539W        W16139  27.941  20.593   0.830
45540W        W16140  37.328  19.801  14.010
45541W        W16141  25.629  43.463   0.023
45542W        W16142   9.919  31.895  12.882
45543W        W16143  21.599  25.131   0.212
45544W        W16144  39.555  15.188   3.078
45545W        W16145  21.577  18.951  13.925
45546W        W16146  24.734  25.894  13.992
45547W        W16147  24.082   6.107   2.419
45548W        W16148  36.459  35.921   3.243
45549W        W16149  29.290  23.026  13.057
45550W        W16150  10.598   1.038   3.301
45551W        W16151  34.529  15.694   1.023
45552W        W16152  43.235  27.218  13.910
45553W        W16153  18.073  11.947   4.058
45554W        W16154  32.068   4.197   4.554
45555W        W16155  10.016  36.965   0.721
45556W        W16156  36.018  11.071  10.362
45557W        W16157   5.784  13.922  14.520
45558W        W16158  11.813  12.596  12.894
45559W        W16159  14.311  10.117  13.002
45560W        W16160  44.887  11.919  14.959
45561W        W16161  41.159  39.701  14.656
45562W        W16162  14.123   8.118  12.563
45563W        W16163  20.123   5.691   4.242
45564W        W16164  16.066  25.984   0.013
45565W        W16165  25.203  34.180  13.814
45566W        W16166  30.459   2.253   4.144
45567W        W16167   3.209  32.256   1.037
45568W        W16168  11.621  16.407  10.768
45569W        W16169   1.022  25.730  14.717
45570W        W16170  36.868   7.453  11.146
45571W        W16171  34.490  38.447  12.364
45572W        W16172   8.869   7.431   2.342
45573W        W16173   8.433  13.847  11.098
45574W        W16174  35.580   1.473  13.790
45575W        W16175  42.999  32.963  11.189
45576W        W16176  27.730  19.376  10.717
45577W        W16177   5.478  44.275  10.181
45578W        W16178  42.434   3.659  13.405
45579W        W16179  20.148  40.002   2.416
45580W        W16180  24.514  34.563  13.629
45581W        W16181  10.325  22.766   4.298
45582W        W16182   5.420   0.370  11.119
45583W        W16183   1.826  28.599   1.505
45584W        W16184  27.064  17.224   1.701
45585W        W16185  17.294   5.439  13.943
45586W        W16186  44.087   0.013   1.268
45587W        W16187   5.927  13.669  12.530
45588W        W16188  21.306  26.227   0.892
45589W        W16189  33.794  33.216   1.231
45590W        W16190  27.968  28.403  11.623
45591W        W16191  25.063  40.181  11.228
45592W        W16192   6.839   5.345  11.704
45593W        W16193  21.914   0.996   2.306
45594W        W16194  10.589   3.281  14.856
45595W        W16195   4.311  15.610  11.011
45596W        W16196  20.044  11.653  13.152
45597W        W16197  18.241  24.044  13.492
45598W        W16198   0.986  10.321   0.701
45599W        W16199  33.582  26.714  12.482
45600W        W16200   0.605  27.153   2.737
45601W        W16201  40.119  13.830  11.456
45602W        W16202  41.976  15.848  14.601
45603W        W16203  28.718  12.215  10.619
45604W        W16204   3.781   7.727   0.836
45605W        W16205  36.828   7.312   3.578
45606W        W16206  21.360   5.897   0.481
45607W        W16207  39.863  43.355  13.283
45608W        W16208  32.855   3.826   3.713
45609W        W16209  15.850  23.801   1.919
45610W        W16210  37.431  15.400   2.281
45611W        W16211  21.712  14.205  14.581
45612W        W16212  33.216  15.507   1.253
45613W        W16213  42.090  41.932  10.887
45614W        W16214  41.916  28.569   3.727
45615W        W16215   2.805  23.585  10.740
45616W        W16216  15.410  17.647   4.553
45617W        W16217  28.389  39.840  12.899
45618W        W16218   8.910  36.270  14.316
45619W        W16219  14.687   9.677   1.491
45620W        W16220  15.253  18.116  13.325
45621W        W16221   4.254  43.540  12.999
45622W        W16222  12.270   4.156  11.541
45623W        W16223   1.239   4.011   3.139
45624W        W16224  41.412  17.562  11.128
45625W        W16225  25.081  15.497   0.029
45626W        W16226  23.644  38.011   0.991
45627W        W16227   0.997  23.445  14.156
45628W        W16228  30.758   8.198   0.988
45629W        W16229  24.672  34.390   2.383
45630W        W16230   5.880  21.191  10.745
45631W        W16231  25.467  42.311  13.070
45632W        W16232  43.334  13.515   4.534
45633W        W16233  24.963   1.780   3.131
45634W        W16234  27.404  12.309   4.756
45635W        W16235  17.619  28.162   2.254
45636W        W16236  18.478   7.434   0.151
45637W        W16237   8.606  41.830  12.092
45638W        W16238  44.277  12.837   0.907
45639W        W16239  30.553  15.801  12.470
45640W        W16240  43.640   9.721  13.554
45641W        W16241  19.074  17.841  14.237
45642W        W16242  42.980  19.992  14.971
45643W        W16243  14.298  11.838  11.557
45644W        W16244  34.917   9.806  14.014
45645W        W16245  28.559  14.145   4.014
45646W        W16246  34.965  27.285  14.318
45647W        W16247  43.494  35.525  13.484
45648W        W16248  31.398  36.095  14.239
45649W        W16249  16.586  26.591   3.752
45650W        W16250  25.106  30.011  13.756
45651W        W16251  11.853  15.652  10.321
45652W        W16252  37.568  34.092   0.773
45653W        W16253  12.008   8.185   1.543
45654W        W16254  23.150  15.082  14.236
45655W        W16255  37.336   2.939  10.516
45656W        W16256  11.856  21.550  14.833
45657W        W16257  34.474  41.417   2.379
45658W        W16258  17.795  24.025  10.230
45659W        W16259  33.387   1.007   2.881
45660W        W16260  37.826  27.704   3.766
45661W        W16261   1.755  11.229  14.989
45662W        W16262  32.905  43.824  12.169
45663W        W16263  37.435  16.231   4.770
45664W        W16264   5.936  41.015   4.724
45665W        W16265   9.364  14.177   3.200
45666W        W16266  37.575  22.079  11.781
45667W        W16267   3.965  37.206   0.305
45668W        W16268  16.339  27.243  13.506
45669W        W16269  28.620   5.898   3.150
45670W        W16270  43.713  42.725  11.141
45671W        W16271  42.665   1.758  12.449
45672W        W16272   7.447  38.377   4.769
45673W        W16273  42.818  36.282   1.457
45674W        W16274  36.477  39.629   1.724
45675W        W16275  32.511   9.139  13.494
45676W        W16276  19.358   7.781   1.264
45677W        W16277  19.544   9.778  14.397
45678W        W16278  30.258   5.160  12.218
45679W        W16279   8.859  29.859   4.136
45680W        W16280  14.948  30.177   3.800
45681W        W16281  17.209  17.375  13.430
45682W        W16282  39.034   2.438  12.984
45683W        W16283  30.042  22.209   3.960
45684W        W16284  12.695  33.733  12.921
45685W        W16285  30.559   4.740  10.400
45686W        W16286   1.354   2.521  14.512
45687W        W16287  19.833   8.045  11.068
45688W        W16288  41.489  10.653  14.302
45689W        W16289  32.124   6.072  10.737
45690W        W16290  39.888  11.800   0.003
45691W        W16291  42.859  17.854   4.565
45692W        W16292  20.575  22.229  11.511
45693W        W16293  34.868   6.936   2.752
45694W        W16294   0.378   7.233   4.236
45695W        W16295  20.075  29.139  11.664
45696W        W16296  41.345   6.766   2.311
45697W        W16297  18.043  24.122   4.728
45698W        W16298  30.839   3.355  12.922
45699W        W16299  20.598  41.272   3.229
45700W        W16300   5.956   2.144  12.920
45701W        W16301  10.394  13.199   4.079
45702W        W16302  22.709  26.258   1.669
45703W        W16303  26.711   2.933  10.637
45704W        W16304  25.496  36.095   9.548
45705W        W16305  40.107   7.275  12.059
45706W        W16306  30.824  10.033   2.783
45707W        W16307  39.566  33.338   4.055
45708W        W16308  28.425   9.097   3.585
45709W        W16309  44.552   5.249  11.186
45710W        W16310  36.549  27.746  12.817
45711W        W16311  13.770  41.081   0.219
45712W        W16312  11.704   3.124  11.052
45713W        W16313  44.475   5.726   1.393
45714W        W16314  31.343  36.327  13.353
45715W        W16315  21.552   8.273  13.817
45716W        W16316   3.702   7.624  14.675
45717W        W16317  14.265  14.951  13.127
45718W        W16318  26.936  27.885  12.465
45719W        W16319  25.862  26.464   0.773
45720W        W16320  23.001   7.745  12.952
45721W        W16321   5.993  43.335  14.651
45722W        W16322  36.465  34.070   4.681
45723W        W16323  30.365   0.251   3.432
45724W        W16324  27.953  44.550  12.979
45725W        W16325  42.159  22.686   5.175
45726W        W16326  34.355   8.954  11.669
45727W        W16327  23.242  39.937  14.804
45728W        W16328  12.406  29.193   1.793
45729W        W16329  35.106   4.455  12.863
45730W        W16330  40.713  32.553   4.098
45731W        W16331  34.571   7.064   2.354
45732W        W16332  22.274  43.021  13.829
45733W        W16333  37.006   2.410   4.861
45734W        W16334  20.428  21.032  11.226
45735W        W16335  33.054  20.150  10.696
45736W        W16336  26.153   2.920   1.174
45737W        W16337  10.936  28.060  14.480
45738W        W16338  16.245  25.194  11.787
45739W        W16339   3.169  30.595  12.050
45740W        W16340  31.659  39.003   2.683
45741W        W16341   3.616   7.170  14.906
45742W        W16342  18.278  21.269  12.022
45743W        W16343  10.294  42.305  13.049
45744W        W16344  24.286  43.875   3.768
45745W        W16345  36.156  13.573  12.414
45746W        W16346  40.636  33.550   2.556
45747W        W16347  42.804  13.881  11.915
45748W        W16348  28.578  29.119   4.728
45749W        W16349  36.259  18.637  10.262
45750W        W16350  32.360  24.063   2.191
45751W        W16351  33.359  11.308  10.476
45752W        W16352  20.213  10.852  13.831
45753W        W16353  23.516  39.531  14.993
45754W        W16354  18.559  24.402  10.730
45755W        W16355  31.335   9.280  12.621
45756W        W16356  30.410  39.557   0.928
45757W        W16357  22.710  13.681  12.067
45758W        W16358  15.202  21.058  11.660
45759W        W16359   1.758  32.002   3.215
45760W        W16360   0.578  11.655  13.951
45761W        W16361  20.626  13.305  12.563
45762W        W16362  42.815  21.952  13.513
45763W        W16363  27.557  36.642  13.750
45764W        W16364  16.216  24.275   1.385
45765W        W16365   9.818   7.697   0.392
45766W        W16366  11.205  20.668  13.540
45767W        W16367  15.709  13.059  11.566
45768W        W16368  35.132  31.855  10.297
45769W        W16369  19.258  18.275  11.992
45770W        W16370  15.258  28.108   2.446
45771W        W16371   8.229   3.656   2.692
45772W        W16372  35.950  12.867  11.642
45773W        W16373  25.680   2.971   1.824
45774W        W16374  38.527   0.510  13.294
45775W        W16375  13.078  41.508   4.649
45776W        W16376  10.097  22.644  12.267
45777W        W16377  32.523   2.480  14.405
45778W        W16378   8.446  44.922   3.635
45779W        W16379   6.710  14.323   0.022
45780W        W16380  10.763  33.044   0.393
45781W        W16381  25.170   2.780  11.821
45782W        W16382  26.172   9.486   2.870
45783W        W16383   4.232  43.392   0.419
45784W        W16384  36.315  16.234  10.752
45785W        W16385  41.821   2.834   2.385
45786W        W16386  41.238  10.147   2.583
45787W        W16387  27.037  27.039  11.414
45788W        W16388  20.650  36.771  11.388
45789W        W16389  10.054  22.045   0.254
45790W        W16390  10.447  13.435   4.539
45791W        W16391  34.105  34.337   1.370
45792W        W16392  22.750   3.139  10.157
45793W        W16393  41.515  24.231   1.460
45794W        W16394  11.205  31.879   2.232
45795W        W16395  15.788  37.063  13.865
45796W        W16396   0.455  21.344  13.778
45797W        W16397   8.702   2.362   4.171
45798W        W16398  20.695  25.465   2.141
45799W        W16399  34.704  13.504   0.907
45800W        W16400  42.980  11.473   2.684
45801W        W16401  36.903  28.339  13.915
45802W        W16402   9.167  14.280   3.984
45803W        W16403  27.994  26.747  12.405
45804W        W16404  30.895  25.597  14.780
45805W        W16405  28.954  29.593  10.918
45806W        W16406  30.668  11.908   1.434
45807W        W16407  20.329  40.188   0.932
45808W        W16408  11.253  11.340   3.361
45809W        W16409  11.441  33.706  12.490
45810W        W16410  43.524   8.208  14.933
45811W        W16411  32.689  14.450   4.439
45812W        W16412  12.592  24.045   4.173
45813W        W16413  38.537  14.220   3.794
45814W        W16414   6.704  34.433   2.677
45815W        W16415  28.284  16.330   4.940
45816W        W16416  44.286  14.117   3.613
45817W        W16417  18.083  33.872  13.402
45818W        W16418  23.901  15.666  11.088
45819W        W16419   4.226  41.241   4.869
45820W        W16420  29.465   8.922  13.982
45821W        W16421  39.527  31.824   2.746
45822W        W16422  24.274  43.884   1.669
45823W        W16423  36.582  24.750   2.897
45824W        W16424   8.154  14.252   4.919
45825W        W16425   4.989  32.035  13.430
45826W        W16426  19.030  38.476   3.263
45827W        W16427   6.046  25.693   4.459
45828W        W16428  39.481  12.274   0.815
45829W        W16429  30.726  24.341  14.590
45830W        W16430  42.514  15.290  11.026
45831W        W16431  30.821  16.743  14.871
45832W        W16432   7.900  11.872   0.140
45833W        W16433  29.158  22.156   0.885
45834W        W16434  16.763  39.839  12.040
45835W        W16435  44.551  11.927   1.247
45836W        W16436  34.703  14.520  13.019
45837W        W16437   5.360   2.337  14.009
45838W        W16438  28.454   3.636  11.035
45839W        W16439  39.190  44.941  11.172
45840W        W16440  37.516   2.424   2.217
45841W        W16441  35.027  39.128   4.581
45842W        W16442  10.272  40.815  10.705
45843W        W16443   9.283   4.196  13.956
45844W        W16444  33.997   6.619  10.775
45845W        W16445  43.438   5.255  14.226
45846W        W16446  35.879   4.773  13.918
45847W        W16447   2.354  34.729  14.342
45848W        W16448  15.364  26.210  11.240
45849W        W16449  17.633  32.450   3.733
45850W        W16450   1.815  24.019  11.684
45851W        W16451  28.853  26.388   5.047
45852W        W16452  43.616  29.184  13.368
45853W        W16453  14.275  39.772   4.065
45854W        W16454  13.883  42.058  11.035
45855W        W16455  35.495  15.525   3.825
45856W        W16456  33.722  35.891   4.923
45857W        W16457   8.178  37.851   0.733
45858W        W16458  15.636  38.406   3.196
45859W        W16459  25.104   0.476  12.064
45860W        W16460  37.426  32.150   5.009
45861W        W16461  30.633  15.276  12.509
45862W        W16462   5.210  38.482   0.978
45863W        W16463  27.966  44.803  14.767
45864W        W16464  20.544  36.873   1.877
45865W        W16465  38.736  14.346   2.441
45866W        W16466  32.167  24.716  11.114
45867W        W16467  25.195  18.238  14.795
45868W        W16468  16.690  15.606   1.444
45869W        W16469   5.569  35.062  12.599
45870W        W16470  15.367  31.043   4.914
45871W        W16471  12.845   6.259  11.566
45872W        W16472   8.292  16.490   0.264
45873W        W16473  19.804  42.200  13.538
45874W        W16474  14.826  25.620  12.091
45875W        W16475  40.592  30.387   3.537
45876W        W16476  33.837  30.754   3.290
45877W        W16477  29.514   1.388   4.364
45878W        W16478  10.796  23.336  13.018
45879W        W16479  30.830  14.976  11.736
45880W        W16480  11.429  21.712  12.115
45881W        W16481  25.812  28.608  11.836
45882W        W16482   5.902   7.328  13.516
45883W        W16483   3.674  19.088   4.251
45884W        W16484   2.873  23.968   2.285
45885W        W16485  23.217  28.996  11.031
45886W        W16486  35.109  15.707  14.686
45887W        W16487  16.616  24.464   1.760
45888W        W16488   0.314  12.935   1.301
45889W        W16489  28.850   5.192   3.850
45890W        W16490  30.656  23.731   3.731
45891W        W16491  19.341  41.918  13.360
45892W        W16492  34.464  28.603  11.465
45893W        W16493  42.597   7.610   0.048
45894W        W16494  22.717  19.198   1.407
45895W        W16495   4.337  19.803   4.594
45896W        W16496  36.612  13.757   1.866
45897W        W16497  28.868  29.077   3.512
45898W        W16498  17.233  32.130  12.017
45899W        W16499  11.583   4.637   0.842
45900W        W16500  32.647  12.335  13.605
45901W        W16501  26.636   4.667   4.097
45902W        W16502   2.943  19.956  14.849
45903W        W16503   2.771  20.099  12.331
45904W        W16504  13.552  41.004  13.393
45905W        W16505  26.417   5.251  11.131
45906W        W16506  18.763  40.850  12.511
45907W        W16507  40.518  36.053  10.530
45908W        W16508  23.016  24.103   2.689
45909W        W16509  24.597  24.228   0.376
45910W        W16510  20.156  33.124   4.584
45911W        W16511  33.851  17.608  11.385
45912W        W16512  16.129   3.450  14.470
45913W        W16513  32.399  31.192   2.357
45914W        W16514  12.018   1.435  13.382
45915W        W16515  23.223  26.981   4.721
45916W        W16516  38.484  37.077  11.613
45917W        W16517  37.918   1.730  13.271
45918W        W16518  31.372  30.606  13.859
45919W        W16519  40.988  37.340   4.261
45920W        W16520   3.502  22.761   0.915
45921W        W16521  30.401  14.749   1.363
45922W        W16522  26.862  19.175  10.985
45923W        W16523  10.151   0.920  11.114
45924W        W16524  13.109  14.725   1.906
45925W        W16525  33.028   7.435  12.987
45926W        W16526  29.409  35.542   0.844
45927W        W16527  14.112  21.747   3.585
45928W        W16528  13.974  21.020   1.924
45929W        W16529  18.098  34.103   2.012
45930W        W16530  31.082  40.849   1.188
45931W        W16531  31.149  42.618   0.917
45932W        W16532   5.841   1.565   4.168
45933W        W16533  19.006  36.443  12.064
45934W        W16534  33.494  33.018  13.789
45935W        W16535  41.497   5.267   4.487
45936W        W16536  17.328  39.271  12.171
45937W        W16537  16.577  38.787   3.344
45938W        W16538   1.731  32.017   2.197
45939W        W16539   6.206  10.340  14.032
45940W        W16540  22.278  20.706  11.080
45941W        W16541  16.850  30.615  10.499
45942W        W16542  24.517  19.583   4.713
45943W        W16543   1.718  12.611  12.443
45944W        W16544  27.778  39.318  12.447
45945W        W16545  34.561  16.734   1.976
45946W        W16546   7.993   7.753   3.001
45947W        W16547  20.690  41.600  12.028
45948W        W16548  35.053  23.327  12.323
45949W        W16549  22.070  11.776   3.563
45950W        W16550  25.062  34.424  12.118
45951W        W16551  26.259  42.475   4.863
45952W        W16552  15.843  23.634   4.383
45953W        W16553  44.384  29.278  12.132
45954W        W16554  11.865  30.623  14.130
45955W        W16555  38.055  16.808  12.793
45956W        W16556  26.652  18.366   4.948
45957W        W16557  32.405  11.217   3.456
45958W        W16558  24.400  34.090   2.715
45959W        W16559   5.377  15.996  10.648
45960W        W16560  25.041   5.270   1.666
45961W        W16561  41.622  35.016   9.604
45962W        W16562  12.939  29.734  11.598
45963W        W16563  34.433  33.924   3.198
45964W        W16564  42.113  16.596   0.090
45965W        W16565  17.649  11.608   2.273
45966W        W16566  36.749   6.946  14.501
45967W        W16567  21.606   6.158   3.992
45968W        W16568  30.870  44.013  11.938
45969W        W16569  44.797  13.820  14.775
45970W        W16570   7.249  22.510   4.552
45971W        W16571   7.095  37.945  10.796
45972W        W16572   0.402  23.361  14.858
45973W        W16573  13.675  29.507   4.692
45974W        W16574   8.213  44.463   3.441
45975W        W16575  19.177   5.366   1.970
45976W        W16576   0.983  25.733   0.460
45977W        W16577  33.944  34.805   4.147
45978W        W16578  15.781   0.283   1.473
45979W        W16579  31.630  14.892  10.741
45980W        W16580  24.705  25.621  13.567
45981W        W16581   9.262  23.758   2.224
45982W        W16582   6.106  36.014   3.863
45983W        W16583  18.720  15.017  12.945
45984W        W16584  43.553  44.721  14.993
45985W        W16585  21.135  28.942   2.756
45986W        W16586  11.791  26.436  13.644
45987W        W16587   5.150  26.229  12.088
45988W        W16588   8.874  16.508   3.863
45989W        W16589  33.648  16.694  11.883
45990W        W16590  12.123   7.384   4.172
45991W        W16591  33.521   7.614  14.418
45992W        W16592   1.896  19.779  14.267
45993W        W16593  30.019  40.768   1.452
45994W        W16594  42.625  19.020   0.938
45995W        W16595   9.383   6.942  12.005
45996W        W16596  28.069  17.334  14.714
45997W        W16597  18.447   8.395   2.190
45998W        W16598  42.223  16.265  13.023
45999W        W16599  38.532  11.762   0.842
46000W        W16600  18.572  33.475   1.661
46001W        W16601   8.169  32.839   1.379
46002W        W16602  25.171  41.506   1.929
46003W        W16603   2.142  28.067   3.176
46004W        W16604   3.834   0.916   4.627
46005W        W16605  43.438   5.492   2.164
46006W        W16606  26.159  42.746  10.730
46007W        W16607  38.719  18.120   1.895
46008W        W16608   9.226  42.301  12.537
46009W        W16609  32.885   7.093   2.908
46010W        W16610  27.505  36.151   0.378
46011W        W16611  41.586  21.628  11.936
46012W        W16612   8.309   7.623  14.724
46013W        W16613   5.406  42.794   1.894
46014W        W16614   7.693  25.121   3.329
46015W        W16615  21.263  14.060   2.234
46016W        W16616  34.493   8.715   4.583
46017W        W16617  35.683  15.518  14.973
46018W        W16618   5.975  11.250  10.706
46019W        W16619  22.677  36.476   2.257
46020W        W16620  31.890  30.211  11.553
46021W        W16621  38.884   8.379  12.384
46022W        W16622  34.324  24.485  12.455
46023W        W16623  42.055  25.175  14.819
46024W        W16624  33.566  17.167  14.386
46025W        W16625  15.249  10.359   1.839
46026W        W16626  16.146  17.498  14.360
46027W        W16627  27.544  11.311  11.486
46028W        W16628  30.036  43.551  11.775
46029W        W16629  20.016  44.657   2.326
46030W        W16630  19.968  41.994  11.247
46031W        W16631  30.365  28.910   0.894
46032W        W16632   2.864  35.539  10.728
46033W        W16633   6.465  12.286   1.285
46034W        W16634  42.423   3.134   0.208
46035W        W16635  33.263  25.827   2.666
46036W        W16636  22.209  42.906   3.774
46037W        W16637  11.190   9.696  12.987
46038W        W16638  18.234  42.062  11.187
46039W        W16639  12.598  31.082   2.700
46040W        W16640  13.735   0.420   1.684
46041W        W16641  14.165  28.513  14.059
46042W        W16642  23.483  17.609  14.924
46043W        W16643   3.350  23.437  12.317
46044W        W16644  19.660  14.169   2.130
46045W        W16645  30.639  44.464  13.550
46046W        W16646  38.498  25.477   2.743
46047W        W16647  39.655   8.195   4.237
46048W        W16648  12.558   9.680   3.281
46049W        W16649  10.192   9.605  11.542
46050W        W16650   7.925  15.984  11.869
46051W        W16651   5.308  18.346  13.750
46052W        W16652   0.486  16.154   4.536
46053W        W16653   7.264   5.370   1.801
46054W        W16654  30.614  14.492   2.829
46055W        W16655   5.326  33.582  13.831
46056W        W16656  35.601  24.011  12.668
46057W        W16657  28.164  20.566  13.295
46058W        W16658  23.179  37.571   1.014
46059W        W16659   1.243  16.124   3.643
46060W        W16660  10.669  30.603   3.859
46061W        W16661  36.604  11.224  14.088
46062W        W16662   7.709  22.222   2.466
46063W        W16663   8.370  44.270  14.457
46064W        W16664  39.379   5.847   4.237
46065W        W16665  14.910  11.462   4.139
46066W        W16666  44.970  19.680  12.180
46067W        W16667  41.466  37.018   1.372
46068W        W16668  31.355   8.258  11.657
46069W        W16669  31.858   6.809   2.547
46070W        W16670  19.724   9.052   1.702
46071W        W16671  15.817  33.665  12.472
46072W        W16672  10.325  34.655  14.944
46073W        W16673  25.917   5.321  11.176
46074W        W16674  18.353  42.497   0.924
46075W        W16675  39.354  29.965   4.425
46076W        W16676  14.700  30.412  14.075
46077W        W16677  42.655   4.200   0.831
46078W        W16678  32.453   0.974  11.601
46079W        W16679  19.530   7.872   3.663
46080W        W16680   0.676  30.458  13.359
46081W        W16681  14.063  17.997   4.530
46082W        W16682  11.105  31.258  11.887
46083W        W16683  32.579   2.895  14.079
46084W        W16684  40.266  42.693   3.646
46085W        W16685  41.506   3.255   4.171
46086W        W16686  25.146  19.022   2.849
46087W        W16687  32.805  14.919  12.957
46088W        W16688   0.285  43.533   3.259
46089W        W16689  34.585  28.638  11.960
46090W        W16690  21.827  11.514   1.836
46091W        W16691  32.006  16.398  11.907
46092W        W16692  22.033  14.243   0.012
46093W        W16693  17.509  19.619   4.108
46094W        W16694   9.813  36.343  13.548
46095W        W16695  17.758  16.529  14.445
46096W        W16696   6.705  18.124  13.812
46097W        W16697   2.623  14.787   1.632
46098W        W16698  16.592  31.811  13.036
46099W        W16699   8.823   9.097  12.122
46100W        W16700  26.462  14.191   3.878
46101W        W16701  34.961   8.992  13.589
46102W        W16702  32.603   5.018  11.126
46103W        W16703  20.503  28.093  13.979
46104W        W16704  43.024   0.703  14.305
46105W        W16705  26.882   2.681  14.061
46106W        W16706  13.274   5.285   1.265
46107W        W16707   1.772   9.917  14.431
46108W        W16708  31.281  12.213   4.093
46109W        W16709  31.430   6.993   0.133
46110W        W16710   0.329  21.773   3.140
46111W        W16711  26.505  25.083  10.862
46112W        W16712  13.750   0.655  13.879
46113W        W16713  30.932  42.106   2.185
46114W        W16714  11.579  16.077   1.261
46115W        W16715   7.907  18.848   3.667
46116W        W16716  29.924  28.196  12.854
46117W        W16717  43.353  21.488  12.944
46118W        W16718  20.203  12.732   3.096
46119W        W16719  21.646  43.548   3.399
46120W        W16720   0.497  39.722  10.221
46121W        W16721  24.477  33.029  14.449
46122W        W16722  27.582  17.170   3.852
46123W        W16723  32.717  27.015  11.579
46124W        W16724  41.116   6.067   4.783
46125W        W16725   6.240   4.234   4.319
46126W        W16726   5.704   9.506  10.882
46127W        W16727  29.489  24.505  14.269
46128W        W16728  40.851  13.494   0.374
46129W        W16729  43.500  20.158   4.569
46130W        W16730  42.564  34.448  11.268
46131W        W16731  31.658   5.858   0.811
46132W        W16732   4.818  27.019  14.282
46133W        W16733  35.065  21.340   2.749
46134W        W16734  37.927  30.846   3.713
46135W        W16735   9.730  43.072   3.140
46136W        W16736   9.705  40.250   3.100
46137W        W16737  12.690   5.329   4.590
46138W        W16738  36.041  15.349  11.587
46139W        W16739   9.564  24.520   4.167
46140W        W16740  24.086  32.660   4.324
46141W        W16741  39.750  15.287   1.344
46142W        W16742  40.007  36.005   4.630
46143W        W16743  11.739  16.589   0.382
46144W        W16744   5.588  36.951   2.167
46145W        W16745   4.713   3.872   4.165
46146W        W16746  17.814  23.667   4.599
46147W        W16747  16.706  15.279  11.607
46148W        W16748  36.112  22.203  14.542
46149W        W16749  10.669  10.698   0.451
46150W        W16750  31.645  26.576  13.904
46151W        W16751  28.979  38.433  13.927
46152W        W16752  13.999  38.936  10.401
46153W        W16753  36.005  38.994  11.545
46154W        W16754  32.470  42.988   0.291
46155W        W16755  32.869   3.331   1.748
46156W        W16756  13.286  42.027  12.920
46157W        W16757  11.920  42.045   0.802
46158W        W16758  12.978  14.842   1.390
46159W        W16759  39.402  41.251   2.986
46160W        W16760  44.769  22.458  12.062
46161W        W16761  25.590  11.660  14.300
46162W        W16762  17.076  21.716  12.551
46163W        W16763  41.055  44.840  13.981
46164W        W16764  29.977   5.784   1.716
46165W        W16765  10.827  25.446   4.890
46166W        W16766  12.346   1.520   2.364
46167W        W16767  36.368   6.405  13.889
46168W        W16768  29.389  36.977  13.142
46169W        W16769  40.429  31.058  11.234
46170W        W16770   3.695  14.679   2.950
46171W        W16771  17.725   0.720   3.859
46172W        W16772  39.043  39.276  11.842
46173W        W16773  24.589  29.175   3.682
46174W        W16774  40.131  29.711   0.052
46175W        W16775  18.066  42.421   4.844
46176W        W16776  32.463  26.435   4.442
46177W        W16777  40.506  32.069  10.856
46178W        W16778  34.665  22.856  13.774
46179W        W16779  41.395   8.951  13.803
46180W        W16780  33.793  30.419   3.673
46181W        W16781  26.108  30.127   4.817
46182W        W16782  43.242   6.256   1.107
46183W        W16783  26.439  44.492  14.887
46184W        W16784  13.875   7.209  13.388
46185W        W16785  12.060  10.446   2.697
46186W        W16786  15.771  25.664  13.627
46187W        W16787  18.066  16.104   1.510
46188W        W16788  27.133  41.044   1.944
46189W        W16789  38.751   1.640   1.733
46190W        W16790  36.054  21.058   4.731
46191W        W16791  41.893  22.517   1.413
46192W        W16792  13.811  14.134  13.082
46193W        W16793  34.813  24.519   2.811
46194W        W16794  34.446  34.857  11.688
46195W        W16795  14.557   6.724   3.251
46196W        W16796  35.088  32.603  13.814
46197W        W16797  28.098  28.782   4.022
46198W        W16798  15.397  23.441  11.080
46199W        W16799  38.284  13.202  12.533
46200W        W16800  34.099  31.543   0.781
46201W        W16801   9.938  42.996  10.629
46202W        W16802   1.470   5.888  14.394
46203W        W16803  38.743  38.657   1.686
46204W        W16804  26.659   7.499   4.156
46205W        W16805  29.954  19.465  11.937
46206W        W16806  38.982   4.584  10.684
46207W        W16807  20.208   3.331   3.678
46208W        W16808   6.495  33.527  14.438
46209W        W16809  13.648  43.310  12.796
46210W        W16810  43.303   4.329  12.927
46211W        W16811  18.850  14.047  12.641
46212W        W16812  34.009  10.363  12.054
46213W        W16813   2.582  26.931   1.086
46214W        W16814  35.147  21.739   3.261
46215W        W16815  35.134  34.876  14.770
46216W        W16816  33.228   9.896  13.293
46217W        W16817  10.694  10.096   4.969
46218W        W16818  33.168  42.326  13.470
46219W        W16819   9.204  37.026  12.880
46220W        W16820  20.624   6.742   4.661
46221W        W16821   4.342  18.559   2.468
46222W        W16822  30.392  23.077   0.705
46223W        W16823  44.875  10.792  12.547
46224W        W16824   4.882  25.487   3.522
46225W        W16825  17.126   3.877   1.756
46226W        W16826  31.421  16.699   1.841
46227W        W16827  14.560  41.131  14.508
46228W        W16828  42.296  10.184   0.449
46229W        W16829  19.230   3.972   3.083
46230W        W16830  41.222   3.136   4.618
46231W        W16831  15.147   5.422   1.926
46232W        W16832   7.376  21.577   1.361
46233W        W16833   1.712  21.064  13.474
46234W        W16834  14.552  28.963  10.596
46235W        W16835   1.304   7.264  10.798
46236W        W16836  40.154  42.550  10.330
46237W        W16837   5.804   6.369   2.610
46238W        W16838  23.168   0.301   4.264
46239W        W16839  11.119  39.386   2.355
46240W        W16840  44.012  22.092  11.100
46241W        W16841  28.417  15.821   4.597
46242W        W16842  10.738  40.050  13.327
46243W        W16843  12.236  16.677   1.231
46244W        W16844  37.327  33.648  11.130
46245W        W16845  19.718  11.158  12.447
46246W        W16846   6.304  36.062   4.350
46247W        W16847  38.178  14.818   4.239
46248W        W16848  30.315  20.263  11.619
46249W        W16849  18.603   6.733   4.025
46250W        W16850  32.498  14.914  12.433
46251W        W16851  22.345  41.099  14.317
46252W        W16852  13.554  27.617   0.549
46253W        W16853  28.988  19.607  11.943
46254W        W16854  28.405  20.750  14.954
46255W        W16855  33.491  23.413  14.513
46256W        W16856  27.989  22.629   2.388
46257W        W16857   4.466  31.512   2.204
46258W        W16858  27.128  35.531  12.313
46259W        W16859   2.935  25.700   3.742
46260W        W16860  22.629  37.456  10.334
46261W        W16861  15.726  22.545   0.025
46262W        W16862   7.979  17.076   4.192
46263W        W16863  38.753  22.100   3.495
46264W        W16864  14.155  24.957  10.723
46265W        W16865  23.998   2.964  12.367
46266W        W16866  32.203  42.257  11.574
46267W        W16867   3.889   0.580  11.075
46268W        W16868  26.074  36.330   3.786
46269W        W16869   6.230  17.639  12.052
46270W        W16870  38.652  30.433   0.364
46271W        W16871   1.805  41.043   1.548
46272W        W16872  30.534  43.240  10.695
46273W        W16873  41.888   3.724   3.609
46274W        W16874  21.277  20.005   0.721
46275W        W16875  31.791  13.678  12.785
46276W        W16876  20.332  36.067   4.095
46277W        W16877  14.883  20.125   2.681
46278W        W16878  23.570  34.594  14.863
46279W        W16879   5.352   7.718   4.475
46280W        W16880  13.972  15.738  11.574
46281W        W16881  30.913  23.232  14.065
46282W        W16882  26.256   9.389  13.054
46283W        W16883  17.619  28.180  10.609
46284W        W16884  36.560  33.421  12.474
46285W        W16885  11.124   8.850   2.413
46286W        W16886  35.485   0.684  10.850
46287W        W16887  26.471   5.922  10.476
46288W        W16888   2.881  43.124   3.839
46289W        W16889  41.364  23.054   4.410
46290W        W16890  14.870   5.283  11.731
46291W        W16891  30.277  19.137   4.698
46292W        W16892  35.811  34.656   0.791
46293W        W16893  14.812   4.777   0.545
46294W        W16894  24.233   2.840   4.712
46295W        W16895  40.523  27.247  13.954
46296W        W16896  29.404   3.126  12.919
46297W        W16897   8.169  44.876   1.800
46298W        W16898  36.447   9.556   2.259
46299W        W16899  40.731  15.530  11.235
46300W        W16900  40.856  13.347  14.375
46301W        W16901  38.858  18.323   4.021
46302W        W16902  40.820   6.859   2.428
46303W        W16903  25.082   0.182   2.510
46304W        W16904  21.599  44.580  13.034
46305W        W16905  40.035  14.993  13.346
46306W        W16906   4.768  18.732  12.208
46307W        W16907  40.067   6.776   3.683
46308W        W16908  39.681   8.375  12.060
46309W        W16909  31.480   9.181  14.470
46310W        W16910  34.604  34.899  11.195
46311W        W16911  24.556  43.320  10.701
46312W        W16912  29.560  23.480  10.782
46313W        W16913   9.696  33.357  11.626
46314W        W16914  35.991   8.191   0.236
46315W        W16915  24.713  38.280  12.806
46316W        W16916   4.231  43.880   2.282
46317W        W16917  20.256  17.998   0.334
46318W        W16918  28.203  20.968  13.611
46319W        W16919  31.289  29.683  14.282
46320W        W16920  21.121   4.046  14.136
46321W        W16921   4.257  10.504  14.301
46322W        W16922   7.442  18.601  11.067
46323W        W16923   0.961   8.603   3.771
46324W        W16924  16.288  28.934  12.492
46325W        W16925   7.289  40.319   0.265
46326W        W16926   3.191  40.018   2.222
46327W        W16927  28.514   0.067   2.462
46328W        W16928  43.785  32.823  14.220
46329W        W16929  43.441   8.457  11.296
46330W        W16930  31.610  10.211  12.438
46331W        W16931   6.166  20.226  14.094
46332W        W16932  43.508  31.421   2.789
46333W        W16933  16.463  44.833   4.594
46334W        W16934   3.422  37.097  14.842
46335W        W16935  21.813  10.736   2.289
46336W        W16936  37.091  11.304  12.212
46337W        W16937  25.840  34.638  12.453
46338W        W16938   6.143  44.891   3.723
46339W        W16939  41.509  20.258   1.406
46340W        W16940   6.946  43.018  12.525
46341W        W16941   5.130  32.910  11.295
46342W        W16942  10.862  37.168  13.366
46343W        W16943  17.231   4.757  12.572
46344W        W16944  27.133  25.482  14.584
46345W        W16945  43.294  41.265  12.059
46346W        W16946  39.369   3.610   3.716
46347W        W16947   8.005   9.664   4.619
46348W        W16948  16.090   2.834  11.610
46349W        W16949  15.811  12.853  13.351
46350W        W16950   6.701   5.222  13.471
46351W        W16951  28.084  27.992  13.350
46352W        W16952   0.419  28.530  12.025
46353W        W16953  10.227  23.711   2.640
46354W        W16954  36.121  42.179  14.687
46355W        W16955  27.884  44.302  14.379
46356W        W16956  28.716  29.179   2.991
46357W        W16957  44.806  24.835  12.323
46358W        W16958  19.788  43.325   0.347
46359W        W16959  33.591   7.776   0.406
46360W        W16960  26.640  40.328   2.003
46361W        W16961   8.918   1.329  14.293
46362W        W16962  34.069  43.354  12.505
46363W        W16963   2.414  32.178   3.841
46364W        W16964   7.244  31.819  11.564
46365W        W16965  11.596  36.830   2.693
46366W        W16966  15.129  35.461  14.333
46367W        W16967  24.802   1.885  11.375
46368W        W16968  34.227  22.711  14.010
46369W        W16969  14.897   1.930  13.397
46370W        W16970   8.868   0.536   3.612
46371W        W16971  39.910  20.325   2.363
46372W        W16972  27.592   1.833   1.028
46373W        W16973  36.956  39.255  10.949
46374W        W16974   3.838  14.819   0.014
46375W        W16975   0.305  13.164   3.139
46376W        W16976  28.130  25.610   2.559
46377W        W16977  44.286  30.443   3.654
46378W        W16978  15.288  20.495   4.127
46379W        W16979  26.561  24.560  10.681
46380W        W16980   3.928   6.343   2.469
46381W        W16981  17.540  23.821  14.218
46382W        W16982  17.501  39.801  11.022
46383W        W16983  25.923  42.581   2.772
46384W        W16984  22.966   3.128   3.990
46385W        W16985  31.657  21.182  13.810
46386W        W16986  11.625  31.253   0.966
46387W        W16987  30.603   1.312   1.779
46388W        W16988   1.037  10.290  11.559
46389W        W16989  34.625   4.870  13.409
46390W        W16990  25.405  31.904  14.749
46391W        W16991  23.676  30.990   0.728
46392W        W16992  43.005  15.883   0.453
46393W        W16993  23.474  25.014   2.807
46394W        W16994  14.333  22.223  11.119
46395W        W16995  36.024  30.229   4.694
46396W        W16996  14.021  29.911   2.294
46397W        W16997  33.684   1.540  11.630
46398W        W16998  28.755  33.235   3.690
46399W        W16999   7.112  39.320   1.684
46400W        W17000  32.395  25.543   1.883
46401W        W17001  17.814  16.327   4.605
46402W        W17002  32.682   1.778  11.105
46403W        W17003   2.804  20.933  12.130
46404W        W17004  18.266  43.247   4.390
46405W        W17005  34.519   8.396   4.132
46406W        W17006  30.168  19.708  12.810
46407W        W17007   3.841   5.220   0.997
46408W        W17008  19.468  23.641   1.631
46409W        W17009  43.824  39.379  11.585
46410W        W17010  26.754  13.262   3.770
46411W        W17011  17.757  27.922  14.512
46412W        W17012  24.525  41.451  14.706
46413W        W17013  32.158  10.450   1.175
46414W        W17014   4.244  28.641   4.613
46415W        W17015  38.540   2.866   1.474
46416W        W17016   2.790  39.629  10.726
46417W        W17017  24.847   7.925  15.000
46418W        W17018   8.947  22.999  12.294
46419W        W17019  13.596   4.311  14.974
46420W        W17020  30.446  38.538  11.124
46421W        W17021   3.338  28.318  10.425
46422W        W17022   0.830   7.280  14.605
46423W        W17023  26.395  22.673  10.564
46424W        W17024  24.352  26.992  11.988
46425W        W17025  43.073   0.786  11.879
46426W        W17026  25.728  10.984   2.266
46427W        W17027  44.042  29.661  12.488
46428W        W17028  25.533  14.040  14.350
46429W        W17029   5.047  41.920  11.873
46430W        W17030   6.772  33.110   3.857
46431W        W17031  43.120  34.015   1.170
46432W        W17032  30.606  16.008   0.424
46433W        W17033   2.777  18.387   2.720
46434W        W17034   3.481  43.573   4.167
46435W        W17035  25.339  14.556  12.556
46436W        W17036   3.923  27.230  14.792
46437W        W17037   8.846   8.968  10.672
46438W        W17038  39.421  15.727   4.801
46439W        W17039  33.530   9.713   3.853
46440W        W17040  13.236  11.796  13.533
46441W        W17041  41.865  18.861  12.045
46442W        W17042  22.232  23.229  11.220
46443W        W17043   4.175   1.000  11.105
46444W        W17044  11.807  20.922   1.876
46445W        W17045  10.168  22.622  11.778
46446W        W17046   8.098  15.822  10.416
46447W        W17047  30.396  37.633  11.078
46448W        W17048  42.333   0.317  10.483
46449W        W17049  34.425  19.145  10.898
46450W        W17050   6.235  37.608  10.590
46451W        W17051  29.330   4.344  11.914
46452W        W17052  17.308  14.033   3.733
46453W        W17053  13.600   2.235   3.670
46454W        W17054  44.296  27.357   4.608
46455W        W17055   1.186  41.652   4.096
46456W        W17056  21.107   6.559  10.693
46457W        W17057   4.803   1.318  12.929
46458W        W17058  33.128  18.104   0.969
46459W        W17059  23.962  39.830  14.360
46460W        W17060   1.692  44.368  13.093
46461W        W17061  29.596  19.741  12.236
46462W        W17062  17.164  41.323   4.565
46463W        W17063   5.665   9.641  13.851
46464W        W17064  16.878  12.665  14.362
46465W        W17065   7.308  35.948  13.910
46466W        W17066  37.085  26.182   0.771
46467W        W17067  12.163  22.822   4.183
46468W        W17068  29.502  32.393   0.990
46469W        W17069  25.113   6.204  13.572
46470W        W17070  27.761  17.038   2.865
46471W        W17071  25.734  17.831   3.625
46472W        W17072  30.117  25.887   1.685
46473W        W17073   8.884  16.051   2.001
46474W        W17074  42.058  34.642  11.215
46475W        W17075  40.502  42.804  13.531
46476W        W17076  43.840  35.708   0.504
46477W        W17077  32.536  18.574  14.251
46478W        W17078  20.855  23.695  13.585
46479W        W17079  39.854  10.375   2.944
46480W        W17080  36.849  40.533  12.511
46481W        W17081  36.922  28.045  14.584
46482W        W17082  13.635  21.010   4.116
46483W        W17083  23.268   3.411  13.953
46484W        W17084  28.034  31.288  12.897
46485W        W17085  31.514   1.092  10.780
46486W        W17086  33.972  21.557   2.609
46487W        W17087  38.549  32.569   2.685
46488W        W17088  34.432  19.705  12.526
46489W        W17089  34.592   2.746   3.734
46490W        W17090   9.825  28.672   3.683
46491W        W17091  41.583  44.926   3.365
46492W        W17092   9.023  11.624   1.821
46493W        W17093  19.084  17.124  13.767
46494W        W17094  22.961   6.635   1.328
46495W        W17095  15.727  11.077   0.848
46496W        W17096  18.587  42.751  11.596
46497W        W17097   1.858  29.024   0.712
46498W        W17098  43.273  19.864  12.108
46499W        W17099   1.007   5.039  12.299
46500W        W17100   6.221   3.385  12.816
46501W        W17101  26.619  41.596  11.176
46502W        W17102  16.094  19.330  11.603
46503W        W17103   4.788  25.376  12.990
46504W        W17104  26.397  32.567   0.461
46505W        W17105  42.129  41.322   4.470
46506W        W17106  36.599   7.870  14.431
46507W        W17107  17.635  42.588   2.246
46508W        W17108  21.775  31.552   1.777
46509W        W17109  20.499  13.652  14.482
46510W        W17110  35.702  41.546  14.000
46511W        W17111  20.089  19.790   4.325
46512W        W17112  22.862  39.235   1.842
46513W        W17113   4.273  28.582   3.226
46514W        W17114  39.602  23.581  14.032
46515W        W17115  41.510  17.004  12.055
46516W        W17116  40.365  36.524   3.731
46517W        W17117   6.299   1.351   1.988
46518W        W17118  40.381   6.469  13.750
46519W        W17119  16.858   6.782   0.328
46520W        W17120  35.143  10.186  12.961
46521W        W17121  22.653  39.481  10.461
46522W        W17122  34.527  38.333   3.235
46523W        W17123  41.627  29.065  10.783
46524W        W17124  31.965  22.587  10.345
46525W        W17125  42.206   5.804   1.562
46526W        W17126  23.335  26.505   1.965
46527W        W17127   5.624  15.591  10.408
46528W        W17128   3.995  35.083   4.451
46529W        W17129  32.059  37.883  13.689
46530W        W17130  44.265   2.763   2.260
46531W        W17131  23.764   0.430   1.763
46532W        W17132  19.521  41.539   4.078
46533W        W17133  11.220  22.199  13.374
46534W        W17134  10.112  38.540   0.381
46535W        W17135   3.943  24.762  10.603
46536W        W17136   0.474  23.196   4.476
46537W        W17137   5.205   8.906   3.723
46538W        W17138  28.673  17.664  11.981
46539W        W17139   0.906   7.269  14.050
46540W        W17140  12.902  23.160  12.616
46541W        W17141  26.907  29.434   0.030
46542W        W17142  42.625  29.073   1.028
46543W        W17143  22.242   0.703  14.426
46544W        W17144   8.697  12.643   2.419
46545W        W17145  38.762  41.770  11.624
46546W        W17146  10.295  21.332   4.207
46547W        W17147  21.685  39.263  14.321
46548W        W17148   7.432  27.047   4.784
46549W        W17149  14.129  34.569   3.698
46550W        W17150  43.572  18.105   0.512
46551W        W17151  25.420   9.816   4.190
46552W        W17152  24.897  15.139  14.098
46553W        W17153  33.992  28.434  14.384
46554W        W17154  39.320  14.253   3.171
46555W        W17155   6.999  40.266  11.100
46556W        W17156  10.924  26.681   0.731
46557W        W17157  11.221   8.870   0.484
46558W        W17158   3.434  18.667  11.483
46559W        W17159   3.869   5.769  14.312
46560W        W17160  37.349  20.144  13.298
46561W        W17161  35.307  40.456   4.142
46562W        W17162   0.796  20.018  13.497
46563W        W17163   4.732  14.116  14.798
46564W        W17164  19.293  42.804   3.710
46565W        W17165  24.657   9.675  13.897
46566W        W17166  44.464  37.526   0.404
46567W        W17167  18.705   2.029   2.110
46568W        W17168  12.113  42.419   9.703
46569W        W17169  24.666  12.964   1.385
46570W        W17170  10.281  31.670  13.846
46571W        W17171  39.203  14.193   4.955
46572W        W17172  16.388   1.839  11.500
46573W        W17173  30.643  20.185   3.107
46574W        W17174  17.385   2.297  10.611
46575W        W17175  44.680  26.183   0.898
46576W        W17176  40.101  13.746   0.937
46577W        W17177  32.913  17.566  11.472
46578W        W17178   5.951  14.366  11.213
46579W        W17179   9.242  33.972  10.915
46580W        W17180  26.133   5.905  11.103
46581W        W17181  38.120  41.006   4.167
46582W        W17182  15.785  44.329   1.738
46583W        W17183  44.936  10.290  12.523
46584W        W17184  22.113   5.196   4.639
46585W        W17185  22.581  24.755   2.203
46586W        W17186  10.642   0.645   1.195
46587W        W17187  23.111  32.534   2.243
46588W        W17188  32.894  11.135   3.298
46589W        W17189  11.372  37.574   0.133
46590W        W17190  23.071  34.854   0.325
46591W        W17191   1.012  16.732  12.027
46592W        W17192   3.421  39.002   3.997
46593W        W17193  36.027  42.493   3.865
46594W        W17194  18.687  12.201   4.634
46595W        W17195  32.116   1.130  14.404
46596W        W17196   1.490  37.843  11.437
46597W        W17197   8.704  31.439   2.219
46598W        W17198  43.806   3.423   3.284
46599W        W17199  18.163  35.435  11.328
46600W        W17200  43.901  26.055  14.367
46601W        W17201  31.813  17.968  14.325
46602W        W17202  42.299   1.320   1.092
46603W        W17203  36.066  17.283  11.620
46604W        W17204  16.629  29.457  12.014
46605W        W17205  40.575  23.888   4.975
46606W        W17206   2.279  20.725   0.271
46607W        W17207  25.662  23.491   0.410
46608W        W17208   2.353  27.008   0.120
46609W        W17209  28.982  33.151   0.746
46610W        W17210   7.379  18.287   3.006
46611W        W17211  30.524  36.108  11.981
46612W        W17212  16.150  20.713  11.731
46613W        W17213  19.111   1.482  14.947
46614W        W17214  17.920  13.766  14.548
46615W        W17215   4.799   6.441  14.357
46616W        W17216  20.460  33.467   1.807
46617W        W17217  11.090  28.680   2.859
46618W        W17218  40.550   5.449   1.424
46619W        W17219  30.400   1.282   3.251
46620W        W17220  10.123  24.825  11.175
46621W        W17221   3.560  37.950   0.732
46622W        W17222   6.241  29.093  14.312
46623W        W17223  10.516  23.955  14.902
46624W        W17224  37.708   6.860  13.469
46625W        W17225  21.603  25.686  12.000
46626W        W17226  13.341  14.815   4.075
46627W        W17227  13.648  30.007  14.928
46628W        W17228  44.522  39.166   3.710
46629W        W17229  19.104  10.437  13.340
46630W        W17230  23.151  13.302  10.535
46631W        W17231  28.092  29.417  14.349
46632W        W17232   4.952   8.876  14.613
46633W        W17233  19.018  12.900   1.648
46634W        W17234  10.310   5.281  12.877
46635W        W17235  27.027   6.250  10.942
46636W        W17236   7.900   1.738  14.042
46637W        W17237  42.261  17.164  11.487
46638W        W17238  37.419  33.125   1.229
46639W        W17239  16.804  29.205  13.278
46640W        W17240  36.963  32.109  12.662
46641W        W17241  13.132  21.621  13.366
46642W        W17242  31.883  21.110  14.324
46643W        W17243  36.093   5.331  12.628
46644W        W17244  12.488   6.430   1.309
46645W        W17245  23.606  16.616   2.707
46646W        W17246   0.322  41.982  13.499
46647W        W17247  43.411   5.860  11.067
46648W        W17248  11.039  21.874  11.694
46649W        W17249   1.459  44.376   1.029
46650W        W17250  19.776  25.746   1.185
46651W        W17251  14.708  40.063   4.137
46652W        W17252  44.348  36.143  10.581
46653W        W17253  13.778  33.451   0.038
46654W        W17254  41.029  32.283  11.083
46655W        W17255  13.941  37.408  11.118
46656W        W17256  26.085  32.135  13.381
46657W        W17257  39.940  30.873   0.092
46658W        W17258  32.614  18.990  12.697
46659W        W17259  28.839  36.590  14.445
46660W        W17260  14.179  33.524  11.124
46661W        W17261  22.711  37.301   4.070
46662W        W17262  31.228   0.221  11.632
46663W        W17263  17.049  22.522  14.217
46664W        W17264  18.709   6.447  10.700
46665W        W17265  11.341  27.589  12.081
46666W        W17266  28.205  13.190   3.371
46667W        W17267  35.473  40.939   1.651
46668W        W17268   9.168   7.896   3.631
46669W        W17269  12.268  32.091   3.582
46670W        W17270  37.636  44.315   1.546
46671W        W17271  19.725  42.327  12.710
46672W        W17272   5.223   7.892   3.668
46673W        W17273  25.853  27.845   5.009
46674W        W17274  20.516  33.561   3.311
46675W        W17275  43.126   3.961   0.859
46676W        W17276  23.768  21.955   0.407
46677W        W17277  10.723   7.886  12.173
46678W        W17278  38.348  15.547   2.112
46679W        W17279  33.443  24.009  10.870
46680W        W17280  15.068  40.041   3.775
46681W        W17281  11.445  30.663  13.322
46682W        W17282   7.010   0.108   1.412
46683W        W17283  26.865  14.285   1.860
46684W        W17284  32.900  32.400  10.644
46685W        W17285  16.856  11.269   1.886
46686W        W17286  16.824  43.854  10.566
46687W        W17287  32.718  31.555   4.077
46688W        W17288  21.049  15.784  12.160
46689W        W17289  38.303  12.716  12.256
46690W        W17290  38.418   5.434  12.924
46691W        W17291  36.561   3.664   0.959
46692W        W17292   7.193  23.483  14.057
46693W        W17293  18.244  17.267  11.602
46694W        W17294   2.756  43.495  14.984
46695W        W17295  27.158  39.430   4.847
46696W        W17296  35.888  17.187  13.932
46697W        W17297   8.705  17.572  10.650
46698W        W17298   3.892  35.594   4.473
46699W        W17299  10.585   4.851   0.891
46700W        W17300  10.758  15.795   0.926
46701W        W17301  18.132  20.769  12.084
46702W        W17302  32.330  29.534   0.051
46703W        W17303  20.809  32.583  14.987
46704W        W17304  44.523  37.598  10.649
46705W        W17305   7.858  20.489  11.449
46706W        W17306   1.425  31.578   0.796
46707W        W17307  39.098   3.661   1.023
46708W        W17308  44.420  21.655   4.626
46709W        W17309  12.866  15.047  14.342
46710W        W17310  22.632  11.831   3.971
46711W        W17311  35.534  19.139   2.155
46712W        W17312  43.133   4.922  14.507
46713W        W17313   5.989  16.757  11.444
46714W        W17314  15.719  18.285   0.727
46715W        W17315  38.303  22.512  11.128
46716W        W17316   6.374  32.105   3.232
46717W        W17317  13.267  25.145   3.271
46718W        W17318   4.284  16.756  13.896
46719W        W17319  37.693   4.342   1.457
46720W        W17320  34.589   8.262  14.984
46721W        W17321  24.174  33.417  14.548
46722W        W17322  40.380  22.000  10.703
46723W        W17323  23.795  20.368  14.330
46724W        W17324  20.595  15.593   4.880
46725W        W17325  32.641   3.119   3.721
46726W        W17326  15.190  25.427  12.963
46727W        W17327  11.893  11.996   3.605
46728W        W17328  11.883  28.281   1.834
46729W        W17329  35.901  35.851   1.884
46730W        W17330   2.348   6.180  10.400
46731W        W17331   7.282  29.159   4.552
46732W        W17332   9.091  44.408   4.866
46733W        W17333  14.835  36.579  13.857
46734W        W17334  43.412   8.586   0.566
46735W        W17335  28.147  31.871   2.715
46736W        W17336   0.380  39.501  13.044
46737W        W17337  33.581  35.979   0.400
46738W        W17338   9.605  15.580  10.669
46739W        W17339  39.555  18.739  14.262
46740W        W17340  12.132  19.985  14.080
46741W        W17341  18.820  10.583   0.147
46742W        W17342  44.391  28.392   4.713
46743W        W17343  40.771  37.394  13.521
46744W        W17344  24.900  43.307   4.153
46745W        W17345  27.295  18.701  14.319
46746W        W17346  32.538   4.379   4.821
46747W        W17347  27.059  38.824  10.593
46748W        W17348  39.723  44.934   1.410
46749W        W17349  22.222  25.064  13.327
46750W        W17350   5.329   4.895   0.839
46751W        W17351   5.940   0.146   4.166
46752W        W17352  14.086  22.974   2.180
46753W        W17353  14.874  24.952  11.191
46754W        W17354  43.394  32.886   1.915
46755W        W17355   5.573   7.455  14.842
46756W        W17356  26.712  14.701   3.784
46757W        W17357   0.373  27.700  10.463
46758W        W17358  22.479  41.229   0.815
46759W        W17359  35.611  16.104   4.921
46760W        W17360  12.854  18.081  13.878
46761W        W17361  15.869  20.103   0.326
46762W        W17362  25.470  20.282  12.346
46763W        W17363  27.500  22.647  10.726
46764W        W17364  44.779   4.987  11.714
46765W        W17365  39.879  36.761   4.253
46766W        W17366  29.313  36.782  14.457
46767W        W17367  29.290   4.663  13.754
46768W        W17368  34.554  30.514   0.763
46769W        W17369  11.103  11.231  13.113
46770W        W17370  20.268  36.849   3.175
46771W        W17371  42.956   5.967  10.344
46772W        W17372  10.701  17.472   0.166
46773W        W17373  34.460  14.286  12.592
46774W        W17374  12.605  31.949  11.150
46775W        W17375   3.217   5.118  11.628
46776W        W17376  20.130  15.323   1.821
46777W        W17377  20.988  43.637   1.794
46778W        W17378  37.670  27.910   2.478
46779W        W17379  33.685  31.541   3.166
46780W        W17380  27.166   4.800  10.078
46781W        W17381  38.019  19.838   4.624
46782W        W17382  25.500  16.117   0.373
46783W        W17383  11.679   8.752  13.515
46784W        W17384   9.730  32.300  13.129
46785W        W17385  26.062  27.756  11.926
46786W        W17386  21.684   6.438   1.089
46787W        W17387  19.266  19.147  13.366
46788W        W17388  33.439  26.702  13.273
46789W        W17389  37.284  41.358  12.436
46790W        W17390  12.613  14.188  14.359
46791W        W17391  18.034  30.959   0.019
46792W        W17392  27.474  20.038   3.254
46793W        W17393  12.846  16.570   1.808
46794W        W17394  30.973  39.056  13.065
46795W        W17395  28.517   0.451  12.666
46796W        W17396  33.360  43.863  14.904
46797W        W17397   5.769  33.879   0.024
46798W        W17398  19.020  23.516  11.408
46799W        W17399  33.994  16.082   2.831
46800W        W17400  20.401  36.010   4.975
46801W        W17401  17.222  36.661   3.296
46802W        W17402  38.055  27.695   0.817
46803W        W17403   0.863  14.656  14.140
46804W        W17404  43.055   4.326   4.517
46805W        W17405  14.340  21.762   0.466
46806W        W17406  31.182   2.413   0.516
46807W        W17407  43.324  29.181  12.435
46808W        W17408  14.626  19.263  12.663
46809W        W17409   7.411  29.278   2.729
46810W        W17410  27.622  16.658  13.442
46811W        W17411  16.722  24.004   4.272
46812W        W17412  14.151  14.129  14.356
46813W        W17413  12.307  17.191  11.018
46814W        W17414  43.621  28.236  12.413
46815W        W17415  21.511  31.516   3.620
46816W        W17416  34.568  37.867  14.098
46817W        W17417  39.299   9.045   1.842
46818W        W17418  33.435  12.898   1.213
46819W        W17419   3.316  33.337  12.054
46820W        W17420  31.542  15.972  11.561
46821W        W17421   6.106   9.287  12.415
46822W        W17422  41.008  38.927  12.524
46823W        W17423  34.957  29.805   4.718
46824W        W17424   9.286   9.718  12.942
46825W        W17425  29.985   5.758   2.861
46826W        W17426  42.458   9.448  11.187
46827W        W17427  16.804  27.622   0.238
46828W        W17428  32.952  18.074   4.085
46829W        W17429  28.373   9.458  13.539
46830W        W17430  10.441  19.854   4.140
46831W        W17431   2.359  33.569  12.373
46832W        W17432   4.182  35.837  11.075
46833W        W17433  11.716  37.136  13.357
46834W        W17434  25.230  44.564  12.019
46835W        W17435  11.585  30.200   1.898
46836W        W17436  23.989  31.012   1.730
46837W        W17437  16.829  24.481  14.988
46838W        W17438  34.512  43.225  12.054
46839W        W17439  29.270   7.353  12.419
46840W        W17440  30.918  41.822   3.003
46841W        W17441  31.020  35.877  11.134
46842W        W17442  22.037  37.075  14.134
46843W        W17443  19.604  27.200   3.092
46844W        W17444  19.372   5.312   4.712
46845W        W17445  17.187  35.273  14.297
46846W        W17446  32.952  11.716   1.274
46847W        W17447  10.616  15.094   1.351
46848W        W17448   6.587  35.668  14.869
46849W        W17449  28.098  11.797  11.986
46850W        W17450  41.896   2.789  10.048
46851W        W17451   7.450  34.002   1.098
46852W        W17452  42.346   1.203  10.752
46853W        W17453  38.015  21.054   1.067
46854W        W17454  34.449  41.518  14.398
46855W        W17455  37.008  10.434   2.770
46856W        W17456  39.848  39.739   1.872
46857W        W17457   8.450  27.721  12.468
46858W        W17458   8.787  21.010  13.377
46859W        W17459  24.159  27.483  14.014
46860W        W17460  11.274   1.952   0.217
46861W        W17461  10.368  20.092  10.779
46862W        W17462   4.125  12.327  10.735
46863W        W17463   5.155  39.671   2.710
46864W        W17464   0.787  13.692   0.976
46865W        W17465  24.527  18.477  10.623
46866W        W17466  13.752   2.708   2.377
46867W        W17467  42.877   1.659  13.911
46868W        W17468  12.684  24.976   2.127
46869W        W17469  28.755  22.200   2.097
46870W        W17470  43.101  42.031  11.154
46871W        W17471  44.349   9.734   4.129
46872W        W17472   1.163   1.840   3.736
46873W        W17473  34.254   3.391  13.570
46874W        W17474  41.997  42.543  11.639
46875W        W17475  16.636  29.710  10.433
46876W        W17476  34.877  42.182   3.594
46877W        W17477   3.955  40.232  12.504
46878W        W17478  39.283  18.969   2.760
46879W        W17479  32.875  14.597   0.519
46880W        W17480  19.638   6.433   1.648
46881W        W17481  42.847  34.178  12.577
46882W        W17482  15.750   1.017  11.575
46883W        W17483   6.209   7.651   3.542
46884W        W17484  42.448  16.738   1.935
46885W        W17485  38.872  32.409   3.066
46886W        W17486   5.460  33.071  13.909
46887W        W17487  31.106  30.689  11.514
46888W        W17488   6.116  30.979   3.791
46889W        W17489  30.123  31.093   2.169
46890W        W17490   5.434   9.197  10.584
46891W        W17491  21.029   4.484  11.523
46892W        W17492  44.534   6.428   2.286
46893W        W17493  23.769  29.584   3.695
46894W        W17494  33.673  40.136  13.940
46895W        W17495  33.541   8.926   3.370
46896W        W17496  23.194   2.328   4.583
46897W        W17497  43.835   2.724  14.261
46898W        W17498  16.996   5.458  12.037
46899W        W17499  24.288  30.384  13.605
46900W        W17500  10.351  31.603  11.655
46901W        W17501  38.487  26.017   2.683
46902W        W17502  20.967  32.779  12.064
46903W        W17503  31.639  25.029  13.436
46904W        W17504   0.591  12.137  10.354
46905W        W17505   1.658  34.171  14.464
46906W        W17506   2.238  12.346  10.747
46907W        W17507  38.546  25.556   1.374
46908W        W17508  31.880   9.228   3.807
46909W        W17509  23.667   6.672  10.874
46910W        W17510  44.539  43.458  10.631
46911W        W17511   8.681  25.390   0.353
46912W        W17512   8.247  21.994   0.391
46913W        W17513  41.348  34.989   4.210
46914W        W17514  44.560   6.225   0.435
46915W        W17515   3.388  42.770   1.549
46916W        W17516  18.018  41.399  14.895
46917W        W17517  27.802  26.667   4.945
46918W        W17518  19.638  23.337   4.050
46919W        W17519  35.282  12.191  11.751
46920W        W17520  19.264  43.380   0.374
46921W        W17521  44.569  34.566   1.840
46922W        W17522  32.438  26.734   1.788
46923W        W17523  35.885  23.532  13.325
46924W        W17524   4.943  27.102   2.712
46925W        W17525  40.608  13.794   4.180
46926W        W17526  24.559  22.602   0.679
46927W        W17527  37.435  42.093   2.273
46928W        W17528   7.541  19.225   4.205
46929W        W17529  24.666  42.633  14.084
46930W        W17530  42.247  26.430  11.178
46931W        W17531   9.015  27.766  10.540
46932W        W17532  40.943  26.673  13.535
46933W        W17533  43.380  13.038  13.019
46934W        W17534  25.417  35.960   1.876
46935W        W17535  24.755  41.920  14.904
46936W        W17536   6.696  23.497  12.940
46937W        W17537  26.542   0.711  13.316
46938W        W17538  32.549  35.234  13.830
46939W        W17539  22.212   3.696   2.811
46940W        W17540  32.494  24.487  11.467
46941W        W17541  28.262  43.022   2.796
46942W        W17542  16.275  35.843   2.472
46943W        W17543  14.363  17.576  13.340
46944W        W17544   9.052  28.999  12.557
46945W        W17545  17.160  35.267   2.825
46946W        W17546  31.224  41.934   3.974
46947W        W17547  11.562   5.538   1.380
46948W        W17548  12.713   3.949  12.872
46949W        W17549   3.809   7.779   3.340
46950W        W17550  18.272  33.754  14.505
46951W        W17551  16.734  43.381   1.936
46952W        W17552   2.655  29.646   1.190
46953W        W17553   8.360  25.223   4.844
46954W        W17554  34.136  18.428   4.762
46955W        W17555  11.657  38.617   2.255
46956W        W17556  13.680  19.694   1.738
46957W        W17557   1.960  38.875  11.056
46958W        W17558  22.515  10.881   0.166
46959W        W17559  25.482  25.975   0.327
46960W        W17560  15.192  31.967  10.054
46961W        W17561   5.993  24.005   0.335
46962W        W17562   8.209  11.775  13.400
46963W        W17563  31.760  18.569   3.605
46964W        W17564  38.576   9.856   4.622
46965W        W17565   4.204  15.332  10.543
46966W        W17566   1.868   2.219  13.435
46967W        W17567  37.903  19.173  13.320
46968W        W17568   3.777  20.730  13.747
46969W        W17569   2.371  31.063   0.280
46970W        W17570   5.780  32.481   0.163
46971W        W17571  27.927  11.542   5.078
46972W        W17572   9.332  42.019   1.676
46973W        W17573  27.235   8.835   1.144
46974W        W17574  44.777  28.498   1.360
46975W        W17575  42.578  19.599   3.995
46976W        W17576  40.796   1.439  10.647
46977W        W17577  10.139  19.434  14.893
46978W        W17578  43.474  25.990   1.316
46979W        W17579  35.829  18.606   1.380
46980W        W17580   8.162   9.697   2.222
46981W        W17581  29.819  23.116  13.024
46982W        W17582  22.133  31.985  14.867
46983W        W17583   6.279  20.511  10.850
46984W        W17584  43.542  32.583  12.803
46985W        W17585  41.512  12.129   4.204
46986W        W17586  22.957  38.017  13.426
46987W        W17587  17.596   8.333  13.250
46988W        W17588  39.423  40.877   3.869
46989W        W17589  29.567  30.634  13.456
46990W        W17590  13.740   5.733  11.070
46991W        W17591  33.460  26.532   4.662
46992W        W17592  11.137  13.981   0.858
46993W        W17593  37.599  22.630  13.023
46994W        W17594   2.335   7.568  12.115
46995W        W17595  11.810  11.670  12.868
46996W        W17596  36.833  30.372  13.829
46997W        W17597  24.430  14.023   2.930
46998W        W17598  34.876  23.134   0.974
46999W        W17599  36.266  12.837  14.526
47000W        W17600  25.511  35.901  13.396
47001W        W17601  43.734  24.483   3.187
47002W        W17602   1.280  30.156   0.768
47003W        W17603   4.268  37.810   3.756
47004W        W17604   6.385  14.061   1.253
47005W        W17605  23.040  37.045   1.062
47006W        W17606   8.319  25.055  10.747
47007W        W17607   3.374   8.763   4.380
47008W        W17608  23.617  38.849   1.236
47009W        W17609   0.615  25.526   3.113
47010W        W17610   4.943  15.819  11.575
47011W        W17611  33.138   4.216   2.081
47012W        W17612  42.431  11.639  12.550
47013W        W17613  25.378   3.348  10.862
47014W        W17614  39.803  38.207  14.065
47015W        W17615  29.890  34.224   3.870
47016W        W17616  21.097  44.327   1.344
47017W        W17617   4.660   0.596   4.599
47018W        W17618  36.836  36.361   0.856
47019W        W17619  12.593  13.748   0.032
47020W        W17620  31.931  30.227   3.625
47021W        W17621  41.429  13.268   3.084
47022W        W17622  20.083   4.111  11.518
47023W        W17623  42.242  12.206  10.445
47024W        W17624  13.712  34.831   0.476
47025W        W17625  36.842  27.001   3.260
47026W        W17626  43.380  27.597   3.479
47027W        W17627  42.633  36.565  12.527
47028W        W17628   7.384   7.111  14.801
47029W        W17629  12.181   8.707   2.790
47030W        W17630  29.939  37.271   2.303
47031W        W17631  41.755  13.539  11.549
47032W        W17632   5.096  15.248  14.927
47033W        W17633  32.553  15.665   3.528
47034W        W17634  19.719  28.155   1.933
47035W        W17635  13.823   5.660  12.490
47036W        W17636  27.031  20.432  14.850
47037W        W17637  37.458  43.047  12.585
47038W        W17638  23.117  35.824   1.830
47039W        W17639  38.024  36.792   2.462
47040W        W17640  17.508   3.172  11.608
47041W        W17641  10.315  17.745  14.374
47042W        W17642  26.050  29.608  13.304
47043W        W17643  36.123   9.588  14.099
47044W        W17644  42.219  20.700   0.309
47045W        W17645  40.327   5.263   1.979
47046W        W17646  17.173   5.942  14.876
47047W        W17647  32.650  41.172  10.539
47048W        W17648  33.575  27.742  14.192
47049W        W17649  28.667  28.867  10.986
47050W        W17650  13.788   9.788  10.763
47051W        W17651  30.303  26.830  14.529
47052W        W17652  31.574  44.892  12.830
47053W        W17653  37.358  25.835  14.799
47054W        W17654  43.237  44.750  13.411
47055W        W17655  35.927  30.598  14.855
47056W        W17656   9.978  34.609  14.049
47057W        W17657  10.193  30.091   3.303
47058W        W17658  16.083  15.677   2.825
47059W        W17659  23.730  29.516   1.340
47060W        W17660   3.278  27.125   4.256
47061W        W17661   7.307  38.025   4.390
47062W        W17662  30.210  38.535   3.773
47063W        W17663  18.087   2.527  14.770
47064W        W17664  22.279  16.068  13.902
47065W        W17665  38.297  24.955  11.108
47066W        W17666  41.006  30.017  11.493
47067W        W17667  35.625  44.749   2.328
47068W        W17668  10.700   6.835   3.167
47069W        W17669  26.005   9.716   0.447
47070W        W17670  44.422  32.565  12.600
47071W        W17671  38.285  16.384   3.788
47072W        W17672  34.096  29.235   2.260
47073W        W17673  25.615  38.257   0.307
47074W        W17674   4.358  40.034  12.998
47075W        W17675  38.866  42.392  14.040
47076W        W17676  11.113  40.459   0.818
47077W        W17677  12.851  18.298  11.633
47078W        W17678  19.984   1.883  10.550
47079W        W17679  25.965  41.271  10.742
47080W        W17680  42.963  26.067   1.381
47081W        W17681  38.561   6.246   0.361
47082W        W17682  44.912  44.002   0.031
47083W        W17683  17.353  24.594   4.616
47084W        W17684   8.671  31.915   4.976
47085W        W17685   3.882  34.326   1.463
47086W        W17686  33.584  35.435   1.720
47087W        W17687  25.036  13.181   0.411
47088W        W17688  16.808  28.016  14.029
47089W        W17689  38.498  34.170  11.204
47090W        W17690  20.665  40.924   1.709
47091W        W17691   3.626  35.649  12.007
47092W        W17692  41.332  21.158   2.426
47093W        W17693  18.985  34.897   1.352
47094W        W17694  11.921  22.031   3.293
47095W        W17695  26.699  29.888   2.200
47096W        W17696  36.048  31.164   4.703
47097W        W17697  21.576  33.718   4.500
47098W        W17698  20.232  24.432   4.558
47099W        W17699   8.305  26.678   0.450
47100W        W17700   2.024   8.876  10.678
47101W        W17701  27.819   6.305  12.421
47102W        W17702   4.448   7.229  13.301
47103W        W17703  41.226  15.798   0.910
47104W        W17704  16.669  23.717   0.855
47105W        W17705  28.597  30.599   1.300
47106W        W17706  27.358   7.880   1.398
47107W        W17707  24.308  32.170   0.440
47108W        W17708  10.544   8.119  11.009
47109W        W17709  24.039  29.952   1.369
47110W        W17710  30.321  25.469   1.943
47111W        W17711  23.255  31.594   2.834
47112W        W17712  14.810  22.469  12.987
47113W        W17713  13.080  37.547   3.767
47114W        W17714  43.269  23.350   2.676
47115W        W17715  27.306  33.022   0.183
47116W        W17716  12.351   2.263  12.095
47117W        W17717  22.737  17.263  13.871
47118W        W17718  31.434  36.039   3.120
47119W        W17719   1.778  34.292  11.179
47120W        W17720  22.172   1.854   1.969
47121W        W17721   8.625   6.906  10.748
47122W        W17722  19.063  36.679   3.343
47123W        W17723  35.136  28.985  12.557
47124W        W17724  29.706  25.086   0.397
47125W        W17725  29.415   4.617  10.916
47126W        W17726  16.064  43.542  13.066
47127W        W17727  41.387  13.696   4.539
47128W        W17728  43.475  42.745   1.868
47129W        W17729  16.202  15.810   1.336
47130W        W17730  40.204   2.252  14.793
47131W        W17731   0.834  26.748   3.525
47132W        W17732   6.356   5.832   4.764
47133W        W17733  26.933  36.252   3.888
47134W        W17734  21.066  36.545   4.548
47135W        W17735  23.675  13.500  11.188
47136W        W17736   7.431  31.766  10.372
47137W        W17737  35.579  25.400  13.049
47138W        W17738  30.394  21.770   4.625
47139W        W17739  26.478  41.323   1.177
47140W        W17740  11.232  33.328   1.015
47141W        W17741  14.497  33.335   4.123
47142W        W17742  39.871   9.081  11.557
47143W        W17743  33.158  21.682  12.531
47144W        W17744   5.418   0.768  11.917
47145W        W17745  12.129  43.991   1.822
47146W        W17746  12.275   4.284   1.737
47147W        W17747  25.850   3.781   2.859
47148W        W17748  27.859  29.751   5.071
47149W        W17749  16.481   3.491   4.280
47150W        W17750  42.452  26.621  12.519
47151W        W17751  22.709  18.117  10.676
47152W        W17752  33.687  19.162  10.383
47153W        W17753  22.099   5.625  14.382
47154W        W17754  16.192  15.358  13.408
47155W        W17755  18.332  24.446  13.867
47156W        W17756   5.997  12.207  12.415
47157W        W17757   7.418  20.605   1.346
47158W        W17758   1.416  19.012   2.225
47159W        W17759  19.874  37.378  12.806
47160W        W17760  29.823  39.743  11.510
47161W        W17761  20.788  36.156  10.607
47162W        W17762   4.741   6.215   3.111
47163W        W17763   3.926   8.720   2.208
47164W        W17764   4.340  26.643   3.505
47165W        W17765  10.309  26.373  11.243
47166W        W17766   9.876  38.868  14.097
47167W        W17767  19.571   1.096  10.954
47168W        W17768   1.694   2.371  12.583
47169W        W17769  33.650  21.015   1.840
47170W        W17770  33.096   8.465  12.962
47171W        W17771   0.781  41.808   3.797
47172W        W17772  40.533  16.068  13.474
47173W        W17773  15.693  23.298   4.735
47174W        W17774  27.491  30.472   0.859
47175W        W17775   5.131  30.864  11.021
47176W        W17776  41.421   7.518  10.254
47177W        W17777  14.798   1.322   4.450
47178W        W17778  23.421   8.266   2.222
47179W        W17779  44.200  21.471   4.171
47180W        W17780  36.790  38.843   0.708
47181W        W17781  12.325  39.444  10.551
47182W        W17782  40.297  28.175  13.625
47183W        W17783  12.844  17.245   1.039
47184W        W17784  10.613  21.611   3.273
47185W        W17785  43.142   8.867  13.524
47186W        W17786   7.688  16.720  13.020
47187W        W17787  39.184  39.990   0.994
47188W        W17788  31.648   7.419   4.155
47189W        W17789  11.349  35.082   1.789
47190W        W17790  19.571  14.522  11.635
47191W        W17791  17.856   3.888   2.294
47192W        W17792  22.671  21.540   4.195
47193W        W17793  34.588  27.267   0.571
47194W        W17794   7.110  26.032   3.277
47195W        W17795  31.782  12.307   4.110
47196W        W17796  14.792  27.525  13.417
47197W        W17797  28.353  22.593   4.179
47198W        W17798  29.112   9.849   3.214
47199W        W17799  42.288  31.782  14.319
47200W        W17800  15.958  36.658  11.993
47201W        W17801  24.689  31.176  11.155
47202W        W17802  13.464  29.423   4.210
47203W        W17803   0.884   2.302   3.779
47204W        W17804  22.216  31.456  13.065
47205W        W17805  28.488  22.672  11.067
47206W        W17806   3.419  38.688  13.459
47207W        W17807  23.813  27.512   2.829
47208W        W17808   3.218  39.989   1.412
47209W        W17809  43.763  16.241   3.196
47210W        W17810  33.732  12.215   0.171
47211W        W17811  20.727  31.490   0.760
47212W        W17812   8.312  34.150   3.698
47213W        W17813  30.140   4.041   4.584
47214W        W17814   6.342  35.510  13.580
47215W        W17815  35.561   7.815   3.600
47216W        W17816   2.390   3.476   1.255
47217W        W17817  25.586  25.143   3.625
47218W        W17818   4.048   2.204   3.424
47219W        W17819  36.132  24.198   2.844
47220W        W17820  39.204  18.026  12.970
47221W        W17821  17.830  23.179   1.314
47222W        W17822  44.299  12.634  12.621
47223W        W17823  41.812  39.508   0.725
47224W        W17824  35.032  25.663   4.708
47225W        W17825  30.614  16.113  11.057
47226W        W17826   6.870  26.215   2.265
47227W        W17827  10.540  31.588   3.081
47228W        W17828  33.960  20.962  11.133
47229W        W17829  23.454  27.328   3.320
47230W        W17830  30.266  14.635  13.139
47231W        W17831  19.436  39.387   0.491
47232W        W17832   8.814   5.286   0.909
47233W        W17833  32.007  16.461   1.109
47234W        W17834  21.969  31.498   0.021
47235W        W17835   1.296   1.789   1.117
47236W        W17836  36.311  16.597  11.124
47237W        W17837  40.962  24.144  10.960
47238W        W17838  23.152  38.629   4.120
47239W        W17839  29.358  33.143   3.773
47240W        W17840   1.215  15.596   0.907
47241W        W17841  20.989  22.733  14.331
47242W        W17842  40.538  43.875  11.507
47243W        W17843  40.337  26.202   1.423
47244W        W17844  21.202  32.510  11.637
47245W        W17845   5.205  13.724  13.112
47246W        W17846  27.498  41.468   4.239
47247W        W17847  27.561  25.580   3.810
47248W        W17848  34.934  37.504  10.804
47249W        W17849   6.695  18.512   3.105
47250W        W17850  24.634  25.957   3.208
47251W        W17851  44.708  22.305  14.493
47252W        W17852  33.920  39.970   3.453
47253W        W17853  14.276  38.594   2.774
47254W        W17854   4.393  42.064  12.651
47255W        W17855  36.036  29.730   3.230
47256W        W17856   5.344  10.611   2.269
47257W        W17857   6.293  12.784  13.953
47258W        W17858  27.602  21.157   1.939
47259W        W17859  11.770  27.763   1.827
47260W        W17860   6.275  40.400  14.304
47261W        W17861  39.368  10.076  13.783
47262W        W17862  26.860   8.909  10.930
47263W        W17863  28.851  33.543  14.439
47264W        W17864  17.953   2.273   1.277
47265W        W17865  33.192  35.073  11.659
47266W        W17866  16.804  21.634   2.424
47267W        W17867   5.214   9.087   1.120
47268W        W17868  32.358  10.210   1.715
47269W        W17869  30.085  41.113   2.832
47270W        W17870   4.678   8.244   1.957
47271W        W17871   7.251  24.955   4.287
47272W        W17872  36.753   8.635  13.789
47273W        W17873  11.334  11.330  11.151
47274W        W17874  21.205  43.801   1.328
47275W        W17875  38.889  29.485  13.059
47276W        W17876   6.847  29.658  13.814
47277W        W17877  22.922  30.630  14.838
47278W        W17878   2.348  25.172  10.898
47279W        W17879   7.894  18.091  11.820
47280W        W17880  39.003  11.973  14.612
47281W        W17881  43.520  18.620  14.729
47282W        W17882  29.987  33.575  11.676
47283W        W17883   7.265  25.579  14.699
47284W        W17884  33.138  42.182   4.613
47285W        W17885  17.817   9.057  10.674
47286W        W17886  24.605  36.415  10.655
47287W        W17887  31.946  26.702   4.146
47288W        W17888  42.845   7.480  12.425
47289W        W17889   0.879  24.041  11.246
47290W        W17890  26.068  28.391   3.246
47291W        W17891   7.924  15.745   1.379
47292W        W17892  31.944   2.314   1.606
47293W        W17893  13.344  41.597   9.922
47294W        W17894  21.599  40.578   0.337
47295W        W17895   8.817  38.006   3.381
47296W        W17896  40.152  28.063   3.638
47297W        W17897  25.146   1.045   2.296
47298W        W17898   0.428  34.958  13.950
47299W        W17899  20.586   2.913   4.092
47300W        W17900  24.192   1.861   3.627
47301W        W17901  20.114  22.162   3.481
47302W        W17902  33.622  15.636  14.355
47303W        W17903  26.459  36.062   0.981
47304W        W17904   5.744  19.605  14.745
47305W        W17905  33.946   4.067  11.382
47306W        W17906  26.531  39.370   1.525
47307W        W17907  41.971  30.545  12.120
47308W        W17908  25.775  38.981   4.044
47309W        W17909  28.346  31.429   0.929
47310W        W17910  20.253  15.299   4.399
47311W        W17911   8.954  29.267   2.183
47312W        W17912  33.930  28.019  14.700
47313W        W17913  43.395  11.320  12.285
47314W        W17914  29.482  44.748   4.949
47315W        W17915   7.807  19.237  14.459
47316W        W17916  40.907  11.580  11.415
47317W        W17917  20.042  39.450   4.436
47318W        W17918   6.432  32.510  13.381
47319W        W17919   5.884  44.428  12.793
47320W        W17920  43.819  40.257  12.945
47321W        W17921  22.211   0.506  14.957
47322W        W17922   8.870  18.559  13.468
47323W        W17923  12.980  22.851  14.523
47324W        W17924  23.975  30.612  11.587
47325W        W17925  21.534  32.532   1.441
47326W        W17926  26.979   7.932   3.508
47327W        W17927   2.894  24.056  14.032
47328W        W17928  19.545  40.609   0.436
47329W        W17929  32.535   5.448  12.102
47330W        W17930  40.374  43.546   2.758
47331W        W17931  23.508  32.971   1.424
47332W        W17932  40.333  35.069   2.763
47333W        W17933  32.626  11.387   2.452
47334W        W17934  13.340  15.039  13.040
47335W        W17935  17.686  19.151  12.701
47336W        W17936   3.405  10.937  14.884
47337W        W17937   9.699   8.873  13.024
47338W        W17938  18.565  43.475  13.006
47339W        W17939  40.920  26.182   3.795
47340W        W17940   1.259  20.121   3.701
47341W        W17941  24.468  35.901  13.377
47342W        W17942   6.279  14.349   0.814
47343W        W17943   6.335  39.090   0.699
47344W        W17944  10.788  21.731   0.005
47345W        W17945  18.958  23.020  10.989
47346W        W17946  25.252  37.579  14.255
47347W        W17947  42.806  42.303  14.539
47348W        W17948  38.759   8.216   3.652
47349W        W17949  41.500  31.599   2.421
47350W        W17950  42.789  14.811  12.886
47351W        W17951  35.421  20.210   4.172
47352W        W17952   2.953  22.144  14.295
47353W        W17953  10.261  34.511  12.381
47354W        W17954   4.706  10.962   1.405
47355W        W17955   9.351   3.041  12.925
47356W        W17956  10.928  30.387   2.964
47357W        W17957  15.594  39.408  12.539
47358W        W17958  21.627  20.548   2.203
47359W        W17959   9.351   3.459  12.008
47360W        W17960  33.833   2.767  11.097
47361W        W17961   5.411   1.978   2.117
47362W        W17962  15.938  36.104  11.390
47363W        W17963  38.613  19.773  11.554
47364W        W17964  10.198   8.799  12.871
47365W        W17965  40.773  41.328   0.237
47366W        W17966  35.024  25.133   4.628
47367W        W17967  42.911  44.069  14.760
47368W        W17968  20.988  37.600   4.648
47369W        W17969  33.660  36.981  10.411
47370W        W17970  11.782   8.580   4.983
47371W        W17971   1.407  39.904   2.698
47372W        W17972  20.177   5.882  13.514
47373W        W17973  40.547  30.524  11.629
47374W        W17974  13.318  43.738  14.184
47375W        W17975  30.935  10.345  14.364
47376W        W17976   4.405  21.274   3.132
47377W        W17977  20.515  38.978  12.048
47378W        W17978  33.100  43.706   2.379
47379W        W17979  35.825   0.836  13.180
47380W        W17980  42.260  35.050  14.454
47381W        W17981  15.765  24.958  11.916
47382W        W17982  10.278   0.270  10.508
47383W        W17983  19.158  32.643  12.121
47384W        W17984   0.170  37.101  11.121
47385W        W17985  33.263  28.705  13.487
47386W        W17986  34.633   1.897   2.091
47387W        W17987  24.233  24.112   2.597
47388W        W17988  32.392  12.623   1.358
47389W        W17989  14.055  37.115  11.540
47390W        W17990   7.786   2.894  12.355
47391W        W17991  32.216  43.935   1.307
47392W        W17992   4.687  38.266  12.473
47393W        W17993   4.840  44.965   1.720
47394W        W17994  42.782   6.161   0.921
47395W        W17995  41.399  13.760  14.740
47396W        W17996  43.757   4.096  11.346
47397W        W17997  24.443  27.184   2.642
47398W        W17998  29.733  17.515  14.607
47399W        W17999   8.353  42.440   0.868
47400W        W18000  42.871  23.012  13.512
47401W        W18001  17.795   8.435  13.719
47402W        W18002   6.250  15.738   4.684
47403W        W18003  10.358  32.576   4.609
47404W        W18004   5.652  21.737   3.504
47405W        W18005  24.015  12.685  14.062
47406W        W18006   6.311   1.975   4.638
47407W        W18007  11.007  20.170   4.088
47408W        W18008  18.074  37.270  13.826
47409W        W18009  13.102  13.911  11.562
47410W        W18010  44.520  34.051   3.926
47411W        W18011  28.223  32.942  14.765
47412W        W18012  10.342  40.317   4.190
47413W        W18013  16.179  37.879   3.948
47414W        W18014  17.775  29.145   2.552
47415W        W18015   8.347   2.671   4.606
47416W        W18016   7.435  39.529   4.103
47417W        W18017   1.755   2.473   2.589
47418W        W18018   2.905   9.575  13.989
47419W        W18019  30.108   8.740   0.861
47420W        W18020  15.602  18.597  12.057
47421W        W18021   8.248   5.468  13.564
47422W        W18022   9.157  34.794  14.865
47423W        W18023  18.156  15.802   0.549
47424W        W18024  35.679  11.743  10.875
47425W        W18025   2.596  24.992   5.060
47426W        W18026  41.549  44.850  10.945
47427W        W18027   7.771   7.149   0.433
47428W        W18028  31.080  24.533   2.487
47429W        W18029   7.183  30.891  11.511
47430W        W18030  14.149  25.060  12.041
47431W        W18031  38.606  22.218   0.941
47432W        W18032  20.642  28.906  13.370
47433W        W18033  35.545  38.622   1.869
47434W        W18034  30.639  42.461   9.835
47435W        W18035  14.595  12.562  11.175
47436W        W18036   7.273  38.389   3.352
47437W        W18037   3.537  21.133   0.722
47438W        W18038  16.299  40.462   1.935
47439W        W18039  15.604  21.172  13.378
47440W        W18040   7.237   6.543   4.249
47441W        W18041  28.366  25.454   4.709
47442W        W18042   5.275  42.295  12.112
47443W        W18043  43.548   2.793  11.141
47444W        W18044  12.672  24.772  11.841
47445W        W18045  32.512  11.764   2.861
47446W        W18046  28.514  44.306  11.206
47447W        W18047  15.148   7.975  13.834
47448W        W18048  12.947   1.892   3.785
47449W        W18049  23.188  18.421   4.548
47450W        W18050   4.346  28.927  13.139
47451W        W18051  36.229  44.887  13.849
47452W        W18052  42.487  24.951  12.145
47453W        W18053  27.920  22.554  10.405
47454W        W18054  14.617  39.781  12.468
47455W        W18055  20.570  37.259  11.565
47456W        W18056  22.984  36.327  11.154
47457W        W18057  33.590  14.171  13.904
47458W        W18058  13.875  36.769  13.155
47459W        W18059  44.442  30.219  10.711
47460W        W18060   9.176  29.710  14.379
47461W        W18061  13.205   9.660  13.918
47462W        W18062  34.731  44.719   2.549
47463W        W18063  42.231  12.299   1.937
47464W        W18064  24.038  34.832   3.762
47465W        W18065  28.244  32.391   0.891
47466W        W18066   3.932  34.341   3.286
47467W        W18067   1.293  14.736   0.720
47468W        W18068  13.701   0.597  11.693
47469W        W18069  11.268  41.403  14.247
47470W        W18070  32.675  12.145   0.388
47471W        W18071  20.754  18.965   1.710
47472W        W18072  34.319  37.559  14.435
47473W        W18073  16.314  10.764  10.436
47474W        W18074  18.622  22.967  11.729
47475W        W18075  15.839  24.151  11.503
47476W        W18076  42.195  33.470  14.770
47477W        W18077  38.043   5.738  10.409
47478W        W18078  15.100  21.531   3.419
47479W        W18079   0.874  11.649  11.171
47480W        W18080   2.937  15.817  13.848
47481W        W18081   2.516  23.662  12.120
47482W        W18082  36.167  24.371  12.853
47483W        W18083  39.755  20.486   3.158
47484W        W18084  34.440  22.565  13.435
47485W        W18085  19.091  22.105   0.452
47486W        W18086   7.199   4.604   0.359
47487W        W18087   8.005   7.604  12.118
47488W        W18088  37.369  36.365   2.212
47489W        W18089  29.669  29.194  11.405
47490W        W18090   4.198  42.010  12.175
47491W        W18091  11.672  14.866  12.058
47492W        W18092  33.063  14.240   2.852
47493W        W18093  30.804  34.191   3.666
47494W        W18094  35.944   1.478   2.951
47495W        W18095  13.867  11.087  12.665
47496W        W18096  22.221   4.687  10.652
47497W        W18097  19.739  14.595   1.265
47498W        W18098  38.399   5.941   3.136
47499W        W18099   6.187  24.768   0.836
47500W        W18100  32.028   8.594   4.947
47501W        W18101  27.258  31.461   2.787
47502W        W18102   0.616  27.554  12.870
47503W        W18103   4.766  43.384   0.410
47504W        W18104   3.476   9.039   4.842
47505W        W18105  39.372  43.591  13.447
47506W        W18106  27.122   0.387   0.549
47507W        W18107  35.010   5.206  13.989
47508W        W18108  32.472  39.058   0.412
47509W        W18109   2.114   1.536   2.146
47510W        W18110  42.385  19.439   2.304
47511W        W18111  32.040  19.346  11.672
47512W        W18112  21.612  28.407   4.884
47513W        W18113  16.235  10.345  12.479
47514W        W18114  27.124  28.122  12.044
47515W        W18115   4.536  23.634   0.417
47516W        W18116  43.282   8.995   0.263
47517W        W18117   8.511   4.331   1.315
47518W        W18118  36.649  26.565  13.280
47519W        W18119  12.040  31.632  12.676
47520W        W18120   9.443  31.152   3.804
47521W        W18121  31.666  32.827   2.125
47522W        W18122  34.572  32.927  14.146
47523W        W18123  32.508  40.188   2.939
47524W        W18124  44.422  16.488  12.635
47525W        W18125  41.041  35.941  14.066
47526W        W18126  19.018  35.049   2.266
47527W        W18127   8.382  13.671  12.786
47528W        W18128  22.003  10.866   4.561
47529W        W18129  16.069  28.338   1.630
47530W        W18130   5.426  12.620  13.313
47531W        W18131  11.891  28.232   4.113
47532W        W18132  36.353   1.982  10.423
47533W        W18133  17.963  37.006   0.286
47534W        W18134  11.272  37.185   0.470
47535W        W18135  23.592  34.562   3.784
47536W        W18136  15.160  40.598  10.911
47537W        W18137  20.259  37.259  14.022
47538W        W18138  14.481  11.518  12.122
47539W        W18139  28.530  33.428   4.130
47540W        W18140  28.397  26.644   3.771
47541W        W18141  16.027   5.999  12.013
47542W        W18142  10.236  11.332  13.838
47543W        W18143   0.929  15.122  13.028
47544W        W18144  44.764  21.861   0.330
47545W        W18145  15.554   7.069  13.902
47546W        W18146  38.264  38.775  14.447
47547W        W18147   2.596  16.768  12.981
47548W        W18148  34.481  19.589  13.922
47549W        W18149  37.840  18.608   4.909
47550W        W18150  19.557  19.568  13.251
47551W        W18151   5.980  27.925   4.534
47552W        W18152  28.573  32.664   2.915
47553W        W18153   4.260  30.792  11.350
47554W        W18154  26.645   3.838  10.798
47555W        W18155  21.595  10.986   3.815
47556W        W18156   5.835  22.178   2.278
47557W        W18157   1.363  40.733  11.166
47558W        W18158  19.386  43.400  11.115
47559W        W18159  37.408  29.492   1.743
47560W        W18160  26.538  22.019   2.760
47561W        W18161  17.778  37.731   3.690
47562W        W18162  42.028  43.466   2.283
47563W        W18163  38.509  11.035  11.935
47564W        W18164   1.456   1.307   2.819
47565W        W18165  17.550  39.408  11.575
47566W        W18166   6.292   5.911   1.766
47567W        W18167  16.241  15.962   4.274
47568W        W18168  32.307  12.925  13.546
47569W        W18169  39.803  19.053   0.230
47570W        W18170  25.711  25.515   0.474
47571W        W18171   5.011  17.971  10.995
47572W        W18172  39.821   3.277   2.478
47573W        W18173   6.286  26.188   4.379
47574W        W18174   5.937  33.636  12.443
47575W        W18175   0.851  36.650  10.375
47576W        W18176   0.482  42.790  14.934
47577W        W18177  10.908  23.152   0.729
47578W        W18178   3.157  25.010   3.635
47579W        W18179  22.441  28.586  11.904
47580W        W18180  43.305  37.772  11.298
47581W        W18181  33.455  33.697   2.342
47582W        W18182  44.969  41.926   0.729
47583W        W18183  28.173  34.922  11.230
47584W        W18184  33.840  34.047  11.428
47585W        W18185  42.442  43.096  11.017
47586W        W18186  14.705  29.022   3.975
47587W        W18187  34.565   1.296  12.133
47588W        W18188  40.106  12.065  12.100
47589W        W18189  11.913  25.074  10.897
47590W        W18190  18.956  34.481   9.913
47591W        W18191  17.673  43.482  10.863
47592W        W18192  42.062  12.614  11.173
47593W        W18193   4.445  38.542  12.112
47594W        W18194   7.877  36.343   0.970
47595W        W18195  40.278  22.860   2.878
47596W        W18196  15.159  10.641   3.581
47597W        W18197  17.431  29.893  13.236
47598W        W18198   0.231  15.093   0.208
47599W        W18199  35.485  18.816   3.346
47600W        W18200  44.219  26.510   3.678
47601W        W18201  11.033  24.092  14.907
47602W        W18202  20.458  18.706   3.194
47603W        W18203   4.455  40.767   2.793
47604W        W18204  34.852  19.202   0.906
47605W        W18205   3.267  26.603  11.789
47606W        W18206  35.573   4.478   3.220
47607W        W18207  17.754   7.713   0.342
47608W        W18208  26.382   8.322  11.613
47609W        W18209  29.157  15.758   1.011
47610W        W18210  26.097  33.992   1.323
47611W        W18211  18.425  17.062   4.101
47612W        W18212   4.969  33.502   3.667
47613W        W18213  11.480   8.877  11.556
47614W        W18214   6.243  29.973   4.616
47615W        W18215  27.894   5.762  13.528
47616W        W18216  13.829  38.852   2.740
47617W        W18217   7.312   1.227   0.836
47618W        W18218  13.784   0.228  10.727
47619W        W18219  21.996  37.546  13.956
47620W        W18220  41.592   3.595  14.781
47621W        W18221  15.601   9.334   3.701
47622W        W18222  24.378  23.744   1.360
47623W        W18223   0.146  16.304  11.901
47624W        W18224  35.249   4.960  12.747
47625W        W18225  18.974   7.224   2.747
47626W        W18226  40.109  40.167   3.589
47627W        W18227  35.128   3.974   1.751
47628W        W18228   7.524  11.722   3.673
47629W        W18229  30.550  41.158  11.054
47630W        W18230   2.682  36.874   1.645
47631W        W18231   1.388  19.072   2.742
47632W        W18232  21.669  23.660   3.662
47633W        W18233  16.907  36.906  10.469
47634W        W18234  10.624   9.415  12.451
47635W        W18235  21.047  14.496   3.647
47636W        W18236  29.439  21.026  13.169
47637W        W18237  38.785  41.566  14.514
47638W        W18238  36.116  41.246  12.012
47639W        W18239  20.515  32.489   1.762
47640W        W18240  14.714  20.229  10.775
47641W        W18241  27.925  13.324  11.448
47642W        W18242  27.754  15.097  11.855
47643W        W18243  44.946   0.111  13.986
47644W        W18244  33.097  41.883   2.774
47645W        W18245  23.086   3.581  11.201
47646W        W18246  23.003  15.284   0.792
47647W        W18247  34.115  33.480   4.941
47648W        W18248  43.689   9.283   2.847
47649W        W18249  15.323  20.190   2.406
47650W        W18250  26.696  14.158  12.499
47651W        W18251  33.482  31.607  14.027
47652W        W18252  34.895  19.219  11.974
47653W        W18253  33.163  23.663  14.016
47654W        W18254  21.927  39.214  11.662
47655W        W18255  10.633   8.887   2.256
47656W        W18256  24.686   9.401   1.903
47657W        W18257   4.822  39.960  12.129
47658W        W18258  29.015  27.550   1.830
47659W        W18259  26.944  19.933  14.769
47660W        W18260  23.946   2.734  13.871
47661W        W18261  38.068   7.135   2.662
47662W        W18262  12.358  25.108   1.036
47663W        W18263  27.784  26.454  12.012
47664W        W18264  20.306  36.512   3.768
47665W        W18265  22.478   8.951   2.760
47666W        W18266  24.776  21.545   1.759
47667W        W18267   1.748   0.752  13.022
47668W        W18268  34.595  16.568   0.542
47669W        W18269  44.717  25.211  14.013
47670W        W18270  28.988  25.627  12.492
47671W        W18271   5.192   1.722   4.777
47672W        W18272  23.258  13.740  12.489
47673W        W18273  14.943  15.505   4.360
47674W        W18274  39.272   2.852  10.743
47675W        W18275  13.974  23.491  11.166
47676W        W18276  19.445  24.048  13.624
47677W        W18277  26.617   3.993   1.259
47678W        W18278   7.224   1.734   0.871
47679W        W18279  25.504  39.933  11.190
47680W        W18280  40.954   1.158   1.959
47681W        W18281  35.624  18.584   3.797
47682W        W18282  37.397  34.893  11.487
47683W        W18283   0.824  34.355  14.545
47684W        W18284  25.517  17.992  13.415
47685W        W18285  27.136  41.687  11.117
47686W        W18286  14.094  36.142   1.698
47687W        W18287  35.394  38.056  13.590
47688W        W18288  35.321  32.785   4.175
47689W        W18289  17.136  36.801  10.915
47690W        W18290  44.135  26.483  11.860
47691W        W18291  17.247  25.275   3.642
47692W        W18292   1.252  15.868  12.463
47693W        W18293   2.346   8.569  12.941
47694W        W18294   6.723   4.287  13.013
47695W        W18295  14.692  39.404  10.407
47696W        W18296  42.933  15.366  13.523
47697W        W18297  44.024  30.469   2.867
47698W        W18298  38.461   1.949   1.422
47699W        W18299  22.970   9.816   4.293
47700W        W18300  43.060  44.392  12.565
47701W        W18301  16.681  38.444  10.911
47702W        W18302  38.256  33.546   3.156
47703W        W18303  32.228  24.151  11.979
47704W        W18304  38.636  36.457   1.095
47705W        W18305  32.660   3.184  12.777
47706W        W18306  16.838  38.546  14.037
47707W        W18307   2.298  27.015   0.652
47708W        W18308   6.163   3.748  12.464
47709W        W18309   5.000  29.248   4.377
47710W        W18310  29.669  15.518  14.261
47711W        W18311   8.857  25.147   4.715
47712W        W18312  18.209  28.488   2.565
47713W        W18313  39.436  30.665  12.532
47714W        W18314   6.367   8.263   1.908
47715W        W18315  35.367  27.643   2.736
47716W        W18316  39.010  17.768  13.854
47717W        W18317  35.913  32.381  12.854
47718W        W18318  16.536  11.659   4.617
47719W        W18319  33.072  21.661  14.442
47720W        W18320  17.174  18.346  11.157
47721W        W18321  41.375  35.429   1.782
47722W        W18322  30.113  43.259  11.051
47723W        W18323  34.950  11.838   0.908
47724W        W18324  39.046  10.570   3.425
47725W        W18325  41.120  41.054   3.366
47726W        W18326   3.680   3.930   4.081
47727W        W18327  35.938   9.194   0.473
47728W        W18328  15.078  33.820   0.488
47729W        W18329  16.386  32.020  14.357
47730W        W18330  35.946  30.097  14.734
47731W        W18331  20.132   3.177  12.937
47732W        W18332  24.027  26.764   0.890
47733W        W18333  33.435  28.116  14.956
47734W        W18334  30.017  29.573  14.758
47735W        W18335  29.215  32.424  11.803
47736W        W18336  30.980  14.054  12.579
47737W        W18337  13.803  39.934   4.542
47738W        W18338  36.921   5.513   2.803
47739W        W18339   8.925  33.858   2.051
47740W        W18340  19.535  36.478  11.165
47741W        W18341  34.775  27.487  11.329
47742W        W18342  28.362  36.520  14.307
47743W        W18343  35.361  17.793   1.923
47744W        W18344  19.464  31.040   2.447
47745W        W18345  42.580  10.876  12.092
47746W        W18346  34.414   1.769   0.824
47747W        W18347   0.180  21.807   2.147
47748W        W18348  42.998  30.397   0.945
47749W        W18349  14.153  34.727  12.608
47750W        W18350   7.445  44.342   1.983
47751W        W18351  27.828  29.092  14.683
47752W        W18352  11.081  16.774   0.021
47753W        W18353  20.419  20.195  10.938
47754W        W18354  18.079  27.883   2.325
47755W        W18355  13.603  29.358   3.426
47756W        W18356   2.967  22.820   4.220
47757W        W18357  20.611  37.498  14.903
47758W        W18358  20.684  17.705  13.572
47759W        W18359  29.938  39.153  14.495
47760W        W18360  15.046  32.169   0.309
47761W        W18361  29.818  32.127  13.273
47762W        W18362  44.437  19.512   3.445
47763W        W18363  26.198  24.705  11.033
47764W        W18364  42.476  10.585   3.402
47765W        W18365  11.213   6.957   0.391
47766W        W18366  20.263  37.383   3.196
47767W        W18367  26.740  23.628   1.680
47768W        W18368  19.100  44.699   0.325
47769W        W18369  13.718  30.836   2.741
47770W        W18370  25.191  42.475   3.950
47771W        W18371  41.990  26.153  12.957
47772W        W18372  31.966   9.323  14.471
47773W        W18373   5.399   8.322   2.808
47774W        W18374  40.417  37.431   9.891
47775W        W18375   4.973   8.223   2.371
47776W        W18376   6.409   6.287  10.472
47777W        W18377   3.965   8.666  10.284
47778W        W18378  23.123  19.816  14.016
47779W        W18379  27.507  15.046  14.933
47780W        W18380   1.834  10.817  11.972
47781W        W18381  16.160  41.452  14.923
47782W        W18382  35.151  21.839  11.020
47783W        W18383   6.233   8.539   2.854
47784W        W18384   8.861  37.111   2.807
47785W        W18385  16.909  23.079  14.441
47786W        W18386  41.752  26.657  12.970
47787W        W18387  35.435  32.981   3.309
47788W        W18388  26.646   6.583   4.576
47789W        W18389  19.073  41.402  11.485
47790W        W18390  15.432  41.096   2.444
47791W        W18391  30.085  14.358   4.239
47792W        W18392  17.634  33.190   5.086
47793W        W18393  13.536  31.063   0.740
47794W        W18394  42.383  21.748   0.470
47795W        W18395   2.759   7.656  12.970
47796W        W18396  42.380   8.737  11.391
47797W        W18397  30.870  21.044  14.232
47798W        W18398  36.419  12.494   2.425
47799W        W18399  37.996   0.683   1.839
47800W        W18400  36.429  39.081   0.419
47801W        W18401  34.121  23.007   2.298
47802W        W18402  22.066  32.413   4.744
47803W        W18403  16.603   2.964  10.924
47804W        W18404  32.838  22.668   2.337
47805W        W18405  24.963  18.195  14.339
47806W        W18406  16.868  13.774   1.242
47807W        W18407   7.836  27.395   1.347
47808W        W18408  18.318  27.512   0.231
47809W        W18409  29.689  38.114   1.725
47810W        W18410   3.205  37.042  14.327
47811W        W18411  20.232  14.693   0.139
47812W        W18412  37.384  15.076   4.647
47813W        W18413  37.504   1.900  13.549
47814W        W18414  44.503  38.913   2.420
47815W        W18415  18.495  28.332   0.465
47816W        W18416  19.953  33.462   3.890
47817W        W18417  18.077  22.616   2.582
47818W        W18418   7.011  22.895   2.240
47819W        W18419  10.529  11.887  10.939
47820W        W18420   0.361  28.740   4.607
47821W        W18421  15.108  17.245  13.650
47822W        W18422  30.375  36.361  13.561
47823W        W18423  20.264  42.811  12.676
47824W        W18424  39.327  13.701  11.718
47825W        W18425  27.144  34.352   0.353
47826W        W18426  24.656   1.275  10.625
47827W        W18427   4.789  11.246   4.990
47828W        W18428   8.222  17.645   3.613
47829W        W18429  22.077  13.349  14.558
47830W        W18430  17.740  18.290  12.027
47831W        W18431  20.157   4.990  14.816
47832W        W18432   1.145   0.474  10.540
47833W        W18433  26.739  41.445  14.339
47834W        W18434  31.367  36.581  13.931
47835W        W18435  36.511  44.290   2.376
47836W        W18436  40.310  19.854  12.397
47837W        W18437   1.881  20.606   0.745
47838W        W18438  10.587  32.058  14.088
47839W        W18439  12.872   9.782   2.875
47840W        W18440  25.815  25.974  11.542
47841W        W18441  22.720  27.098  13.587
47842W        W18442  23.148  43.701   4.084
47843W        W18443  44.555   8.662  14.312
47844W        W18444  18.344  28.452  13.931
47845W        W18445  11.382   9.338  14.243
47846W        W18446  42.733  41.526  10.348
47847W        W18447  37.388  14.298  12.869
47848W        W18448   4.771  30.152  14.304
47849W        W18449  31.572   4.855  13.033
47850W        W18450  39.084  42.318   0.453
47851W        W18451  24.927  41.359  10.764
47852W        W18452  35.545  23.536  12.424
47853W        W18453  38.585  27.783   1.278
47854W        W18454  28.791  41.822  12.455
47855W        W18455  17.140  43.370  10.700
47856W        W18456   2.798   4.872  10.799
47857W        W18457  18.124   4.346   2.260
47858W        W18458   5.869  16.876   1.306
47859W        W18459  19.639   7.275   4.528
47860W        W18460  16.137  19.753   4.041
47861W        W18461  32.519  26.640   4.951
47862W        W18462  40.345  28.152  10.672
47863W        W18463   7.358   3.854   2.636
47864W        W18464  34.151  43.107  12.992
47865W        W18465  12.644  30.013  11.968
47866W        W18466  40.850   1.341   4.278
47867W        W18467  38.346   1.965  11.967
47868W        W18468   1.350   4.222  11.906
47869W        W18469  10.174  33.616   1.754
47870W        W18470  33.911  27.416   3.607
47871W        W18471  26.939  21.045   4.527
47872W        W18472  29.882  28.576   4.058
47873W        W18473  23.165  32.680  11.923
47874W        W18474  43.904  18.128   1.628
47875W        W18475  23.526  28.447   0.762
47876W        W18476  11.632   8.270   3.064
47877W        W18477  18.133  22.987  11.177
47878W        W18478  42.385  36.399   3.733
47879W        W18479  30.726  11.039  10.890
47880W        W18480  44.267   8.765  10.732
47881W        W18481   1.832  28.479   4.637
47882W        W18482  40.543  29.437   2.211
47883W        W18483  27.472  32.606  11.232
47884W        W18484  25.012  19.137  14.236
47885W        W18485  30.584  15.700   4.265
47886W        W18486  23.150  43.337   2.192
47887W        W18487  15.709   8.650  11.826
47888W        W18488  34.332  18.733   1.804
47889W        W18489  33.928   6.881   1.721
47890W        W18490  31.129  24.000  13.444
47891W        W18491  44.283  42.234   4.671
47892W        W18492  13.715  41.533  11.194
47893W        W18493  40.877  15.679   1.896
47894W        W18494  34.569  32.834   2.334
47895W        W18495   3.006  21.680  10.663
47896W        W18496  19.211  24.554  13.759
47897W        W18497  28.030  16.808  14.724
47898W        W18498   5.946  16.302   1.925
47899W        W18499  29.601   8.654   4.480
47900W        W18500   0.016  44.300  11.019
47901W        W18501  43.294  38.038   4.560
47902W        W18502  25.812  32.858  14.857
47903W        W18503  28.562   8.708   4.121
47904W        W18504  37.295  38.080   0.824
47905W        W18505   8.612  22.696  14.963
47906W        W18506  22.511  22.810  13.949
47907W        W18507  42.491  42.319  11.686
47908W        W18508  24.713  34.102   3.147
47909W        W18509   7.220   9.641  12.947
47910W        W18510  24.210  42.789  11.383
47911W        W18511   3.040  32.441  10.308
47912W        W18512  29.972  11.728  10.752
47913W        W18513  19.604  21.633  12.172
47914W        W18514  36.444  14.078  13.053
47915W        W18515   3.362  39.025  11.165
47916W        W18516  10.459  39.917   9.854
47917W        W18517  36.813  27.409  10.765
47918W        W18518  39.447  44.496   1.251
47919W        W18519  29.701   2.989   3.697
47920W        W18520  25.527   5.718  11.860
47921W        W18521  34.054  31.217   1.197
47922W        W18522  33.450   0.936  12.890
47923W        W18523  11.629  39.267   4.539
47924W        W18524  15.251  15.103   2.335
47925W        W18525  24.903   7.782  13.110
47926W        W18526  10.575  41.617  11.019
47927W        W18527   7.561  30.007  10.442
47928W        W18528   4.455  37.103  14.695
47929W        W18529  40.477  38.553   1.934
47930W        W18530   7.557  44.672   4.093
47931W        W18531  25.438   4.786   2.268
47932W        W18532  26.067  33.068  14.463
47933W        W18533  37.143   8.974  13.781
47934W        W18534  32.225  29.209   2.338
47935W        W18535  25.105  20.588   4.544
47936W        W18536   8.391  28.902   2.181
47937W        W18537  27.069  22.818  13.405
47938W        W18538  28.687  32.250   0.657
47939W        W18539  31.635  13.692  11.123
47940W        W18540  16.323  32.400   4.146
47941W        W18541  23.176   0.361  10.701
47942W        W18542  23.220  42.968  10.166
47943W        W18543  35.514  19.312   4.263
47944W        W18544  12.728  31.003  12.332
47945W        W18545  40.141  32.858  12.208
47946W        W18546  24.054  41.975  10.671
47947W        W18547  43.342   0.364   4.256
47948W        W18548  32.355   5.420   1.457
47949W        W18549  29.403  15.205   2.801
47950W        W18550  11.131  30.846   2.345
47951W        W18551  23.314  42.489  14.629
47952W        W18552  18.313  19.231   3.950
47953W        W18553  28.942  22.504  10.918
47954W        W18554  39.797   5.791  14.088
47955W        W18555  26.356   9.888  12.390
47956W        W18556  14.580  37.557   2.316
47957W        W18557  24.193  22.503   0.006
47958W        W18558  38.098  42.420   3.570
47959W        W18559  33.201  31.621  11.013
47960W        W18560  10.453  36.973  12.102
47961W        W18561  42.555  19.605  12.907
47962W        W18562  37.789  34.064   2.284
47963W        W18563  35.515  36.591  12.544
47964W        W18564  35.844  19.192   3.912
47965W        W18565  36.886  13.763  13.581
47966W        W18566  14.568   8.555   4.190
47967W        W18567   8.648   1.235   2.263
47968W        W18568  28.527  21.735  11.606
47969W        W18569  35.869  24.432   0.836
47970W        W18570  34.615  25.293   4.084
47971W        W18571  33.999  39.509  11.557
47972W        W18572  27.713   7.960  11.542
47973W        W18573  39.494   8.846   0.790
47974W        W18574  25.566  26.483   3.047
47975W        W18575  15.098  26.534  13.566
47976W        W18576  31.319   3.769   1.411
47977W        W18577   2.349  29.138   0.830
47978W        W18578  28.066  33.891  11.022
47979W        W18579  36.221  35.105   4.522
47980W        W18580  36.172  14.766  13.314
47981W        W18581   5.727   9.665   0.262
47982W        W18582  36.345  12.091  13.574
47983W        W18583  36.050   1.626   0.227
47984W        W18584  15.000  20.074  12.998
47985W        W18585  15.255  13.078   3.317
47986W        W18586   5.546  33.227   4.447
47987W        W18587  26.506  30.865  14.352
47988W        W18588  12.144  43.614  10.704
47989W        W18589  25.611  39.412  12.453
47990W        W18590  15.425  39.314   3.412
47991W        W18591   1.644  30.009   2.045
47992W        W18592  29.834  30.601  13.880
47993W        W18593  37.801  11.892   4.658
47994W        W18594  38.301  35.036   0.279
47995W        W18595  24.906   4.399  14.023
47996W        W18596   6.864  32.149  14.885
47997W        W18597  12.716  27.462   3.303
47998W        W18598   9.021   8.699  11.084
47999W        W18599  16.334  37.425   3.716
48000W        W18600  28.487   9.127  12.029
48001W        W18601  36.823   3.324   4.652
48002W        W18602   2.734  24.217   1.861
48003W        W18603  15.803   8.639   1.505
48004W        W18604   9.243  37.567  10.221
48005W        W18605   6.375  28.510  12.462
48006W        W18606  38.837  29.555  10.764
48007W        W18607  22.974  43.151   0.004
48008W        W18608  13.124  39.553   1.050
48009W        W18609   8.169   8.287   0.401
48010W        W18610  43.855  39.517  12.490
48011W        W18611  41.578  22.156   0.886
48012W        W18612  38.510  13.292   3.805
48013W        W18613  42.993  32.865   0.747
48014W        W18614  21.052  32.199  13.870
48015W        W18615   4.821  35.982   4.168
48016W        W18616  24.204   9.817   2.561
48017W        W18617  28.678  39.428   4.616
48018W        W18618  32.922  34.856  12.034
48019W        W18619   7.922  39.538  10.448
48020W        W18620  19.212  30.569  12.520
48021W        W18621  22.677   6.465   4.367
48022W        W18622   4.947  14.815   4.163
48023W        W18623  12.451  15.312  14.407
48024W        W18624   5.136  29.023  10.680
48025W        W18625  34.676  13.827  13.527
48026W        W18626  15.812  35.605   2.496
48027W        W18627  33.027  38.440   0.759
48028W        W18628  41.374  16.002  10.967
48029W        W18629  16.046   9.656   0.857
48030W        W18630  14.203  20.163  11.756
48031W        W18631  30.058  42.296   4.259
48032W        W18632  30.266  10.311   0.836
48033W        W18633   7.720  18.376   3.658
48034W        W18634  39.427   3.561   4.655
48035W        W18635  19.590  12.629  11.655
48036W        W18636   4.336  34.942   0.020
48037W        W18637  34.541  36.524  12.398
48038W        W18638  34.023  43.562  11.185
48039W        W18639  14.724  34.201  12.119
48040W        W18640  36.025  13.358  13.480
48041W        W18641  43.844  32.671   1.750
48042W        W18642  34.959  41.956   2.317
48043W        W18643   1.756  35.488   3.286
48044W        W18644  15.024  15.693   0.286
48045W        W18645   3.368   7.879   1.804
48046W        W18646   4.231  43.818  10.569
48047W        W18647   7.336   5.805   4.708
48048W        W18648   8.914  34.005   2.912
48049W        W18649  21.608  13.296  12.838
48050W        W18650  23.487  30.786   5.000
48051W        W18651   5.437   5.894   3.827
48052W        W18652  33.124  32.657  11.029
48053W        W18653   7.011  26.770   0.340
48054W        W18654  38.921  36.319  11.164
48055W        W18655   5.360  33.890  13.086
48056W        W18656  27.136   6.515   2.770
48057W        W18657  17.747  17.205  10.984
48058W        W18658  35.037  19.133  14.757
48059W        W18659  40.869  16.510  12.587
48060W        W18660  41.490  17.636   2.295
48061W        W18661  44.975  26.655  11.192
48062W        W18662  30.040  14.489  14.218
48063W        W18663  23.090   4.773  12.736
48064W        W18664  36.481  44.112   0.669
48065W        W18665  25.266  39.168   0.687
48066W        W18666   1.663  13.351  11.026
48067W        W18667  25.114  31.692   3.203
48068W        W18668  43.364   3.938  10.147
48069W        W18669  18.536  41.710  12.535
48070W        W18670  29.416  24.978  11.041
48071W        W18671   1.638  13.047   5.059
48072W        W18672  30.637  15.760  10.671
48073W        W18673  38.155  26.529   4.196
48074W        W18674  23.729   9.703   3.228
48075W        W18675  25.701  40.468   3.342
48076W        W18676  17.689  34.281  14.110
48077W        W18677  17.719  25.518  13.367
48078W        W18678   4.814   2.925   0.438
48079W        W18679   8.839   9.432  12.974
48080W        W18680  33.063  17.238  11.112
48081W        W18681  15.560   3.441   3.791
48082W        W18682  37.638  36.746  10.913
48083W        W18683  15.838  12.584  10.704
48084W        W18684  38.797  17.614  11.490
48085W        W18685  12.440  31.360   0.792
48086W        W18686  25.555  27.674  11.807
48087W        W18687   8.792  17.502  13.421
48088W        W18688  16.051   1.005   3.341
48089W        W18689   9.128  43.197  11.541
48090W        W18690  20.488   4.483  11.424
48091W        W18691   4.473  38.869  13.129
48092W        W18692  14.388  14.499  12.056
48093W        W18693  40.031  44.669   3.715
48094W        W18694  37.960  15.134   2.829
48095W        W18695  19.163   0.750  10.760
48096W        W18696  11.881  31.994  13.372
48097W        W18697  10.626  25.052  13.423
48098W        W18698  25.218   0.509   1.639
48099W        W18699   4.077   5.883   4.569
48100W        W18700  38.214  29.660   0.288
48101W        W18701  10.336  12.095  14.695
48102W        W18702  20.731  19.059  12.711
48103W        W18703  22.091  35.331   1.186
48104W        W18704  30.260   7.382   2.378
48105W        W18705  23.696  14.601  11.602
48106W        W18706   6.906  11.114  12.705
48107W        W18707  15.677   2.002   3.215
48108W        W18708  23.308  36.217   3.427
48109W        W18709  35.311  43.337   3.149
48110W        W18710   6.225  38.299  11.631
48111W        W18711  17.992   0.417  11.763
48112W        W18712   4.158  39.504  13.009
48113W        W18713  34.908  27.505  14.789
48114W        W18714  26.640  25.671  11.313
48115W        W18715  38.040  22.471  10.615
48116W        W18716  37.378   6.014   4.245
48117W        W18717  21.642  31.855  13.053
48118W        W18718  25.178  38.933  14.037
48119W        W18719  10.731  22.230   0.803
48120W        W18720  36.315  27.053  10.386
48121W        W18721  26.973  11.348   4.650
48122W        W18722  25.507  21.677   2.892
48123W        W18723  27.110  27.749  10.863
48124W        W18724   0.943  36.495   4.073
48125W        W18725   8.956  41.992   4.808
48126W        W18726   3.858  28.737  14.350
48127W        W18727  12.689   3.177  14.771
48128W        W18728  43.462  33.108   1.456
48129W        W18729   3.278   0.706   3.131
48130W        W18730  23.302  40.806  13.014
48131W        W18731  28.753  42.577  13.612
48132W        W18732   2.883  17.835   4.947
48133W        W18733   7.841  11.343   2.653
48134W        W18734   3.859  39.875  14.836
48135W        W18735   5.244  43.940  10.532
48136W        W18736   9.151   5.905  11.623
48137W        W18737  11.114  30.894   2.859
48138W        W18738  31.343  25.190  12.980
48139W        W18739  11.271  41.525   2.772
48140W        W18740  24.738  35.475  13.269
48141W        W18741   8.926  16.680  14.304
48142W        W18742   7.752  43.352   1.829
48143W        W18743  26.077   9.487   4.914
48144W        W18744  17.303  29.816   3.318
48145W        W18745   8.923   1.873   4.077
48146W        W18746  42.898  35.592  11.565
48147W        W18747  38.890  11.882   3.760
48148W        W18748  18.832  32.524  12.529
48149W        W18749  18.431   4.943   1.755
48150W        W18750  25.567  32.449  13.980
48151W        W18751  20.647   7.438  10.606
48152W        W18752   4.814  40.306  10.286
48153W        W18753  21.582  43.724   1.694
48154W        W18754   0.978   2.885  13.268
48155W        W18755  35.122  10.478  13.399
48156W        W18756  11.183  36.516   2.738
48157W        W18757  14.858  41.560  13.281
48158W        W18758  38.134   6.172  14.402
48159W        W18759  39.071  44.243  12.979
48160W        W18760   7.944  31.151  11.525
48161W        W18761  44.807   8.153  14.261
48162W        W18762  39.547  23.223   2.013
48163W        W18763  15.019  10.472   4.148
48164W        W18764  16.594  29.382   1.156
48165W        W18765  38.931  27.169  14.072
48166W        W18766  25.103  20.947  14.774
48167W        W18767  27.686  29.982  13.386
48168W        W18768  10.606  37.160  12.629
48169W        W18769  17.778  43.420  11.375
48170W        W18770   6.730   0.960  12.124
48171W        W18771  27.037   6.171  10.443
48172W        W18772  41.297  31.845   0.889
48173W        W18773  13.719  39.527  10.899
48174W        W18774  27.468   4.921   0.834
48175W        W18775  11.990   6.313   0.660
48176W        W18776  12.540   1.378  13.526
48177W        W18777  21.254  25.418   3.891
48178W        W18778  37.972  35.641   4.102
48179W        W18779  36.858  15.737   2.841
48180W        W18780   7.997  30.686  12.743
48181W        W18781  28.736  37.530   3.226
48182W        W18782   7.912  29.962   3.554
48183W        W18783  42.444  14.620   2.383
48184W        W18784  34.662  16.078  12.463
48185W        W18785  37.421  42.103  13.021
48186W        W18786  14.094  21.055   4.848
48187W        W18787  31.574   3.302   4.480
48188W        W18788  40.044  11.764   1.921
48189W        W18789  44.330  13.661   2.345
48190W        W18790  11.883  42.788  10.612
48191W        W18791  26.729  32.387  14.553
48192W        W18792  37.611  33.917   4.943
48193W        W18793  24.382  24.167   1.719
48194W        W18794   2.389  11.743   4.328
48195W        W18795  23.799  38.336   4.600
48196W        W18796  18.034  22.651   3.131
48197W        W18797   7.861  15.601  12.211
48198W        W18798   4.675  10.357   0.811
48199W        W18799  13.636  21.221  12.164
48200W        W18800   2.155  37.913  12.652
48201W        W18801  41.705  39.256  13.473
48202W        W18802  35.330   2.035  14.493
48203W        W18803  43.276  23.968   4.423
48204W        W18804  38.492   2.668   1.003
48205W        W18805   6.804  15.878   0.799
48206W        W18806  29.158  41.889   0.183
48207W        W18807  28.128  22.120  10.631
48208W        W18808  30.666  38.810   0.876
48209W        W18809  22.782  10.655  13.789
48210W        W18810  32.562  20.585  13.092
48211W        W18811  39.395  11.706  10.130
48212W        W18812  43.435   1.348  13.891
48213W        W18813  24.816  38.776  14.870
48214W        W18814  36.349  25.340   2.346
48215W        W18815  32.101  43.429   2.727
48216W        W18816  24.790  24.434   0.838
48217W        W18817  35.618  22.562  10.943
48218W        W18818  28.388   9.861   3.587
48219W        W18819  18.686  19.748   4.770
48220W        W18820  29.747   1.730   3.594
48221W        W18821  41.769  13.115   4.910
48222W        W18822  32.623  22.133   3.366
48223W        W18823  43.959  42.585  13.944
48224W        W18824  18.504   6.968  11.906
48225W        W18825  14.559  25.238  10.856
48226W        W18826   5.275  35.745  14.260
48227W        W18827   0.629  24.461  12.591
48228W        W18828  35.976  12.836  13.478
48229W        W18829  36.611  19.485   3.397
48230W        W18830  18.624  43.744   2.672
48231W        W18831  42.427   8.833   0.197
48232W        W18832  31.119   4.641  14.563
48233W        W18833  18.275   8.589   0.861
48234W        W18834   8.918  29.838  12.028
48235W        W18835   9.700  10.260  14.351
48236W        W18836   7.241   1.738   3.119
48237W        W18837   0.965   5.407  13.818
48238W        W18838  18.278  42.403  11.882
48239W        W18839  28.772   1.563   2.083
48240W        W18840  23.566   6.535  12.571
48241W        W18841  43.339  35.835   0.767
48242W        W18842  12.234  31.020  10.555
48243W        W18843  28.153  27.611   4.711
48244W        W18844  15.270  21.964  11.135
48245W        W18845  36.698  14.128   0.470
48246W        W18846  23.544  28.972  10.594
48247W        W18847   9.259  11.589   2.314
48248W        W18848  36.917  33.109   0.068
48249W        W18849  44.610  29.498  11.686
48250W        W18850  34.557   8.244  11.134
48251W        W18851   7.375  12.898   4.908
48252W        W18852  13.271  44.336  14.914
48253W        W18853  20.245   9.129  12.877
48254W        W18854   8.155  14.277  11.052
48255W        W18855  31.640  31.578   4.099
48256W        W18856  26.680  39.592   2.946
48257W        W18857  18.595   2.551  12.215
48258W        W18858  28.418  32.559   1.720
48259W        W18859  35.498  27.814   3.197
48260W        W18860  41.560   3.774  11.332
48261W        W18861  22.080  30.676   4.404
48262W        W18862  23.174  40.115   1.799
48263W        W18863  17.247  19.041   1.361
48264W        W18864  23.034  18.917   3.112
48265W        W18865   3.382  12.419  12.906
48266W        W18866  11.924  15.579  11.675
48267W        W18867   4.874  18.682  11.722
48268W        W18868  35.777  36.932  14.258
48269W        W18869  11.838  11.747  11.414
48270W        W18870  44.406  24.197  14.408
48271W        W18871  40.467   8.665  10.930
48272W        W18872  15.656  30.316   4.336
48273W        W18873  32.176  17.744   0.256
48274W        W18874  35.999  13.364   0.462
48275W        W18875  12.748  22.176   3.724
48276W        W18876   5.023   8.864   0.688
48277W        W18877  20.619  14.813  14.033
48278W        W18878   8.208  17.833   4.093
48279W        W18879   9.700   8.095  13.495
48280W        W18880   8.693  21.183   0.451
48281W        W18881  37.287  25.930   1.639
48282W        W18882   9.748  22.452  11.468
48283W        W18883  35.399   7.888   1.295
48284W        W18884  37.377  37.533   3.616
48285W        W18885  24.424  14.777   3.338
48286W        W18886  14.575  35.596  11.608
48287W        W18887  21.726  38.990  10.689
48288W        W18888   6.926  26.614   3.722
48289W        W18889  25.006   1.460   0.354
48290W        W18890  27.250  14.759   2.829
48291W        W18891  35.869  25.065  12.032
48292W        W18892  37.453  22.994  11.411
48293W        W18893   9.875  26.247  11.912
48294W        W18894  35.994  32.534  13.920
48295W        W18895  26.241  28.442  11.538
48296W        W18896  19.606  33.233  13.884
48297W        W18897  22.659  24.005  12.463
48298W        W18898  14.834  28.194   0.789
48299W        W18899  17.555  23.825   0.932
48300W        W18900  30.087  21.954   4.996
48301W        W18901  13.673   3.715  11.944
48302W        W18902  10.157  41.851   0.283
48303W        W18903   3.583  23.439   1.262
48304W        W18904  30.401  29.323  14.270
48305W        W18905   0.273   1.139  12.405
48306W        W18906   9.216  40.949   3.607
48307W        W18907  13.114  44.904  11.205
48308W        W18908   5.486  44.462   1.542
48309W        W18909   5.455  31.858  10.268
48310W        W18910  40.734  41.938   0.814
48311W        W18911  44.072  36.071  12.406
48312W        W18912  35.075  21.077   4.696
48313W        W18913  17.942  28.645  11.238
48314W        W18914  25.588  34.879   2.394
48315W        W18915  16.252  29.640   4.213
48316W        W18916  29.424  15.114   3.303
48317W        W18917  38.741  25.447   3.773
48318W        W18918  28.583  10.617  11.061
48319W        W18919   6.857   7.819  13.277
48320W        W18920  39.576  34.287  12.852
48321W        W18921  36.940   7.063  11.470
48322W        W18922  15.592   2.714  12.882
48323W        W18923  11.616   0.770   1.543
48324W        W18924   7.869   2.246  13.066
48325W        W18925  32.822  23.066   1.483
48326W        W18926  29.882   7.851  12.372
48327W        W18927  22.434  21.619  12.473
48328W        W18928   1.675  18.599   0.709
48329W        W18929  37.449  42.774  13.992
48330W        W18930  15.944  24.435   0.092
48331W        W18931  19.892  43.632  11.111
48332W        W18932  26.856  23.869  11.365
48333W        W18933   0.798  11.814   1.771
48334W        W18934  23.055  16.850   1.234
48335W        W18935  22.173   2.213  10.476
48336W        W18936  22.734  40.532   3.722
48337W        W18937  18.186   9.745  12.146
48338W        W18938   0.665   2.821   3.780
48339W        W18939  14.390   9.431  12.096
48340W        W18940  28.613   0.298  14.165
48341W        W18941   1.344  17.592  13.050
48342W        W18942   5.241  31.686  13.147
48343W        W18943   4.652  23.115   0.409
48344W        W18944   7.859  37.068  14.229
48345W        W18945  15.452  15.160  10.772
48346W        W18946  27.613  37.751  12.073
48347W        W18947  11.605  18.190   2.391
48348W        W18948  30.126   7.751   4.315
48349W        W18949  44.709   5.963   3.349
48350W        W18950  35.843  19.188  10.993
48351W        W18951  17.959  33.377  13.417
48352W        W18952  40.983  28.519   1.196
48353W        W18953  13.606   4.680   4.727
48354W        W18954  38.889  41.375   3.244
48355W        W18955  33.263  29.385  10.365
48356W        W18956   5.549  16.983  10.082
48357W        W18957  19.164  13.736  12.385
48358W        W18958   9.740  33.591  10.724
48359W        W18959   8.455  39.338   0.742
48360W        W18960  23.690  29.409   4.709
48361W        W18961  31.008  22.686  11.245
48362W        W18962   6.454  27.020   2.683
48363W        W18963  29.338  33.968  13.112
48364W        W18964   2.902   8.592   4.539
48365W        W18965  22.531  21.617   0.261
48366W        W18966  22.515  34.925  12.753
48367W        W18967  41.565   7.612  11.189
48368W        W18968  30.596   3.702   3.719
48369W        W18969  20.560  36.241   0.984
48370W        W18970  21.238   8.107  11.696
48371W        W18971  24.143  20.628   1.921
48372W        W18972  22.057  28.174  13.025
48373W        W18973  19.830  31.109   0.384
48374W        W18974  13.681   2.721   1.409
48375W        W18975  31.311  38.014  13.069
48376W        W18976  19.820  29.034   2.226
48377W        W18977  39.786  29.799  12.543
48378W        W18978  17.332   8.620   0.496
48379W        W18979  18.495   0.421   4.527
48380W        W18980  35.140  37.287  11.229
48381W        W18981  14.063   6.867   3.414
48382W        W18982   2.207  10.671   1.747
48383W        W18983   3.836  20.261  10.419
48384W        W18984  30.327  19.126   3.756
48385W        W18985   6.148   5.384   0.857
48386W        W18986   0.167  36.826   2.966
48387W        W18987  10.399  10.220   0.375
48388W        W18988  13.804  36.853   2.330
48389W        W18989   4.566  16.304  10.664
48390W        W18990  10.903  42.991  12.785
48391W        W18991  23.256  27.596   4.114
48392W        W18992  10.295   3.267   9.942
48393W        W18993  20.184  20.554  14.842
48394W        W18994  20.983   2.506  13.843
48395W        W18995  42.072  41.379   0.871
48396W        W18996  22.138  20.771  13.961
48397W        W18997  21.537  29.321  11.153
48398W        W18998   4.723  23.186   0.951
48399W        W18999  38.399  31.110   2.175
48400W        W19000  18.116  11.268  13.488
48401W        W19001  34.906  43.844   0.042
48402W        W19002  17.361  10.346   4.597
48403W        W19003  25.217  25.963   0.829
48404W        W19004  14.851  34.376  14.996
48405W        W19005  26.956  15.574  11.581
48406W        W19006  20.088  44.428  13.909
48407W        W19007  21.159  18.087   4.648
48408W        W19008  19.344  23.620   5.058
48409W        W19009  11.315  17.204   2.635
48410W        W19010  19.258   7.355  12.023
48411W        W19011   4.911  41.573   0.771
48412W        W19012  36.425  33.685   1.223
48413W        W19013   4.870   6.032   0.338
48414W        W19014   4.240  20.441   4.343
48415W        W19015  36.303  31.367  14.702
48416W        W19016  38.347  10.347  13.400
48417W        W19017  34.440  17.665  12.844
48418W        W19018   0.729  18.604  13.934
48419W        W19019  25.417  16.304  13.938
48420W        W19020  32.638  38.966   0.887
48421W        W19021  11.147  19.253  13.239
48422W        W19022  18.056  17.579  14.166
48423W        W19023   1.069  16.829  13.868
48424W        W19024  31.395   6.844  11.072
48425W        W19025  26.853   6.370  12.393
48426W        W19026  19.821  11.934  14.023
48427W        W19027   5.753  10.393   4.434
48428W        W19028  19.443  14.377  14.064
48429W        W19029  43.467  15.263  12.494
48430W        W19030  36.191  10.876  13.068
48431W        W19031  18.304  38.043   1.440
48432W        W19032  34.093  42.279  12.575
48433W        W19033  24.974  26.073   0.380
48434W        W19034  28.423  16.321   2.737
48435W        W19035  33.022  44.013   1.322
48436W        W19036   0.475  21.729  13.331
48437W        W19037  40.453  20.678  13.362
48438W        W19038   7.658   7.496   1.352
48439W        W19039  10.835  43.351   0.948
48440W        W19040  17.482  18.731  13.550
48441W        W19041   4.364  17.215   0.915
48442W        W19042  34.958  39.922   2.245
48443W        W19043   1.726  29.104  11.138
48444W        W19044  43.398  32.359   1.877
48445W        W19045  38.547  22.613  12.607
48446W        W19046  22.153  34.129  12.936
48447W        W19047  23.490  29.496  13.939
48448W        W19048  42.524   9.349   1.032
48449W        W19049  25.983   4.721  12.621
48450W        W19050  20.061  11.740   1.294
48451W        W19051   6.146  13.531  13.901
48452W        W19052  44.189  37.557   4.561
48453W        W19053   2.673  35.503  12.529
48454W        W19054   4.998  38.077  13.500
48455W        W19055  25.586  21.049  10.678
48456W        W19056  44.545  25.410   1.430
48457W        W19057  30.625  22.502  12.058
48458W        W19058  26.419  25.328   2.636
48459W        W19059  18.638   8.257  13.935
48460W        W19060   5.963  11.271  14.966
48461W        W19061  19.278  39.803   1.116
48462W        W19062   2.532  39.993  14.783
48463W        W19063  27.521  39.825  11.959
48464W        W19064   3.847  12.759   4.601
48465W        W19065  30.643  39.237  12.481
48466W        W19066   6.432  23.695  10.434
48467W        W19067   8.763   9.687   3.100
48468W        W19068  39.862  35.873  11.002
48469W        W19069  10.259  21.672  12.519
48470W        W19070  17.071   9.695  12.412
48471W        W19071  29.102  33.597   3.760
48472W        W19072  28.642  37.620   0.977
48473W        W19073  25.083  11.394  11.142
48474W        W19074  41.415  13.300  14.486
48475W        W19075   9.180  26.927   3.346
48476W        W19076  11.173  28.605   4.295
48477W        W19077   4.953  21.532   2.612
48478W        W19078  29.752  33.389   2.782
48479W        W19079  35.518  37.571  14.243
48480W        W19080   4.871  30.683   2.238
48481W        W19081  41.446  14.064   3.259
48482W        W19082  12.032  33.642   0.763
48483W        W19083   6.182   0.509  11.372
48484W        W19084  11.525  29.131  11.202
48485W        W19085   2.498  29.979   1.810
48486W        W19086  21.981   9.410  13.593
48487W        W19087  11.312  26.978  13.550
48488W        W19088  22.948  44.172  13.839
48489W        W19089  17.811  42.393   0.882
48490W        W19090  16.760  23.859   0.319
48491W        W19091  31.660   1.805   3.750
48492W        W19092  43.456   1.737  11.589
48493W        W19093  32.632   8.705   2.177
48494W        W19094  18.553   8.708  12.587
48495W        W19095  10.729  33.128   4.611
48496W        W19096  18.997   0.285   4.437
48497W        W19097   3.313  40.710   0.782
48498W        W19098  32.751  26.246   2.657
48499W        W19099  12.819  24.360   3.217
48500W        W19100  44.489   4.850  14.433
48501W        W19101  12.304  36.438   0.322
48502W        W19102  28.677  20.348  11.511
48503W        W19103  15.779   6.805  12.565
48504W        W19104  22.810  28.307  13.455
48505W        W19105   4.973  27.826   1.303
48506W        W19106  17.773  37.641   2.427
48507W        W19107  11.156  29.467   4.432
48508W        W19108  25.020   7.967   2.640
48509W        W19109  15.344  40.030   4.661
48510W        W19110  15.349  12.038   5.442
48511W        W19111   8.622   3.262  13.063
48512W        W19112   8.884  38.178  13.859
48513W        W19113  14.118   1.285  11.537
48514W        W19114  39.813  42.084  12.996
48515W        W19115  10.666  15.044  12.756
48516W        W19116   5.892   6.807  10.950
48517W        W19117  25.744  25.962   1.827
48518W        W19118   2.538  10.267  13.391
48519W        W19119  16.610  27.777  12.849
48520W        W19120  14.894  18.056   1.086
48521W        W19121  29.471  31.237   3.388
48522W        W19122   2.823  33.601   2.741
48523W        W19123  42.966  15.489   2.338
48524W        W19124  43.504   7.956   4.551
48525W        W19125  24.190  29.482   2.788
48526W        W19126  19.024  13.369   1.859
48527W        W19127  37.879  44.360  12.902
48528W        W19128  23.710  43.752   1.551
48529W        W19129  17.587  21.558  10.898
48530W        W19130  28.857  41.880  14.759
48531W        W19131  42.804  19.362   1.370
48532W        W19132  11.687  31.919  12.339
48533W        W19133  18.600   0.831   4.959
48534W        W19134  13.966  15.151  11.060
48535W        W19135   8.499  27.814   2.046
48536W        W19136  34.563  24.767  11.144
48537W        W19137  41.411  11.011   3.817
48538W        W19138  25.195  42.300  10.764
48539W        W19139  30.005  37.133  10.474
48540W        W19140  24.516  15.253   3.153
48541W        W19141  41.772  17.259   2.572
48542W        W19142  25.169  33.471  14.877
48543W        W19143  15.885   6.326  14.371
48544W        W19144   8.641  10.303  13.506
48545W        W19145  34.614  13.930   1.838
48546W        W19146   3.815  11.737  13.091
48547W        W19147  11.677   8.212  12.021
48548W        W19148   8.650  42.284  13.373
48549W        W19149  22.023  23.814  14.456
48550W        W19150  34.140   3.009   1.252
48551W        W19151  36.049  38.810   0.175
48552W        W19152  40.131  35.918  14.778
48553W        W19153  39.534   4.881   3.168
48554W        W19154  32.177   0.520  11.826
48555W        W19155  15.170   7.063   1.591
48556W        W19156  11.011  33.424  12.470
48557W        W19157  15.131   1.112   0.966
48558W        W19158  24.068  27.060  10.752
48559W        W19159  21.289  11.658   2.673
48560W        W19160  16.563  33.881  13.009
48561W        W19161  35.378  41.837  11.688
48562W        W19162  40.876  31.207   0.317
48563W        W19163  14.212  14.046   1.943
48564W        W19164  41.311  22.294   2.238
48565W        W19165  11.112   5.683   2.060
48566W        W19166  23.585   6.673  14.807
48567W        W19167  26.912   3.346  11.836
48568W        W19168  18.038  14.182   0.988
48569W        W19169   0.326  25.540  12.031
48570W        W19170  44.084  34.462   3.813
48571W        W19171  18.277  27.148  13.381
48572W        W19172  35.959  16.211   1.111
48573W        W19173   4.806  22.237  13.781
48574W        W19174   4.141   0.880  14.968
48575W        W19175   3.232  23.685  14.371
48576W        W19176  17.123  36.352   4.839
48577W        W19177  15.039   3.509   3.172
48578W        W19178  33.888  35.530   2.472
48579W        W19179  29.159   8.824   4.671
48580W        W19180  40.917  12.151  14.858
48581W        W19181  35.816   2.210  14.443
48582W        W19182   4.631   8.666  13.008
48583W        W19183  19.800  19.143   2.266
48584W        W19184  27.936  37.488   4.837
48585W        W19185  44.900  37.906  14.882
48586W        W19186  41.296  16.773   4.629
48587W        W19187  24.153  41.406   0.890
48588W        W19188  36.867  27.071  14.601
48589W        W19189  18.187  37.509   1.616
48590W        W19190  14.996  13.082   0.976
48591W        W19191  19.272  23.957   0.391
48592W        W19192  25.596  14.814  14.791
48593W        W19193  36.380  37.093   0.110
48594W        W19194  18.222  13.546  10.157
48595W        W19195  19.015  25.873  11.494
48596W        W19196   7.647  27.703   0.954
48597W        W19197  18.306  24.060  11.962
48598W        W19198   5.437   0.358  12.483
48599W        W19199  31.654   9.330  13.984
48600W        W19200  29.036   0.266   4.127
48601W        W19201  13.284  31.108   3.124
48602W        W19202  13.132  15.308  12.678
48603W        W19203  24.747   3.123   1.697
48604W        W19204   7.433  17.513  12.582
48605W        W19205  11.304  24.498  11.613
48606W        W19206  20.042  37.618   2.785
48607W        W19207  33.767   2.416  14.010
48608W        W19208   7.656   9.410  13.508
48609W        W19209   2.866  11.801   3.755
48610W        W19210  36.593  28.044  13.243
48611W        W19211  25.229  23.826   2.685
48612W        W19212   9.576  18.111  14.347
48613W        W19213  38.140  19.974   1.243
48614W        W19214  39.259  29.571  10.426
48615W        W19215  35.002   5.622  11.251
48616W        W19216  38.298   4.985  13.803
48617W        W19217  17.278  43.620   4.340
48618W        W19218   8.233  32.527   2.344
48619W        W19219  22.966  28.971   2.775
48620W        W19220  15.235   8.845   1.935
48621W        W19221  22.899  16.808  14.929
48622W        W19222   4.934   2.919   3.196
48623W        W19223  31.125  23.549   0.197
48624W        W19224  26.512  44.334  13.118
48625W        W19225  15.256   3.843   0.972
48626W        W19226   3.807  20.029   2.952
48627W        W19227  14.305  18.957  10.489
48628W        W19228  14.031  16.667  12.398
48629W        W19229   1.093  18.209   2.607
48630W        W19230   6.040  43.945  12.946
48631W        W19231  23.775   4.239   0.119
48632W        W19232   3.433  21.143  13.901
48633W        W19233   5.307  28.242   2.120
48634W        W19234  30.526  39.871  12.952
48635W        W19235   8.243  12.256   0.668
48636W        W19236  31.602  27.040  14.517
48637W        W19237  14.257  40.545  11.928
48638W        W19238  28.005  17.170  10.600
48639W        W19239  42.803   6.759   4.603
48640W        W19240  24.055   7.692  11.083
48641W        W19241  39.408  20.752   4.180
48642W        W19242  37.418  21.537  11.123
48643W        W19243  14.240  42.276   0.664
48644W        W19244   8.363   1.805  13.749
48645W        W19245  18.066  17.312   3.127
48646W        W19246  22.942   4.302   2.519
48647W        W19247  10.166  26.942   3.823
48648W        W19248  40.069  12.318  13.732
48649W        W19249  12.167  34.374  12.610
48650W        W19250   5.297  44.388   4.918
48651W        W19251  22.281  43.101  11.086
48652W        W19252  29.082   6.426  10.794
48653W        W19253  26.088  12.390  12.830
48654W        W19254  21.084   6.300  11.641
48655W        W19255  42.392  27.188  14.446
48656W        W19256  41.426  26.157   3.589
48657W        W19257  21.564  36.456  13.978
48658W        W19258  34.946  13.068  14.868
48659W        W19259  41.391  39.544   4.556
48660W        W19260   2.753   9.848  12.257
48661W        W19261  29.910  30.945  11.404
48662W        W19262   4.208  44.626  11.015
48663W        W19263  28.883  37.056   1.377
48664W        W19264   9.771  22.096   4.527
48665W        W19265  10.249  11.131  11.987
48666W        W19266  22.813  39.329  11.973
48667W        W19267  30.938  28.121   2.187
48668W        W19268   1.130   6.189   4.660
48669W        W19269  22.710   8.753  14.252
48670W        W19270  44.938  20.932   1.418
48671W        W19271  42.517   8.204  10.675
48672W        W19272   4.622  34.087  11.909
48673W        W19273  24.126  38.035   0.812
48674W        W19274  22.633  17.333   3.377
48675W        W19275   8.171   8.626  13.114
48676W        W19276  44.776  11.834  12.565
48677W        W19277  28.980  11.642   2.309
48678W        W19278   8.622  19.295  13.323
48679W        W19279  34.488  12.915   2.860
48680W        W19280   4.247  26.460   0.873
48681W        W19281  17.744   2.813  14.477
48682W        W19282  44.245  37.851   0.752
48683W        W19283   9.363  14.547   4.549
48684W        W19284  43.938  31.622  11.603
48685W        W19285  19.701  16.166  11.691
48686W        W19286  35.917  22.914   1.746
48687W        W19287  22.874   2.560  12.919
48688W        W19288  34.347   7.430  10.617
48689W        W19289  16.712   1.795  12.146
48690W        W19290  21.688  32.277   4.191
48691W        W19291  28.913  13.348   1.997
48692W        W19292  26.991  41.539   0.702
48693W        W19293  43.644  31.557  11.181
48694W        W19294   9.591  28.661   0.929
48695W        W19295  29.927  33.564   4.351
48696W        W19296  35.902  27.254   4.790
48697W        W19297  41.324  12.180  13.342
48698W        W19298   2.978   2.215  13.212
48699W        W19299  27.214  32.088  13.016
48700W        W19300  36.340  26.742  12.890
48701W        W19301   3.332  22.762  11.569
48702W        W19302   3.208  20.696   0.386
48703W        W19303  41.047  12.528   1.178
48704W        W19304  27.588  39.539   4.527
48705W        W19305  14.371  18.732   1.245
48706W        W19306  41.611  39.495  12.093
48707W        W19307  33.812  43.822   0.711
48708W        W19308   2.238  20.602   4.336
48709W        W19309  41.569  35.641  11.276
48710W        W19310  30.352  18.944   0.360
48711W        W19311  11.107  27.495  11.556
48712W        W19312  20.788  23.967   1.395
48713W        W19313  30.494   9.436   4.210
48714W        W19314  36.078  16.056   4.603
48715W        W19315   9.692  37.025   3.881
48716W        W19316  20.493  22.758  14.238
48717W        W19317  20.769  19.767   2.639
48718W        W19318   7.348  37.136   1.920
48719W        W19319  29.658   1.251  10.588
48720W        W19320  23.728  21.609   3.731
48721W        W19321  22.210  30.610  14.309
48722W        W19322   1.342  20.354   3.161
48723W        W19323   1.277  36.412  14.422
48724W        W19324  10.798  40.050   4.184
48725W        W19325  44.301  21.034  14.957
48726W        W19326  11.746   0.768   4.552
48727W        W19327   4.298   6.727   4.414
48728W        W19328  37.358  21.702  13.085
48729W        W19329   0.404  29.998   0.956
48730W        W19330  28.633   8.202  12.915
48731W        W19331   4.761  27.137   1.799
48732W        W19332  29.967  30.613  12.110
48733W        W19333   3.359  41.796  10.969
48734W        W19334  20.056   7.918   2.339
48735W        W19335   0.750  27.911   4.624
48736W        W19336  43.797  14.195   0.953
48737W        W19337  39.361  33.356   2.265
48738W        W19338  23.785  10.584  14.628
48739W        W19339  42.207  35.475   3.849
48740W        W19340  29.207   8.647   2.297
48741W        W19341  24.704  19.597  12.497
48742W        W19342  26.367  20.088  12.428
48743W        W19343  21.480  35.099  13.542
48744W        W19344  34.455  41.824   2.059
48745W        W19345  30.918  18.456  10.286
48746W        W19346  31.583  10.051  11.547
48747W        W19347  18.892   6.808   1.870
48748W        W19348   4.805  40.182   0.446
48749W        W19349  29.928   4.356  13.963
48750W        W19350  42.042   6.966  11.949
48751W        W19351  25.838   8.847  10.980
48752W        W19352   2.005   5.250  14.655
48753W        W19353   6.660  37.024  11.311
48754W        W19354  43.303  34.127  14.301
48755W        W19355  32.184   4.189  10.750
48756W        W19356  24.825  43.348  11.774
48757W        W19357  21.700  23.003   1.353
48758W        W19358  10.295  38.733   0.902
48759W        W19359  13.236  26.990   3.634
48760W        W19360  38.071  36.243   1.647
48761W        W19361  10.792   3.889  10.997
48762W        W19362  13.019  11.864   4.773
48763W        W19363  11.177  10.685   0.285
48764W        W19364  27.946  28.238  10.707
48765W        W19365  36.319  36.684  12.477
48766W        W19366  12.672  27.005   1.229
48767W        W19367  43.449   0.401   0.474
48768W        W19368  34.377  25.444   3.632
48769W        W19369   7.665  31.619   2.999
48770W        W19370  25.005   9.601  12.137
48771W        W19371  23.655  34.276  14.405
48772W        W19372  26.105   6.876  13.037
48773W        W19373  31.636  40.235   1.634
48774W        W19374  16.736  36.148  10.902
48775W        W19375  21.039  32.006   0.660
48776W        W19376  33.026  36.903  14.822
48777W        W19377  26.543  18.566   2.736
48778W        W19378  16.817  42.415  13.836
48779W        W19379  12.367  16.443   4.236
48780W        W19380   5.494  42.850  11.371
48781W        W19381  15.875   4.670  14.327
48782W        W19382  17.330  40.592   4.130
48783W        W19383  18.774  42.469  11.097
48784W        W19384   8.736  29.944   3.274
48785W        W19385  20.322  18.325  12.909
48786W        W19386  20.788  21.405   2.306
48787W        W19387  19.239  31.599  11.981
48788W        W19388   7.340  20.809   1.810
48789W        W19389  36.363  34.681  11.507
48790W        W19390  40.002  14.465  13.154
48791W        W19391  23.698  19.771   3.704
48792W        W19392   2.845  31.977  14.736
48793W        W19393  25.099   9.500  11.579
48794W        W19394   5.005  13.769  10.996
48795W        W19395   5.469  29.493   4.308
48796W        W19396   6.768  13.104  10.670
48797W        W19397  20.305   9.695  14.980
48798W        W19398  19.117   1.963  14.023
48799W        W19399  19.277  25.303   2.702
48800W        W19400  12.765  21.030   1.836
48801W        W19401   3.419  36.590   2.371
48802W        W19402  20.145   1.139  11.596
48803W        W19403  41.274  20.835   3.765
48804W        W19404  20.188  17.825   2.470
48805W        W19405  22.651  35.841   4.010
48806W        W19406  10.685  24.070  13.533
48807W        W19407   9.658  13.500  13.977
48808W        W19408   5.934  43.314  13.415
48809W        W19409  28.517  12.566   3.831
48810W        W19410  22.467   5.154  11.569
48811W        W19411   9.284  25.316   2.122
48812W        W19412  24.007   7.329   0.736
48813W        W19413  43.526   0.745   0.845
48814W        W19414   5.904  44.369   1.818
48815W        W19415  14.755  44.360   1.805
48816W        W19416  41.610   5.541  13.888
48817W        W19417  40.676  43.053   0.355
48818W        W19418  13.117  22.199   0.964
48819W        W19419   0.816  35.687  10.613
48820W        W19420  31.971  44.493  13.538
48821W        W19421   6.694  40.711   1.469
48822W        W19422   7.893  28.676   3.631
48823W        W19423   9.437   2.300  12.170
48824W        W19424  22.586  11.415   0.361
48825W        W19425  38.159  21.266  10.715
48826W        W19426  35.512  27.010   3.561
48827W        W19427   8.037  17.349  14.875
48828W        W19428  19.248  44.987  12.446
48829W        W19429   7.236   6.665   3.184
48830W        W19430   6.647  36.570  11.549
48831W        W19431   7.411   1.053  12.474
48832W        W19432  42.043  42.931   3.179
48833W        W19433  41.354  37.320   0.931
48834W        W19434  22.258  31.549   4.588
48835W        W19435   9.339   4.166   4.142
48836W        W19436   8.709  18.872  12.165
48837W        W19437  10.826  32.776  13.808
48838W        W19438   5.935  16.234  14.807
48839W        W19439  40.414  18.595  11.401
48840W        W19440  21.249   8.628  11.782
48841W        W19441  23.096  14.241  12.373
48842W        W19442  27.661  42.244   1.914
48843W        W19443  37.078  35.285  13.306
48844W        W19444  38.344  14.940  13.414
48845W        W19445   9.534  32.381   0.443
48846W        W19446  13.592  39.715   1.328
48847W        W19447  35.393  40.529  13.087
48848W        W19448  21.807  30.058   2.361
48849W        W19449  32.673  39.995   3.707
48850W        W19450   3.497  16.743   2.246
48851W        W19451   0.020  28.828   2.299
48852W        W19452   4.231  42.017  11.111
48853W        W19453  12.061  38.617   4.196
48854W        W19454   2.844  21.650  14.448
48855W        W19455  24.533   9.159  12.888
48856W        W19456  31.523  10.707  12.450
48857W        W19457  44.797   3.142   0.284
48858W        W19458  25.115  32.081  13.356
48859W        W19459   6.226  25.028  13.992
48860W        W19460   8.833   5.823   2.359
48861W        W19461  14.096   7.971   1.344
48862W        W19462  18.555  43.300   3.938
48863W        W19463  10.934  33.243  11.162
48864W        W19464  20.259  28.805   2.860
48865W        W19465  33.011  24.136   0.462
48866W        W19466   5.216  21.975   3.383
48867W        W19467  22.853  16.678   0.775
48868W        W19468  36.397   8.654  10.755
48869W        W19469  43.346  10.461   3.703
48870W        W19470  15.604  23.110   0.802
48871W        W19471   5.427  30.536  12.642
48872W        W19472  26.521   2.410   4.634
48873W        W19473  11.159  42.903  13.618
48874W        W19474  32.131  22.281  12.962
48875W        W19475  25.422   6.413  14.847
48876W        W19476  36.392   0.860   3.185
48877W        W19477  27.220  33.891  12.062
48878W        W19478   7.159  23.039  11.473
48879W        W19479   8.214  12.120  11.167
48880W        W19480  23.105  28.194   3.450
48881W        W19481   0.996  37.656   2.699
48882W        W19482  30.647  35.095   4.565
48883W        W19483  40.959  42.636   0.176
48884W        W19484   4.721  35.272  14.958
48885W        W19485   6.868  20.050   3.368
48886W        W19486   1.912   8.286  12.024
48887W        W19487  35.960  13.349   3.552
48888W        W19488  18.759  21.818  13.922
48889W        W19489  24.522  16.052   0.439
48890W        W19490  37.273  16.193  14.762
48891W        W19491  18.179   7.635   2.651
48892W        W19492  37.421  42.926   0.546
48893W        W19493  26.467  27.199  13.850
48894W        W19494  31.220   6.333   1.774
48895W        W19495   3.988  19.087  14.749
48896W        W19496  10.333  13.422   3.159
48897W        W19497  19.258  18.501  13.879
48898W        W19498  33.360  22.670  14.976
48899W        W19499  12.731   2.743   3.357
48900W        W19500  15.284   6.393   2.830
48901W        W19501  24.160   0.446  13.950
48902W        W19502  21.582   0.956   3.329
48903W        W19503   8.468  44.658  12.477
48904W        W19504  37.273  35.643  12.595
48905W        W19505  23.512   2.122   3.256
48906W        W19506  24.611  23.686   1.840
48907W        W19507  21.238  10.599  11.895
48908W        W19508  21.034   4.440   4.782
48909W        W19509   2.162  15.942  13.309
48910W        W19510  12.316  40.576   1.363
48911W        W19511  16.181  43.362   0.781
48912W        W19512   9.368  42.751   3.364
48913W        W19513  12.111   3.780  11.118
48914W        W19514  42.280  21.172   4.193
48915W        W19515  26.459  19.797  14.978
48916W        W19516  14.120  28.094   2.731
48917W        W19517  41.425   1.834   0.366
48918W        W19518  34.862   8.321   2.671
48919W        W19519  15.587  20.246   3.309
48920W        W19520  13.693  24.412   3.183
48921W        W19521  41.915   2.895   1.879
48922W        W19522  19.693  29.034   0.840
48923W        W19523  21.403   8.526  12.498
48924W        W19524  10.868   5.950  12.525
48925W        W19525  40.093  27.071   4.126
48926W        W19526   8.875   3.013   1.396
48927W        W19527  35.858  43.476  12.101
48928W        W19528  31.143   6.744  11.508
48929W        W19529  31.064   7.246  14.765
48930W        W19530   3.719   9.690  10.679
48931W        W19531  31.824  38.814  11.638
48932W        W19532   4.912  43.771  14.960
48933W        W19533  38.247  44.204   3.533
48934W        W19534  41.707   1.145   3.603
48935W        W19535   0.984  33.994   3.637
48936W        W19536  38.948  26.625  13.041
48937W        W19537  38.832  19.953  14.209
48938W        W19538  15.553  22.269  14.327
48939W        W19539  40.221  14.737   4.165
48940W        W19540  34.609  28.180  11.241
48941W        W19541  13.779  38.332   2.772
48942W        W19542   5.453  36.578   1.093
48943W        W19543  10.624  24.181  14.029
48944W        W19544   5.290   9.551  14.818
48945W        W19545  22.807   1.893   4.335
48946W        W19546  10.187  19.661  11.022
48947W        W19547  35.978  32.581  10.466
48948W        W19548   9.818  28.063   1.843
48949W        W19549  29.888  21.648  10.627
48950W        W19550  41.268  36.464  13.374
48951W        W19551  38.497   0.291  11.394
48952W        W19552  17.380  44.173  14.905
48953W        W19553  34.453  12.790  14.697
48954W        W19554   6.718  18.302   1.334
48955W        W19555  41.559  20.346   5.639
48956W        W19556   5.450  20.608  14.594
48957W        W19557   2.852  29.988   2.532
48958W        W19558  41.320  15.268   2.740
48959W        W19559   0.405   5.847   3.933
48960W        W19560  20.981  32.105   4.613
48961W        W19561  20.141  31.101  11.124
48962W        W19562  19.910   7.955  14.364
48963W        W19563  17.216   8.681   4.718
48964W        W19564  39.870  34.440  14.748
48965W        W19565  23.665   5.733  11.235
48966W        W19566   4.236   1.687   0.322
48967W        W19567  26.155  28.982  10.648
48968W        W19568  36.971   2.904  13.329
48969W        W19569  17.997  16.739   4.240
48970W        W19570  34.610  44.232  14.790
48971W        W19571  29.398   0.919   4.164
48972W        W19572   5.364   2.661   4.064
48973W        W19573  20.940  42.064   3.794
48974W        W19574  43.337   9.196   1.276
48975W        W19575  41.531   5.059  13.672
48976W        W19576  37.412  19.204  14.705
48977W        W19577  22.198  32.450   4.230
48978W        W19578   6.503  43.344  12.455
48979W        W19579  15.003  17.923  11.647
48980W        W19580  33.414  41.747  11.474
48981W        W19581   6.864  27.976  12.673
48982W        W19582  12.677  28.299  13.775
48983W        W19583  19.290  11.288  14.035
48984W        W19584  13.057  18.663  10.662
48985W        W19585  35.196  11.818  10.988
48986W        W19586  38.829   8.127   2.297
48987W        W19587  35.379  34.695  14.325
48988W        W19588  40.758  18.305  12.151
48989W        W19589  44.975  32.513  10.438
48990W        W19590  41.579   9.076  11.013
48991W        W19591   6.247  43.859  10.614
48992W        W19592  31.136  15.691   3.351
48993W        W19593  18.526  39.583  12.039
48994W        W19594   8.546  11.295   0.246
48995W        W19595   8.520  27.497   2.464
48996W        W19596  39.932  36.659  12.946
48997W        W19597  39.592  26.536  13.685
48998W        W19598  34.195  11.374   4.099
48999W        W19599  40.842  39.912  10.991
49000W        W19600  40.973   1.887   2.036
49001W        W19601  36.660   0.317  13.173
49002W        W19602   5.661  14.139  11.614
49003W        W19603  21.606   5.614   0.056
49004W        W19604  36.153  39.124   2.872
49005W        W19605   0.240  15.704   1.873
49006W        W19606  24.538   2.010  13.394
49007W        W19607  28.036  37.778   4.082
49008W        W19608  16.373  21.523   0.449
49009W        W19609  20.367  15.018  13.616
49010W        W19610  19.710   6.007  13.267
49011W        W19611  36.582  38.846  11.444
49012W        W19612  22.077   3.667  12.546
49013W        W19613  37.417  44.565   3.335
49014W        W19614  29.184  42.857   4.273
49015W        W19615  39.551  17.831  12.603
49016W        W19616  39.071  30.145   2.903
49017W        W19617  35.989  26.695   2.699
49018W        W19618  32.618  36.881  12.927
49019W        W19619   3.468  42.116  12.329
49020W        W19620  23.818  17.253  13.914
49021W        W19621  42.532  35.618   4.222
49022W        W19622  29.347  41.432   1.408
49023W        W19623  34.174  24.397  11.153
49024W        W19624  44.299  43.781  11.541
49025W        W19625  21.430  23.500  14.255
49026W        W19626  15.088   7.784  14.316
49027W        W19627  18.149   3.819   0.271
49028W        W19628  35.478  28.640  12.453
49029W        W19629   9.930  31.480   2.370
49030W        W19630  15.225  40.217   2.257
49031W        W19631  40.428  20.997   1.389
49032W        W19632  14.707  38.920   4.953
49033W        W19633  11.611  24.666  10.711
49034W        W19634  24.649  16.172  14.943
49035W        W19635  27.936  38.469  11.117
49036W        W19636  18.800  30.540  13.397
49037W        W19637  40.064  13.406   1.340
49038W        W19638  31.190   7.959  12.535
49039W        W19639  34.542  10.226  11.055
49040W        W19640  15.793  22.807   4.625
49041W        W19641   3.801  26.911   2.821
49042W        W19642   4.333  42.553  11.792
49043W        W19643   3.127  28.085  10.854
49044W        W19644  32.838   6.644   2.612
49045W        W19645  41.940  15.698  11.928
49046W        W19646   8.316   4.161   4.587
49047W        W19647  33.377  35.980  10.344
49048W        W19648  32.673  25.386   2.304
49049W        W19649   3.875  27.149  13.780
49050W        W19650  39.945  26.116  12.964
49051W        W19651   1.501  42.940  12.399
49052W        W19652  39.168   5.202  11.112
49053W        W19653   1.775  18.110  10.698
49054W        W19654  36.565  21.991   0.430
49055W        W19655   8.120  38.544  11.916
49056W        W19656  19.597  33.395  14.736
49057W        W19657  25.308   0.471  10.544
49058W        W19658  20.152   7.269  13.590
49059W        W19659  35.856  38.385  14.945
49060W        W19660   1.413  14.583  11.703
49061W        W19661  28.024   7.996  10.699
49062W        W19662   1.568  27.007  14.397
49063W        W19663  30.611  39.523  13.322
49064W        W19664  29.035  16.541  14.765
49065W        W19665  26.220  43.869   2.702
49066W        W19666   7.883  31.660  11.622
49067W        W19667  41.318  11.471  10.817
49068W        W19668  20.255  41.938  13.552
49069W        W19669  18.241  32.065   3.693
49070W        W19670  12.808  34.008  10.630
49071W        W19671   0.613  23.142   5.037
49072W        W19672  24.556  13.855   4.661
49073W        W19673  24.027  24.564  14.324
49074W        W19674  40.496  10.565  14.406
49075W        W19675  39.337  43.869  11.792
49076W        W19676  21.823  20.032  14.378
49077W        W19677  23.972  31.265   0.355
49078W        W19678  40.475  44.427   3.786
49079W        W19679   1.191   9.627  13.609
49080W        W19680   4.978   4.952   2.235
49081W        W19681  36.361  32.983   4.620
49082W        W19682  34.440  10.604   4.296
49083W        W19683  37.920   0.432  10.713
49084W        W19684  41.631  11.797   5.093
49085W        W19685  20.102  35.946   1.685
49086W        W19686  42.213  31.558  12.982
49087W        W19687   1.370  16.190   4.489
49088W        W19688  23.389  19.565   2.428
49089W        W19689  34.432  28.445   1.335
49090W        W19690   2.650  36.018   4.850
49091W        W19691  14.834  20.884   2.135
49092W        W19692  22.780  42.787  13.869
49093W        W19693  29.473  12.021  12.174
49094W        W19694   3.143  34.503  13.302
49095W        W19695   7.181  11.254   0.486
49096W        W19696  39.997  35.623  14.383
49097W        W19697   2.695  16.549   1.826
49098W        W19698  15.306  15.851   4.554
49099W        W19699  15.090  31.641   3.077
49100W        W19700  39.962  30.054  11.525
49101W        W19701  30.470  44.457   3.766
49102W        W19702  11.708  27.959  13.276
49103W        W19703   7.240  40.517   3.197
49104W        W19704  28.078  19.289  11.120
49105W        W19705  44.119  40.264  11.589
49106W        W19706  29.970  24.205   3.871
49107W        W19707   1.426  12.722  11.119
49108W        W19708  34.874   0.014  12.237
49109W        W19709  27.504  18.183  14.383
49110W        W19710  40.578  17.835  10.813
49111W        W19711  11.514  40.157  12.491
49112W        W19712  27.106   7.315  11.589
49113W        W19713  38.708  22.694  13.554
49114W        W19714  39.239  29.584   1.237
49115W        W19715  33.708  34.629   3.717
49116W        W19716  44.046   2.501   4.947
49117W        W19717  17.800  33.370   0.809
49118W        W19718   5.739  24.722   4.548
49119W        W19719  30.041   7.122  13.988
49120W        W19720  35.393  26.042  14.338
49121W        W19721   1.203  30.379  14.812
49122W        W19722   3.450  29.287  10.760
49123W        W19723   9.924  24.659  11.624
49124W        W19724   6.043   0.502   2.524
49125W        W19725  17.252  43.662  10.281
49126W        W19726   3.909   0.536   1.822
49127W        W19727  10.345  27.787  12.181
49128W        W19728  43.932  14.194  14.910
49129W        W19729  26.864  39.496  11.125
49130W        W19730  13.182  27.746  10.467
49131W        W19731   5.038  16.301  10.413
49132W        W19732  19.776  41.972  13.082
49133W        W19733  27.385  44.737   3.562
49134W        W19734  37.860   5.698   0.943
49135W        W19735   3.479  28.539  12.822
49136W        W19736  39.303   1.462   4.093
49137W        W19737  24.491   3.807   1.510
49138W        W19738  41.944  15.610   3.173
49139W        W19739  14.862   4.867  13.564
49140W        W19740   3.266  31.063  10.895
49141W        W19741   1.674   2.245  14.227
49142W        W19742  14.768  28.411   4.900
49143W        W19743  21.034  32.005  11.685
49144W        W19744  16.773  14.374   0.069
49145W        W19745  22.439   9.596  12.969
49146W        W19746  40.700  37.054  11.147
49147W        W19747  22.372  39.384   0.747
49148W        W19748  20.321  44.581  11.181
49149W        W19749  27.674  30.484   4.792
49150W        W19750  25.698  15.473  11.121
49151W        W19751  33.968   1.452  14.330
49152W        W19752  34.289  14.823   4.367
49153W        W19753  42.099  36.081  13.373
49154W        W19754   1.335  43.862  12.417
49155W        W19755  39.385  30.510   4.922
49156W        W19756  20.194  10.766   1.361
49157W        W19757  13.868   9.736   2.829
49158W        W19758   3.407  16.636   0.868
49159W        W19759  10.917  39.065   0.387
49160W        W19760  34.125  10.710  13.933
49161W        W19761  36.959   7.218  12.470
49162W        W19762  33.743  29.630   9.943
49163W        W19763  12.717  35.068  10.622
49164W        W19764  32.547  10.940  13.587
49165W        W19765  21.617  19.106  10.778
49166W        W19766  39.935  22.995  14.672
49167W        W19767  32.895  36.032   4.828
49168W        W19768  32.575  20.746   1.447
49169W        W19769   6.378  25.465  10.724
49170W        W19770  13.076  14.411  11.629
49171W        W19771  35.105  27.100  13.285
49172W        W19772   2.399  22.440   1.470
49173W        W19773   6.876  19.015   3.467
49174W        W19774  27.482  44.733   0.112
49175W        W19775  34.308  35.084   4.951
49176W        W19776  42.164  25.400  13.425
49177W        W19777  43.098  42.280   1.269
49178W        W19778   3.723  44.702   3.269
49179W        W19779  29.918   8.245   0.894
49180W        W19780  44.716   6.814   4.674
49181W        W19781  11.597  32.869   3.346
49182W        W19782   1.348  26.164   1.237
49183W        W19783  39.369  34.740   2.709
49184W        W19784  42.646   4.702   0.879
49185W        W19785  21.530  40.978  13.895
49186W        W19786  14.902  27.993  12.493
49187W        W19787  26.630  13.821   2.050
49188W        W19788  20.705   1.039  13.736
49189W        W19789  28.422  17.398  13.881
49190W        W19790   0.732  29.352  11.104
49191W        W19791  29.516  10.839   1.444
49192W        W19792  25.570  39.809  14.525
49193W        W19793  44.836  21.297   4.889
49194W        W19794   0.834  20.924  12.304
49195W        W19795  30.758  24.930   3.246
49196W        W19796   3.493  43.183  14.917
49197W        W19797  18.794  34.582   3.996
49198W        W19798  33.150  30.459  11.113
49199W        W19799  37.411  18.687   4.571
49200W        W19800  19.056  31.782   3.758
49201W        W19801  33.363  40.058  12.567
49202W        W19802  38.998   5.865   0.339
49203W        W19803  23.682  17.386  10.454
49204W        W19804  31.551  37.273   3.965
49205W        W19805  30.722  11.656  12.752
49206W        W19806   4.506  38.416  13.427
49207W        W19807  24.391  22.132   3.480
49208W        W19808   4.634   9.875   4.632
49209W        W19809  32.267   7.814   4.597
49210W        W19810  22.621  33.351  11.602
49211W        W19811  22.016  37.247   3.144
49212W        W19812  32.635   3.964   2.909
49213W        W19813  42.563   7.800  14.527
49214W        W19814  28.708  13.658   0.322
49215W        W19815  13.840  40.936   2.341
49216W        W19816  14.198  33.528   3.766
49217W        W19817  40.112  21.244   1.943
49218W        W19818  20.748   9.920   2.749
49219W        W19819  36.276  10.854   4.593
49220W        W19820   3.725  44.956   1.020
49221W        W19821  16.102  43.345  14.352
49222W        W19822  34.381  24.875   2.764
49223W        W19823  21.703  24.054   2.363
49224W        W19824  12.765  24.290  11.939
49225W        W19825  32.906  12.500   3.680
49226W        W19826  25.020   4.869  10.705
49227W        W19827  23.513  15.986   0.155
49228W        W19828  27.202  26.966   2.595
49229W        W19829  10.678  39.545  13.136
49230W        W19830  40.203  14.292   1.414
49231W        W19831  32.125  23.643   2.912
49232W        W19832  43.243  23.409  11.895
49233W        W19833  18.940   1.176  14.524
49234W        W19834  32.225  11.970  12.442
49235W        W19835  29.079  42.262  12.520
49236W        W19836   7.428  30.998   2.421
49237W        W19837  27.530  29.014  13.660
49238W        W19838   8.623  38.335  14.465
49239W        W19839  15.693  28.057   1.833
49240W        W19840  40.538   9.483   2.201
49241W        W19841  26.338  16.626   2.654
49242W        W19842  42.370  43.461   4.538
49243W        W19843  19.746   2.346  10.616
49244W        W19844  27.563   1.847   3.340
49245W        W19845  17.592  11.231   2.728
49246W        W19846  40.423   2.637  10.897
49247W        W19847  17.678  38.391   1.884
49248W        W19848  26.066  35.107  11.471
49249W        W19849  40.563  44.512   2.911
49250W        W19850  23.937  16.188  12.225
49251W        W19851   5.364  28.140  13.007
49252W        W19852   0.561  13.538  11.653
49253W        W19853  41.510  22.816  12.819
49254W        W19854  43.994  22.146   0.638
49255W        W19855   2.552  33.644  11.560
49256W        W19856   6.876  18.288  12.908
49257W        W19857  36.494   2.797   2.312
49258W        W19858   6.753  37.101   0.007
49259W        W19859  19.940  20.821  11.654
49260W        W19860   5.812  19.220   5.036
49261W        W19861  21.977   6.776  12.997
49262W        W19862  31.848   0.607   2.191
49263W        W19863  27.181  41.874   3.291
49264W        W19864  13.323  34.228   2.892
49265W        W19865  31.480  31.508   0.400
49266W        W19866  30.978  35.138  12.678
49267W        W19867  23.073  39.813   0.330
49268W        W19868  39.031  27.128  13.091
49269W        W19869   2.405  41.498  10.380
49270W        W19870   8.420  44.920   2.267
49271W        W19871  32.351  24.979  12.904
49272W        W19872  44.034   7.290   3.884
49273W        W19873  43.440  10.248   0.205
49274W        W19874  10.414   2.444  13.115
49275W        W19875   2.185   0.070  13.880
49276W        W19876   9.703  26.570  13.890
49277W        W19877  26.301  31.313   1.816
49278W        W19878  41.089  41.613   2.927
49279W        W19879   8.237  26.509  14.939
49280W        W19880  10.770  37.936  14.395
49281W        W19881  13.594  20.644   3.691
49282W        W19882  44.305  42.399  14.996
49283W        W19883   8.693  40.212   2.681
49284W        W19884  14.684  31.064   2.520
49285W        W19885  28.176  24.601  13.114
49286W        W19886  17.523  41.076   4.101
49287W        W19887   9.265   0.337   1.336
49288W        W19888  39.633  41.928  10.476
49289W        W19889  21.079  30.402   4.125
49290W        W19890  22.867   0.978   4.123
49291W        W19891   2.479  38.008  14.935
49292W        W19892  28.558  10.220  14.606
49293W        W19893   1.778  11.672   0.246
49294W        W19894  32.993  29.556  11.854
49295W        W19895  32.932   5.574  10.681
49296W        W19896  27.447   0.186  14.823
49297W        W19897  10.082  37.664   1.815
49298W        W19898  44.745  31.866  11.973
49299W        W19899   0.497   6.699  12.012
49300W        W19900  28.672  13.224   2.444
49301W        W19901   7.953   9.875  13.330
49302W        W19902  40.995  36.567  12.092
49303W        W19903   0.490  26.679  11.445
49304W        W19904  36.950  23.416   2.346
49305W        W19905  12.709  19.088  12.051
49306W        W19906  33.060  29.951  14.145
49307W        W19907  34.701   2.402  12.589
49308W        W19908  27.196  24.682   0.880
49309W        W19909  29.449  23.069   3.122
49310W        W19910   2.286  27.698   2.268
49311W        W19911  36.447  40.591   1.240
49312W        W19912  15.091  30.081  10.645
49313W        W19913  27.118  19.230   2.303
49314W        W19914  23.670  12.330   1.861
49315W        W19915  19.638  14.138   4.717
49316W        W19916  22.029  14.644  13.410
49317W        W19917   1.875   6.175  11.093
49318W        W19918   9.589  38.417   0.399
49319W        W19919  33.106  22.791   2.768
49320W        W19920   6.667   5.905   0.916
49321W        W19921  28.008   1.615   3.237
49322W        W19922  35.953  21.253   0.959
49323W        W19923  19.137   1.002  12.583
49324W        W19924   4.362  37.612  11.142
49325W        W19925  21.810  18.831   2.755
49326W        W19926   4.087   4.591  10.202
49327W        W19927   4.998  11.160  12.686
49328W        W19928  21.157  29.971  13.839
49329W        W19929   8.628  40.866  11.631
49330W        W19930   8.265  31.952  14.261
49331W        W19931  42.835   6.225   1.901
49332W        W19932  30.598  31.605  14.980
49333W        W19933  14.820  29.861  13.767
49334W        W19934  23.540   3.823   2.963
49335W        W19935   2.518  37.994   4.079
49336W        W19936   8.677  18.252   2.371
49337W        W19937  18.992   0.882   1.740
49338W        W19938  38.464  25.881  12.123
49339W        W19939   9.416  43.438  13.422
49340W        W19940  38.988   3.824  14.597
49341W        W19941   2.746   4.788   4.359
49342W        W19942  10.397  31.164  13.951
49343W        W19943   5.708  39.814  11.989
49344W        W19944  19.316   0.385   0.864
49345W        W19945  30.814  26.006  10.542
49346W        W19946   1.464  24.135   2.095
49347W        W19947  25.155  22.162  11.111
49348W        W19948  29.483  34.880  13.112
49349W        W19949   0.425  37.449   4.194
49350W        W19950  23.739  39.712   4.669
49351W        W19951  34.357  23.852   0.372
49352W        W19952  35.399  15.687  13.505
49353W        W19953  17.841   6.832   0.325
49354W        W19954  17.634  43.044  14.514
49355W        W19955   5.335  14.663  10.845
49356W        W19956  38.556  26.959   1.765
49357W        W19957   8.280  25.053  11.691
49358W        W19958  22.544  33.976  13.385
49359W        W19959  29.107  20.522  11.787
49360W        W19960   2.421  23.254   2.766
49361W        W19961   4.118  35.967  14.760
49362W        W19962   2.365  13.694  14.596
49363W        W19963  34.420   7.897  10.390
49364W        W19964  43.055  13.779  13.431
49365W        W19965   9.269  16.295  11.104
49366W        W19966  24.850  43.096   0.269
49367W        W19967   9.753  37.317   3.316
49368W        W19968  24.065  41.447   2.889
49369W        W19969  18.504  26.621   3.192
49370W        W19970   0.783   6.160   3.780
49371W        W19971  31.583  37.554   1.371
49372W        W19972  37.973  39.565  10.643
49373W        W19973  38.413  17.545   3.232
49374W        W19974  28.088  18.786   3.502
49375W        W19975  44.756  31.632  14.720
49376W        W19976  43.339  38.257  11.226
49377W        W19977  21.092  18.615   4.390
49378W        W19978  17.504  38.543  11.654
49379W        W19979   5.292  39.816  11.490
49380W        W19980  17.085  10.389   4.136
49381W        W19981   3.939  43.749  11.634
49382W        W19982   4.542   3.891  13.392
49383W        W19983  43.033   1.701  10.288
49384W        W19984  42.547  23.048  13.081
49385W        W19985  17.034   5.807  12.735
49386W        W19986  36.045  39.121  13.947
49387W        W19987  17.178  43.609   3.800
49388W        W19988  33.144  22.029  12.081
49389W        W19989  16.723  41.536  13.737
49390W        W19990   3.846  23.093  12.885
49391W        W19991   7.903  30.744  14.000
49392W        W19992  34.176  20.599  10.787
49393W        W19993  21.522  19.305  11.254
49394W        W19994  22.125  15.182   3.055
49395W        W19995  30.449   6.697  14.850
49396W        W19996  33.924  19.110  10.841
49397W        W19997  37.843  24.959   0.459
49398W        W19998  10.651  19.793   3.175
49399W        W19999  14.678  17.186  13.379
49400W        W20000   6.392  33.277  13.995
49401W        W20001   0.377  42.982   1.489
49402W        W20002   8.338  11.632   2.908
49403W        W20003  38.503   2.302  13.090
49404W        W20004  35.374  15.181  11.176
49405W        W20005  12.800  25.384   3.265
49406W        W20006  41.506  21.946   1.895
49407W        W20007  33.909  42.024  11.689
49408W        W20008  38.846  16.660  12.475
49409W        W20009   4.758  28.696  13.332
49410W        W20010   6.703  33.644  11.517
49411W        W20011  12.240  32.789   0.411
49412W        W20012   8.697  11.150   0.955
49413W        W20013  17.644  15.522   0.981
49414W        W20014  40.040  32.485  14.376
49415W        W20015  40.525  39.044  10.304
49416W        W20016  31.033   4.927   1.795
49417W        W20017  15.717  29.094   2.406
49418W        W20018  20.570  36.011   1.465
49419W        W20019   9.822  43.292   4.359
49420W        W20020  26.182   3.862  13.953
49421W        W20021  39.821  29.567  13.380
49422W        W20022  16.668  15.514   1.959
49423W        W20023  26.108  25.680  11.190
49424W        W20024  38.170  23.801  10.739
49425W        W20025   9.892  18.092  14.758
49426W        W20026   6.667   8.343  12.084
49427W        W20027  38.415  24.843  13.049
49428W        W20028  27.218  31.424   1.785
49429W        W20029  24.468  28.781   2.274
49430W        W20030   1.437  33.917  11.384
49431W        W20031  26.199   0.854  11.667
49432W        W20032  15.741  43.560  11.324
49433W        W20033  40.079  25.151  11.656
49434W        W20034   6.295  39.848   1.366
49435W        W20035  11.356  19.320  14.051
49436W        W20036  16.710  28.647   3.830
49437W        W20037   8.351  40.962  12.055
49438W        W20038   2.420  26.558   0.423
49439W        W20039   5.393  19.198  13.290
49440W        W20040  32.594  40.206   1.481
49441W        W20041  11.200  41.457   1.828
49442W        W20042  34.341  19.263   1.061
49443W        W20043   4.749  19.113   1.877
49444W        W20044  38.049  40.182  12.873
49445W        W20045   0.413  35.333  10.695
49446W        W20046  42.509   0.086   0.308
49447W        W20047  23.785  14.633   0.385
49448W        W20048  39.468  44.864  14.067
49449W        W20049  27.441  12.836   1.269
49450W        W20050  33.797  21.558   1.613
49451W        W20051   7.820  36.185   3.170
49452W        W20052   9.893   6.090  12.433
49453W        W20053  18.837  11.710  10.786
49454W        W20054  26.351  33.556  12.541
49455W        W20055  41.132  24.232  13.464
49456W        W20056  17.654  12.941  10.684
49457W        W20057  41.045  44.821   1.448
49458W        W20058   2.218   7.244   0.362
49459W        W20059  38.755  31.476   2.411
49460W        W20060   9.168  24.910  12.628
49461W        W20061   8.838  35.317   3.273
49462W        W20062  39.795  39.429   3.912
49463W        W20063  35.263  41.401   4.258
49464W        W20064  42.306  17.224  12.451
49465W        W20065   9.190  39.889  10.615
49466W        W20066   8.855  17.532   1.275
49467W        W20067  41.405   7.278   0.103
49468W        W20068  17.950   0.426  14.129
49469W        W20069   1.018  31.183   1.870
49470W        W20070  40.286  35.674  13.330
49471W        W20071  42.451  33.636  14.317
49472W        W20072  30.034   5.482  11.345
49473W        W20073  21.061  15.498  12.681
49474W        W20074   1.495  31.939   3.702
49475W        W20075  20.594   2.008  11.658
49476W        W20076   9.239  21.110   2.278
49477W        W20077   5.150  34.467  12.052
49478W        W20078  35.272  26.677   1.226
49479W        W20079  41.813  24.958   0.211
49480W        W20080  17.232  43.317   2.909
49481W        W20081  29.738  25.212  11.944
49482W        W20082  11.402  10.834   3.290
49483W        W20083  40.441   4.908   3.001
49484W        W20084  26.496   7.265  14.344
49485W        W20085  21.960  39.038   5.074
49486W        W20086   4.297   8.722   1.521
49487W        W20087  36.873  11.103   3.416
49488W        W20088  10.134   9.567  10.681
49489W        W20089  44.691  44.383  14.464
49490W        W20090  26.285   6.089  11.579
49491W        W20091  29.471  28.990  14.406
49492W        W20092   1.516  14.023   1.960
49493W        W20093   3.510  12.100   3.938
49494W        W20094  30.083  21.196  12.651
49495W        W20095  42.249   2.108   1.865
49496W        W20096  41.529  32.587   2.451
49497W        W20097  15.687   1.399  13.277
49498W        W20098  13.075   9.844   3.336
49499W        W20099  41.346  30.578   0.420
49500W        W20100  31.520  20.532   2.263
49501W        W20101  40.939  25.621   4.686
49502W        W20102   5.214   5.462   3.636
49503W        W20103   3.856   8.764   4.152
49504W        W20104  20.329  40.602   4.049
49505W        W20105  33.600  41.807   1.373
49506W        W20106  44.403  14.758   3.072
49507W        W20107   1.917   2.062   2.896
49508W        W20108  20.792   6.879   3.384
49509W        W20109  18.162  37.322   3.706
49510W        W20110   1.071   2.215  12.821
49511W        W20111   0.017  19.661  11.682
49512W        W20112   5.846   1.979   2.412
49513W        W20113  30.233  20.205  12.642
49514W        W20114  28.489  32.089  11.830
49515W        W20115  16.796  22.320   4.641
49516W        W20116  10.875  38.992  14.106
49517W        W20117  39.770   0.316  14.487
49518W        W20118  36.030  13.967  10.767
49519W        W20119   9.265   9.361  12.552
49520W        W20120  41.179  18.794  14.038
49521W        W20121  27.586  42.562   2.355
49522W        W20122  27.169  13.360  11.091
49523W        W20123  33.095  15.125  13.883
49524W        W20124   4.989   1.819   3.140
49525W        W20125  16.543  16.618   0.770
49526W        W20126  36.593   5.289  11.825
49527W        W20127  19.136  13.258   1.290
49528W        W20128   0.436  29.376   1.771
49529W        W20129  14.967  11.219   2.378
49530W        W20130  22.540  44.836   3.640
49531W        W20131  44.217  38.008  12.487
49532W        W20132   4.679  19.470  10.635
49533W        W20133  27.811  24.609   1.970
49534W        W20134  43.188   0.798  12.415
49535W        W20135  12.284  40.861  12.488
49536W        W20136  16.983  31.955   4.561
49537W        W20137  38.481   6.210  11.688
49538W        W20138  28.551  15.374   0.263
49539W        W20139  38.299   6.935   1.403
49540W        W20140  23.141  35.066   2.277
49541W        W20141  30.647  24.737  12.879
49542W        W20142   4.335  37.353  13.550
49543W        W20143  32.524   5.791   3.279
49544W        W20144  32.621  21.563  13.552
49545W        W20145  26.114  43.101  12.348
49546W        W20146  43.780  12.705  13.897
49547W        W20147  23.599  43.828   0.283
49548W        W20148   9.428  11.757  11.513
49549W        W20149  11.017  41.617  10.194
49550W        W20150  42.967   9.374   4.271
49551W        W20151   9.082  14.854   3.210
49552W        W20152   8.423  13.339  11.927
49553W        W20153  16.922  16.289  10.892
49554W        W20154  11.727   8.138   3.992
49555W        W20155  18.608   2.973   0.417
49556W        W20156   8.855  16.222   0.973
49557W        W20157  36.056  38.639   3.203
49558W        W20158   4.158  24.868  12.495
49559W        W20159   6.236  43.013   2.344
49560W        W20160  14.132  13.355   0.997
49561W        W20161  39.097   7.696   3.271
49562W        W20162  37.527   9.834   1.101
49563W        W20163  28.622  33.198   2.667
49564W        W20164  38.145   3.780  10.199
49565W        W20165   1.549  18.174  14.936
49566W        W20166  42.529  40.559  10.581
49567W        W20167   3.792  38.709   2.172
49568W        W20168   0.293  11.596   1.806
49569W        W20169  24.073  20.583   2.889
49570W        W20170   3.918  15.704  14.877
49571W        W20171   0.021  24.128   0.450
49572W        W20172  34.409   7.238   4.159
49573W        W20173  28.981  22.821  14.914
49574W        W20174  27.833  19.058   2.726
49575W        W20175  37.536  41.878  10.756
49576W        W20176  18.270  16.725   0.694
49577W        W20177  25.568  37.567  12.490
49578W        W20178   1.960  44.053   1.310
49579W        W20179  26.049  25.043  14.083
49580W        W20180  44.400   8.390  12.084
49581W        W20181   3.473  16.075   1.796
49582W        W20182  36.087  34.585   4.110
49583W        W20183   4.770  32.234  11.555
49584W        W20184   9.369  31.592   4.121
49585W        W20185  30.359   6.275  11.645
49586W        W20186  13.813  19.704  13.331
49587W        W20187  28.890   2.387   3.177
49588W        W20188   1.473  10.211   2.432
49589W        W20189  37.884  29.476  12.368
49590W        W20190   6.663  27.225  11.122
49591W        W20191  14.812  37.538  14.117
49592W        W20192  16.221  22.231   3.961
49593W        W20193   3.387   0.909  12.716
49594W        W20194  18.533  32.081  12.560
49595W        W20195   3.036  35.151   4.489
49596W        W20196   4.068  32.896  14.775
49597W        W20197  35.507  32.799   2.431
49598W        W20198  16.328  28.704  11.623
49599W        W20199  30.904  16.622   0.811
49600W        W20200  38.513  22.263  13.762
49601W        W20201  27.764  13.194   0.758
49602W        W20202   1.664  26.302   0.379
49603W        W20203   1.890  12.921  12.038
49604W        W20204  40.401  12.507  11.017
49605W        W20205   5.823   4.873  12.205
49606W        W20206  29.080  38.150   2.732
49607W        W20207   7.733  25.023  12.940
49608W        W20208  18.636   0.032   4.136
49609W        W20209  13.490  30.831   2.247
49610W        W20210  17.675  37.166  10.106
49611W        W20211  25.444  39.396  12.987
49612W        W20212  28.582  20.677  14.477
49613W        W20213   6.793   2.917  12.510
49614W        W20214  36.257  37.462   1.926
49615W        W20215  40.530  27.650   2.304
49616W        W20216   7.319  40.399   4.565
49617W        W20217  16.870  18.723   0.720
49618W        W20218  18.442  35.025   0.257
49619W        W20219  24.643   6.310  13.351
49620W        W20220  35.317  38.988   0.745
49621W        W20221   3.790  28.869   2.970
49622W        W20222  20.792  27.959  14.842
49623W        W20223  31.847  19.004   4.716
49624W        W20224  28.754   2.829   3.386
49625W        W20225  11.794  42.258  11.447
49626W        W20226  19.602  18.636   0.898
49627W        W20227   5.660  13.596   0.322
49628W        W20228   5.124  42.774   2.333
49629W        W20229  24.042   6.985   1.938
49630W        W20230  18.231  34.017  10.734
49631W        W20231  40.992  36.451   2.620
49632W        W20232   9.844  14.794   2.683
49633W        W20233  23.478  15.712   3.841
49634W        W20234  27.480  43.174  12.102
49635W        W20235   9.139  19.385   5.033
49636W        W20236  10.512  39.581  13.627
49637W        W20237  33.512   0.327   0.622
49638W        W20238  17.071  38.838   3.801
49639W        W20239   6.239  18.333   3.201
49640W        W20240   5.698  17.993  14.005
49641W        W20241  35.958  35.943  11.140
49642W        W20242   0.795  24.741  14.511
49643W        W20243  36.817  38.077   4.518
49644W        W20244  12.411   7.650  12.544
49645W        W20245  30.168  22.701  13.094
49646W        W20246  31.551  37.196  13.854
49647W        W20247  34.039  15.345   2.326
49648W        W20248  24.453  21.656  12.268
49649W        W20249   2.760  18.869  13.476
49650W        W20250  18.562  11.770   3.411
49651W        W20251   0.262  23.341   3.112
49652W        W20252  22.977  42.086  12.150
49653W        W20253  41.114   2.855  12.439
49654W        W20254  33.558   5.252   2.731
49655W        W20255   7.299  21.619  11.215
49656W        W20256   2.200  41.860   4.542
49657W        W20257   5.892  25.993   0.462
49658W        W20258   9.804  21.555   0.830
49659W        W20259  35.125  39.294   1.661
49660W        W20260  42.272  25.762  12.445
49661W        W20261  12.896  36.016   4.679
49662W        W20262  21.234  23.570   2.709
49663W        W20263   8.257   6.137  14.490
49664W        W20264  23.690   1.845  14.790
49665W        W20265   5.931  17.823   2.644
49666W        W20266  14.308  31.984   2.693
49667W        W20267   8.159   9.396  13.530
49668W        W20268   5.787   6.823  13.576
49669W        W20269  10.367  32.950   4.986
49670W        W20270  22.198  21.448  10.712
49671W        W20271   2.306  30.736  12.505
49672W        W20272  13.375   1.407  11.986
49673W        W20273  22.464  35.897  10.324
49674W        W20274  10.814  29.356  10.755
49675W        W20275   6.894   7.940   2.923
49676W        W20276  28.008  26.960   2.345
49677W        W20277  16.940  28.444  13.721
49678W        W20278  22.956  18.781   1.864
49679W        W20279  25.346  43.191   0.361
49680W        W20280  35.367  19.051   3.794
49681W        W20281  32.850  28.514   4.191
49682W        W20282  28.115  35.075   3.677
49683W        W20283  38.027  18.655   0.453
49684W        W20284   1.450  10.135   0.835
49685W        W20285  22.444   9.054   4.592
49686W        W20286  11.871  19.895   1.766
49687W        W20287  43.288  29.083   4.725
49688W        W20288  15.049  34.130  14.567
49689W        W20289  24.906  40.386  12.149
49690W        W20290  20.159   6.477   4.617
49691W        W20291  43.912  39.930   3.727
49692W        W20292  30.920  21.521  14.932
49693W        W20293  35.364  19.080   2.908
49694W        W20294  40.380  19.073  13.494
49695W        W20295  28.024  18.822   0.403
49696W        W20296  44.421  35.583  10.548
49697W        W20297  30.014  18.568   3.828
49698W        W20298   2.892   8.788  10.629
49699W        W20299   0.538  16.351  13.322
49700W        W20300   2.453   9.208   0.351
49701W        W20301  16.509   2.317   1.760
49702W        W20302  24.674   4.226  10.750
49703W        W20303  43.484  38.513  12.542
49704W        W20304  29.120  36.020   1.038
49705W        W20305   7.186  23.809  12.486
49706W        W20306   9.305  27.472   0.205
49707W        W20307  26.127  44.498  12.255
49708W        W20308   1.753  24.412   4.173
49709W        W20309   4.739  16.883   4.561
49710W        W20310  33.647  23.891  12.408
49711W        W20311  25.485   3.336   0.015
49712W        W20312  33.977  38.856  14.761
49713W        W20313  20.038   8.960   0.444
49714W        W20314  13.731  12.013   3.889
49715W        W20315  36.390  25.291   4.151
49716W        W20316   8.209  36.473  11.110
49717W        W20317  29.559   3.895  14.458
49718W        W20318  31.302  30.479   1.003
49719W        W20319  40.092  34.775   2.225
49720W        W20320  38.162  26.898  11.603
49721W        W20321  10.265  29.961   4.250
49722W        W20322  34.894  32.551  14.296
49723W        W20323  39.357  26.776   2.298
49724W        W20324  23.833  20.992  11.174
49725W        W20325  25.143  12.358  13.021
49726W        W20326  22.464  36.526   4.481
49727W        W20327  27.045   3.824   4.833
49728W        W20328  24.335  19.313  13.511
49729W        W20329   7.356  18.728  12.509
49730W        W20330  37.035  15.233  12.917
49731W        W20331  39.421  25.652  11.928
49732W        W20332  17.790  34.091  14.655
49733W        W20333   9.256  23.939  12.498
49734W        W20334  32.928   1.504   1.689
49735W        W20335   9.300  40.920   4.115
49736W        W20336   1.749  11.309  14.449
49737W        W20337   4.259  33.009   3.240
49738W        W20338  23.309  23.651   0.610
49739W        W20339   0.258   1.814  13.025
49740W        W20340  22.698   4.337   1.703
49741W        W20341  31.497   4.941   1.179
49742W        W20342  22.607  25.671  14.457
49743W        W20343  35.840   5.692  13.894
49744W        W20344  13.340  23.583  14.965
49745W        W20345  10.379  14.781   2.724
49746W        W20346  31.042   6.610  13.804
49747W        W20347  34.405  21.796   0.196
49748W        W20348  22.906  26.770   3.615
49749W        W20349   8.922  14.198   2.199
49750W        W20350  41.920  34.330   0.390
49751W        W20351  33.270  36.628  13.496
49752W        W20352  44.866  18.570  10.705
49753W        W20353  12.425  40.395   4.125
49754W        W20354  23.548  37.306   3.282
49755W        W20355  12.290  36.346  10.657
49756W        W20356  29.892   5.360  13.528
49757W        W20357  13.244  36.727  11.496
49758W        W20358  38.097  19.253  11.496
49759W        W20359  20.976  10.117  13.883
49760W        W20360  34.421  25.265   3.128
49761W        W20361  13.201  34.321   4.299
49762W        W20362  38.894   0.986  13.517
49763W        W20363  12.244   9.583  14.758
49764W        W20364   9.847  38.383  13.536
49765W        W20365  39.769  27.721  11.152
49766W        W20366  43.908  11.121  14.280
49767W        W20367  35.818  44.490  12.995
49768W        W20368  17.352  11.301  11.667
49769W        W20369  31.950  28.093   0.345
49770W        W20370  29.944  21.339   1.407
49771W        W20371  44.595  16.089  13.363
49772W        W20372  21.552  35.468  12.232
49773W        W20373  16.058  36.826   1.767
49774W        W20374  18.852  14.008  14.944
49775W        W20375  37.649  17.436   1.273
49776W        W20376  43.732  27.936  14.412
49777W        W20377  12.843  24.590  14.785
49778W        W20378  35.085  24.115  13.551
49779W        W20379  15.694   9.236  14.229
49780W        W20380   6.315  40.464  13.786
49781W        W20381  24.015  41.933   4.699
49782W        W20382  14.388  31.560   1.735
49783W        W20383  33.411  11.255  13.851
49784W        W20384  20.315  26.550  11.511
49785W        W20385  28.294  16.934  11.063
49786W        W20386  27.007  42.030  12.419
49787W        W20387  36.202  26.448  14.372
49788W        W20388  14.290  41.475  12.473
49789W        W20389  11.692  39.872   0.441
49790W        W20390  35.488  29.299   5.035
49791W        W20391  35.050  10.655   1.672
49792W        W20392  17.405   9.511   4.207
49793W        W20393   1.828  21.111  14.075
49794W        W20394  14.298  15.689   1.043
49795W        W20395  34.688  30.017   0.892
49796W        W20396  36.946  20.946  10.084
49797W        W20397  28.748  34.004  11.808
49798W        W20398  25.806  17.585  11.019
49799W        W20399   8.067  27.418   0.835
49800W        W20400   0.029  12.669   0.236
49801W        W20401  26.483   8.764  14.294
49802W        W20402  18.050   5.827  12.772
49803W        W20403   1.961  16.281  14.386
49804W        W20404  44.553  44.506  11.160
49805W        W20405   6.905  21.052   0.201
49806W        W20406   7.149  44.333  14.964
49807W        W20407  22.194  13.492   3.650
49808W        W20408  37.880  34.835   3.603
49809W        W20409  20.287  10.572  12.149
49810W        W20410  23.731  40.786   1.821
49811W        W20411   0.842  39.789  11.963
49812W        W20412  19.195  40.896   2.105
49813W        W20413  29.521  30.643  14.959
49814W        W20414   9.868  33.499   4.433
49815W        W20415  20.836  17.559   4.643
49816W        W20416  44.257  15.634  12.408
49817W        W20417   3.368  15.017   3.196
49818W        W20418  16.606  23.220   0.746
49819W        W20419  23.300  10.650   1.228
49820W        W20420  25.253  33.827   4.353
49821W        W20421  36.973  25.934   1.205
49822W        W20422   5.721  28.921  14.386
49823W        W20423   7.088  21.171   2.799
49824W        W20424  29.186  21.182  11.637
49825W        W20425  30.313  19.044   2.780
49826W        W20426  26.351  39.072  10.422
49827W        W20427  38.931  42.480   1.247
49828W        W20428  16.123  21.713   0.028
49829W        W20429   6.654   4.288  11.439
49830W        W20430  16.170  44.690  12.120
49831W        W20431  22.184   7.630  13.402
49832W        W20432  19.355  41.980   0.972
49833W        W20433  41.097  37.919  11.396
49834W        W20434  15.301   3.452  13.738
49835W        W20435  30.035  11.376   4.604
49836W        W20436  42.003   3.308  14.967
49837W        W20437   1.835  22.009  11.505
49838W        W20438  41.773  32.856  13.004
49839W        W20439  15.028  29.664   2.321
49840W        W20440   9.910  18.005  10.594
49841W        W20441  41.841  31.167   1.742
49842W        W20442  21.560  38.430   1.975
49843W        W20443   7.634   7.805   0.907
49844W        W20444  34.122  44.813  13.577
49845W        W20445  43.038  40.979   2.366
49846W        W20446  42.830  32.994  10.306
49847W        W20447  38.003  33.301   1.586
49848W        W20448   7.636   1.916   1.868
49849W        W20449  33.351  19.990   3.972
49850W        W20450   7.319  24.507  11.532
49851W        W20451  26.037  17.113  10.941
49852W        W20452  33.988  22.235   2.738
49853W        W20453  18.737  14.457   4.146
49854W        W20454  32.567   9.676   0.733
49855W        W20455  12.308   4.887   0.291
49856W        W20456  15.594   7.594   1.686
49857W        W20457  40.120  27.789  12.798
49858W        W20458  17.577  29.046  12.106
49859W        W20459  22.957  30.921  12.998
49860W        W20460   4.527  21.292  13.360
49861W        W20461  37.368  28.436  13.556
49862W        W20462  31.141  37.337  13.416
49863W        W20463  20.007   4.746   3.161
49864W        W20464   7.330  14.780  14.524
49865W        W20465  26.434  17.348  14.983
49866W        W20466   6.678  20.570   3.339
49867W        W20467  22.453  29.891   0.213
49868W        W20468   5.506  18.266   0.934
49869W        W20469  14.683  36.120   4.516
49870W        W20470  27.655  28.133   0.732
49871W        W20471   8.280  41.451  12.138
49872W        W20472  32.206  35.084   1.817
49873W        W20473  14.141  32.157   3.180
49874W        W20474  30.136   7.655  11.397
49875W        W20475  24.702  11.063   0.418
49876W        W20476   9.409  43.829  12.896
49877W        W20477  28.472  30.630  14.913
49878W        W20478  14.604  35.441   1.002
49879W        W20479  15.261  31.179   0.381
49880W        W20480   4.560  41.828  14.391
49881W        W20481  13.595  14.708   2.100
49882W        W20482  30.061  10.186  13.031
49883W        W20483  32.275  44.117  11.524
49884W        W20484   0.318   9.076  13.401
49885W        W20485  32.305  35.991   0.734
49886W        W20486  39.492  40.527  13.509
49887W        W20487  24.833  26.601  11.235
49888W        W20488  43.545  18.217   2.894
49889W        W20489  44.234  27.814  11.149
49890W        W20490  22.753  20.708   3.668
49891W        W20491  18.958  21.723   3.604
49892W        W20492  19.693   7.515  14.487
49893W        W20493  24.155  10.177   4.499
49894W        W20494  21.015  33.080  13.806
49895W        W20495  28.453  30.166   3.742
49896W        W20496   9.469  20.143   2.219
49897W        W20497  39.847  23.223  11.563
49898W        W20498  30.671   4.763  11.426
49899W        W20499   8.181   5.393   1.733
49900W        W20500  22.966  42.350  11.181
49901W        W20501   5.295  29.160  13.023
49902W        W20502  24.257  35.835  12.551
49903W        W20503   5.947  22.112   1.767
49904W        W20504  27.629  23.502   2.313
49905W        W20505   7.878  14.099   3.229
49906W        W20506  37.679  22.646   0.820
49907W        W20507   6.292  10.859   1.974
49908W        W20508  44.771  39.504   4.069
49909W        W20509   5.388  16.642  12.288
49910W        W20510  36.366  41.932  13.823
49911W        W20511   8.969  22.566  11.056
49912W        W20512  19.583  37.899   0.869
49913W        W20513  12.663  42.988   0.917
49914W        W20514   3.302  29.091   1.190
49915W        W20515  10.465  14.895  14.390
49916W        W20516  25.996  34.679  12.973
49917W        W20517  22.840  43.018  11.655
49918W        W20518   0.886  14.775   3.621
49919W        W20519   9.324  17.405  12.841
49920W        W20520  12.077  19.268   4.082
49921W        W20521  12.283  27.583   4.289
49922W        W20522  20.639   0.955  14.249
49923W        W20523  42.453  13.415  12.066
49924W        W20524   2.424   6.276  11.891
49925W        W20525  30.818   9.918  12.412
49926W        W20526  16.133  25.649  14.481
49927W        W20527   8.285   6.318  12.727
49928W        W20528  34.434   4.794   2.217
49929W        W20529  12.073  16.598  11.674
49930W        W20530  28.608   3.352   0.302
49931W        W20531  36.422   3.037  11.567
49932W        W20532  34.251  26.501   4.916
49933W        W20533  10.257   7.979   0.302
49934W        W20534  25.639  42.353  12.583
49935W        W20535  23.675  20.146   0.817
49936W        W20536  40.779   8.631   0.422
49937W        W20537   2.604  28.071  13.466
49938W        W20538  30.832   6.821  14.519
49939W        W20539  19.590  34.016   2.475
49940W        W20540  26.599  28.496   4.552
49941W        W20541   4.594  11.292  12.393
49942W        W20542  16.847  13.760   3.699
49943W        W20543  44.161  26.142   4.063
49944W        W20544  22.592  39.029  10.702
49945W        W20545  34.510  32.216   0.458
49946W        W20546  18.398  28.963  13.925
49947W        W20547  37.955  39.848  14.572
49948W        W20548  30.879  14.135   4.643
49949W        W20549  37.129  40.326   0.349
49950W        W20550   8.567  16.078  11.503
49951W        W20551  10.597   9.324   1.883
49952W        W20552  14.496  18.083  11.602
49953W        W20553  35.199  29.933   0.983
49954W        W20554  23.126   3.467  12.523
49955W        W20555  27.434  28.191  10.760
49956W        W20556  39.292  39.303   3.985
49957W        W20557   7.846  18.843  11.256
49958W        W20558  41.240  19.808  14.931
49959W        W20559  17.669  23.303   2.253
49960W        W20560  11.528   1.250   1.763
49961W        W20561   7.655  42.395  14.832
49962W        W20562  10.563  41.851   1.230
49963W        W20563  18.709  13.219  13.051
49964W        W20564  13.545  44.971   3.999
49965W        W20565  41.443  24.977   1.915
49966W        W20566   8.957  21.138  12.487
49967W        W20567  11.160   5.679  13.925
49968W        W20568   4.190  37.715  12.540
49969W        W20569  41.783  13.299   1.897
49970W        W20570  27.751  23.593   3.329
49971W        W20571  24.471  24.976   0.872
49972W        W20572  18.303  31.536  11.642
49973W        W20573  19.767  40.096  12.368
49974W        W20574  41.268  21.203  11.992
49975W        W20575  30.457  10.204  11.161
49976W        W20576  42.372  24.483  13.819
49977W        W20577  42.286  41.754  13.004
49978W        W20578  12.747  10.756   2.694
49979W        W20579  38.051  27.925   1.777
49980W        W20580   7.393  13.112  13.628
49981W        W20581  37.832  41.764  13.004
49982W        W20582  36.817  36.101   3.767
49983W        W20583   0.436  15.503  11.550
49984W        W20584   4.131   1.373   4.604
49985W        W20585  23.282  20.146  14.421
49986W        W20586   0.860  31.864   4.560
49987W        W20587   2.187  18.722  14.479
49988W        W20588  25.197   7.746   3.477
49989W        W20589  22.875  12.288  10.202
49990W        W20590  16.183  37.052   4.599
49991W        W20591  43.990  42.984   0.716
49992W        W20592  40.417  30.842  13.319
49993W        W20593  18.225  20.931   4.609
49994W        W20594  15.132  23.655  11.448
49995W        W20595  26.354  21.012   2.781
49996W        W20596  30.940  38.412  11.094
49997W        W20597  32.932  34.878  13.965
49998W        W20598  21.546  41.386  11.945
49999W        W20599  27.654  20.867  12.823
50000W        W20600   6.198  33.578  11.408
50001W        W20601  33.814  31.676  13.561
50002W        W20602   9.687   8.956   2.265
50003W        W20603  23.058  20.201  12.503
50004W        W20604  35.118   0.762   1.529
50005W        W20605  17.572  23.742   3.227
50006W        W20606  29.431  12.205  13.194
50007W        W20607  39.580  19.181   4.011
50008W        W20608  37.253  26.216  10.198
50009W        W20609   0.835  17.712  12.968
50010W        W20610  32.868  29.359   1.398
50011W        W20611  42.507  29.108   4.166
50012W        W20612   8.830  40.675   0.105
50013W        W20613  29.163   1.782  14.855
50014W        W20614  16.564  30.136  14.309
50015W        W20615  43.355   9.710   4.157
50016W        W20616  10.143  15.403  12.870
50017W        W20617  43.405   8.185   0.990
50018W        W20618  12.818  20.520  14.778
50019W        W20619  38.430   3.701  13.319
50020W        W20620  17.139  22.666  14.698
50021W        W20621  35.726  33.418   3.300
50022W        W20622  16.814  28.063   1.005
50023W        W20623  16.039   3.903  11.597
50024W        W20624  40.778   2.369   5.209
50025W        W20625  41.507  41.477   4.037
50026W        W20626  18.702  44.216   2.262
50027W        W20627   6.950  22.388   2.350
50028W        W20628  35.581  14.750   4.540
50029W        W20629  24.123  14.881  12.030
50030W        W20630  30.715   0.889   3.770
50031W        W20631   9.604  22.365   1.595
50032W        W20632  30.867   7.300  13.449
50033W        W20633   2.652  28.701   0.302
50034W        W20634   7.477   4.781   3.722
50035W        W20635  21.346  34.587   2.791
50036W        W20636  11.198  16.864   1.442
50037W        W20637  25.631  23.626   4.064
50038W        W20638  33.660  29.932   2.906
50039W        W20639  13.218   0.389   1.510
50040W        W20640  20.841  15.593   1.152
50041W        W20641   9.057  35.537  12.877
50042W        W20642  34.520   2.900  11.085
50043W        W20643  36.591  23.796  11.517
50044W        W20644  20.718  12.710   1.912
50045W        W20645  28.526  12.211   0.184
50046W        W20646  39.350  23.512   3.776
50047W        W20647  21.979   6.620   4.562
50048W        W20648  32.490  41.922  12.852
50049W        W20649  42.601   2.105  13.095
50050W        W20650  24.260  40.002  11.220
50051W        W20651  25.201  44.297   0.887
50052W        W20652  40.587   2.118  12.232
50053W        W20653  28.580  18.672   3.676
50054W        W20654  12.082  34.625  14.699
50055W        W20655  32.483  22.046   0.701
50056W        W20656  35.505   4.161  13.021
50057W        W20657  35.772  41.995  11.999
50058W        W20658  41.972  43.464   4.219
50059W        W20659  23.188  32.436  12.376
50060W        W20660  36.034  43.774  12.484
50061W        W20661   4.345  39.628  10.654
50062W        W20662  23.538  34.553  12.050
50063W        W20663  21.265  40.397   4.082
50064W        W20664   7.862  27.205  10.676
50065W        W20665  23.526   1.350   4.028
50066W        W20666  41.768   3.267  10.224
50067W        W20667   7.739  14.615  11.563
50068W        W20668  17.171  26.991  12.548
50069W        W20669  12.689   0.459  12.803
50070W        W20670  19.376  37.934   0.366
50071W        W20671   6.398  41.613  14.799
50072W        W20672   5.590  36.070  13.425
50073W        W20673   2.480  13.337   4.787
50074W        W20674   8.097  22.472  10.007
50075W        W20675   7.281  26.039   4.653
50076W        W20676  13.235   9.132  10.661
50077W        W20677  30.386  18.777  13.502
50078W        W20678  14.787   9.230   3.269
50079W        W20679  18.579  19.111  12.631
50080W        W20680  22.531  39.007   3.643
50081W        W20681  27.490  26.995  11.195
50082W        W20682  29.357  34.645   5.057
50083W        W20683  13.240   3.186   1.671
50084W        W20684  38.136  16.002   3.209
50085W        W20685  29.544  20.792  11.684
50086W        W20686  11.676   4.755  12.030
50087W        W20687  33.411  29.859   0.774
50088W        W20688   4.023  25.043   1.584
50089W        W20689  29.920   1.541   3.133
50090W        W20690  25.299  15.095  13.780
50091W        W20691  23.501  19.099  11.193
50092W        W20692  28.726  19.782  12.906
50093W        W20693  20.036  22.199  12.381
50094W        W20694  10.172  40.863   1.036
50095W        W20695  20.659  39.992   0.185
50096W        W20696  21.714  38.578  14.978
50097W        W20697  26.715  43.912  14.509
50098W        W20698  38.104  22.654  14.410
50099W        W20699  23.055   6.375   0.895
50100W        W20700  20.060  19.045  10.813
50101W        W20701  35.678  44.185  10.951
50102W        W20702   4.438  20.154  12.921
50103W        W20703   7.075  18.359   3.421
50104W        W20704  29.963  41.208  13.492
50105W        W20705  42.373  43.005   1.402
50106W        W20706  26.556   7.727   3.297
50107W        W20707  13.149  10.664  10.795
50108W        W20708  36.487  11.177  10.581
50109W        W20709  20.709  13.852  14.899
50110W        W20710  36.004  41.035   1.765
50111W        W20711  25.185  13.055  12.620
50112W        W20712  31.062  34.358   0.185
50113W        W20713  13.046  34.247  13.563
50114W        W20714  43.477  30.171   3.323
50115W        W20715   7.938  32.287  14.012
50116W        W20716  43.130  35.291  12.882
50117W        W20717  36.987  28.098   3.191
50118W        W20718  18.176  42.949   4.928
50119W        W20719  16.534  26.307  14.319
50120W        W20720  13.489   3.031   5.179
50121W        W20721   3.692  13.530   1.168
50122W        W20722  20.744   7.843   1.835
50123W        W20723   4.535  22.083   0.488
50124W        W20724  18.156  41.215  11.712
50125W        W20725   8.866   8.452   5.067
50126W        W20726   6.177  38.289   0.454
50127W        W20727  38.369   1.546   0.234
50128W        W20728  37.843  22.819  10.218
50129W        W20729  30.261  32.459   4.536
50130W        W20730   3.008  16.081   0.905
50131W        W20731  40.266  31.920   0.858
50132W        W20732  25.947  19.512   0.883
50133W        W20733  13.082  43.571   1.777
50134W        W20734  21.602  12.844   4.167
50135W        W20735   9.624   0.556  13.003
50136W        W20736   2.294  21.483  14.304
50137W        W20737  29.809  13.936   4.172
50138W        W20738  36.465  25.109  13.996
50139W        W20739  43.373  15.140   1.643
50140W        W20740  18.160  23.159   3.370
50141W        W20741   6.216  28.286  13.107
50142W        W20742  42.914  36.734   3.245
50143W        W20743  38.309  33.986   2.366
50144W        W20744  16.133  39.050   1.764
50145W        W20745  14.117  12.301  11.850
50146W        W20746  28.543  10.604  12.466
50147W        W20747  40.883   3.690  12.046
50148W        W20748   7.356  30.511   3.243
50149W        W20749   4.242   2.052  14.543
50150W        W20750  33.358  28.598   4.174
50151W        W20751  42.964   2.461  10.671
50152W        W20752  11.899  16.483  13.059
50153W        W20753  22.082  26.151  14.707
50154W        W20754  40.235  18.091  10.517
50155W        W20755   8.271  27.777   4.500
50156W        W20756  26.856  26.135   3.807
50157W        W20757  35.143  16.307  12.485
50158W        W20758  16.099  12.264  12.811
50159W        W20759  17.067  11.209   3.716
50160W        W20760   5.225   1.953   3.603
50161W        W20761  28.171  33.416  14.962
50162W        W20762  22.203  42.352   2.333
50163W        W20763  20.725  30.920  11.872
50164W        W20764  23.231  37.615  11.475
50165W        W20765  31.941  23.615  13.457
50166W        W20766  30.282  11.604  11.142
50167W        W20767  44.795  41.931   3.378
50168W        W20768  32.036  11.339  14.577
50169W        W20769  26.252   1.075   3.868
50170W        W20770  36.556  20.650   3.470
50171W        W20771   6.345  31.552   1.672
50172W        W20772  30.040   0.968   2.350
50173W        W20773  32.833   5.090   2.260
50174W        W20774   7.315  22.177  14.382
50175W        W20775  39.104  31.474  12.912
50176W        W20776  17.629  20.036  12.046
50177W        W20777  32.363   3.390  14.241
50178W        W20778  38.172  17.596  14.156
50179W        W20779   1.754   6.511   1.153
50180W        W20780  26.097  31.971   3.428
50181W        W20781  42.610  39.359  11.956
50182W        W20782   9.573  13.822   2.873
50183W        W20783   9.085  15.306  11.858
50184W        W20784  41.254  33.515   0.244
50185W        W20785   7.382  21.483  13.813
50186W        W20786  26.975  41.227  11.280
50187W        W20787  30.141  30.535  14.265
50188W        W20788  32.114  34.989  11.604
50189W        W20789  30.552   8.912   4.213
50190W        W20790   3.291  25.517  14.737
50191W        W20791  35.791  44.210  11.493
50192W        W20792  22.021  38.679  12.938
50193W        W20793  32.134  30.214   4.113
50194W        W20794  32.895   0.412  12.871
50195W        W20795  10.628   0.672  13.394
50196W        W20796  20.664  43.248  14.108
50197W        W20797  24.594   5.422   3.733
50198W        W20798  33.414  12.611  12.999
50199W        W20799  33.850   9.796  13.736
50200W        W20800   2.820  25.769  12.284
50201W        W20801  25.960  13.431  14.033
50202W        W20802  43.724   9.305  12.910
50203W        W20803  27.679  43.594  13.022
50204W        W20804  22.225  44.924  12.055
50205W        W20805   6.981   9.392   3.214
50206W        W20806  21.775  27.525   4.361
50207W        W20807  38.172  41.389   4.947
50208W        W20808   8.780  16.164   3.481
50209W        W20809   9.867  39.325  13.029
50210W        W20810  44.803  44.095  14.047
50211W        W20811  32.931  24.211   3.897
50212W        W20812  34.946  16.642   4.543
50213W        W20813  13.803  44.389  13.457
50214W        W20814  12.558  33.635  11.986
50215W        W20815   3.537  35.135   4.679
50216W        W20816  35.336  20.250   1.899
50217W        W20817  25.045  16.038  14.211
50218W        W20818  21.162  20.997  13.913
50219W        W20819   6.251  26.114  14.508
50220W        W20820   8.442  23.212  12.322
50221W        W20821  11.272  19.721   0.770
50222W        W20822   7.498  27.789   2.264
50223W        W20823  11.614   8.925  14.000
50224W        W20824   1.033  14.850  10.871
50225W        W20825  26.563  19.984  12.886
50226W        W20826  39.319  38.102   1.318
50227W        W20827   2.841  43.984   1.359
50228W        W20828   0.397  44.424  12.533
50229W        W20829  16.704  18.975  14.581
50230W        W20830  42.609  26.088   0.976
50231W        W20831  36.332   9.486   0.284
50232W        W20832   7.308   6.937   4.625
50233W        W20833  23.837  41.933   1.848
50234W        W20834  28.525  24.937  13.003
50235W        W20835   4.861   5.404  13.446
50236W        W20836  35.228  33.413   3.138
50237W        W20837  31.236  13.045  11.566
50238W        W20838  26.568  20.012   1.288
50239W        W20839  20.914  11.661  10.822
50240W        W20840  27.676  35.859  14.924
50241W        W20841  38.906  39.476   9.888
50242W        W20842  41.119  31.051   2.753
50243W        W20843  41.894   7.472   4.322
50244W        W20844  43.247   6.495   2.117
50245W        W20845   1.397   9.825  14.076
50246W        W20846  26.066  43.808   1.359
50247W        W20847  16.688  17.698   0.826
50248W        W20848  11.627  26.355  11.128
50249W        W20849   7.665  10.876   1.761
50250W        W20850  31.055   7.822   2.679
50251W        W20851  33.559  22.116   0.817
50252W        W20852  22.968  38.302   3.170
50253W        W20853  41.868  20.829   1.164
50254W        W20854  43.746  10.310   1.489
50255W        W20855  22.783  10.439  10.772
50256W        W20856   8.660  35.151  12.991
50257W        W20857  35.205  38.144  12.048
50258W        W20858  41.115   4.427  12.270
50259W        W20859   9.116  12.318  14.868
50260W        W20860  28.928  21.751   3.702
50261W        W20861  30.075  20.077   3.620
50262W        W20862  29.463  13.650   3.883
50263W        W20863  10.820  14.348  10.649
50264W        W20864   0.796  34.984  12.879
50265W        W20865  24.970   3.225   2.141
50266W        W20866   9.984  31.725   4.250
50267W        W20867  21.709  37.630   4.047
50268W        W20868  15.773  19.610   4.400
50269W        W20869  33.266   3.379   1.424
50270W        W20870  15.839  14.789   3.641
50271W        W20871  25.180  32.486   2.528
50272W        W20872  41.126  25.424   4.243
50273W        W20873  10.608  37.066   3.965
50274W        W20874   8.269   3.960   3.662
50275W        W20875  27.149   0.494   3.224
50276W        W20876   0.820  27.384   0.940
50277W        W20877  28.940  12.158  12.000
50278W        W20878   4.172  12.962  12.606
50279W        W20879  29.098  20.315   3.247
50280W        W20880  32.088  31.381  10.558
50281W        W20881  30.233  22.955  11.134
50282W        W20882  42.974   8.128   4.531
50283W        W20883  25.182  42.107   1.149
50284W        W20884  39.947   8.800   1.039
50285W        W20885   6.784  37.899  13.870
50286W        W20886  20.528  24.534  12.989
50287W        W20887   4.173  14.913  13.009
50288W        W20888   0.764   8.708  13.838
50289W        W20889   4.258  18.541  13.504
50290W        W20890  12.569   6.430  13.432
50291W        W20891  10.777  40.825  11.572
50292W        W20892  41.932   3.002   0.424
50293W        W20893  20.469  43.908  12.736
50294W        W20894  35.318  28.141  12.495
50295W        W20895  44.626  20.007  10.975
50296W        W20896  24.123  18.294  11.498
50297W        W20897   8.756   3.301   1.897
50298W        W20898  13.090  22.294  12.489
50299W        W20899  18.883  27.414  12.441
50300W        W20900  40.090  34.118   1.563
50301W        W20901  13.161  35.814   3.689
50302W        W20902  25.144  18.675   4.158
50303W        W20903  33.635  11.414   1.105
50304W        W20904  10.678  31.981  11.456
50305W        W20905  21.566  31.155  14.261
50306W        W20906  12.704  17.524   2.408
50307W        W20907  18.779   0.255   3.607
50308W        W20908   6.932   9.731  12.021
50309W        W20909  17.743  11.238  11.218
50310W        W20910  26.064  20.097   1.465
50311W        W20911  14.643  31.975   3.098
50312W        W20912   3.242  37.851   4.692
50313W        W20913  30.688  23.930  14.264
50314W        W20914  36.631  37.358  11.190
50315W        W20915  18.775  32.024   0.312
50316W        W20916  40.739   3.226  11.173
50317W        W20917  37.855  35.435  11.239
50318W        W20918  33.557  20.787  13.363
50319W        W20919  21.621  15.337   4.806
50320W        W20920  10.890  32.428  12.421
50321W        W20921  10.801  19.241  11.438
50322W        W20922  17.548   5.138   1.443
50323W        W20923  17.737  34.586  14.512
50324W        W20924  23.952  21.976  12.741
50325W        W20925  25.548   0.795  12.098
50326W        W20926  39.184   1.977   0.263
50327W        W20927  17.468  42.400  10.579
50328W        W20928   2.458  32.545  13.536
50329W        W20929   0.805  16.049  12.633
50330W        W20930  32.398   5.289   2.478
50331W        W20931  43.078   1.292  12.065
50332W        W20932  44.046  33.128  14.969
50333W        W20933  17.118  38.295  11.213
50334W        W20934   5.681  11.722   3.553
50335W        W20935  35.639   8.169   2.240
50336W        W20936  13.088  25.646   0.994
50337W        W20937  27.495  44.705  14.588
50338W        W20938  27.580   3.641   0.492
50339W        W20939  30.483   6.036  13.941
50340W        W20940  28.070  39.518  11.016
50341W        W20941  27.716  36.457   1.370
50342W        W20942  43.216   1.659   3.624
50343W        W20943   5.375  41.752  13.925
50344W        W20944   7.149   9.790   0.244
50345W        W20945  21.518  27.076   3.152
50346W        W20946  32.454  33.133   1.360
50347W        W20947  30.963  30.116  10.665
50348W        W20948  22.396  44.908   2.105
50349W        W20949  16.703  12.749   3.202
50350W        W20950  26.925  25.035  13.916
50351W        W20951  27.879  31.709   0.341
50352W        W20952  42.733  28.920   2.889
50353W        W20953  20.540  22.796  13.730
50354W        W20954  35.197   6.608  11.181
50355W        W20955   5.629   8.319  10.407
50356W        W20956  12.663  15.620   1.944
50357W        W20957  34.837   2.607   1.139
50358W        W20958  10.032  40.980   3.409
50359W        W20959   7.950  15.079  14.973
50360W        W20960  11.614  39.795   4.489
50361W        W20961  12.909   8.148  13.024
50362W        W20962  17.530  31.576   5.207
50363W        W20963   1.743   4.037  12.867
50364W        W20964  16.860  36.562   3.650
50365W        W20965  20.703  26.615  12.876
50366W        W20966  34.590   3.031  13.389
50367W        W20967  14.690  24.715  10.770
50368W        W20968  11.769  26.641   5.218
50369W        W20969  20.531  26.802   1.293
50370W        W20970  33.403  15.140  14.335
50371W        W20971  15.170  10.487  13.806
50372W        W20972  12.231   0.823  11.200
50373W        W20973   3.279  14.396  13.266
50374W        W20974   1.996  22.058   0.458
50375W        W20975  26.764  12.256   3.405
50376W        W20976  18.514  19.755   2.263
50377W        W20977  38.266  41.964   3.728
50378W        W20978  32.178  33.387  11.011
50379W        W20979   7.771  12.739   2.642
50380W        W20980  24.188   4.126   1.236
50381W        W20981  32.504  40.652   1.241
50382W        W20982   0.059   9.870   3.324
50383W        W20983  27.076  19.634  10.442
50384W        W20984  37.368  23.344   1.559
50385W        W20985   5.985   3.934   3.650
50386W        W20986   6.497  12.282  12.315
50387W        W20987   4.038  11.753   1.273
50388W        W20988   6.308  23.773   4.305
50389W        W20989  21.122  27.132   4.719
50390W        W20990   0.901   7.841   4.468
50391W        W20991  16.595   8.619   4.659
50392W        W20992  19.794  42.810   4.666
50393W        W20993  15.682  27.179  11.597
50394W        W20994  30.385   1.682   4.194
50395W        W20995  19.463   5.901  11.925
50396W        W20996  12.036   3.883   2.936
50397W        W20997   2.314  28.727  14.884
50398W        W20998  35.783  13.762  11.166
50399W        W20999  23.639  13.759   3.894
50400W        W21000  39.979   4.156   1.456
50401W        W21001  39.314  24.498  13.337
50402W        W21002  28.445  20.748  13.999
50403W        W21003  19.636  22.453   1.491
50404W        W21004   0.277  34.831  12.916
50405W        W21005  33.594  16.363   4.611
50406W        W21006  16.659  20.254   2.141
50407W        W21007  31.417  12.154  14.804
50408W        W21008  11.233  10.881  14.376
50409W        W21009  32.012   3.385   0.723
50410W        W21010   8.650  30.033  14.884
50411W        W21011  17.575  31.907   3.124
50412W        W21012   7.676  42.495   4.742
50413W        W21013  43.695   2.402  10.382
50414W        W21014  10.331  20.042  10.080
50415W        W21015   2.034   5.447  13.104
50416W        W21016  23.153   8.472  14.166
50417W        W21017  20.244  38.959   4.292
50418W        W21018  17.605   2.809   2.753
50419W        W21019  30.892  39.501   1.844
50420W        W21020  10.789  16.321   0.897
50421W        W21021  18.165  29.374   3.326
50422W        W21022  29.666  34.081  10.660
50423W        W21023  19.288  12.958   0.856
50424W        W21024   3.230  38.045  14.441
50425W        W21025  11.240   2.472   1.422
50426W        W21026   4.692   8.791   3.559
50427W        W21027  29.514  31.906  14.359
50428W        W21028  18.485  35.537   0.274
50429W        W21029  43.422   2.812  13.284
50430W        W21030  21.724  19.250   4.908
50431W        W21031  39.573  11.377  12.569
50432W        W21032  30.398  35.175  13.365
50433W        W21033  39.402  37.533  13.016
50434W        W21034  38.973  15.129   0.749
50435W        W21035  42.202  11.608  14.405
50436W        W21036  27.962  30.664  14.954
50437W        W21037  16.164  37.949  11.608
50438W        W21038  27.711  36.595  10.721
50439W        W21039  35.412  13.743   0.224
50440W        W21040  29.438  38.535   4.082
50441W        W21041  41.808  30.592   1.454
50442W        W21042   0.365  28.600   2.639
50443W        W21043  29.255  26.411   2.367
50444W        W21044  22.584  42.313  14.050
50445W        W21045  11.444  13.700   4.530
50446W        W21046  17.692  41.049   3.060
50447W        W21047  12.619  10.177  12.619
50448W        W21048  14.023  19.168  12.778
50449W        W21049  36.003   2.851  11.151
50450W        W21050   3.957  19.630  13.876
50451W        W21051  23.079  33.947   0.227
50452W        W21052  37.641  12.577  14.359
50453W        W21053   7.794  27.972   0.297
50454W        W21054  42.412  35.447  10.868
50455W        W21055  26.750  16.029  12.994
50456W        W21056  21.663  23.739  10.606
50457W        W21057  25.127  40.111  12.564
50458W        W21058  42.336  20.480  12.369
50459W        W21059   0.785   7.768   3.153
50460W        W21060   4.935  23.756  13.095
50461W        W21061   0.172  28.208   2.891
50462W        W21062  13.155   2.848  11.957
50463W        W21063  26.160  13.112   4.578
50464W        W21064  38.408  34.460   4.455
50465W        W21065  32.478  33.131  12.477
50466W        W21066  37.762   3.215  11.388
50467W        W21067  32.017  28.717   2.251
50468W        W21068  32.057  43.363  12.335
50469W        W21069  40.262  15.696   2.612
50470W        W21070   6.965   3.987   0.916
50471W        W21071  14.481   1.857   5.100
50472W        W21072  37.809  34.408  12.498
50473W        W21073  25.506   1.301  12.664
50474W        W21074   4.640   7.621   0.639
50475W        W21075   3.490  39.495  14.864
50476W        W21076  17.674  22.188  12.104
50477W        W21077  19.388   3.721   2.177
50478W        W21078  31.155  38.939   2.644
50479W        W21079  10.666  42.697  12.388
50480W        W21080   0.258  31.771  14.531
50481W        W21081   1.192  40.607  12.110
50482W        W21082  40.956  38.980   1.113
50483W        W21083   1.479   7.953   0.051
50484W        W21084  38.579  35.582   2.153
50485W        W21085  28.514  13.370  13.291
50486W        W21086  21.107   5.838   0.936
50487W        W21087  30.621   4.472   2.668
50488W        W21088  22.571  11.927   3.468
50489W        W21089  41.546  40.256  13.357
50490W        W21090  39.926  33.943  13.583
50491W        W21091  26.098  39.360   4.712
50492W        W21092   9.158  22.734  11.754
50493W        W21093  20.814  39.562   3.239
50494W        W21094  27.221   5.510  11.674
50495W        W21095  30.429   2.183  11.111
50496W        W21096   5.323  10.855  12.365
50497W        W21097   4.406  14.276  14.270
50498W        W21098   1.006  20.101   4.312
50499W        W21099  16.586  26.212   1.225
50500W        W21100  23.136  42.336   4.550
50501W        W21101  23.261  11.254   2.213
50502W        W21102  43.266  21.298  12.440
50503W        W21103  15.210   0.771   0.386
50504W        W21104  25.463  25.181  13.801
50505W        W21105  30.177  35.911   1.054
50506W        W21106   4.229  42.480   1.365
50507W        W21107   8.913  43.995  14.743
50508W        W21108  31.396  20.967  11.535
50509W        W21109  11.313   9.183   2.762
50510W        W21110  33.029  20.263  11.196
50511W        W21111  17.152  26.937   1.283
50512W        W21112   5.089  14.765  12.887
50513W        W21113   8.208  29.090   5.010
50514W        W21114  14.567  12.740  10.433
50515W        W21115  18.672  40.488  13.541
50516W        W21116  34.055  41.916   4.955
50517W        W21117  32.888  23.976   3.094
50518W        W21118  39.769  16.450   3.174
50519W        W21119  37.014  43.784   2.339
50520W        W21120  26.841  42.660   2.562
50521W        W21121  32.523  16.954  10.645
50522W        W21122  36.022  11.175  14.720
50523W        W21123  22.160  26.910   4.741
50524W        W21124  35.320  31.337   1.361
50525W        W21125  18.281  18.366   1.350
50526W        W21126  40.035  39.864   1.344
50527W        W21127  34.889   4.813   4.345
50528W        W21128  36.136  29.828  11.934
50529W        W21129  17.052  20.352  14.322
50530W        W21130   7.552   0.437   2.704
50531W        W21131   1.378  17.745   4.622
50532W        W21132   4.772   6.763  12.462
50533W        W21133  27.989  25.492   2.073
50534W        W21134  28.463   9.965   1.678
50535W        W21135  37.171  38.961   2.607
50536W        W21136  35.419  33.517  11.928
50537W        W21137  17.306  19.981  12.454
50538W        W21138  30.648  22.914  14.403
50539W        W21139  39.029   7.871  14.355
50540W        W21140  15.788   7.189  11.183
50541W        W21141  22.721  14.864   0.678
50542W        W21142  10.845  33.701   4.586
50543W        W21143  13.663  29.901   4.050
50544W        W21144   5.860   8.596   0.251
50545W        W21145  12.599  42.940  11.655
50546W        W21146  22.646  39.480  11.499
50547W        W21147  21.833  26.120  12.117
50548W        W21148  39.977  10.572  14.420
50549W        W21149  14.240  38.397   4.663
50550W        W21150  40.188   3.338   4.093
50551W        W21151  20.911  24.538   0.894
50552W        W21152  27.066  31.895   1.545
50553W        W21153  22.718  29.662  14.822
50554W        W21154  35.745  15.206  14.088
50555W        W21155  20.783   2.809  14.918
50556W        W21156  19.304  41.278  10.742
50557W        W21157  15.106   4.308  13.185
50558W        W21158  27.977  10.792   0.130
50559W        W21159  13.048  20.254  13.101
50560W        W21160  13.572  18.227   3.695
50561W        W21161  19.714   4.194   3.121
50562W        W21162  34.455  22.577   1.768
50563W        W21163   2.808  35.348  11.904
50564W        W21164  22.120  32.486   3.295
50565W        W21165  18.148   4.717   4.595
50566W        W21166  10.089  27.507  11.844
50567W        W21167  43.352  15.565  10.663
50568W        W21168  27.945  25.127  14.831
50569W        W21169  13.029  11.704   9.955
50570W        W21170   9.888  41.596   1.944
50571W        W21171  18.752  28.187   5.534
50572W        W21172  44.008  31.443  12.568
50573W        W21173  27.654  44.833   4.557
50574W        W21174  28.926  11.809   4.141
50575W        W21175  20.512  25.413  13.422
50576W        W21176  27.585  18.782   3.666
50577W        W21177  40.428  18.564   3.424
50578W        W21178  20.284   0.608  11.465
50579W        W21179   5.823  33.935  12.000
50580W        W21180  43.592  34.193   0.955
50581W        W21181  40.401  40.297  11.968
50582W        W21182  38.401  32.135  14.305
50583W        W21183   3.720  29.929   3.987
50584W        W21184  17.182  40.845  11.263
50585W        W21185  16.447  33.853  14.389
50586W        W21186  35.854  31.564  11.539
50587W        W21187  18.588  24.398   4.141
50588W        W21188  31.039  36.967  14.748
50589W        W21189  31.400   8.242  10.756
50590W        W21190  29.446  26.629   1.833
50591W        W21191  42.872  40.304   1.245
50592W        W21192  18.317  40.471   4.234
50593W        W21193  36.610  36.608   3.702
50594W        W21194   8.658   0.704   2.411
50595W        W21195  14.546  31.448  14.117
50596W        W21196  41.071   2.231  13.951
50597W        W21197  43.356  22.504  12.765
50598W        W21198   5.474  14.134  13.741
50599W        W21199   7.381  29.209   1.367
50600W        W21200   9.131   0.439  11.692
50601W        W21201  24.060  18.152   4.685
50602W        W21202   8.664  41.795   4.108
50603W        W21203  10.654  26.962  14.281
50604W        W21204  11.059  31.397   1.462
50605W        W21205   6.220  23.581  12.663
50606W        W21206  32.137   9.754   3.685
50607W        W21207  39.593  17.612  12.060
50608W        W21208  16.568   7.706  12.053
50609W        W21209   5.385  26.143  11.630
50610W        W21210  14.868  28.022  14.448
50611W        W21211  42.104  24.653  11.968
50612W        W21212  38.262  22.513   1.704
50613W        W21213  30.549  16.812  13.492
50614W        W21214   2.995   3.750   0.431
50615W        W21215  26.409  33.633   0.421
50616W        W21216  14.406  34.918  14.359
50617W        W21217  32.972  20.875  12.919
50618W        W21218  18.736  26.713   1.614
50619W        W21219   2.684   3.307  12.476
50620W        W21220  26.046   8.859  10.487
50621W        W21221  13.825  26.667   0.291
50622W        W21222  11.472  10.640   0.745
50623W        W21223  36.366   1.415   1.660
50624W        W21224   9.186   8.204  12.699
50625W        W21225  20.966  34.068  11.514
50626W        W21226  20.999   0.266   2.257
50627W        W21227  34.347  32.610   3.861
50628W        W21228  29.421  35.044  10.574
50629W        W21229  21.968   0.503   0.817
50630W        W21230   0.953  11.908   0.801
50631W        W21231  29.576  35.060  11.691
50632W        W21232   6.743  11.658  10.955
50633W        W21233  33.052   9.365   1.306
50634W        W21234   3.884  11.567  11.113
50635W        W21235  11.963  36.818  12.574
50636W        W21236  23.846  24.807  12.549
50637W        W21237  36.464  29.419   1.491
50638W        W21238  21.015  39.071  12.060
50639W        W21239  25.046  29.860  12.774
50640W        W21240   4.694  30.170   3.646
50641W        W21241   1.685  19.135  12.533
50642W        W21242   5.720  31.643   4.512
50643W        W21243   6.331  31.922   1.307
50644W        W21244  40.975  10.322   4.253
50645W        W21245  15.399   9.161  12.801
50646W        W21246  23.621  42.870   0.495
50647W        W21247   6.165  39.215  13.050
50648W        W21248  23.476  21.160  14.097
50649W        W21249   1.947  43.508   4.667
50650W        W21250   9.483   0.354  13.481
50651W        W21251  29.373  31.370  14.391
50652W        W21252  42.205  23.139   1.843
50653W        W21253   5.922  20.001   4.196
50654W        W21254  25.909  20.912   3.093
50655W        W21255  40.308  38.081   1.788
50656W        W21256  38.002  36.821  11.309
50657W        W21257   7.275  27.521  13.812
50658W        W21258   5.306  25.504   0.340
50659W        W21259  35.387   9.448   0.208
50660W        W21260  24.613  40.012  12.424
50661W        W21261  39.497  28.279   4.228
50662W        W21262  34.322   1.431   4.278
50663W        W21263  26.143  41.564   4.487
50664W        W21264  40.325  17.045  12.334
50665W        W21265   8.159  32.649  11.164
50666W        W21266  40.841  10.071  13.660
50667W        W21267  21.180  20.973  10.729
50668W        W21268  14.393  18.272  12.088
50669W        W21269   1.472  27.523  11.051
50670W        W21270  35.538  42.738   1.573
50671W        W21271  42.055   0.291   3.838
50672W        W21272  20.418   3.140  14.731
50673W        W21273  20.192   2.502  12.402
50674W        W21274  44.985   8.286   2.390
50675W        W21275   5.968  38.057  10.677
50676W        W21276   4.245   5.310  11.689
50677W        W21277   7.866  20.765  11.901
50678W        W21278  25.040  26.965   4.231
50679W        W21279  29.514  40.729  13.968
50680W        W21280   7.210  13.852  10.620
50681W        W21281  24.570  28.914  14.303
50682W        W21282  12.576  36.755   1.471
50683W        W21283   0.310  41.926  10.619
50684W        W21284   9.091   3.556   2.266
50685W        W21285  28.709   5.184  10.897
50686W        W21286  39.094  24.297   4.095
50687W        W21287   8.390  41.440   3.304
50688W        W21288   6.740  25.222  14.001
50689W        W21289   1.429  12.783   1.273
50690W        W21290  13.185   4.689  13.019
50691W        W21291   0.894   7.747  13.806
50692W        W21292   1.009  20.543   2.721
50693W        W21293  29.140  36.013  13.301
50694W        W21294   6.931  11.893  11.387
50695W        W21295  31.258  24.795   3.275
50696W        W21296  23.293  28.555   3.784
50697W        W21297  39.982  11.091   1.216
50698W        W21298  43.016  16.034  10.692
50699W        W21299  35.557  32.696  13.063
50700W        W21300  32.887  43.958   2.810
50701W        W21301  37.641   9.350   4.622
50702W        W21302  29.036   1.753   2.937
50703W        W21303  32.718   6.352   4.663
50704W        W21304  39.527   8.085  10.003
50705W        W21305  28.598  30.248  13.457
50706W        W21306  18.036  24.051   3.342
50707W        W21307  44.758   0.850   2.383
50708W        W21308  14.526  32.145  12.940
50709W        W21309  34.740  23.401   1.371
50710W        W21310  44.047  21.125   3.151
50711W        W21311   8.423  39.741  11.624
50712W        W21312   5.447  25.005  14.493
50713W        W21313  42.230  23.691  14.413
50714W        W21314  26.204  27.220  14.304
50715W        W21315  11.242  33.516  12.011
50716W        W21316   8.430  42.013  13.785
50717W        W21317  18.259  34.823   1.006
50718W        W21318   6.747  42.493   1.700
50719W        W21319  11.911   2.410   2.736
50720W        W21320  37.312   3.968   1.372
50721W        W21321  40.535  19.330  11.192
50722W        W21322   2.395  39.575  13.175
50723W        W21323  33.923  17.785  12.887
50724W        W21324  35.527  43.454  12.972
50725W        W21325  25.585  15.056   0.260
50726W        W21326  14.690  25.171   5.233
50727W        W21327  23.172  20.360  11.660
50728W        W21328  29.150   3.131   2.675
50729W        W21329   0.449  26.461   4.585
50730W        W21330  14.720  42.437   3.788
50731W        W21331   3.420  33.509  10.605
50732W        W21332  24.560  25.692  12.140
50733W        W21333   1.943  12.921  11.209
50734W        W21334   2.192  14.306   3.244
50735W        W21335  41.942  30.733   4.843
50736W        W21336   7.730  35.477  12.791
50737W        W21337  30.479  11.924  11.946
50738W        W21338  35.796   3.347  14.858
50739W        W21339  35.409  14.333  14.516
50740W        W21340   2.907  25.414   1.346
50741W        W21341  22.866  17.513   4.906
50742W        W21342  25.497   0.884  14.451
50743W        W21343  20.767  18.043   1.698
50744W        W21344  44.047  21.992  14.748
50745W        W21345  39.356  43.503   4.159
50746W        W21346  38.969  25.586  11.130
50747W        W21347  14.568  33.432  10.778
50748W        W21348  43.883   1.962  12.482
50749W        W21349  33.851  16.799  10.349
50750W        W21350  16.105  31.366   3.997
50751W        W21351  41.954   6.629  13.738
50752W        W21352   3.523  20.550   3.843
50753W        W21353  18.199  44.202   1.308
50754W        W21354  36.115  32.910  11.649
50755W        W21355   0.535   2.584   1.730
50756W        W21356  40.883  38.968  11.181
50757W        W21357   9.622  36.844  10.685
50758W        W21358  15.601  38.881   4.649
50759W        W21359  36.100  42.416  12.590
50760W        W21360  39.847  30.523   0.643
50761W        W21361  28.146   4.420  10.517
50762W        W21362  42.174  35.151   0.846
50763W        W21363  31.150  17.204  10.568
50764W        W21364  28.872  12.348   4.548
50765W        W21365   0.485  10.965   3.803
50766W        W21366  36.085  22.615  13.883
50767W        W21367  26.972  25.445  12.178
50768W        W21368  34.798  38.789  11.542
50769W        W21369   7.434  38.535  11.351
50770W        W21370  18.030  23.748  14.358
50771W        W21371  39.176  16.560  13.557
50772W        W21372  36.359  13.860  14.929
50773W        W21373  23.220  29.439   2.784
50774W        W21374   3.695   0.294  11.972
50775W        W21375  39.406  25.008  13.509
50776W        W21376  39.037  40.159   1.445
50777W        W21377   2.431   1.341   0.467
50778W        W21378   7.789  16.861   2.738
50779W        W21379  40.478  25.499  14.074
50780W        W21380   4.843  21.196   3.455
50781W        W21381  23.648  17.178   1.960
50782W        W21382  36.829  43.806  14.583
50783W        W21383   9.455  27.372   2.172
50784W        W21384  17.302  42.584   4.365
50785W        W21385   6.482  40.919  13.082
50786W        W21386  40.395  40.837  11.060
50787W        W21387  18.291  24.196  14.310
50788W        W21388  39.310  11.189  11.661
50789W        W21389  37.850  22.434  14.904
50790W        W21390  31.204   2.218   2.871
50791W        W21391   5.838   5.335  14.882
50792W        W21392  32.791  31.612  13.455
50793W        W21393  22.732  32.958   1.919
50794W        W21394   0.762  18.143   3.566
50795W        W21395  15.347  20.088   2.898
50796W        W21396  32.621   6.906  13.487
50797W        W21397  21.744  21.247  11.550
50798W        W21398  42.616  31.593   0.358
50799W        W21399  31.165  31.699   3.176
50800W        W21400  44.209   5.959   3.234
50801W        W21401  13.064  35.041   1.272
50802W        W21402  30.630  41.253   2.140
50803W        W21403  15.677   6.756   1.321
50804W        W21404   4.126  36.554  12.030
50805W        W21405  16.603  30.099   4.247
50806W        W21406   6.403  20.933  13.364
50807W        W21407  10.734  12.865  13.626
50808W        W21408   4.663  16.232  12.338
50809W        W21409  30.537  42.469  12.230
50810W        W21410   9.358  13.087  12.536
50811W        W21411   2.356  21.113  13.934
50812W        W21412   6.419  25.534  11.555
50813W        W21413   9.823  17.579  14.551
50814W        W21414  39.104  34.387  11.149
50815W        W21415  16.536  35.116   0.003
50816W        W21416   0.608  13.670  13.448
50817W        W21417  21.136  34.078   4.409
50818W        W21418   2.475  20.135   2.916
50819W        W21419  39.867  34.490  11.586
50820W        W21420   3.297  25.630   3.167
50821W        W21421  25.623  42.851  12.417
50822W        W21422   1.353  20.309   2.268
50823W        W21423  40.924  18.512   3.635
50824W        W21424  25.958   6.876  14.413
50825W        W21425   0.179  37.510   0.984
50826W        W21426  24.665  24.600   4.590
50827W        W21427  35.578   5.678   0.757
50828W        W21428   2.700   0.834  11.551
50829W        W21429  41.287   1.738  12.067
50830W        W21430  14.334  22.287  12.132
50831W        W21431   9.099  42.760  13.793
50832W        W21432  30.674  37.818  14.028
50833W        W21433   0.206   2.048  12.431
50834W        W21434  39.116   1.085   0.510
50835W        W21435  19.607  32.196  13.802
50836W        W21436   8.162  19.169  11.544
50837W        W21437  22.368  16.750   0.858
50838W        W21438   6.751  29.661   1.647
50839W        W21439  19.585  32.584   3.730
50840W        W21440  20.118  23.674  10.497
50841W        W21441  11.888  18.647  11.254
50842W        W21442  21.600   3.778  14.859
50843W        W21443  33.908  40.334   2.786
50844W        W21444  20.509  24.278   3.339
50845W        W21445  10.739   6.265  13.784
50846W        W21446  13.147   0.541   0.035
50847W        W21447   0.974  23.373   0.577
50848W        W21448  26.153  22.247   3.252
50849W        W21449   5.329   5.830  12.541
50850W        W21450  32.347  26.462   3.939
50851W        W21451  40.855  39.337  11.610
50852W        W21452  33.936   2.933   3.764
50853W        W21453   6.748   6.102   0.448
50854W        W21454  42.030  33.436  13.566
50855W        W21455   9.692  39.140   0.510
50856W        W21456  16.761  11.556  12.503
50857W        W21457  32.319   8.771  13.814
50858W        W21458  10.776  25.960   4.334
50859W        W21459   0.395   0.787  13.835
50860W        W21460   0.768  34.909   1.319
50861W        W21461  20.931  26.121  12.954
50862W        W21462  37.539  40.858  10.733
50863W        W21463  12.108   0.848   1.328
50864W        W21464   5.751  27.906  14.157
50865W        W21465   3.875  36.936  10.707
50866W        W21466  22.713  29.531  12.868
50867W        W21467  21.825   9.148  14.847
50868W        W21468  18.690   8.288   0.665
50869W        W21469  13.719  38.478   4.572
50870W        W21470   9.145  15.035  12.339
50871W        W21471  28.357  31.607  11.623
50872W        W21472  38.407  24.434   2.884
50873W        W21473  33.091  36.419  10.494
50874W        W21474  27.754   6.703  11.069
50875W        W21475   8.620  15.013   1.245
50876W        W21476  34.606  32.350  14.947
50877W        W21477   8.211  32.887  12.437
50878W        W21478  37.660   7.295   2.328
50879W        W21479  28.160  23.299  12.406
50880W        W21480   0.440  32.038  14.956
50881W        W21481  18.181  37.571  11.005
50882W        W21482  39.130  34.939   4.180
50883W        W21483  12.359   9.089  14.661
50884W        W21484  21.092   0.351   1.378
50885W        W21485  41.268   1.098   4.092
50886W        W21486  32.019  19.075  13.575
50887W        W21487  43.088   3.375  10.770
50888W        W21488  42.345  40.875  10.979
50889W        W21489  23.566  11.918  12.978
50890W        W21490  14.822  35.801  13.427
50891W        W21491   9.865  12.088  12.147
50892W        W21492   4.944  33.189  13.872
50893W        W21493  19.864  27.285   9.771
50894W        W21494   2.594  11.201  12.379
50895W        W21495  44.217  32.133  10.655
50896W        W21496  34.872  14.257   2.569
50897W        W21497   2.998   6.742   2.327
50898W        W21498  15.728  11.551   1.910
50899W        W21499  19.825  29.848   4.177
50900W        W21500  36.779  41.750  11.683
50901W        W21501  21.238   1.914  13.005
50902W        W21502  36.412  29.349   4.614
50903W        W21503   7.187  34.625   2.694
50904W        W21504  36.429  32.660  10.725
50905W        W21505  34.796  35.071  13.340
50906W        W21506  34.418  21.683  12.098
50907W        W21507  24.170  41.711  13.486
50908W        W21508  27.754  41.993   5.626
50909W        W21509  27.628   5.801   3.286
50910W        W21510  41.600  14.538   4.729
50911W        W21511  36.581  13.943  11.614
50912W        W21512  19.624   2.830   2.558
50913W        W21513   0.638   8.153   0.309
50914W        W21514   6.853  43.227  13.408
50915W        W21515   4.365  27.261  14.028
50916W        W21516  20.927  34.192  12.615
50917W        W21517  17.383  11.746  14.996
50918W        W21518  15.128  34.491   2.756
50919W        W21519  40.432  34.069   3.833
50920W        W21520   3.807  36.248   1.151
50921W        W21521   2.174  38.598  13.418
50922W        W21522  15.086  12.602   1.740
50923W        W21523  13.075  42.337   2.799
50924W        W21524   2.310   7.664   2.475
50925W        W21525  16.293  32.204   3.664
50926W        W21526  17.112  29.268  11.176
50927W        W21527  34.007  14.775   3.189
50928W        W21528   2.491  10.889   2.154
50929W        W21529   1.407  13.599  14.535
50930W        W21530  34.198  30.452  10.444
50931W        W21531  14.376  19.124  10.981
50932W        W21532   6.397  24.045   3.599
50933W        W21533  22.753  35.953  10.760
50934W        W21534   3.835  16.880   0.548
50935W        W21535  30.828  36.189  13.367
50936W        W21536  22.442  21.695   2.865
50937W        W21537  16.127  29.976  14.032
50938W        W21538  24.668  39.979  10.439
50939W        W21539  41.386  11.930  10.481
50940W        W21540  20.275  23.923  10.937
50941W        W21541  17.355  32.010  14.419
50942W        W21542   6.524  18.073  13.287
50943W        W21543  33.326  15.140  12.033
50944W        W21544  13.835   7.812   4.430
50945W        W21545  44.852  35.568   2.678
50946W        W21546  10.271  35.377   4.094
50947W        W21547   0.944  36.428   1.439
50948W        W21548   8.908  35.588   3.720
50949W        W21549  32.630  13.927  11.065
50950W        W21550  15.049  42.951   1.367
50951W        W21551   2.115   4.394   1.373
50952W        W21552  40.931  26.770  12.440
50953W        W21553  14.614  43.677  12.130
50954W        W21554  19.106  25.053  10.781
50955W        W21555  24.591  44.981  14.353
50956W        W21556  16.037   0.110   0.959
50957W        W21557  24.161  13.632  13.089
50958W        W21558   5.966  17.202  11.100
50959W        W21559   5.367  10.245  12.990
50960W        W21560  39.041  11.731   4.267
50961W        W21561  26.250   6.975  12.087
50962W        W21562  13.037   2.053  13.903
50963W        W21563  15.792  10.849   0.354
50964W        W21564  27.484   9.380  14.899
50965W        W21565   5.745  27.941   3.468
50966W        W21566   6.396  32.868   2.213
50967W        W21567  15.144  10.212  14.446
50968W        W21568  44.580  44.360   2.219
50969W        W21569  17.132  26.908  13.878
50970W        W21570   4.557   7.425   3.621
50971W        W21571  41.324  27.477  13.529
50972W        W21572  23.578  35.283  11.539
50973W        W21573  29.384  11.621  12.527
50974W        W21574   8.885   6.902   2.328
50975W        W21575   5.684  16.781   1.788
50976W        W21576  17.419   5.170   2.818
50977W        W21577  34.388  36.654   2.157
50978W        W21578  17.958  23.666   4.089
50979W        W21579  40.254  10.638   0.337
50980W        W21580   0.718   0.853   4.691
50981W        W21581  29.080  36.278   1.876
50982W        W21582  26.291  29.487   4.434
50983W        W21583  37.618  38.066  11.054
50984W        W21584  36.307  19.056   1.735
50985W        W21585  21.136  40.398  12.596
50986W        W21586  29.146  31.697  12.996
50987W        W21587   0.387  38.148  13.464
50988W        W21588  35.654  37.398  11.200
50989W        W21589  42.331  21.500   0.004
50990W        W21590  43.970  39.511   3.449
50991W        W21591  28.907  36.822   2.918
50992W        W21592   8.882  42.638  14.816
50993W        W21593  25.383   1.481   1.692
50994W        W21594  16.710   9.047  12.496
50995W        W21595  22.926   1.947   4.822
50996W        W21596  26.584  34.278   4.336
50997W        W21597   1.777  20.181  14.541
50998W        W21598   8.735  24.412   2.844
50999W        W21599   9.714  39.827  14.213
51000W        W21600  37.481  14.532  14.403
51001W        W21601  28.298  24.745   2.153
51002W        W21602  43.507  36.395  11.629
51003W        W21603  15.065  43.822  12.840
51004W        W21604   9.295  37.019   0.239
51005W        W21605  16.665  44.785  10.743
51006W        W21606  21.259  27.754  14.742
51007W        W21607  32.364  14.423  12.534
51008W        W21608  35.568  38.045   3.605
51009W        W21609  25.455  23.005  12.971
51010W        W21610  19.515  35.500   4.191
51011W        W21611  37.146  26.117   3.487
51012W        W21612   6.612  15.877  10.706
51013W        W21613  24.742  16.562  12.911
51014W        W21614  25.827   0.140   5.059
51015W        W21615  25.197  17.371   1.272
51016W        W21616  21.895  43.919  12.564
51017W        W21617  12.285  37.074  11.649
51018W        W21618  37.997  22.719   3.658
51019W        W21619  36.290   2.333   1.327
51020W        W21620  15.113  27.948  11.696
51021W        W21621  23.661   8.185   0.030
51022W        W21622  17.907  17.660  13.659
51023W        W21623   4.155  37.805   1.784
51024W        W21624  41.029  38.361   4.189
51025W        W21625  31.523  26.878  12.646
51026W        W21626  35.764  18.967  10.534
51027W        W21627  26.095   7.896  14.403
51028W        W21628   1.199  18.689  12.977
51029W        W21629  17.628  24.689  12.753
51030W        W21630  37.256   1.353   4.059
51031W        W21631  17.942  17.744   4.733
51032W        W21632   5.940  23.303  10.419
51033W        W21633   3.288  13.429   4.880
51034W        W21634  20.165  26.125   2.472
51035W        W21635  17.489   5.319   3.722
51036W        W21636   9.146  14.067   2.699
51037W        W21637   8.672  36.960   3.782
51038W        W21638  23.154   9.835   1.842
51039W        W21639  30.606   9.185   4.662
51040W        W21640  38.026  25.061   4.475
51041W        W21641  34.807  23.141   0.458
51042W        W21642  31.433   4.362   3.717
51043W        W21643  32.515  11.298  10.368
51044W        W21644  17.344  11.256   3.236
51045W        W21645  33.837  31.141  11.960
51046W        W21646  33.488  37.665  14.008
51047W        W21647   9.422  36.882  11.439
51048W        W21648   7.819  21.332   4.865
51049W        W21649  27.796  32.673   0.958
51050W        W21650  20.205   3.388  13.859
51051W        W21651  16.194  20.151   2.331
51052W        W21652  34.667  20.524   1.838
51053W        W21653  27.653   6.621   0.785
51054W        W21654   9.759   5.412   4.505
51055W        W21655  38.866  39.294   2.673
51056W        W21656  13.678   3.006   1.904
51057W        W21657  25.472  16.659   2.621
51058W        W21658   4.232  15.258  11.531
51059W        W21659  31.460  14.179  11.923
51060W        W21660  24.926  27.141   2.847
51061W        W21661  29.909   0.532   3.364
51062W        W21662   5.171  18.440  10.917
51063W        W21663  38.100  21.005  12.002
51064W        W21664  31.436   6.707   3.461
51065W        W21665  26.640  25.931   2.222
51066W        W21666  43.496  32.032   0.431
51067W        W21667   1.525  18.196   2.888
51068W        W21668   8.339   4.487   0.513
51069W        W21669  17.043  10.224   4.981
51070W        W21670   6.174  26.920   2.257
51071W        W21671  31.114  42.078  14.339
51072W        W21672  39.793  35.432   3.973
51073W        W21673  41.322  25.165   1.428
51074W        W21674  23.398  33.967   3.250
51075W        W21675  16.214  10.289  10.651
51076W        W21676  44.926  33.048   4.032
51077W        W21677  43.708  33.578   4.109
51078W        W21678  29.697   7.294   3.343
51079W        W21679   2.367   5.726   2.424
51080W        W21680  17.077  44.548   1.150
51081W        W21681  41.940  29.580   0.658
51082W        W21682  13.270  42.522  13.154
51083W        W21683  26.431  16.544  12.094
51084W        W21684  12.874  39.582   3.315
51085W        W21685  10.195  19.812  11.674
51086W        W21686  41.220  15.628  14.984
51087W        W21687  12.629   9.977   3.755
51088W        W21688  33.431  15.719   1.684
51089W        W21689   7.451  20.242  11.160
51090W        W21690  10.468   6.298  10.334
51091W        W21691   7.948   2.954   4.498
51092W        W21692  43.616  29.699   3.468
51093W        W21693  27.096  28.773  13.465
51094W        W21694  36.974   5.460   4.549
51095W        W21695  37.408   2.656  10.936
51096W        W21696   5.398   7.202  13.447
51097W        W21697  29.901   5.227   3.791
51098W        W21698   8.784  38.811  14.536
51099W        W21699  18.086  29.015  14.411
51100W        W21700  26.107  24.556   4.750
51101W        W21701  26.023   2.127   1.922
51102W        W21702  29.888  35.956  11.303
51103W        W21703  27.464  42.295   3.356
51104W        W21704  38.402   5.418  12.041
51105W        W21705   1.534  24.026  13.495
51106W        W21706  39.602  17.097  12.835
51107W        W21707  38.317   9.404  11.556
51108W        W21708  18.753   6.288  13.065
51109W        W21709  31.049  28.500   0.744
51110W        W21710  39.898   4.303  12.146
51111W        W21711  15.058   0.426  11.955
51112W        W21712  40.737   5.972  13.046
51113W        W21713  14.833  32.160  12.062
51114W        W21714   1.917  18.056   0.387
51115W        W21715  29.905  37.572   4.815
51116W        W21716  36.475  20.424  13.887
51117W        W21717  32.696  36.777  12.093
51118W        W21718  20.213  11.719   0.797
51119W        W21719   4.841   6.297  14.868
51120W        W21720  22.535   8.702   0.802
51121W        W21721  26.913   0.503  12.980
51122W        W21722  30.335  26.147   0.814
51123W        W21723  20.634   3.936  12.320
51124W        W21724  27.166  18.585  10.691
51125W        W21725   5.478   2.888  11.893
51126W        W21726  35.958  15.810   3.683
51127W        W21727  29.884  35.584   2.725
51128W        W21728  24.761  43.904   1.428
51129W        W21729  35.998   3.601   0.326
51130W        W21730  19.053   8.470   2.752
51131W        W21731   2.998  31.975   4.211
51132W        W21732   2.043  22.659   3.285
51133W        W21733  16.314  12.142  14.835
51134W        W21734  32.833  20.080  12.049
51135W        W21735  42.172  30.992  13.420
51136W        W21736  12.614  40.387   0.866
51137W        W21737  22.471  27.690  11.162
51138W        W21738  44.466  20.751  11.084
51139W        W21739  16.529  16.228  12.949
51140W        W21740  20.305  43.938  10.957
51141W        W21741  17.569  26.070   0.398
51142W        W21742  22.140  42.816   4.782
51143W        W21743  40.015  31.522   3.547
51144W        W21744  29.472  43.928  12.429
51145W        W21745  35.879  37.412  10.270
51146W        W21746  34.057  30.152   2.683
51147W        W21747   3.775  27.995  12.030
51148W        W21748  41.849   4.904  11.914
51149W        W21749   2.420  41.268  14.010
51150W        W21750  42.883   5.926   0.442
51151W        W21751   1.705  43.818   1.701
51152W        W21752  23.741  42.412  12.395
51153W        W21753   4.568  21.150   2.619
51154W        W21754  21.950  37.300  13.041
51155W        W21755   8.766  24.917  11.863
51156W        W21756  41.704  12.761   2.753
51157W        W21757  31.332  36.146  11.555
51158W        W21758  23.646  25.405  14.518
51159W        W21759  20.032  12.754   0.520
51160W        W21760   7.779  32.917  11.976
51161W        W21761  15.677  35.860   0.127
51162W        W21762   6.459  12.243  13.464
51163W        W21763  12.672  11.517   4.641
51164W        W21764  36.805  17.564   0.863
51165W        W21765   7.317  38.973  13.576
51166W        W21766   5.845  20.530   1.371
51167W        W21767  21.559  23.246  10.509
51168W        W21768  27.735   3.901  14.605
51169W        W21769  37.273  12.288   0.783
51170W        W21770  27.133  39.052   0.858
51171W        W21771  27.958  38.085   1.458
51172W        W21772  24.720  30.625  11.221
51173W        W21773  36.635  38.952  11.950
51174W        W21774  21.174  39.164  14.409
51175W        W21775  35.570  28.164   2.821
51176W        W21776   5.343  30.092  12.390
51177W        W21777  28.877  27.664   0.788
51178W        W21778  39.301  42.982   0.445
51179W        W21779  23.574   8.154   3.774
51180W        W21780  33.094   0.926   1.191
51181W        W21781  15.088  12.297  12.992
51182W        W21782   0.500  32.183   3.647
51183W        W21783  35.031  27.081   0.382
51184W        W21784   9.755  38.884  14.600
51185W        W21785  22.864   8.865  13.404
51186W        W21786  27.871   2.279   2.647
51187W        W21787  37.628  33.768   3.619
51188W        W21788  26.966  18.847   2.673
51189W        W21789   4.649  13.254   5.179
51190W        W21790  40.849   0.190   2.245
51191W        W21791  42.047  30.600  11.482
51192W        W21792  32.918  23.397  12.021
51193W        W21793  41.916  12.387  12.589
51194W        W21794  42.365  16.155  14.808
51195W        W21795  24.987  13.760  12.170
51196W        W21796  15.033  29.411  13.615
51197W        W21797  12.171  41.598  11.069
51198W        W21798   7.404  10.738  13.574
51199W        W21799  20.138   1.431  14.048
51200W        W21800  24.507   0.783   0.751
51201W        W21801  23.466  36.107  14.210
51202W        W21802  41.331  34.193  11.129
51203W        W21803  33.144  37.223   4.175
51204W        W21804  31.097  18.212  14.936
51205W        W21805   6.701  37.016  13.644
51206W        W21806  34.586  25.514  12.102
51207W        W21807  11.754  31.331   3.256
51208W        W21808  29.243   8.958   0.472
51209W        W21809  38.860  35.983  14.303
51210W        W21810   1.550  13.276   4.570
51211W        W21811  40.889  33.414  14.286
51212W        W21812   1.729  32.145   4.109
51213W        W21813  15.800   3.751   3.385
51214W        W21814  13.105  40.474   3.193
51215W        W21815  25.601   1.425  14.474
51216W        W21816  36.755  22.250  13.023
51217W        W21817   4.770  27.125   3.305
51218W        W21818  26.249  31.645   2.643
51219W        W21819  41.320  14.512  13.546
51220W        W21820  26.144  29.942   0.109
51221W        W21821   6.280   6.160   3.133
51222W        W21822  17.537  28.708  14.690
51223W        W21823   8.098   7.759  13.822
51224W        W21824   6.669   0.305  12.812
51225W        W21825  12.176  42.793  13.350
51226W        W21826  34.059  12.224   1.858
51227W        W21827  20.771  21.614   4.791
51228W        W21828  24.081   6.282   1.350
51229W        W21829  35.472  10.956  12.616
51230W        W21830   5.628   7.407   4.855
51231W        W21831  33.040  36.175   4.352
51232W        W21832  15.625   5.630   4.562
51233W        W21833  39.198   9.007   0.379
51234W        W21834  18.632  25.548   0.755
51235W        W21835  16.598  17.953  10.607
51236W        W21836  40.543  43.960   1.324
51237W        W21837  19.672   2.286   1.738
51238W        W21838  10.275  24.527   0.803
51239W        W21839  39.395  35.145  13.222
51240W        W21840  25.444  15.199  11.483
51241W        W21841  12.854   3.385   4.694
51242W        W21842  26.540   2.216  13.351
51243W        W21843  14.542  30.770   3.124
51244W        W21844  33.462  24.592  10.092
51245W        W21845  38.135   4.477  12.488
51246W        W21846  22.744  19.933   0.251
51247W        W21847  29.180  33.100   3.313
51248W        W21848  29.232   5.906   2.133
51249W        W21849  39.882   2.286  12.535
51250W        W21850  44.949  42.338  13.848
51251W        W21851  15.457  13.329   1.388
51252W        W21852  17.817  44.246   4.443
51253W        W21853   1.459  10.754   4.151
51254W        W21854  23.209   7.001  14.542
51255W        W21855   8.434  22.047  14.526
51256W        W21856  37.197   6.479  13.493
51257W        W21857  10.864  17.820  14.191
51258W        W21858  31.542  14.958   1.307
51259W        W21859  17.739  29.608   3.139
51260W        W21860  16.802  27.233   2.498
51261W        W21861  44.465  44.236  14.936
51262W        W21862  24.942  29.658   1.649
51263W        W21863   3.674  25.916   3.789
51264W        W21864   5.556  41.347   4.134
51265W        W21865  17.781  19.965   2.711
51266W        W21866  20.185   8.042   1.470
51267W        W21867  30.562  32.451   2.203
51268W        W21868  29.632  32.523  12.590
51269W        W21869  11.296  36.227  10.783
51270W        W21870  43.075  21.478   2.743
51271W        W21871  15.528   2.730  11.979
51272W        W21872   2.353   9.942   3.182
51273W        W21873  13.975  25.718   4.453
51274W        W21874  38.630  10.707   3.140
51275W        W21875   7.440  19.411   1.799
51276W        W21876  37.761  25.326  14.371
51277W        W21877  19.884   7.735   1.169
51278W        W21878  18.138  18.732  11.962
51279W        W21879  20.516  14.188  11.230
51280W        W21880   5.802   2.961   0.911
51281W        W21881  18.458  41.231  14.131
51282W        W21882  11.082  15.079  10.648
51283W        W21883  15.771   2.510   4.502
51284W        W21884   7.808  17.531   3.241
51285W        W21885  12.118  39.031  14.834
51286W        W21886  28.475   4.236   1.973
51287W        W21887  43.111   9.860  10.264
51288W        W21888  30.473  14.664  11.553
51289W        W21889  38.424  25.439  11.384
51290W        W21890  23.746  25.146  12.949
51291W        W21891  15.228  35.866   1.197
51292W        W21892  14.819  25.397   0.285
51293W        W21893  42.889   8.409  13.610
51294W        W21894  35.809  35.888   1.391
51295W        W21895  39.788  42.895   0.760
51296W        W21896   1.452  30.844  12.073
51297W        W21897  34.342   4.140  12.630
51298W        W21898   2.534   2.694   2.806
51299W        W21899  44.926  17.113  13.658
51300W        W21900  20.611  15.083   4.714
51301W        W21901  33.398  30.025   2.257
51302W        W21902   5.974  34.052   1.006
51303W        W21903   8.708  12.849   3.883
51304W        W21904  27.170  30.069   0.783
51305W        W21905   2.141  17.659   4.221
51306W        W21906   4.314  13.425   4.014
51307W        W21907  38.923  24.245   5.144
51308W        W21908  42.435  29.646   1.875
51309W        W21909  26.687  20.248   4.621
51310W        W21910   0.911   9.222  14.825
51311W        W21911   1.730  32.923   1.581
51312W        W21912   2.328  18.611  13.417
51313W        W21913   6.290  38.790  11.512
51314W        W21914  40.866  15.599   3.245
51315W        W21915   7.136   4.230   4.499
51316W        W21916  36.025  16.831   4.470
51317W        W21917  29.958  30.535   0.236
51318W        W21918   5.086  23.633   1.831
51319W        W21919  37.127  13.165  11.118
51320W        W21920  30.236  35.024   4.917
51321W        W21921  15.796  19.515  12.967
51322W        W21922  22.884  10.740  14.798
51323W        W21923  26.108  22.963   4.477
51324W        W21924  20.746  28.959   0.771
51325W        W21925  26.417  40.836   1.395
51326W        W21926  12.817  28.953   3.445
51327W        W21927  27.541  27.858   3.858
51328W        W21928  18.561  39.854   3.410
51329W        W21929  27.972  30.347  11.256
51330W        W21930  11.326  13.574  10.656
51331W        W21931  24.614  40.854  10.768
51332W        W21932  38.523   4.174   3.389
51333W        W21933  27.126   3.581  11.077
51334W        W21934  19.255  11.401  12.615
51335W        W21935   0.834  41.119   3.270
51336W        W21936  36.473   1.459  14.842
51337W        W21937  36.759  27.921   1.283
51338W        W21938  31.893  33.179   4.261
51339W        W21939  36.361  30.439   3.677
51340W        W21940   6.845  14.381  14.539
51341W        W21941   8.162  42.452  13.883
51342W        W21942  13.975  37.114   0.945
51343W        W21943  11.777  39.083   2.423
51344W        W21944   0.858  39.605  13.287
51345W        W21945  35.944  24.153   0.391
51346W        W21946   5.784  18.231   2.348
51347W        W21947  10.330  39.806   4.237
51348W        W21948  23.633  30.467   4.048
51349W        W21949  33.643   5.219   4.353
51350W        W21950  38.813  44.849   2.590
51351W        W21951   4.266  17.628  13.070
51352W        W21952   5.957  41.616   1.359
51353W        W21953   5.752  40.466   1.856
51354W        W21954  23.133  32.031   1.681
51355W        W21955  34.650  34.627   3.757
51356W        W21956  12.100  31.846  11.149
51357W        W21957  26.729  43.739  14.026
51358W        W21958  21.246  23.054   2.678
51359W        W21959  19.707  12.681  11.159
51360W        W21960  19.822  16.764   0.777
51361W        W21961  10.766   5.479  11.621
51362W        W21962  36.380   3.215   2.849
51363W        W21963   7.719   3.884  14.089
51364W        W21964  30.429   1.316  14.243
51365W        W21965  29.149  37.325   1.758
51366W        W21966  25.141  24.682  11.120
51367W        W21967  18.693  40.821   3.434
51368W        W21968   6.815  41.358   0.654
51369W        W21969  15.290   2.487  14.860
51370W        W21970   6.338  12.152   1.783
51371W        W21971  29.754  11.716  11.233
51372W        W21972  32.378  13.600  14.304
51373W        W21973   6.296  14.670   2.747
51374W        W21974  37.428   2.958   2.273
51375W        W21975  32.873  25.673  11.962
51376W        W21976   9.742  33.089  11.163
51377W        W21977  23.765   4.943   3.920
51378W        W21978  18.800  30.538   1.409
51379W        W21979   2.753  22.136  10.699
51380W        W21980  38.401  35.719   0.299
51381W        W21981   6.873  32.729   2.906
51382W        W21982  31.659  18.743  14.777
51383W        W21983  23.445  27.918  13.032
51384W        W21984  25.511  10.685   1.214
51385W        W21985   0.248  33.441  12.603
51386W        W21986  33.043  12.246  10.307
51387W        W21987   6.760  12.513   0.707
51388W        W21988  28.439  10.410   1.934
51389W        W21989   5.423   8.224   1.006
51390W        W21990  31.533  28.705   2.812
51391W        W21991  31.976  32.474  13.525
51392W        W21992  23.044   7.643   0.271
51393W        W21993  15.867   2.881  12.342
51394W        W21994   5.119  30.330   3.856
51395W        W21995  32.179  22.363   3.630
51396W        W21996   7.778   0.849  12.990
51397W        W21997  35.155  16.413  10.510
51398W        W21998  28.572  10.675   1.309
51399W        W21999  35.828  37.928   4.849
51400W        W22000  38.562   0.022   4.563
51401W        W22001  17.758  25.070  14.287
51402W        W22002  12.040  19.323   3.205
51403W        W22003  28.821  17.605  14.220
51404W        W22004   2.681  27.617  14.506
51405W        W22005  22.487  14.833  13.555
51406W        W22006  15.343  18.380   1.160
51407W        W22007  14.091  16.289   1.324
51408W        W22008   9.215  30.123   3.171
51409W        W22009  15.293  29.407   1.937
51410W        W22010  16.313  14.627   0.946
51411W        W22011  39.919  25.582  13.964
51412W        W22012  36.334   6.337   2.285
51413W        W22013  11.578   7.511   0.951
51414W        W22014  29.456  27.998  10.766
51415W        W22015  22.008   1.709  10.789
51416W        W22016  24.650   5.666  12.049
51417W        W22017  37.535  29.697  14.726
51418W        W22018  18.605  20.511  12.011
51419W        W22019   3.236  29.225  13.826
51420W        W22020   4.537  23.066   4.602
51421W        W22021  12.499  20.984   0.938
51422W        W22022   5.917  17.193   4.338
51423W        W22023  12.197  40.945  13.009
51424W        W22024  20.624   8.532  13.393
51425W        W22025  41.759   7.893  11.617
51426W        W22026  42.503  44.038   3.051
51427W        W22027  11.380  26.907   0.365
51428W        W22028   7.814  20.562   1.675
51429W        W22029  11.309  16.558  14.070
51430W        W22030  18.932  20.034   3.722
51431W        W22031  36.493  34.155  12.936
51432W        W22032   5.339  13.392   2.748
51433W        W22033  24.447  29.828  14.315
51434W        W22034  26.310  37.934  14.343
51435W        W22035   5.576  38.971   3.000
51436W        W22036  26.513  37.183  11.182
51437W        W22037  13.721  43.266  13.394
51438W        W22038   5.683   1.699  12.939
51439W        W22039  30.608  41.619  10.232
51440W        W22040  24.144   0.950   1.456
51441W        W22041  14.225  13.243  12.818
51442W        W22042  11.830  11.915  13.955
51443W        W22043  39.493  28.475   4.724
51444W        W22044  14.139   1.424  14.525
51445W        W22045  25.405  44.893   2.810
51446W        W22046  20.234  32.469   1.324
51447W        W22047  19.490  18.585  10.756
51448W        W22048  16.440  13.076   1.786
51449W        W22049  31.368  21.971  11.610
51450W        W22050   8.661  21.555   3.330
51451W        W22051  29.120  20.670   3.683
51452W        W22052  40.529   6.683   1.886
51453W        W22053   5.342  11.333   0.832
51454W        W22054  19.040  10.482  12.787
51455W        W22055   2.532  23.912  12.589
51456W        W22056  24.866  23.249   1.800
51457W        W22057  43.952  25.593   2.363
51458W        W22058   6.090  24.861   4.911
51459W        W22059  24.284  17.745   1.631
51460W        W22060  38.359   5.339   2.764
51461W        W22061  17.084   5.010  13.001
51462W        W22062  24.890   3.856   0.870
51463W        W22063  22.589  44.966   0.224
51464W        W22064  22.928  42.231  10.237
51465W        W22065   6.344   8.460  14.441
51466W        W22066  26.079  14.131  13.445
51467W        W22067  43.787  14.032  12.120
51468W        W22068  13.609  19.849  11.439
51469W        W22069   6.632   0.458   1.449
51470W        W22070  34.834  32.660   0.476
51471W        W22071  40.182  20.546  11.517
51472W        W22072   7.201   7.088  11.033
51473W        W22073  19.255  41.431   3.638
51474W        W22074   1.287  16.438   4.043
51475W        W22075   9.585  38.890   1.348
51476W        W22076  30.860   3.854   0.084
51477W        W22077  40.746   5.889   3.812
51478W        W22078  40.707  21.446   1.418
51479W        W22079  33.085  41.841   2.241
51480W        W22080  11.910  39.461   1.198
51481W        W22081  37.981  44.665   2.334
51482W        W22082  29.476   4.169  13.746
51483W        W22083  10.800  38.064   2.434
51484W        W22084  15.572  16.104   2.349
51485W        W22085  39.778  42.753   3.811
51486W        W22086  12.155  10.806  12.424
51487W        W22087  33.199  40.780  14.414
51488W        W22088  15.609  25.240   3.575
51489W        W22089   4.008  23.666  14.911
51490W        W22090   2.809  37.547  14.245
51491W        W22091  19.214  30.446   1.768
51492W        W22092  29.054  16.357  11.458
51493W        W22093  33.312  30.987   2.468
51494W        W22094  13.921  25.961   0.639
51495W        W22095  40.870   0.459  10.773
51496W        W22096  23.159  17.577   3.960
51497W        W22097  28.520  33.782  14.858
51498W        W22098  12.370  20.941  13.946
51499W        W22099  32.410  31.903  14.541
51500W        W22100   9.094  31.767   0.871
51501W        W22101  26.961  31.121  11.792
51502W        W22102  32.112  18.050  11.153
51503W        W22103   1.672   1.712  14.259
51504W        W22104  36.094  23.091  14.446
51505W        W22105  19.041   5.248   1.058
51506W        W22106   5.747  42.134  10.957
51507W        W22107  16.635  36.422   4.102
51508W        W22108  27.099  10.270  14.938
51509W        W22109  41.447  13.929   0.672
51510W        W22110  38.378  14.697   3.784
51511W        W22111  32.759  38.979  10.362
51512W        W22112  19.511  17.706  13.100
51513W        W22113  20.042   6.752  10.639
51514W        W22114  30.981   0.753   2.762
51515W        W22115   9.155  16.502   0.250
51516W        W22116  31.314  32.643  11.470
51517W        W22117  42.635  12.349  11.905
51518W        W22118  44.907   9.150   2.392
51519W        W22119  12.363  41.711  12.788
51520W        W22120  17.853  11.196   3.320
51521W        W22121  31.929  18.771  11.387
51522W        W22122   1.910  28.769  10.717
51523W        W22123  27.784  40.260  14.356
51524W        W22124  44.195   4.577  14.782
51525W        W22125  21.259  15.084  10.274
51526W        W22126  35.616  40.496   4.574
51527W        W22127   2.412  13.114   4.305
51528W        W22128  35.977  17.875   3.666
51529W        W22129  25.470  22.323  14.875
51530W        W22130  31.872   8.049  10.581
51531W        W22131  31.837  41.382  11.701
51532W        W22132  16.706  36.467  11.571
51533W        W22133  30.797  37.968   5.096
51534W        W22134  17.064   5.532   2.748
51535W        W22135  11.343  25.559  11.583
51536W        W22136  26.318  13.820   3.218
51537W        W22137  39.350  28.545  12.941
51538W        W22138  36.839  27.529  11.270
51539W        W22139  25.915  40.727   1.334
51540W        W22140  15.268  11.316   1.949
51541W        W22141  27.331  17.293  11.144
51542W        W22142  41.374   8.901  12.794
51543W        W22143   6.788  43.492   2.900
51544W        W22144  24.924  21.525   4.218
51545W        W22145   2.795  34.094   1.057
51546W        W22146  17.020  35.027  13.278
51547W        W22147  23.156  13.336   0.835
51548W        W22148  37.953   9.357   4.156
51549W        W22149  22.462  22.208   2.752
51550W        W22150   7.705  12.767   2.119
51551W        W22151   9.766   4.261  12.024
51552W        W22152  30.797   4.569  14.948
51553W        W22153   0.848  23.926  14.013
51554W        W22154  41.211  18.102   1.297
51555W        W22155   9.145  11.355  11.642
51556W        W22156  44.018   0.037  13.826
51557W        W22157  33.415  33.185   3.888
51558W        W22158  39.118  26.165  14.926
51559W        W22159  31.433  34.491  11.991
51560W        W22160  14.841   1.498  12.046
51561W        W22161  14.114  32.507   4.823
51562W        W22162  11.868  41.441  13.560
51563W        W22163  10.269  26.217  12.973
51564W        W22164  19.080  39.078   3.553
51565W        W22165  30.212  39.057   0.795
51566W        W22166  17.577  21.133   1.797
51567W        W22167   3.503  17.360   0.398
51568W        W22168  15.735   4.249   3.297
51569W        W22169  42.286  33.575   3.667
51570W        W22170  44.142  24.867   5.166
51571W        W22171  41.777  23.320  11.439
51572W        W22172  10.882   9.345  11.995
51573W        W22173  31.449  38.922  13.297
51574W        W22174  25.054  43.473  10.632
51575W        W22175   1.288  27.392  10.576
51576W        W22176  22.270   1.537  14.833
51577W        W22177  29.666  31.033   2.432
51578W        W22178  37.783   1.297   3.973
51579W        W22179  41.880  29.695   2.731
51580W        W22180   7.265   4.875  14.418
51581W        W22181  21.848  12.040   0.292
51582W        W22182  29.565   9.079   3.194
51583W        W22183  14.255  37.608  12.888
51584W        W22184   1.457  15.113   3.670
51585W        W22185   2.750  44.848   0.820
51586W        W22186   8.964   8.734   0.812
51587W        W22187  34.422  16.682   2.893
51588W        W22188   9.611  32.668   0.867
51589W        W22189  43.255  21.568   0.322
51590W        W22190  36.337  42.255   2.904
51591W        W22191  24.770  22.258  13.411
51592W        W22192   0.485  10.249  10.962
51593W        W22193  32.535  12.311   1.994
51594W        W22194  30.610   2.464   4.577
51595W        W22195   5.225  10.566   4.661
51596W        W22196  25.380  24.838  13.418
51597W        W22197  16.742  44.887  13.566
51598W        W22198  32.508  29.657  12.103
51599W        W22199   8.392  16.003  12.849
51600W        W22200  44.678  31.227  13.354
51601W        W22201  20.531  25.836  11.215
51602W        W22202   5.412  32.546   0.526
51603W        W22203   5.674  23.986  14.925
51604W        W22204  39.143  10.848   5.117
51605W        W22205  10.286  15.019  12.389
51606W        W22206  18.085  10.358   0.179
51607W        W22207   3.455  29.648  14.027
51608W        W22208  36.896   1.795  12.388
51609W        W22209  25.969  38.388   3.835
51610W        W22210  29.877  25.676   3.800
51611W        W22211  10.814  23.197  11.583
51612W        W22212  42.458  19.317   1.798
51613W        W22213  34.663  14.574   3.730
51614W        W22214   9.993  23.950  14.861
51615W        W22215  39.690   0.890   4.105
51616W        W22216  20.642   5.767   2.877
51617W        W22217  33.135  37.936  11.652
51618W        W22218   2.979  22.646  12.927
51619W        W22219  11.115  11.919  13.466
51620W        W22220  16.594  30.328   1.376
51621W        W22221  36.439  36.503  12.970
51622W        W22222  11.738  19.512  12.119
51623W        W22223  33.481  23.705   4.397
51624W        W22224   5.292  30.126  12.945
51625W        W22225  11.337  20.877  13.989
51626W        W22226  39.495  34.873   1.441
51627W        W22227  34.673   0.426  11.992
51628W        W22228   3.892  21.316  12.787
51629W        W22229  27.999   3.718  10.599
51630W        W22230  17.061  15.656   4.205
51631W        W22231   9.271  18.697  13.121
51632W        W22232   3.390   0.172   0.090
51633W        W22233  11.386  29.134  12.011
51634W        W22234  25.114  43.199   2.310
51635W        W22235  18.935   1.215   2.698
51636W        W22236  25.871   7.853   2.717
51637W        W22237  24.732  10.992  10.355
51638W        W22238   7.794  31.163   2.114
51639W        W22239  34.744  26.347  12.070
51640W        W22240  20.063  32.942   2.425
51641W        W22241  14.067  27.407  14.854
51642W        W22242   4.516  15.699   2.278
51643W        W22243  12.172  36.390  14.819
51644W        W22244   2.734   2.479  12.840
51645W        W22245  15.768  20.349  12.469
51646W        W22246  26.422   4.599   4.572
51647W        W22247  30.345  27.455   3.672
51648W        W22248  37.060  13.233   0.837
51649W        W22249  41.010  11.111  14.618
51650W        W22250  11.845   1.084  12.147
51651W        W22251  32.060  17.357  12.216
51652W        W22252  40.431   9.689  12.072
51653W        W22253   7.664  35.878   0.863
51654W        W22254  13.335  18.465   2.593
51655W        W22255  11.374  31.187  13.042
51656W        W22256  25.672  36.835   2.368
51657W        W22257   0.986  41.359  11.613
51658W        W22258  14.103  31.180  11.360
51659W        W22259   4.282  19.538   3.483
51660W        W22260  26.389  26.605   4.966
51661W        W22261  36.822  19.962  11.629
51662W        W22262  10.313  26.534  11.719
51663W        W22263  22.957  29.494  14.042
51664W        W22264  33.557  40.674   3.033
51665W        W22265  13.742  21.201   2.747
51666W        W22266  37.736  20.978   3.786
51667W        W22267   0.278  26.334  13.328
51668W        W22268   1.267  37.436   1.721
51669W        W22269  28.654   0.813  14.016
51670W        W22270  21.759  40.926   2.157
51671W        W22271  14.249  26.214  12.634
51672W        W22272  10.147  13.136   5.282
51673W        W22273  18.529  12.262   3.172
51674W        W22274  37.976  15.570  13.106
51675W        W22275  38.790  37.812   0.085
51676W        W22276   1.935  30.724   1.628
51677W        W22277  24.614  36.562   3.623
51678W        W22278  42.477  40.243  12.039
51679W        W22279   6.697   2.501   0.018
51680W        W22280  27.670  19.631  11.166
51681W        W22281  12.169  10.788  11.614
51682W        W22282  14.815  11.931  14.886
51683W        W22283  13.873  20.534  13.414
51684W        W22284  20.995  30.680   3.667
51685W        W22285  15.035  41.559  13.755
51686W        W22286  10.120  30.310  11.804
51687W        W22287  38.204  17.635  13.165
51688W        W22288   8.167  44.025  13.964
51689W        W22289  35.345  40.473   0.515
51690W        W22290  43.827  28.002  12.811
51691W        W22291  43.586  16.291   0.925
51692W        W22292  20.628  24.973   0.881
51693W        W22293  23.083   3.945  12.194
51694W        W22294  30.508  38.460   0.061
51695W        W22295  38.551   7.633  11.123
51696W        W22296  35.498  11.377   1.313
51697W        W22297   4.964   8.951  12.271
51698W        W22298  12.659  22.044   0.107
51699W        W22299  35.788  35.046  12.112
51700W        W22300  16.681  23.001   2.105
51701W        W22301  17.654   0.509  12.609
51702W        W22302  28.155  44.092  13.122
51703W        W22303  13.521   5.763  13.844
51704W        W22304  21.771  14.731   4.226
51705W        W22305  29.737   5.513   0.408
51706W        W22306  17.726  19.436   1.297
51707W        W22307  17.196  17.286  14.335
51708W        W22308  44.315   7.662   1.289
51709W        W22309  40.029   5.816  13.503
51710W        W22310  18.353  37.031   1.410
51711W        W22311  33.730  41.157   0.206
51712W        W22312   8.715  28.880   3.187
51713W        W22313  36.722   8.696  11.506
51714W        W22314  43.499  39.847   4.038
51715W        W22315  21.215  21.514  14.768
51716W        W22316  35.466  11.531   2.350
51717W        W22317  40.510  36.008   1.909
51718W        W22318   9.105   3.850  14.349
51719W        W22319  42.271  40.131   4.062
51720W        W22320  43.948  37.481   4.039
51721W        W22321  15.674  24.178   4.482
51722W        W22322  31.225  40.347   2.838
51723W        W22323  11.678   3.313  12.166
51724W        W22324  31.495  15.582   4.794
51725W        W22325   7.629  38.104  13.449
51726W        W22326   6.730  12.026   0.896
51727W        W22327   6.709  16.771   0.657
51728W        W22328  20.503  31.546  12.482
51729W        W22329  41.697   4.757   2.266
51730W        W22330  20.278  18.097  11.970
51731W        W22331  29.346  12.082   0.710
51732W        W22332  24.477   3.770   4.419
51733W        W22333  13.312  15.866   1.429
51734W        W22334  24.528  22.603  14.199
51735W        W22335  12.142  10.492   1.798
51736W        W22336  11.343  19.344  14.848
51737W        W22337   6.837   3.946   4.816
51738W        W22338  41.237  21.687   1.506
51739W        W22339  44.286   6.774   4.326
51740W        W22340  41.360  37.614  12.865
51741W        W22341  28.483  14.631   1.293
51742W        W22342  34.425  44.826   2.145
51743W        W22343  10.267  38.865  11.200
51744W        W22344   7.220  29.623   0.254
51745W        W22345  29.865  37.369  14.953
51746W        W22346  20.937  17.688  14.997
51747W        W22347  44.463  19.236  12.882
51748W        W22348  14.750  14.759   1.744
51749W        W22349   7.778  28.282  14.871
51750W        W22350  34.972   3.845   3.372
51751W        W22351  16.757  34.693   1.413
51752W        W22352  37.152  12.457   1.543
51753W        W22353  22.252  27.730   2.715
51754W        W22354  44.861  30.220  13.418
51755W        W22355  39.532  27.712  10.699
51756W        W22356  22.636  41.079  11.665
51757W        W22357  19.140  26.758  14.834
51758W        W22358  27.210  20.828  13.538
51759W        W22359   3.007  41.423  13.255
51760W        W22360  24.646  32.784  14.008
51761W        W22361   2.314  16.953   9.882
51762W        W22362  39.088   0.172   2.309
51763W        W22363  11.823   6.770  13.057
51764W        W22364  43.540  17.262   1.945
51765W        W22365  12.936  37.952  14.945
51766W        W22366  18.102  27.219   2.631
51767W        W22367  17.032  38.496  12.552
51768W        W22368   6.792  20.895  12.483
51769W        W22369  17.829  31.995  11.192
51770W        W22370  40.901  42.594  14.614
51771W        W22371   5.225  42.539   0.837
51772W        W22372  41.848  23.789   3.156
51773W        W22373  42.803  20.746   1.086
51774W        W22374   7.355  40.638  11.009
51775W        W22375  18.252  18.958  14.813
51776W        W22376  24.164  17.047  11.067
51777W        W22377   7.423   0.195   2.065
51778W        W22378  14.132  25.137   1.178
51779W        W22379   9.346  10.617  13.973
51780W        W22380  30.739  17.763  12.886
51781W        W22381  40.585  39.555   0.384
51782W        W22382  37.843  42.141   4.546
51783W        W22383  29.517  10.693   4.847
51784W        W22384  40.355   2.257   4.345
51785W        W22385   6.674  17.220  10.738
51786W        W22386  43.270   3.108  13.725
51787W        W22387  38.929  22.045  10.288
51788W        W22388  11.780  25.036   4.518
51789W        W22389  24.397  26.513  12.509
51790W        W22390  15.805  21.178   5.413
51791W        W22391  43.531  18.037  14.039
51792W        W22392  33.592  29.040  12.765
51793W        W22393  42.977   8.205  11.461
51794W        W22394  10.168  39.820  13.925
51795W        W22395  36.142   9.170   1.348
51796W        W22396  40.538  20.174   2.937
51797W        W22397   6.807  35.630   1.205
51798W        W22398  23.005   2.286   4.090
51799W        W22399   1.337  36.356  11.722
51800W        W22400  15.571   1.908  12.412
51801W        W22401  17.990  16.305  10.648
51802W        W22402   7.365   6.651  11.653
51803W        W22403  38.824  11.264  11.578
51804W        W22404  26.109  11.457  11.626
51805W        W22405  39.429  36.456  12.117
51806W        W22406  43.270   9.339  13.912
51807W        W22407  12.610  19.564   4.960
51808W        W22408  42.003  40.527  10.784
51809W        W22409  28.060  35.453   1.332
51810W        W22410   3.402  26.116   1.883
51811W        W22411  11.113  36.007   4.235
51812W        W22412  36.052  43.947   2.329
51813W        W22413  16.186  25.361  12.305
51814W        W22414  37.886   6.129   3.638
51815W        W22415   1.964  44.823  14.326
51816W        W22416  23.982  25.596   3.630
51817W        W22417  12.776  18.296  13.420
51818W        W22418  39.627  12.243   4.386
51819W        W22419  44.059  34.917   0.894
51820W        W22420   7.138  23.296  12.616
51821W        W22421  27.745  18.382   0.494
51822W        W22422  15.107  33.214   4.991
51823W        W22423   7.691   6.630  12.073
51824W        W22424  11.141  32.075  14.971
51825W        W22425   3.277  17.142  13.177
51826W        W22426   9.807  35.596  11.208
51827W        W22427  17.118  31.067  11.577
51828W        W22428  10.203  10.111   1.411
51829W        W22429  29.446  23.290  13.889
51830W        W22430  42.949  30.441  11.068
51831W        W22431  27.250  44.456  10.648
51832W        W22432  17.922   8.402   2.244
51833W        W22433   2.174  27.627  14.435
51834W        W22434  12.236  16.618  12.159
51835W        W22435  38.378   3.761  12.488
51836W        W22436  39.973  22.103  14.473
51837W        W22437  41.633  16.109  14.299
51838W        W22438   5.530  19.018   4.193
51839W        W22439  38.487   3.274   0.228
51840W        W22440  33.540  41.612   3.402
51841W        W22441  36.841  40.206  11.267
51842W        W22442  38.449  23.420   2.672
51843W        W22443  12.271   5.677  14.717
51844W        W22444   9.462  14.616   0.421
51845W        W22445  13.300  27.485   3.864
51846W        W22446  18.577  44.732  11.282
51847W        W22447   1.471  12.177  12.648
51848W        W22448  21.979  29.486  13.798
51849W        W22449  14.528  32.811  11.622
51850W        W22450  32.187   3.955   2.643
51851W        W22451   7.795  34.989  12.008
51852W        W22452  10.113  25.922   4.579
51853W        W22453  23.930  33.121   2.221
51854W        W22454  12.254  25.743  13.536
51855W        W22455  19.704  39.605   3.696
51856W        W22456  29.878  15.433   9.938
51857W        W22457  33.854  21.898  10.565
51858W        W22458  36.373  17.725  11.633
51859W        W22459   1.884   1.261  13.351
51860W        W22460  12.610  41.845  14.764
51861W        W22461  21.293  27.663   2.258
51862W        W22462  33.551  17.821  13.752
51863W        W22463  10.303  16.463   2.258
51864W        W22464  27.190  34.389   3.176
51865W        W22465  10.612  23.612   1.883
51866W        W22466  17.343  14.178   2.813
51867W        W22467  12.107  43.995   3.105
51868W        W22468  34.033  12.264   1.010
51869W        W22469   5.842  12.298  11.022
51870W        W22470  38.430  12.201  10.712
51871W        W22471  23.573  27.503  13.993
51872W        W22472  42.376  37.840  11.685
51873W        W22473  21.014   7.272  11.942
51874W        W22474  25.692   7.198  13.006
51875W        W22475   9.923  13.030  10.270
51876W        W22476  21.862  16.007   3.647
51877W        W22477  15.457  42.490   0.694
51878W        W22478   8.877  37.405   3.625
51879W        W22479  44.955  16.281  11.424
51880W        W22480   1.871  26.382   3.327
51881W        W22481  14.128  39.336   2.271
51882W        W22482   5.844   4.292   0.359
51883W        W22483  38.266  30.625  13.500
51884W        W22484  14.761  12.481   2.690
51885W        W22485  30.559  16.840  12.605
51886W        W22486  10.805  43.722   4.058
51887W        W22487   2.590  25.007  12.502
51888W        W22488  43.903  36.427  12.039
51889W        W22489   3.803  37.460  12.888
51890W        W22490  10.726  28.159  12.412
51891W        W22491  38.891   2.973  11.071
51892W        W22492  24.697  20.643  14.861
51893W        W22493   6.287  36.338   3.173
51894W        W22494  42.049  11.808   0.765
51895W        W22495   9.112  41.575   5.096
51896W        W22496  11.289   4.733  10.728
51897W        W22497  32.657  25.684  12.916
51898W        W22498  39.072  17.566  13.401
51899W        W22499  24.287   1.338   0.153
51900W        W22500  15.522   6.867   3.581
51901W        W22501  10.209  19.770   2.318
51902W        W22502  21.568  10.854  12.852
51903W        W22503  16.575  31.018   1.947
51904W        W22504  44.541  28.972   1.403
51905W        W22505  33.581  21.582  14.584
51906W        W22506  32.605  33.101   4.167
51907W        W22507   5.636   9.217   3.894
51908W        W22508   4.991  30.380   0.695
51909W        W22509   3.148  12.749   0.345
51910W        W22510  11.814  14.944  12.950
51911W        W22511   8.238  25.678   0.316
51912W        W22512  19.429  27.079   2.082
51913W        W22513  13.131  31.001  10.563
51914W        W22514  43.048  14.852   1.930
51915W        W22515  35.728  43.531   2.744
51916W        W22516  41.828  24.475   0.007
51917W        W22517   8.155  11.625  12.044
51918W        W22518  10.367  31.109   0.094
51919W        W22519  18.182  26.077   3.180
51920W        W22520  20.237  31.428  10.709
51921W        W22521   7.015   1.403   2.760
51922W        W22522   0.934  24.879   2.377
51923W        W22523   2.188  30.375  13.362
51924W        W22524  17.720  21.694   1.201
51925W        W22525   4.246  42.951   1.166
51926W        W22526  13.504   1.604   5.475
51927W        W22527  42.014  21.495  11.168
51928W        W22528  13.156  44.561  13.961
51929W        W22529   4.772   4.154  10.615
51930W        W22530  13.453  13.354   3.114
51931W        W22531   1.903   9.679   3.306
51932W        W22532  42.599  23.347   3.225
51933W        W22533   6.030  39.420  11.975
51934W        W22534  22.017  13.283  12.515
51935W        W22535  39.292  29.842  14.753
51936W        W22536  20.291  14.334  13.439
51937W        W22537   1.932  17.556  11.104
51938W        W22538  18.810  32.199  13.420
51939W        W22539  20.621  26.226   0.338
51940W        W22540   3.309  27.771  11.593
51941W        W22541   3.378  41.126   4.143
51942W        W22542  13.853  20.217   3.539
51943W        W22543  28.952  34.539   1.160
51944W        W22544  33.456  38.317   2.774
51945W        W22545   3.467  38.413  10.119
51946W        W22546  31.108  13.233   1.002
51947W        W22547   8.708  27.866  14.420
51948W        W22548  27.049  29.199   3.618
51949W        W22549   8.186  43.804   2.840
51950W        W22550   9.614  18.224   4.215
51951W        W22551  20.432   0.544  14.806
51952W        W22552  25.693   8.925   3.422
51953W        W22553   9.715   5.904   2.308
51954W        W22554  17.567  19.800  14.808
51955W        W22555   8.758  24.796  12.363
51956W        W22556   3.284   3.810   1.468
51957W        W22557  41.491   3.808  13.916
51958W        W22558   6.451   3.296  12.348
51959W        W22559  42.473  25.443  11.640
51960W        W22560   2.085  34.217   3.108
51961W        W22561  31.498  23.531   0.788
51962W        W22562  10.934   8.370   2.342
51963W        W22563  28.715  42.362  12.141
51964W        W22564   1.671  30.023   4.402
51965W        W22565  34.915  35.375   1.858
51966W        W22566   8.907  36.890  11.442
51967W        W22567  16.984  38.013  12.388
51968W        W22568  31.022  44.488   2.296
51969W        W22569  12.274   2.021   4.632
51970W        W22570  28.525   8.566   3.642
51971W        W22571  39.021  38.047  14.200
51972W        W22572  38.571   1.964   3.826
51973W        W22573  11.306  34.359  11.488
51974W        W22574  16.080  19.573  12.521
51975W        W22575  27.162  26.967  14.877
51976W        W22576  42.499   8.799   1.722
51977W        W22577  14.398   7.542  13.981
51978W        W22578  19.363   3.006   1.666
51979W        W22579  20.087  25.208  14.988
51980W        W22580   7.269  32.110  14.493
51981W        W22581  42.999  35.818   4.189
51982W        W22582  25.413  36.916  13.293
51983W        W22583  44.178  15.239   3.188
51984W        W22584  29.622  24.307  12.264
51985W        W22585  30.985   3.020   2.558
51986W        W22586  21.568  26.009   2.119
51987W        W22587  40.091  34.978   0.268
51988W        W22588  32.857   3.870  12.379
51989W        W22589  21.017   5.833   1.598
51990W        W22590  27.028   4.853  11.094
51991W        W22591   1.366  42.339  14.301
51992W        W22592  26.029  16.889   0.492
51993W        W22593  21.546  23.809  12.059
51994W        W22594  39.990  41.849   0.388
51995W        W22595  32.504  38.603  14.072
51996W        W22596  41.414  24.461  11.232
51997W        W22597  15.993  14.076   1.727
51998W        W22598  29.770   0.847   1.811
51999W        W22599  21.427  17.685  10.623
52000W        W22600  38.804  10.974   2.664
52001W        W22601   5.776   0.091   2.365
52002W        W22602  40.307  20.703  14.857
52003W        W22603  41.476  43.545  13.385
52004W        W22604  29.593  10.303   3.604
52005W        W22605   6.806   0.921  13.848
52006W        W22606  20.186  11.153  14.532
52007W        W22607  22.409   9.787  14.460
52008W        W22608  37.051   4.437  14.448
52009W        W22609  34.526  18.940  12.238
52010W        W22610   8.319  17.089   2.097
52011W        W22611   9.876   2.228  11.945
52012W        W22612   7.753  11.079   3.087
52013W        W22613  35.523  10.463  11.684
52014W        W22614   5.761  28.435   1.379
52015W        W22615  14.072   6.406  12.123
52016W        W22616  18.988  13.129  14.843
52017W        W22617   2.913   4.440   4.009
52018W        W22618  29.580  12.910   2.375
52019W        W22619   7.309  15.175  13.011
52020W        W22620   5.943  16.121   4.527
52021W        W22621   4.647  22.092  12.816
52022W        W22622  12.823  16.023  11.136
52023W        W22623  43.266   5.716  11.835
52024W        W22624  30.078   7.188   2.848
52025W        W22625  30.998  37.376   0.689
52026W        W22626  15.168   7.838  14.996
52027W        W22627  20.911  19.451   2.258
52028W        W22628  41.387   1.124   1.661
52029W        W22629  30.328  23.463  11.102
52030W        W22630   0.189  40.897  11.887
52031W        W22631  26.900  25.587   3.193
52032W        W22632  29.851   5.243   2.918
52033W        W22633  20.546  22.321   0.985
52034W        W22634   7.664  37.662   0.800
52035W        W22635  42.608   3.719  11.190
52036W        W22636  12.224  33.862   4.841
52037W        W22637  30.539  15.671   3.320
52038W        W22638  37.427  29.871   0.346
52039W        W22639   5.862   8.073   3.602
52040W        W22640  31.840  41.510  12.635
52041W        W22641  16.018   6.367  10.641
52042W        W22642  12.629  18.785  14.797
52043W        W22643  28.005  41.275  14.782
52044W        W22644  14.745  22.491  13.879
52045W        W22645  21.123  27.512  12.520
52046W        W22646   0.922  17.691  11.107
52047W        W22647   9.911  22.138   2.172
52048W        W22648   9.746  27.188   1.165
52049W        W22649   3.283  18.049   3.725
52050W        W22650  13.742  15.746  12.125
52051W        W22651  16.557  37.646   4.237
52052W        W22652  13.811  22.254  14.823
52053W        W22653  25.098  18.371   5.152
52054W        W22654   1.397   5.941  10.640
52055W        W22655  20.191  30.895   1.343
52056W        W22656  12.222  25.675   1.547
52057W        W22657   5.109  19.782   5.158
52058W        W22658  31.992  24.082   1.245
52059W        W22659   6.734   3.963  14.993
52060W        W22660  37.915   1.575  12.132
52061W        W22661  24.201   8.230   0.663
52062W        W22662  20.005  21.670   3.645
52063W        W22663  34.568   3.294   1.812
52064W        W22664  30.589  17.777   4.589
52065W        W22665   3.829  10.589   2.735
52066W        W22666  30.709  13.344   1.343
52067W        W22667  28.978  35.446   3.048
52068W        W22668  24.135  15.786  12.988
52069W        W22669  41.180  32.365   4.118
52070W        W22670  32.783   8.446   2.630
52071W        W22671  35.784   4.367  11.089
52072W        W22672  39.581   6.344   2.570
52073W        W22673  11.259   0.678  14.806
52074W        W22674  43.544   3.141   0.988
52075W        W22675  26.942   4.064  11.218
52076W        W22676  17.268  16.387  13.496
52077W        W22677   4.445  27.784  13.979
52078W        W22678  17.226  25.548  14.282
52079W        W22679  17.267  40.071  10.631
52080W        W22680  26.616  15.775  12.560
52081W        W22681  36.464   6.007   1.190
52082W        W22682  44.829  33.142  12.495
52083W        W22683  10.750  34.998  10.567
52084W        W22684   9.943  19.695  13.605
52085W        W22685   9.341  25.569  10.892
52086W        W22686  43.980  29.656   4.630
52087W        W22687  14.918  36.033  11.038
52088W        W22688  33.901  10.308   3.243
52089W        W22689  13.992  17.805   1.409
52090W        W22690  24.761   0.923  10.257
52091W        W22691  13.824   3.410   0.475
52092W        W22692  23.226  18.752  11.586
52093W        W22693  42.487  28.139   4.177
52094W        W22694  24.595   5.109  12.060
52095W        W22695   5.932  17.772   3.737
52096W        W22696  25.106  38.942   3.597
52097W        W22697  14.799   4.221  12.427
52098W        W22698   2.389   8.848   4.977
52099W        W22699  41.199  41.835   1.705
52100W        W22700  20.331   1.288  12.051
52101W        W22701  33.356  38.823   2.696
52102W        W22702  42.577  44.959  14.013
52103W        W22703  35.959  18.263  11.515
52104W        W22704  30.612  24.055  13.592
52105W        W22705  34.846  33.555  11.720
52106W        W22706  34.174  25.655   4.043
52107W        W22707  36.042   5.687  13.412
52108W        W22708  26.534  15.823  10.641
52109W        W22709  21.545  43.363   4.854
52110W        W22710  43.728  31.846   2.217
52111W        W22711  20.750  21.762  14.983
52112W        W22712  21.751   2.374   0.496
52113W        W22713  34.151  38.696   2.348
52114W        W22714  28.413  30.105  14.891
52115W        W22715  43.755  12.162   0.352
52116W        W22716  42.422   1.376  14.027
52117W        W22717  16.603   4.906   3.875
52118W        W22718  18.654   1.429   3.122
52119W        W22719   7.232   8.203  13.357
52120W        W22720  44.935   0.980  13.567
52121W        W22721  37.838  37.575   0.838
52122W        W22722  29.118  44.230   0.490
52123W        W22723  39.590   2.433  12.949
52124W        W22724  29.656  17.592   2.609
52125W        W22725  20.305   6.027  14.696
52126W        W22726  33.964   6.713   3.164
52127W        W22727   2.828  42.441   1.662
52128W        W22728  26.180  44.374   2.833
52129W        W22729   3.331   0.821   4.476
52130W        W22730  15.805  32.942   2.437
52131W        W22731  24.959  28.623  14.606
52132W        W22732   3.198   2.785  12.069
52133W        W22733  11.748  31.550  13.125
52134W        W22734  18.228  22.341   1.254
52135W        W22735  36.590   5.236  14.860
52136W        W22736  13.149  18.586   4.468
52137W        W22737  30.348  41.986   1.670
52138W        W22738  43.385   8.919  11.639
52139W        W22739  19.663  19.567   3.575
52140W        W22740  12.114  18.747  10.426
52141W        W22741  29.220  42.877   1.518
52142W        W22742  34.425  37.281   3.805
52143W        W22743  25.087  28.270  14.998
52144W        W22744  20.598  20.290  11.909
52145W        W22745  23.059  38.336  10.763
52146W        W22746  38.305  40.918   4.713
52147W        W22747   0.872  29.135   1.960
52148W        W22748  38.450   6.339  14.005
52149W        W22749  27.648   7.238   4.261
52150W        W22750   1.159  17.480  10.707
52151W        W22751   3.344  15.525   5.032
52152W        W22752  22.965  31.164   2.735
52153W        W22753  12.188  39.781  14.327
52154W        W22754   1.173  23.936   1.225
52155W        W22755  43.171   7.021   2.225
52156W        W22756  14.815  33.678  12.849
52157W        W22757  38.844  27.483  13.406
52158W        W22758  18.493  37.597   3.380
52159W        W22759  33.790   5.218   3.193
52160W        W22760   8.804  39.982  12.788
52161W        W22761  43.968   9.296  12.417
52162W        W22762  19.769  15.705   3.183
52163W        W22763  19.129  36.367   2.372
52164W        W22764  20.217  22.136   2.330
52165W        W22765  40.519  44.767  12.040
52166W        W22766   1.554  37.753   4.641
52167W        W22767   7.944  36.501   3.555
52168W        W22768  36.833  20.181   2.323
52169W        W22769  21.680  20.808   3.730
52170W        W22770  42.804  41.554   2.755
52171W        W22771  14.898  29.178  11.548
52172W        W22772  44.566  42.205   4.187
52173W        W22773  25.615  39.428   0.989
52174W        W22774  32.856  30.963  12.020
52175W        W22775   9.202  12.757  14.353
52176W        W22776  23.001   7.133   3.847
52177W        W22777  36.149  43.980   0.298
52178W        W22778  43.737  28.624   1.260
52179W        W22779  22.695   9.100  13.858
52180W        W22780   4.672  41.362   1.811
52181W        W22781  28.998  30.846   0.013
52182W        W22782   4.751   1.839   2.683
52183W        W22783  20.561  29.379   1.024
52184W        W22784  26.671  40.564  12.017
52185W        W22785  18.758  18.477   4.144
52186W        W22786  31.368   6.939   2.507
52187W        W22787  34.254  17.452  14.208
52188W        W22788   1.413   5.560  13.970
52189W        W22789   1.531  41.586   1.860
52190W        W22790  44.359   0.238   0.054
52191W        W22791   0.764  18.647   0.833
52192W        W22792  10.262  43.910  11.388
52193W        W22793  23.512   5.345   3.716
52194W        W22794  11.872  15.810  14.929
52195W        W22795  35.416  42.266   1.828
52196W        W22796   4.827   6.665   1.738
52197W        W22797  25.494   5.736   2.715
52198W        W22798  34.612  17.972  13.601
52199W        W22799  18.387  13.577   4.970
52200W        W22800   9.360   1.680  11.515
52201W        W22801   5.493  34.286  11.713
52202W        W22802  15.328  36.319   1.385
52203W        W22803  24.312   2.239  13.977
52204W        W22804  21.920   8.761   1.422
52205W        W22805  16.788  25.941   3.203
52206W        W22806   6.441  27.936  11.753
52207W        W22807  13.348  12.617  14.261
52208W        W22808  13.430  14.919  12.504
52209W        W22809  20.046  33.326   0.846
52210W        W22810  15.638  26.167   4.778
52211W        W22811   8.509   8.967   0.894
52212W        W22812  18.589  33.504   0.347
52213W        W22813  34.425  10.348   0.795
52214W        W22814   4.738  39.768   0.817
52215W        W22815  29.697  34.042   1.329
52216W        W22816  13.093  24.479  12.321
52217W        W22817  35.468  14.005   1.353
52218W        W22818  15.119  22.078   1.838
52219W        W22819  12.308  23.278  10.645
52220W        W22820  18.112  30.905   3.245
52221W        W22821  33.057  40.988  11.136
52222W        W22822  37.950   3.266   4.278
52223W        W22823  16.491  18.655  13.883
52224W        W22824  28.058  15.790   4.226
52225W        W22825  10.412  40.552  11.782
52226W        W22826  21.145   2.009   2.949
52227W        W22827  41.276  18.674  13.549
52228W        W22828   1.132  10.411  13.322
52229W        W22829  17.690  23.238   3.181
52230W        W22830  22.719  44.674   2.451
52231W        W22831  17.146  30.560   3.647
52232W        W22832  28.412  11.315  12.279
52233W        W22833  18.363  26.698  11.331
52234W        W22834  19.636   8.223  14.016
52235W        W22835  13.863  44.691  13.034
52236W        W22836  38.892  12.673  11.213
52237W        W22837   8.720   6.406  13.000
52238W        W22838  34.037  36.760   1.234
52239W        W22839  36.859   4.514   1.838
52240W        W22840   2.939  27.476  11.410
52241W        W22841  22.066  14.642   0.997
52242W        W22842  30.988  33.364  13.805
52243W        W22843   5.392  14.052   1.423
52244W        W22844  38.061  12.861  14.320
52245W        W22845  21.985  44.820  12.515
52246W        W22846  21.655  12.598  12.104
52247W        W22847  43.921  21.168   1.335
52248W        W22848  10.369  34.316   1.266
52249W        W22849  40.755  39.860  10.476
52250W        W22850  40.377  12.180  13.317
52251W        W22851  28.118   8.089  12.993
52252W        W22852  35.025  43.510   2.177
52253W        W22853   9.249  41.455   3.773
52254W        W22854   6.947  39.750  13.506
52255W        W22855  24.263  22.279   1.400
52256W        W22856  43.713  29.216  14.839
52257W        W22857  42.838  29.499  10.727
52258W        W22858  19.820   0.110   0.134
52259W        W22859  14.844  19.936   0.419
52260W        W22860   4.751  32.300  13.870
52261W        W22861  41.309  14.138   2.426
52262W        W22862  21.306  24.062  11.366
52263W        W22863  44.022  31.427   3.113
52264W        W22864   2.558  11.734  14.584
52265W        W22865  15.389  19.419  10.051
52266W        W22866  26.240   7.394   1.460
52267W        W22867  42.549  29.104   0.514
52268W        W22868  42.442  12.893   4.518
52269W        W22869  36.602  24.560  11.927
52270W        W22870   6.865  37.428  11.980
52271W        W22871  10.289  36.931   1.193
52272W        W22872   6.206  30.620  14.227
52273W        W22873   4.547  30.418   3.175
52274W        W22874  11.762  21.404  10.507
52275W        W22875   6.265   5.981  13.397
52276W        W22876  32.407   4.778   2.306
52277W        W22877  30.671   6.468   2.805
52278W        W22878  17.087  44.437  11.913
52279W        W22879  43.109   4.141  12.138
52280W        W22880   9.824   4.891   4.400
52281W        W22881  38.328   8.707   1.024
52282W        W22882   6.348  14.096   3.824
52283W        W22883  41.306   8.830   1.099
52284W        W22884  35.754  40.746   0.254
52285W        W22885  37.840  20.486   4.721
52286W        W22886  28.180  16.557  14.298
52287W        W22887  17.550  39.422  10.667
52288W        W22888  23.177  21.302   3.178
52289W        W22889  32.387  13.927   3.659
52290W        W22890  19.018  18.836  12.699
52291W        W22891   8.845  31.430  14.789
52292W        W22892  36.530  38.535  14.281
52293W        W22893  27.335   7.599  11.203
52294W        W22894  18.064  17.310   4.400
52295W        W22895  43.408  23.532   4.162
52296W        W22896  19.635   7.066   4.060
52297W        W22897  33.824   6.041  14.171
52298W        W22898  22.577  20.712  12.669
52299W        W22899  37.586   5.193  14.910
52300W        W22900  28.116   4.990  13.046
52301W        W22901  35.836   9.313   1.733
52302W        W22902  25.062  41.391   2.427
52303W        W22903  13.145  33.216  13.453
52304W        W22904  10.017   8.868   5.062
52305W        W22905  27.230   0.005  11.998
52306W        W22906   5.638   9.615  12.967
52307W        W22907   0.810  40.513   3.475
52308W        W22908  24.079  15.620  14.377
52309W        W22909  25.514  24.628   1.311
52310W        W22910  38.951  27.139   2.881
52311W        W22911  32.038   4.704  10.777
52312W        W22912   8.454  13.052   2.208
52313W        W22913  28.649   6.432  14.948
52314W        W22914  40.679  37.861  11.750
52315W        W22915  35.638  39.390   0.773
52316W        W22916   0.889  29.369   4.175
52317W        W22917  43.492  17.221   0.458
52318W        W22918  39.800  23.476   0.426
52319W        W22919  24.131  16.914   4.064
52320W        W22920  36.006  27.158   3.425
52321W        W22921  21.095  41.508   0.546
52322W        W22922  44.774  14.756   4.737
52323W        W22923  11.886  15.133   2.460
52324W        W22924  31.991  28.208  12.522
52325W        W22925   3.176  37.537  11.903
52326W        W22926   0.411  10.350  12.296
52327W        W22927  15.387  34.907   2.543
52328W        W22928  18.748   9.636  13.388
52329W        W22929  12.366  42.227   1.451
52330W        W22930  39.283   1.648  14.876
52331W        W22931  18.081  22.773   4.108
52332W        W22932  17.686  15.267  13.901
52333W        W22933  30.580  32.218   3.685
52334W        W22934  22.762   7.834  11.524
52335W        W22935   2.232   3.861  11.475
52336W        W22936  15.893   0.145  14.548
52337W        W22937   4.770  31.870   0.077
52338W        W22938  18.630  43.277  11.573
52339W        W22939  14.319  30.438  14.884
52340W        W22940  35.987  27.092   1.941
52341W        W22941   4.916   0.716   3.740
52342W        W22942  31.605  31.932  12.852
52343W        W22943  30.924   1.903  10.336
52344W        W22944   3.688  27.082   1.730
52345W        W22945  14.706  44.691  10.744
52346W        W22946   6.718  17.761   2.336
52347W        W22947  12.346  18.748   1.666
52348W        W22948  12.190  41.510   3.280
52349W        W22949  22.687  16.231   2.773
52350W        W22950  20.565  23.652  14.417
52351W        W22951  29.601  44.448   4.538
52352W        W22952  43.830   0.269   4.070
52353W        W22953   0.911  35.754  13.434
52354W        W22954  15.236  19.024   2.358
52355W        W22955  31.186  32.528   4.369
52356W        W22956  14.274  27.607  12.840
52357W        W22957  27.193  17.012   4.172
52358W        W22958  28.482  39.006  13.442
52359W        W22959  19.566   5.154   2.263
52360W        W22960   0.483  37.343   0.368
52361W        W22961  38.893  24.475   2.349
52362W        W22962  11.538  29.864  10.134
52363W        W22963  24.480  25.659   4.524
52364W        W22964  15.164  13.529   3.092
52365W        W22965  44.921  15.171   0.779
52366W        W22966  13.685  36.612  10.927
52367W        W22967  23.264  31.090  13.381
52368W        W22968  13.810  12.375  12.460
52369W        W22969  34.185  36.671   0.460
52370W        W22970  34.062  26.493  12.617
52371W        W22971   4.466  19.223  14.661
52372W        W22972  28.397  10.315  11.553
52373W        W22973  30.290   5.463   0.467
52374W        W22974  24.181  20.069  11.960
52375W        W22975  30.162  38.599   4.557
52376W        W22976  15.766   8.571  13.266
52377W        W22977   2.201  29.205   2.189
52378W        W22978  38.923   1.478  13.683
52379W        W22979  28.592  38.563   2.265
52380W        W22980  24.292   7.166  13.040
52381W        W22981  27.184  32.350  13.915
52382W        W22982  41.378   4.894  12.168
52383W        W22983   7.724   0.930  11.938
52384W        W22984  31.969  37.243  12.847
52385W        W22985  12.388  44.255  11.570
52386W        W22986  29.117  42.289   1.937
52387W        W22987  12.458  27.516  11.113
52388W        W22988   1.006  16.829   1.128
52389W        W22989  10.449  22.128   2.160
52390W        W22990  16.870  19.826   2.781
52391W        W22991  28.055   6.281   0.880
52392W        W22992  38.897   3.925  11.970
52393W        W22993  35.955  19.440  11.828
52394W        W22994  41.137  10.792  13.269
52395W        W22995  28.366  28.951  13.810
52396W        W22996  43.181  20.971   2.808
52397W        W22997  20.658  12.048  12.971
52398W        W22998   6.354  29.058  12.509
52399W        W22999  24.682  13.116  12.473
52400W        W23000  32.580  38.846   1.436
52401W        W23001  30.913  23.965  12.415
52402W        W23002  19.394  30.944   3.484
52403W        W23003   5.495  34.551   3.185
52404W        W23004  44.883   5.531  11.482
52405W        W23005  44.241   1.084   0.421
52406W        W23006   9.353   4.671  11.194
52407W        W23007  16.344   6.020   1.878
52408W        W23008  19.860  37.851  11.133
52409W        W23009  43.632  33.956   1.414
52410W        W23010  40.265  37.256  14.762
52411W        W23011   3.983  44.756  11.463
52412W        W23012  37.065  10.096  11.958
52413W        W23013   9.878  15.768  14.816
52414W        W23014  42.057  23.310   3.146
52415W        W23015   8.785  14.244   4.651
52416W        W23016  33.570  24.512  13.755
52417W        W23017  30.383  19.628   1.033
52418W        W23018  17.384  43.288  13.764
52419W        W23019   4.914  36.550  11.901
52420W        W23020  17.037  43.890   1.810
52421W        W23021   6.767  44.009   4.331
52422W        W23022  22.263   0.832  10.785
52423W        W23023  12.392  38.679   3.341
52424W        W23024  16.001  10.102   4.077
52425W        W23025  18.250  35.978   0.454
52426W        W23026   4.333  38.573   5.206
52427W        W23027   4.725  14.666  14.420
52428W        W23028  44.918  36.310  12.439
52429W        W23029   0.722   6.414  10.373
52430W        W23030  29.451  42.703   1.983
52431W        W23031  13.130   0.816  13.123
52432W        W23032  10.850  27.700  12.177
52433W        W23033  37.582  43.137  13.090
52434W        W23034  22.228  10.436   2.470
52435W        W23035  23.249  31.047  14.821
52436W        W23036  22.256   0.322   0.432
52437W        W23037  25.580  43.850  12.541
52438W        W23038  26.121   8.455  11.196
52439W        W23039  23.136  43.478  10.204
52440W        W23040  18.616   6.436   0.244
52441W        W23041  33.270  18.279   0.178
52442W        W23042  18.205  29.234  11.516
52443W        W23043  15.010   2.090   0.681
52444W        W23044  26.331   5.403   4.334
52445W        W23045  33.083  35.812   4.001
52446W        W23046   9.948  33.322   1.401
52447W        W23047  24.669  27.721   3.909
52448W        W23048  15.671  37.018   3.430
52449W        W23049  19.109  10.204  12.319
52450W        W23050   8.846  40.825  12.971
52451W        W23051   9.855  17.516   0.897
52452W        W23052  38.040  25.600  14.011
52453W        W23053   7.685  31.067  10.664
52454W        W23054  39.913  11.308  10.552
52455W        W23055   8.816  10.942   3.687
52456W        W23056  16.479  25.625   5.001
52457W        W23057  19.216   5.433   3.326
52458W        W23058  24.461  18.301   2.847
52459W        W23059  35.767   2.144   1.301
52460W        W23060  21.932  40.732  11.150
52461W        W23061  36.104  25.195  11.577
52462W        W23062  11.664   5.808   2.707
52463W        W23063  34.099  42.525  14.994
52464W        W23064  27.908  32.222   0.467
52465W        W23065   8.343  22.568  13.373
52466W        W23066  11.863  35.164   1.750
52467W        W23067  41.523  15.040  12.436
52468W        W23068  13.659  39.099  13.493
52469W        W23069  35.831  42.255   0.904
52470W        W23070  39.850  39.174   0.189
52471W        W23071  14.354  37.737  14.329
52472W        W23072  32.591   9.979   2.136
52473W        W23073   5.661  35.725   3.115
52474W        W23074   3.591  13.045   3.566
52475W        W23075  44.536  13.902  10.403
52476W        W23076  17.479   7.366   0.626
52477W        W23077   7.375  38.836   2.760
52478W        W23078  38.558  30.632  11.602
52479W        W23079  38.624  42.909   4.490
52480W        W23080  18.645  13.066   0.231
52481W        W23081  31.147  13.680  14.713
52482W        W23082  14.840  10.329   0.916
52483W        W23083  19.252   6.435  12.968
52484W        W23084  29.826   3.777  13.498
52485W        W23085  29.489   4.467   0.241
52486W        W23086  26.391  14.136   1.707
52487W        W23087  20.007  40.862   3.580
52488W        W23088  38.532  16.702   1.236
52489W        W23089  32.672  38.956   4.439
52490W        W23090   5.817  35.036   2.458
52491W        W23091  15.161   1.033  12.425
52492W        W23092   1.806  19.509   4.611
52493W        W23093  33.656  28.135   4.121
52494W        W23094   1.146  40.741   3.162
52495W        W23095  18.779  13.785   1.411
52496W        W23096  32.652  28.540   1.856
52497W        W23097  21.852   9.298   3.886
52498W        W23098  40.956  44.160  14.048
52499W        W23099  20.134  19.614   3.312
52500W        W23100   5.879  13.857  12.030
52501W        W23101  11.066  40.516   2.707
52502W        W23102  31.875  29.975   4.694
52503W        W23103   8.605  38.434  13.008
52504W        W23104  22.471   6.682   1.467
52505W        W23105  39.928  22.524  12.985
52506W        W23106  32.713  14.129  11.681
52507W        W23107  16.272  33.650  10.998
52508W        W23108  24.647  15.136   4.181
52509W        W23109   3.227   5.810  14.914
52510W        W23110   8.416   0.823   3.753
52511W        W23111  17.835   9.770   0.379
52512W        W23112  11.269  33.977   2.816
52513W        W23113  36.562  19.916  13.865
52514W        W23114   3.905  16.759  10.131
52515W        W23115  19.208  15.940  11.022
52516W        W23116  30.000  17.541  12.574
52517W        W23117  22.593  19.049  14.399
52518W        W23118  37.807  26.021   1.891
52519W        W23119  12.361  19.177  11.665
52520W        W23120   9.815   9.887  10.363
52521W        W23121  36.341   9.793  11.705
52522W        W23122   9.749  37.153   2.410
52523W        W23123  32.177  20.009   2.426
52524W        W23124  30.701  30.832  11.070
52525W        W23125  43.191  22.061   3.683
52526W        W23126  21.092   1.242  13.989
52527W        W23127  36.000  23.651  10.655
52528W        W23128  32.588  42.080  12.395
52529W        W23129  15.791  34.090   3.281
52530W        W23130  10.948  43.898  13.969
52531W        W23131  42.396   7.093   0.141
52532W        W23132  21.865   7.944   1.465
52533W        W23133   3.332  42.707   2.827
52534W        W23134  35.655  27.151   2.635
52535W        W23135  34.511   3.906   3.149
52536W        W23136  41.497   5.245  11.702
52537W        W23137  31.545  19.721  12.063
52538W        W23138  13.093   9.678  14.790
52539W        W23139   3.937  17.650  12.610
52540W        W23140  40.562  16.631   4.094
52541W        W23141   4.297  35.448   0.807
52542W        W23142  22.224  43.871   3.765
52543W        W23143  41.718  15.052  12.990
52544W        W23144  26.144  39.975   1.752
52545W        W23145   1.117   4.407   1.263
52546W        W23146  31.188  11.127  13.775
52547W        W23147  16.136  22.210   0.922
52548W        W23148   5.988  43.316   1.191
52549W        W23149  22.187  10.562   1.956
52550W        W23150  32.716   1.475   2.556
52551W        W23151  29.639  33.537  14.721
52552W        W23152   9.380  14.230  14.894
52553W        W23153  17.993  10.474  11.683
52554W        W23154  19.079  26.501   0.385
52555W        W23155  44.715  30.738  10.630
52556W        W23156  21.058  43.814  14.968
52557W        W23157  16.152  38.385   4.064
52558W        W23158  10.218   4.443  11.769
52559W        W23159  32.515  24.699   3.810
52560W        W23160   0.043  23.226  10.581
52561W        W23161  16.282  40.455  12.531
52562W        W23162  24.328   8.761  11.850
52563W        W23163  19.974  36.136  14.759
52564W        W23164  24.977  28.491   1.481
52565W        W23165   8.195  10.703  11.910
52566W        W23166  25.217  41.003   2.074
52567W        W23167  36.825  31.424  12.486
52568W        W23168  18.676   4.645   0.250
52569W        W23169   7.766  10.258  14.280
52570W        W23170  28.165   5.827   3.391
52571W        W23171   2.941  14.768  13.085
52572W        W23172  21.720  35.042  14.827
52573W        W23173  29.221  34.505   0.249
52574W        W23174  38.682  41.927  12.100
52575W        W23175   8.454  22.545  11.069
52576W        W23176  44.191   3.913  13.161
52577W        W23177  11.303  24.642   3.689
52578W        W23178   9.980  24.589   3.870
52579W        W23179  10.780  28.245  13.996
52580W        W23180  27.643  20.736   0.290
52581W        W23181  14.679  36.939  14.876
52582W        W23182  36.036  15.904   0.213
52583W        W23183  36.841   7.560  12.092
52584W        W23184  18.862   6.845   3.152
52585W        W23185  22.070  42.517  12.622
52586W        W23186   2.399  14.232   0.699
52587W        W23187  24.214  14.165  13.043
52588W        W23188   6.317  42.242   1.813
52589W        W23189  29.212  25.548   1.459
52590W        W23190  18.537  32.651   1.264
52591W        W23191  34.810  40.485   2.271
52592W        W23192  17.875   2.355  10.775
52593W        W23193  16.728  27.591   0.750
52594W        W23194  36.899  27.479  13.727
52595W        W23195  21.078   7.193   2.877
52596W        W23196  32.231  14.661  14.882
52597W        W23197  37.164  32.049   2.803
52598W        W23198  21.407   3.582   1.405
52599W        W23199  36.598  31.769  13.850
52600W        W23200   2.180  24.688  12.424
52601W        W23201  10.250  35.472  12.007
52602W        W23202   7.993   8.262  11.694
52603W        W23203   9.707  29.015   1.712
52604W        W23204  26.927  14.990  12.445
52605W        W23205  43.393   1.211   2.131
52606W        W23206   1.978  41.487   1.312
52607W        W23207   6.414   0.254   3.978
52608W        W23208  19.074   7.349   1.429
52609W        W23209   9.092  21.686   4.248
52610W        W23210  39.598  28.880   0.948
52611W        W23211  17.415  37.418   4.994
52612W        W23212  17.734  39.432  13.328
52613W        W23213  30.567  31.210  13.865
52614W        W23214   7.744   8.661   1.337
52615W        W23215  24.979  17.733   2.323
52616W        W23216  15.626  16.550   3.263
52617W        W23217  10.345  37.593  12.819
52618W        W23218  40.837   5.330   1.857
52619W        W23219  33.698  35.939   1.796
52620W        W23220   5.808  16.388   1.443
52621W        W23221  22.225   2.045  14.876
52622W        W23222  17.759  14.326   3.921
52623W        W23223   7.622   9.650  13.984
52624W        W23224   4.928  31.967   3.156
52625W        W23225  16.715  21.289   2.824
52626W        W23226  30.002  19.569   3.731
52627W        W23227  21.034  32.497   1.581
52628W        W23228  30.974   4.753   1.308
52629W        W23229  33.176  40.418   3.245
52630W        W23230  14.811  31.546   4.430
52631W        W23231  24.418   6.998  12.566
52632W        W23232  16.366   7.815   1.190
52633W        W23233  42.423  10.572   0.757
52634W        W23234   0.721  16.656  14.819
52635W        W23235   9.705  19.188   2.951
52636W        W23236  20.132  31.225   5.012
52637W        W23237  21.536  19.681  13.461
52638W        W23238  21.266  24.504   2.942
52639W        W23239  37.491   4.771   0.740
52640W        W23240  37.058  13.205   0.327
52641W        W23241  26.186  29.829   3.284
52642W        W23242   6.476  30.416  10.269
52643W        W23243  40.574   5.922   1.217
52644W        W23244  16.802  37.334   3.911
52645W        W23245  25.668  44.374  12.481
52646W        W23246   7.431  43.029   0.670
52647W        W23247  12.738   5.794  11.322
52648W        W23248  21.188  20.308   1.732
52649W        W23249   5.420  29.408   1.352
52650W        W23250  21.950  34.435   2.189
52651W        W23251   5.793  40.427  13.417
52652W        W23252  34.423  17.574  10.650
52653W        W23253   3.440  27.979   0.439
52654W        W23254  30.089  12.746   3.267
52655W        W23255  10.758  36.158  13.680
52656W        W23256   7.956  26.396   4.686
52657W        W23257  10.421  36.335   5.007
52658W        W23258   8.767  18.034  12.535
52659W        W23259   0.915   1.241   0.818
52660W        W23260  33.808   7.051   2.819
52661W        W23261  24.446  26.056   1.310
52662W        W23262  23.425  15.596  10.944
52663W        W23263  24.944  38.031   0.117
52664W        W23264   0.481  28.018  12.138
52665W        W23265  41.690  12.158   0.581
52666W        W23266   4.983  31.879  10.577
52667W        W23267  44.302  31.790   4.552
52668W        W23268  11.313   8.480  10.738
52669W        W23269   2.413  28.919   4.396
52670W        W23270  19.195  37.614   4.631
52671W        W23271  32.351  41.154   2.593
52672W        W23272  44.753  26.246   2.327
52673W        W23273   6.894  39.252  13.432
52674W        W23274  35.207  41.454  13.894
52675W        W23275   7.793  16.553   3.152
52676W        W23276  28.693   7.301   0.388
52677W        W23277  30.447  33.742  12.424
52678W        W23278  18.703  43.797  11.600
52679W        W23279  17.901  33.016   4.367
52680W        W23280  27.263  18.274  11.122
52681W        W23281  40.507  24.725  13.040
52682W        W23282  33.659  10.718   2.609
52683W        W23283  37.522  39.084   1.641
52684W        W23284  10.191  17.116   1.683
52685W        W23285  24.244  11.803   0.880
52686W        W23286  12.533   4.079   1.336
52687W        W23287  26.905  22.028   3.687
52688W        W23288  10.477  29.173   2.933
52689W        W23289  18.804  20.917   3.396
52690W        W23290  15.092  41.032  12.671
52691W        W23291  20.645  37.950  14.304
52692W        W23292  11.623  25.979  11.499
52693W        W23293  32.491  15.084   0.307
52694W        W23294  11.724  26.428   4.714
52695W        W23295   8.954  36.588  13.020
52696W        W23296   4.669  29.352   2.648
52697W        W23297  20.498   9.219  11.570
52698W        W23298  20.696  37.111   3.335
52699W        W23299  30.669  30.031   2.331
52700W        W23300  16.558  20.918  10.804
52701W        W23301   7.322  13.791   2.320
52702W        W23302  43.896   5.018   1.373
52703W        W23303  27.128   5.633   0.451
52704W        W23304  13.604  28.108   0.402
52705W        W23305   3.456  20.105   4.142
52706W        W23306  38.338   2.087   0.106
52707W        W23307   2.182   4.353  14.903
52708W        W23308   8.156  41.740  13.443
52709W        W23309  36.380   9.683   4.353
52710W        W23310  38.286   2.257   4.154
52711W        W23311  13.095  18.073   2.807
52712W        W23312  24.673  22.570   3.241
52713W        W23313  14.092  20.786   1.257
52714W        W23314   1.063  37.959  12.961
52715W        W23315  12.547  44.793   1.815
52716W        W23316  27.492  17.662   1.733
52717W        W23317  29.625  36.559  12.860
52718W        W23318  15.946  15.551   4.123
52719W        W23319  16.791  36.461   1.370
52720W        W23320  20.824  11.929   2.789
52721W        W23321  37.133   8.266  13.645
52722W        W23322  17.595  21.465  10.388
52723W        W23323  19.224   9.091   2.374
52724W        W23324  27.719  23.135  10.780
52725W        W23325  10.366  15.161  13.724
52726W        W23326  25.730  23.006   2.312
52727W        W23327  41.856  32.055  14.735
52728W        W23328  29.943  34.319   0.801
52729W        W23329  10.292  21.326   0.865
52730W        W23330  12.630  23.808  14.330
52731W        W23331  27.364  38.866  14.532
52732W        W23332   2.456   0.332   0.147
52733W        W23333  18.173  18.514  14.551
52734W        W23334  10.863   0.414   0.754
52735W        W23335  34.863  30.561  11.065
52736W        W23336   5.040   4.252  12.087
52737W        W23337   8.848  20.826  13.860
52738W        W23338   0.018  44.689  11.341
52739W        W23339   5.699   8.691   4.990
52740W        W23340   3.128  30.206   3.490
52741W        W23341  20.554   6.875  10.801
52742W        W23342  29.693  33.607  12.925
52743W        W23343  29.625  23.703   2.768
52744W        W23344   7.345  35.115   2.711
52745W        W23345   2.862  27.137   4.747
52746W        W23346  35.709  29.396  11.907
52747W        W23347  18.229  40.956  12.396
52748W        W23348  11.779   4.462  12.897
52749W        W23349  40.332  34.586  12.434
52750W        W23350  15.814  22.745  14.457
52751W        W23351   1.438   3.325  11.175
52752W        W23352  35.366  17.578  13.518
52753W        W23353  29.587  27.269  13.601
52754W        W23354  44.495  16.036   4.792
52755W        W23355  10.747   9.038  11.132
52756W        W23356   7.119  23.095   4.144
52757W        W23357  38.915  20.412   4.114
52758W        W23358  18.164  34.613  12.427
52759W        W23359  10.706  25.668  10.988
52760W        W23360   6.717   7.658   3.770
52761W        W23361  28.487  44.790   0.806
52762W        W23362   1.034  38.394   1.939
52763W        W23363  43.371  21.053  11.500
52764W        W23364  42.555  35.163   4.506
52765W        W23365  19.171  36.528  13.100
52766W        W23366  17.227  13.260   2.795
52767W        W23367   7.498  26.956   1.876
52768W        W23368  31.983  30.165  14.700
52769W        W23369  17.222  12.699  14.765
52770W        W23370   1.915  21.532  14.698
52771W        W23371  13.981  11.170   5.125
52772W        W23372   6.467  29.706   4.214
52773W        W23373  11.099  31.417  11.061
52774W        W23374  10.739   2.178   1.372
52775W        W23375   3.423  44.208  14.867
52776W        W23376   7.990  40.383  13.965
52777W        W23377  28.653  18.615  11.519
52778W        W23378  40.644  35.009  14.412
52779W        W23379  19.612  30.183   2.740
52780W        W23380  22.300  16.141  11.639
52781W        W23381  32.111  34.775  14.421
52782W        W23382  27.676  31.807   5.041
52783W        W23383  28.660  13.568  11.849
52784W        W23384  28.189   7.308   3.319
52785W        W23385   4.980   7.855   1.786
52786W        W23386  17.233  40.433   3.312
52787W        W23387   1.680  42.745  11.824
52788W        W23388  13.191   0.588   4.940
52789W        W23389  37.911   3.527  13.404
52790W        W23390  34.423   4.004  11.134
52791W        W23391   5.125   9.383   0.714
52792W        W23392  26.150  35.896  11.043
52793W        W23393  16.791  44.301   2.040
52794W        W23394  41.561  41.329   0.877
52795W        W23395   5.535  24.205  13.920
52796W        W23396  26.586   0.672   2.611
52797W        W23397  38.549  27.454  14.942
52798W        W23398   9.808  26.736  10.587
52799W        W23399  39.598  35.507  11.263
52800W        W23400   1.568  44.313   1.525
52801W        W23401  14.178  13.921   3.276
52802W        W23402  11.151  34.165   2.174
52803W        W23403  40.813  32.637  12.288
52804W        W23404   4.943   9.924  11.137
52805W        W23405  43.789  43.514   0.500
52806W        W23406  14.338  12.606  13.871
52807W        W23407  41.234   8.735   2.034
52808W        W23408  28.724   2.386   0.894
52809W        W23409  34.580  38.401  14.251
52810W        W23410  39.082   5.409   3.776
52811W        W23411  40.649  21.088  13.040
52812W        W23412  13.507  17.369  14.863
52813W        W23413  40.883  42.441   0.804
52814W        W23414  23.920  43.817   0.685
52815W        W23415  41.727  19.203  12.437
52816W        W23416  38.952  40.471   3.271
52817W        W23417  36.872   3.915  10.994
52818W        W23418  36.450  28.864  11.173
52819W        W23419  34.057  15.253   4.441
52820W        W23420  33.612  44.016  12.936
52821W        W23421  38.324  37.943   2.212
52822W        W23422  40.113  33.543   2.739
52823W        W23423  41.926   0.657  14.716
52824W        W23424  44.489  37.350  14.007
52825W        W23425  21.932  27.004  14.518
52826W        W23426   7.624  26.054   3.149
52827W        W23427  18.536  28.770   1.348
52828W        W23428  24.214  42.719   1.260
52829W        W23429   8.435  30.007  13.458
52830W        W23430  26.602  33.875  11.497
52831W        W23431  25.797   7.836  11.949
52832W        W23432   6.349   4.685  14.288
52833W        W23433   9.669  22.491   3.538
52834W        W23434  27.312  27.956   4.856
52835W        W23435  27.936  18.518   4.409
52836W        W23436  43.308  37.394  14.025
52837W        W23437  38.395  33.906  14.644
52838W        W23438  27.548  26.199   1.284
52839W        W23439  26.241   0.691   0.455
52840W        W23440  41.327  29.269  13.536
52841W        W23441  19.368  24.968  13.097
52842W        W23442  20.642  42.758   1.249
52843W        W23443  14.206   3.307  14.666
52844W        W23444  38.463  27.681  11.339
52845W        W23445   6.401  10.663   1.502
52846W        W23446   3.752  15.831   4.864
52847W        W23447  31.147   1.389   3.375
52848W        W23448   0.364  26.294   0.273
52849W        W23449  14.715   6.934  11.085
52850W        W23450  36.985   5.914   0.923
52851W        W23451   0.277   7.190   4.767
52852W        W23452  23.711  43.136  12.823
52853W        W23453  33.251  23.452  13.156
52854W        W23454   5.853  30.339   1.235
52855W        W23455   8.072  43.002   4.553
52856W        W23456   3.385   9.130   0.389
52857W        W23457  44.254  39.377   2.395
52858W        W23458  42.878  23.623   4.374
52859W        W23459  32.048  32.221  11.661
52860W        W23460  37.855   1.018   3.555
52861W        W23461  11.682  43.574   3.804
52862W        W23462   1.376  37.874   0.391
52863W        W23463  26.100  16.883  12.430
52864W        W23464   8.226  26.227  14.445
52865W        W23465   1.928   9.320  14.949
52866W        W23466   5.707  17.125  14.842
52867W        W23467  37.013  31.613   3.254
52868W        W23468  23.131  27.971  11.455
52869W        W23469  21.176  23.593   4.442
52870W        W23470  30.073  21.416  13.546
52871W        W23471  10.186  10.670   0.215
52872W        W23472  36.903  10.348  13.352
52873W        W23473  26.569  42.844  12.481
52874W        W23474  23.481   0.650   3.601
52875W        W23475   9.821  34.030   2.925
52876W        W23476  16.262  11.235   4.574
52877W        W23477  28.369  27.438   4.194
52878W        W23478  23.290  10.985   5.166
52879W        W23479  12.994   7.703   2.359
52880W        W23480   5.447  21.831  11.148
52881W        W23481  28.368   1.477  11.179
52882W        W23482  36.586  11.379   3.739
52883W        W23483  18.315  22.484  11.160
52884W        W23484   3.500  17.214   4.195
52885W        W23485   6.757   8.878  14.929
52886W        W23486  30.509  20.144   0.960
52887W        W23487  43.291  20.203   0.361
52888W        W23488  14.227  39.285   3.579
52889W        W23489  16.101  43.840  12.366
52890W        W23490  28.593  26.833   3.331
52891W        W23491  32.973   2.229  11.095
52892W        W23492  18.185   8.692  10.808
52893W        W23493  39.406  39.162   1.337
52894W        W23494   2.171  12.688   4.174
52895W        W23495  21.266  39.507  12.075
52896W        W23496   3.973  30.027  13.599
52897W        W23497   8.153  38.735  13.313
52898W        W23498  39.616  23.627  13.043
52899W        W23499  23.666   3.683   4.683
52900W        W23500   5.514  35.117  13.497
52901W        W23501   6.330  40.035  13.047
52902W        W23502   5.335  27.444   0.303
52903W        W23503  14.672  38.943  10.062
52904W        W23504  15.576   5.899   2.598
52905W        W23505  41.911  38.924   4.588
52906W        W23506  31.577  27.686   2.799
52907W        W23507   8.455  23.532   0.450
52908W        W23508  25.517  15.581   0.305
52909W        W23509  34.001   8.479  14.264
52910W        W23510  38.409  35.629   1.565
52911W        W23511  18.195  36.840  14.299
52912W        W23512  14.835  34.475   3.190
52913W        W23513  10.223  13.218   1.733
52914W        W23514  15.097   7.571  11.547
52915W        W23515  22.141  10.014   2.778
52916W        W23516  14.311  26.133   4.187
52917W        W23517  11.756   6.181  10.792
52918W        W23518  22.775  30.182   1.723
52919W        W23519   1.344  11.773  10.483
52920W        W23520  42.869  29.838  12.938
52921W        W23521  27.513  10.348   0.254
52922W        W23522   5.275   0.742   4.099
52923W        W23523  37.467   8.270  11.895
52924W        W23524  14.659   6.183   4.624
52925W        W23525  31.596  40.773  12.168
52926W        W23526  42.540  39.967  14.879
52927W        W23527  44.882  32.067  14.291
52928W        W23528  14.051  24.961   0.304
52929W        W23529  28.503   0.282  11.495
52930W        W23530   9.121  11.702  14.355
52931W        W23531  42.191  10.320  14.795
52932W        W23532  39.056  15.016   2.864
52933W        W23533  38.902  14.618  14.472
52934W        W23534  34.181  38.103   0.500
52935W        W23535  25.023  31.556  14.913
52936W        W23536  17.020  17.109  13.031
52937W        W23537  29.624  35.601  12.871
52938W        W23538  19.258  32.671   2.904
52939W        W23539  39.008  26.489   9.948
52940W        W23540   9.096  33.116   3.425
52941W        W23541   8.489  24.664   1.267
52942W        W23542  33.472  36.066   1.329
52943W        W23543  28.826  44.285  14.378
52944W        W23544  25.985   1.289  10.971
52945W        W23545  38.367  10.553   1.692
52946W        W23546  18.045  38.442  10.950
52947W        W23547   9.826  20.740  12.842
52948W        W23548  17.098  44.970  11.942
52949W        W23549  34.893  12.329  14.404
52950W        W23550   2.282  35.851  11.643
52951W        W23551  21.407  35.395   2.317
52952W        W23552  41.546  38.884  10.529
52953W        W23553  32.206  18.770   2.666
52954W        W23554  13.622   6.465   4.183
52955W        W23555   3.579  35.232   5.178
52956W        W23556  21.630  13.067   0.357
52957W        W23557  35.062   8.760   2.828
52958W        W23558  22.597  24.681  13.397
52959W        W23559  22.872  41.236  12.126
52960W        W23560  24.578  29.721  13.569
52961W        W23561  21.216  19.065   2.629
52962W        W23562  16.303  44.305   1.862
52963W        W23563  28.935   0.443  12.324
52964W        W23564  44.795  39.240   0.797
52965W        W23565  31.678  15.299  13.960
52966W        W23566  41.216  10.900  12.388
52967W        W23567  20.111  44.866  12.140
52968W        W23568  29.410  18.214   3.704
52969W        W23569  33.424   8.832   0.464
52970W        W23570  36.278  43.015   3.185
52971W        W23571  24.523   0.709  12.967
52972W        W23572  35.711  11.096  13.091
52973W        W23573  40.008  12.631   0.076
52974W        W23574   3.818   4.124  13.023
52975W        W23575  35.574  25.303  11.586
52976W        W23576   3.656  27.518   0.530
52977W        W23577  42.376   9.830  12.916
52978W        W23578  21.671   2.492   3.828
52979W        W23579   6.695  37.919  12.425
52980W        W23580  25.536  27.666  13.834
52981W        W23581   0.850  25.731   3.664
52982W        W23582   6.646   1.416   1.343
52983W        W23583  10.743  20.147   0.765
52984W        W23584  44.328  35.493   0.424
52985W        W23585  36.879  10.631  12.549
52986W        W23586  34.888  15.885   2.602
52987W        W23587  11.375  22.135  14.446
52988W        W23588  41.870  39.053  12.137
52989W        W23589  44.734  19.758   0.491
52990W        W23590  17.557  15.702  12.390
52991W        W23591  33.197  26.373  12.427
52992W        W23592   7.237  12.764  10.509
52993W        W23593  32.761  39.232  11.160
52994W        W23594  43.588  19.446  12.110
52995W        W23595  17.399  11.117   0.504
52996W        W23596   6.464  38.865   4.186
52997W        W23597  22.301   8.678   3.620
52998W        W23598  41.221   0.292  14.827
52999W        W23599  25.525   2.512  13.356
53000W        W23600  35.986  38.357  13.562
53001W        W23601  14.731   2.744   1.310
53002W        W23602  40.351   7.776   0.415
53003W        W23603   3.322  19.199   3.853
53004W        W23604   7.234  22.236  12.460
53005W        W23605  25.343   8.859  10.178
53006W        W23606   7.157   8.735  13.022
53007W        W23607   8.897  25.948   3.924
53008W        W23608   3.805  28.000   1.405
53009W        W23609  29.590   5.335  13.974
53010W        W23610  39.938  22.775  13.851
53011W        W23611   5.304  42.772   4.179
53012W        W23612   4.572   5.834  14.897
53013W        W23613   9.225  25.468  10.404
53014W        W23614  15.560  40.817   4.160
53015W        W23615  43.714  43.255  11.962
53016W        W23616   3.492  11.442  14.969
53017W        W23617  26.098  40.260   1.300
53018W        W23618   3.253  29.044   0.195
53019W        W23619  25.539  40.019  11.963
53020W        W23620  15.555  25.164  14.968
53021W        W23621  19.187   6.437  11.652
53022W        W23622   5.814  32.490  10.707
53023W        W23623  38.506  30.501   4.814
53024W        W23624  13.823  26.576  10.736
53025W        W23625  10.217  21.245   2.368
53026W        W23626  39.868   6.130  12.781
53027W        W23627  30.390  34.189  14.912
53028W        W23628  16.032  27.434  11.306
53029W        W23629   4.502  30.430   0.108
53030W        W23630   1.769   9.184   4.227
53031W        W23631  19.037  11.600   2.225
53032W        W23632  15.871  23.202  14.204
53033W        W23633  18.103   6.376   3.248
53034W        W23634  21.972  15.297  12.441
53035W        W23635   0.480  27.225  11.404
53036W        W23636  17.044  22.963  11.141
53037W        W23637  11.466   9.325   3.605
53038W        W23638  24.835  42.408   4.763
53039W        W23639   1.502  26.567  11.144
53040W        W23640  32.535  10.472   2.125
53041W        W23641  23.051  28.062   3.944
53042W        W23642   7.727  34.988  12.540
53043W        W23643   3.872   6.670   0.640
53044W        W23644  19.533  24.861   1.393
53045W        W23645  10.143  16.970   4.080
53046W        W23646  37.635  10.341   0.967
53047W        W23647   9.605   2.747   1.832
53048W        W23648   5.259  42.752  13.812
53049W        W23649   3.830  44.590   0.647
53050W        W23650  18.098  37.330   3.189
53051W        W23651  13.777  26.155   2.605
53052W        W23652  36.701  23.204   1.389
53053W        W23653  41.558   5.197  14.743
53054W        W23654   6.858   7.322   0.952
53055W        W23655  29.119   1.392  10.584
53056W        W23656  33.184  14.959   2.608
53057W        W23657  26.037  12.584  10.636
53058W        W23658  28.701  13.386   3.349
53059W        W23659  21.193  15.801   0.134
53060W        W23660   2.871  31.312   1.790
53061W        W23661  25.711  10.856  14.679
53062W        W23662  44.969  28.690   0.915
53063W        W23663  19.377  17.494  13.960
53064W        W23664  11.039  40.796   3.191
53065W        W23665  18.047  17.256  12.941
53066W        W23666  29.174  17.549  12.322
53067W        W23667  20.622  10.702  13.443
53068W        W23668  11.841   5.568   4.174
53069W        W23669  28.170   3.269   2.607
53070W        W23670  24.463  38.304   3.731
53071W        W23671  25.484   9.685   0.334
53072W        W23672  34.470  30.028   3.303
53073W        W23673   0.014   8.121   3.833
53074W        W23674  16.641  43.867  13.825
53075W        W23675   0.939  28.872  14.839
53076W        W23676  16.160  43.795   2.330
53077W        W23677  16.379  16.255   0.324
53078W        W23678  15.121  12.220  11.653
53079W        W23679  41.554  11.907  10.957
53080W        W23680  14.047  39.035  12.471
53081W        W23681  26.997  13.279   4.234
53082W        W23682  25.469  25.677   5.075
53083W        W23683  24.511  25.581  14.786
53084W        W23684  27.514  23.624   3.776
53085W        W23685  37.397  18.357   4.161
53086W        W23686   7.346  26.549   0.010
53087W        W23687   6.744  13.357   2.823
53088W        W23688  29.074  35.915   2.796
53089W        W23689  28.063  44.824   4.869
53090W        W23690  25.475  42.853  13.067
53091W        W23691   1.322  27.278  14.013
53092W        W23692  44.073  22.826  12.219
53093W        W23693  35.579   6.497  11.492
53094W        W23694  25.022   2.866  14.030
53095W        W23695   7.315  35.554   1.783
53096W        W23696   5.876  21.496  13.858
53097W        W23697  29.584  41.998  13.409
53098W        W23698  20.699  43.406  11.991
53099W        W23699  16.182   4.393  10.739
53100W        W23700  34.611  33.278  14.526
53101W        W23701  44.702  44.915  13.573
53102W        W23702   7.660   6.284   3.991
53103W        W23703  10.886  14.150  14.301
53104W        W23704  10.064   7.898  11.084
53105W        W23705  34.406   6.415   3.006
53106W        W23706  16.354  36.320  12.887
53107W        W23707  32.079  44.978  12.985
53108W        W23708  35.801   6.460  14.829
53109W        W23709   2.265   1.870   3.695
53110W        W23710  18.069   1.365   0.792
53111W        W23711  33.385  33.654   3.101
53112W        W23712  24.719  18.342   3.308
53113W        W23713   5.744  20.987  13.902
53114W        W23714  34.501  13.175   3.331
53115W        W23715  16.599  38.161   4.235
53116W        W23716  29.489  20.089   1.495
53117W        W23717  35.127   6.748  10.693
53118W        W23718  41.089   7.818   2.047
53119W        W23719  31.304  33.474  12.317
53120W        W23720  20.168  20.570  11.212
53121W        W23721  19.789  10.847   2.693
53122W        W23722  39.106  28.911  11.181
53123W        W23723  27.747   0.122  14.388
53124W        W23724  41.520  25.633   1.321
53125W        W23725  29.546  25.676  12.083
53126W        W23726   5.446   1.788   0.719
53127W        W23727  35.903  40.308  10.972
53128W        W23728  11.669  34.473  14.396
53129W        W23729   4.034  21.681   1.882
53130W        W23730  17.842  44.299  10.942
53131W        W23731  38.578  32.383   0.102
53132W        W23732  32.354  19.097   4.046
53133W        W23733  34.897  34.530   1.057
53134W        W23734   3.703  22.513   0.463
53135W        W23735  25.702  27.255  11.528
53136W        W23736  18.990  34.658   0.882
53137W        W23737  33.469  36.300  13.078
53138W        W23738  29.569  10.107   3.146
53139W        W23739  31.003  37.551   2.167
53140W        W23740  22.296   4.899   1.021
53141W        W23741  12.366   3.879  12.450
53142W        W23742   1.119  24.393   2.393
53143W        W23743  11.704  36.317   1.344
53144W        W23744  29.566  20.624  13.483
53145W        W23745  18.665  35.292   3.130
53146W        W23746   8.850   8.021   1.471
53147W        W23747  18.213  44.144  10.627
53148W        W23748   0.501  15.696   3.231
53149W        W23749   5.432  43.045  14.751
53150W        W23750  33.708  14.458  11.489
53151W        W23751  18.191  20.074   0.205
53152W        W23752  22.274  34.480  12.574
53153W        W23753  25.542  26.796  11.691
53154W        W23754  30.595  40.991  12.062
53155W        W23755   3.737  28.200  14.543
53156W        W23756   8.825  17.009   3.747
53157W        W23757   0.270  26.415   4.108
53158W        W23758  31.427  26.966   4.189
53159W        W23759  12.341  43.439   0.871
53160W        W23760  26.753  31.557   2.758
53161W        W23761  18.559   5.933   1.475
53162W        W23762  29.542  22.048  10.598
53163W        W23763   3.386   2.472   2.368
53164W        W23764   7.439  27.007  11.589
53165W        W23765  32.375  13.794  11.510
53166W        W23766  22.179  25.970  10.593
53167W        W23767   3.275  38.293   0.990
53168W        W23768  17.934  31.525   1.641
53169W        W23769   9.767  31.267   4.181
53170W        W23770  15.194   4.606  14.641
53171W        W23771  23.166  10.854  14.356
53172W        W23772  21.449  37.346  11.597
53173W        W23773  20.496   7.165   4.189
53174W        W23774   4.923  41.393   2.284
53175W        W23775   7.981  24.981   5.127
53176W        W23776   4.135  22.209  12.419
53177W        W23777  37.443  12.205   4.937
53178W        W23778   6.755   8.924  10.694
53179W        W23779   5.107  11.650  14.319
53180W        W23780  29.006  31.864   2.874
53181W        W23781  13.901  18.658   0.395
53182W        W23782  20.129  31.658   2.919
53183W        W23783  38.148  21.325  11.602
53184W        W23784   3.968  43.450  14.957
53185W        W23785  43.866  25.146  14.627
53186W        W23786  29.190  25.423  11.208
53187W        W23787  13.594  32.075   3.251
53188W        W23788  38.358  15.175  11.184
53189W        W23789  20.287  23.950   3.669
53190W        W23790   6.433  18.621   4.156
53191W        W23791  34.394  41.960   4.109
53192W        W23792  15.305  33.471  12.909
53193W        W23793  21.952   3.715   4.179
53194W        W23794  23.613  14.063   2.207
53195W        W23795  33.460  38.899   0.252
53196W        W23796  44.369  10.383  14.360
53197W        W23797  11.123  25.707  12.021
53198W        W23798  28.051  29.490   1.039
53199W        W23799  22.486  13.302  10.994
53200W        W23800  39.926  20.440   0.280
53201W        W23801  29.370  44.384   3.607
53202W        W23802  32.979  30.658   2.745
53203W        W23803  23.492  29.421  11.637
53204W        W23804  41.929   1.969   0.270
53205W        W23805  40.800  34.345   3.559
53206W        W23806  17.885  36.227   2.714
53207W        W23807   7.190  10.766   0.366
53208W        W23808   8.773  32.419   5.035
53209W        W23809  23.013  32.558   3.674
53210W        W23810   8.178  35.177  12.354
53211W        W23811   5.421  24.564  12.868
53212W        W23812  16.680  15.694   3.474
53213W        W23813  29.456  38.986  14.468
53214W        W23814  30.816   3.187  11.596
53215W        W23815  30.461  21.788   2.867
53216W        W23816   2.007   8.613  14.422
53217W        W23817  11.639  33.796  13.097
53218W        W23818  25.562  25.457   3.176
53219W        W23819   9.858  39.397  12.515
53220W        W23820  26.994   9.397   1.000
53221W        W23821  14.568  28.697  12.827
53222W        W23822  30.251  24.055  13.986
53223W        W23823  13.416  29.058   2.663
53224W        W23824  26.500  10.492  13.491
53225W        W23825  13.173  16.542   3.679
53226W        W23826   2.410   8.764   4.473
53227W        W23827  22.475  17.194  14.316
53228W        W23828  43.181  12.503   2.449
53229W        W23829   2.295   2.232  14.462
53230W        W23830  18.756  14.197  13.110
53231W        W23831  28.829   0.919   4.866
53232W        W23832  42.120  26.057   1.160
53233W        W23833   7.411  17.635  11.096
53234W        W23834   9.559  14.150   1.255
53235W        W23835  43.788  37.193   1.109
53236W        W23836   0.878   3.786  10.495
53237W        W23837   2.033  43.597  11.572
53238W        W23838  28.057  26.998   0.385
53239W        W23839  25.954  33.600   3.108
53240W        W23840  41.026   6.938   0.881
53241W        W23841  34.566   6.629   1.992
53242W        W23842  44.856   2.716  10.609
53243W        W23843   2.600   6.375  14.917
53244W        W23844  33.613  29.023   1.287
53245W        W23845  22.413   3.409   2.341
53246W        W23846  39.294  18.961   3.598
53247W        W23847   5.129  40.819  13.909
53248W        W23848  11.313  41.320  10.653
53249W        W23849  35.909  12.845   3.386
53250W        W23850  38.598  37.599  13.594
53251W        W23851  39.006  24.103   4.591
53252W        W23852  12.368   9.227   4.630
53253W        W23853  24.023  19.823  11.513
53254W        W23854  43.354  11.151   2.858
53255W        W23855  16.847   0.341  10.641
53256W        W23856  41.892   8.430  13.341
53257W        W23857   5.285  39.400   3.153
53258W        W23858   2.450  25.681   3.907
53259W        W23859  25.205  41.901   3.153
53260W        W23860  17.483  43.934  13.506
53261W        W23861  14.737  36.465  11.236
53262W        W23862  28.058  36.620  14.974
53263W        W23863  23.989  18.595   1.931
53264W        W23864  28.565  31.486   3.293
53265W        W23865  44.891   4.870   4.661
53266W        W23866   6.912   4.876   4.479
53267W        W23867  33.434   4.209   1.646
53268W        W23868   1.418  22.699  13.930
53269W        W23869  25.033   1.685   4.115
53270W        W23870  35.495   9.094  11.122
53271W        W23871  40.438   6.683   4.841
53272W        W23872  28.593  40.714  13.100
53273W        W23873   8.693  20.130   4.116
53274W        W23874  23.767  24.415  11.145
53275W        W23875  21.236  38.815  11.160
53276W        W23876  44.303  17.727  12.543
53277W        W23877  14.678  33.012   3.092
53278W        W23878  19.593  19.035  10.519
53279W        W23879  15.174  19.613   3.621
53280W        W23880  35.359  26.872  11.955
53281W        W23881  35.376  44.472   1.405
53282W        W23882  14.618  40.480  14.484
53283W        W23883  14.483   8.139   3.296
53284W        W23884  34.491  36.839   4.031
53285W        W23885  41.401  35.616  10.745
53286W        W23886  34.859  29.931  11.607
53287W        W23887  12.407  12.695   4.922
53288W        W23888  37.067   2.712   0.957
53289W        W23889  12.692   5.719   3.658
53290W        W23890  40.814  14.240   2.296
53291W        W23891   8.739   7.732   1.911
53292W        W23892  30.432  20.522   3.405
53293W        W23893  27.682  40.438  13.092
53294W        W23894  18.083   4.404  13.456
53295W        W23895  19.650  44.773   1.423
53296W        W23896   1.202  10.092   0.294
53297W        W23897  36.128   9.669   1.395
53298W        W23898  10.665  18.660  12.649
53299W        W23899  43.420  15.780   0.835
53300W        W23900  40.510  36.579  11.188
53301W        W23901   5.758  35.311   1.116
53302W        W23902   1.346  19.290  14.470
53303W        W23903  14.991  42.287   3.365
53304W        W23904  23.744  11.500  13.832
53305W        W23905  25.185  42.690   0.253
53306W        W23906  38.376  38.118   1.738
53307W        W23907  33.027   2.877  10.650
53308W        W23908  10.321  11.828  11.429
53309W        W23909  21.022  41.363   3.956
53310W        W23910  24.090  16.129  11.240
53311W        W23911  44.872  10.854  11.635
53312W        W23912  23.173  25.997  12.893
53313W        W23913   4.994  28.956   4.789
53314W        W23914  21.175  39.966   1.819
53315W        W23915  12.377  16.197  12.377
53316W        W23916  37.471  41.810   4.038
53317W        W23917   6.413  44.357   1.810
53318W        W23918  12.387  41.044   1.163
53319W        W23919  36.365  32.700  12.914
53320W        W23920  17.746  21.982  14.877
53321W        W23921  36.421  37.565  14.291
53322W        W23922  14.555   3.684   3.268
53323W        W23923  40.174  13.463   0.480
53324W        W23924   8.426  31.201  11.094
53325W        W23925  27.574  37.442   0.155
53326W        W23926  27.821  17.651  10.446
53327W        W23927  18.146   3.793   1.853
53328W        W23928  22.774  24.645   2.682
53329W        W23929   0.486  21.296  14.300
53330W        W23930  21.611  34.384  13.137
53331W        W23931  10.584  31.305  11.093
53332W        W23932  19.386  41.195   1.245
53333W        W23933  44.023   3.863   0.874
53334W        W23934   4.963  15.792   2.529
53335W        W23935  18.069  20.694  10.684
53336W        W23936   7.628  23.771  14.962
53337W        W23937  43.986  23.066   0.210
53338W        W23938  22.401  14.700   0.314
53339W        W23939  41.464  31.887   3.678
53340W        W23940  30.180  14.301  10.522
53341W        W23941  32.832  30.243  10.770
53342W        W23942  17.546  24.415  11.007
53343W        W23943  17.654   1.927  13.384
53344W        W23944  12.616  13.212  13.784
53345W        W23945  14.578  20.402  12.967
53346W        W23946  15.795  27.339   9.770
53347W        W23947  40.335  44.055   4.161
53348W        W23948  18.139  33.917   0.534
53349W        W23949  20.626  29.490   4.914
53350W        W23950  37.542  40.676   3.867
53351W        W23951  38.593   4.644  14.238
53352W        W23952  26.554   3.972   2.154
53353W        W23953  36.999  25.122  12.560
53354W        W23954  34.138  12.897   2.474
53355W        W23955  18.199  24.581   5.660
53356W        W23956  11.232   9.927   4.344
53357W        W23957   8.758  35.043  13.926
53358W        W23958  44.833  16.155  14.006
53359W        W23959  27.854   5.751   0.883
53360W        W23960  19.514  15.283   3.409
53361W        W23961  34.057  44.323  13.811
53362W        W23962  25.934  33.070   2.165
53363W        W23963   7.193  42.506   4.585
53364W        W23964  24.754  26.564   0.336
53365W        W23965  15.006  24.434   4.906
53366W        W23966  26.540  26.755  10.703
53367W        W23967  37.883   5.624  14.901
53368W        W23968   1.344   9.419   3.859
53369W        W23969  39.617  10.134   4.514
53370W        W23970  22.570  14.049  10.981
53371W        W23971   7.478  20.763  14.337
53372W        W23972  40.256  24.502   1.788
53373W        W23973  39.419  32.439  12.136
53374W        W23974  29.213  25.637  11.681
53375W        W23975  12.708  43.778  12.927
53376W        W23976  17.885   9.901   0.885
53377W        W23977  24.895  22.556  10.891
53378W        W23978   3.273   1.881   3.748
53379W        W23979  33.163  18.596   0.715
53380W        W23980  24.818  38.479   4.652
53381W        W23981  39.501  12.674   1.321
53382W        W23982  29.976   7.655   3.107
53383W        W23983   6.145  41.809  10.909
53384W        W23984  30.422   5.449  14.768
53385W        W23985  10.345   9.759   1.044
53386W        W23986  14.709   7.744  13.606
53387W        W23987  22.057  33.883  11.189
53388W        W23988   8.852   4.310   2.320
53389W        W23989   9.658  19.660   3.642
53390W        W23990   7.628   7.396  11.739
53391W        W23991   0.781   4.298   3.202
53392W        W23992   5.399  37.266   2.729
53393W        W23993  43.100  44.447   3.675
53394W        W23994   4.020  43.250   4.562
53395W        W23995  38.321  30.039  14.851
53396W        W23996   4.227  18.131   2.168
53397W        W23997  23.325  43.380  11.727
53398W        W23998  28.767  22.928  10.699
53399W        W23999  38.952   7.418   1.976
53400W        W24000  39.717  20.006   4.948
53401W        W24001  31.782  43.850   2.690
53402W        W24002  12.549   7.779  12.085
53403W        W24003  11.141  22.284   2.751
53404W        W24004  31.463  18.166   0.331
53405W        W24005  19.214  32.984   1.962
53406W        W24006  41.607  31.781  13.483
53407W        W24007   5.705  12.044  13.854
53408W        W24008  41.549  36.769   4.100
53409W        W24009  38.334  39.433  14.913
53410W        W24010  14.802  29.612  11.289
53411W        W24011   6.525  16.177  12.072
53412W        W24012   7.206  19.008  10.696
53413W        W24013  19.600   0.723   2.250
53414W        W24014  22.816  21.781  12.116
53415W        W24015   2.037  30.745  10.387
53416W        W24016  33.838  12.362  11.339
53417W        W24017  32.083  36.011   3.824
53418W        W24018  39.671  38.654  13.827
53419W        W24019  27.129   4.531   1.745
53420W        W24020  40.402   2.326  14.316
53421W        W24021  11.805  41.510   2.894
53422W        W24022  35.410  36.839   1.169
53423W        W24023   8.131  40.040   0.313
53424W        W24024  42.483  28.905   2.397
53425W        W24025  20.561  17.557   1.589
53426W        W24026   5.667  31.022  14.786
53427W        W24027  42.826  41.085  11.881
53428W        W24028  43.837  19.099   3.111
53429W        W24029  40.094   9.244   0.317
53430W        W24030  22.230  32.843   0.347
53431W        W24031  42.753   1.713   2.724
53432W        W24032  34.933  33.978  14.262
53433W        W24033  38.962  33.894  13.292
53434W        W24034  44.543  25.034   3.857
53435W        W24035  38.605  35.033   2.295
53436W        W24036  20.707  20.531  11.231
53437W        W24037   6.424  41.064  11.719
53438W        W24038  37.979  23.008   1.021
53439W        W24039  20.529   1.813   4.138
53440W        W24040  23.781  29.504   4.210
53441W        W24041  41.959  31.559   2.737
53442W        W24042  43.285  17.733   0.309
53443W        W24043  38.888  26.083   5.079
53444W        W24044  21.125  10.613   2.950
53445W        W24045  44.448   1.913  11.778
53446W        W24046   6.431   6.663   5.043
53447W        W24047  24.205  37.482  14.927
53448W        W24048   8.428  18.602  13.894
53449W        W24049   0.813  44.944   2.533
53450W        W24050   9.050  19.190   0.888
53451W        W24051  38.603  14.750  10.646
53452W        W24052  15.659   9.691  12.923
53453W        W24053  44.318  10.368  13.846
53454W        W24054  37.001  19.701  12.079
53455W        W24055  29.505  41.570   3.975
53456W        W24056   8.423  14.207   3.232
53457W        W24057  44.875  16.500   2.287
53458W        W24058   9.629  36.282   3.315
53459W        W24059  40.091  17.147  14.270
53460W        W24060   3.349  22.237  11.510
53461W        W24061  27.065  41.025  12.522
53462W        W24062  42.433  14.418  10.711
53463W        W24063  10.937  41.514  13.336
53464W        W24064  18.768  14.106  10.782
53465W        W24065   1.221  18.780  14.362
53466W        W24066   4.378  27.724   2.807
53467W        W24067  43.578   8.611  13.543
53468W        W24068  43.459  35.406  12.082
53469W        W24069  17.813   9.462   3.263
53470W        W24070  26.620  12.749   5.086
53471W        W24071  26.382   4.226   3.997
53472W        W24072   4.530  27.589   1.946
53473W        W24073  36.928   8.279   1.682
53474W        W24074  41.997  20.556   0.738
53475W        W24075  32.495  44.959  13.984
53476W        W24076  15.296  43.460   3.070
53477W        W24077  10.683  40.118   0.991
53478W        W24078  22.694  25.978  13.067
53479W        W24079  32.166  11.247   2.269
53480W        W24080  32.852  26.038  11.104
53481W        W24081  31.903   7.640   3.757
53482W        W24082  32.702  20.601   0.947
53483W        W24083  30.179  24.423   2.628
53484W        W24084  37.101   3.161  14.315
53485W        W24085   5.570  10.870   0.749
53486W        W24086  36.433  18.999   1.241
53487W        W24087   3.574  41.869  11.824
53488W        W24088  30.149  38.424   1.292
53489W        W24089  30.540  13.757   1.748
53490W        W24090   3.208  21.681  14.038
53491W        W24091  40.819  35.111  11.494
53492W        W24092  14.074  35.856   0.353
53493W        W24093  11.745  21.291   2.742
53494W        W24094  34.586  35.963  13.245
53495W        W24095   7.422  16.745  11.373
53496W        W24096   7.749  33.954   2.098
53497W        W24097  30.236  17.761   0.433
53498W        W24098  33.123  42.398   1.881
53499W        W24099  21.156  44.502  14.794
53500W        W24100   9.774  17.296   3.297
53501W        W24101  12.086  30.372   4.390
53502W        W24102  40.939  12.540   0.236
53503W        W24103  30.865  32.886   4.187
53504W        W24104  13.170   2.809   1.284
53505W        W24105  25.801  38.243   4.741
53506W        W24106   1.788  18.720   1.649
53507W        W24107  30.320  15.726   3.833
53508W        W24108  25.286  26.485   0.264
53509W        W24109  27.257  22.146  12.015
53510W        W24110  21.983  43.908  14.894
53511W        W24111  24.730  23.513   0.901
53512W        W24112  15.049  35.361  11.597
53513W        W24113  37.965  40.783   1.221
53514W        W24114  39.918  18.028  14.616
53515W        W24115  21.541  31.876  10.011
53516W        W24116   1.882  15.570  13.873
53517W        W24117  27.429   2.211   0.237
53518W        W24118  19.519  28.244   3.315
53519W        W24119  26.066  10.825  11.935
53520W        W24120  41.336  35.518   4.397
53521W        W24121  38.762  23.594   2.246
53522W        W24122  40.033  37.691   4.001
53523W        W24123  40.817  19.168   1.850
53524W        W24124   9.873  12.696   3.633
53525W        W24125  30.320  24.043   3.042
53526W        W24126  30.601  40.996   2.724
53527W        W24127   1.075  10.751   3.190
53528W        W24128  18.814  36.981   4.145
53529W        W24129  38.150  15.874  10.221
53530W        W24130   1.678   5.666  12.147
53531W        W24131   9.774  30.414   3.276
53532W        W24132  11.414  39.428  11.096
53533W        W24133  38.655   4.369   0.857
53534W        W24134  16.370   7.782   0.202
53535W        W24135  40.835   2.856   3.198
53536W        W24136   8.330  31.097  12.869
53537W        W24137  30.808   1.322  11.062
53538W        W24138  30.569  25.866  10.998
53539W        W24139  14.147  17.096  11.153
53540W        W24140  37.477   9.365   3.352
53541W        W24141  10.437  13.903  13.065
53542W        W24142  18.585  39.595  13.745
53543W        W24143  33.950  13.203  11.209
53544W        W24144  14.105  25.101  14.795
53545W        W24145  42.787  10.646  10.676
53546W        W24146  32.080  26.134   3.272
53547W        W24147  25.648  26.504   2.526
53548W        W24148   0.980  13.363   3.727
53549W        W24149  16.205  19.261  10.697
53550W        W24150  33.622  11.790  13.493
53551W        W24151  13.591  23.425   2.838
53552W        W24152  14.461  26.946   1.146
53553W        W24153  12.686   4.892  11.398
53554W        W24154  43.022   4.886   3.081
53555W        W24155  34.373  29.668  13.067
53556W        W24156  43.427  28.356  11.154
53557W        W24157  34.932  12.854  14.416
53558W        W24158  21.094   4.180  10.665
53559W        W24159   1.031   3.930  12.420
53560W        W24160  42.540  40.774  12.934
53561W        W24161   1.942  16.584   3.822
53562W        W24162   0.767  11.393   5.103
53563W        W24163  21.524   2.134   0.939
53564W        W24164  24.083  43.223  14.812
53565W        W24165   2.205  44.401  10.370
53566W        W24166  36.253  12.679   1.294
53567W        W24167  34.546  17.116   2.631
53568W        W24168   3.818   8.726  12.154
53569W        W24169  22.776  31.613   4.721
53570W        W24170   7.999   0.349  13.404
53571W        W24171  30.872  19.213   1.900
53572W        W24172  31.669   0.504   3.275
53573W        W24173   9.394   6.360   1.858
53574W        W24174  12.682  17.350  14.557
53575W        W24175  27.564  19.176   4.040
53576W        W24176   8.752  36.051   4.614
53577W        W24177  21.212  13.570  10.988
53578W        W24178   3.414  37.970  12.047
53579W        W24179  41.882  39.199   3.298
53580W        W24180  37.661   1.680   1.721
53581W        W24181  16.167  10.820   0.837
53582W        W24182  44.619  13.353  11.677
53583W        W24183  34.921  19.803  14.817
53584W        W24184  27.371  15.867   0.963
53585W        W24185  19.128  14.721  13.850
53586W        W24186  17.567  17.970   1.702
53587W        W24187  29.511   1.259  12.182
53588W        W24188  31.354  35.598  12.876
53589W        W24189  43.742  33.877   3.640
53590W        W24190   5.573  22.864   2.714
53591W        W24191  39.835  18.045   0.466
53592W        W24192  30.510   8.399   4.186
53593W        W24193  37.986  17.807   3.347
53594W        W24194  35.186  23.148   1.381
53595W        W24195  10.874   6.728  12.100
53596W        W24196  29.637   5.908  12.504
53597W        W24197  29.462  11.773   4.219
53598W        W24198   0.377  40.527  13.241
53599W        W24199  34.406  21.055   0.561
53600W        W24200  30.496  32.507  13.589
53601W        W24201  24.480  37.711  11.097
53602W        W24202  39.859  17.554   0.364
53603W        W24203   6.508  38.068  10.722
53604W        W24204  20.781  41.626   3.576
53605W        W24205  23.667  37.899   3.888
53606W        W24206  43.851  21.805   1.007
53607W        W24207  21.188  40.862   4.311
53608W        W24208  25.163   7.160  13.634
53609W        W24209  44.957   0.817   0.950
53610W        W24210   8.917   3.341  10.853
53611W        W24211  15.291  24.080  13.497
53612W        W24212  11.842  44.046   2.265
53613W        W24213  41.879  39.723   1.242
53614W        W24214  13.808  27.519  13.972
53615W        W24215  13.621  30.543   4.756
53616W        W24216  21.761   6.956  12.558
53617W        W24217  36.947  26.425   2.827
53618W        W24218  39.785  33.048   4.435
53619W        W24219   1.439   7.932   4.491
53620W        W24220  32.569  41.434  14.666
53621W        W24221  35.441  17.074   0.833
53622W        W24222  30.125  16.518  13.325
53623W        W24223  44.776  23.680  10.581
53624W        W24224  38.917  42.631  10.619
53625W        W24225  24.194  30.996  14.948
53626W        W24226  25.884   9.599  10.123
53627W        W24227  28.992  16.791  13.280
53628W        W24228   2.115   3.843   4.162
53629W        W24229  29.556  41.900  11.138
53630W        W24230  16.047  28.774   4.113
53631W        W24231   7.863  35.193   3.461
53632W        W24232  36.901  41.226   3.216
53633W        W24233  43.862   2.481  12.433
53634W        W24234  30.952  41.306  13.481
53635W        W24235  28.465  26.130  14.937
53636W        W24236  43.689  18.966   1.025
53637W        W24237  11.132  44.973   1.971
53638W        W24238  10.298   3.240   4.157
53639W        W24239  42.522  14.396  12.145
53640W        W24240  34.158  33.446  13.786
53641W        W24241  34.407  13.688   0.348
53642W        W24242  30.891  15.734  11.241
53643W        W24243  43.410   1.257  12.469
53644W        W24244   6.095  10.546   2.334
53645W        W24245  27.212  13.142  12.494
53646W        W24246   1.654  36.984  12.412
53647W        W24247  14.917  44.473  11.170
53648W        W24248   5.722   6.252   4.168
53649W        W24249  34.199  29.944   4.221
53650W        W24250  28.143  18.083   4.644
53651W        W24251  17.051  16.670  11.485
53652W        W24252  25.041   1.388  12.412
53653W        W24253  20.953  28.757  11.583
53654W        W24254   1.706   3.583  13.130
53655W        W24255  19.614  41.229  13.351
53656W        W24256   0.720   0.643   0.590
53657W        W24257  41.624   7.679  14.845
53658W        W24258   9.450   9.060  11.103
53659W        W24259  22.080  28.991  11.893
53660W        W24260   5.265  32.224  13.805
53661W        W24261  36.403  43.494   4.704
53662W        W24262  20.503  43.582  14.526
53663W        W24263   4.415  12.896   3.313
53664W        W24264   5.424  41.235  13.798
53665W        W24265  40.419   0.082  11.461
53666W        W24266  43.807  32.327   3.496
53667W        W24267  13.269  22.764  12.538
53668W        W24268  38.996  25.208  14.776
53669W        W24269   4.376  14.115   4.477
53670W        W24270  40.000  20.127   1.883
53671W        W24271   7.392   0.327  14.930
53672W        W24272  23.470   3.939  12.530
53673W        W24273  33.381   1.333   0.953
53674W        W24274   6.303  13.876  10.703
53675W        W24275  28.936   7.088   3.751
53676W        W24276  27.283  26.182   3.511
53677W        W24277  13.060  25.776  11.716
53678W        W24278  33.027  35.402   0.926
53679W        W24279   5.765  26.143   4.504
53680W        W24280  34.724  36.815   2.626
53681W        W24281  10.859   5.940  14.945
53682W        W24282  43.227  11.703  14.502
53683W        W24283  34.345  42.721   3.506
53684W        W24284  44.482  18.992   3.349
53685W        W24285  35.455  41.217  12.387
53686W        W24286   0.821  35.614  12.934
53687W        W24287  41.736  15.646   0.042
53688W        W24288   1.970   2.911   4.160
53689W        W24289  42.477  11.116  12.549
53690W        W24290  44.195  25.662   0.488
53691W        W24291   5.234  37.013  13.571
53692W        W24292  29.639   1.767  14.385
53693W        W24293  20.948  26.403   3.609
53694W        W24294   6.885  22.099   1.884
53695W        W24295  34.605   1.619   1.620
53696W        W24296   8.357  31.851   2.304
53697W        W24297  26.930   9.346  11.932
53698W        W24298   2.647  26.873   3.398
53699W        W24299   7.706  25.078   0.374
53700W        W24300  10.746  28.109   0.011
53701W        W24301   7.964  39.182   0.819
53702W        W24302  42.471   6.059   2.268
53703W        W24303   0.050  37.891  13.089
53704W        W24304  41.345   5.018   3.625
53705W        W24305   5.583  32.962   2.574
53706W        W24306   0.671  42.718  12.188
53707W        W24307  15.175   9.201  13.607
53708W        W24308  30.396  41.954  13.851
53709W        W24309   3.810   6.703   1.713
53710W        W24310  10.989  23.875   1.639
53711W        W24311   2.805  14.260   0.386
53712W        W24312   0.290  41.489   4.196
53713W        W24313  33.345  41.444   2.629
53714W        W24314  28.422   9.322  10.708
53715W        W24315  30.230  36.836   2.336
53716W        W24316  15.644  19.423  13.560
53717W        W24317  18.253  25.175   2.770
53718W        W24318  44.263  21.409  11.282
53719W        W24319  41.092   6.322  13.312
53720W        W24320   5.780   5.411   1.264
53721W        W24321  11.292  33.901   3.793
53722W        W24322  21.854   8.827  12.600
53723W        W24323  23.046  33.704  14.774
53724W        W24324  19.410  28.078   0.968
53725W        W24325  25.755  14.550   1.387
53726W        W24326   7.965  10.225  12.576
53727W        W24327  22.560  33.492   0.080
53728W        W24328  27.942   1.895  12.920
53729W        W24329   1.523  35.049   3.180
53730W        W24330   2.319   1.377   1.685
53731W        W24331  29.631  37.167   4.987
53732W        W24332  17.596  26.826  14.084
53733W        W24333   0.274  44.989  14.865
53734W        W24334  28.507  21.142  10.313
53735W        W24335   1.685  31.597  11.907
53736W        W24336   1.379  15.441  13.761
53737W        W24337  17.095  30.861   2.336
53738W        W24338  17.266  15.291  10.783
53739W        W24339   9.639  26.033   0.919
53740W        W24340  32.944  21.548   4.560
53741W        W24341  13.566  13.385  10.206
53742W        W24342  13.855  35.671  11.050
53743W        W24343   2.990  31.904  11.077
53744W        W24344  25.772  37.288  12.125
53745W        W24345  36.989  38.855   3.856
53746W        W24346  37.320  40.374  12.657
53747W        W24347  37.776   1.086  13.341
53748W        W24348  24.060   7.378  12.528
53749W        W24349  27.372   8.312  11.398
53750W        W24350  21.983   5.922   1.896
53751W        W24351   7.142  13.657   1.362
53752W        W24352   3.375  21.587  14.527
53753W        W24353  13.599  14.752  14.280
53754W        W24354  41.984  43.234  13.530
53755W        W24355  25.105  28.116  14.473
53756W        W24356  41.797  19.210  11.671
53757W        W24357  16.056   9.789  10.625
53758W        W24358  25.669   8.957   2.174
53759W        W24359   7.312  32.666   4.365
53760W        W24360  13.743   6.698  12.480
53761W        W24361   9.692  20.645  10.663
53762W        W24362  29.519   4.641   4.361
53763W        W24363  16.816  42.019  13.465
53764W        W24364  36.570  35.866   4.191
53765W        W24365  22.920  32.039   5.003
53766W        W24366  25.858  13.874  10.211
53767W        W24367  22.543  33.469  13.585
53768W        W24368   9.818  40.864   4.850
53769W        W24369  27.730  23.677  14.953
53770W        W24370  18.386   7.030  13.577
53771W        W24371  12.411  18.765  14.332
53772W        W24372   1.488   9.893   3.602
53773W        W24373  43.350   9.671   1.499
53774W        W24374   9.633   2.175   4.904
53775W        W24375  11.623  43.466  14.530
53776W        W24376  41.300   8.308   3.420
53777W        W24377  16.526   5.851  12.817
53778W        W24378  13.610   2.976  13.929
53779W        W24379  36.102  27.977   0.721
53780W        W24380  11.267   0.268  11.918
53781W        W24381  43.962   0.733   1.676
53782W        W24382  20.710  27.151  12.471
53783W        W24383  10.355  24.665  13.616
53784W        W24384  39.703  14.696   3.282
53785W        W24385  19.973  33.753  11.772
53786W        W24386   4.640  32.944   2.880
53787W        W24387  33.842  19.476  14.304
53788W        W24388  40.448   4.810   0.805
53789W        W24389  30.174   6.681   0.975
53790W        W24390  17.038  16.829   1.783
53791W        W24391  22.875  32.656  11.001
53792W        W24392  31.622  17.071   3.150
53793W        W24393   1.075   0.224  10.995
53794W        W24394   2.242  11.868   0.296
53795W        W24395  13.915  16.079  12.468
53796W        W24396  13.793  32.704  13.356
53797W        W24397   5.842  39.017   0.534
53798W        W24398  17.954   3.297   4.173
53799W        W24399  33.844  40.129   0.176
53800W        W24400  38.102  24.075   0.304
53801W        W24401  13.542   6.331   3.329
53802W        W24402  29.376  36.966  13.935
53803W        W24403  36.505  24.949  12.532
53804W        W24404  10.794  23.584   1.009
53805W        W24405  40.746  37.832  14.763
53806W        W24406   9.543  25.486   2.888
53807W        W24407  40.344  16.759   0.328
53808W        W24408  29.182  33.069  13.613
53809W        W24409  27.142   1.425  14.697
53810W        W24410  29.079  40.715  14.254
53811W        W24411  33.656  32.949  11.833
53812W        W24412  25.180   6.151  14.481
53813W        W24413  34.020   2.104  12.042
53814W        W24414  29.166  34.625  14.343
53815W        W24415  13.103  19.168  12.883
53816W        W24416   7.901  18.505  10.842
53817W        W24417  25.470  23.009   0.468
53818W        W24418   8.104  16.287  11.502
53819W        W24419   0.964  28.454   0.797
53820W        W24420  29.352  16.120   4.181
53821W        W24421  21.644   8.727  12.108
53822W        W24422   9.165  19.258  10.567
53823W        W24423  33.169   9.303  11.169
53824W        W24424  37.192  27.236   1.344
53825W        W24425  41.820   7.833  10.327
53826W        W24426  15.727  38.361  10.951
53827W        W24427   0.468  14.135  12.456
53828W        W24428   3.299  32.811   9.785
53829W        W24429  29.883  11.918  12.478
53830W        W24430  38.148   1.319  13.075
53831W        W24431   6.079  16.755   3.391
53832W        W24432   6.875   4.503  10.478
53833W        W24433  28.647  37.501  14.044
53834W        W24434  39.265  26.675  12.096
53835W        W24435  44.703   1.926  12.257
53836W        W24436  40.516  10.372  11.865
53837W        W24437  34.661  15.772  12.017
53838W        W24438  21.247  10.583  13.901
53839W        W24439  23.072  43.156   4.094
53840W        W24440  35.478  28.300   4.118
53841W        W24441  24.416  40.353  10.726
53842W        W24442  15.168  19.786  11.057
53843W        W24443  35.936  35.602   2.331
53844W        W24444   4.490  34.773   1.738
53845W        W24445  13.141  19.697   4.630
53846W        W24446  35.359  14.357   1.717
53847W        W24447  30.439  43.809   2.032
53848W        W24448  26.861   6.431   1.729
53849W        W24449  18.712  17.583   1.453
53850W        W24450   3.298   4.007   0.751
53851W        W24451   8.283   3.655  12.941
53852W        W24452  33.422  29.912   4.541
53853W        W24453   9.453  36.511   3.730
53854W        W24454  28.270   8.181   2.502
53855W        W24455  27.079  23.443  11.166
53856W        W24456  29.736  43.388  13.027
53857W        W24457  15.763   8.749  12.777
53858W        W24458  43.345  37.537  10.521
53859W        W24459  15.274  16.155   4.141
53860W        W24460  41.230   0.446   2.878
53861W        W24461   8.175  40.007   3.195
53862W        W24462  17.868  28.092   4.112
53863W        W24463  41.088  30.593   3.682
53864W        W24464   4.214  35.048  13.018
53865W        W24465   0.012  13.389   0.008
53866W        W24466  18.790  23.440  13.890
53867W        W24467   3.315  18.014   1.387
53868W        W24468  14.272  27.057  10.571
53869W        W24469  32.716  29.407  10.463
53870W        W24470  35.692  40.855  14.396
53871W        W24471  33.636   4.924  13.758
53872W        W24472  20.786  33.973   3.191
53873W        W24473   3.327  13.657  10.747
53874W        W24474  35.146  17.277  11.138
53875W        W24475  37.769  16.241  14.899
53876W        W24476   4.872  26.195  10.790
53877W        W24477  36.906  28.674   1.728
53878W        W24478  42.160  25.787  13.956
53879W        W24479  29.120  20.633   2.139
53880W        W24480   8.385  15.127   4.919
53881W        W24481  13.001  13.571  13.524
53882W        W24482  32.352  14.244  13.352
53883W        W24483  22.705  25.979   3.225
53884W        W24484  19.075   5.603  12.021
53885W        W24485  11.853   1.454   4.174
53886W        W24486  42.399  32.236   0.991
53887W        W24487  43.009  18.837   3.890
53888W        W24488  16.579  33.598   1.614
53889W        W24489  26.294  30.020  11.560
53890W        W24490  43.735   4.062   3.788
53891W        W24491   8.786  30.624  11.832
53892W        W24492  22.070  13.229  13.584
53893W        W24493  42.550  44.372   4.686
53894W        W24494   9.243  43.094   5.062
53895W        W24495  18.820   8.704  13.036
53896W        W24496  18.823  22.016   1.648
53897W        W24497  11.565  20.213   1.346
53898W        W24498  31.481  30.421  13.362
53899W        W24499  14.884  16.550  11.148
53900W        W24500  43.199  14.717  11.633
53901W        W24501  38.509  32.597  14.114
53902W        W24502   6.448  37.152  10.519
53903W        W24503  16.130  39.145  14.404
53904W        W24504   1.471  40.530  13.910
53905W        W24505  36.777  12.352  13.588
53906W        W24506  36.580   9.659  13.875
53907W        W24507   0.688   5.799  14.046
53908W        W24508  19.724  42.931  14.988
53909W        W24509  28.058   4.881  10.761
53910W        W24510  34.054  43.420   5.105
53911W        W24511  16.814  39.878  14.349
53912W        W24512   0.790  28.151   3.639
53913W        W24513  14.344  41.695  14.386
53914W        W24514  29.992   1.132  12.031
53915W        W24515  18.168  10.230  10.228
53916W        W24516  20.777  41.218   1.280
53917W        W24517  41.355   7.374   2.142
53918W        W24518  36.557  11.321   4.618
53919W        W24519  13.657  42.989  14.545
53920W        W24520   4.218  22.530  14.102
53921W        W24521   7.630  25.248  14.840
53922W        W24522   0.806  16.547  12.501
53923W        W24523  39.362  11.736   2.746
53924W        W24524  31.931   3.500  12.415
53925W        W24525   3.685  20.739  12.054
53926W        W24526   7.380  33.313   2.222
53927W        W24527   8.377  37.555  13.563
53928W        W24528  39.317  35.165   1.858
53929W        W24529  10.311   1.371   2.374
53930W        W24530  37.048  33.627  13.854
53931W        W24531  19.991  20.147   4.689
53932W        W24532  39.954  33.127   0.061
53933W        W24533   6.900   7.246  14.964
53934W        W24534  19.812  43.424   3.148
53935W        W24535   2.619  20.360   1.167
53936W        W24536  25.691   4.846  11.180
53937W        W24537  29.054  26.066   2.731
53938W        W24538  33.043  27.602   4.199
53939W        W24539  18.682  37.385  10.765
53940W        W24540   8.671  10.793  12.815
53941W        W24541  38.859  42.434  12.532
53942W        W24542  16.781  10.876  10.633
53943W        W24543   9.406  41.489   1.810
53944W        W24544  34.875   1.715   1.175
53945W        W24545  41.300  31.644  14.126
53946W        W24546  22.049  40.078  12.870
53947W        W24547  10.717  10.395   3.835
53948W        W24548  35.576  22.728  12.943
53949W        W24549  40.748  28.094   2.486
53950W        W24550  36.438  36.605  14.068
53951W        W24551   6.259   5.477  13.387
53952W        W24552  20.372  18.883   2.707
53953W        W24553  37.360   2.628   3.596
53954W        W24554  30.278  11.297  10.741
53955W        W24555  12.133  18.668   4.608
53956W        W24556  40.372  43.139  12.005
53957W        W24557  43.021  33.535   3.359
53958W        W24558   5.718  44.828   1.229
53959W        W24559  12.259  24.707  11.507
53960W        W24560  28.391  16.155  14.780
53961W        W24561  15.672  18.030  10.689
53962W        W24562  41.416  13.384   1.165
53963W        W24563  16.051  25.408   4.100
53964W        W24564  37.407   1.508  14.782
53965W        W24565  18.143  36.346  11.384
53966W        W24566  15.774  29.866   1.366
53967W        W24567  21.177   6.290   4.558
53968W        W24568  20.228   2.308  10.332
53969W        W24569  17.451  31.270   4.303
53970W        W24570  30.782  42.617  13.186
53971W        W24571  18.618  11.080   1.460
53972W        W24572  38.469  32.044   3.528
53973W        W24573  35.426  34.325   2.377
53974W        W24574  39.021  32.457   1.323
53975W        W24575  17.761  23.948   5.121
53976W        W24576   1.370  19.781  12.525
53977W        W24577  11.625   3.317   4.949
53978W        W24578  28.749  39.837   0.075
53979W        W24579  10.195  17.989  13.761
53980W        W24580   6.189  32.022   1.882
53981W        W24581  13.567  38.059  10.455
53982W        W24582   1.856   6.192  12.365
53983W        W24583  39.410  40.490   3.497
53984W        W24584  18.191   3.469  12.087
53985W        W24585  35.534  38.888   4.039
53986W        W24586   2.485  19.095   3.248
53987W        W24587  26.146  23.732   4.098
53988W        W24588  15.187  11.621  14.661
53989W        W24589  22.533  41.066   2.561
53990W        W24590  37.999  15.643   2.637
53991W        W24591  30.951  37.959   4.228
53992W        W24592  33.605  32.433   3.208
53993W        W24593  40.329  24.755  11.868
53994W        W24594  25.691  21.518   0.361
53995W        W24595   1.722   1.796  11.542
53996W        W24596  17.603   5.912  11.880
53997W        W24597  25.913  24.276  14.458
53998W        W24598  11.197  15.600   0.376
53999W        W24599  27.104  39.779   4.233
54000W        W24600  26.522  34.746   1.874
54001W        W24601  12.309   9.959   5.146
54002W        W24602   9.813  27.567   1.554
54003W        W24603  29.234  14.189   1.726
54004W        W24604   4.704  12.452   5.084
54005W        W24605  43.710  14.671  11.546
54006W        W24606  27.716   3.519  14.984
54007W        W24607   5.288  17.839  13.080
54008W        W24608  33.336  35.517   4.905
54009W        W24609   4.135  37.474  10.641
54010W        W24610  44.423   7.292   4.647
54011W        W24611   2.768  25.906   0.465
54012W        W24612  21.008  31.427   4.250
54013W        W24613  10.909   7.976  14.640
54014W        W24614  14.647   5.849  13.056
54015W        W24615  42.387   9.288  13.496
54016W        W24616   9.839  20.939   1.657
54017W        W24617  21.004  31.555   1.253
54018W        W24618  28.049  44.425   5.170
54019W        W24619  11.066   5.452   1.598
54020W        W24620   0.708  16.601   1.731
54021W        W24621   1.391  26.138   2.166
54022W        W24622  22.938  21.423   0.528
54023W        W24623  24.152  30.091   1.871
54024W        W24624  30.971  15.995  10.282
54025W        W24625   4.282  25.508  11.844
54026W        W24626  38.027  26.211   3.762
54027W        W24627  23.903  11.230   3.603
54028W        W24628  36.897  36.381   1.886
54029W        W24629   7.869   5.466   3.152
54030W        W24630  29.858  38.049  10.741
54031W        W24631   9.228   5.911   1.047
54032W        W24632  37.055  22.724   0.358
54033W        W24633  40.574  34.539  13.634
54034W        W24634  21.101  23.910  11.807
54035W        W24635  23.670  44.667   2.498
54036W        W24636  24.234  40.149   1.629
54037W        W24637  37.004  13.656   2.740
54038W        W24638  14.058  31.362  14.830
54039W        W24639  12.795  32.618   0.311
54040W        W24640  20.311  10.478   3.300
54041W        W24641  42.805  25.089   1.395
54042W        W24642  30.869  33.025  12.694
54043W        W24643  33.528  28.700  14.252
54044W        W24644  43.210  24.592  14.886
54045W        W24645  20.083   6.582  14.325
54046W        W24646  23.262  34.464  12.481
54047W        W24647  14.142  32.483  13.028
54048W        W24648  13.057  38.517   2.218
54049W        W24649  41.368  23.047   0.457
54050W        W24650  39.453  34.627   0.045
54051W        W24651   4.872  11.972  11.163
54052W        W24652   7.507  26.045   3.663
54053W        W24653  15.208  18.189   0.697
54054W        W24654  26.260  21.239  12.006
54055W        W24655  15.769  32.288   2.278
54056W        W24656  37.057   8.433  11.103
54057W        W24657   1.739  22.187  12.479
54058W        W24658  44.491   6.383   4.915
54059W        W24659  20.629  11.406  11.172
54060W        W24660  16.351  44.607   4.146
54061W        W24661  38.006   3.478   0.317
54062W        W24662  43.338  23.091  11.482
54063W        W24663  18.300  33.192  11.638
54064W        W24664  34.541  12.183   4.627
54065W        W24665  24.964  16.549   3.801
54066W        W24666  36.734  39.507   3.821
54067W        W24667  27.714  11.235   3.277
54068W        W24668  19.432  14.813  13.356
54069W        W24669  15.698  14.796  13.578
54070W        W24670   0.371  40.524   4.938
54071W        W24671  39.549   1.738  14.432
54072W        W24672  23.251  22.728   2.436
54073W        W24673  32.534   1.841  11.919
54074W        W24674  31.361  27.500  12.537
54075W        W24675   8.277   8.659   2.603
54076W        W24676  23.640  13.277  10.710
54077W        W24677  34.303   1.326   0.554
54078W        W24678  41.841  29.862   2.208
54079W        W24679  25.575  19.493  12.897
54080W        W24680   1.021  19.292   0.848
54081W        W24681  19.185   2.463   3.916
54082W        W24682  42.442   5.483   1.223
54083W        W24683   6.333   4.792  10.083
54084W        W24684   6.733  16.694  10.796
54085W        W24685  36.885  36.081   2.397
54086W        W24686   0.348  35.356   3.579
54087W        W24687  16.600  29.068   3.172
54088W        W24688   5.674  19.548  12.976
54089W        W24689  17.408  17.287   5.064
54090W        W24690  22.128   3.958   1.789
54091W        W24691  22.588  11.867   2.311
54092W        W24692  11.831  13.332   0.644
54093W        W24693  37.878  13.048   2.766
54094W        W24694   3.134  20.128  13.941
54095W        W24695  20.316  34.941   2.603
54096W        W24696  35.933  24.715   4.544
54097W        W24697   4.209  23.130   1.906
54098W        W24698  21.098  37.975  12.399
54099W        W24699   2.610   1.989   0.390
54100W        W24700  12.824   8.632  11.559
54101W        W24701  35.622  26.688  13.577
54102W        W24702  21.378   8.283   2.276
54103W        W24703   5.764  28.142   1.871
54104W        W24704  36.103  39.767  12.936
54105W        W24705  27.706  40.118   0.223
54106W        W24706  33.855  27.486  10.450
54107W        W24707   0.661  13.857   0.495
54108W        W24708  33.666  18.215  13.440
54109W        W24709  19.458   0.342  13.848
54110W        W24710  26.548  28.708   4.087
54111W        W24711  15.223   3.830   0.460
54112W        W24712  17.557  18.737   3.918
54113W        W24713  34.480   5.118   1.825
54114W        W24714  26.083  32.824  12.094
54115W        W24715  16.523  37.756   2.362
54116W        W24716  36.131  26.612  12.112
54117W        W24717  13.386  18.766  13.090
54118W        W24718   2.537  31.563   2.134
54119W        W24719   5.009  21.127   4.362
54120W        W24720  34.636  19.337   2.499
54121W        W24721  26.394   3.446  12.941
54122W        W24722  13.140  20.976   3.983
54123W        W24723  14.667  43.854   4.889
54124W        W24724  26.745  37.592  14.341
54125W        W24725  21.972  40.132   1.165
54126W        W24726  27.606   1.315   4.136
54127W        W24727   5.387  18.586  11.885
54128W        W24728  29.111  19.344  14.330
54129W        W24729  43.389   2.890   0.133
54130W        W24730  30.696  26.427   3.222
54131W        W24731  34.843  21.103  11.150
54132W        W24732  28.437  24.080   2.701
54133W        W24733  24.031   6.619   2.401
54134W        W24734   8.350  36.029  11.351
54135W        W24735  26.169  43.866   4.130
54136W        W24736  12.666  10.694  12.402
54137W        W24737  16.929   9.821   0.694
54138W        W24738  23.771  18.688   2.888
54139W        W24739  32.116  14.151   0.471
54140W        W24740  15.214  39.737  13.474
54141W        W24741  28.668  20.674   3.445
54142W        W24742   8.424  39.499   0.251
54143W        W24743  23.463  32.940  13.408
54144W        W24744   0.030  23.684   0.112
54145W        W24745   0.259   7.264  12.970
54146W        W24746   0.475  37.426  13.951
54147W        W24747   6.471  30.077   1.894
54148W        W24748  37.701  39.885   1.462
54149W        W24749  11.458  18.460   1.191
54150W        W24750  21.954  10.673   5.053
54151W        W24751  17.110  12.344  11.951
54152W        W24752  34.995  26.213   4.765
54153W        W24753  12.001   5.281   1.845
54154W        W24754  42.909  37.436   4.146
54155W        W24755   6.970  25.141   3.744
54156W        W24756  26.204  15.225  13.256
54157W        W24757  27.485  17.322  10.657
54158W        W24758  26.883  24.743  14.590
54159W        W24759  40.372   3.719   1.674
54160W        W24760  11.542   4.982  11.168
54161W        W24761   0.777  10.803  11.547
54162W        W24762  28.990  14.530   2.444
54163W        W24763  11.408  15.128   0.358
54164W        W24764  34.613  10.783  14.857
54165W        W24765  35.299  19.042  14.282
54166W        W24766  21.089  32.630  13.502
54167W        W24767  10.614  38.492   4.467
54168W        W24768  21.137   8.249   1.167
54169W        W24769   5.706  43.319   0.731
54170W        W24770   0.456   4.752   2.819
54171W        W24771   1.485  17.802  13.906
54172W        W24772  35.476  44.073   4.641
54173W        W24773  13.745  15.262   2.199
54174W        W24774  23.533  33.054   3.502
54175W        W24775  19.017  11.829  12.817
54176W        W24776  34.785  12.858   0.751
54177W        W24777  37.001  24.955  14.812
54178W        W24778  20.119  32.041   0.588
54179W        W24779   5.007  19.512   2.813
54180W        W24780  22.384   8.145  12.370
54181W        W24781  22.892  20.043   4.249
54182W        W24782  23.735  22.219   1.376
54183W        W24783  13.329  38.923   3.717
54184W        W24784  26.536  32.826   4.422
54185W        W24785  20.051   7.854   3.250
54186W        W24786  16.389  28.854   4.814
54187W        W24787   1.480  44.993  14.237
54188W        W24788  19.477  24.529   2.238
54189W        W24789  11.847  44.829   1.298
54190W        W24790  17.762  22.532  10.717
54191W        W24791  24.547  16.536   2.921
54192W        W24792  27.513  40.474   4.056
54193W        W24793  26.570  41.838   0.664
54194W        W24794  13.870  29.015   0.704
54195W        W24795   3.938  15.749  10.186
54196W        W24796   8.207  39.395   1.589
54197W        W24797   8.796  38.891   4.512
54198W        W24798  32.161  34.423  12.875
54199W        W24799  14.449  23.544  10.943
54200W        W24800  31.386  39.796  13.051
54201W        W24801   0.774  21.363   3.719
54202W        W24802   7.439  32.018   3.274
54203W        W24803   2.209  34.632   2.311
54204W        W24804  35.535  26.049  10.548
54205W        W24805  43.232  24.459   4.644
54206W        W24806  43.872  31.851   1.348
54207W        W24807   5.346  12.802  14.968
54208W        W24808  39.020  29.918   3.775
54209W        W24809   0.243   0.552  11.158
54210W        W24810   9.768  44.559   1.334
54211W        W24811  42.487  39.869  11.238
54212W        W24812  26.153  21.956   4.118
54213W        W24813  11.429   7.301  12.472
54214W        W24814  30.194  13.604   0.447
54215W        W24815  11.681  24.690   2.258
54216W        W24816  34.825  22.865  13.286
54217W        W24817  38.566   3.666  11.625
54218W        W24818  24.113  16.832   2.639
54219W        W24819  17.627  16.279  13.102
54220W        W24820   5.790  20.116   3.347
54221W        W24821  31.110  23.046   0.403
54222W        W24822  10.234   2.921  12.916
54223W        W24823   2.947  21.292   4.030
54224W        W24824  15.267  30.354   4.968
54225W        W24825   3.700  19.535  14.754
54226W        W24826  24.251  18.545  11.052
54227W        W24827  27.487   9.923  14.925
54228W        W24828  14.430  28.023  14.186
54229W        W24829  18.590  39.109  12.249
54230W        W24830  29.167   9.875  11.550
54231W        W24831  44.310  32.938  13.601
54232W        W24832   8.836  37.345  13.460
54233W        W24833  30.555  10.458   4.096
54234W        W24834  20.345   5.778  11.003
54235W        W24835  31.082  41.056   4.050
54236W        W24836   8.319  14.399   1.880
54237W        W24837   0.922  29.822   2.820
54238W        W24838   9.878   5.263  13.555
54239W        W24839  14.185  15.698   0.535
54240W        W24840  17.240   6.236  12.545
54241W        W24841  31.415  19.050  12.981
54242W        W24842   5.227   5.501   2.753
54243W        W24843  40.418  23.688  14.651
54244W        W24844  39.138  19.101  13.178
54245W        W24845   9.720   4.742  12.408
54246W        W24846   2.361  32.510  11.205
54247W        W24847   1.236  18.672  13.844
54248W        W24848  14.360  20.586  12.534
54249W        W24849  23.027  24.398   0.376
54250W        W24850   6.241   6.197   3.658
54251W        W24851  34.445  41.005   2.691
54252W        W24852  39.049  40.357  12.891
54253W        W24853  18.110  39.892  12.129
54254W        W24854  34.916   9.507  13.605
54255W        W24855  16.338  42.890   5.001
54256W        W24856  44.978  28.075  12.109
54257W        W24857  37.429  37.481  12.959
54258W        W24858  26.698   2.076   0.914
54259W        W24859  43.557  18.326   4.236
54260W        W24860   4.712   6.724  12.982
54261W        W24861  27.034  29.775  13.668
54262W        W24862   0.630  23.169   2.180
54263W        W24863  10.261  35.617  11.513
54264W        W24864   5.054  19.728   3.860
54265W        W24865  31.942  21.316  10.007
54266W        W24866   7.923  39.022  12.018
54267W        W24867  38.602  21.316   0.371
54268W        W24868  26.424  19.852   4.400
54269W        W24869   4.434  34.434  13.861
54270W        W24870  42.219  39.795   0.451
54271W        W24871  23.017   8.665   0.556
54272W        W24872   3.613  36.079   1.936
54273W        W24873  28.175  35.443   0.356
54274W        W24874  35.644  36.389   1.335
54275W        W24875  28.652  43.459   1.473
54276W        W24876  36.549  43.965  10.675
54277W        W24877  41.813  39.083  11.630
54278W        W24878  31.007  36.892  11.145
54279W        W24879   2.485  30.440  14.200
54280W        W24880  27.475  33.564   3.147
54281W        W24881  17.534   7.869   4.206
54282W        W24882  25.923   8.276   0.488
54283W        W24883  31.531   4.716  12.035
54284W        W24884  12.151   8.173  13.777
54285W        W24885  11.328  22.967   3.283
54286W        W24886  18.208   8.564   3.591
54287W        W24887  43.264  38.448  13.496
54288W        W24888  38.907   5.924  11.504
54289W        W24889  20.551  27.366   0.999
54290W        W24890  44.348   4.015   4.985
54291W        W24891  25.021  22.007  14.749
54292W        W24892  40.365  38.164  10.804
54293W        W24893  34.700  37.989   2.873
54294W        W24894  41.285   3.338  12.128
54295W        W24895  42.275  10.847  11.529
54296W        W24896  19.710  21.014   1.768
54297W        W24897  32.509  10.303   3.327
54298W        W24898  43.581  37.924  13.238
54299W        W24899   7.248   5.265  11.405
54300W        W24900  35.596   7.198  10.783
54301W        W24901  42.777  33.534   4.335
54302W        W24902  24.044  10.598   2.159
54303W        W24903  19.569  21.798   4.196
54304W        W24904  18.128  23.497  11.141
54305W        W24905  30.582  41.986  12.397
54306W        W24906  32.478  37.514   0.881
54307W        W24907  32.019  39.883   1.511
54308W        W24908  15.796  39.399  11.161
54309W        W24909  32.537  37.822  12.831
54310W        W24910  10.832  43.549   2.420
54311W        W24911  42.199   2.377  12.179
54312W        W24912  37.999  18.643   3.516
54313W        W24913  22.721  32.497   4.153
54314W        W24914   7.507  18.306  12.097
54315W        W24915   2.247  25.735   1.080
54316W        W24916   1.979  37.075  14.883
54317W        W24917  44.373   9.885   3.605
54318W        W24918  31.629  34.123   1.425
54319W        W24919  20.967  23.219  12.371
54320W        W24920  29.379  17.629  10.678
54321W        W24921  42.998  30.872  14.071
54322W        W24922   5.361  30.741   0.809
54323W        W24923  21.967  12.618   3.898
54324W        W24924   1.246  28.637   0.204
54325W        W24925  19.551  27.075   2.583
54326W        W24926   3.396   7.617   3.104
54327W        W24927   1.585  34.708  12.396
54328W        W24928  27.078  41.698   2.811
54329W        W24929  37.724  44.720  13.822
54330W        W24930  44.483  37.955  13.017
54331W        W24931   4.765  21.780  13.294
54332W        W24932  36.914  19.519  14.793
54333W        W24933   6.432  42.434  14.290
54334W        W24934   2.942  36.185  12.037
54335W        W24935  17.770  20.132  13.471
54336W        W24936  32.463  25.676  11.151
54337W        W24937   1.311   0.997  10.557
54338W        W24938  26.702  42.369   0.625
54339W        W24939  43.039  15.218  11.705
54340W        W24940  38.066  43.810  12.896
54341W        W24941  36.872  19.783  14.306
54342W        W24942  18.602  13.672   1.920
54343W        W24943  23.169  41.279   3.854
54344W        W24944  20.685   2.591  12.509
54345W        W24945  35.090  18.802   5.186
54346W        W24946  28.590  44.319  10.697
54347W        W24947  41.549  33.427   0.680
54348W        W24948  31.571  34.676   0.465
54349W        W24949   0.509  43.868  11.553
54350W        W24950  43.457  38.565   2.687
54351W        W24951   0.492  28.356   1.710
54352W        W24952  17.969  18.961   2.672
54353W        W24953  24.644  12.575   0.278
54354W        W24954   8.443  10.928  11.494
54355W        W24955   5.185   0.172  12.906
54356W        W24956  13.857  35.570  14.951
54357W        W24957  40.310  17.805   0.249
54358W        W24958  32.850  41.359   4.542
54359W        W24959  39.453  26.574   0.709
54360W        W24960  43.330  30.403   1.508
54361W        W24961  26.039  42.349  13.971
54362W        W24962   7.150  12.787   0.935
54363W        W24963  42.257   4.925  11.561
54364W        W24964  44.138  44.355   5.153
54365W        W24965  19.975   5.444   2.468
54366W        W24966   0.607  10.431  13.372
54367W        W24967  41.862  25.622   0.900
54368W        W24968  36.515   1.961  13.427
54369W        W24969  37.586   7.225   2.856
54370W        W24970  18.551   3.968   4.161
54371W        W24971  27.229  41.979  12.952
54372W        W24972   4.446  23.962  12.338
54373W        W24973  11.165  32.831   3.695
54374W        W24974  30.618  31.743  13.851
54375W        W24975  44.810  34.515  12.105
54376W        W24976   0.892  30.374   4.217
54377W        W24977   4.651  36.477   0.456
54378W        W24978  11.748  15.150   1.978
54379W        W24979  20.422  22.612   0.300
54380W        W24980  18.281  19.319   2.965
54381W        W24981  31.903  27.257  11.447
54382W        W24982   5.407   9.185  13.907
54383W        W24983   8.045  11.221   1.667
54384W        W24984  15.366  23.328   3.623
54385W        W24985  11.678  12.887  10.041
54386W        W24986  30.906  32.902   0.294
54387W        W24987   0.192   6.903  14.032
54388W        W24988  13.594  41.957   0.093
54389W        W24989   8.401  18.823  13.414
54390W        W24990  38.445  23.301   4.594
54391W        W24991  31.995   7.582   0.415
54392W        W24992  28.963  11.747  10.736
54393W        W24993  21.175  22.529  14.755
54394W        W24994   9.311   6.349   1.326
54395W        W24995  28.660   4.939   1.217
54396W        W24996  31.845  35.504  13.550
54397W        W24997  26.913  24.084   4.087
54398W        W24998  32.893  21.231  14.217
54399W        W24999  21.188  37.486  12.521
54400W        W25000   3.217   1.702  14.498
54401W        W25001   5.903  30.960   3.250
54402W        W25002  31.590  25.429   3.085
54403W        W25003   2.081  30.468  14.684
54404W        W25004  14.329  43.829   5.306
54405W        W25005  23.067  29.134  12.896
54406W        W25006   2.432   4.691   0.494
54407W        W25007  35.926   8.406  14.773
54408W        W25008  38.819  27.577   3.614
54409W        W25009  24.534  40.554  12.476
54410W        W25010  36.147  12.626   4.810
54411W        W25011  23.155  35.884  14.573
54412W        W25012   0.179  39.359  14.002
54413W        W25013  27.103  22.442  12.433
54414W        W25014  38.527  23.186  13.772
54415W        W25015  37.085  14.214   2.798
54416W        W25016  15.582  16.423   5.396
54417W        W25017  42.216  24.699  14.732
54418W        W25018  29.733   5.928   1.252
54419W        W25019  25.096  18.293  12.522
54420W        W25020  39.163  23.272   4.215
54421W        W25021  21.460  32.591  12.061
54422W        W25022  12.291  33.463  11.205
54423W        W25023   8.909  14.884  13.770
54424W        W25024  38.121  10.359   0.771
54425W        W25025  24.629  34.544  10.755
54426W        W25026  39.882  33.737   3.202
54427W        W25027  17.075  41.888  10.566
54428W        W25028  11.161  44.083  11.689
54429W        W25029  30.149   0.527  13.114
54430W        W25030  28.527  23.907  10.656
54431W        W25031  13.479  39.735  11.920
54432W        W25032  39.079  25.322  12.516
54433W        W25033  12.269  13.692  13.790
54434W        W25034  32.919  24.030   1.327
54435W        W25035   3.707  41.107  14.411
54436W        W25036  39.080   5.791   1.433
54437W        W25037  41.348  40.729  10.747
54438W        W25038  32.094  43.657  11.341
54439W        W25039  32.630  35.158   2.157
54440W        W25040  40.739  21.967   4.990
54441W        W25041  21.720   6.417  14.308
54442W        W25042  30.476  43.809   4.312
54443W        W25043  31.078  29.553  12.992
54444W        W25044  24.256  28.220   0.624
54445W        W25045  33.378  24.226  12.778
54446W        W25046  13.820  36.296   0.138
54447W        W25047  36.020  26.232   2.465
54448W        W25048  20.727   5.131   2.184
54449W        W25049   1.690  14.762  13.521
54450W        W25050  24.000  40.960   2.738
54451W        W25051  22.407  11.183  10.327
54452W        W25052  32.584  26.908   2.289
54453W        W25053  23.840  28.436   0.336
54454W        W25054  42.370  15.119   3.604
54455W        W25055  27.568  12.074  13.969
54456W        W25056  34.259  17.949  11.534
54457W        W25057   7.869  36.605   0.528
54458W        W25058   6.124  16.092   0.442
54459W        W25059  32.563  27.889  14.176
54460W        W25060  14.412  12.446  14.388
54461W        W25061  38.485  13.583  14.434
54462W        W25062  12.862  40.034  14.913
54463W        W25063  15.254  26.625   3.167
54464W        W25064  37.026  29.327   4.175
54465W        W25065   3.165  43.171   4.269
54466W        W25066  20.230   0.603   1.468
54467W        W25067  19.972  35.112   0.403
54468W        W25068   6.089  24.328  12.134
54469W        W25069  10.836  25.622  11.526
54470W        W25070  37.072  24.442  13.916
54471W        W25071  38.095  42.826   1.950
54472W        W25072  44.966   2.898  12.426
54473W        W25073   7.209  13.576   2.781
54474W        W25074  27.135  33.040   0.752
54475W        W25075   4.382  37.033  10.679
54476W        W25076  35.974  26.101  13.057
54477W        W25077  27.181  14.704   1.661
54478W        W25078  26.011   9.213  11.303
54479W        W25079  32.077  19.590  13.427
54480W        W25080   9.753  34.012  11.056
54481W        W25081  16.836   6.783  14.404
54482W        W25082  11.498  14.659  13.232
54483W        W25083  33.264  25.983   1.818
54484W        W25084  20.163  18.147  14.029
54485W        W25085  25.495  43.349   4.252
54486W        W25086  19.240   3.256  11.963
54487W        W25087   7.649  23.761   3.010
54488W        W25088  35.391  31.588   0.479
54489W        W25089  27.610  33.347   0.979
54490W        W25090   7.714  37.262   4.651
54491W        W25091  22.017  19.774  13.169
54492W        W25092  42.528  24.947  11.648
54493W        W25093  18.121  19.743  12.157
54494W        W25094   3.966   2.285   0.293
54495W        W25095  17.600  27.215   2.419
54496W        W25096  33.860  44.773  14.941
54497W        W25097  23.037   0.752   3.351
54498W        W25098  12.767   9.911   0.812
54499W        W25099  43.676  30.082   1.237
54500W        W25100  17.628  24.290   1.943
54501W        W25101  33.225  11.338   4.103
54502W        W25102  30.061  16.846   0.408
54503W        W25103  34.800  30.367  13.955
54504W        W25104  16.598  21.538  12.448
54505W        W25105  21.647   2.715   2.012
54506W        W25106  38.431  14.772  12.931
54507W        W25107  14.783  24.656  13.869
54508W        W25108   3.107  43.494  11.139
54509W        W25109   7.433  27.013   2.685
54510W        W25110  22.751   7.266  13.240
54511W        W25111  39.705  13.531  11.418
54512W        W25112   5.425  34.877   3.635
54513W        W25113  13.327  13.326  12.651
54514W        W25114  40.860  39.070  12.071
54515W        W25115  10.832  15.878  13.400
54516W        W25116   2.977  26.933  12.118
54517W        W25117  40.779   4.443   4.006
54518W        W25118  35.935   0.288   1.439
54519W        W25119  17.747   3.949   0.633
54520W        W25120   2.995  22.764  13.430
54521W        W25121  38.077  18.524  14.413
54522W        W25122  30.114  40.455   0.818
54523W        W25123  37.636   8.079   2.833
54524W        W25124  40.417  39.585   2.862
54525W        W25125  38.893  24.188  13.265
54526W        W25126  12.392   0.287   1.839
54527W        W25127  19.551  36.993   3.612
54528W        W25128  41.071  16.343   3.666
54529W        W25129  12.767  43.754   3.708
54530W        W25130   9.178  11.618   3.184
54531W        W25131  33.067  10.746   3.908
54532W        W25132   9.231  28.363   2.181
54533W        W25133  26.748  44.014  11.216
54534W        W25134  16.123  20.306  13.142
54535W        W25135   2.119   6.710  14.234
54536W        W25136  28.674  23.090   4.858
54537W        W25137  33.091  39.550  10.909
54538W        W25138  30.208  17.295   0.206
54539W        W25139  42.781   3.220  12.060
54540W        W25140   3.618  38.692   0.256
54541W        W25141   4.789  16.236  12.866
54542W        W25142  38.149  38.391   0.272
54543W        W25143   5.624   6.316   4.685
54544W        W25144  18.090  25.950  12.010
54545W        W25145  11.863  21.052  10.127
54546W        W25146   8.890  11.223   2.144
54547W        W25147  43.514   2.867  12.423
54548W        W25148   0.460  28.772  14.629
54549W        W25149  29.279  17.664   4.118
54550W        W25150  30.670  32.256  13.991
54551W        W25151   3.311   8.452  10.615
54552W        W25152  22.604   4.896  13.886
54553W        W25153  22.066   0.740  13.372
54554W        W25154  25.630  44.274   9.682
54555W        W25155  31.830   3.935   1.348
54556W        W25156  40.196  29.573  11.546
54557W        W25157  44.867  14.870   2.776
54558W        W25158   1.791  17.868  12.974
54559W        W25159  23.670  36.519   1.751
54560W        W25160  19.875  19.339   0.427
54561W        W25161  29.206   1.430   1.216
54562W        W25162   5.929  36.507  13.459
54563W        W25163  19.575  41.494   0.851
54564W        W25164  43.942  19.125  12.252
54565W        W25165  40.115  24.237  11.469
54566W        W25166  24.159  42.437   0.304
54567W        W25167   1.244  20.641   3.598
54568W        W25168   1.340  15.972  11.967
54569W        W25169   8.785  31.389   0.684
54570W        W25170  41.818   5.608  10.652
54571W        W25171  12.082   2.834  14.971
54572W        W25172  17.476  18.185  12.473
54573W        W25173  33.626  32.485  12.527
54574W        W25174   2.443   0.888  13.427
54575W        W25175  22.716   7.307  12.732
54576W        W25176   2.830  30.595   2.361
54577W        W25177   0.364   4.063   4.173
54578W        W25178  31.367  42.301  13.810
54579W        W25179   0.892   4.432  11.630
54580W        W25180  43.885  21.473  14.063
54581W        W25181   9.620  44.273   2.752
54582W        W25182  32.980  14.069  12.533
54583W        W25183   6.370  27.610   1.286
54584W        W25184  24.343   4.846  12.447
54585W        W25185  34.167  39.835   3.934
54586W        W25186  28.913  42.601   3.444
54587W        W25187  34.632  35.059   3.477
54588W        W25188   3.524  26.561  13.483
54589W        W25189   8.258  14.782  11.716
54590W        W25190  31.729  44.477   4.817
54591W        W25191  24.757  10.122  12.607
54592W        W25192   3.274  32.479  14.554
54593W        W25193  35.098  39.484  12.480
54594W        W25194  19.590  13.526   4.285
54595W        W25195   7.463  33.982  12.149
54596W        W25196  16.730  26.730   1.740
54597W        W25197  42.473  43.337  12.593
54598W        W25198  18.852  11.976   1.704
54599W        W25199   7.872  39.751   4.308
54600W        W25200  31.935  18.839   3.178
54601W        W25201  10.807  29.827  11.656
54602W        W25202  10.738   7.849  13.626
54603W        W25203   9.358  27.872   2.119
54604W        W25204  37.218  34.942   0.785
54605W        W25205  10.914  22.530  12.448
54606W        W25206  30.502   4.224   0.216
54607W        W25207  32.446  15.136   1.221
54608W        W25208   2.533  35.003  10.703
54609W        W25209  39.475  27.498   1.059
54610W        W25210   0.268  20.903  14.015
54611W        W25211  37.932  11.639  14.946
54612W        W25212  13.137  35.524   4.654
54613W        W25213  42.800  35.054  12.485
54614W        W25214  17.557  31.097   0.246
54615W        W25215  27.565  40.408   1.178
54616W        W25216  12.562   6.603  14.381
54617W        W25217  28.551  42.752  11.373
54618W        W25218  32.556  19.724   1.262
54619W        W25219  20.915  20.102  11.063
54620W        W25220  42.832   6.345   5.148
54621W        W25221  41.511   0.340   3.830
54622W        W25222  24.126  37.752   0.373
54623W        W25223  44.888  21.626  11.628
54624W        W25224  39.297  39.260  12.314
54625W        W25225  32.065  17.513  11.169
54626W        W25226  12.279  21.158   1.888
54627W        W25227  26.303  16.047   2.299
54628W        W25228  26.753  15.048   1.848
54629W        W25229  42.233  23.552   1.386
54630W        W25230  25.768  29.396  12.638
54631W        W25231  44.735  30.727  13.450
54632W        W25232  34.473   6.204   3.998
54633W        W25233  32.962  34.595  11.600
54634W        W25234  33.842  40.849   1.249
54635W        W25235  14.339  22.259  14.791
54636W        W25236  15.134   5.730  12.886
54637W        W25237  40.083  16.324  11.901
54638W        W25238   7.403   1.053  13.337
54639W        W25239  25.476  37.975   3.408
54640W        W25240  43.034  37.935   4.111
54641W        W25241  18.035  40.863   4.406
54642W        W25242  29.077  32.904  11.646
54643W        W25243   4.680  31.368  14.909
54644W        W25244  15.424   1.782   3.622
54645W        W25245  29.867  42.996   2.193
54646W        W25246  18.503  39.972  12.449
54647W        W25247  38.255  41.030   0.247
54648W        W25248   5.399  26.168   4.142
54649W        W25249   0.166  35.531  11.837
54650W        W25250  43.380   3.785  10.635
54651W        W25251  40.462  32.531  11.909
54652W        W25252  40.015   1.049   2.750
54653W        W25253  14.114  32.426   1.408
54654W        W25254   9.892   5.252  14.476
54655W        W25255  15.203  20.529  14.378
54656W        W25256  42.034  21.087   0.027
54657W        W25257  25.897  20.199   2.560
54658W        W25258   9.183  34.660   3.668
54659W        W25259   9.378  21.116   3.210
54660W        W25260  38.336  10.330  12.487
54661W        W25261  44.591  35.048  13.740
54662W        W25262  38.083  31.488  12.993
54663W        W25263  26.161  11.269   2.344
54664W        W25264  40.326  41.048  11.618
54665W        W25265  26.718  43.885  12.098
54666W        W25266  34.457  11.863  13.342
54667W        W25267  19.824  17.114   3.679
54668W        W25268  11.915  31.043   1.376
54669W        W25269  16.327  15.850  12.150
54670W        W25270  36.420  27.967   1.689
54671W        W25271  10.077  26.137  10.859
54672W        W25272  41.478  26.097  11.881
54673W        W25273  42.347   3.916  10.770
54674W        W25274  25.933  13.657  14.859
54675W        W25275  28.425  21.659   4.839
54676W        W25276  13.161  23.124   3.583
54677W        W25277   5.907  29.414  14.549
54678W        W25278  41.936  23.308   5.014
54679W        W25279   6.834  28.766  14.833
54680W        W25280  18.192  12.731  14.939
54681W        W25281  43.892  21.794   3.895
54682W        W25282  25.642  15.850  13.876
54683W        W25283  10.027  22.035   1.627
54684W        W25284  10.982  14.897  14.421
54685W        W25285   3.224  30.436  13.432
54686W        W25286  26.392  20.225   2.410
54687W        W25287  13.463   8.324  13.797
54688W        W25288   5.256  12.287  14.060
54689W        W25289  44.802  43.076   2.171
54690W        W25290   4.840  29.559   3.146
54691W        W25291  44.660   8.977  13.761
54692W        W25292  26.436  30.609  11.776
54693W        W25293  35.503  30.588  14.344
54694W        W25294   5.985   0.058   0.846
54695W        W25295  25.382  19.950   3.198
54696W        W25296  42.746  18.019  11.510
54697W        W25297  34.418  41.344  12.539
54698W        W25298  43.747   6.459  13.860
54699W        W25299  31.879  36.884   3.853
54700W        W25300  15.056  44.893   0.447
54701W        W25301   1.299  32.295   2.914
54702W        W25302  23.652  34.632   1.367
54703W        W25303   4.409  36.921   3.922
54704W        W25304  41.942  27.210   4.016
54705W        W25305  18.045  17.782  13.025
54706W        W25306  35.086  20.307  13.791
54707W        W25307   1.030  28.588  10.956
54708W        W25308  44.951  31.395  13.781
54709W        W25309  19.791   3.480  10.632
54710W        W25310   8.497  17.569   3.193
54711W        W25311   1.292  29.980  11.166
54712W        W25312   8.009  27.715  10.620
54713W        W25313  32.668  44.960  13.501
54714W        W25314  25.676  22.870  13.413
54715W        W25315  33.914  29.764   0.642
54716W        W25316  33.963   7.720   1.170
54717W        W25317  23.604   4.285  13.368
54718W        W25318  13.802  34.119   2.711
54719W        W25319  20.179  20.317   1.753
54720W        W25320  40.790   6.413   1.303
54721W        W25321  31.917  19.749   3.304
54722W        W25322  22.786  15.740   5.236
54723W        W25323  24.621  37.924   2.403
54724W        W25324   8.202  18.622   0.772
54725W        W25325  34.807  31.207   1.252
54726W        W25326  37.156  14.299  12.398
54727W        W25327   2.477  28.541  12.037
54728W        W25328  36.561  11.656  13.419
54729W        W25329  12.373  18.725   3.739
54730W        W25330  30.597  38.217   9.751
54731W        W25331  11.674  25.404   0.895
54732W        W25332  33.759   3.326   1.634
54733W        W25333  26.968   4.869   0.745
54734W        W25334  26.161  10.217   0.371
54735W        W25335   8.866  33.062  14.046
54736W        W25336  22.239  35.064   3.648
54737W        W25337  30.887  10.279  10.205
54738W        W25338  40.706  42.552   4.476
54739W        W25339  30.480  32.085  11.149
54740W        W25340   5.404   0.818   1.448
54741W        W25341  30.703  37.847  12.401
54742W        W25342  23.303   8.351  14.683
54743W        W25343   4.859  36.342  14.995
54744W        W25344  23.729   2.997  11.564
54745W        W25345  21.475   5.599  12.601
54746W        W25346  28.280  20.291  10.053
54747W        W25347   4.359  38.742  10.489
54748W        W25348  24.205  19.717   1.427
54749W        W25349   2.690  19.772  11.947
54750W        W25350  43.778  15.700  10.956
54751W        W25351  22.460  42.299  11.164
54752W        W25352  39.442  21.658   3.078
54753W        W25353  25.193  13.364  13.039
54754W        W25354  18.027  41.228   2.260
54755W        W25355  44.741   0.884   3.245
54756W        W25356  34.400  24.253  11.598
54757W        W25357  20.349   8.727  11.425
54758W        W25358  41.867  17.775   1.922
54759W        W25359  12.732  39.412   0.733
54760W        W25360   5.974   0.449   3.760
54761W        W25361  20.332  27.719  11.160
54762W        W25362  20.839  38.194   4.249
54763W        W25363   3.912  42.013   2.967
54764W        W25364  37.275  34.992   4.556
54765W        W25365  35.365  43.930  11.304
54766W        W25366   6.637   5.543  14.255
54767W        W25367   0.799  42.045  10.489
54768W        W25368   0.525   5.365   4.071
54769W        W25369  39.580  38.037  12.893
54770W        W25370  15.150  42.149   9.554
54771W        W25371  12.729  20.590   0.718
54772W        W25372  34.980   2.190   1.436
54773W        W25373  36.724  44.351   1.046
54774W        W25374  29.342  28.341   3.290
54775W        W25375   7.627  16.602  12.474
54776W        W25376  17.551  21.975   2.736
54777W        W25377  35.500  18.094  11.739
54778W        W25378  35.993  20.061  10.657
54779W        W25379  33.395  37.746   0.984
54780W        W25380  43.360  34.327   4.543
54781W        W25381  24.447  22.095   0.928
54782W        W25382  11.348  24.737   4.577
54783W        W25383  33.306  13.801   2.739
54784W        W25384  21.720  15.108   3.872
54785W        W25385   1.019   7.281   1.952
54786W        W25386  33.626  39.531   2.323
54787W        W25387  43.037  14.401  12.090
54788W        W25388  29.100  32.814   4.474
54789W        W25389  18.284  34.812   2.836
54790W        W25390  28.284  44.961   1.750
54791W        W25391  32.993   7.610  10.741
54792W        W25392  26.306  27.996   0.393
54793W        W25393  42.140  19.800  14.014
54794W        W25394  13.787   0.481   3.135
54795W        W25395  20.007  29.249   9.882
54796W        W25396  41.352  19.584   2.242
54797W        W25397  35.240   4.567   1.276
54798W        W25398  39.105  32.841  11.946
54799W        W25399  11.725  10.776  11.164
54800W        W25400   2.226  38.030   0.840
54801W        W25401  26.350  33.272  12.127
54802W        W25402  41.584  22.317  11.132
54803W        W25403   4.421  25.183  14.336
54804W        W25404  40.031  41.965  12.501
54805W        W25405   0.443   9.343   4.749
54806W        W25406  44.318   8.700   4.120
54807W        W25407  25.767  11.574   0.966
54808W        W25408   4.468   6.792  12.041
54809W        W25409  32.457  39.760  12.457
54810W        W25410  39.088   1.242   1.826
54811W        W25411  12.341  44.775  11.672
54812W        W25412   5.976  34.041  10.460
54813W        W25413  30.890  19.711   3.185
54814W        W25414  44.746  18.046  13.403
54815W        W25415  12.227  22.718   1.289
54816W        W25416  23.938  30.843  12.087
54817W        W25417  27.393   1.323  12.042
54818W        W25418   9.202  19.095   2.833
54819W        W25419  35.436   9.904  14.008
54820W        W25420   7.646  31.300  11.110
54821W        W25421  31.053  26.055  10.979
54822W        W25422  33.503  26.591  10.719
54823W        W25423   7.446  19.423  14.027
54824W        W25424  22.192  11.737   0.546
54825W        W25425  20.627  21.881  12.693
54826W        W25426  34.797  32.982   0.047
54827W        W25427  39.251  25.614   3.791
54828W        W25428  39.665  40.821   3.139
54829W        W25429  12.306   9.102  13.289
54830W        W25430  43.962   9.193   3.313
54831W        W25431   6.504  44.935   0.693
54832W        W25432  26.711   2.674  14.801
54833W        W25433   2.227  17.096  11.127
54834W        W25434  43.425  39.801   2.684
54835W        W25435  35.564  17.356   1.724
54836W        W25436  10.220  37.046   4.760
54837W        W25437   5.136  26.263   3.310
54838W        W25438  31.181   4.783  14.062
54839W        W25439  42.045  25.474  14.395
54840W        W25440  16.245  33.425   1.246
54841W        W25441  12.337  19.558   2.866
54842W        W25442  25.093  19.591  12.118
54843W        W25443  32.938  10.954  10.372
54844W        W25444  30.199  18.296   2.267
54845W        W25445  13.968  11.922   0.147
54846W        W25446  15.578  31.330  11.973
54847W        W25447  29.706  12.668   1.888
54848W        W25448  12.123  39.525  12.638
54849W        W25449   9.843  21.109  14.052
54850W        W25450  12.376  30.568  10.778
54851W        W25451  39.079  29.379  12.206
54852W        W25452  27.854  21.521  14.849
54853W        W25453  18.322   4.430   1.743
54854W        W25454  25.564   5.129   3.435
54855W        W25455  13.719  30.922  11.117
54856W        W25456  42.254   1.228  14.506
54857W        W25457  14.411   3.348  11.899
54858W        W25458  39.312  18.042   4.506
54859W        W25459  12.808  27.951   3.179
54860W        W25460  32.810  21.111   4.206
54861W        W25461  26.011  36.782   0.044
54862W        W25462   3.344   7.919  13.883
54863W        W25463  12.176  14.649   3.326
54864W        W25464   5.100  11.707  13.355
54865W        W25465  29.676   8.671   0.551
54866W        W25466  34.363  10.818  14.389
54867W        W25467  32.642  12.687  11.610
54868W        W25468  32.514  26.197  12.887
54869W        W25469  12.850  39.184  12.119
54870W        W25470  25.988  32.314  12.057
54871W        W25471   9.732  15.836   4.564
54872W        W25472   3.018   3.382  13.782
54873W        W25473  31.208  28.007   0.815
54874W        W25474  30.985  21.548   2.795
54875W        W25475  32.049   9.804  11.976
54876W        W25476   3.479  39.518  11.141
54877W        W25477   4.209  44.946  12.411
54878W        W25478  31.111   7.926  14.474
54879W        W25479  32.619  41.935   4.119
54880W        W25480  19.090  33.456  11.461
54881W        W25481   0.214  23.521  12.455
54882W        W25482  40.067  18.759  14.902
54883W        W25483  22.519   4.432  12.169
54884W        W25484   4.490  22.996  13.372
54885W        W25485   2.736  43.358  12.999
54886W        W25486  39.774  21.573   2.683
54887W        W25487  39.524   4.034  14.769
54888W        W25488  23.258  24.222  14.752
54889W        W25489  12.509  38.009   3.412
54890W        W25490  29.013  34.681  12.869
54891W        W25491  15.656  19.829   2.226
54892W        W25492  33.884   8.149   1.940
54893W        W25493  21.650  43.182   2.100
54894W        W25494  26.219  44.921   4.793
54895W        W25495  22.157  39.000  14.401
54896W        W25496   6.448  11.863  13.079
54897W        W25497  39.274  32.908   3.737
54898W        W25498  23.092  10.656   9.835
54899W        W25499   2.423   5.036   4.711
54900W        W25500  40.833   3.062   1.346
54901W        W25501   8.736   4.822  14.386
54902W        W25502   8.749  42.949   2.704
54903W        W25503   4.422  36.535   1.798
54904W        W25504  38.596  35.520  14.816
54905W        W25505  12.391   5.835   0.682
54906W        W25506  33.310   1.766   3.233
54907W        W25507  32.399  12.595  13.160
54908W        W25508   3.585  13.867   0.208
54909W        W25509  30.376   3.717   0.237
54910W        W25510  38.852  24.167   2.781
54911W        W25511  39.082  38.451   4.631
54912W        W25512   6.197  14.507  14.919
54913W        W25513  39.047  19.536   0.848
54914W        W25514  23.053   7.340  11.373
54915W        W25515  32.369   2.324  11.898
54916W        W25516  14.888  37.475  11.292
54917W        W25517  19.480  28.757   3.350
54918W        W25518  44.766  37.935  10.959
54919W        W25519   3.200   0.575  10.326
54920W        W25520  43.637  36.325  12.477
54921W        W25521  31.220  44.434   4.483
54922W        W25522  36.098  10.603   1.586
54923W        W25523  18.072  14.731  12.097
54924W        W25524   5.430  10.996   3.696
54925W        W25525  18.781  33.846   4.616
54926W        W25526  27.471  26.102  11.116
54927W        W25527  19.764  35.098  13.795
54928W        W25528  36.546  35.156  11.540
54929W        W25529  10.249  42.987   3.761
54930W        W25530   9.856   2.169   3.770
54931W        W25531   8.839  19.608   4.252
54932W        W25532  19.578  33.435   3.030
54933W        W25533   9.543   6.357   0.799
54934W        W25534  26.769  24.722  11.145
54935W        W25535  43.306  32.005  13.612
54936W        W25536  42.483  12.523   1.147
54937W        W25537  33.681  25.697  12.410
54938W        W25538  44.474  42.800   3.355
54939W        W25539   7.087   5.849   0.086
54940W        W25540   3.075  43.356   1.866
54941W        W25541  22.701  23.856  13.355
54942W        W25542  40.002  19.812   2.309
54943W        W25543  12.328  19.060  13.437
54944W        W25544  44.538  17.849  13.820
54945W        W25545  29.019  30.092   4.680
54946W        W25546   7.479   0.537  11.140
54947W        W25547  25.477  35.652   3.706
54948W        W25548  15.025  35.044   2.175
54949W        W25549  28.196  17.272   0.213
54950W        W25550  37.685   5.885  14.483
54951W        W25551   0.554  38.471   1.818
54952W        W25552   3.272  10.812   3.812
54953W        W25553  17.957  28.931  13.060
54954W        W25554  13.630  31.221  12.562
54955W        W25555  40.276  36.386   1.203
54956W        W25556  17.794  42.492   3.338
54957W        W25557   7.772  32.561   4.121
54958W        W25558  34.607  33.357   2.337
54959W        W25559  33.564   1.892  12.000
54960W        W25560  37.229  17.862   2.717
54961W        W25561  28.909  18.371  10.683
54962W        W25562   2.784   6.330   4.896
54963W        W25563  38.836  13.553   2.827
54964W        W25564  27.773   2.816   4.797
54965W        W25565  35.176  15.634  12.007
54966W        W25566  21.622  25.590  14.864
54967W        W25567  15.534  36.558  10.754
54968W        W25568  21.739   5.891  10.092
54969W        W25569   4.084  31.412  10.794
54970W        W25570  15.684   8.408  12.391
54971W        W25571  26.556  16.746   1.214
54972W        W25572  34.056   4.226   4.442
54973W        W25573   7.057  31.336  13.987
54974W        W25574  18.170  24.485  12.633
54975W        W25575  32.406  14.879   4.410
54976W        W25576  40.724  23.711  10.719
54977W        W25577  41.097  41.055  14.926
54978W        W25578  11.091  25.645   1.652
54979W        W25579  41.291  29.790  11.134
54980W        W25580   4.429  40.012  12.472
54981W        W25581  29.364   8.222  10.691
54982W        W25582  35.961  32.535   3.126
54983W        W25583  44.259  43.786   3.443
54984W        W25584  38.126  16.718  13.758
54985W        W25585  34.070  29.067   0.012
54986W        W25586  13.423   3.291  12.137
54987W        W25587  30.887  27.417  12.731
54988W        W25588  27.175  20.648  10.621
54989W        W25589  41.246  26.480  11.136
54990W        W25590  12.318  28.024   0.078
54991W        W25591  27.959  39.522  13.826
54992W        W25592  44.025   7.559   2.285
54993W        W25593   5.320  44.500   1.053
54994W        W25594  21.567  31.637   1.289
54995W        W25595  21.526   7.834   2.462
54996W        W25596  23.058  31.590  14.717
54997W        W25597   9.977   9.388   0.907
54998W        W25598  31.325  18.974   4.771
54999W        W25599   6.562  10.522  11.499
55000W        W25600   1.873   4.476   0.915
55001W        W25601   3.439  17.628  14.952
55002W        W25602  16.450   7.368  11.687
55003W        W25603  30.189  36.841  13.412
55004W        W25604  44.836  12.055  13.137
55005W        W25605  14.864  23.971   1.851
55006W        W25606  12.777   7.244   2.212
55007W        W25607  29.442   6.356   2.326
55008W        W25608  37.374   8.747  14.544
55009W        W25609   8.264   9.196  12.129
55010W        W25610  17.146  39.000   3.315
55011W        W25611  39.869  20.057  14.360
55012W        W25612  20.288   0.545  14.304
55013W        W25613  31.848   8.540  10.793
55014W        W25614  35.586  25.493  12.063
55015W        W25615  10.656  31.467  12.922
55016W        W25616   0.701  17.028  12.315
55017W        W25617  37.589  12.740   0.641
55018W        W25618  38.571  14.825  12.046
55019W        W25619   5.862  28.163   2.599
55020W        W25620  31.878  28.695   1.203
55021W        W25621  10.173   7.208   0.828
55022W        W25622  37.029  27.676   4.793
55023W        W25623   5.442   2.272   0.475
55024W        W25624  44.499  27.957   2.149
55025W        W25625  31.940  35.075  12.074
55026W        W25626  31.485  26.433  14.960
55027W        W25627  22.775  34.492   3.372
55028W        W25628  15.150  17.163   2.183
55029W        W25629  37.962  14.015   0.308
55030W        W25630  27.426  10.151  12.910
55031W        W25631   9.707  39.797   1.292
55032W        W25632   2.103  13.742   4.080
55033W        W25633  37.965   6.426  11.000
55034W        W25634  12.384  29.160   4.270
55035W        W25635  30.681  12.595  11.603
55036W        W25636  40.803   0.855  12.747
55037W        W25637  29.966  15.151  10.377
55038W        W25638  18.048  26.611  14.195
55039W        W25639  35.141  12.111   0.459
55040W        W25640  22.089  32.025  13.922
55041W        W25641  34.099  31.881   1.825
55042W        W25642  26.691  41.863   3.127
55043W        W25643  35.338  35.749  13.791
55044W        W25644   2.522  15.072   2.886
55045W        W25645  26.898  31.487   4.901
55046W        W25646  26.114  13.794  12.033
55047W        W25647  14.893  11.902   3.208
55048W        W25648  41.842  28.764   1.227
55049W        W25649  12.849  39.742  13.601
55050W        W25650   3.982  11.864   4.193
55051W        W25651  38.580   3.509   2.689
55052W        W25652  37.748  37.359  10.089
55053W        W25653   8.670  15.004  11.957
55054W        W25654  17.025   4.887   1.745
55055W        W25655   8.715   8.940  14.875
55056W        W25656  20.029  40.506   1.204
55057W        W25657  40.648  36.277  12.710
55058W        W25658  12.197  27.909  12.984
55059W        W25659  14.698  25.608   4.927
55060W        W25660  12.175   0.607   0.877
55061W        W25661  23.252  19.651   4.196
55062W        W25662  41.775  21.581  14.823
55063W        W25663  27.370  44.557   2.290
55064W        W25664  13.830  14.857   1.195
55065W        W25665  17.710   8.557   4.899
55066W        W25666  26.949  28.195  12.896
55067W        W25667  24.128  41.400   4.717
55068W        W25668  30.649   2.418  11.527
55069W        W25669  20.969  42.332   0.477
55070W        W25670  11.442  43.826   0.014
55071W        W25671  30.537  22.822   2.918
55072W        W25672   9.166  25.552  12.931
55073W        W25673  20.171  37.805   3.734
55074W        W25674  34.571  34.945   1.273
55075W        W25675  33.056  24.063   4.395
55076W        W25676  13.130  41.346   3.580
55077W        W25677  18.167   5.718   4.422
55078W        W25678  23.727  29.857  12.982
55079W        W25679   8.299  14.349  12.022
55080W        W25680  37.660  27.886  11.601
55081W        W25681   3.423  30.638  14.455
55082W        W25682  20.798  20.268   1.380
55083W        W25683   6.443  41.263  13.942
55084W        W25684   0.971   9.196   0.438
55085W        W25685  15.347  18.721   4.570
55086W        W25686   2.034  19.849  10.732
55087W        W25687  29.368  15.845  11.160
55088W        W25688  26.067  29.732  12.371
55089W        W25689  38.886  28.211  12.579
55090W        W25690  40.018  14.451  10.711
55091W        W25691  40.028  24.541  13.184
55092W        W25692   0.277   1.946  10.721
55093W        W25693  22.304  10.817   1.364
55094W        W25694  20.092  20.147   2.243
55095W        W25695   0.341  37.481  12.403
55096W        W25696   8.630  11.101  10.748
55097W        W25697  39.558  42.555  14.597
55098W        W25698  27.494  27.699  10.510
55099W        W25699  24.063  21.827   2.279
55100W        W25700  10.816  42.888   4.237
55101W        W25701  37.637  20.117  14.553
55102W        W25702  35.690  16.900  11.698
55103W        W25703  23.763   4.195   3.270
55104W        W25704   2.349  20.200  12.632
55105W        W25705  36.294  20.185   2.266
55106W        W25706  29.513  16.541  10.732
55107W        W25707   4.256  26.742   3.003
55108W        W25708   6.194  37.772  12.367
55109W        W25709   6.295  20.749  12.538
55110W        W25710   4.768  36.839  13.726
55111W        W25711  24.311   9.062   3.666
55112W        W25712  11.601  28.633  10.637
55113W        W25713  12.254   8.847  10.911
55114W        W25714  19.310  30.236  12.082
55115W        W25715  40.906   0.769  14.947
55116W        W25716  43.443  41.933  12.582
55117W        W25717  15.835  41.048   2.128
55118W        W25718  25.337  38.473   4.654
55119W        W25719   2.898  40.140   2.657
55120W        W25720  42.336   3.976   1.694
55121W        W25721   4.120  19.908   2.502
55122W        W25722  19.691  11.723   0.777
55123W        W25723   6.408  21.432  11.291
55124W        W25724  29.025  30.485  14.306
55125W        W25725  27.349   9.877   3.696
55126W        W25726  19.482  37.072  14.872
55127W        W25727  33.535  25.228   3.340
55128W        W25728  15.127  30.039  11.546
55129W        W25729  39.108  25.838  12.487
55130W        W25730   7.751  12.737  11.574
55131W        W25731  28.412  27.643  14.893
55132W        W25732   4.930  34.509  14.011
55133W        W25733  42.254  39.038  14.863
55134W        W25734   0.998  43.465   2.343
55135W        W25735  27.146  28.700  14.378
55136W        W25736   6.340  16.832   4.606
55137W        W25737  25.517  17.177   0.436
55138W        W25738   5.966  37.590  13.863
55139W        W25739  28.599  23.676  13.412
55140W        W25740  41.458  20.025  11.787
55141W        W25741  34.916  37.113   4.084
55142W        W25742  33.941  27.911  12.063
55143W        W25743  11.330  44.257   3.346
55144W        W25744  38.237  41.013  11.338
55145W        W25745  26.765  31.981   4.253
55146W        W25746   8.753  26.524  11.942
55147W        W25747  10.606  39.460   0.534
55148W        W25748  29.473  13.176   0.256
55149W        W25749  18.343  25.781   2.761
55150W        W25750  17.767  14.122   0.203
55151W        W25751  16.710  41.974   2.716
55152W        W25752   8.432  14.514   0.459
55153W        W25753  22.923  12.701   2.245
55154W        W25754  21.450  28.575   1.855
55155W        W25755  14.103  30.093   0.194
55156W        W25756   4.073  38.339  11.841
55157W        W25757  20.505  38.655  11.267
55158W        W25758  20.134   2.349   0.873
55159W        W25759  42.335  29.020  14.041
55160W        W25760  40.970  33.001   0.922
55161W        W25761   5.752   5.346  13.094
55162W        W25762  24.925   7.174   0.974
55163W        W25763  11.567   1.990   5.093
55164W        W25764  40.940  30.897  11.168
55165W        W25765  26.959   6.915  13.540
55166W        W25766  28.025  26.525   4.117
55167W        W25767  44.020  26.969  12.003
55168W        W25768   2.274  40.081   0.217
55169W        W25769  15.126  23.196   4.084
55170W        W25770  12.099  42.700   2.746
55171W        W25771  17.363  21.036   1.329
55172W        W25772  35.612  40.832  11.436
55173W        W25773  39.995   9.637   3.656
55174W        W25774   4.828  41.433  13.085
55175W        W25775   8.692  11.726   4.575
55176W        W25776  43.849  33.461   1.383
55177W        W25777  14.178  21.964   2.509
55178W        W25778   1.689   1.846   1.951
55179W        W25779  37.466  30.963  10.378
55180W        W25780   5.303  28.871   0.369
55181W        W25781  22.188  25.709  13.237
55182W        W25782  24.635  32.218  11.159
55183W        W25783  32.653  32.741  14.941
55184W        W25784  13.157  43.932  10.117
55185W        W25785  11.510  25.139   1.308
55186W        W25786  43.816  39.416  14.240
55187W        W25787  30.930  40.297   3.662
55188W        W25788  28.466  43.343   3.424
55189W        W25789   9.914  40.452  13.412
55190W        W25790  38.037  18.284   3.144
55191W        W25791  30.533  44.888   0.381
55192W        W25792   1.928  14.194  12.528
55193W        W25793  30.231   6.355  12.820
55194W        W25794   8.694   5.473  10.576
55195W        W25795  40.019  11.253  11.192
55196W        W25796   5.782  20.813   3.922
55197W        W25797  42.529  20.141  14.102
55198W        W25798  11.187  19.799  13.952
55199W        W25799  27.304  19.487   1.332
55200W        W25800  31.715  40.485   2.927
55201W        W25801  35.650   3.802  13.384
55202W        W25802  21.696  35.820   3.762
55203W        W25803  16.878   0.487   0.651
55204W        W25804  29.748  13.161   4.513
55205W        W25805   6.171  16.529  13.843
55206W        W25806  38.114  41.911  12.589
55207W        W25807  42.042  19.043  12.879
55208W        W25808  43.768   5.278   4.237
55209W        W25809  28.017  26.739  10.683
55210W        W25810   6.903  35.218   3.495
55211W        W25811  22.612  24.840  14.922
55212W        W25812  25.046  38.937   4.602
55213W        W25813  34.186  24.700   2.226
55214W        W25814  26.349   8.803  10.905
55215W        W25815  26.492   9.186  12.147
55216W        W25816   4.219   4.882   0.375
55217W        W25817   2.587   7.198   0.729
55218W        W25818   7.571   2.995   2.757
55219W        W25819   9.238  18.671  11.440
55220W        W25820   5.405   5.387   1.659
55221W        W25821  32.651   3.666   2.473
55222W        W25822   8.672  38.056   0.712
55223W        W25823  17.852  39.518  14.946
55224W        W25824   5.289   1.887   2.676
55225W        W25825  27.064   1.743  11.555
55226W        W25826  12.196  15.735  12.092
55227W        W25827   9.190  35.317   2.841
55228W        W25828   1.410  34.995   0.545
55229W        W25829  12.131   8.364   3.327
55230W        W25830   7.382  33.149   1.728
55231W        W25831  21.745  30.716  14.521
55232W        W25832  15.760  19.037  13.893
55233W        W25833   9.376  20.604   3.699
55234W        W25834  23.418  17.791  12.132
55235W        W25835  10.695  29.098   2.132
55236W        W25836  33.348  17.826   2.773
55237W        W25837   7.730  23.976  14.476
55238W        W25838  10.123   2.800   1.817
55239W        W25839  29.870  22.922   3.752
55240W        W25840  38.873  38.161   1.551
55241W        W25841  44.865  35.830   0.635
55242W        W25842  14.585   0.980  13.177
55243W        W25843  43.172  44.341  11.162
55244W        W25844  26.568  30.312  12.176
55245W        W25845   7.142   3.693   1.325
55246W        W25846   5.181  16.561  13.987
55247W        W25847  33.492  24.448  14.256
55248W        W25848  30.863  39.265  11.605
55249W        W25849   6.068  23.019  13.424
55250W        W25850  32.384  14.627  13.016
55251W        W25851  37.554  43.272  10.649
55252W        W25852  23.603  18.646  12.002
55253W        W25853   0.879  37.739   4.967
55254W        W25854  29.197  35.355  11.409
55255W        W25855  44.579  35.673   1.839
55256W        W25856  11.172  17.345  14.239
55257W        W25857  32.819   8.755   5.110
55258W        W25858  15.021  40.199  11.210
55259W        W25859  44.895  31.911  12.897
55260W        W25860  34.433  22.414  14.378
55261W        W25861  24.263  37.395   1.750
55262W        W25862  41.053   6.918  12.895
55263W        W25863  34.302  32.005   0.950
55264W        W25864   2.609  37.356   5.044
55265W        W25865  40.347  13.819  14.732
55266W        W25866  33.548  34.101  13.034
55267W        W25867  36.613  23.202   3.178
55268W        W25868  38.964  34.426  13.484
55269W        W25869   1.199  31.378   2.342
55270W        W25870  40.253  38.322   3.959
55271W        W25871  29.460  12.606  14.960
55272W        W25872  29.646  23.573   0.244
55273W        W25873  22.522  24.802  12.202
55274W        W25874  33.461   1.023   1.950
55275W        W25875  40.003  16.689  13.519
55276W        W25876  31.802   4.376  12.938
55277W        W25877  10.828  20.696  13.922
55278W        W25878  42.497  41.278   3.637
55279W        W25879  11.431  11.477  13.473
55280W        W25880  16.407  24.742   1.353
55281W        W25881  44.786  13.846   4.782
55282W        W25882  31.501  20.336   0.978
55283W        W25883  44.469  16.988  11.089
55284W        W25884  36.511  18.316  14.461
55285W        W25885  23.635  14.310  14.383
55286W        W25886   3.659  13.231  13.375
55287W        W25887   0.899  42.292   4.588
55288W        W25888   2.999   4.626   1.306
55289W        W25889   2.295  29.411   4.488
55290W        W25890  17.297   9.762   0.300
55291W        W25891  16.684  17.838   2.371
55292W        W25892  39.635  39.320   4.420
55293W        W25893   0.512  30.425  12.649
55294W        W25894  33.876   9.849  14.263
55295W        W25895  31.470  43.321  13.064
55296W        W25896  16.812   0.463   4.609
55297W        W25897  36.982  21.591   3.630
55298W        W25898   8.635  10.657   4.604
55299W        W25899   0.972  10.350   9.878
55300W        W25900  13.841  31.075   3.216
55301W        W25901  16.013  28.385  12.402
55302W        W25902  42.063   9.836   3.137
55303W        W25903  24.529   2.112   1.773
55304W        W25904   2.626   6.137  13.903
55305W        W25905  12.048  11.330   2.923
55306W        W25906  42.903  14.083   0.744
55307W        W25907  23.010  34.346  12.941
55308W        W25908  39.011  42.067   4.188
55309W        W25909  38.664  44.548   4.377
55310W        W25910  35.832  15.043   0.079
55311W        W25911  34.665  42.899  12.476
55312W        W25912  13.209  39.591   0.550
55313W        W25913   3.838  39.354   3.569
55314W        W25914  14.872  18.254  10.898
55315W        W25915  27.411  15.363   0.825
55316W        W25916  34.434  31.677  11.528
55317W        W25917  27.593  38.511   3.275
55318W        W25918  32.341  43.713   0.370
55319W        W25919  19.127   1.515  12.624
55320W        W25920  27.274  31.494  10.534
55321W        W25921  16.982  31.005   0.967
55322W        W25922  13.241   8.819  13.515
55323W        W25923  13.883  28.961  11.658
55324W        W25924  40.086  21.175   3.625
55325W        W25925  36.665   2.280   2.234
55326W        W25926  31.136  13.860   3.716
55327W        W25927  41.283  26.653  13.159
55328W        W25928  40.511  11.861  11.576
55329W        W25929  18.997  42.381   3.685
55330W        W25930  25.829  17.125   3.187
55331W        W25931  44.294  37.347   1.301
55332W        W25932  41.584  42.730  11.330
55333W        W25933  28.184  31.142   2.128
55334W        W25934  26.304   0.737  12.687
55335W        W25935  12.908  16.778   0.417
55336W        W25936  23.908  42.812   0.071
55337W        W25937  25.666  15.375   4.135
55338W        W25938   9.953  25.523   0.926
55339W        W25939  31.531  41.019   0.282
55340W        W25940  37.575  34.115  13.365
55341W        W25941  39.709   3.319   4.279
55342W        W25942  14.887   1.778   3.650
55343W        W25943  42.696  31.895   0.754
55344W        W25944  35.107  38.554  13.008
55345W        W25945  39.851  23.339   3.711
55346W        W25946  15.769  11.285  12.934
55347W        W25947  23.982  13.900  13.487
55348W        W25948  25.773  17.826   4.144
55349W        W25949  31.458   5.035   0.417
55350W        W25950  11.825  37.487   2.781
55351W        W25951  29.821  10.628  11.626
55352W        W25952  17.708  32.535   4.289
55353W        W25953  10.870   8.530  11.072
55354W        W25954  27.861  33.135   4.862
55355W        W25955   2.266  30.035   0.453
55356W        W25956  21.824  34.374   2.735
55357W        W25957   2.561  30.622  14.685
55358W        W25958  17.524   7.233   4.514
55359W        W25959  37.772  19.069   0.701
55360W        W25960  32.194  13.611  14.829
55361W        W25961  27.899   7.896   0.272
55362W        W25962   2.157  39.435  13.598
55363W        W25963  14.123   2.972  13.942
55364W        W25964   4.923   1.853   4.077
55365W        W25965   7.828  22.572   3.110
55366W        W25966  24.554  37.794   1.922
55367W        W25967  11.559   4.228  14.584
55368W        W25968  38.785  28.431  13.780
55369W        W25969  12.337  18.546  13.471
55370W        W25970  26.145   9.423  12.474
55371W        W25971  44.302  12.406  13.888
55372W        W25972  11.331  31.698  10.700
55373W        W25973  17.242   2.075   0.070
55374W        W25974  40.565   0.788  14.459
55375W        W25975  13.614  41.569  14.303
55376W        W25976  10.154  23.242   4.705
55377W        W25977  16.283   0.403   4.589
55378W        W25978  36.341  24.407   4.390
55379W        W25979  12.310  12.534   2.829
55380W        W25980  22.725  42.732   1.888
55381W        W25981   2.458  27.868   0.361
55382W        W25982   4.649  41.000  13.927
55383W        W25983  10.692  18.531   3.179
55384W        W25984  39.831  34.950  11.364
55385W        W25985  40.975   4.366  14.269
55386W        W25986  15.708   7.482   0.822
55387W        W25987   4.552  16.584   2.265
55388W        W25988  32.313  26.637   1.266
55389W        W25989  29.455   9.929   1.072
55390W        W25990  34.986  35.584  11.601
55391W        W25991   0.804  40.295  11.987
55392W        W25992   1.523   1.247  14.947
55393W        W25993  33.546  11.693  10.753
55394W        W25994  14.847  22.122  14.831
55395W        W25995  26.625  20.570  12.476
55396W        W25996  14.067  19.687   3.028
55397W        W25997   5.021  42.002   3.593
55398W        W25998  43.420  42.322  13.430
55399W        W25999  17.273   8.753  14.971
55400W        W26000  20.983  26.069  11.653
55401W        W26001   7.019   3.856   3.850
55402W        W26002  12.390  43.288   3.556
55403W        W26003  35.368   2.368  13.581
55404W        W26004  13.314   0.085  14.858
55405W        W26005  37.380  30.394   4.361
55406W        W26006   2.287   1.403  12.103
55407W        W26007  20.791  16.638  11.910
55408W        W26008  14.336  14.106  12.774
55409W        W26009  33.036  24.473   4.724
55410W        W26010  16.827   6.833  12.541
55411W        W26011  34.724  42.038  14.578
55412W        W26012  31.184  14.557  11.584
55413W        W26013  14.244  24.494  14.387
55414W        W26014  33.784  40.528  14.299
55415W        W26015  44.702  35.275  11.890
55416W        W26016  44.244  24.745   4.136
55417W        W26017  24.578  21.361   0.427
55418W        W26018  14.379  26.024  11.429
55419W        W26019  13.641  15.616   4.862
55420W        W26020   0.273  33.270   0.559
55421W        W26021   0.765   0.965  13.042
55422W        W26022  44.276   7.102  11.659
55423W        W26023   0.210   8.654  11.086
55424W        W26024  34.913  10.757   0.278
55425W        W26025  14.337   0.013   2.847
55426W        W26026   4.795  11.192   1.870
55427W        W26027  15.682   4.979  10.162
55428W        W26028  40.234   4.606   3.789
55429W        W26029  17.665  30.463   3.605
55430W        W26030  14.316   7.081  11.426
55431W        W26031  29.404  19.094  13.018
55432W        W26032  22.239  32.331   1.255
55433W        W26033   8.062  33.834   1.695
55434W        W26034  17.203  19.996   4.573
55435W        W26035   0.725   7.276   3.405
55436W        W26036   1.908  18.342  13.186
55437W        W26037  33.866  19.587  10.635
55438W        W26038  30.447  28.702  14.984
55439W        W26039  14.216   5.723   2.667
55440W        W26040  24.685  10.249   4.507
55441W        W26041  20.240   1.067   0.547
55442W        W26042  19.085   3.429  12.823
55443W        W26043   9.390  25.002  14.780
55444W        W26044  15.968  32.131   4.539
55445W        W26045  16.156  30.878   0.762
55446W        W26046  14.348  24.017  13.473
55447W        W26047  11.252   1.024   1.273
55448W        W26048  15.782   8.382  14.223
55449W        W26049   6.990  39.011  13.972
55450W        W26050  15.282  27.545  10.781
55451W        W26051  22.699  17.800   2.575
55452W        W26052   2.906  22.481  11.615
55453W        W26053   9.121   0.704   3.190
55454W        W26054  41.268   0.594   4.215
55455W        W26055  25.922  16.362  13.830
55456W        W26056  28.251   3.528   1.738
55457W        W26057  11.849  28.123   0.943
55458W        W26058  26.327  34.914  12.639
55459W        W26059  12.228  26.023   2.331
55460W        W26060  34.195  18.876   4.539
55461W        W26061  23.102  20.191  14.988
55462W        W26062  11.847  10.874   2.989
55463W        W26063   0.968  34.428   4.583
55464W        W26064  24.412  16.610  11.927
55465W        W26065   6.440  24.290  12.509
55466W        W26066   5.945  24.724  11.659
55467W        W26067  32.622  24.514  14.336
55468W        W26068  20.054   4.507   2.190
55469W        W26069  17.750  21.546   0.213
55470W        W26070  26.447   7.790  11.011
55471W        W26071  36.842   6.796  13.152
55472W        W26072  12.619  12.063   0.241
55473W        W26073   4.968  21.567  12.882
55474W        W26074   2.242  36.347  11.553
55475W        W26075  13.605  31.148  10.678
55476W        W26076  18.279  20.093   0.748
55477W        W26077  26.971  30.613  11.002
55478W        W26078  29.776  11.772  14.380
55479W        W26079   7.356  39.009   0.115
55480W        W26080  28.991   0.784   0.038
55481W        W26081  33.916  16.602   2.850
55482W        W26082  28.045  30.959  14.459
55483W        W26083  13.283  36.740   3.048
55484W        W26084  10.904  21.764   1.333
55485W        W26085  22.104   2.873   1.756
55486W        W26086  21.157  19.647  11.072
55487W        W26087  20.008  24.992  13.594
55488W        W26088  33.054  43.060  12.953
55489W        W26089  14.132  12.456  10.334
55490W        W26090  20.535   0.804   3.619
55491W        W26091  25.173  29.480   2.634
55492W        W26092   7.581   4.808  13.086
55493W        W26093   3.349  39.503  14.308
55494W        W26094  12.725   8.385   1.781
55495W        W26095  28.951   8.783  11.315
55496W        W26096  14.147  11.741  11.043
55497W        W26097  28.297  41.336  10.124
55498W        W26098   6.177  30.267  12.949
55499W        W26099  37.962  38.592  12.091
55500W        W26100   6.531  21.308   4.168
55501W        W26101   3.716  42.595   2.293
55502W        W26102  36.404   5.801   1.652
55503W        W26103  44.961  15.588   2.295
55504W        W26104  39.499  18.875  14.746
55505W        W26105   3.863   2.278   2.531
55506W        W26106  11.886  25.240   4.055
55507W        W26107   7.450   5.855   3.707
55508W        W26108   1.481  16.179   0.787
55509W        W26109  17.072  24.006  12.456
55510W        W26110  14.814  26.925   1.513
55511W        W26111  21.021  31.477  11.136
55512W        W26112  11.594  38.125  10.986
55513W        W26113   8.822  34.838  13.387
55514W        W26114  13.760   6.233   2.862
55515W        W26115  34.221   6.431   0.892
55516W        W26116  23.681  37.566  11.243
55517W        W26117  31.614  34.890   2.163
55518W        W26118  43.492  25.081  10.765
55519W        W26119  37.316  32.268   0.956
55520W        W26120  13.427  38.824   4.879
55521W        W26121  25.971  17.325   0.242
55522W        W26122   6.303   1.567  11.241
55523W        W26123   9.071  37.976   1.013
55524W        W26124   1.363  15.135  14.262
55525W        W26125  27.491  32.199   1.830
55526W        W26126  37.524   4.277  13.336
55527W        W26127  41.290  15.545  11.189
55528W        W26128   8.011   5.315   2.232
55529W        W26129   7.400   5.699  11.181
55530W        W26130  43.963  39.774   1.036
55531W        W26131  21.941  27.694  11.192
55532W        W26132  42.857  24.154   1.492
55533W        W26133  28.001   9.453  10.426
55534W        W26134   8.733  32.928  12.372
55535W        W26135  25.335  37.121  11.933
55536W        W26136  27.666  21.256   4.031
55537W        W26137  30.834  34.787   1.435
55538W        W26138  29.118  18.649   4.370
55539W        W26139  16.846  15.793  12.964
55540W        W26140  11.893  16.105  12.517
55541W        W26141  22.658  41.410   4.573
55542W        W26142  30.217   1.498   1.458
55543W        W26143  23.166   8.566  10.870
55544W        W26144   8.059  43.323   0.694
55545W        W26145  14.390   1.042  14.814
55546W        W26146   8.702  20.710  12.385
55547W        W26147   2.423  10.446  10.120
55548W        W26148  29.072  14.167   3.205
55549W        W26149  31.442   9.908   4.095
55550W        W26150  16.063  41.471  11.581
55551W        W26151  31.901   6.232  11.159
55552W        W26152  25.413  34.097   2.483
55553W        W26153   4.292  29.517   4.777
55554W        W26154  10.084   6.252   4.133
55555W        W26155   2.023  42.886   1.253
55556W        W26156   3.492  10.415  14.884
55557W        W26157  34.224  26.468   1.363
55558W        W26158  44.804  40.535   4.203
55559W        W26159  26.052  35.530   2.351
55560W        W26160  11.601   9.849  14.210
55561W        W26161  28.706  40.555  14.570
55562W        W26162  16.110   9.367  12.361
55563W        W26163  25.109   5.881   0.504
55564W        W26164  32.198  26.673  12.455
55565W        W26165  29.410   6.847   3.219
55566W        W26166  37.859  24.720  10.874
55567W        W26167   6.898  13.623   3.248
55568W        W26168  41.395  19.743   1.332
55569W        W26169  27.440   0.779  10.814
55570W        W26170   5.586  43.057   2.376
55571W        W26171  18.221  21.044  12.984
55572W        W26172  14.798  26.162   0.776
55573W        W26173   4.229  35.970  12.923
55574W        W26174  22.290  21.966  10.733
55575W        W26175   3.716  21.271  14.306
55576W        W26176  43.800   3.243   2.783
55577W        W26177  37.111  10.542  13.824
55578W        W26178  17.694  15.291  12.977
55579W        W26179   5.777  28.623   0.440
55580W        W26180  29.358  16.649   0.853
55581W        W26181   0.429  15.120   4.752
55582W        W26182  38.396  40.962  11.830
55583W        W26183  41.803  29.099  14.019
55584W        W26184  40.443  24.139  10.803
55585W        W26185  34.750  43.840  12.826
55586W        W26186   5.311  14.255  14.733
55587W        W26187  43.452  22.666   4.332
55588W        W26188  40.853  44.388   1.245
55589W        W26189  36.229  37.036   3.780
55590W        W26190   7.443  14.546  13.304
55591W        W26191  31.862  34.216   2.791
55592W        W26192  20.106   8.876  10.173
55593W        W26193  20.496   8.107   2.200
55594W        W26194   1.265  37.441  14.459
55595W        W26195  43.975  35.128   4.850
55596W        W26196   3.538  12.910  12.968
55597W        W26197   0.369  38.564   4.584
55598W        W26198   4.118   6.330  13.014
55599W        W26199   8.881  34.100   0.717
55600W        W26200  26.708  11.266  10.336
55601W        W26201   5.975  26.488   1.344
55602W        W26202   2.828  22.507   2.783
55603W        W26203  34.522  42.100  13.711
55604W        W26204   7.796   9.598   1.402
55605W        W26205   1.775  21.454  13.132
55606W        W26206  34.996   0.914  12.528
55607W        W26207  30.499  30.189   2.798
55608W        W26208  44.056  35.443   0.910
55609W        W26209  29.324   1.072  10.930
55610W        W26210  43.081  20.241   3.615
55611W        W26211  33.467  10.250   4.734
55612W        W26212  10.312  16.128  11.164
55613W        W26213  28.167   7.701   2.670
55614W        W26214  14.161  13.152   2.386
55615W        W26215  16.750  31.487   0.744
55616W        W26216  40.518   9.419  10.484
55617W        W26217  38.577  12.751   1.179
55618W        W26218  31.560  22.720   1.507
55619W        W26219  13.452  19.151  10.528
55620W        W26220  11.468  19.348  11.711
55621W        W26221  18.037  36.175   0.024
55622W        W26222  10.640  17.308   1.932
55623W        W26223  39.941  28.699  14.395
55624W        W26224  39.944   1.792  13.981
55625W        W26225   6.994  24.198  13.816
55626W        W26226   6.586  27.973   3.054
55627W        W26227   4.668  30.512   4.040
55628W        W26228  41.554  36.852  14.489
55629W        W26229  36.460  41.335  14.938
55630W        W26230  26.970  39.581  12.861
55631W        W26231  30.428  44.720  13.127
55632W        W26232   9.657  11.344  14.906
55633W        W26233  33.733  17.650  14.183
55634W        W26234  24.714  40.812  12.953
55635W        W26235  44.757  19.597  10.704
55636W        W26236   4.971   9.786  14.454
55637W        W26237   5.043  33.484   0.460
55638W        W26238  26.730  36.651   4.163
55639W        W26239  24.936   9.603   0.260
55640W        W26240  25.220  32.682   0.879
55641W        W26241  35.082   1.240  11.057
55642W        W26242   8.349  31.450   0.022
55643W        W26243  15.532  38.534   1.416
55644W        W26244  23.987  44.330   0.775
55645W        W26245  37.691  22.809  14.036
55646W        W26246   0.222  29.155  14.324
55647W        W26247   1.251  40.405   1.084
55648W        W26248  22.473  16.159  12.159
55649W        W26249  22.700  43.816   2.805
55650W        W26250  18.559  13.845  11.160
55651W        W26251  31.010  31.477   3.859
55652W        W26252   5.557  15.333  11.049
55653W        W26253  17.019   3.570   4.241
55654W        W26254  18.518  14.640  13.199
55655W        W26255  25.121  32.933   4.304
55656W        W26256  13.218  15.164   0.005
55657W        W26257  43.412  23.550   3.637
55658W        W26258  12.568   1.550  11.593
55659W        W26259  43.820  14.117  10.778
55660W        W26260  20.746  18.954   2.234
55661W        W26261  35.404  16.232   0.375
55662W        W26262   1.665   9.237  13.416
55663W        W26263   7.625  11.757  11.988
55664W        W26264   5.151  10.977  10.283
55665W        W26265  23.415   3.664  14.380
55666W        W26266  27.451  38.537   4.854
55667W        W26267  17.217  16.881   3.567
55668W        W26268  32.972  24.783   2.726
55669W        W26269  29.758   9.307  13.785
55670W        W26270  15.355  22.770   2.368
55671W        W26271  31.676  36.106  13.744
55672W        W26272   0.872   4.686   3.598
55673W        W26273  25.228  23.106  14.030
55674W        W26274   5.753  31.187   2.233
55675W        W26275  11.110  10.445   4.206
55676W        W26276  20.039   8.551   1.478
55677W        W26277  43.303   3.206   2.183
55678W        W26278  19.914  32.096   2.754
55679W        W26279   4.502  30.962   4.812
55680W        W26280   1.045  35.914  11.030
55681W        W26281   8.164   5.910   1.820
55682W        W26282  34.356  41.455   3.887
55683W        W26283  12.197   1.422   2.853
55684W        W26284   7.172  33.983   4.183
55685W        W26285  29.791   1.803   4.561
55686W        W26286  19.203  19.972   2.318
55687W        W26287  35.476  39.615  13.022
55688W        W26288  40.012   8.136   0.267
55689W        W26289  30.855  33.195  10.341
55690W        W26290  28.941  13.251   2.873
55691W        W26291   0.968  25.902   0.978
55692W        W26292  25.885   0.420  14.982
55693W        W26293   2.658  17.722  13.053
55694W        W26294  39.351   9.696  12.953
55695W        W26295  43.421  37.366  11.570
55696W        W26296  16.029  11.916  13.793
55697W        W26297  19.643  20.764   4.273
55698W        W26298   2.381  26.137  11.178
55699W        W26299   2.417  11.153   1.695
55700W        W26300   2.028   1.349   4.561
55701W        W26301  16.567  25.056  12.470
55702W        W26302   4.754   3.330   1.817
55703W        W26303  31.876  13.610  10.678
55704W        W26304  33.033   7.184   3.414
55705W        W26305   8.458  27.718  11.517
55706W        W26306  42.174  13.990  14.479
55707W        W26307   9.350   4.688   4.238
55708W        W26308  10.814  35.903  13.212
55709W        W26309  32.347  39.256   4.162
55710W        W26310  41.766  29.757   4.566
55711W        W26311  19.995  43.794  12.950
55712W        W26312   1.774   8.936   3.753
55713W        W26313   9.860  11.674   3.778
55714W        W26314  32.178  10.681   2.878
55715W        W26315  33.156  24.163   1.755
55716W        W26316  39.144  23.623  14.785
55717W        W26317  18.655  32.163   4.488
55718W        W26318  42.324  33.902   3.182
55719W        W26319  42.027  44.354   3.750
55720W        W26320  18.133  35.521  10.814
55721W        W26321  31.917  12.603  13.375
55722W        W26322  39.450  37.336  14.995
55723W        W26323  26.379  13.794  11.540
55724W        W26324   8.884  14.116  14.937
55725W        W26325  12.132  19.756   2.447
55726W        W26326  19.708  15.198   2.406
55727W        W26327  22.805  20.811  14.298
55728W        W26328   8.706   5.405  11.669
55729W        W26329  31.624   8.291  11.197
55730W        W26330  16.906  24.595   1.340
55731W        W26331  14.087  43.539  11.910
55732W        W26332  21.660  17.837   4.687
55733W        W26333  24.385  15.692  11.195
55734W        W26334  38.132  16.092  14.555
55735W        W26335   3.036   0.793  14.065
55736W        W26336   0.974  10.666   4.421
55737W        W26337  11.416  14.147  13.564
55738W        W26338  29.662  38.376  13.905
55739W        W26339  29.204   0.578   9.889
55740W        W26340  19.794  10.309  11.109
55741W        W26341  19.555  34.010  10.519
55742W        W26342   4.723  29.021  11.474
55743W        W26343  36.441  15.079   4.613
55744W        W26344  38.865  14.901   1.217
55745W        W26345  23.944  36.287   1.371
55746W        W26346  13.571  38.644   2.297
55747W        W26347  19.723  27.501   2.329
55748W        W26348  13.200  28.408   0.460
55749W        W26349  14.920   7.084  11.563
55750W        W26350  18.792  31.546  11.738
55751W        W26351  10.717  42.406   3.380
55752W        W26352  16.223  18.045   4.873
55753W        W26353  16.990  35.868   5.008
55754W        W26354  36.421  30.480  12.574
55755W        W26355  19.632   9.320   4.368
55756W        W26356  31.976  19.749  10.755
55757W        W26357  16.151   9.709  12.749
55758W        W26358   1.226  44.046  13.833
55759W        W26359  21.878   9.612  10.270
55760W        W26360  37.515  37.633   4.114
55761W        W26361  16.219  17.336   3.317
55762W        W26362   7.690  14.198  11.255
55763W        W26363  41.494   1.703   4.301
55764W        W26364  11.855  40.074  12.896
55765W        W26365  21.736   4.857   2.293
55766W        W26366  17.688   2.972   1.802
55767W        W26367  30.680  42.857   1.078
55768W        W26368  19.249  40.827   2.605
55769W        W26369   2.547  31.732   4.077
55770W        W26370  17.039  38.545  14.669
55771W        W26371  35.253  15.103   0.912
55772W        W26372  39.054  42.833   1.635
55773W        W26373  11.119  42.729   5.364
55774W        W26374  42.680  36.026   4.559
55775W        W26375   3.795  18.688   3.271
55776W        W26376  30.236   1.791   4.798
55777W        W26377  40.559  22.123   1.849
55778W        W26378  34.571  18.426  13.370
55779W        W26379  37.427  22.039  11.281
55780W        W26380  18.531   9.391  11.894
55781W        W26381  24.802   9.837  14.821
55782W        W26382   5.833   2.221   1.888
55783W        W26383   9.445  38.875   1.845
55784W        W26384  21.521  42.741   1.470
55785W        W26385  44.551   1.427  13.016
55786W        W26386  10.384  22.201  11.115
55787W        W26387  20.495  34.102   1.243
55788W        W26388  12.048  35.465  14.400
55789W        W26389  37.135  14.674  11.114
55790W        W26390  32.959   0.694   4.664
55791W        W26391  30.628  40.964   3.250
55792W        W26392  44.923  30.112   0.755
55793W        W26393  39.600  39.060  13.533
55794W        W26394  12.656  26.871  14.921
55795W        W26395  31.555  14.721   4.564
55796W        W26396  21.775   0.976  13.010
55797W        W26397   4.253   7.932  11.644
55798W        W26398  22.356  26.446   4.615
55799W        W26399  38.344  10.662   0.283
55800W        W26400  35.882  39.847   0.884
55801W        W26401  17.279   7.917  10.561
55802W        W26402   5.667  39.929  10.739
55803W        W26403  38.046  35.616  13.008
55804W        W26404  28.907  34.001  11.310
55805W        W26405   7.651  41.574   1.264
55806W        W26406  32.644  36.475  12.553
55807W        W26407   8.609   2.408  13.533
55808W        W26408  23.826  44.200  12.580
55809W        W26409  44.020  33.284  13.326
55810W        W26410  34.171  17.225   0.318
55811W        W26411   1.063  17.947   1.813
55812W        W26412  36.210   3.904  11.769
55813W        W26413  26.067  27.217   2.214
55814W        W26414  12.354  26.262  10.751
55815W        W26415   5.668  32.998  12.538
55816W        W26416   8.875   2.290  13.003
55817W        W26417   9.655  13.811  14.995
55818W        W26418  20.502  11.669  11.594
55819W        W26419  10.359  42.205   2.358
55820W        W26420  39.453  43.910   2.394
55821W        W26421  12.214   1.904   1.452
55822W        W26422  39.813   3.656   0.703
55823W        W26423  26.664  11.260   3.261
55824W        W26424  27.368  37.596  13.681
55825W        W26425   1.470  15.536   1.376
55826W        W26426  41.917   5.629   1.169
55827W        W26427  38.613  43.408   1.410
55828W        W26428  28.040  18.120  10.374
55829W        W26429  20.223  14.841   4.964
55830W        W26430  29.133  33.894  10.854
55831W        W26431  35.997  12.013   0.805
55832W        W26432  31.631  24.412   4.188
55833W        W26433  28.565   5.391  14.682
55834W        W26434  12.179  33.401   4.604
55835W        W26435  24.864   3.317   3.748
55836W        W26436  20.345  16.836   0.748
55837W        W26437  26.220   0.900  13.696
55838W        W26438   1.208  18.242  10.492
55839W        W26439   0.586  14.656  11.236
55840W        W26440  23.858   2.768   0.243
55841W        W26441  11.626  24.719   4.118
55842W        W26442  12.254  14.663  12.972
55843W        W26443  31.572   8.687  14.334
55844W        W26444  37.364   8.872   0.048
55845W        W26445  27.547  30.956  14.238
55846W        W26446  44.717  15.842   0.974
55847W        W26447  15.311  37.277  11.518
55848W        W26448  20.174  14.270  14.466
55849W        W26449   6.638  29.939  10.420
55850W        W26450  24.199  34.101  11.143
55851W        W26451   9.687   4.956  10.380
55852W        W26452  31.483  25.267   1.419
55853W        W26453   1.040  11.572   3.097
55854W        W26454  42.489  21.555  12.921
55855W        W26455  12.657   6.854   2.787
55856W        W26456  25.704   4.280   2.391
55857W        W26457  18.096   2.275   0.221
55858W        W26458  15.626   3.238  12.907
55859W        W26459  28.143  37.294   1.796
55860W        W26460  22.126  24.931   0.264
55861W        W26461  29.699  38.756  12.931
55862W        W26462   9.799  31.947   2.511
55863W        W26463  21.475  26.601  14.907
55864W        W26464   8.493  34.817   4.109
55865W        W26465  31.965  11.823  12.039
55866W        W26466  24.208  13.119   3.861
55867W        W26467  19.139  31.069   0.799
55868W        W26468  16.285  24.483  12.604
55869W        W26469   4.350  39.391   4.280
55870W        W26470  30.596  22.796   4.702
55871W        W26471  11.495   3.425   0.448
55872W        W26472  40.469  21.638   2.158
55873W        W26473  19.200  40.739   1.118
55874W        W26474  44.497  22.182   3.189
55875W        W26475  25.691   7.166   4.866
55876W        W26476  21.167  44.043  12.011
55877W        W26477  21.963  39.014   4.222
55878W        W26478  11.836   5.801   1.738
55879W        W26479  31.030  38.458   4.238
55880W        W26480  23.520  12.927  12.984
55881W        W26481  35.662   9.798  14.920
55882W        W26482  24.211  30.145  11.428
55883W        W26483  15.368   6.682   4.240
55884W        W26484  38.034  39.509   3.670
55885W        W26485  27.842  16.462  13.885
55886W        W26486   9.682  25.729   4.775
55887W        W26487   3.415   5.404   4.598
55888W        W26488  26.822   5.868  11.721
55889W        W26489  42.938  21.792  12.920
55890W        W26490   8.859  13.179  12.186
55891W        W26491   5.393   5.347   4.702
55892W        W26492  40.789   3.801   0.854
55893W        W26493  30.385  18.225  13.663
55894W        W26494   8.332  31.055   2.805
55895W        W26495  35.592  29.416   2.310
55896W        W26496  13.394  30.630  11.362
55897W        W26497   4.404  21.712   4.067
55898W        W26498   0.245   2.297  11.478
55899W        W26499   5.218  24.992   0.852
55900W        W26500  18.529  23.631  13.475
55901W        W26501  29.057  23.576   1.554
55902W        W26502  22.616  31.399  10.901
55903W        W26503  27.037   8.444   3.408
55904W        W26504  39.011  39.440   0.392
55905W        W26505  27.076   1.704   0.953
55906W        W26506  11.045  24.375  11.192
55907W        W26507  22.108  21.818  14.068
55908W        W26508  36.866  19.156  10.652
55909W        W26509  12.741  42.017  10.177
55910W        W26510  25.833  33.770  10.253
55911W        W26511   8.396  37.530  12.403
55912W        W26512  19.248  35.945   0.230
55913W        W26513  12.545  23.586  12.507
55914W        W26514  34.597   1.291  11.630
55915W        W26515  19.001  15.647  13.840
55916W        W26516  17.630  13.008  11.195
55917W        W26517  38.593   3.814   1.004
55918W        W26518  20.099   3.964   1.982
55919W        W26519  10.667  34.978   2.425
55920W        W26520  36.843   2.815   1.915
55921W        W26521   2.836   6.244  12.212
55922W        W26522  29.422   9.781   3.654
55923W        W26523  40.242  32.726   4.172
55924W        W26524   5.848  21.686  12.549
55925W        W26525  39.624  32.588   2.677
55926W        W26526  13.045   5.979   5.020
55927W        W26527   4.275  28.771   2.719
55928W        W26528  34.970  21.978  12.893
55929W        W26529  34.982   8.488   4.667
55930W        W26530  21.257   5.957  14.520
55931W        W26531  19.768  32.932  14.891
55932W        W26532  11.829  25.980  13.871
55933W        W26533  12.380  27.476   1.192
55934W        W26534  37.510  43.297   4.140
55935W        W26535  29.200  27.191   0.990
55936W        W26536  23.110  17.736  13.069
55937W        W26537  15.641  10.804   3.031
55938W        W26538   7.389  37.650   1.870
55939W        W26539  39.453   3.277  12.086
55940W        W26540  40.896   5.332  11.136
55941W        W26541  38.399  25.031   0.605
55942W        W26542   4.421  24.871  13.510
55943W        W26543  25.064  37.910   1.800
55944W        W26544  16.057  37.522   2.291
55945W        W26545  39.337   7.813  13.573
55946W        W26546  21.119  41.991  13.634
55947W        W26547   0.706  28.041   1.396
55948W        W26548  21.544  36.635   1.245
55949W        W26549  22.547  24.719  13.922
55950W        W26550   9.196  38.647   3.971
55951W        W26551  21.269   3.715   2.288
55952W        W26552  11.334  43.470  10.959
55953W        W26553  18.100  20.331  14.320
55954W        W26554  12.646   9.959  14.922
55955W        W26555   5.335  38.048   3.402
55956W        W26556  41.398  38.426  14.882
55957W        W26557  16.078  12.634  10.242
55958W        W26558   4.052  23.272   3.399
55959W        W26559   9.752  31.647  13.781
55960W        W26560   9.114  18.223   3.317
55961W        W26561  25.579   3.136   3.267
55962W        W26562  11.795  11.272   3.364
55963W        W26563   0.283  26.787   0.377
55964W        W26564  14.806  15.589  12.633
55965W        W26565  20.659   0.273  11.676
55966W        W26566  17.936  16.781  11.520
55967W        W26567  25.737  19.733  11.003
55968W        W26568  27.770  26.108  12.403
55969W        W26569   1.314  38.153  13.408
55970W        W26570  24.469  10.705   2.430
55971W        W26571   1.243   1.980   0.414
55972W        W26572   1.223  38.487   2.408
55973W        W26573  32.664   1.448  10.711
55974W        W26574  11.800  10.267   3.651
55975W        W26575  29.158   7.066  12.032
55976W        W26576  42.791  30.083  12.502
55977W        W26577   0.301  44.678  12.060
55978W        W26578   6.295  33.957  12.218
55979W        W26579   8.350  25.520  13.531
55980W        W26580   8.344  37.699  11.747
55981W        W26581  13.692  18.167  14.465
55982W        W26582  10.590  25.927   4.816
55983W        W26583   2.325  18.689   2.937
55984W        W26584  10.645  41.022  13.430
55985W        W26585  13.197  44.941  12.174
55986W        W26586  10.474   3.962   1.964
55987W        W26587  32.044   1.442   1.801
55988W        W26588  15.050  44.343  14.043
55989W        W26589  30.409  21.731  12.551
55990W        W26590   0.479  27.947  14.883
55991W        W26591   2.762  38.071  10.657
55992W        W26592   4.273  21.473   3.626
55993W        W26593  44.150   1.297   2.571
55994W        W26594  38.496  29.448   0.793
55995W        W26595  36.448   0.796  11.431
55996W        W26596  19.671  33.562  10.258
55997W        W26597  10.232  32.624  11.623
55998W        W26598   1.155  32.758  12.111
55999W        W26599  42.270   1.115   2.026
56000W        W26600  28.507  20.832  11.612
56001W        W26601   2.798  44.548   2.322
56002W        W26602  30.109  29.095   4.136
56003W        W26603  15.759  27.793  13.799
56004W        W26604  22.380  29.591   4.752
56005W        W26605  26.477  27.193   0.029
56006W        W26606  12.340   7.291  13.350
56007W        W26607  44.566  37.144  13.515
56008W        W26608  37.162   0.890  10.691
56009W        W26609   3.447  39.089   3.237
56010W        W26610   9.744  14.615  13.072
56011W        W26611  40.596   2.895  12.441
56012W        W26612  31.663  21.166   1.293
56013W        W26613   2.028  28.943   1.191
56014W        W26614  35.572   9.413   2.513
56015W        W26615   3.317  24.685  11.896
56016W        W26616  20.139   5.758   1.121
56017W        W26617   0.044   2.489  14.743
56018W        W26618  15.258   3.483   1.320
56019W        W26619  32.418  17.922  13.056
56020W        W26620  41.869   2.378  10.402
56021W        W26621  17.711  18.466   0.796
56022W        W26622  12.019  39.462   0.537
56023W        W26623   0.120  21.767   1.116
56024W        W26624  27.469   6.925  10.710
56025W        W26625  15.760  38.426   4.408
56026W        W26626  26.198  27.095   4.582
56027W        W26627  39.791  21.909  12.071
56028W        W26628  43.090  24.973  10.435
56029W        W26629  26.426  26.085  13.384
56030W        W26630   3.409  44.831  12.065
56031W        W26631  40.493   5.469   3.663
56032W        W26632  32.645  36.938   1.720
56033W        W26633  20.553  19.625  13.415
56034W        W26634  38.432  31.426   4.405
56035W        W26635  27.474  29.605   1.809
56036W        W26636  15.141  11.748  11.409
56037W        W26637  11.161   7.905   2.169
56038W        W26638  44.032  44.510   3.338
56039W        W26639  13.393   3.713   1.397
56040W        W26640  22.226   2.504   1.339
56041W        W26641  25.960  32.555   2.215
56042W        W26642  29.610  42.604  12.473
56043W        W26643  31.982  27.670  11.722
56044W        W26644  37.393   1.812   2.145
56045W        W26645  23.008  39.817  11.945
56046W        W26646   2.393  30.946  14.291
56047W        W26647  25.163  16.030  14.989
56048W        W26648  27.426  41.579   2.093
56049W        W26649  40.509   9.197   4.333
56050W        W26650  37.391   0.438  10.617
56051W        W26651   6.836  29.554  12.118
56052W        W26652   6.788  41.840  13.584
56053W        W26653  28.589  19.888  12.427
56054W        W26654  20.244  41.745  13.064
56055W        W26655   1.427  10.285   4.906
56056W        W26656  20.277  24.458   3.773
56057W        W26657  32.080   5.506   0.212
56058W        W26658  38.050  27.654   2.233
56059W        W26659  10.150  33.048   4.536
56060W        W26660  19.368   1.513  11.191
56061W        W26661  10.786   9.126   2.723
56062W        W26662  17.528   1.332   1.206
56063W        W26663  20.160  17.798   1.805
56064W        W26664  13.637  12.067   3.389
56065W        W26665  28.657   8.408  13.425
56066W        W26666  24.125  23.277   1.317
56067W        W26667  13.331  40.834   3.602
56068W        W26668  19.745  30.361  11.069
56069W        W26669  17.004   5.116   0.833
56070W        W26670  34.126   3.215  11.121
56071W        W26671  41.093   7.264   1.263
56072W        W26672  21.454  32.906   2.287
56073W        W26673  35.919  39.606  13.867
56074W        W26674  34.449   7.560   2.256
56075W        W26675   6.721  13.315   4.588
56076W        W26676  29.260  28.555   0.505
56077W        W26677  21.055  35.960   0.793
56078W        W26678  25.421  22.139  12.802
56079W        W26679  20.916  12.212   1.742
56080W        W26680  33.489  41.044   3.516
56081W        W26681  41.889  40.900   0.791
56082W        W26682   4.044   5.351   3.969
56083W        W26683  34.454  37.116   0.421
56084W        W26684   4.983  28.715   0.753
56085W        W26685  17.559  18.819  14.923
56086W        W26686  15.724  39.110  12.945
56087W        W26687  44.807  30.927   2.849
56088W        W26688  28.442  11.694   1.329
56089W        W26689  14.660  25.144   1.221
56090W        W26690  23.968  40.772  14.760
56091W        W26691  25.016  36.881   1.166
56092W        W26692  31.118  42.572  14.158
56093W        W26693  20.632  23.688   0.817
56094W        W26694   5.781  23.837   4.387
56095W        W26695  14.310  12.325   1.226
56096W        W26696   3.527  36.441   1.578
56097W        W26697   9.092  24.215   4.198
56098W        W26698  42.800  19.489   3.095
56099W        W26699  41.235   1.264   3.372
56100W        W26700  20.526   3.810  11.487
56101W        W26701  17.336  30.794   1.263
56102W        W26702  15.472  33.684   3.346
56103W        W26703   7.930   7.347   3.561
56104W        W26704  32.475   7.508   3.782
56105W        W26705  35.243  43.991  13.806
56106W        W26706  34.433   5.279   0.195
56107W        W26707  39.034  30.074  14.356
56108W        W26708   0.863  14.245  11.996
56109W        W26709  31.923  29.094   3.667
56110W        W26710  30.907  22.869   1.829
56111W        W26711  28.197  31.893   1.809
56112W        W26712  16.666  37.876  10.366
56113W        W26713  18.301  17.226   0.002
56114W        W26714  39.921  32.536  13.876
56115W        W26715  44.741   1.337   0.266
56116W        W26716  26.312   3.651  11.130
56117W        W26717  39.050  36.570   4.967
56118W        W26718  19.973  10.908  10.705
56119W        W26719  44.476  11.895  11.010
56120W        W26720  42.756  17.123   4.021
56121W        W26721  37.482  40.596  14.498
56122W        W26722  18.576  33.421  12.012
56123W        W26723  40.200  43.033  12.946
56124W        W26724   8.679   3.625   3.776
56125W        W26725  34.307  42.485   4.948
56126W        W26726   2.354  38.424  12.460
56127W        W26727   9.777  33.855  11.546
56128W        W26728  18.301  35.297   0.704
56129W        W26729   4.321  23.048   3.762
56130W        W26730  10.577   4.983   1.737
56131W        W26731  41.725  33.439   0.004
56132W        W26732   5.162  29.531   1.780
56133W        W26733  18.136  16.419   2.444
56134W        W26734  24.665  37.995   1.459
56135W        W26735  31.522   9.151   4.579
56136W        W26736  44.837   4.210   2.201
56137W        W26737  18.181  30.858   0.496
56138W        W26738  13.340   1.818  14.293
56139W        W26739  37.110  17.227   3.593
56140W        W26740  38.849  14.541   1.974
56141W        W26741  13.172   5.786  14.312
56142W        W26742  16.047   2.271  14.323
56143W        W26743  29.453  30.320   3.624
56144W        W26744  20.692   3.932  12.849
56145W        W26745   1.059  22.686  11.122
56146W        W26746  29.940  38.537   0.819
56147W        W26747  17.773   7.365  14.623
56148W        W26748   9.155  33.044   4.400
56149W        W26749  40.651  29.231  14.501
56150W        W26750  18.976   8.138   4.161
56151W        W26751  15.814  35.405  13.006
56152W        W26752  12.577  16.362  13.615
56153W        W26753  37.444   9.507   0.663
56154W        W26754  16.502  23.031   1.618
56155W        W26755  26.641   0.422   3.385
56156W        W26756  41.535   0.526  14.401
56157W        W26757  12.998  13.189  13.043
56158W        W26758  10.495  17.590  13.906
56159W        W26759  20.035  44.532   1.666
56160W        W26760  35.521  14.098  11.766
56161W        W26761  15.240  43.839   2.223
56162W        W26762  13.305  24.941   4.676
56163W        W26763  26.177  38.376   4.391
56164W        W26764  22.060  29.702  10.653
56165W        W26765  39.835  30.293  12.394
56166W        W26766  34.655  12.345   0.449
56167W        W26767   8.464   1.738   4.309
56168W        W26768   6.131  12.134  11.407
56169W        W26769  18.810   3.568  12.029
56170W        W26770   0.884   4.431   1.716
56171W        W26771  20.015  11.804  11.700
56172W        W26772  41.261  36.871   1.857
56173W        W26773  41.603   6.056   4.160
56174W        W26774  11.020   5.731   0.404
56175W        W26775   4.305  37.544   3.319
56176W        W26776  39.425  41.423   1.413
56177W        W26777   2.406   3.032  14.263
56178W        W26778  28.096  37.611  14.387
56179W        W26779  12.137  10.802  10.727
56180W        W26780  34.504  42.961   3.061
56181W        W26781  31.371  33.637   3.152
56182W        W26782  25.008  22.717   0.367
56183W        W26783  12.317   1.511   4.393
56184W        W26784   6.410   9.650  11.970
56185W        W26785  30.474  12.588   0.930
56186W        W26786  15.551   6.344   2.243
56187W        W26787  16.299  38.878  14.013
56188W        W26788  16.768   4.797   3.347
56189W        W26789  24.993  14.790   2.309
56190W        W26790  19.804  25.495  11.418
56191W        W26791  27.190  28.402   2.773
56192W        W26792   4.041  30.572  14.894
56193W        W26793  44.486   4.773  10.995
56194W        W26794  18.078  25.532   0.760
56195W        W26795  13.869  29.499   1.982
56196W        W26796  19.520  36.249   1.867
56197W        W26797  14.750   4.840   0.035
56198W        W26798  31.548  29.269   1.910
56199W        W26799  37.510  31.951  10.497
56200W        W26800  15.949  28.617  10.045
56201W        W26801  38.517   3.138  14.273
56202W        W26802  23.525   7.142   0.853
56203W        W26803  31.361   7.202   1.792
56204W        W26804  34.978  40.013  14.529
56205W        W26805  20.088  10.780  11.187
56206W        W26806  19.820  31.270   2.754
56207W        W26807  36.066  17.746  12.932
56208W        W26808  38.303  39.403   4.166
56209W        W26809   5.186   8.373   1.900
56210W        W26810  31.462  24.094  13.029
56211W        W26811  43.290  44.456  13.830
56212W        W26812  32.833  41.463   2.551
56213W        W26813   0.522   8.751   4.651
56214W        W26814  18.506  11.781   4.290
56215W        W26815  25.186   2.899  13.324
56216W        W26816  31.355  22.081   4.810
56217W        W26817   4.853   5.635   4.160
56218W        W26818  16.051   9.088  14.973
56219W        W26819  17.541   7.449   1.972
56220W        W26820   9.826  10.162   9.783
56221W        W26821   8.476  10.272  10.725
56222W        W26822  11.460   2.330   0.929
56223W        W26823  25.935  32.544  13.042
56224W        W26824  20.093  40.676  13.983
56225W        W26825  13.659  28.087   3.285
56226W        W26826  41.932  24.723   1.903
56227W        W26827   8.743  35.570   2.807
56228W        W26828  17.372  11.368  13.071
56229W        W26829  34.883  23.725   2.291
56230W        W26830  37.925  30.761   5.140
56231W        W26831  23.225  25.068  12.933
56232W        W26832  16.972  18.219  12.423
56233W        W26833  33.359  24.920   2.370
56234W        W26834   2.702  33.668   0.759
56235W        W26835   4.662  28.025  14.447
56236W        W26836  29.910  26.801  12.473
56237W        W26837  42.840  36.044   0.964
56238W        W26838  43.526  33.111  11.921
56239W        W26839  15.581  34.124  12.610
56240W        W26840  25.656   1.931   3.772
56241W        W26841   0.143   2.510   0.921
56242W        W26842   2.460  11.376  10.766
56243W        W26843  41.052   1.875  12.521
56244W        W26844  15.624  28.717  12.469
56245W        W26845  41.344  13.173   1.649
56246W        W26846   6.505  42.770  12.375
56247W        W26847  10.631  40.340   3.763
56248W        W26848  21.658  11.416  10.364
56249W        W26849  10.984  15.605  10.571
56250W        W26850  42.003   0.686   2.819
56251W        W26851   4.226  22.503   0.458
56252W        W26852  26.859  14.168   4.211
56253W        W26853  10.292  29.047   2.465
56254W        W26854   7.408  43.891  13.300
56255W        W26855  26.601  26.665   0.012
56256W        W26856  14.214  16.416  13.480
56257W        W26857  20.839  28.514  12.659
56258W        W26858   8.623  11.887  12.103
56259W        W26859  33.663  34.433  11.139
56260W        W26860  44.357  32.898  10.302
56261W        W26861  24.351  37.454   3.624
56262W        W26862  40.977  27.347  14.864
56263W        W26863   6.168  20.136   4.626
56264W        W26864  43.057  44.779  14.164
56265W        W26865  10.680  43.257   3.903
56266W        W26866  38.156  37.031   2.025
56267W        W26867   1.059   3.482   2.149
56268W        W26868  35.771  32.494  11.421
56269W        W26869  22.661   6.706   1.967
56270W        W26870  13.792  38.106  13.429
56271W        W26871  15.247  31.398  11.581
56272W        W26872   6.254  26.835  10.968
56273W        W26873  15.724   3.500  13.405
56274W        W26874  29.343   2.871  13.493
56275W        W26875  16.917  18.479   1.509
56276W        W26876  32.409   9.794   3.227
56277W        W26877  14.741  41.491  12.787
56278W        W26878  32.636  19.179   0.384
56279W        W26879   1.325  28.658   1.169
56280W        W26880  36.994   9.376   0.888
56281W        W26881  23.203  42.902  12.947
56282W        W26882  19.480  29.346  11.578
56283W        W26883   1.290  11.501   0.082
56284W        W26884  43.298  18.732   1.742
56285W        W26885  38.275  28.623  13.749
56286W        W26886  17.317  33.418  12.886
56287W        W26887  11.844  29.092  10.805
56288W        W26888  25.273  11.549  11.619
56289W        W26889  23.559  26.758  14.879
56290W        W26890   0.697  39.124  11.520
56291W        W26891  33.023   5.336   2.670
56292W        W26892  25.306  22.554   4.143
56293W        W26893   5.888  35.449   1.613
56294W        W26894  39.418  20.868  13.305
56295W        W26895  39.515   9.738  14.190
56296W        W26896  40.076   6.649   3.177
56297W        W26897   0.399  43.034   4.821
56298W        W26898   8.498  43.811  12.138
56299W        W26899  37.168  15.580  12.098
56300W        W26900   4.657  32.572   3.894
56301W        W26901  43.160  26.584  14.282
56302W        W26902  28.523  32.637  10.606
56303W        W26903   1.748   0.549   0.476
56304W        W26904  23.520  14.599  12.476
56305W        W26905  41.090   3.251  12.843
56306W        W26906  28.487  35.849   0.474
56307W        W26907  29.906  30.114   4.362
56308W        W26908   3.667   0.059   3.622
56309W        W26909   1.345  15.340   4.247
56310W        W26910  27.712  36.062   1.700
56311W        W26911  36.794  21.511   2.769
56312W        W26912   1.551   4.196   3.865
56313W        W26913  21.737  38.517  10.469
56314W        W26914  14.419  17.431  12.083
56315W        W26915  23.406  39.043  11.031
56316W        W26916  13.766   3.075   3.363
56317W        W26917  33.867  42.825   1.301
56318W        W26918   5.251  26.179  14.982
56319W        W26919  34.147  34.569   2.837
56320W        W26920   5.638  35.388  14.848
56321W        W26921   3.463  25.080  14.959
56322W        W26922  24.803   4.127   4.222
56323W        W26923   3.232  10.973  12.994
56324W        W26924  20.257   5.308   1.921
56325W        W26925   6.315  21.449  10.797
56326W        W26926  37.545   5.422  11.366
56327W        W26927  35.989  27.750   4.625
56328W        W26928  41.429  36.293  12.001
56329W        W26929  15.786  23.492   0.512
56330W        W26930   8.724  26.049   3.337
56331W        W26931  11.612   4.423   0.369
56332W        W26932   1.555  16.906   3.999
56333W        W26933  10.982  39.074   2.800
56334W        W26934  15.100  12.307   4.242
56335W        W26935  25.613  12.785   1.731
56336W        W26936   8.276  19.075   0.541
56337W        W26937   8.316  21.052   4.336
56338W        W26938  36.665  28.733  12.962
56339W        W26939   4.645  32.031  12.463
56340W        W26940   0.253  19.300  12.423
56341W        W26941  12.288  43.906  11.993
56342W        W26942  19.814  10.397   1.204
56343W        W26943   2.475  16.648   1.342
56344W        W26944   7.587  33.998   1.605
56345W        W26945  36.357  21.113  11.387
56346W        W26946  18.281   5.949  11.108
56347W        W26947  12.671  41.047  13.276
56348W        W26948  16.401  43.379   1.473
56349W        W26949  37.766  15.547   1.264
56350W        W26950   5.137  23.234  12.521
56351W        W26951  10.144  37.807  14.039
56352W        W26952  23.558  11.789  10.538
56353W        W26953   0.943   7.763  12.796
56354W        W26954  15.059  12.612  10.338
56355W        W26955   7.013  17.698   0.101
56356W        W26956  16.679   9.112   1.788
56357W        W26957  13.676   9.872  13.817
56358W        W26958  25.515  44.841  14.267
56359W        W26959  19.539   3.773   4.119
56360W        W26960  40.408  31.794  13.060
56361W        W26961  39.424  22.410  10.862
56362W        W26962  44.757  20.577  10.665
56363W        W26963  14.294  14.566  13.742
56364W        W26964  37.306  31.392  11.593
56365W        W26965   2.727  41.523   3.757
56366W        W26966   1.643  22.335   3.098
56367W        W26967  35.009  17.725  14.731
56368W        W26968  28.330  41.904  12.252
56369W        W26969   4.823  36.874  14.993
56370W        W26970  23.537  29.041  14.655
56371W        W26971  42.814  37.544  10.654
56372W        W26972  18.281  39.956   4.279
56373W        W26973  19.183  43.663  12.423
56374W        W26974  24.047  24.852   5.178
56375W        W26975  13.071   6.331  13.556
56376W        W26976  41.916  39.420   0.220
56377W        W26977  34.987  23.201   4.229
56378W        W26978   4.997   5.057  14.781
56379W        W26979  40.436  29.466   0.492
56380W        W26980  27.857  35.029   0.417
56381W        W26981  16.692  40.415   3.356
56382W        W26982  11.699  32.482  12.774
56383W        W26983   4.309  10.172   3.256
56384W        W26984  29.389  23.043   2.142
56385W        W26985  39.924  27.539   2.906
56386W        W26986  41.875  16.370  13.384
56387W        W26987  41.281   9.834  10.384
56388W        W26988  40.459   9.647   0.417
56389W        W26989  11.124  35.975   0.923
56390W        W26990  17.536  41.247  14.961
56391W        W26991   3.455  11.293   2.790
56392W        W26992  17.145  29.377   0.412
56393W        W26993  19.765  26.663  12.625
56394W        W26994  24.208  31.042  14.005
56395W        W26995  27.809  15.873  12.861
56396W        W26996  11.734  18.340  12.594
56397W        W26997  37.892  34.211  12.961
56398W        W26998  21.510  30.635  12.171
56399W        W26999   9.740  44.888  12.575
56400W        W27000  31.410  16.128  12.990
56401W        W27001   7.392  44.789   1.300
56402W        W27002  37.304  43.425  13.814
56403W        W27003   5.013  11.282   2.781
56404W        W27004  22.249  17.617   0.509
56405W        W27005  24.739  10.720  14.998
56406W        W27006   6.608   3.106   4.339
56407W        W27007  28.054  11.950  13.772
56408W        W27008  41.403  38.741   4.091
56409W        W27009  43.622  24.712   2.717
56410W        W27010  39.794  23.254  12.461
56411W        W27011  17.319  17.712  10.530
56412W        W27012   2.446  24.644   1.897
56413W        W27013  37.771   2.768  13.961
56414W        W27014  28.084  44.004  10.672
56415W        W27015   5.239  43.774  12.346
56416W        W27016  22.809  10.100  14.530
56417W        W27017  35.054  26.501  11.108
56418W        W27018  30.213  44.810  13.586
56419W        W27019  10.389  16.981   2.262
56420W        W27020  16.132   1.320   3.797
56421W        W27021  32.065  23.696   2.417
56422W        W27022  18.664  21.022   2.904
56423W        W27023   5.366  43.457   2.612
56424W        W27024  24.776  39.830  14.833
56425W        W27025  14.716  38.038   2.309
56426W        W27026   5.916  17.254   3.248
56427W        W27027  41.863  24.274   4.640
56428W        W27028   9.332  35.370  11.868
56429W        W27029  36.365   1.721  11.873
56430W        W27030  24.628  40.784  11.589
56431W        W27031   2.019   7.859  10.516
56432W        W27032  36.915  39.291  11.464
56433W        W27033   9.188  24.670   4.513
56434W        W27034  27.667  34.013   4.834
56435W        W27035  28.573   3.709   2.348
56436W        W27036  44.005  40.000  12.343
56437W        W27037  26.766  29.609  12.859
56438W        W27038  15.778   4.148  14.239
56439W        W27039   6.378  26.994   0.075
56440W        W27040  27.923   5.450   4.044
56441W        W27041  32.453  11.245  10.912
56442W        W27042  39.083  16.571  12.038
56443W        W27043  35.343  11.082   3.173
56444W        W27044   5.728  16.546   0.915
56445W        W27045  31.861  24.554  14.971
56446W        W27046  22.921  27.380   0.293
56447W        W27047  23.535   5.137   1.725
56448W        W27048  34.044  43.361  13.456
56449W        W27049  18.340  19.509  11.110
56450W        W27050  30.892  40.330  13.599
56451W        W27051  37.155   2.971   2.752
56452W        W27052  40.297   4.648  14.737
56453W        W27053  16.556   6.001  11.508
56454W        W27054   5.852  42.357  14.337
56455W        W27055  33.169  44.859  13.541
56456W        W27056  30.524  27.823  13.485
56457W        W27057   5.432  27.035   2.607
56458W        W27058  13.583  44.789   0.199
56459W        W27059  29.169  13.277  11.206
56460W        W27060  32.374  28.466  13.488
56461W        W27061  27.475  34.690   1.864
56462W        W27062  13.818  12.699  14.000
56463W        W27063  21.230  28.919  11.186
56464W        W27064  37.081  40.609  14.887
56465W        W27065   6.423   3.459  10.740
56466W        W27066  33.240  31.432   1.757
56467W        W27067   5.482  41.831   3.372
56468W        W27068  44.713  21.069   2.768
56469W        W27069  39.766  32.914   1.498
56470W        W27070   1.817   9.282   1.745
56471W        W27071   8.338  32.919  10.711
56472W        W27072  38.132  23.082  14.116
56473W        W27073   5.941  30.654  12.656
56474W        W27074  23.272   1.644   4.583
56475W        W27075   3.400   0.690   1.826
56476W        W27076   7.461  44.304   1.467
56477W        W27077   7.901  28.538   3.102
56478W        W27078  36.187   0.536  13.437
56479W        W27079   9.328   3.420   4.092
56480W        W27080  16.600  20.511  13.057
56481W        W27081   3.814  24.776  12.036
56482W        W27082   2.798  25.665   4.325
56483W        W27083  14.941   9.508   4.086
56484W        W27084   0.408  23.067  12.594
56485W        W27085  21.527  24.593   2.241
56486W        W27086  37.571  39.570   2.416
56487W        W27087  26.975  37.077  14.578
56488W        W27088  42.575  41.438  11.607
56489W        W27089  17.299  14.441  13.185
56490W        W27090   9.251  19.431   0.248
56491W        W27091  38.637  11.752  11.514
56492W        W27092  37.630  20.210   2.683
56493W        W27093  39.268  38.615   3.340
56494W        W27094  40.172  34.189  14.396
56495W        W27095  30.893   1.387  14.505
56496W        W27096   1.737  13.157  13.985
56497W        W27097  14.740  42.629  11.169
56498W        W27098  13.929  14.621   2.781
56499W        W27099  24.215  17.181  12.412
56500W        W27100  35.408  14.171   4.907
56501W        W27101  24.056  36.459   2.823
56502W        W27102   2.406  26.045  10.674
56503W        W27103  31.999  12.540   5.032
56504W        W27104  24.688  31.799  13.716
56505W        W27105  39.832  42.847   1.648
56506W        W27106   6.794  11.227  10.617
56507W        W27107  37.991  30.221   2.708
56508W        W27108  40.501  27.038  12.963
56509W        W27109  23.617  27.683  12.120
56510W        W27110  26.377   5.874   4.099
56511W        W27111  12.127  10.981   1.629
56512W        W27112   9.866  30.486  14.357
56513W        W27113  18.669  12.091   1.190
56514W        W27114  27.708  30.156   3.323
56515W        W27115  21.146  38.076  13.382
56516W        W27116   4.253   9.269  13.927
56517W        W27117  12.283  44.893   0.353
56518W        W27118  37.174  39.789   4.113
56519W        W27119  42.316   8.035   5.148
56520W        W27120   2.729   0.479   2.361
56521W        W27121  32.259  28.164   3.631
56522W        W27122   0.791  26.236  11.173
56523W        W27123  38.961   7.086  12.470
56524W        W27124  14.198  40.050  12.357
56525W        W27125   5.181  16.518   4.675
56526W        W27126  39.329  42.974  11.194
56527W        W27127  26.217  43.977   1.813
56528W        W27128  39.352  38.352   0.877
56529W        W27129   9.405   9.807  14.434
56530W        W27130  43.419  20.353  12.039
56531W        W27131   5.356  18.525   2.096
56532W        W27132   9.892  14.782   0.675
56533W        W27133   3.241  25.151   0.419
56534W        W27134  41.546   5.925  11.526
56535W        W27135  18.524  34.029  13.151
56536W        W27136  41.799  35.142   2.032
56537W        W27137  11.209  15.596   4.674
56538W        W27138   8.319  15.664   0.891
56539W        W27139  39.801  35.372  12.514
56540W        W27140  40.253  22.004   3.189
56541W        W27141  21.927  15.811  12.561
56542W        W27142  44.787  14.174   3.413
56543W        W27143  32.120  13.706   0.756
56544W        W27144   2.942  41.574  11.170
56545W        W27145  36.842  13.444  11.642
56546W        W27146  16.505   0.681  13.137
56547W        W27147  29.163  30.097   1.152
56548W        W27148  19.562   6.307  14.055
56549W        W27149   4.165  32.498   3.435
56550W        W27150   9.733   7.479   0.856
56551W        W27151  18.155  12.287   1.466
56552W        W27152  22.608  20.915  14.755
56553W        W27153  33.660   2.218  12.618
56554W        W27154  28.634  44.686   3.398
56555W        W27155  35.861  22.245   0.948
56556W        W27156  21.738  31.682   2.702
56557W        W27157  34.068  41.901   1.186
56558W        W27158  16.746  35.151   4.532
56559W        W27159  18.474  10.137   1.563
56560W        W27160  22.479  28.025  12.532
56561W        W27161   7.242  43.927   0.748
56562W        W27162  18.221  33.135   3.658
56563W        W27163  30.722  20.076  14.551
56564W        W27164   2.917  24.688  10.751
56565W        W27165  36.358  19.177   0.748
56566W        W27166  35.081  26.156   1.382
56567W        W27167   1.083  12.749  10.718
56568W        W27168  13.106  14.579   0.199
56569W        W27169  11.766  24.690   1.291
56570W        W27170  40.970  37.017   3.271
56571W        W27171  37.912  28.572  12.895
56572W        W27172  12.242   9.142  13.815
56573W        W27173  32.354   8.308   2.347
56574W        W27174  44.794  41.966  11.524
56575W        W27175  44.295  19.349  10.560
56576W        W27176  18.234  44.256   4.123
56577W        W27177   3.297   8.094  11.414
56578W        W27178  21.853   5.808   1.399
56579W        W27179  20.642   1.019   0.154
56580W        W27180  32.054  34.617  10.438
56581W        W27181   0.013   4.026  14.140
56582W        W27182  20.315  14.830   2.591
56583W        W27183  19.172  29.630  11.115
56584W        W27184  16.541  41.541   0.919
56585W        W27185  28.570   1.940   0.688
56586W        W27186  19.079   1.746   3.638
56587W        W27187  13.037  39.281  12.610
56588W        W27188  20.622   8.999  10.302
56589W        W27189   1.926  34.678   4.830
56590W        W27190  20.139  39.877  14.965
56591W        W27191   2.429  12.637  14.836
56592W        W27192   2.912  12.306   2.339
56593W        W27193  43.810   7.215  11.907
56594W        W27194  31.949  33.493   5.090
56595W        W27195  44.481  36.446   4.914
56596W        W27196  17.896   3.696  14.389
56597W        W27197   2.855  44.634   3.184
56598W        W27198  12.782  38.084  10.600
56599W        W27199  17.175  41.229  13.605
56600W        W27200  12.196  42.964   1.767
56601W        W27201  18.188  29.882   3.315
56602W        W27202  37.977  44.037   3.937
56603W        W27203  10.337  27.052   2.346
56604W        W27204   4.316  39.849   4.913
56605W        W27205  12.650  22.693   4.649
56606W        W27206  34.361  16.074  10.756
56607W        W27207  44.968  40.999  10.693
56608W        W27208  44.565  38.084  12.057
56609W        W27209  25.806   7.152  11.199
56610W        W27210  18.958  19.480   2.284
56611W        W27211   5.189  10.860  11.865
56612W        W27212  44.383   9.825   2.693
56613W        W27213   3.622   6.157  12.986
56614W        W27214  28.475  43.865  11.511
56615W        W27215  25.614   6.836   1.863
56616W        W27216  19.884  18.025  12.888
56617W        W27217  31.687  43.829   2.174
56618W        W27218   2.947  15.393   4.648
56619W        W27219  15.790  42.214  11.154
56620W        W27220  26.900   8.374  11.594
56621W        W27221  34.904  32.334  12.101
56622W        W27222  40.897  29.145   1.361
56623W        W27223  22.719  29.652   3.697
56624W        W27224  12.231   9.296   1.768
56625W        W27225  26.033   0.496   5.400
56626W        W27226   8.394  26.704   4.620
56627W        W27227  38.285  31.495  11.669
56628W        W27228  24.559  23.473  11.223
56629W        W27229  34.023  18.579   1.176
56630W        W27230   0.792   2.298   0.444
56631W        W27231   4.556  29.084  10.466
56632W        W27232  18.711  19.999   4.256
56633W        W27233  30.279  18.147  11.966
56634W        W27234  41.690   4.471   1.815
56635W        W27235  16.736  44.878  11.600
56636W        W27236  11.319  10.654  13.907
56637W        W27237  13.378  20.860  12.467
56638W        W27238  32.850  11.286  11.722
56639W        W27239  26.004   6.454  11.368
56640W        W27240  29.854  13.843  12.530
56641W        W27241  21.721   4.952   0.820
56642W        W27242   0.798  18.676  11.989
56643W        W27243  26.782  24.177  13.313
56644W        W27244   2.411   8.356  13.799
56645W        W27245  33.472   3.829  10.378
56646W        W27246   6.960   5.950  14.089
56647W        W27247  35.447  31.382   3.573
56648W        W27248  42.870   9.668   5.106
56649W        W27249  17.610  21.519  12.495
56650W        W27250  36.072  36.420   2.773
56651W        W27251  16.543  43.798   5.261
56652W        W27252   7.856  33.704  11.585
56653W        W27253  36.100   7.916   1.917
56654W        W27254  20.867  37.514   2.219
56655W        W27255  17.564  37.317  12.155
56656W        W27256   5.334  41.407   3.642
56657W        W27257  33.009  33.045   0.656
56658W        W27258   8.351   5.904  10.584
56659W        W27259  18.262  30.599   2.825
56660W        W27260  37.359  41.175  11.169
56661W        W27261  17.998   0.904  13.835
56662W        W27262   3.939  10.076  10.965
56663W        W27263   9.025   3.445  12.797
56664W        W27264  34.606   2.862   0.359
56665W        W27265   0.654  24.395  14.895
56666W        W27266  13.850  13.732  13.479
56667W        W27267  36.055  31.582  11.059
56668W        W27268   7.405   7.611  14.946
56669W        W27269  20.291  26.735  12.008
56670W        W27270  33.060   2.269   2.381
56671W        W27271  42.299  23.474  13.368
56672W        W27272  27.085  27.025   1.450
56673W        W27273  30.374  16.200  14.002
56674W        W27274   8.434  44.818   3.115
56675W        W27275  30.713   7.771  12.607
56676W        W27276  29.080  11.231   1.806
56677W        W27277  34.421  12.207  13.714
56678W        W27278  43.806   9.310  13.965
56679W        W27279   0.056  30.572  12.448
56680W        W27280  36.151  35.527   4.933
56681W        W27281  28.120  43.006  11.585
56682W        W27282  42.857   1.156   0.434
56683W        W27283  24.191  22.630  13.252
56684W        W27284   4.820  27.716  14.872
56685W        W27285  40.583  15.694   4.117
56686W        W27286  43.449   8.069   0.474
56687W        W27287  25.511   5.230   3.955
56688W        W27288  37.674  19.758   4.242
56689W        W27289  35.991  29.929  10.680
56690W        W27290  36.764  43.958   4.122
56691W        W27291  25.689  32.895   0.793
56692W        W27292   6.404  24.503  11.651
56693W        W27293   0.292   0.005   3.246
56694W        W27294   6.372   9.935  14.330
56695W        W27295  28.990  24.446  14.434
56696W        W27296  23.024  21.184  11.096
56697W        W27297  39.895  41.001  10.762
56698W        W27298   2.878  30.470   3.904
56699W        W27299  27.938   9.118  14.942
56700W        W27300   1.211  44.253  14.301
56701W        W27301  28.966  13.961  13.181
56702W        W27302  16.575  39.781   0.946
56703W        W27303   4.671  35.847  10.907
56704W        W27304  13.219   2.061   3.347
56705W        W27305  22.217  30.822   0.378
56706W        W27306   3.960  27.375   1.376
56707W        W27307  40.887  19.601   0.227
56708W        W27308  40.340  44.980   2.892
56709W        W27309  33.453  29.907  10.259
56710W        W27310  18.539  36.850  12.482
56711W        W27311  12.388  44.540   3.263
56712W        W27312   0.893  20.857  13.042
56713W        W27313  15.403  26.597  13.967
56714W        W27314  24.478   9.679  12.164
56715W        W27315  29.996   3.669   0.606
56716W        W27316  21.171  19.553   2.882
56717W        W27317  41.090  33.346   2.405
56718W        W27318   8.551   5.523  12.585
56719W        W27319  23.197   1.384   2.731
56720W        W27320  23.054   6.194   3.387
56721W        W27321  34.888  40.932   4.819
56722W        W27322  29.473  13.373   0.748
56723W        W27323   0.428  12.178  13.566
56724W        W27324  11.012   6.068   0.811
56725W        W27325  36.534   0.303  13.720
56726W        W27326  31.502  40.150  14.300
56727W        W27327   0.738  40.334  12.916
56728W        W27328  43.368  37.163  12.956
56729W        W27329  16.165   1.106  12.426
56730W        W27330  34.699   5.852   0.907
56731W        W27331   6.174  21.626  13.459
56732W        W27332  38.418  35.699  13.366
56733W        W27333   6.816  30.012   0.215
56734W        W27334   7.803  12.877  13.918
56735W        W27335   8.446  24.442   0.385
56736W        W27336   6.366  20.820   0.786
56737W        W27337  42.895  11.527  12.214
56738W        W27338  24.954  44.400   1.944
56739W        W27339  24.266  12.250  10.699
56740W        W27340  34.670  15.747   1.521
56741W        W27341   5.601  26.291   0.820
56742W        W27342  26.936  44.299  11.587
56743W        W27343   7.754  40.361   3.712
56744W        W27344  11.018  10.959   0.763
56745W        W27345  30.587  37.169  11.030
56746W        W27346  15.509   3.835  10.676
56747W        W27347   6.657  26.542  11.083
56748W        W27348  23.207   1.231  10.254
56749W        W27349  31.006   1.472   2.436
56750W        W27350  14.232  36.354   2.166
56751W        W27351  23.298  21.487  14.828
56752W        W27352  14.276  16.282  14.480
56753W        W27353  27.146  39.295   4.338
56754W        W27354  23.351  13.228  11.542
56755W        W27355  13.664  18.304  12.979
56756W        W27356  42.827  34.672   3.162
56757W        W27357  43.828   7.838  10.520
56758W        W27358  38.625   1.320  13.257
56759W        W27359   6.217  11.466   2.710
56760W        W27360  38.602  10.588  12.132
56761W        W27361  44.762   9.560   3.674
56762W        W27362  41.388  27.974  12.350
56763W        W27363   4.107  35.512  12.181
56764W        W27364   0.539  34.041  11.128
56765W        W27365  12.534  31.976   1.805
56766W        W27366  32.039   0.278  13.954
56767W        W27367  39.136  16.197   0.193
56768W        W27368   4.789   0.167  11.942
56769W        W27369  43.872  12.911   1.806
56770W        W27370  10.179  39.539   4.653
56771W        W27371  32.610  40.943   3.626
56772W        W27372  31.925  17.693   0.923
56773W        W27373  29.704  42.103  12.500
56774W        W27374  13.119  21.100  11.507
56775W        W27375  22.670  27.697   3.745
56776W        W27376   0.942  37.899  12.072
56777W        W27377  29.714   9.693  13.431
56778W        W27378  12.071  44.254   3.562
56779W        W27379   2.555  44.745   1.313
56780W        W27380  16.218  12.131  14.258
56781W        W27381   7.278  22.692   3.300
56782W        W27382  24.100   1.573   2.283
56783W        W27383  41.057   1.893   4.089
56784W        W27384  15.706  38.942   0.266
56785W        W27385   8.833   9.545  12.363
56786W        W27386  36.257  41.876   3.606
56787W        W27387  31.006   2.506   2.424
56788W        W27388  20.868  30.739   9.961
56789W        W27389  30.897   1.882  10.841
56790W        W27390  15.318  41.565   2.636
56791W        W27391  10.850  37.671   2.792
56792W        W27392   4.461   4.736  13.947
56793W        W27393  14.638  35.301  13.429
56794W        W27394  35.984  33.177   0.646
56795W        W27395  12.363  44.156   1.335
56796W        W27396   0.555   5.348   0.338
56797W        W27397  33.390  12.534  11.169
56798W        W27398   8.110   2.191  14.878
56799W        W27399  26.140  39.457   0.198
56800W        W27400  11.783   3.905   2.257
56801W        W27401   2.696   8.790   2.697
56802W        W27402  15.102  30.354  11.112
56803W        W27403  23.920  16.295  10.780
56804W        W27404  15.569   7.728   2.434
56805W        W27405   8.257   7.377   4.384
56806W        W27406  10.357  39.375  11.206
56807W        W27407   8.647  11.449  11.625
56808W        W27408   5.645   3.290  14.940
56809W        W27409  14.323  34.089   2.615
56810W        W27410  43.986  40.918   4.337
56811W        W27411   8.644  29.494  13.570
56812W        W27412  27.980  32.217   5.229
56813W        W27413  42.414  41.312  12.080
56814W        W27414  43.304  40.692  11.192
56815W        W27415  34.576  40.172   3.824
56816W        W27416  11.399  38.490   3.399
56817W        W27417  17.944  27.497   1.656
56818W        W27418  20.515   1.794   1.395
56819W        W27419   2.100  36.480  12.505
56820W        W27420  29.230  11.736   1.841
56821W        W27421  16.299   0.587  12.418
56822W        W27422   5.532  14.297   1.852
56823W        W27423  15.194  39.992  13.007
56824W        W27424  29.519  15.980   3.010
56825W        W27425  36.437  42.766   3.596
56826W        W27426  24.698  38.798   1.914
56827W        W27427  37.378   6.186  13.932
56828W        W27428  17.118  27.253  14.859
56829W        W27429  30.037  19.003  14.959
56830W        W27430  36.383  40.201  12.531
56831W        W27431   0.044  38.334   2.798
56832W        W27432  10.466  40.484  14.674
56833W        W27433   9.368  27.241  13.460
56834W        W27434  41.501  41.769   3.174
56835W        W27435  23.226  39.822  12.401
56836W        W27436  37.654  36.217  10.713
56837W        W27437  40.916  41.837   3.792
56838W        W27438  40.358  27.929   4.515
56839W        W27439  29.110  27.994  14.242
56840W        W27440   7.979  38.930  12.841
56841W        W27441  14.702   6.206   3.215
56842W        W27442  19.226   7.156   3.747
56843W        W27443  10.180  29.605  11.225
56844W        W27444   5.884  13.391  14.329
56845W        W27445  36.552  20.897  10.438
56846W        W27446  16.123  21.435   4.615
56847W        W27447  29.658  37.270  10.084
56848W        W27448  10.580  12.764   4.398
56849W        W27449  21.178  11.291  10.553
56850W        W27450   3.945   3.160   4.544
56851W        W27451   6.058  27.137   3.515
56852W        W27452  28.941  38.976   4.620
56853W        W27453   2.563  12.660   9.903
56854W        W27454   5.321  11.711  12.858
56855W        W27455  44.268  12.122  11.492
56856W        W27456  11.927  23.528   3.677
56857W        W27457  33.395  21.328   4.536
56858W        W27458   0.254  16.761  13.446
56859W        W27459  34.656  42.630  13.797
56860W        W27460  31.096   9.962  14.659
56861W        W27461  32.900  37.952   0.916
56862W        W27462  44.391  18.902   4.641
56863W        W27463   3.199  20.560  12.155
56864W        W27464  26.168  34.468  13.838
56865W        W27465   7.410   3.633  10.711
56866W        W27466   2.478  27.409   0.936
56867W        W27467  13.572  11.878  11.967
56868W        W27468  11.873  35.831   2.598
56869W        W27469  36.331  24.205   0.809
56870W        W27470  23.015  29.523   0.803
56871W        W27471  16.063   2.968   3.182
56872W        W27472  34.353  29.516   0.034
56873W        W27473  20.076   3.585  11.610
56874W        W27474  39.013  19.586  12.442
56875W        W27475  19.151  28.496  10.736
56876W        W27476  26.630  27.273  10.696
56877W        W27477   1.314  31.603  12.786
56878W        W27478  31.542   5.382  10.726
56879W        W27479  11.210   2.732  11.513
56880W        W27480  40.285  15.272   0.288
56881W        W27481  36.454  32.360  14.972
56882W        W27482   1.805  27.665   1.845
56883W        W27483   7.148  25.762  14.232
56884W        W27484  34.461  40.084   2.209
56885W        W27485   3.724   8.256  14.498
56886W        W27486   5.917  44.836  14.089
56887W        W27487  12.840  28.952  11.248
56888W        W27488   0.731  40.258  14.011
56889W        W27489   2.409  32.697  14.470
56890W        W27490  29.625   2.727   1.537
56891W        W27491  34.393  44.992  11.939
56892W        W27492   5.405  32.798  10.709
56893W        W27493  38.977  24.603   3.692
56894W        W27494  38.914   4.731   3.988
56895W        W27495  36.958  31.393   4.589
56896W        W27496  12.829   9.268   4.401
56897W        W27497   3.740   8.575  14.933
56898W        W27498  17.733  32.787   2.342
56899W        W27499  37.089   2.184  14.090
56900W        W27500  31.024  42.952  14.467
56901W        W27501  43.846  42.964   2.663
56902W        W27502  15.679  16.716   4.989
56903W        W27503  10.548   5.525   0.438
56904W        W27504  13.458  37.960   4.576
56905W        W27505  25.109   6.414  14.042
56906W        W27506  34.942  40.270  11.918
56907W        W27507  30.126  17.196  14.701
56908W        W27508  31.064  41.896  13.530
56909W        W27509   8.347  39.750  13.503
56910W        W27510   5.482   8.536  14.791
56911W        W27511  44.393  17.482  12.077
56912W        W27512  32.644   0.706  12.014
56913W        W27513  26.508   6.569  11.546
56914W        W27514  14.720  26.516  12.339
56915W        W27515  23.016  22.803  12.058
56916W        W27516  15.073  36.383   2.622
56917W        W27517  19.982   4.742   0.244
56918W        W27518  16.611  10.221  14.342
56919W        W27519  23.945   0.760   3.400
56920W        W27520   7.342  21.044   3.251
56921W        W27521  42.916  22.429  11.118
56922W        W27522  42.347  38.353  11.719
56923W        W27523  11.301  24.981   0.855
56924W        W27524  28.200  11.259   4.212
56925W        W27525  41.733  41.694  13.569
56926W        W27526  37.824   2.932  10.684
56927W        W27527   7.205  30.787   4.597
56928W        W27528  32.120  22.728  14.503
56929W        W27529   8.344  10.869  12.411
56930W        W27530  43.181  42.766   5.119
56931W        W27531   5.306  19.683  14.997
56932W        W27532  16.172  35.870   1.403
56933W        W27533  18.999  16.512  12.333
56934W        W27534  28.945  25.671   0.593
56935W        W27535  12.338  11.950   0.695
56936W        W27536  13.330  34.938   0.835
56937W        W27537  12.281  24.085   2.807
56938W        W27538  37.848  21.645  10.855
56939W        W27539  41.600  20.436   3.666
56940W        W27540  42.694   1.884   1.769
56941W        W27541   8.728  13.764  13.548
56942W        W27542   7.677   1.984   2.908
56943W        W27543  25.260  32.966   3.790
56944W        W27544  34.510  23.591   3.597
56945W        W27545   8.642  14.246   2.709
56946W        W27546  12.103  42.668   1.308
56947W        W27547   3.235  38.392  13.054
56948W        W27548  28.034  33.329  14.032
56949W        W27549  41.134  44.118  11.095
56950W        W27550   5.346  27.485   3.984
56951W        W27551  42.730  18.195  13.069
56952W        W27552  18.437  40.868   3.898
56953W        W27553  14.806  15.186  14.340
56954W        W27554  38.278   3.241   0.715
56955W        W27555   2.847  16.684  13.482
56956W        W27556   2.527  11.623  11.227
56957W        W27557  25.067  40.106   3.656
56958W        W27558  33.994   5.418   0.436
56959W        W27559   8.144  37.341  11.393
56960W        W27560   7.354  10.286  13.944
56961W        W27561  38.839  41.868   0.395
56962W        W27562  41.072   6.841  13.825
56963W        W27563  28.417  38.460  13.731
56964W        W27564  23.529   2.768  12.457
56965W        W27565  18.195  10.128   2.720
56966W        W27566  12.857  14.363   2.818
56967W        W27567  32.949  22.167  14.302
56968W        W27568  23.878   3.494   0.552
56969W        W27569  39.391  33.653   1.832
56970W        W27570  33.902  26.975  12.828
56971W        W27571   4.272  14.029  10.965
56972W        W27572  26.573   9.334   3.647
56973W        W27573  37.352   2.793   0.423
56974W        W27574  41.481  37.292   4.086
56975W        W27575  21.943  33.056   2.284
56976W        W27576   6.737  31.619   2.079
56977W        W27577  26.064  41.803   0.379
56978W        W27578  11.676  39.765  12.154
56979W        W27579  14.611   3.928  13.858
56980W        W27580  24.398  42.384   0.777
56981W        W27581  39.290  40.268  13.932
56982W        W27582  42.926  14.345   4.726
56983W        W27583  27.108  13.664   2.275
56984W        W27584   0.015  15.761  13.732
56985W        W27585  14.926   2.197  13.902
56986W        W27586  39.467  14.234  12.397
56987W        W27587  43.766  35.863  11.003
56988W        W27588  24.141  31.122  11.658
56989W        W27589  20.567   9.678  13.214
56990W        W27590  31.705  11.764   3.214
56991W        W27591   4.977   7.265   2.286
56992W        W27592  41.305  18.610   1.822
56993W        W27593  29.830   6.006   0.342
56994W        W27594   3.732  26.735  14.897
56995W        W27595  27.862   2.930  13.963
56996W        W27596  21.239  17.697  12.054
56997W        W27597   6.483  26.671   1.425
56998W        W27598  20.336  35.410  11.547
56999W        W27599   5.216  16.535   0.336
57000W        W27600  34.072  43.206   4.145
57001W        W27601  18.779  43.998   1.780
57002W        W27602   0.707   3.739  11.537
57003W        W27603  36.915   2.744  12.834
57004W        W27604  17.317  27.907  14.241
57005W        W27605   2.668  21.094  13.509
57006W        W27606  27.702  23.667   1.714
57007W        W27607   2.396   8.731  13.436
57008W        W27608  18.124   4.354  11.973
57009W        W27609  32.115  37.566   2.283
57010W        W27610  17.293  35.915   5.425
57011W        W27611  22.209  22.719   4.296
57012W        W27612  14.859  44.328  13.527
57013W        W27613   2.237  41.909  12.559
57014W        W27614  14.130  35.400   2.212
57015W        W27615  11.615  32.353   3.323
57016W        W27616  25.203  25.609  13.994
57017W        W27617  16.191  41.733   4.476
57018W        W27618   8.554  17.283   0.673
57019W        W27619   2.973  19.648  12.429
57020W        W27620  26.599  11.822   0.736
57021W        W27621  15.307  35.015   0.626
57022W        W27622   8.334  28.479   1.222
57023W        W27623   8.330   6.119   3.219
57024W        W27624  20.078  42.403  11.522
57025W        W27625   1.044   9.603  12.865
57026W        W27626   7.993  41.405  11.208
57027W        W27627  10.751   7.880  14.140
57028W        W27628  10.375   1.918  13.102
57029W        W27629   2.305  44.920   4.554
57030W        W27630  11.349  36.135   0.479
57031W        W27631   8.363   0.191  12.064
57032W        W27632   8.369  44.821   1.325
57033W        W27633  11.363  39.365  14.461
57034W        W27634   4.799  32.119   1.437
57035W        W27635  24.779  42.273   4.224
57036W        W27636   6.437  32.505  12.434
57037W        W27637  34.554  26.563   1.759
57038W        W27638  19.061   5.800  10.634
57039W        W27639   9.915  19.820   4.096
57040W        W27640  43.684  19.697   3.258
57041W        W27641  12.368  35.309  12.465
57042W        W27642  18.560  19.402   0.302
57043W        W27643  38.154  39.274  13.094
57044W        W27644  12.821  32.894   3.988
57045W        W27645  26.200  24.469  11.473
57046W        W27646  36.629  30.913  13.486
57047W        W27647  19.685  25.724  13.077
57048W        W27648  28.624   8.643   3.153
57049W        W27649  14.350  40.385  13.421
57050W        W27650  40.952  33.645  11.516
57051W        W27651  43.897   0.493   3.066
57052W        W27652  21.621   8.262  12.863
57053W        W27653   8.145  42.481  10.600
57054W        W27654  36.043  43.833   0.800
57055W        W27655  19.729  30.821  14.475
57056W        W27656   4.508   1.668   1.837
57057W        W27657  18.708   2.958  13.511
57058W        W27658  17.821   5.611  11.521
57059W        W27659  30.881  33.432   4.267
57060W        W27660  20.044  19.582  13.452
57061W        W27661  22.490   7.671  13.826
57062W        W27662  43.454  22.209   3.146
57063W        W27663  42.486  10.229  10.819
57064W        W27664   3.359   6.391  12.610
57065W        W27665  44.843  39.750  12.304
57066W        W27666  33.074  30.509   0.556
57067W        W27667   3.001  40.696  14.889
57068W        W27668  32.271  17.768  10.751
57069W        W27669  25.570   5.359  14.795
57070W        W27670  26.683  30.798   0.499
57071W        W27671  36.839  10.589  12.051
57072W        W27672  41.906  32.450  12.046
57073W        W27673   5.858  41.788   4.165
57074W        W27674  44.395   1.946  10.743
57075W        W27675  20.700  30.009   4.107
57076W        W27676  14.269  40.519   5.168
57077W        W27677  30.156  30.984   0.045
57078W        W27678  27.018   9.870  13.053
57079W        W27679  36.512  21.570  12.143
57080W        W27680   3.484   3.971  13.407
57081W        W27681  31.934  39.613   3.442
57082W        W27682  12.221  28.913   2.241
57083W        W27683  34.399  12.337  12.476
57084W        W27684  21.609  25.100  10.675
57085W        W27685  30.166  19.997  13.529
57086W        W27686  43.429  17.480   2.436
57087W        W27687  34.916  36.930   1.299
57088W        W27688  19.763  18.344  13.785
57089W        W27689  15.400  32.665   2.282
57090W        W27690  40.367  42.542  11.357
57091W        W27691  42.441  15.789   3.140
57092W        W27692  42.434  30.466  13.555
57093W        W27693  20.983   7.891   3.313
57094W        W27694  17.729  17.265  11.503
57095W        W27695  30.647   9.757  14.519
57096W        W27696   9.120  23.081  10.971
57097W        W27697  26.674  23.808   2.909
57098W        W27698  28.666  10.113   3.187
57099W        W27699  41.761  40.179   4.072
57100W        W27700  35.544  16.074   3.872
57101W        W27701  39.401  32.328  13.958
57102W        W27702  41.042  31.212  14.406
57103W        W27703  35.163  12.343  13.542
57104W        W27704  13.230  12.599  10.988
57105W        W27705   0.488  26.984   3.212
57106W        W27706  37.442  37.626   5.099
57107W        W27707  19.345   5.959  11.078
57108W        W27708  10.292  31.695  12.567
57109W        W27709  19.920  40.660  14.808
57110W        W27710  30.344  21.650  11.292
57111W        W27711   1.278  35.113  12.443
57112W        W27712   5.189  41.412   3.144
57113W        W27713  43.809   2.403   3.851
57114W        W27714  36.428  19.672  14.527
57115W        W27715  29.033  12.322  12.846
57116W        W27716  25.693   8.097  12.871
57117W        W27717  26.702  19.802   3.098
57118W        W27718  10.978  44.576  11.597
57119W        W27719  31.775   4.205   4.084
57120W        W27720   0.315   7.598   3.279
57121W        W27721  12.377  13.904   0.769
57122W        W27722  40.962  16.078  14.770
57123W        W27723  21.242  38.872   3.319
57124W        W27724  32.112   1.537   3.724
57125W        W27725   3.479  38.019   2.413
57126W        W27726   8.610   8.302   2.793
57127W        W27727   7.614  16.990  14.922
57128W        W27728  29.101  30.880   0.530
57129W        W27729  25.142  24.284   4.656
57130W        W27730  11.328  17.267  12.918
57131W        W27731  35.332  44.873   2.798
57132W        W27732  22.628  43.081  12.111
57133W        W27733  35.338  33.821   4.126
57134W        W27734  23.849  16.640   0.887
57135W        W27735  15.163  21.016  13.141
57136W        W27736  19.111  42.909   0.681
57137W        W27737  24.662  17.617  11.816
57138W        W27738  34.939   1.172  13.456
57139W        W27739  21.961  21.756   4.457
57140W        W27740  39.900  13.243   4.200
57141W        W27741  16.347  34.868   2.848
57142W        W27742  10.377  20.244   3.250
57143W        W27743   0.528  14.060  11.615
57144W        W27744  30.721  39.307  10.248
57145W        W27745  19.628  20.208  14.567
57146W        W27746  33.872   1.252   2.199
57147W        W27747  35.613  29.914  11.059
57148W        W27748  19.461  41.890  12.655
57149W        W27749   9.829  13.303  12.310
57150W        W27750  20.569  25.152  12.359
57151W        W27751  23.797  37.475  12.548
57152W        W27752  16.572  25.533  13.423
57153W        W27753  20.052   5.266   0.344
57154W        W27754  23.090  14.037  13.554
57155W        W27755  15.541   1.529  11.575
57156W        W27756  33.653   2.278  11.200
57157W        W27757  16.343  30.604  13.260
57158W        W27758  42.568  12.676   3.049
57159W        W27759  44.383  32.711  13.099
57160W        W27760  35.347  37.599   3.493
57161W        W27761  34.439  35.456  13.285
57162W        W27762   2.241  22.481  10.684
57163W        W27763   5.255   4.317   3.337
57164W        W27764  33.182  37.332   1.467
57165W        W27765  19.722  43.784  13.424
57166W        W27766  37.606   4.438  12.441
57167W        W27767  10.040  42.906   4.663
57168W        W27768  17.650  37.517  14.826
57169W        W27769   9.536  16.777  13.836
57170W        W27770  37.079  10.944   2.645
57171W        W27771  16.703  11.919   4.177
57172W        W27772  31.011  17.326   0.557
57173W        W27773  37.352  43.627   4.555
57174W        W27774  20.354  34.597   4.096
57175W        W27775  34.166  17.261   3.986
57176W        W27776   9.684  19.740   4.584
57177W        W27777  16.969  21.681   4.557
57178W        W27778  15.701  27.249  14.949
57179W        W27779  28.177   1.294  11.622
57180W        W27780   5.287  35.267  14.477
57181W        W27781  26.351  40.622   2.897
57182W        W27782   6.311  13.313   0.828
57183W        W27783  41.430  21.083   4.232
57184W        W27784  15.743   4.444  11.034
57185W        W27785  20.171   2.084   0.388
57186W        W27786  13.255  42.371   3.586
57187W        W27787  20.606   6.213   4.772
57188W        W27788  19.521  22.002   4.670
57189W        W27789   0.102   7.646   4.085
57190W        W27790  15.497  11.910  11.101
57191W        W27791  29.534  15.784  13.412
57192W        W27792   8.677  21.579  12.495
57193W        W27793   5.163  36.929  14.087
57194W        W27794  38.483  22.216  10.653
57195W        W27795  41.409  36.578   4.661
57196W        W27796  41.970  12.667   4.662
57197W        W27797  31.096  40.373  10.325
57198W        W27798  41.050  40.563  12.164
57199W        W27799  20.093   3.492   5.069
57200W        W27800  14.784  21.974  13.897
57201W        W27801  10.642   3.011  13.535
57202W        W27802  38.968  28.759   1.296
57203W        W27803  44.034  19.785   3.653
57204W        W27804  28.720  35.599   2.553
57205W        W27805  20.948   0.782  13.348
57206W        W27806   5.609  23.025  12.556
57207W        W27807  38.802  33.864  14.341
57208W        W27808   4.466  35.490  13.059
57209W        W27809  35.973   4.033  12.493
57210W        W27810  25.119  37.458  10.459
57211W        W27811  15.623  14.592   3.175
57212W        W27812  26.405  12.545  11.990
57213W        W27813  30.371  23.299   2.872
57214W        W27814  17.137  23.027   0.829
57215W        W27815  23.778  39.070  14.960
57216W        W27816  11.519  23.187   2.196
57217W        W27817   8.146  25.438   4.015
57218W        W27818   5.471  35.332  13.991
57219W        W27819  20.465  34.046  13.476
57220W        W27820  42.496   6.444   0.064
57221W        W27821  17.089  37.268  11.179
57222W        W27822  35.739   4.549   9.983
57223W        W27823  31.944  31.143  14.375
57224W        W27824  33.496   9.026  13.325
57225W        W27825  43.701  31.391   1.531
57226W        W27826   2.901   3.212  14.241
57227W        W27827  25.182  20.065   4.575
57228W        W27828  30.061  14.341   1.322
57229W        W27829  42.111   7.647   4.802
57230W        W27830   0.858  39.392  12.836
57231W        W27831  28.533  43.801  12.466
57232W        W27832  41.813  41.241   0.413
57233W        W27833  42.151  32.134   3.988
57234W        W27834  35.363  13.089   1.368
57235W        W27835  43.005  16.330   0.208
57236W        W27836  40.796  12.674   0.739
57237W        W27837  37.618  12.762  13.283
57238W        W27838   3.753  15.791   4.142
57239W        W27839  30.080  27.743  12.664
57240W        W27840  39.980  23.747   3.386
57241W        W27841  40.068  25.124  14.901
57242W        W27842  36.759  39.430  14.912
57243W        W27843  17.884   4.884  13.372
57244W        W27844  35.337  19.488  13.563
57245W        W27845  25.963  25.231  14.612
57246W        W27846  34.774   6.065  11.928
57247W        W27847  44.315  22.777  10.459
57248W        W27848  38.571   2.677   4.141
57249W        W27849  23.944  20.042   2.223
57250W        W27850  20.065  30.361   3.383
57251W        W27851  33.196   4.872   2.794
57252W        W27852   2.890  13.329   0.714
57253W        W27853  12.312  30.376  12.132
57254W        W27854  11.808  44.799  14.024
57255W        W27855  16.212  33.391  13.334
57256W        W27856  16.971   1.185  11.122
57257W        W27857  38.414  18.576   1.379
57258W        W27858  26.414  15.792  13.326
57259W        W27859  30.512  27.069  12.732
57260W        W27860  38.982  34.558  14.800
57261W        W27861  27.998  23.453  11.089
57262W        W27862   9.228   1.179  13.887
57263W        W27863   5.497   2.202  11.124
57264W        W27864  34.925   6.952   1.804
57265W        W27865  11.392  26.717   3.978
57266W        W27866   4.878  42.097   0.835
57267W        W27867  21.677   1.236  14.784
57268W        W27868  38.501   5.341  14.812
57269W        W27869   1.576  40.528  11.582
57270W        W27870  39.416  22.365  14.599
57271W        W27871  29.840  27.417   3.681
57272W        W27872  40.315  23.213  12.459
57273W        W27873   8.154  38.993   3.193
57274W        W27874  41.073  30.508  11.644
57275W        W27875  34.477  20.599  13.812
57276W        W27876   1.392   3.721  12.090
57277W        W27877  20.637  31.912  12.082
57278W        W27878  44.612  43.651   0.818
57279W        W27879  15.138  35.384  13.442
57280W        W27880  21.416   3.167  14.261
57281W        W27881   5.305  12.174  13.552
57282W        W27882  10.684  11.312  14.801
57283W        W27883   7.642  26.129  11.939
57284W        W27884  24.269  20.568  14.531
57285W        W27885  35.499  13.925  13.842
57286W        W27886  41.285  28.606   2.499
57287W        W27887  34.336  16.994  13.939
57288W        W27888  23.713  35.937  13.803
57289W        W27889   6.161  10.750  11.079
57290W        W27890  33.649  28.235   1.505
57291W        W27891   5.128  12.811   3.356
57292W        W27892  34.450  29.854   2.801
57293W        W27893   4.447  26.184  13.526
57294W        W27894  39.970   9.715   1.494
57295W        W27895  17.379  44.238   0.845
57296W        W27896   6.357   9.499  14.623
57297W        W27897  30.296  40.259  13.901
57298W        W27898  30.538  22.572   2.441
57299W        W27899  15.333  30.683   0.343
57300W        W27900  11.442  17.241  12.015
57301W        W27901  19.837  16.073   0.114
57302W        W27902   4.259   5.419   0.654
57303W        W27903  25.822  37.725   3.702
57304W        W27904  15.888  18.912  12.397
57305W        W27905  21.965  11.693   4.558
57306W        W27906  18.807  21.954  13.081
57307W        W27907  39.933  44.293   2.402
57308W        W27908  23.422  10.259  13.273
57309W        W27909  30.417   6.549   0.403
57310W        W27910  22.667  13.921   2.214
57311W        W27911  26.494  40.564  10.849
57312W        W27912  37.913   3.763  13.895
57313W        W27913  22.215  26.579  14.460
57314W        W27914  28.880  38.003  11.514
57315W        W27915  40.562   9.649  14.390
57316W        W27916  35.496  15.837   3.369
57317W        W27917  39.550  22.534   1.750
57318W        W27918  26.076   6.399  14.232
57319W        W27919  21.271  29.026   0.735
57320W        W27920  14.319  37.882   3.975
57321W        W27921  29.266  39.030  11.544
57322W        W27922  35.582  41.873   1.226
57323W        W27923  16.022  31.335  13.519
57324W        W27924  19.079  28.746   1.232
57325W        W27925   1.474  33.850   1.801
57326W        W27926  20.592  31.538   3.126
57327W        W27927   4.931  28.003  11.129
57328W        W27928  28.937  18.869  10.821
57329W        W27929  43.407   4.942  13.788
57330W        W27930  41.150  20.338   5.294
57331W        W27931  21.208  43.188  12.890
57332W        W27932   7.297  35.680  13.079
57333W        W27933   4.675   6.125   4.982
57334W        W27934  14.325  34.030   1.753
57335W        W27935  28.919  43.258  12.592
57336W        W27936   2.842  40.018   1.046
57337W        W27937  16.656  25.575  14.383
57338W        W27938  19.831  37.790   4.135
57339W        W27939  18.183  17.847   1.339
57340W        W27940  26.188  14.834   3.709
57341W        W27941   8.852   4.639   3.994
57342W        W27942  21.279  27.947   2.737
57343W        W27943  35.000  36.879   4.579
57344W        W27944  18.505  15.756   4.317
57345W        W27945  31.674  21.505   3.455
57346W        W27946  10.825   8.472   4.808
57347W        W27947   0.809  17.256  13.707
57348W        W27948  40.791  12.264   1.601
57349W        W27949   5.872  33.403  14.703
57350W        W27950  12.779  25.523   5.086
57351W        W27951   2.325  34.946   3.632
57352W        W27952  30.012  10.868  10.662
57353W        W27953  15.290  32.542   3.161
57354W        W27954  42.669  31.145   4.484
57355W        W27955  25.116  19.505   2.660
57356W        W27956  37.970  35.416   0.441
57357W        W27957  28.898   9.828   1.913
57358W        W27958   6.435  12.806   0.969
57359W        W27959  30.606   2.731   3.930
57360W        W27960  31.146  39.221  12.515
57361W        W27961   1.418  34.304  12.974
57362W        W27962  27.312  14.085   2.036
57363W        W27963  30.109   6.598  14.040
57364W        W27964   7.365  22.284  13.440
57365W        W27965  17.177  22.061  13.534
57366W        W27966  10.713  27.132   0.878
57367W        W27967  34.436  34.053  12.627
57368W        W27968  31.917  30.902  10.391
57369W        W27969  43.477  18.552  13.977
57370W        W27970  15.369  21.305  13.848
57371W        W27971  40.665  13.943  10.311
57372W        W27972   9.145  31.511  12.868
57373W        W27973  27.148  18.047   1.870
57374W        W27974  19.038  22.135  11.545
57375W        W27975  15.674  40.410  13.698
57376W        W27976   0.058  40.329   1.811
57377W        W27977  20.528   8.402  12.293
57378W        W27978   0.745  38.118  11.636
57379W        W27979  19.845   5.850  11.017
57380W        W27980  21.000  40.960  10.922
57381W        W27981   8.917   4.864   3.012
57382W        W27982   0.884  43.490  13.068
57383W        W27983  41.151  18.073   4.864
57384W        W27984  20.112  31.165  14.532
57385W        W27985  12.186  29.496   0.828
57386W        W27986  38.919   9.853  13.893
57387W        W27987  40.794   3.953  14.529
57388W        W27988   9.641  11.658  14.461
57389W        W27989  41.969  41.724   0.352
57390W        W27990   9.176  16.190  14.236
57391W        W27991  25.653  35.467  12.373
57392W        W27992   9.653  21.045   3.671
57393W        W27993  21.527  22.600  13.872
57394W        W27994  18.035  15.702  13.679
57395W        W27995  28.193  11.872   0.914
57396W        W27996  25.620   7.947   3.696
57397W        W27997  15.289  13.606   3.582
57398W        W27998  23.231  16.083   1.535
57399W        W27999  30.110   9.765   3.917
57400W        W28000   0.947  14.902   2.717
57401W        W28001  10.386  25.488   4.644
57402W        W28002   3.296  17.542   3.662
57403W        W28003  21.987  27.161  11.556
57404W        W28004  37.424   9.307  11.622
57405W        W28005  28.713  44.766   2.068
57406W        W28006   9.415  29.008   2.152
57407W        W28007  27.430  17.122   2.418
57408W        W28008  42.849  16.261   1.313
57409W        W28009  21.559  36.063   3.310
57410W        W28010  27.573  38.022  14.418
57411W        W28011   4.501  15.290   3.635
57412W        W28012   2.329  42.456   1.857
57413W        W28013   2.111  14.106  14.792
57414W        W28014  43.719  38.067  12.612
57415W        W28015  25.008  37.998   3.667
57416W        W28016  29.889  29.548   2.345
57417W        W28017  42.251   9.352   3.968
57418W        W28018  15.910   6.514  10.110
57419W        W28019   5.104  26.518  10.429
57420W        W28020   0.741   6.417  14.716
57421W        W28021   9.573  18.749   2.395
57422W        W28022  21.115  29.601   4.762
57423W        W28023   4.928   9.892  12.317
57424W        W28024  36.934   3.644   2.326
57425W        W28025   7.143  30.578  12.008
57426W        W28026   8.130  25.071  14.999
57427W        W28027  37.054  38.838  11.215
57428W        W28028  42.287  42.496   2.225
57429W        W28029  44.722  24.017   1.464
57430W        W28030  41.592  42.830  12.883
57431W        W28031   0.430  37.608  13.431
57432W        W28032  17.120  27.541   3.175
57433W        W28033  30.088   7.289  11.014
57434W        W28034  42.393   4.472  14.763
57435W        W28035  17.229  11.260  14.467
57436W        W28036  24.169   7.146  13.796
57437W        W28037   9.571   1.283  11.778
57438W        W28038  30.788  11.543  10.901
57439W        W28039  27.575  36.644  12.915
57440W        W28040  34.077   0.295   4.228
57441W        W28041  38.312  28.039  10.533
57442W        W28042  25.586   3.761   0.532
57443W        W28043  39.426   8.088  11.044
57444W        W28044  34.185  41.963  14.438
57445W        W28045   2.703  24.359   3.349
57446W        W28046   0.968   1.481   2.812
57447W        W28047  42.052  40.281   2.348
57448W        W28048  24.734  36.357   4.561
57449W        W28049  10.688  29.528   2.423
57450W        W28050  35.511  28.708   0.946
57451W        W28051   9.120   3.890  10.642
57452W        W28052  23.597  28.080   3.601
57453W        W28053  37.057  41.477   3.642
57454W        W28054  30.385  16.653   0.774
57455W        W28055  29.037   4.425   0.473
57456W        W28056   8.328  34.132   1.371
57457W        W28057  29.888  19.332   2.826
57458W        W28058  38.474  33.833  13.057
57459W        W28059  17.803  16.471   5.101
57460W        W28060  23.216  42.984   1.354
57461W        W28061  42.512  39.815  11.729
57462W        W28062  10.672  42.600   2.493
57463W        W28063   8.323  31.301   1.419
57464W        W28064   2.838  22.854  11.203
57465W        W28065  14.534  38.882  13.606
57466W        W28066  14.225  37.856   1.620
57467W        W28067  25.848   4.256  13.870
57468W        W28068   6.837  11.041  14.100
57469W        W28069  33.347  14.891  12.929
57470W        W28070  42.360  37.354  11.554
57471W        W28071  36.517  20.172  14.365
57472W        W28072   6.924  26.277   0.243
57473W        W28073  27.011   0.933  13.371
57474W        W28074  33.815  28.937   3.709
57475W        W28075  40.238  28.474   3.328
57476W        W28076  16.668  32.591  10.242
57477W        W28077  15.324  38.371   4.662
57478W        W28078   5.531  38.001   0.902
57479W        W28079  17.551   4.803   3.767
57480W        W28080   3.195  23.614   3.339
57481W        W28081  12.625  39.551  12.389
57482W        W28082  34.364  41.778  14.889
57483W        W28083  38.450  32.080   5.046
57484W        W28084  42.160  15.573   3.808
57485W        W28085  17.583   2.449  13.444
57486W        W28086  16.958  21.604  11.136
57487W        W28087  28.164   6.355   4.161
57488W        W28088  25.003   2.308  11.126
57489W        W28089   9.418  14.293   2.316
57490W        W28090  33.015  31.035   0.718
57491W        W28091  35.643  25.269  13.552
57492W        W28092  21.080  20.198   4.607
57493W        W28093  36.743  33.649  12.032
57494W        W28094  21.870  30.027   1.333
57495W        W28095  40.221  26.555  12.915
57496W        W28096  18.953   3.202   4.195
57497W        W28097  41.803  43.309   0.445
57498W        W28098  25.107   5.282   1.154
57499W        W28099  30.653   0.624  12.190
57500W        W28100  31.839  41.782  14.902
57501W        W28101  41.408  12.348   1.530
57502W        W28102   3.883  40.911   1.872
57503W        W28103  38.008  27.203   2.479
57504W        W28104  43.556  20.067   1.863
57505W        W28105  40.376  25.676  13.090
57506W        W28106  34.843  23.478   2.773
57507W        W28107   3.061  17.053  11.424
57508W        W28108   4.968   0.329   3.415
57509W        W28109  37.927  15.288   2.279
57510W        W28110  22.846  29.431  11.028
57511W        W28111  19.126   3.477   1.702
57512W        W28112  38.919  30.639  12.404
57513W        W28113  41.082  32.560   1.181
57514W        W28114  26.488  40.258   3.730
57515W        W28115  20.477   4.844  12.679
57516W        W28116   7.681   4.281   4.470
57517W        W28117  20.146   6.247   0.863
57518W        W28118  39.758  17.854  10.591
57519W        W28119  44.057  40.299  14.363
57520W        W28120  12.983  29.595   4.087
57521W        W28121   2.985  17.416  11.784
57522W        W28122  40.801  17.666   5.081
57523W        W28123  14.588  25.029   2.672
57524W        W28124  38.512  39.314   3.694
57525W        W28125  34.642  37.902  10.643
57526W        W28126  18.046  18.492  11.031
57527W        W28127  13.779  34.999   4.606
57528W        W28128  23.521  43.971  11.706
57529W        W28129  30.095  38.029  12.004
57530W        W28130  11.365  37.347  12.105
57531W        W28131  27.270  12.490  14.477
57532W        W28132  16.715  12.848  13.065
57533W        W28133  36.287  18.527  13.894
57534W        W28134  42.319  28.647   0.451
57535W        W28135  36.777   7.189   4.598
57536W        W28136  36.367  24.117  11.162
57537W        W28137  13.406  13.173   3.951
57538W        W28138  28.496  31.699   1.363
57539W        W28139  43.409  22.891   0.809
57540W        W28140  11.825   6.589   3.835
57541W        W28141  15.813  32.699   1.925
57542W        W28142  24.730  21.677  13.866
57543W        W28143  37.411  23.941   4.629
57544W        W28144   6.939   7.239   2.402
57545W        W28145  23.972  30.836   4.834
57546W        W28146  12.386   3.499   2.167
57547W        W28147  18.716  21.048  12.826
57548W        W28148  16.832  11.263  11.678
57549W        W28149  42.950  32.360  13.875
57550W        W28150  33.726  36.428  13.523
57551W        W28151  37.005  16.289   4.445
57552W        W28152  28.111   1.092   4.103
57553W        W28153  20.710  26.854  10.058
57554W        W28154   2.498  21.535  10.742
57555W        W28155  12.696  37.379  13.348
57556W        W28156  22.595   6.410   3.490
57557W        W28157  25.101  42.625  12.415
57558W        W28158  34.945  31.606  10.751
57559W        W28159   9.151  26.632   1.643
57560W        W28160   4.664  27.230  13.308
57561W        W28161   9.876  10.307   1.913
57562W        W28162   7.451  34.070   3.486
57563W        W28163  13.548  25.462  13.960
57564W        W28164   0.882   7.287   2.934
57565W        W28165   8.790   4.156  13.453
57566W        W28166  20.609  15.743   3.979
57567W        W28167  28.053  13.583   4.495
57568W        W28168  44.336  18.951  13.831
57569W        W28169   7.851  23.677  13.802
57570W        W28170  25.041   2.310  13.426
57571W        W28171  18.128  15.340   3.312
57572W        W28172  30.993  11.225  12.889
57573W        W28173  10.874  17.589   3.200
57574W        W28174  34.069  19.754   0.981
57575W        W28175  27.549  19.796   0.733
57576W        W28176  40.593   9.217  13.142
57577W        W28177   8.832   1.398   3.397
57578W        W28178  32.559  11.907  14.916
57579W        W28179   6.663  44.408   2.395
57580W        W28180  25.574  25.948   1.258
57581W        W28181  27.062   7.101  12.044
57582W        W28182  39.449   0.528   4.541
57583W        W28183  36.058  13.972  11.553
57584W        W28184  35.590  34.859   0.000
57585W        W28185   7.127  27.004  11.144
57586W        W28186  15.479  10.775  14.772
57587W        W28187  41.020  37.077   2.401
57588W        W28188  44.425  18.243   0.769
57589W        W28189  44.566   1.119   2.809
57590W        W28190  35.595   6.471  12.424
57591W        W28191  17.342  34.784   2.717
57592W        W28192  25.230  15.363   2.840
57593W        W28193   5.875  19.203   1.638
57594W        W28194   4.324   3.312  10.619
57595W        W28195  23.223  27.012   1.184
57596W        W28196  28.360  18.182   3.765
57597W        W28197   7.907  26.796  11.487
57598W        W28198  38.805  28.260   1.260
57599W        W28199   3.224  28.523   4.873
57600W        W28200   8.613  21.140   3.728
57601W        W28201  24.954  20.182   2.287
57602W        W28202  33.406  42.664   2.343
57603W        W28203  12.848  36.273  11.764
57604W        W28204   2.189  14.437  11.945
57605W        W28205  20.489  13.996   3.150
57606W        W28206  38.497  40.635   4.309
57607W        W28207  30.978  38.370   0.943
57608W        W28208  38.083  21.657   2.265
57609W        W28209  41.654  23.383   9.993
57610W        W28210  10.789  13.276  11.921
57611W        W28211  39.751  29.124  14.611
57612W        W28212  35.354   9.993  11.618
57613W        W28213  15.648  20.253  14.436
57614W        W28214   0.716  32.021   0.962
57615W        W28215  19.626  14.660   4.120
57616W        W28216   5.361  14.227  12.036
57617W        W28217  29.668  31.701  13.021
57618W        W28218   6.662  19.696   5.261
57619W        W28219  17.582  34.923   0.341
57620W        W28220  38.355  44.903  13.428
57621W        W28221  25.105   7.645   2.204
57622W        W28222   2.539  44.511  14.666
57623W        W28223  10.126  41.736   3.288
57624W        W28224  35.965  29.973  12.910
57625W        W28225   7.000   5.947  12.956
57626W        W28226   7.150  28.662   0.250
57627W        W28227   6.143   9.883   4.092
57628W        W28228  28.646  31.078   0.307
57629W        W28229  25.992  11.852   3.216
57630W        W28230  44.109  14.235  13.939
57631W        W28231  40.943  39.304   4.504
57632W        W28232  36.277   5.640  14.882
57633W        W28233  44.867  34.120  12.425
57634W        W28234  10.284   6.897   1.895
57635W        W28235  42.900  41.819  13.844
57636W        W28236  43.722   6.043   3.327
57637W        W28237   3.361  36.040   2.365
57638W        W28238   3.265  36.402  13.364
57639W        W28239  19.083  14.706  12.529
57640W        W28240  44.319  44.516   4.212
57641W        W28241  26.087  23.488  14.024
57642W        W28242  31.923  29.915  10.669
57643W        W28243  18.310  26.731   2.703
57644W        W28244   4.359  36.525   0.898
57645W        W28245  13.342  39.062  14.369
57646W        W28246  42.552  37.113  10.538
57647W        W28247   4.572  10.119  14.461
57648W        W28248   2.847  36.084  14.161
57649W        W28249  35.823   3.811  13.964
57650W        W28250  28.743  39.524  12.602
57651W        W28251   2.246  44.126   4.122
57652W        W28252   9.744   4.412  11.515
57653W        W28253  28.414  40.852  10.369
57654W        W28254  29.473  36.884   1.001
57655W        W28255  32.061  22.146  10.625
57656W        W28256  15.616  14.010  12.473
57657W        W28257  25.816   1.279   1.921
57658W        W28258  11.991  25.996  11.876
57659W        W28259  31.100   4.900   3.743
57660W        W28260  35.451  25.891   0.227
57661W        W28261   2.839   5.674  13.965
57662W        W28262  35.544  21.081   1.768
57663W        W28263  40.255  15.493  14.734
57664W        W28264  14.306  41.725  12.919
57665W        W28265  14.325  33.199   2.768
57666W        W28266  14.089  31.076  12.877
57667W        W28267  11.358  23.690  14.700
57668W        W28268  42.343   8.707   0.698
57669W        W28269   8.210  42.450   2.280
57670W        W28270   7.740   9.273   1.998
57671W        W28271  27.519  25.093   1.228
57672W        W28272  24.768   7.338  12.814
57673W        W28273  28.672  40.538   0.980
57674W        W28274  11.146  12.296   3.270
57675W        W28275   0.954  13.377  14.615
57676W        W28276   9.815  20.198   3.269
57677W        W28277  32.560  26.666  10.579
57678W        W28278   7.436  23.285  13.631
57679W        W28279   0.298   8.332  13.945
57680W        W28280  44.286  16.761   0.180
57681W        W28281  43.312   2.368  11.352
57682W        W28282   3.045  24.008   2.780
57683W        W28283  23.161  43.620  10.961
57684W        W28284  27.644  12.858  14.424
57685W        W28285  39.044  31.511   1.302
57686W        W28286  37.402  40.902   2.920
57687W        W28287  44.689   6.202   1.323
57688W        W28288  39.296  25.076  11.245
57689W        W28289  12.394  30.546   0.222
57690W        W28290   1.702  35.955  13.137
57691W        W28291  17.453  18.506   4.814
57692W        W28292  44.540   2.397  11.954
57693W        W28293  20.908  32.389   2.080
57694W        W28294  26.647   9.586  13.841
57695W        W28295   7.702  10.210  12.132
57696W        W28296  12.897   0.961  10.630
57697W        W28297  26.997  13.035   0.967
57698W        W28298   5.304  39.309  11.521
57699W        W28299  20.281  25.375  11.121
57700W        W28300  20.985  35.793  14.088
57701W        W28301  28.251  33.920  11.904
57702W        W28302  29.958  33.355   1.689
57703W        W28303  30.779   1.746   3.341
57704W        W28304   5.110  30.407  11.614
57705W        W28305  34.455  14.173   4.643
57706W        W28306   9.701  24.053  12.761
57707W        W28307   1.296   0.901  13.751
57708W        W28308   0.956  44.946   4.214
57709W        W28309  29.168  14.119  12.231
57710W        W28310   0.055  28.083   2.189
57711W        W28311   3.293  36.296   1.143
57712W        W28312   2.409   9.718   2.097
57713W        W28313  26.544  30.878   0.999
57714W        W28314  30.073   3.373   3.843
57715W        W28315   3.197   9.314  13.636
57716W        W28316   5.489  17.408   4.556
57717W        W28317  38.644   4.412  14.707
57718W        W28318   0.592  44.161  13.474
57719W        W28319  13.118  40.388   0.772
57720W        W28320   3.402  15.820  11.557
57721W        W28321   8.871  39.514  14.988
57722W        W28322  11.782  18.014  13.010
57723W        W28323  34.087  13.112   0.146
57724W        W28324  17.090  30.179  10.362
57725W        W28325  17.344  42.026  13.074
57726W        W28326  18.630   7.808  12.043
57727W        W28327   3.906  32.517   0.314
57728W        W28328  28.989  21.248   4.899
57729W        W28329   9.269   8.270   3.978
57730W        W28330  28.944  10.769   2.698
57731W        W28331  44.785  31.539   0.833
57732W        W28332  20.960  11.846  11.728
57733W        W28333  27.520   4.244  14.279
57734W        W28334   3.015  33.369   3.146
57735W        W28335  17.270   1.816   1.049
57736W        W28336  24.648  24.564   3.574
57737W        W28337  33.342  23.589  14.999
57738W        W28338  15.023  39.178   2.239
57739W        W28339   5.707  30.068   0.785
57740W        W28340  30.529  40.965  14.843
57741W        W28341  23.429  23.233  12.972
57742W        W28342  15.443  31.540  10.253
57743W        W28343   1.869  21.183   5.001
57744W        W28344  12.879  38.040   2.119
57745W        W28345  27.931  10.307   1.895
57746W        W28346  18.754   3.935  14.425
57747W        W28347  22.486  36.893  12.414
57748W        W28348   0.831  41.018   1.263
57749W        W28349  10.045  16.682   2.671
57750W        W28350  14.846  14.104  12.890
57751W        W28351  12.684  12.730  13.535
57752W        W28352  14.445  35.821   2.345
57753W        W28353  44.738  25.319   3.279
57754W        W28354   6.411  43.095  11.649
57755W        W28355  17.372  39.143   5.118
57756W        W28356  14.187   9.442  10.794
57757W        W28357  25.077  32.851   0.405
57758W        W28358  12.208  14.727  12.046
57759W        W28359   4.349  32.127  10.731
57760W        W28360  34.147  31.003   3.742
57761W        W28361  37.387  21.104  14.383
57762W        W28362   1.724  23.146  13.123
57763W        W28363  36.078  39.365   0.145
57764W        W28364  26.799  25.631   5.067
57765W        W28365  33.520  29.644   3.289
57766W        W28366  44.783  13.862   4.271
57767W        W28367   6.770  35.325  11.138
57768W        W28368   2.211  12.144  11.606
57769W        W28369  16.719  32.629  14.987
57770W        W28370  29.599  36.124   4.104
57771W        W28371  22.694  25.040  10.512
57772W        W28372  38.329   5.832  14.743
57773W        W28373  32.018  26.672  10.503
57774W        W28374  35.290  24.183   1.460
57775W        W28375   8.821  37.323  12.632
57776W        W28376  11.132  44.411  11.153
57777W        W28377  21.572  44.562   3.190
57778W        W28378  37.208  34.458   0.522
57779W        W28379  12.996  13.685  10.130
57780W        W28380  11.204   8.351   0.717
57781W        W28381   8.228   7.572   3.900
57782W        W28382   8.571  33.405  14.302
57783W        W28383  14.649   2.772  12.654
57784W        W28384  17.710  21.989  13.419
57785W        W28385   8.068  23.836   3.301
57786W        W28386  37.897  30.541  10.375
57787W        W28387  21.632  37.093   4.506
57788W        W28388  17.153   5.791   4.537
57789W        W28389   8.771  13.727   0.913
57790W        W28390  17.753  42.923  12.107
57791W        W28391  11.104  17.073   3.133
57792W        W28392  43.147  38.480   1.556
57793W        W28393  43.500  39.716   1.254
57794W        W28394  29.912  30.073  14.953
57795W        W28395  14.300  30.879  10.516
57796W        W28396  22.499  43.155  10.552
57797W        W28397  29.502  17.843   0.423
57798W        W28398  41.207  12.028   2.447
57799W        W28399  44.296   8.165  11.600
57800W        W28400  25.853  44.994  13.482
57801W        W28401  11.830  44.963  14.964
57802W        W28402  29.164   8.520  13.656
57803W        W28403  14.013  38.272   4.187
57804W        W28404  32.582  35.514  12.493
57805W        W28405  39.857  36.543  14.559
57806W        W28406  24.460  28.255   3.801
57807W        W28407  41.244  33.048   0.482
57808W        W28408   4.288  28.089  11.939
57809W        W28409  23.458  21.686  13.152
57810W        W28410  34.340  11.196  13.955
57811W        W28411  31.175  14.360  10.254
57812W        W28412  43.703  39.376   3.913
57813W        W28413  16.187  23.425   1.752
57814W        W28414  25.100  35.671   0.217
57815W        W28415  24.995  30.591   0.839
57816W        W28416  37.429  10.878   2.268
57817W        W28417   7.920  32.079   5.307
57818W        W28418  25.576  18.729   2.796
57819W        W28419  19.632  12.075   2.492
57820W        W28420  18.220  10.860   0.801
57821W        W28421   9.742  32.865  14.566
57822W        W28422  31.863  22.216   4.059
57823W        W28423   4.656   2.353  13.428
57824W        W28424  25.289   0.999   0.389
57825W        W28425   4.118  34.540  13.032
57826W        W28426  17.061  26.252   0.448
57827W        W28427  26.566  28.846  10.931
57828W        W28428  43.065   0.820  13.244
57829W        W28429  34.457  31.845  14.886
57830W        W28430  15.168  10.153  12.527
57831W        W28431  24.430  43.495   2.005
57832W        W28432  24.540  20.792   2.742
57833W        W28433  27.125  37.765   3.755
57834W        W28434  30.066  30.080  12.556
57835W        W28435  44.411   0.027   2.749
57836W        W28436  11.640  12.236  12.058
57837W        W28437  29.092  38.102   0.412
57838W        W28438  10.232  35.910  10.680
57839W        W28439  20.118  30.758  12.853
57840W        W28440   8.274  32.335   3.368
57841W        W28441   8.239  26.119  10.740
57842W        W28442  27.783  29.083   4.353
57843W        W28443  22.009  37.465  11.675
57844W        W28444   7.719  12.621   3.650
57845W        W28445  22.246  27.934  12.060
57846W        W28446  35.635  20.743  14.864
57847W        W28447  15.406   0.443   2.238
57848W        W28448   6.489  11.206  14.821
57849W        W28449   5.780  27.511   4.285
57850W        W28450  12.120   8.909   1.443
57851W        W28451  29.458  32.517   1.496
57852W        W28452  31.231  21.588  14.490
57853W        W28453  29.768  27.426  11.228
57854W        W28454  17.996  20.848   1.740
57855W        W28455  12.342  30.663  12.552
57856W        W28456  39.978  37.287   3.142
57857W        W28457  34.907  28.973  10.339
57858W        W28458   0.032  31.944   2.744
57859W        W28459  38.458  16.209   1.951
57860W        W28460  43.815  16.657   3.593
57861W        W28461  32.044  36.482   3.587
57862W        W28462   9.185  22.095  13.818
57863W        W28463   7.825  10.599  13.894
57864W        W28464   9.400  12.636   1.785
57865W        W28465  17.080  21.191  11.443
57866W        W28466  24.779  25.172   0.465
57867W        W28467  10.674  18.754  13.996
57868W        W28468  26.129  10.745   0.447
57869W        W28469   8.231  10.392   1.011
57870W        W28470  25.497  40.813  11.549
57871W        W28471  35.066  33.629   4.550
57872W        W28472  34.442  16.831   3.824
57873W        W28473  27.632  40.944   1.314
57874W        W28474  12.676  13.631  11.565
57875W        W28475  16.859   1.334  13.580
57876W        W28476  14.774  31.920   3.790
57877W        W28477   8.403  30.789  12.425
57878W        W28478  41.523  13.104  11.722
57879W        W28479  30.048  39.793   2.829
57880W        W28480   4.182  40.498   0.302
57881W        W28481  31.618  27.596  10.941
57882W        W28482   4.019  13.883   0.995
57883W        W28483  10.177  39.904  10.490
57884W        W28484  18.053   4.425  14.477
57885W        W28485  19.765  35.485  10.682
57886W        W28486  10.349   5.261  11.390
57887W        W28487  15.724  13.818  13.312
57888W        W28488   8.714  19.032   3.688
57889W        W28489  31.478   6.332  13.883
57890W        W28490   7.273   9.319  11.860
57891W        W28491   5.089   5.835  14.901
57892W        W28492  14.655  17.600  12.510
57893W        W28493   1.151  41.616  13.919
57894W        W28494   2.707  27.764   3.809
57895W        W28495  40.378  20.111   2.463
57896W        W28496  21.249   4.189   1.353
57897W        W28497  12.747   2.473  11.144
57898W        W28498   3.261  12.027  10.767
57899W        W28499  28.202  26.271  12.605
57900W        W28500  32.279  20.845   2.803
57901W        W28501  13.351  18.370   1.806
57902W        W28502  32.037  11.197   1.768
57903W        W28503  42.276  26.096   4.255
57904W        W28504  42.337   7.342  14.680
57905W        W28505  13.782  33.615  10.229
57906W        W28506   1.256  13.672   0.770
57907W        W28507  26.032  12.080  14.923
57908W        W28508  34.014  35.184   0.394
57909W        W28509  34.860  15.205  13.604
57910W        W28510  11.311  32.853   1.181
57911W        W28511  17.503   1.016  13.552
57912W        W28512  36.801  34.108   1.242
57913W        W28513  18.073  40.371  10.585
57914W        W28514  23.533  35.975  12.908
57915W        W28515  42.820  21.024  12.322
57916W        W28516  36.356  23.488  11.897
57917W        W28517  38.527   8.706   3.692
57918W        W28518  17.213  43.960   2.299
57919W        W28519  10.724  22.363   4.093
57920W        W28520  41.367  23.659   2.507
57921W        W28521   3.274  42.276   1.425
57922W        W28522  21.614  40.789  13.374
57923W        W28523  43.388  43.914  10.865
57924W        W28524  26.725  27.930   3.264
57925W        W28525  43.556  25.485  13.513
57926W        W28526  44.968   6.096  14.296
57927W        W28527  39.048  36.058  12.001
57928W        W28528  23.916  41.917  12.577
57929W        W28529   8.961  15.682  12.947
57930W        W28530  31.371   8.824  12.842
57931W        W28531   5.786   6.326  12.157
57932W        W28532  43.885   3.914   0.350
57933W        W28533  24.971  36.502  13.901
57934W        W28534   2.840  18.536  11.234
57935W        W28535   0.292   6.356   3.699
57936W        W28536   0.395   1.207  13.529
57937W        W28537  35.936  36.443  10.906
57938W        W28538   6.331  33.676  10.389
57939W        W28539   0.478   2.696  11.154
57940W        W28540  24.566   3.942   0.463
57941W        W28541  14.272  42.384   1.190
57942W        W28542  34.910  14.329  13.560
57943W        W28543  14.915   4.745   2.375
57944W        W28544  33.782  41.031   4.553
57945W        W28545  19.206   6.760   0.850
57946W        W28546  19.170  27.899  11.570
57947W        W28547  28.993  11.160  13.671
57948W        W28548  39.839  43.971   4.261
57949W        W28549  11.151  21.232   2.641
57950W        W28550  42.823  41.512  11.149
57951W        W28551  17.689  11.978   1.435
57952W        W28552  19.267  11.519   0.010
57953W        W28553  34.604  27.758  12.986
57954W        W28554  27.139  23.646   3.103
57955W        W28555  44.436  35.043   1.204
57956W        W28556   1.805  10.009   4.669
57957W        W28557   0.729  43.359   1.424
57958W        W28558  12.654  15.261  12.464
57959W        W28559  24.175  24.393  12.911
57960W        W28560  16.733  40.925   2.560
57961W        W28561  24.052  19.260   1.274
57962W        W28562  42.882  19.647  11.891
57963W        W28563  28.206  24.652  14.805
57964W        W28564  22.097  41.531   4.331
57965W        W28565  40.009  14.846   0.309
57966W        W28566  25.677  37.483  11.179
57967W        W28567  29.589  29.006   0.416
57968W        W28568  10.516   1.423   1.687
57969W        W28569  11.334   2.267   3.789
57970W        W28570  13.145  10.266   0.931
57971W        W28571  34.023  23.463   4.176
57972W        W28572  26.564  13.757  14.337
57973W        W28573  37.115   8.233  13.090
57974W        W28574  27.813  28.028   4.683
57975W        W28575   9.961  10.212  12.197
57976W        W28576  27.477  18.777   0.724
57977W        W28577  31.934   0.796   2.659
57978W        W28578  21.117  23.829  12.852
57979W        W28579  11.206  39.189  10.267
57980W        W28580  22.387  43.689   4.535
57981W        W28581  17.786   2.707   2.235
57982W        W28582  35.513  34.012  12.071
57983W        W28583  31.161   5.204  13.320
57984W        W28584  17.351   6.772   0.247
57985W        W28585  15.585  40.958   0.375
57986W        W28586  32.859  27.070   4.945
57987W        W28587  29.085  39.792   3.280
57988W        W28588  34.150  35.586   4.903
57989W        W28589  21.466  34.493  11.325
57990W        W28590  18.035   6.259   1.416
57991W        W28591  26.036  41.530   1.713
57992W        W28592   2.645  26.132   3.716
57993W        W28593  10.404   3.195   3.146
57994W        W28594  29.898  38.228  11.538
57995W        W28595  31.386  22.550   3.993
57996W        W28596  11.813  19.687   4.113
57997W        W28597  41.481  28.494  14.755
57998W        W28598  27.932   3.361   3.132
57999W        W28599  29.297  19.960   0.285
58000W        W28600  12.215  33.493   3.594
58001W        W28601  25.184  33.555  14.369
58002W        W28602  34.049  44.839  12.542
58003W        W28603   3.407   7.140  10.973
58004W        W28604  42.449  42.581   3.195
58005W        W28605  33.329  42.343   2.748
58006W        W28606   0.379  37.102  13.534
58007W        W28607  33.185  39.990   3.646
58008W        W28608  13.763   3.963  11.096
58009W        W28609  30.548   3.184   3.691
58010W        W28610  14.624  30.172   3.207
58011W        W28611  11.757  41.863   3.785
58012W        W28612   9.752  20.581   0.674
58013W        W28613  23.429   1.130   4.941
58014W        W28614  40.242  13.878  10.647
58015W        W28615  30.964  17.335   4.751
58016W        W28616  19.631  15.830  12.097
58017W        W28617  16.799  24.355   0.479
58018W        W28618  29.517   8.557   1.776
58019W        W28619  41.851  32.392   4.812
58020W        W28620  30.202  37.226  11.368
58021W        W28621  31.496   6.977   0.667
58022W        W28622  32.485  30.003  14.836
58023W        W28623  18.055  11.865   3.552
58024W        W28624  30.065  30.059   3.880
58025W        W28625  30.382  44.719   3.328
58026W        W28626  28.555   7.494  11.364
58027W        W28627   4.508  20.364  14.874
58028W        W28628  15.967   7.264  14.673
58029W        W28629   7.514  13.747   4.627
58030W        W28630   2.361  24.894   4.596
58031W        W28631  29.029  14.640   0.456
58032W        W28632  19.471   6.690   3.769
58033W        W28633  10.891  41.800   4.131
58034W        W28634  17.048   6.672   3.650
58035W        W28635   9.225  41.007  12.028
58036W        W28636  19.044  37.356  11.163
58037W        W28637   5.238   7.943  13.824
58038W        W28638   0.235  32.075  11.621
58039W        W28639  39.013  10.377   2.295
58040W        W28640  19.801  39.044   4.641
58041W        W28641  26.554  38.760   4.638
58042W        W28642  38.852  13.599   1.667
58043W        W28643  19.503  31.212  13.623
58044W        W28644  28.452  42.989  12.824
58045W        W28645   7.629  25.593  12.039
58046W        W28646  33.978  42.943   3.182
58047W        W28647  39.481  32.560  14.449
58048W        W28648   4.442  14.875  10.582
58049W        W28649   6.648  15.287   1.668
58050W        W28650   8.362  36.452   0.653
58051W        W28651  21.060  17.229   5.081
58052W        W28652  24.129  18.055   0.666
58053W        W28653  20.777  29.010  13.853
58054W        W28654  34.640   7.291   3.280
58055W        W28655  22.600  25.183  11.008
58056W        W28656  41.533   3.217   0.154
58057W        W28657  35.565  34.537  12.131
58058W        W28658  42.362  19.884  14.890
58059W        W28659   0.189  34.877   0.011
58060W        W28660   3.441  40.290  10.758
58061W        W28661  18.563  24.772   2.874
58062W        W28662   9.459  31.137  14.239
58063W        W28663   3.537  27.100   1.219
58064W        W28664   2.716  39.287   4.270
58065W        W28665  12.022  27.107   2.878
58066W        W28666  28.599  21.282   1.768
58067W        W28667  29.042  31.762   1.671
58068W        W28668  29.910  36.303  14.789
58069W        W28669  40.899  17.088  13.998
58070W        W28670  39.769   0.228   0.843
58071W        W28671  25.352  33.597   1.534
58072W        W28672  27.571  14.886  13.023
58073W        W28673  36.731  14.129   4.715
58074W        W28674  38.267  26.443  12.482
58075W        W28675  30.396  42.468  10.292
58076W        W28676  44.649  37.077  12.787
58077W        W28677   3.507  13.255  11.569
58078W        W28678   3.482  40.424  11.280
58079W        W28679  18.309  33.297  14.226
58080W        W28680   6.399  21.332   0.839
58081W        W28681  20.930   3.147  11.128
58082W        W28682  44.724  33.642  12.550
58083W        W28683   2.527  37.602   2.740
58084W        W28684  14.409   9.211   1.648
58085W        W28685  30.610  42.050   4.662
58086W        W28686  38.636  16.101   0.386
58087W        W28687  40.536  32.855   1.796
58088W        W28688  13.154  16.648   4.634
58089W        W28689  19.996   4.882   1.726
58090W        W28690  37.404  36.346   0.794
58091W        W28691  13.597   7.659  13.524
58092W        W28692  33.497   2.883  11.454
58093W        W28693   2.520  25.428   2.881
58094W        W28694  17.458  16.926   1.039
58095W        W28695   2.742   6.660  13.146
58096W        W28696  42.490  42.408  12.696
58097W        W28697  22.399  32.977  13.517
58098W        W28698  28.773  19.965  13.533
58099W        W28699  19.243   8.064   2.417
58100W        W28700  10.743  18.590  13.157
58101W        W28701  19.138  12.337  13.960
58102W        W28702  41.000  19.412   1.213
58103W        W28703  35.032  26.045   2.270
58104W        W28704  10.837  37.510  12.958
58105W        W28705  11.744  32.979  13.481
58106W        W28706  30.876  22.789  14.881
58107W        W28707  23.218  22.639  13.423
58108W        W28708  29.956   4.024   2.461
58109W        W28709  15.950  21.685  11.215
58110W        W28710  22.173   9.762   3.297
58111W        W28711  44.822  17.508   2.322
58112W        W28712  38.978   8.416   1.894
58113W        W28713  10.267   1.957   2.488
58114W        W28714  21.680  23.127  13.708
58115W        W28715  22.636   3.417   1.199
58116W        W28716  14.356   5.867   1.354
58117W        W28717  13.844  11.814  14.313
58118W        W28718  30.741  29.303  11.153
58119W        W28719  12.833  27.488   2.799
58120W        W28720  27.137  34.092   0.795
58121W        W28721  29.028  13.272   0.515
58122W        W28722  34.341  30.215  13.801
58123W        W28723  14.581  42.887  12.446
58124W        W28724  31.441  35.188  14.857
58125W        W28725  18.748  28.111   3.549
58126W        W28726  24.782   5.401  14.428
58127W        W28727  13.146  22.375  14.392
58128W        W28728  35.604  11.127   0.435
58129W        W28729   0.574  44.466   5.012
58130W        W28730  20.742  38.465   0.461
58131W        W28731  21.081  25.001  10.665
58132W        W28732  11.488   3.339  14.548
58133W        W28733   0.828   7.396   0.136
58134W        W28734  21.061  39.211   1.436
58135W        W28735  24.591  22.178  13.897
58136W        W28736   7.279  33.330  12.610
58137W        W28737  36.138  17.278  14.432
58138W        W28738  18.170  29.193  12.608
58139W        W28739  30.717   3.387  12.040
58140W        W28740  32.920  18.090   2.884
58141W        W28741  34.364  43.336  14.386
58142W        W28742  14.853  12.277   9.733
58143W        W28743  25.163  15.812   1.384
58144W        W28744  16.716   9.195  11.163
58145W        W28745   5.247  30.456  13.492
58146W        W28746  43.277   8.197   4.138
58147W        W28747  20.240  34.887   0.806
58148W        W28748  42.292  28.087  13.178
58149W        W28749  16.495  34.476  11.081
58150W        W28750   1.014  30.616   0.263
58151W        W28751   8.922  41.153   4.867
58152W        W28752  13.362   4.410   1.840
58153W        W28753  16.151  32.116  12.976
58154W        W28754  18.933  17.595   3.347
58155W        W28755  15.663  15.634  10.729
58156W        W28756  25.697  33.074  12.336
58157W        W28757  20.017   7.293   1.806
58158W        W28758   2.467  42.497   0.329
58159W        W28759  26.155   7.357  12.841
58160W        W28760  39.107  40.080   4.177
58161W        W28761  42.042  23.182  12.895
58162W        W28762  14.627  35.884   0.061
58163W        W28763  43.577   7.323   2.454
58164W        W28764  38.031  16.240   2.281
58165W        W28765  41.025  35.310  13.461
58166W        W28766   6.931  20.316   4.274
58167W        W28767   0.782  40.890  13.316
58168W        W28768   4.999  37.151   0.424
58169W        W28769  30.921  37.968   3.699
58170W        W28770   7.772   7.129  13.026
58171W        W28771  28.124  36.362   4.206
58172W        W28772  11.373  22.660  13.622
58173W        W28773   4.245  24.927   0.278
58174W        W28774   9.851   6.773  11.087
58175W        W28775   1.444  27.945  12.023
58176W        W28776   7.955   3.212  11.818
58177W        W28777  24.439  12.286   4.134
58178W        W28778  33.021   7.722  13.420
58179W        W28779  19.514  12.233  14.329
58180W        W28780  38.722  24.684  10.881
58181W        W28781  36.367  14.541  13.771
58182W        W28782  10.872  15.856   1.815
58183W        W28783  13.560  37.274   5.150
58184W        W28784   6.201  11.071   1.189
58185W        W28785   0.355  31.589   1.425
58186W        W28786  27.793   5.876   3.785
58187W        W28787  14.869  23.974  11.748
58188W        W28788  26.870  20.297  14.367
58189W        W28789  20.208  29.345   0.332
58190W        W28790  30.355   3.725   2.358
58191W        W28791  41.985  23.716  12.985
58192W        W28792   7.917  31.564  12.451
58193W        W28793  16.842   1.288  13.018
58194W        W28794  31.179   4.263  10.693
58195W        W28795   6.387   9.908  13.295
58196W        W28796  27.869   2.655   3.266
58197W        W28797  33.347   3.257   4.848
58198W        W28798  11.169  28.183   2.871
58199W        W28799  40.921   1.847   0.521
58200W        W28800  39.647  31.736  10.349
58201W        W28801   2.011  24.269  10.868
58202W        W28802  15.653   6.019  10.760
58203W        W28803  28.543  23.009  12.615
58204W        W28804  36.936  37.647  14.426
58205W        W28805  33.434  12.032  11.147
58206W        W28806   3.759  21.710   4.550
58207W        W28807  14.102  10.809   3.288
58208W        W28808   3.905   8.467   1.296
58209W        W28809  10.808  23.008   3.294
58210W        W28810  28.991  31.951  14.367
58211W        W28811  41.964  29.573   1.714
58212W        W28812   4.968  29.385  13.998
58213W        W28813  11.094  40.576   3.681
58214W        W28814  26.578  15.603  11.187
58215W        W28815  34.864  10.870  11.891
58216W        W28816   0.530   8.745  10.686
58217W        W28817  26.083  24.966   1.859
58218W        W28818  11.327  37.650   1.739
58219W        W28819   3.794   1.847  13.629
58220W        W28820   2.717  13.285   2.160
58221W        W28821  33.536  11.745  11.705
58222W        W28822   5.161  21.685   0.462
58223W        W28823  36.869  29.393   3.688
58224W        W28824  18.527  36.835   4.546
58225W        W28825  18.868  29.137  10.943
58226W        W28826  42.966  38.274   1.121
58227W        W28827  20.620   1.526  12.426
58228W        W28828   1.249  39.148  13.082
58229W        W28829  34.677  44.222  12.446
58230W        W28830  21.722  25.367  14.396
58231W        W28831  20.103  19.163  13.957
58232W        W28832  41.515   7.295  10.718
58233W        W28833  26.615  12.047   2.116
58234W        W28834   9.825   9.825  14.112
58235W        W28835  12.845  35.146  12.604
58236W        W28836  23.272  11.617  11.238
58237W        W28837  20.531  18.063   3.715
58238W        W28838  37.730  30.872  13.731
58239W        W28839  41.175   4.803   2.338
58240W        W28840  15.845  27.579  10.309
58241W        W28841  25.823  35.047  14.857
58242W        W28842  30.029  25.517  13.336
58243W        W28843  22.155   1.703   3.751
58244W        W28844   9.779  36.416  12.594
58245W        W28845  10.874  23.689  11.646
58246W        W28846  29.058  12.223  13.942
58247W        W28847   0.304  33.201  12.149
58248W        W28848  14.585  43.803  13.525
58249W        W28849  24.277  24.462   0.809
58250W        W28850  25.734  44.784   4.678
58251W        W28851  38.376  14.285   2.883
58252W        W28852  25.309   7.161   2.877
58253W        W28853  16.438  37.873   0.266
58254W        W28854  14.759  42.232   2.895
58255W        W28855  36.820  35.480  14.000
58256W        W28856  13.252  20.204  11.542
58257W        W28857  12.638  20.267  12.408
58258W        W28858  17.916  28.176  11.027
58259W        W28859   0.121  17.700  13.557
58260W        W28860  44.780  13.350  14.540
58261W        W28861  31.391  17.795  14.897
58262W        W28862  21.898   2.331   2.312
58263W        W28863   5.252  37.964  11.256
58264W        W28864  17.621  27.184   1.361
58265W        W28865   9.276  36.527   1.235
58266W        W28866  40.441  36.488   2.696
58267W        W28867  43.092   0.327  13.038
58268W        W28868  15.166  18.617  13.416
58269W        W28869  15.812  39.398   3.067
58270W        W28870  11.683   7.720  12.165
58271W        W28871  21.667  43.808  11.291
58272W        W28872  22.473  28.405  13.874
58273W        W28873  19.262  41.384  14.865
58274W        W28874  25.071  42.470   1.531
58275W        W28875  20.360  38.952   3.241
58276W        W28876  34.016  28.128   0.727
58277W        W28877   0.540  42.802   1.954
58278W        W28878  11.816   9.905  12.384
58279W        W28879  22.861  32.058  13.489
58280W        W28880  24.642  30.763  13.580
58281W        W28881  43.160  15.700   2.784
58282W        W28882  16.388  31.995  10.797
58283W        W28883  24.234   9.297  13.891
58284W        W28884  10.980  19.592   0.347
58285W        W28885  16.134  26.708   3.071
58286W        W28886  18.356  23.538   4.553
58287W        W28887  29.969  13.132  14.124
58288W        W28888  10.011   6.867   9.952
58289W        W28889   1.345  39.700  11.229
58290W        W28890  32.119  35.266  14.575
58291W        W28891   9.820   6.292   3.655
58292W        W28892  21.401  14.079  11.876
58293W        W28893  13.712  13.781  12.322
58294W        W28894  29.010  23.462   4.748
58295W        W28895  35.127   9.543  11.625
58296W        W28896  14.676   0.444   3.884
58297W        W28897   5.352   7.221   1.238
58298W        W28898  17.008  31.300   4.063
58299W        W28899  25.577  41.346   0.763
58300W        W28900  39.601  21.084   0.866
58301W        W28901  35.555  33.870   0.878
58302W        W28902   7.190  40.955   4.083
58303W        W28903  24.246   6.120  13.029
58304W        W28904  44.193  16.021  11.167
58305W        W28905   6.854  31.503   1.585
58306W        W28906  31.192  31.995   0.465
58307W        W28907  38.579   8.307   0.765
58308W        W28908   6.218   5.005   2.642
58309W        W28909  32.922   9.612  11.622
58310W        W28910  22.393  24.099  14.646
58311W        W28911  41.884  17.081  13.870
58312W        W28912  23.675  31.983  11.317
58313W        W28913  34.233  29.118  14.285
58314W        W28914  12.788  23.346  14.470
58315W        W28915  43.984  34.941  12.970
58316W        W28916  24.266  17.578  14.382
58317W        W28917  20.071   9.183   3.683
58318W        W28918  43.283  35.048  13.317
58319W        W28919  28.696  25.608  13.735
58320W        W28920  31.954  44.527  11.564
58321W        W28921  23.767   9.095  13.852
58322W        W28922  17.057  22.105   0.480
58323W        W28923  37.800  25.653   0.000
58324W        W28924  13.432  40.659   0.376
58325W        W28925   9.328  33.982   3.271
58326W        W28926  39.063  25.282  13.837
58327W        W28927  21.602  39.063  12.047
58328W        W28928  41.443  11.146   0.455
58329W        W28929  25.807  36.438   2.699
58330W        W28930  36.881  22.329   3.190
58331W        W28931  37.622   9.405   1.389
58332W        W28932  40.312  20.623  11.001
58333W        W28933  37.129  19.577  10.067
58334W        W28934  43.692  21.714  14.490
58335W        W28935   5.021  28.308   4.995
58336W        W28936   3.463  15.108  12.464
58337W        W28937  10.632  30.421  11.634
58338W        W28938  30.160  18.064   1.791
58339W        W28939  31.960   7.049   0.398
58340W        W28940  28.566  27.942  10.605
58341W        W28941  30.009  13.789  10.685
58342W        W28942  10.739  31.621  11.980
58343W        W28943  18.646  37.884   1.000
58344W        W28944   4.836  42.894  14.041
58345W        W28945  23.456  14.323  10.748
58346W        W28946  25.115  17.253  10.909
58347W        W28947   5.696   0.189   2.877
58348W        W28948   2.729  26.747   2.237
58349W        W28949  34.528  37.210  12.981
58350W        W28950  44.582  35.899  13.954
58351W        W28951   0.967  17.443   1.862
58352W        W28952   0.489   6.067   2.216
58353W        W28953  33.488  20.104   2.719
58354W        W28954  21.752  16.859   4.174
58355W        W28955  22.095  22.231   2.365
58356W        W28956  31.407  39.195   3.222
58357W        W28957  37.954  43.055   4.212
58358W        W28958  10.148   0.937  13.955
58359W        W28959  43.875  44.384   2.801
58360W        W28960  18.688  37.434   0.767
58361W        W28961   2.722  34.372   3.620
58362W        W28962   3.916  17.352  14.246
58363W        W28963   1.791   6.326  12.862
58364W        W28964  23.557  35.116   3.832
58365W        W28965  24.268  30.365  12.147
58366W        W28966  13.781  23.152  14.214
58367W        W28967  30.508  11.425  12.048
58368W        W28968  29.546  24.559  13.749
58369W        W28969   3.745  21.690  13.983
58370W        W28970  17.716  30.509  13.524
58371W        W28971   0.334   3.932  10.597
58372W        W28972   2.134  37.077   3.662
58373W        W28973   0.767  22.528  14.586
58374W        W28974  19.895  15.366  11.634
58375W        W28975  22.302  19.170  14.001
58376W        W28976  39.924  22.067  12.552
58377W        W28977  43.884   1.874  11.348
58378W        W28978   2.910  39.768   1.840
58379W        W28979   3.887   9.199   3.318
58380W        W28980  43.562   0.540  13.171
58381W        W28981  23.543   0.567  11.357
58382W        W28982   3.779  10.937   3.122
58383W        W28983   4.227   0.024  14.029
58384W        W28984   9.433  22.115  12.895
58385W        W28985  35.072   6.586  12.504
58386W        W28986  12.558  35.091   4.655
58387W        W28987  26.337  24.196  13.051
58388W        W28988   1.470   3.252   3.786
58389W        W28989  16.028  39.923   3.866
58390W        W28990  28.711   6.572   3.668
58391W        W28991  27.722  37.899   0.978
58392W        W28992  36.966  15.003   0.381
58393W        W28993  40.352  12.932  12.106
58394W        W28994   9.806  14.493  14.801
58395W        W28995  40.459  29.287   4.263
58396W        W28996  10.298  40.004  14.760
58397W        W28997   1.174  38.806  11.202
58398W        W28998  10.007   6.043  14.730
58399W        W28999   2.900  37.505   4.509
58400W        W29000  16.618  21.451  10.757
58401W        W29001  26.682  40.710   5.064
58402W        W29002  23.591   6.417   1.223
58403W        W29003  43.807  27.647  12.390
58404W        W29004  13.022  19.200   4.055
58405W        W29005   4.219  27.131   3.328
58406W        W29006   6.409  17.889   4.564
58407W        W29007  20.630  20.279  13.761
58408W        W29008  33.721  30.160   4.157
58409W        W29009  41.693  42.265  11.131
58410W        W29010   7.562  10.121   0.273
58411W        W29011   5.088  36.395  12.361
58412W        W29012  30.356   2.826  13.444
58413W        W29013  34.514   2.261  10.505
58414W        W29014  13.258   2.916   2.249
58415W        W29015  40.421  10.156   4.188
58416W        W29016  36.370   2.399   2.639
58417W        W29017  18.650  39.022   1.825
58418W        W29018   5.842  19.484   0.748
58419W        W29019   5.134  32.595  14.519
58420W        W29020  25.872  14.077   1.205
58421W        W29021  28.065  39.088   2.790
58422W        W29022  12.148  10.721   4.503
58423W        W29023  36.644  12.597   1.950
58424W        W29024  24.440   7.617  13.190
58425W        W29025  32.070  14.733  12.186
58426W        W29026  35.806   8.595  13.894
58427W        W29027  20.974  44.080  10.305
58428W        W29028   9.739  18.212   2.703
58429W        W29029  15.807  23.987   4.011
58430W        W29030  15.875  16.064   9.803
58431W        W29031  17.201  35.363  12.534
58432W        W29032  41.352  25.461  11.083
58433W        W29033  12.703  29.339   3.081
58434W        W29034  13.110   0.047  14.156
58435W        W29035  11.047  40.989   0.953
58436W        W29036  38.856  32.930   2.892
58437W        W29037   5.162  34.037  14.039
58438W        W29038  16.330  23.696   2.167
58439W        W29039  38.844  25.932   3.935
58440W        W29040  26.003  20.659  11.257
58441W        W29041   7.319  14.422   3.131
58442W        W29042   3.723  26.143  14.003
58443W        W29043  40.428  42.374  13.827
58444W        W29044  40.077  40.976  14.009
58445W        W29045  35.161  10.875  14.849
58446W        W29046  36.327  43.297   3.720
58447W        W29047  30.003  44.027   1.806
58448W        W29048   6.921  39.797   1.640
58449W        W29049  39.008  42.488   2.613
58450W        W29050  30.120  16.031  13.516
58451W        W29051  33.398  16.103   2.286
58452W        W29052  40.547   7.268  10.419
58453W        W29053  35.254  12.128  14.742
58454W        W29054  36.404  11.144   4.152
58455W        W29055  29.666  31.587  14.780
58456W        W29056  10.906  42.228  14.654
58457W        W29057   3.883  12.350  11.986
58458W        W29058  34.355   5.759   0.002
58459W        W29059  24.310  24.616   2.677
58460W        W29060  13.540  19.322   4.116
58461W        W29061  39.322  24.472  11.488
58462W        W29062  12.128  39.008  12.568
58463W        W29063   0.537  25.659  10.529
58464W        W29064  39.118  23.973  11.554
58465W        W29065  22.662   6.182   1.188
58466W        W29066  33.529  24.211   4.538
58467W        W29067   8.000  15.754  14.545
58468W        W29068  29.172  22.083   1.802
58469W        W29069  27.455  44.902  10.483
58470W        W29070  34.136  42.777   2.706
58471W        W29071  10.854  13.658  12.881
58472W        W29072  38.271  43.931   1.156
58473W        W29073   8.694  39.332   2.917
58474W        W29074  15.345  39.769   0.356
58475W        W29075   4.201   2.294  10.740
58476W        W29076  19.242  11.281  11.164
58477W        W29077  14.793  40.054  13.546
58478W        W29078  21.724  18.645   3.238
58479W        W29079  22.491  39.007  14.008
58480W        W29080  24.974  23.534  14.819
58481W        W29081   8.660   8.244   1.910
58482W        W29082  40.453  26.926  12.210
58483W        W29083  22.491  14.082  14.826
58484W        W29084  20.404  15.870   2.100
58485W        W29085  17.978  24.661   1.860
58486W        W29086  21.926  20.342   3.704
58487W        W29087  26.716  42.232   4.763
58488W        W29088  37.918  36.328  14.552
58489W        W29089   3.384   9.680   0.352
58490W        W29090  27.705   4.530   0.207
58491W        W29091   6.836  21.714   4.645
58492W        W29092  42.338  20.585   4.060
58493W        W29093  26.998  30.608   0.891
58494W        W29094  37.874  39.777  12.577
58495W        W29095  43.347  11.162  12.814
58496W        W29096  34.995  30.424  12.615
58497W        W29097  42.850  13.646  12.379
58498W        W29098  14.091  21.864  14.517
58499W        W29099   9.863  26.574  11.061
58500W        W29100  40.775  25.704  11.631
58501W        W29101  18.836   0.275  11.992
58502W        W29102   1.407  38.336  12.921
58503W        W29103  35.992   1.999  13.268
58504W        W29104   1.964  42.470  10.942
58505W        W29105  44.809  38.886  12.096
58506W        W29106  41.478  31.140  10.563
58507W        W29107   1.997  14.712   0.336
58508W        W29108   0.236  14.116  10.629
58509W        W29109  17.705  19.808   4.574
58510W        W29110   5.144  13.197   3.720
58511W        W29111  33.548  10.219   2.390
58512W        W29112  19.829   8.459   4.125
58513W        W29113   1.450   5.370  14.464
58514W        W29114  21.493   2.779  11.998
58515W        W29115  30.633   1.833  13.021
58516W        W29116  43.255  15.853  14.988
58517W        W29117  38.020  40.272  14.904
58518W        W29118  23.971  26.984   2.762
58519W        W29119  33.891  19.288   3.801
58520W        W29120   9.778   8.799   2.785
58521W        W29121  30.239  32.941  13.603
58522W        W29122  40.290  26.443  11.158
58523W        W29123  28.895  30.353   2.773
58524W        W29124  20.002  19.760  10.106
58525W        W29125  37.715  13.904   4.510
58526W        W29126  10.351  34.702  11.390
58527W        W29127  26.414   9.210  11.645
58528W        W29128   2.694  11.948  11.627
58529W        W29129  10.218  13.714  12.180
58530W        W29130  31.955  25.108   2.877
58531W        W29131  32.491   1.681   0.506
58532W        W29132   9.385  42.408  11.150
58533W        W29133  17.134   1.952   5.038
58534W        W29134  44.030  20.493  11.202
58535W        W29135  23.598  43.060  11.418
58536W        W29136   8.031  19.760  11.963
58537W        W29137   5.006  25.071   5.159
58538W        W29138  23.285  32.147  11.643
58539W        W29139  25.519  31.646   4.116
58540W        W29140   5.653  11.286  11.627
58541W        W29141  27.676   2.391   1.242
58542W        W29142   7.531   9.094  11.087
58543W        W29143  44.506   2.396  10.983
58544W        W29144  38.819  16.751   3.130
58545W        W29145  10.312   6.986  11.041
58546W        W29146  35.840   9.279  12.433
58547W        W29147   8.991   4.294  11.159
58548W        W29148  32.847   1.538  12.888
58549W        W29149  10.405   4.660   3.343
58550W        W29150  32.615  31.007   2.806
58551W        W29151   7.847   8.662   3.246
58552W        W29152  19.484  16.186   3.418
58553W        W29153  28.027  27.829  11.457
58554W        W29154  12.292  38.764  11.729
58555W        W29155  34.001   8.715   3.218
58556W        W29156  13.177  19.938   2.904
58557W        W29157  19.240  19.066  11.202
58558W        W29158  23.516  15.159   3.188
58559W        W29159   1.241  40.053  12.175
58560W        W29160  39.559  40.892   0.741
58561W        W29161  37.863  26.646  13.987
58562W        W29162  40.518  18.292   1.720
58563W        W29163  11.740  13.908  10.612
58564W        W29164  19.714  17.647   2.007
58565W        W29165  13.620  30.414   3.419
58566W        W29166  44.248  43.286  11.521
58567W        W29167   0.763  20.416   2.276
58568W        W29168  19.124  28.911   1.730
58569W        W29169   3.301  21.070  12.041
58570W        W29170  25.186  39.502  14.779
58571W        W29171   1.930  39.771   1.974
58572W        W29172  40.194  43.774  11.151
58573W        W29173  36.480  13.706  10.770
58574W        W29174   7.142  30.567  14.947
58575W        W29175  22.002  15.111   2.465
58576W        W29176  42.489   9.966   4.706
58577W        W29177  44.548  26.492  11.530
58578W        W29178   5.488  20.687   4.521
58579W        W29179  27.579  28.097  14.082
58580W        W29180  42.546  22.448  13.486
58581W        W29181  21.305  36.588  13.532
58582W        W29182  36.021  29.109   1.458
58583W        W29183  10.295  30.028  12.927
58584W        W29184  29.066  23.482   2.081
58585W        W29185   3.245  41.356  14.308
58586W        W29186  20.577   1.703   2.214
58587W        W29187  17.179  37.637   0.078
58588W        W29188  10.670  13.766  11.912
58589W        W29189  27.608  17.181  14.527
58590W        W29190  35.134  15.043  12.428
58591W        W29191  16.269  10.603   1.361
58592W        W29192  25.090  41.043   4.650
58593W        W29193  12.085  27.379   1.633
58594W        W29194   9.910  34.955   1.921
58595W        W29195  35.053  16.560  13.756
58596W        W29196   6.989  26.116   3.776
58597W        W29197  37.903  30.048   3.188
58598W        W29198  12.193  34.172   0.652
58599W        W29199  16.539  42.276  14.378
58600W        W29200  38.182  15.686   4.770
58601W        W29201  39.007  17.284   2.269
58602W        W29202  12.875  30.460   3.724
58603W        W29203  36.163   1.055  10.772
58604W        W29204  43.568  32.410   4.550
58605W        W29205  28.789  36.600   0.302
58606W        W29206  38.044  30.541  13.007
58607W        W29207  25.088  43.999  10.557
58608W        W29208  32.796  43.980  14.019
58609W        W29209  13.856   2.403  11.829
58610W        W29210  11.164  16.222  11.423
58611W        W29211  11.100   9.710  11.594
58612W        W29212  32.597  22.041  13.781
58613W        W29213  44.154   4.373  11.144
58614W        W29214  26.863  34.536   1.339
58615W        W29215  27.015  16.028  10.549
58616W        W29216   5.504  39.359   0.357
58617W        W29217  43.777  41.008   3.784
58618W        W29218  23.694  20.739   3.547
58619W        W29219  35.418  24.896   0.334
58620W        W29220   3.963   2.394  14.301
58621W        W29221  21.208  18.997   0.678
58622W        W29222  25.175   6.331   3.685
58623W        W29223  32.836   1.808  13.997
58624W        W29224  35.079  18.778   4.111
58625W        W29225  37.297  23.503  12.012
58626W        W29226  10.218  27.033  11.751
58627W        W29227   5.436   1.448  14.351
58628W        W29228   7.086  25.458   4.242
58629W        W29229  28.742  28.502   0.488
58630W        W29230  17.248  27.973  12.389
58631W        W29231   6.515  44.323  14.483
58632W        W29232  17.033  20.601  12.135
58633W        W29233  37.321  19.026   3.625
58634W        W29234  23.143   7.512  13.439
58635W        W29235  14.492  14.280   0.921
58636W        W29236   4.069  16.097  11.390
58637W        W29237  32.382   8.487  14.728
58638W        W29238   4.724  43.985   2.039
58639W        W29239  18.129  10.202  10.733
58640W        W29240  39.931  33.899   1.127
58641W        W29241  33.731   4.319   3.166
58642W        W29242  31.699  42.016   3.717
58643W        W29243  25.101  24.748  13.885
58644W        W29244  39.305  36.683  11.675
58645W        W29245  44.335   5.659   2.438
58646W        W29246  22.091  17.639   3.415
58647W        W29247  27.089  33.703   3.728
58648W        W29248  15.213   6.245   0.613
58649W        W29249  43.259  32.389   2.817
58650W        W29250   1.258   3.743   3.770
58651W        W29251   1.486  26.645   4.515
58652W        W29252  34.828  26.538   2.199
58653W        W29253  44.350  26.479   1.568
58654W        W29254   8.206   6.823  11.219
58655W        W29255  37.123  19.548  11.574
58656W        W29256  44.623  33.742  13.349
58657W        W29257  42.962  20.586   0.221
58658W        W29258   1.906  27.937  14.750
58659W        W29259  24.935  12.808  11.271
58660W        W29260  21.390  41.020   1.273
58661W        W29261   8.168  14.045   2.806
58662W        W29262  34.354  25.586  14.763
58663W        W29263  27.671  14.340   1.762
58664W        W29264  40.562  38.441  11.648
58665W        W29265  42.336  20.459  11.468
58666W        W29266  10.050  30.081   2.804
58667W        W29267  14.713  41.519   0.384
58668W        W29268   4.232  43.798   3.721
58669W        W29269  39.087   1.752   4.953
58670W        W29270  36.525  38.577   0.299
58671W        W29271  39.590  29.480  12.177
58672W        W29272   2.872  42.360   2.747
58673W        W29273  31.473  28.149   4.666
58674W        W29274  40.491  23.150  13.496
58675W        W29275  28.691  27.588  12.487
58676W        W29276  25.861   8.164  11.525
58677W        W29277  10.151  28.357  13.605
58678W        W29278  15.577  19.180   0.797
58679W        W29279  37.030  36.677  14.458
58680W        W29280  13.680  40.420  14.857
58681W        W29281  32.471  44.959  14.825
58682W        W29282   9.320   3.273   1.444
58683W        W29283  25.229   1.823  11.638
58684W        W29284  38.995  26.100  12.914
58685W        W29285  32.803  44.363  12.890
58686W        W29286   3.733   3.724   0.752
58687W        W29287  36.023   0.705   1.912
58688W        W29288  10.571  28.683  13.065
58689W        W29289  43.984  30.018   3.218
58690W        W29290  11.146  33.602   4.180
58691W        W29291  38.107  19.809  11.465
58692W        W29292  30.539  27.913   3.546
58693W        W29293  12.787  12.373   3.887
58694W        W29294  14.323  35.018   0.909
58695W        W29295  14.813  29.879   0.464
58696W        W29296  25.455   1.569  13.131
58697W        W29297  27.731  32.765  13.367
58698W        W29298  21.321   5.253  14.850
58699W        W29299  32.148   5.248   4.645
58700W        W29300  15.789  11.506  12.461
58701W        W29301  28.113   0.245   2.172
58702W        W29302  10.539  44.481  12.630
58703W        W29303  13.810  38.654   0.423
58704W        W29304   6.836  24.756   2.642
58705W        W29305  36.121   5.793   3.872
58706W        W29306   7.624  44.226   4.475
58707W        W29307  37.489  12.231   4.412
58708W        W29308  29.412   9.836  12.073
58709W        W29309  28.993  32.570   0.959
58710W        W29310  28.145  24.752  10.766
58711W        W29311  28.361   9.952  13.646
58712W        W29312  31.378  19.206   1.891
58713W        W29313  13.274  40.226  10.014
58714W        W29314  17.247  19.667  12.044
58715W        W29315  16.453  41.828   3.151
58716W        W29316  25.842  33.538   4.841
58717W        W29317   3.939  36.608   2.434
58718W        W29318  24.264  38.422  12.057
58719W        W29319  27.587  11.636  11.908
58720W        W29320  17.059   8.143   0.447
58721W        W29321  41.627  33.139   1.789
58722W        W29322  33.421  16.848   1.102
58723W        W29323  19.523   2.280  14.106
58724W        W29324  17.882  19.571  13.435
58725W        W29325  10.724  25.446  12.928
58726W        W29326  43.277  43.754   0.696
58727W        W29327  21.695  44.774   0.793
58728W        W29328  20.471  36.971  14.395
58729W        W29329   9.740   0.190   4.628
58730W        W29330  18.579   7.734  13.070
58731W        W29331  34.846  40.445   5.091
58732W        W29332  29.330  23.691  11.187
58733W        W29333   4.156  42.558   3.246
58734W        W29334   1.485   1.701  11.095
58735W        W29335  26.075  26.962  12.891
58736W        W29336   9.370  30.366   2.663
58737W        W29337  41.606   0.629   1.718
58738W        W29338  13.583  10.049   1.145
58739W        W29339  25.395  13.745   3.667
58740W        W29340  34.646  25.903   2.723
58741W        W29341  14.091  33.517  10.626
58742W        W29342  39.061  22.661   2.347
58743W        W29343  38.731   5.214   3.084
58744W        W29344  23.521  24.549   4.628
58745W        W29345   0.491  29.229  14.848
58746W        W29346   8.884  39.658  11.841
58747W        W29347  17.838   1.627  13.772
58748W        W29348  19.502  29.511   3.906
58749W        W29349  11.154  41.970  13.479
58750W        W29350  44.281  12.166   0.413
58751W        W29351  27.169  38.870   2.793
58752W        W29352   6.270  29.407   0.517
58753W        W29353  32.511  22.660  12.574
58754W        W29354   6.014  11.138  12.006
58755W        W29355  44.152  39.848   5.184
58756W        W29356  30.662   7.535   0.268
58757W        W29357  25.834   3.287   4.561
58758W        W29358  24.650  35.384   0.323
58759W        W29359  17.562  24.243   3.303
58760W        W29360  21.489  27.016   0.432
58761W        W29361   2.926  28.135   2.127
58762W        W29362  10.202  39.380   2.890
58763W        W29363  22.990  22.456  12.971
58764W        W29364  16.701   8.024   0.817
58765W        W29365  25.006   0.631   0.646
58766W        W29366  11.625  19.817   2.459
58767W        W29367  35.598  13.775   4.228
58768W        W29368  14.561  34.120   9.984
58769W        W29369  10.619   5.487   1.882
58770W        W29370  23.210  32.988   3.882
58771W        W29371   2.003   2.266   4.590
58772W        W29372   7.427  43.568   3.965
58773W        W29373  36.543  33.639  13.903
58774W        W29374  10.244  15.295  14.689
58775W        W29375  38.461  19.652  12.653
58776W        W29376  13.813  43.952   4.636
58777W        W29377  17.295  43.096   4.309
58778W        W29378  44.022  30.698  11.167
58779W        W29379  16.665  32.680  13.586
58780W        W29380  13.654  44.631   2.141
58781W        W29381   9.752  37.885  12.760
58782W        W29382  43.729   0.058   2.271
58783W        W29383  42.552  19.169   0.452
58784W        W29384   4.981   6.730   2.378
58785W        W29385  36.064  19.931   2.671
58786W        W29386   3.283  20.317   1.823
58787W        W29387  22.265  21.167   2.473
58788W        W29388  16.198   1.317   2.367
58789W        W29389  42.921  23.147   0.277
58790W        W29390   9.806  39.883   4.458
58791W        W29391   9.156   7.006  13.431
58792W        W29392  29.592  22.589  10.616
58793W        W29393   9.417  10.818  12.452
58794W        W29394  13.604   0.203   1.223
58795W        W29395   2.639  29.064  13.089
58796W        W29396  28.010   0.345   3.580
58797W        W29397   8.456   9.192   1.366
58798W        W29398  37.128   4.890   0.176
58799W        W29399   9.802  34.595  10.715
58800W        W29400   9.018  27.694  14.820
58801W        W29401  36.015  27.044  13.633
58802W        W29402  12.123   1.653  12.890
58803W        W29403  11.742  20.915   0.554
58804W        W29404  19.208   1.771   0.371
58805W        W29405  33.209  39.923   1.838
58806W        W29406  39.374   0.392  11.368
58807W        W29407  12.288  13.490  12.877
58808W        W29408  26.759  36.111  11.986
58809W        W29409  30.612  41.784   1.238
58810W        W29410  10.611  30.493  13.385
58811W        W29411  13.078  25.724   1.961
58812W        W29412  13.827  43.597  10.699
58813W        W29413  32.134   7.289   2.749
58814W        W29414  18.169  36.405  10.864
58815W        W29415   0.598  11.959  12.408
58816W        W29416   6.774   9.298  11.710
58817W        W29417  13.942   0.412   4.613
58818W        W29418  38.005  36.577   3.010
58819W        W29419   8.758  39.364   2.393
58820W        W29420  41.391   5.945  10.534
58821W        W29421   0.030  44.110   2.353
58822W        W29422  34.588  29.422   1.454
58823W        W29423  24.167  23.100  13.463
58824W        W29424  30.408  13.224   1.757
58825W        W29425   7.899  39.019  13.799
58826W        W29426  25.216  30.959  14.871
58827W        W29427  24.047   0.976  13.903
58828W        W29428  43.228  10.656  12.711
58829W        W29429  18.049  17.023  11.995
58830W        W29430  27.170  20.744  14.402
58831W        W29431  40.349  10.315   2.770
58832W        W29432  26.258  10.130  14.881
58833W        W29433  14.702  31.458   4.940
58834W        W29434  31.283   4.779   2.274
58835W        W29435  41.910  32.599   1.142
58836W        W29436  40.970  24.640  11.098
58837W        W29437  35.454   1.499   1.777
58838W        W29438  24.285  28.327   0.094
58839W        W29439  32.992  31.397   0.349
58840W        W29440  21.481  37.589   4.507
58841W        W29441   7.389  41.256   0.562
58842W        W29442  29.654  34.645   0.517
58843W        W29443  10.608  17.285  10.696
58844W        W29444  28.519  36.087  11.556
58845W        W29445  37.815  16.568   0.349
58846W        W29446   3.693  15.288   2.268
58847W        W29447  40.833  28.211   4.448
58848W        W29448   9.650  18.152  11.035
58849W        W29449  33.644   9.251  14.831
58850W        W29450   0.328  40.862  12.397
58851W        W29451   7.318  40.427  12.953
58852W        W29452   9.932   2.897   0.431
58853W        W29453  29.139   9.334   3.353
58854W        W29454  11.475  22.110   0.039
58855W        W29455   8.194  26.935   4.161
58856W        W29456   1.789  21.033  11.396
58857W        W29457  42.030   2.072  10.793
58858W        W29458   4.560  33.930   2.457
58859W        W29459  12.868  30.517  13.106
58860W        W29460  21.101  20.327   0.365
58861W        W29461  38.533  20.880  10.685
58862W        W29462  31.295  43.120   0.908
58863W        W29463   6.391   7.490  13.498
58864W        W29464  13.386  32.979  13.075
58865W        W29465  37.783  38.404  12.536
58866W        W29466  43.126  31.663   0.284
58867W        W29467   9.662  28.742  13.568
58868W        W29468   3.473   0.759   4.979
58869W        W29469  42.484  22.233   0.244
58870W        W29470   8.198  13.634  13.776
58871W        W29471  22.629   0.820   0.074
58872W        W29472  35.530  23.265   1.731
58873W        W29473  16.391  18.320   1.288
58874W        W29474  39.410  19.981   3.630
58875W        W29475  35.296   8.276  10.732
58876W        W29476  29.180  38.993  14.037
58877W        W29477  43.272  17.737   1.996
58878W        W29478  13.583  42.028  12.499
58879W        W29479  24.771  41.862  12.857
58880W        W29480  23.603   4.137   1.864
58881W        W29481  21.672  27.242  11.143
58882W        W29482  30.663   9.273  12.051
58883W        W29483  34.946  26.376  12.960
58884W        W29484  12.332  26.085   1.090
58885W        W29485   6.885  35.378  13.385
58886W        W29486  42.929  12.671   0.286
58887W        W29487   8.393  22.297   1.730
58888W        W29488  43.068  22.415   4.102
58889W        W29489  31.382  41.832   1.938
58890W        W29490  28.999  27.215   0.522
58891W        W29491  18.892  25.623  11.948
58892W        W29492  13.668  31.422  14.415
58893W        W29493  24.624  10.811  14.452
58894W        W29494  38.940   8.473   2.674
58895W        W29495  29.729   6.792   1.262
58896W        W29496   1.810  16.567   3.063
58897W        W29497  27.091  30.906  12.444
58898W        W29498  22.057  27.476  14.286
58899W        W29499  23.475  35.965   4.589
58900W        W29500   3.397  25.468   3.664
58901W        W29501  33.315   3.701   0.378
58902W        W29502  29.576  27.178   2.696
58903W        W29503  29.844   1.620  12.009
58904W        W29504  42.850   4.369  12.614
58905W        W29505  41.347  16.813   3.701
58906W        W29506  14.041  37.562   1.241
58907W        W29507   5.294  26.630  14.746
58908W        W29508  36.467  25.728  14.873
58909W        W29509   2.478  25.506  13.656
58910W        W29510  26.198  41.897  13.036
58911W        W29511   9.152  36.497  11.197
58912W        W29512  26.446   8.331   4.121
58913W        W29513  20.832  11.149   4.519
58914W        W29514  18.248   2.805   1.879
58915W        W29515  22.948  10.711  11.642
58916W        W29516  11.216  19.198   1.792
58917W        W29517  15.734  11.097  11.632
58918W        W29518   4.763  31.115   1.276
58919W        W29519  38.413  37.264  14.469
58920W        W29520  38.009  13.022   0.531
58921W        W29521  32.203   9.311   0.807
58922W        W29522   4.643   5.469  12.016
58923W        W29523  13.069   6.790  13.327
58924W        W29524   3.208   5.012   1.005
58925W        W29525  41.247  19.889  11.322
58926W        W29526  16.454  43.270   4.518
58927W        W29527  33.460  26.677   3.122
58928W        W29528  13.740  24.572   0.487
58929W        W29529   8.380  36.353   4.930
58930W        W29530  28.452   6.750   4.281
58931W        W29531   5.758  15.250   3.577
58932W        W29532   9.323   3.655  13.891
58933W        W29533  26.453  18.172   1.133
58934W        W29534  25.605  15.537   4.641
58935W        W29535  27.960  11.681   3.248
58936W        W29536  42.489  31.297   0.779
58937W        W29537  29.616  18.504   3.057
58938W        W29538  11.055   0.391   0.264
58939W        W29539  25.518  37.067  10.948
58940W        W29540  30.501  27.609  12.978
58941W        W29541  19.354   0.008  11.506
58942W        W29542   4.305  16.965  11.657
58943W        W29543  16.056  36.559  10.687
58944W        W29544  13.686   3.940   1.775
58945W        W29545  17.380  14.602  10.214
58946W        W29546  20.718  23.593  13.097
58947W        W29547   1.320  35.362   0.939
58948W        W29548   1.488  29.649   3.788
58949W        W29549   4.464  24.860   1.753
58950W        W29550   3.605  16.640  12.096
58951W        W29551   5.375   3.765  13.730
58952W        W29552  11.664  22.314   2.680
58953W        W29553  38.470  20.812  13.090
58954W        W29554  23.459  38.109  13.425
58955W        W29555  23.460  38.336  14.338
58956W        W29556  41.825  29.511  14.373
58957W        W29557  13.140  29.201   9.898
58958W        W29558  31.395  36.861   3.684
58959W        W29559  29.548  28.080   3.717
58960W        W29560   9.357   6.954  14.022
58961W        W29561  41.516  39.397  12.988
58962W        W29562  16.148   9.809  13.251
58963W        W29563  23.702  26.640   0.386
58964W        W29564  44.149   7.180   1.224
58965W        W29565  37.945  31.441   1.591
58966W        W29566   7.632   4.350  13.800
58967W        W29567  31.958  33.965  12.144
58968W        W29568  41.016  39.334   0.166
58969W        W29569  10.084  18.030   2.284
58970W        W29570  40.718  13.268  12.325
58971W        W29571   3.994  42.063   1.578
58972W        W29572   1.963  29.888   4.806
58973W        W29573   0.478  18.503   1.467
58974W        W29574  27.436  20.217  12.732
58975W        W29575  38.929   7.166   3.307
58976W        W29576   7.920   0.544   1.322
58977W        W29577   6.843  23.218   0.283
58978W        W29578  37.968   0.996  13.857
58979W        W29579  42.025   3.701   2.622
58980W        W29580  24.236  13.122   0.851
58981W        W29581  12.880  32.895  13.093
58982W        W29582   3.200  17.772  11.454
58983W        W29583  15.387  12.659   2.190
58984W        W29584   6.399  42.275   0.418
58985W        W29585  36.964   5.029   1.874
58986W        W29586  19.153  43.827  14.752
58987W        W29587  37.599  40.001   3.361
58988W        W29588   3.668  28.414   0.296
58989W        W29589  18.280  22.251   3.797
58990W        W29590   3.339  40.870   4.587
58991W        W29591  12.332  17.996  13.514
58992W        W29592  16.280  15.541   4.548
58993W        W29593  41.316  10.149   3.085
58994W        W29594  26.479  43.891  11.655
58995W        W29595  27.674  18.807  13.971
58996W        W29596   6.471  20.025   0.037
58997W        W29597  31.621   4.357   3.170
58998W        W29598  40.176  31.821  13.963
58999W        W29599   5.425  24.008   1.772
59000W        W29600  14.566  19.494   0.413
59001W        W29601  15.368   2.020  11.571
59002W        W29602  18.238  41.910   3.794
59003W        W29603  36.294  18.720   2.323
59004W        W29604  23.328  39.959  11.575
59005W        W29605  22.127   7.959  14.006
59006W        W29606  20.235  41.283  11.955
59007W        W29607  19.185  22.730   1.274
59008W        W29608  14.637  10.168  12.567
59009W        W29609  20.764  17.636   1.128
59010W        W29610  28.925  25.652   0.062
59011W        W29611   9.149   2.422   0.223
59012W        W29612  43.955   5.613  11.611
59013W        W29613   9.445   1.954  10.676
59014W        W29614  29.992  19.278   4.216
59015W        W29615  26.525  30.941  10.618
59016W        W29616  21.428  22.736  11.351
59017W        W29617  12.862  36.581  12.980
59018W        W29618  26.147   4.178   2.665
59019W        W29619  35.045  35.369   4.754
59020W        W29620  30.646  38.381  13.149
59021W        W29621  28.681  36.827   4.666
59022W        W29622  12.136  40.264   0.644
59023W        W29623  31.350  26.667   1.462
59024W        W29624  23.318   6.709   0.249
59025W        W29625  33.615  26.452  14.341
59026W        W29626  32.650  18.578   0.694
59027W        W29627  17.696  27.077  12.514
59028W        W29628  28.281  16.800  11.894
59029W        W29629  22.630  11.357   2.388
59030W        W29630   7.267  21.064   2.314
59031W        W29631   6.741  39.600  14.378
59032W        W29632  28.170  27.942  11.955
59033W        W29633  34.245  19.910  13.550
59034W        W29634   9.290  41.528   4.635
59035W        W29635   6.876  18.643   2.649
59036W        W29636   4.756  28.283   1.336
59037W        W29637  31.923  39.883   2.401
59038W        W29638   5.997  36.275   1.427
59039W        W29639   0.222  43.780   3.730
59040W        W29640  27.921  18.065  11.630
59041W        W29641  19.079  39.850  11.053
59042W        W29642  40.992   5.986   1.539
59043W        W29643   1.026  26.942   2.970
59044W        W29644   2.352   6.402  12.400
59045W        W29645  22.052  31.358   1.334
59046W        W29646  30.898  36.504  14.984
59047W        W29647   9.148  40.016   0.438
59048W        W29648   8.785  28.689   1.420
59049W        W29649  21.777  14.695   2.744
59050W        W29650  31.620   3.656   4.855
59051W        W29651  29.380  27.935  11.659
59052W        W29652  44.842  20.661  13.639
59053W        W29653  42.393   5.755  10.715
59054W        W29654   8.345  18.012  13.037
59055W        W29655  16.724  10.071   2.727
59056W        W29656  18.574  34.140  14.686
59057W        W29657  20.741  33.588   0.397
59058W        W29658  18.561  39.783   0.813
59059W        W29659  43.208   6.823  11.211
59060W        W29660  24.199  42.883   4.605
59061W        W29661   5.858  32.816  11.996
59062W        W29662  32.433   3.539   3.931
59063W        W29663  24.148  25.723  11.065
59064W        W29664  21.495  43.247  12.446
59065W        W29665  10.174  37.866  11.128
59066W        W29666   4.286  36.812  13.899
59067W        W29667  40.997  37.664   1.084
59068W        W29668   0.134  25.102   1.893
59069W        W29669   3.952  25.118   1.073
59070W        W29670  29.102  20.356  11.209
59071W        W29671  17.199   3.246   1.852
59072W        W29672  18.028  44.859   3.468
59073W        W29673  21.230  31.244  13.410
59074W        W29674   4.396  42.464  12.304
59075W        W29675  39.355  19.827  10.263
59076W        W29676   7.686  35.328   4.243
59077W        W29677   2.598  41.323  13.540
59078W        W29678   7.210  20.809   0.941
59079W        W29679  38.440   0.909  12.986
59080W        W29680   4.418  37.419   4.163
59081W        W29681  22.920   1.933  10.776
59082W        W29682   9.400   6.371  11.558
59083W        W29683  29.001  43.199   0.121
59084W        W29684   1.491  19.144  13.043
59085W        W29685  37.938  41.358   4.504
59086W        W29686  43.938  43.538   3.108
59087W        W29687   5.955  27.090  13.154
59088W        W29688  25.672  38.470   4.251
59089W        W29689  32.514  21.037   1.888
59090W        W29690  10.201  11.791   0.489
59091W        W29691  31.350  28.444  11.935
59092W        W29692  13.268  44.806  11.692
59093W        W29693  29.941  10.642   2.761
59094W        W29694  34.459  43.074  10.799
59095W        W29695  21.797  10.287  10.582
59096W        W29696  12.720  40.463   2.824
59097W        W29697  40.038  42.370   0.519
59098W        W29698   6.185  30.284   0.819
59099W        W29699  42.778  38.380   3.889
59100W        W29700  36.388  11.671   0.761
59101W        W29701  14.541  32.135   1.762
59102W        W29702   7.953   7.888   2.357
59103W        W29703   8.939  16.509   1.386
59104W        W29704  21.869   9.690   4.956
59105W        W29705   5.750  30.880  12.184
59106W        W29706   9.533  41.364   4.212
59107W        W29707  17.374  12.766  14.274
59108W        W29708  14.471  29.333   4.333
59109W        W29709  43.570  15.440  14.894
59110W        W29710   7.376  10.962  11.675
59111W        W29711  38.309  34.611  12.412
59112W        W29712  43.222  37.513   4.555
59113W        W29713  22.731  28.526  14.700
59114W        W29714  44.889   2.374   2.899
59115W        W29715  19.819  12.217  11.453
59116W        W29716  44.746  40.929  14.799
59117W        W29717  16.957  30.894   4.380
59118W        W29718  37.895  32.624  11.596
59119W        W29719  31.739  27.615   1.397
59120W        W29720   0.906  38.162   2.690
59121W        W29721  32.860  12.757   2.409
59122W        W29722   3.125  11.106  14.456
59123W        W29723   3.919  20.923  12.471
59124W        W29724  16.036  35.153  14.782
59125W        W29725   4.895  33.521  14.963
59126W        W29726  22.181   5.444   2.819
59127W        W29727  43.055  38.128  14.361
59128W        W29728  17.318  37.089   2.974
59129W        W29729  44.146  35.916   1.629
59130W        W29730  33.009   7.728   4.611
59131W        W29731   1.918  27.116  14.785
59132W        W29732  17.174  12.809  12.366
59133W        W29733  35.492  43.745  13.423
59134W        W29734  14.237  39.049   4.754
59135W        W29735  21.532  21.451  14.348
59136W        W29736   9.401  17.049  11.581
59137W        W29737  27.669  24.565   2.472
59138W        W29738   4.147  44.450  13.035
59139W        W29739  15.083  14.762  14.380
59140W        W29740  35.598  33.400  14.927
59141W        W29741  40.828  41.672  13.052
59142W        W29742   9.464  25.199   3.547
59143W        W29743  27.500  18.275   2.314
59144W        W29744  11.316   4.729  13.049
59145W        W29745  30.569   8.392  11.176
59146W        W29746  26.117  38.375  10.757
59147W        W29747  17.352  10.029  13.985
59148W        W29748   4.335  38.858  13.628
59149W        W29749  24.588  13.815  12.829
59150W        W29750  36.028  39.362   1.641
59151W        W29751   5.387  19.507   2.438
59152W        W29752  20.341  37.912  10.966
59153W        W29753   7.460  36.343   1.337
59154W        W29754   8.249  11.811   0.937
59155W        W29755  27.984  35.941   0.375
59156W        W29756   9.289   5.778  13.098
59157W        W29757  12.874  28.135  10.632
59158W        W29758  22.296   7.242   2.383
59159W        W29759  30.472  30.817  10.612
59160W        W29760  40.353  17.727   3.366
59161W        W29761  31.295  14.659  12.870
59162W        W29762  43.468  41.644  13.014
59163W        W29763  30.599  14.287   1.526
59164W        W29764  23.745  32.462  10.600
59165W        W29765  26.858  40.881  11.642
59166W        W29766  42.883  36.912  10.988
59167W        W29767   2.874  37.965  12.028
59168W        W29768  40.947  10.702   4.669
59169W        W29769   4.011  32.267   2.167
59170W        W29770  12.330  30.011   4.682
59171W        W29771  31.614  30.929   4.747
59172W        W29772   4.304   8.205   1.605
59173W        W29773  31.150  38.365  13.421
59174W        W29774  26.152   9.714   3.702
59175W        W29775  21.472  28.019  10.794
59176W        W29776  16.233  27.983   1.966
59177W        W29777   4.159   8.281  14.774
59178W        W29778  18.534  17.688  14.917
59179W        W29779   5.477  26.540   0.369
59180W        W29780  22.180  15.548  13.886
59181W        W29781   8.647   6.419   4.475
59182W        W29782  43.830  28.890  12.958
59183W        W29783  22.431  39.739   4.206
59184W        W29784  36.227  44.909   3.238
59185W        W29785  43.969  16.113   0.616
59186W        W29786  24.957  22.967   4.187
59187W        W29787  15.880   4.938   2.850
59188W        W29788  40.433   9.521   1.359
59189W        W29789  15.128  16.670   0.732
59190W        W29790  29.608   7.971   2.690
59191W        W29791  13.141  12.168  11.948
59192W        W29792  17.260  10.691  12.405
59193W        W29793   7.325  37.097  12.088
59194W        W29794  40.877  37.599  13.044
59195W        W29795  37.559   8.039   0.897
59196W        W29796   1.453  34.366   1.823
59197W        W29797  23.941  33.623  11.147
59198W        W29798  17.568  12.381  13.360
59199W        W29799  26.193   0.914   5.126
59200W        W29800  43.361  44.486   2.757
59201W        W29801  33.352   2.571  14.786
59202W        W29802   9.230  39.272   0.782
59203W        W29803   5.171  27.908  11.922
59204W        W29804  11.822  16.317   0.822
59205W        W29805  30.009  27.222   4.494
59206W        W29806   3.547  15.747   0.510
59207W        W29807  41.757  28.609   2.737
59208W        W29808  42.355  18.537   2.388
59209W        W29809   8.417  16.989   0.227
59210W        W29810   1.245  20.302  13.427
59211W        W29811   6.879   7.610  12.407
59212W        W29812   4.716  44.228  13.825
59213W        W29813  25.891  33.560  14.359
59214W        W29814  17.701  14.830   2.676
59215W        W29815  13.281  43.811  14.711
59216W        W29816   8.381  42.618  11.427
59217W        W29817  20.317  26.920  10.916
59218W        W29818  44.327  29.769  12.036
59219W        W29819   2.709  28.992  12.116
59220W        W29820  10.202  29.599   4.598
59221W        W29821  44.307  38.848   3.334
59222W        W29822   8.700   3.575  13.624
59223W        W29823  38.324  40.415  13.508
59224W        W29824  34.599  24.548   0.744
59225W        W29825  43.809   3.774  12.791
59226W        W29826  29.384  12.560   3.849
59227W        W29827  43.367   3.753  14.540
59228W        W29828  15.259  16.844  14.854
59229W        W29829  29.214  43.860   0.874
59230W        W29830  28.376   6.625   4.776
59231W        W29831  12.147  32.279   4.976
59232W        W29832  44.508  44.985   0.488
59233W        W29833  25.953  26.547  12.572
59234W        W29834  20.182  27.737  13.540
59235W        W29835   2.664  15.194  13.080
59236W        W29836  43.262   8.718   4.176
59237W        W29837  36.048  12.898  10.635
59238W        W29838  22.079   6.954   2.809
59239W        W29839  36.221   3.150  14.478
59240W        W29840  34.827   0.408  12.571
59241W        W29841   7.782  33.176  14.977
59242W        W29842  29.142  39.127   2.774
59243W        W29843  39.503   3.906  13.280
59244W        W29844  35.166  39.368  13.426
59245W        W29845  41.836  35.907  12.512
59246W        W29846   7.281  41.020  11.806
59247W        W29847  28.036  19.273  13.327
59248W        W29848  11.188  42.758  11.836
59249W        W29849   8.292  23.323   1.976
59250W        W29850  25.066   5.144   2.186
59251W        W29851   5.377  38.968   3.473
59252W        W29852  39.611  23.741   0.891
59253W        W29853  35.219  19.747   4.223
59254W        W29854  28.194  41.722  14.423
59255W        W29855   6.107   7.185   5.128
59256W        W29856  13.574  23.516   1.905
59257W        W29857  26.184  30.649  12.230
59258W        W29858  13.163  33.035  11.596
59259W        W29859   6.025  17.164  10.187
59260W        W29860  27.010  38.520   0.972
59261W        W29861   3.495  29.197   2.696
59262W        W29862  43.233  20.599   1.721
59263W        W29863  14.262  14.588   1.907
59264W        W29864  12.361  19.725  13.253
59265W        W29865  29.513  32.198  11.222
59266W        W29866  24.233   7.756  14.368
59267W        W29867  25.619   3.458  14.527
59268W        W29868  37.023   4.851   1.134
59269W        W29869   6.829  15.022   1.252
59270W        W29870  44.081  34.973  13.867
59271W        W29871   2.085  35.092   3.200
59272W        W29872   0.719  15.746   5.025
59273W        W29873  28.194  24.791   4.918
59274W        W29874  19.285  13.713   1.515
59275W        W29875  20.668  42.236  13.529
59276W        W29876   6.189  23.079   3.710
59277W        W29877  39.383   6.334  13.083
59278W        W29878  11.049  44.821   2.862
59279W        W29879  30.960  22.205   4.018
59280W        W29880  13.754  31.640  10.672
59281W        W29881  30.664  42.555   5.001
59282W        W29882   2.017  19.592   1.688
59283W        W29883  35.538   3.789   2.424
59284W        W29884  43.269  35.991  14.202
59285W        W29885  27.716   0.198  13.724
59286W        W29886  30.189  18.622  11.755
59287W        W29887  25.054  36.887   1.688
59288W        W29888  16.930  24.424   2.752
59289W        W29889  12.221  31.946  13.902
59290W        W29890   1.298  43.774   2.662
59291W        W29891  37.168  24.680   4.100
59292W        W29892  15.957  39.900  11.012
59293W        W29893  32.632  25.113   4.922
59294W        W29894  32.770  37.852  11.260
59295W        W29895  23.251  26.806  11.936
59296W        W29896  16.589  17.021   1.958
59297W        W29897  14.293  37.304   4.668
59298W        W29898  30.920  35.077   0.984
59299W        W29899   4.716  21.747   3.586
59300W        W29900  26.550  24.304  13.815
59301W        W29901  17.050  23.267  10.707
59302W        W29902  10.848  42.574  10.933
59303W        W29903  43.097  13.077   2.351
59304W        W29904  40.853  41.810  13.551
59305W        W29905  24.131  36.541  14.985
59306W        W29906  36.913  15.346   4.638
59307W        W29907  25.462   1.772   3.276
59308W        W29908  27.228  30.562   3.464
59309W        W29909  27.128  27.170   0.374
59310W        W29910  31.043   9.867  14.148
59311W        W29911   6.888  11.582  13.996
59312W        W29912   0.644  21.612  14.669
59313W        W29913  28.151  15.392  11.065
59314W        W29914  14.018   1.964  11.575
59315W        W29915  43.732  43.918  12.339
59316W        W29916  11.892  28.479   1.336
59317W        W29917  38.447  36.242   0.269
59318W        W29918  20.042   2.178  13.018
59319W        W29919  26.643   3.857   3.694
59320W        W29920  16.667  22.069  12.412
59321W        W29921  33.038  13.562  12.652
59322W        W29922  10.718  40.728   2.279
59323W        W29923  20.942  34.425  14.898
59324W        W29924  19.379   3.043   0.670
59325W        W29925   1.354  12.673   4.787
59326W        W29926  39.550  44.315   3.820
59327W        W29927  31.931   9.570  10.733
59328W        W29928   6.503  17.090   5.050
59329W        W29929   9.924   1.809  12.903
59330W        W29930  29.876  34.960   2.102
59331W        W29931   5.685   8.226  13.724
59332W        W29932  33.946  26.883   3.546
59333W        W29933  13.390  10.417   3.899
59334W        W29934  37.390  24.723  11.156
59335W        W29935  10.847  13.344  10.610
59336W        W29936  30.049  27.732  13.189
59337W        W29937  40.490   1.581   3.812
59338W        W29938  20.621  26.619  13.811
59339W        W29939  35.543  20.720   2.219
59340W        W29940   3.117  39.881  11.047
59341W        W29941   6.435  34.333  13.910
59342W        W29942  40.713  14.322   1.329
59343W        W29943  21.289  43.703   0.430
59344W        W29944  15.156   3.379   4.588
59345W        W29945  23.429   2.962   1.363
59346W        W29946   5.238  25.715   3.816
59347W        W29947  26.540  40.263   4.588
59348W        W29948   9.118  11.110   4.108
59349W        W29949  36.604  16.139  11.179
59350W        W29950   7.389   5.966   2.306
59351W        W29951  15.651  31.498   3.778
59352W        W29952   4.690  41.136   4.572
59353W        W29953  12.924  22.661   3.652
59354W        W29954  25.180  24.821   3.825
59355W        W29955   9.511  40.421   2.101
59356W        W29956  41.689  13.753  14.305
59357W        W29957   2.468   3.663   3.220
59358W        W29958  39.876  11.852  13.918
59359W        W29959  17.155  25.463  12.396
59360W        W29960  17.677  15.250  11.110
59361W        W29961  34.583  36.842  11.976
59362W        W29962   6.733  31.336  12.195
59363W        W29963  31.895  19.979   2.855
59364W        W29964   2.042  16.892  12.869
59365W        W29965  28.185  44.572   3.141
59366W        W29966  31.159  38.092   2.757
59367W        W29967  18.613  33.043  13.380
59368W        W29968  33.686  18.428  14.939
59369W        W29969  18.016  40.893   1.378
59370W        W29970  36.029  35.085  14.698
59371W        W29971   3.628  42.747   5.079
59372W        W29972   8.409   2.090   2.752
59373W        W29973  41.266  28.937   4.747
59374W        W29974   3.520   8.808  14.506
59375W        W29975  12.620  11.153   1.754
59376W        W29976   0.784  16.826  13.414
59377W        W29977   6.999  16.796  11.669
59378W        W29978  38.913  40.604   1.205
59379W        W29979  27.736   4.686   2.813
59380W        W29980  19.346  23.188   2.776
59381W        W29981   4.343  39.957  11.561
59382W        W29982   6.134   2.414  12.471
59383W        W29983   0.153  24.404  12.286
59384W        W29984  17.554  31.713   1.343
59385W        W29985  30.333   6.917  14.381
59386W        W29986  10.326  41.927  13.964
59387W        W29987  27.953  29.022  12.381
59388W        W29988  31.608  28.054  11.198
59389W        W29989  20.039   1.065  12.447
59390W        W29990  33.171  25.566  12.826
59391W        W29991  38.114   7.154  10.500
59392W        W29992  39.592   2.015   1.741
59393W        W29993  17.311  21.020  12.014
59394W        W29994  20.074  37.329   0.066
59395W        W29995  11.917  28.974   2.736
59396W        W29996  44.536  17.191   1.912
59397W        W29997  23.548  32.863   0.363
59398W        W29998  13.699  20.028  13.781
59399W        W29999  44.294   1.529   0.130
59400W        W30000  41.739  39.540   2.752
59401W        W30001  38.739   6.194   1.308
59402W        W30002  22.661   3.525   4.590
59403W        W30003   0.435   2.502   2.248
59404W        W30004  10.074  40.335  10.770
59405W        W30005  25.028  37.364   1.316
59406W        W30006  26.497   5.769  14.796
59407W        W30007  41.113  23.655  12.372
59408W        W30008  12.436  36.040  11.528
59409W        W30009  23.530  19.675   4.658
59410W        W30010  29.146  37.442  13.928
59411W        W30011  30.030  20.214  14.855
59412W        W30012  22.497  42.688  10.768
59413W        W30013  24.463  12.890  11.427
59414W        W30014  32.597  32.792   1.753
59415W        W30015  37.100  31.957   0.570
59416W        W30016  28.109   3.425  13.914
59417W        W30017   5.856   5.619   1.754
59418W        W30018  25.897  38.996  12.585
59419W        W30019  31.975   5.169   5.103
59420W        W30020  10.674  27.265  14.727
59421W        W30021  41.358  38.939  12.864
59422W        W30022  36.972  20.751  14.325
59423W        W30023   0.396  38.085   2.485
59424W        W30024  14.105   8.329   4.286
59425W        W30025   5.718   9.502   1.459
59426W        W30026  23.013  24.705  12.025
59427W        W30027   7.497  30.021   4.144
59428W        W30028  10.618  32.586   0.616
59429W        W30029  11.297  23.659   4.577
59430W        W30030   7.969   1.205  14.725
59431W        W30031   7.601  19.291  13.440
59432W        W30032  10.264  19.042   4.523
59433W        W30033  11.706   6.170  12.216
59434W        W30034  31.745  39.738  12.054
59435W        W30035  34.772  36.845  11.186
59436W        W30036  39.316  30.524  12.062
59437W        W30037  24.145   6.397   2.891
59438W        W30038  30.136   7.248  12.402
59439W        W30039   3.811  22.716  13.825
59440W        W30040  37.452  22.918  14.498
59441W        W30041   3.037  20.750  10.448
59442W        W30042  41.585  42.818  12.377
59443W        W30043  33.020  29.949  14.845
59444W        W30044   4.532   7.505   4.118
59445W        W30045  33.353  33.891  13.786
59446W        W30046  30.160  34.071  14.068
59447W        W30047  28.389  28.657   0.827
59448W        W30048   6.766   4.412   3.669
59449W        W30049  25.463  33.406  12.018
59450W        W30050   6.407   8.921  11.532
59451W        W30051  19.468  27.826   5.509
59452W        W30052   8.366   6.423   2.782
59453W        W30053  21.491  15.352   2.328
59454W        W30054   9.138  37.530   2.789
59455W        W30055  26.730  16.932  14.731
59456W        W30056   6.658  26.016  11.110
59457W        W30057  21.278  43.225   3.531
59458W        W30058  23.803  36.912   3.569
59459W        W30059  16.688  32.047  10.358
59460W        W30060   4.195  20.663  11.556
59461W        W30061   8.917  24.050   2.483
59462W        W30062  36.009   3.394  11.114
59463W        W30063  29.924  33.091   2.159
59464W        W30064  42.227  16.748  12.797
59465W        W30065  41.982  16.083   3.812
59466W        W30066  43.882   1.436  12.427
59467W        W30067  19.225   5.273  12.981
59468W        W30068  17.480  23.576   1.371
59469W        W30069  22.788  18.477  11.551
59470W        W30070  37.789   3.755  14.919
59471W        W30071  17.703  37.951  12.034
59472W        W30072   9.473  23.279   4.150
59473W        W30073  13.362  20.093   3.662
59474W        W30074   4.381  34.990   4.804
59475W        W30075  28.655  15.888  12.158
59476W        W30076   9.344   3.196  12.442
59477W        W30077   9.388  31.382  10.701
59478W        W30078  30.152  32.101  12.010
59479W        W30079  31.422   6.378  12.947
59480W        W30080  34.246  29.962  14.775
59481W        W30081  11.870   7.421   5.159
59482W        W30082   9.567  38.901   0.074
59483W        W30083   2.311   1.113   1.190
59484W        W30084   8.710  31.867   4.456
59485W        W30085   5.056  14.083   3.136
59486W        W30086  19.625   5.410  13.961
59487W        W30087  11.221  28.517   3.782
59488W        W30088  39.327  15.652  14.424
59489W        W30089  17.479  29.571  11.896
59490W        W30090  23.147  29.654  13.598
59491W        W30091  26.142  34.040   2.833
59492W        W30092   4.462  44.109  10.975
59493W        W30093  31.000  35.324  11.134
59494W        W30094   0.101  24.163  10.605
59495W        W30095  41.283  41.880   4.641
59496W        W30096  10.122  31.646   3.397
59497W        W30097  20.644  23.110   0.281
59498W        W30098  25.284  43.799  14.753
59499W        W30099  35.073  30.152  13.556
59500W        W30100   7.899  35.319  14.036
59501W        W30101  31.991  44.272   0.931
59502W        W30102  11.205  19.101   0.283
59503W        W30103  44.056  32.491   0.351
59504W        W30104  10.577   3.720  14.485
59505W        W30105  25.088  35.841  14.275
59506W        W30106   3.440   6.009  14.479
59507W        W30107  13.509  33.637  13.384
59508W        W30108  10.345  40.964   3.003
59509W        W30109  34.773   3.985   4.377
59510W        W30110  40.484  30.640  10.389
59511W        W30111  23.722  23.430   3.755
59512W        W30112  43.733  43.183   1.765
59513W        W30113  13.611  12.102   2.880
59514W        W30114  11.685  43.718   1.858
59515W        W30115   1.303  18.633   4.370
59516W        W30116  27.607  40.526  10.587
59517W        W30117  35.984  43.918  14.782
59518W        W30118  26.638  16.179   2.809
59519W        W30119  31.722  16.046   3.171
59520W        W30120  16.126  21.440   2.915
59521W        W30121  40.602  12.866  10.716
59522W        W30122  30.964  40.723  14.723
59523W        W30123   3.364   0.493   3.625
59524W        W30124  18.829   2.221  11.892
59525W        W30125  13.578  35.474   2.915
59526W        W30126  32.604   7.399   4.683
59527W        W30127  25.148  14.980  14.999
59528W        W30128  27.203   7.137   3.302
59529W        W30129  42.006  37.229   4.118
59530W        W30130   4.849  27.459  13.941
59531W        W30131  18.850  38.381   2.232
59532W        W30132  43.284   6.555   3.356
59533W        W30133  10.230  24.470   2.208
59534W        W30134   7.329  16.644   2.806
59535W        W30135  22.630  13.581   4.663
59536W        W30136  43.490  24.023  11.469
59537W        W30137  24.637  17.536  13.839
59538W        W30138   7.292  32.128  11.984
59539W        W30139  23.267  26.751  11.209
59540W        W30140  38.377  38.806  13.036
59541W        W30141  20.283  23.526   2.690
59542W        W30142  12.301  36.570   2.891
59543W        W30143  20.751  26.050   3.269
59544W        W30144  13.547  19.638   0.280
59545W        W30145   0.746  32.118  11.534
59546W        W30146  11.299  27.624   1.386
59547W        W30147  32.110  14.293   2.416
59548W        W30148  20.183  21.678  11.442
59549W        W30149   0.390  23.880  11.220
59550W        W30150  18.899   2.966   0.847
59551W        W30151  29.885  33.663   3.753
59552W        W30152  38.331  32.353  11.503
59553W        W30153  25.838  29.014   1.337
59554W        W30154   0.908  28.324   2.261
59555W        W30155  42.461  40.776  12.078
59556W        W30156  17.276  40.915  12.672
59557W        W30157  16.185  30.440   3.769
59558W        W30158  23.860  32.456   2.742
59559W        W30159  32.608   7.298  11.538
59560W        W30160  32.907   4.842   3.246
59561W        W30161  39.518   5.367   2.912
59562W        W30162   4.661  36.983  14.219
59563W        W30163  21.731  36.741   0.338
59564W        W30164  28.728   5.273  11.919
59565W        W30165   8.795  27.388   2.870
59566W        W30166  22.485  43.932  13.481
59567W        W30167   7.554  14.281   3.584
59568W        W30168  28.495  25.451   0.761
59569W        W30169  26.959  16.104  14.783
59570W        W30170  20.342  24.865  11.103
59571W        W30171  18.737  16.702  14.480
59572W        W30172  43.270  30.600   0.088
59573W        W30173   1.161   7.718   2.794
59574W        W30174   3.252  35.947   4.111
59575W        W30175  36.881  44.417  13.912
59576W        W30176   1.314  34.683  11.978
59577W        W30177  23.263  20.719   3.802
59578W        W30178  40.606  40.303   1.306
59579W        W30179  23.733   1.782   4.404
59580W        W30180   7.779  43.550   3.144
59581W        W30181  27.364  36.918  12.526
59582W        W30182  24.459  35.510  14.703
59583W        W30183  35.332  36.012  14.290
59584W        W30184  13.547   9.604   2.249
59585W        W30185  11.629  39.680  13.163
59586W        W30186  32.005   7.698   1.454
59587W        W30187  29.557  44.309  14.021
59588W        W30188  26.013  24.903   3.762
59589W        W30189  32.953  29.612   0.700
59590W        W30190  11.634  40.265   4.688
59591W        W30191  39.852  30.512   2.724
59592W        W30192   3.733  20.681   0.501
59593W        W30193  13.808  28.443   0.754
59594W        W30194  31.477  33.141  13.932
59595W        W30195  34.058  32.231  11.109
59596W        W30196   7.593  30.903   0.912
59597W        W30197   6.258  24.727  11.215
59598W        W30198  23.557   1.958  11.618
59599W        W30199  37.228  35.791  13.306
59600W        W30200  23.944  10.939  12.447
59601W        W30201   3.866  12.582   0.762
59602W        W30202  10.478  40.376  12.508
59603W        W30203  33.599  37.874  10.731
59604W        W30204  37.771  35.968   2.235
59605W        W30205  21.541  30.044   3.349
59606W        W30206   9.679   5.848   0.819
59607W        W30207  38.767   6.769   0.449
59608W        W30208  22.276  36.024  12.463
59609W        W30209  13.113  23.762  14.509
59610W        W30210  22.977  17.309  14.318
59611W        W30211  23.776  41.960  11.109
59612W        W30212   3.562  30.030   5.011
59613W        W30213   4.714  42.377  14.925
59614W        W30214  26.243  18.329   2.402
59615W        W30215  40.088   5.689   1.285
59616W        W30216   2.041  23.548   0.017
59617W        W30217  21.708   4.321  14.772
59618W        W30218  38.549  37.515   4.640
59619W        W30219  35.423  28.187   0.754
59620W        W30220  14.265  40.416   9.984
59621W        W30221  44.518  32.568  10.674
59622W        W30222  24.405  18.526   0.996
59623W        W30223  38.813  36.237  10.123
59624W        W30224  33.952  22.183  14.486
59625W        W30225  15.023   5.229  14.344
59626W        W30226  37.933  34.442   4.161
59627W        W30227  32.161  39.080   4.601
59628W        W30228  41.109  13.021   0.350
59629W        W30229   3.186  22.505   0.517
59630W        W30230  39.319  19.753   1.761
59631W        W30231   1.382   4.696  14.927
59632W        W30232  27.189  10.277   2.296
59633W        W30233  23.702  11.546  10.972
59634W        W30234  10.703  29.213   4.213
59635W        W30235  17.605  23.009   4.112
59636W        W30236  27.513  26.274   0.357
59637W        W30237  35.440  11.901  13.579
59638W        W30238  44.572  20.070   2.868
59639W        W30239   1.252  31.059   4.566
59640W        W30240   2.143   6.442   1.776
59641W        W30241   6.886   2.790   0.426
59642W        W30242  27.408  31.507   0.483
59643W        W30243   4.818  27.094   0.854
59644W        W30244  24.720   3.986  14.887
59645W        W30245  26.642  38.962  13.944
59646W        W30246  40.459   4.205  13.452
59647W        W30247  31.920  15.685  10.866
59648W        W30248  40.753   1.457  14.271
59649W        W30249  36.866  14.273  12.831
59650W        W30250  41.825  37.933   1.352
59651W        W30251  15.621   5.957   0.797
59652W        W30252  12.773  22.984   2.948
59653W        W30253  44.902   7.553   0.198
59654W        W30254  20.024   0.305   4.677
59655W        W30255  10.402  38.853  13.009
59656W        W30256   3.505  19.056  11.150
59657W        W30257  11.445  29.085   0.718
59658W        W30258   3.215  12.362   1.188
59659W        W30259   2.679  43.868  10.742
59660W        W30260  30.515  44.269  10.607
59661W        W30261  21.978  39.400   3.560
59662W        W30262  38.025  40.294   1.366
59663W        W30263  31.691   8.914   2.165
59664W        W30264  12.206  23.927  13.047
59665W        W30265   8.700   4.511  11.526
59666W        W30266  28.512  30.934   3.415
59667W        W30267  21.583  27.545   0.099
59668W        W30268  26.645  32.063   3.353
59669W        W30269  13.081   1.920  14.743
59670W        W30270  44.342  19.426   4.820
59671W        W30271  33.185  42.993  11.908
59672W        W30272   6.991  38.307   0.811
59673W        W30273  43.879  44.012   1.420
59674W        W30274  36.364  29.167  10.750
59675W        W30275  22.450  38.138  14.436
59676W        W30276  30.601  39.975   2.672
59677W        W30277  20.587  19.424   1.852
59678W        W30278  40.912  13.205  14.892
59679W        W30279  42.378   3.793   0.680
59680W        W30280  38.488  42.024  13.569
59681W        W30281  40.927  19.325  12.103
59682W        W30282   8.852  34.805   0.323
59683W        W30283  25.512  42.239   2.813
59684W        W30284  41.871  22.624   3.773
59685W        W30285  41.348  16.312   2.768
59686W        W30286  32.816  21.051   3.286
59687W        W30287  28.891  43.770  14.404
59688W        W30288  16.137  10.706  13.931
59689W        W30289   2.276  31.411   2.856
59690W        W30290  22.430  30.121  13.458
59691W        W30291   3.984   7.486  13.270
59692W        W30292  40.223  35.105  12.367
59693W        W30293  18.090  44.399  12.069
59694W        W30294  36.838   9.316  12.363
59695W        W30295  36.882  24.188   0.326
59696W        W30296   0.545  23.204  10.721
59697W        W30297  30.795  19.095   4.649
59698W        W30298  40.037  24.997   4.668
59699W        W30299  42.031  13.892   2.702
59700W        W30300  28.635  27.864   3.285
59701W        W30301  19.730  20.688   4.852
59702W        W30302   7.085  28.141   4.635
59703W        W30303  26.486  26.002  14.256
59704W        W30304  37.627   7.204  10.678
59705W        W30305  12.099   6.765   0.908
59706W        W30306  44.940  41.223   0.817
59707W        W30307  24.865  35.764   1.719
59708W        W30308   9.800  12.166   4.465
59709W        W30309  31.634  13.779  14.848
59710W        W30310   0.920  17.249  11.375
59711W        W30311   7.420  39.663  11.890
59712W        W30312   4.377   5.033   3.730
59713W        W30313   5.762  22.675  11.101
59714W        W30314  10.021   6.691  13.391
59715W        W30315  40.269  33.662  14.731
59716W        W30316  18.310  35.068  13.143
59717W        W30317  37.742  23.616   0.303
59718W        W30318  31.015  10.516   2.762
59719W        W30319  20.063  37.150   0.922
59720W        W30320   8.148  10.849   0.272
59721W        W30321  38.999   2.458   0.467
59722W        W30322   0.780   2.841   2.434
59723W        W30323  29.371  26.432   0.607
59724W        W30324  37.674  31.072   0.395
59725W        W30325  38.066  24.244  14.515
59726W        W30326   3.687   9.361  13.473
59727W        W30327  41.333   6.403  12.845
59728W        W30328   0.352  42.878   0.457
59729W        W30329  30.105   3.877   3.750
59730W        W30330  39.322   3.933  12.805
59731W        W30331  41.969  25.796   4.692
59732W        W30332  37.147  15.328   1.865
59733W        W30333  27.502  36.215   4.666
59734W        W30334  19.288  34.839   1.877
59735W        W30335  10.961  30.699  11.961
59736W        W30336   0.870  17.214  11.877
59737W        W30337  17.321  35.090   0.929
59738W        W30338  17.330  38.085   1.343
59739W        W30339   8.717   7.054   3.241
59740W        W30340  17.678  37.519  11.198
59741W        W30341  41.327  25.625  10.601
59742W        W30342  22.884   8.822   1.577
59743W        W30343   7.621  32.837   0.409
59744W        W30344  41.828  24.176  11.242
59745W        W30345  39.139   9.864  12.511
59746W        W30346   1.275   0.926  11.436
59747W        W30347  42.460  11.858  14.889
59748W        W30348  39.415  31.926   4.159
59749W        W30349  34.046  14.846   0.417
59750W        W30350   6.105  41.810   0.195
59751W        W30351  11.264  24.449   0.897
59752W        W30352  36.411   3.973  14.994
59753W        W30353  41.078  28.931  14.502
59754W        W30354  13.462  11.017   1.393
59755W        W30355  41.741  42.605   2.177
59756W        W30356  17.564  19.944   1.333
59757W        W30357  25.126   9.398  14.809
59758W        W30358  24.010  19.315  11.484
59759W        W30359  16.221  33.181  11.183
59760W        W30360  18.647   2.857   5.431
59761W        W30361  39.736  14.584  14.954
59762W        W30362  11.256  38.216   3.812
59763W        W30363  27.620  15.170  13.450
59764W        W30364  27.477  34.528   3.622
59765W        W30365  35.969  13.869   1.386
59766W        W30366  10.148  14.884  12.885
59767W        W30367  23.569  32.474  13.604
59768W        W30368   5.129  20.224  14.375
59769W        W30369  37.132  13.096   2.308
59770W        W30370  36.926  16.674  14.214
59771W        W30371  19.449   3.162  14.329
59772W        W30372  32.485  31.346   4.492
59773W        W30373  18.648  23.461  13.013
59774W        W30374  14.397  32.635  11.090
59775W        W30375  37.817  32.875   0.232
59776W        W30376  21.716  17.636   2.600
59777W        W30377  28.212  14.128  12.480
59778W        W30378  37.908  17.309  11.524
59779W        W30379  39.886  33.961   0.604
59780W        W30380  35.405  27.855  12.067
59781W        W30381  26.269  15.573  12.890
59782W        W30382  26.239  38.456   4.901
59783W        W30383  42.560  32.612  13.564
59784W        W30384  14.826  39.803   4.622
59785W        W30385  27.133  27.938   1.661
59786W        W30386  30.127  19.789  12.304
59787W        W30387  21.069  21.663  11.976
59788W        W30388  35.968   0.373   2.375
59789W        W30389  10.136  28.614  12.733
59790W        W30390  32.270   2.478   4.720
59791W        W30391  31.163  28.615  10.640
59792W        W30392  19.659  16.631   3.587
59793W        W30393  37.830  43.863   1.412
59794W        W30394  23.780   7.176  10.234
59795W        W30395   0.526   0.460   3.306
59796W        W30396   4.734  14.130  12.110
59797W        W30397   1.289  37.576  13.482
59798W        W30398  16.375  28.927  10.155
59799W        W30399  18.398   6.275   2.844
59800W        W30400  16.162  23.236  11.112
59801W        W30401   2.183  31.515  11.987
59802W        W30402  42.547  30.963  13.791
59803W        W30403  43.976  13.743   3.397
59804W        W30404  19.590  25.011   0.903
59805W        W30405  37.427  38.022  12.510
59806W        W30406  31.405  21.829  12.620
59807W        W30407  12.845  40.017  12.549
59808W        W30408  27.206  26.680  12.966
59809W        W30409  24.343  33.193  12.009
59810W        W30410  39.264  16.107   4.047
59811W        W30411  17.216  44.115  12.601
59812W        W30412  11.550  16.255   3.583
59813W        W30413  17.123  26.785  12.004
59814W        W30414   1.230  44.521  12.938
59815W        W30415  29.482  18.599  12.956
59816W        W30416  26.027  40.854   3.230
59817W        W30417  28.937  26.176  13.058
59818W        W30418  34.886   7.145   4.326
59819W        W30419  44.292  19.681   0.223
59820W        W30420  14.581   7.774  14.526
59821W        W30421  44.738  35.985  14.436
59822W        W30422  22.367  20.009   4.129
59823W        W30423   7.763  31.510   3.478
59824W        W30424  35.099  23.599   0.894
59825W        W30425  30.705   5.981  13.472
59826W        W30426   1.065  40.476  11.588
59827W        W30427  33.358   0.705  14.276
59828W        W30428  25.553   9.543   1.313
59829W        W30429  28.429  12.897  13.906
59830W        W30430  10.321  14.719   0.401
59831W        W30431  43.506  31.404  12.450
59832W        W30432  32.645  41.513   0.169
59833W        W30433   6.953  25.706   2.132
59834W        W30434   2.203   1.894   1.758
59835W        W30435  44.761   5.716  14.598
59836W        W30436  32.338  17.731   3.660
59837W        W30437  43.901  17.171   3.840
59838W        W30438  38.742   7.210  13.963
59839W        W30439  43.719  31.481   3.567
59840W        W30440  24.198  19.144   0.668
59841W        W30441  29.470   1.335   0.782
59842W        W30442  24.610  21.542  10.828
59843W        W30443   6.749  14.795  13.742
59844W        W30444   6.142  24.979   2.000
59845W        W30445  27.183  42.969   5.013
59846W        W30446   2.474  15.306  14.896
59847W        W30447   7.125  20.162   1.155
59848W        W30448  27.612  42.955  14.548
59849W        W30449  25.140  29.936   3.601
59850W        W30450   8.314  41.505  13.961
59851W        W30451  22.264   1.296  11.015
59852W        W30452  15.576  36.887  12.552
59853W        W30453  33.570   9.635  11.123
59854W        W30454   6.201  41.009   3.246
59855W        W30455  13.063   4.895  12.546
59856W        W30456  23.700  44.371  12.075
59857W        W30457   9.982  15.280  13.385
59858W        W30458  42.752   6.707   2.143
59859W        W30459  11.614  14.583  11.130
59860W        W30460   9.869   0.223   3.715
59861W        W30461   6.536  36.057  12.534
59862W        W30462  38.459  16.280  10.979
59863W        W30463  43.912  22.325  11.559
59864W        W30464  12.630  33.494   0.258
59865W        W30465  39.069   0.886  11.966
59866W        W30466  28.616   2.493   0.004
59867W        W30467  43.391  41.043  14.472
59868W        W30468  18.867  39.383  11.083
59869W        W30469  23.750  33.558   4.296
59870W        W30470   4.281  23.629  14.421
59871W        W30471   2.317   4.644   2.360
59872W        W30472  30.077  27.683  12.129
59873W        W30473  29.648  12.429  11.818
59874W        W30474  17.194  44.087   4.581
59875W        W30475   7.676  28.088  12.119
59876W        W30476  29.390  24.167   2.646
59877W        W30477   2.963  26.020  11.868
59878W        W30478  26.760  19.488   4.280
59879W        W30479  41.148  28.951  10.942
59880W        W30480  29.399   3.674   4.227
59881W        W30481  32.565  29.747   4.620
59882W        W30482  35.383  33.899   1.386
59883W        W30483  29.348  42.071  12.953
59884W        W30484   9.802  18.330  12.004
59885W        W30485  21.491  10.746  14.353
59886W        W30486  33.086   8.603   4.225
59887W        W30487  38.779  20.241  13.793
59888W        W30488  44.384   8.500   0.840
59889W        W30489  17.731  25.250   1.064
59890W        W30490  33.541   3.451   2.407
59891W        W30491  16.827  16.629  13.097
59892W        W30492  34.486  26.602   0.865
59893W        W30493  37.370  14.225  11.203
59894W        W30494  41.417  31.448  11.698
59895W        W30495  37.800   6.918   0.328
59896W        W30496  33.907  37.874  11.139
59897W        W30497  12.445  40.079  13.840
59898W        W30498  18.724   0.737   1.330
59899W        W30499  23.536  20.249  10.441
59900W        W30500  42.970  14.734   1.444
59901W        W30501  27.285  22.521  14.426
59902W        W30502   0.679   8.908   2.308
59903W        W30503  39.757  26.755  12.868
59904W        W30504  32.092  23.889   3.617
59905W        W30505  38.220  23.669   2.301
59906W        W30506   4.772  25.738   1.772
59907W        W30507  13.690  36.459  14.485
59908W        W30508  31.374  19.691  10.619
59909W        W30509  34.763   0.941  13.024
59910W        W30510  33.997  38.525   0.210
59911W        W30511  24.548  29.987   1.483
59912W        W30512  41.846  13.299   3.955
59913W        W30513   4.593   9.431  10.265
59914W        W30514  30.139  36.398   3.314
59915W        W30515   9.976  23.134   4.219
59916W        W30516  21.516  33.071  12.592
59917W        W30517   5.286  23.443   3.624
59918W        W30518   9.600  27.439   0.664
59919W        W30519  37.858   8.928  14.408
59920W        W30520  16.117  37.872   0.675
59921W        W30521  43.531  41.539  14.386
59922W        W30522  39.600  33.352  12.904
59923W        W30523   9.348  20.795   0.916
59924W        W30524   2.938  33.959  11.738
59925W        W30525  18.731  15.228   4.058
59926W        W30526   8.369  27.333   1.241
59927W        W30527   1.390  43.411   0.797
59928W        W30528  43.589   4.546   3.753
59929W        W30529  11.323  41.502  11.480
59930W        W30530  27.006  28.405  12.449
59931W        W30531  26.671   9.862   1.753
59932W        W30532  37.942  26.236   0.862
59933W        W30533  41.880   9.809  11.961
59934W        W30534  25.096   4.968   4.241
59935W        W30535  13.610  23.922   2.242
59936W        W30536  32.853  40.096  12.502
59937W        W30537  14.040   8.402  14.704
59938W        W30538  34.800  40.340  14.184
59939W        W30539  23.472  32.006   1.291
59940W        W30540   1.291  32.523  14.822
59941W        W30541  14.016  11.718   4.762
59942W        W30542  28.904  15.690   0.566
59943W        W30543  23.629   5.988  12.559
59944W        W30544  23.532  41.523  12.696
59945W        W30545  16.808   2.740  11.988
59946W        W30546  31.953  34.566  11.914
59947W        W30547  20.485  32.731   0.419
59948W        W30548  38.780  29.882  13.939
59949W        W30549  33.402  36.766  14.458
59950W        W30550  40.790   8.333  11.143
59951W        W30551  28.007  39.457  12.907
59952W        W30552   1.695  30.192  14.875
59953W        W30553  34.188  35.310   1.302
59954W        W30554  36.998  24.209  13.469
59955W        W30555   2.359   4.954   1.941
59956W        W30556  35.286  15.680   4.874
59957W        W30557  37.999   7.401   3.204
59958W        W30558  15.617  32.557   0.909
59959W        W30559  19.839  34.103   2.036
59960W        W30560   8.637  31.619  12.841
59961W        W30561  11.480  24.226   1.325
59962W        W30562  23.118  34.894   4.005
59963W        W30563   5.432   2.811  14.813
59964W        W30564  16.163  20.915   3.770
59965W        W30565  29.571  41.902   1.252
59966W        W30566  41.867   8.233   2.666
59967W        W30567  38.351   3.223   3.028
59968W        W30568  10.125  17.687   0.470
59969W        W30569  23.662  27.675   2.339
59970W        W30570   2.713  18.330  13.653
59971W        W30571  32.417  10.153   0.850
59972W        W30572  44.143  30.949   3.594
59973W        W30573  10.151  16.317  13.022
59974W        W30574  44.894  42.133  14.367
59975W        W30575  14.699  25.730  13.045
59976W        W30576   2.454  10.177   4.911
59977W        W30577   1.817  14.080   4.339
59978W        W30578  42.574  21.098   1.378
59979W        W30579  26.749  16.296   1.419
59980W        W30580   8.319   9.426   3.144
59981W        W30581   0.451  17.550  13.948
59982W        W30582   5.861  14.101   0.564
59983W        W30583   9.548  22.991   0.019
59984W        W30584  20.276  24.083  14.571
59985W        W30585  34.070  16.782   1.862
59986W        W30586   5.837   8.073   0.263
59987W        W30587  39.749   5.934   5.194
59988W        W30588   5.949  27.249  14.936
59989W        W30589  29.436  20.666  10.653
59990W        W30590  15.223   5.176   0.850
59991W        W30591  27.654  40.987  14.406
59992W        W30592  23.781   5.086   0.920
59993W        W30593  14.956  15.201   1.904
59994W        W30594  38.748   4.763   4.497
59995W        W30595  28.054   7.892   4.853
59996W        W30596   1.184  11.902  14.738
59997W        W30597  31.088  23.470   3.893
59998W        W30598   1.276  19.584   2.771
59999W        W30599  14.720  19.712  14.961
60000W        W30600  36.096  41.297   2.671
60001W        W30601   9.670  20.208   4.336
60002W        W30602  31.579  19.421   4.592
60003W        W30603   7.418  39.873  13.640
60004W        W30604  12.578  16.808   0.843
60005W        W30605  23.156   1.142  12.901
60006W        W30606  20.813   8.278  14.970
60007W        W30607  28.476  15.532  12.520
60008W        W30608  36.390  29.647   2.618
60009W        W30609  37.972  24.573  13.611
60010W        W30610  14.162   4.039   3.335
60011W        W30611  32.892  22.202  11.668
60012W        W30612  28.479  16.720   4.659
60013W        W30613  18.515  13.133  11.662
60014W        W30614  33.598   8.823   2.855
60015W        W30615   0.981  18.276  11.719
60016W        W30616  30.626  27.484  14.796
60017W        W30617  27.685  44.687   3.143
60018W        W30618  18.828   3.301   2.871
60019W        W30619  15.762  16.861   1.890
60020W        W30620  26.394  33.801  11.994
60021W        W30621  30.158  39.380  12.399
60022W        W30622  35.317  31.847  13.867
60023W        W30623   6.859   2.750  14.343
60024W        W30624  35.442  31.112   0.734
60025W        W30625  41.270  24.436  14.615
60026W        W30626  20.575  22.589   2.892
60027W        W30627   5.885  32.889   4.237
60028W        W30628   5.165  34.104   1.665
60029W        W30629   8.670  35.339  12.512
60030W        W30630  13.349  15.152  14.513
60031W        W30631  26.224   9.429   4.429
60032W        W30632  25.639   0.374  14.339
60033W        W30633  44.409   1.966  13.074
60034W        W30634  35.079  21.686   2.348
60035W        W30635   5.491  32.508  11.128
60036W        W30636  11.059  37.056  12.889
60037W        W30637  28.192  41.434   3.348
60038W        W30638  15.093  34.615  12.896
60039W        W30639  27.676  27.616  12.542
60040W        W30640  18.530  44.708   2.268
60041W        W30641  21.327  44.144   2.303
60042W        W30642   5.262  36.285  11.627
60043W        W30643  34.419  21.990  11.421
60044W        W30644  29.075  26.645   3.408
60045W        W30645  28.003   6.953  10.686
60046W        W30646  35.527   2.938   1.492
60047W        W30647  44.331   6.808   2.789
60048W        W30648  10.102  32.959  10.677
60049W        W30649  37.487   5.219  12.893
60050W        W30650  11.759  35.083  10.738
60051W        W30651   7.751  23.730  10.664
60052W        W30652  17.425  17.820  13.551
60053W        W30653  43.833  34.651   1.299
60054W        W30654  23.730   2.656   3.938
60055W        W30655   6.108  43.241   4.564
60056W        W30656  42.102  27.680   2.302
60057W        W30657  31.169  37.522  12.897
60058W        W30658  15.380  13.086   1.882
60059W        W30659  21.907  19.553   2.197
60060W        W30660   0.781  27.069  12.616
60061W        W30661   3.310  40.489   2.433
60062W        W30662  11.626  23.698   4.155
60063W        W30663  22.827   3.379  11.648
60064W        W30664  20.074  33.399  14.055
60065W        W30665  28.197  10.376   1.463
60066W        W30666   4.256   6.395  10.813
60067W        W30667  26.037  26.190  14.496
60068W        W30668  38.555  39.399  11.926
60069W        W30669   9.880  10.213   0.306
60070W        W30670  27.741   2.037  14.805
60071W        W30671  18.994  28.419   3.139
60072W        W30672   1.890  21.703   4.878
60073W        W30673  21.611  44.879  11.691
60074W        W30674  42.804  30.685   0.420
60075W        W30675  11.819  16.383   4.492
60076W        W30676  24.769  28.035   1.372
60077W        W30677   6.771   8.079   0.334
60078W        W30678  31.588  32.926  11.126
60079W        W30679   3.351  39.012  14.377
60080W        W30680  37.291   7.370   4.384
60081W        W30681  27.698   7.507   0.540
60082W        W30682  38.966   3.946  10.576
60083W        W30683   7.725   2.736  11.793
60084W        W30684   3.933  23.025   1.048
60085W        W30685  29.211  20.400  14.517
60086W        W30686  10.947  31.032  11.419
60087W        W30687  21.076  35.610  12.041
60088W        W30688  36.330  11.372   1.543
60089W        W30689  27.226  29.664   3.681
60090W        W30690  18.426  23.740   0.212
60091W        W30691   9.982  24.990  12.028
60092W        W30692  21.089  39.125   1.948
60093W        W30693  28.537  26.030  11.886
60094W        W30694  20.064   2.041   4.171
60095W        W30695  31.127  39.463  13.352
60096W        W30696  23.088  40.397   2.791
60097W        W30697  33.905  27.375  11.986
60098W        W30698  12.368  33.849  10.870
60099W        W30699  35.467  42.816   3.205
60100W        W30700  18.063   2.245  13.446
60101W        W30701   0.345  40.334   2.257
60102W        W30702  28.867  16.194  13.916
60103W        W30703  15.006  44.509   2.838
60104W        W30704   4.814  16.637   3.722
60105W        W30705  26.649   7.065  11.439
60106W        W30706  23.779  20.861  14.500
60107W        W30707  20.823  29.829   2.058
60108W        W30708   9.199  28.089  10.879
60109W        W30709  40.797  22.443   1.448
60110W        W30710  30.493  10.824  13.266
60111W        W30711  15.633  43.875   3.184
60112W        W30712  12.797   8.851   1.261
60113W        W30713  34.467  31.863   2.218
60114W        W30714  40.321  38.326  13.463
60115W        W30715   9.160  15.225   0.758
60116W        W30716   6.116  17.101   2.699
60117W        W30717  15.250  19.008  11.499
60118W        W30718   6.718  18.286   2.290
60119W        W30719   4.221   9.845   3.664
60120W        W30720  39.913   4.403  14.969
60121W        W30721  10.977   2.262  11.208
60122W        W30722  35.547  41.717  11.212
60123W        W30723  21.103  18.564   0.940
60124W        W30724   1.463  44.477   3.258
60125W        W30725   6.672  13.360  13.026
60126W        W30726  43.379  18.453  10.003
60127W        W30727  17.128  39.087  10.652
60128W        W30728  39.843  41.266   2.731
60129W        W30729  25.164  31.346  11.111
60130W        W30730   6.259   7.954  14.484
60131W        W30731  10.783  18.387  13.664
60132W        W30732   8.083  10.340   0.093
60133W        W30733  28.910   1.432   0.788
60134W        W30734  17.206  26.468   0.956
60135W        W30735  28.978  15.823  11.491
60136W        W30736  13.549   0.892   4.229
60137W        W30737  22.600   9.659  12.121
60138W        W30738  19.074  40.038   3.620
60139W        W30739  38.468  38.083  13.499
60140W        W30740  36.938  29.640  11.230
60141W        W30741  22.697  28.519   4.070
60142W        W30742  10.440   3.413   2.674
60143W        W30743  37.633  13.133   2.310
60144W        W30744   2.205  26.778  13.795
60145W        W30745   5.512  21.129   4.235
60146W        W30746   3.457  28.432  12.146
60147W        W30747   0.955   6.240  10.795
60148W        W30748   7.276  14.820   2.217
60149W        W30749  31.255  18.364   1.221
60150W        W30750  33.490  32.165   4.976
60151W        W30751  23.224  13.799  13.060
60152W        W30752  14.744  30.632  12.088
60153W        W30753  25.598  34.050   1.487
60154W        W30754  19.689   8.663  11.891
60155W        W30755  22.543  43.453   1.930
60156W        W30756  11.298   9.197   1.306
60157W        W30757  10.594  14.981   4.904
60158W        W30758  21.599  23.919   4.560
60159W        W30759  30.467   1.980  12.092
60160W        W30760  14.903  20.121   4.136
60161W        W30761  39.515  13.180   1.207
60162W        W30762  17.885   5.878   3.220
60163W        W30763  12.494  27.680  13.699
60164W        W30764  13.582   7.207  13.830
60165W        W30765  16.303  17.605   2.761
60166W        W30766   3.240  13.936  13.022
60167W        W30767  23.778  39.271   2.838
60168W        W30768  44.243  12.309  10.631
60169W        W30769   7.319  40.937  12.799
60170W        W30770   5.472   9.701  12.115
60171W        W30771  44.817  42.270  11.105
60172W        W30772  10.146  33.153  12.471
60173W        W30773  10.232  37.678  10.618
60174W        W30774  19.213  12.323   3.823
60175W        W30775   5.183   1.150   2.386
60176W        W30776  18.827  11.405   4.405
60177W        W30777  29.807  20.020   0.296
60178W        W30778  43.731   3.442   0.472
60179W        W30779   6.486  39.667  12.005
60180W        W30780  36.607  23.535  13.778
60181W        W30781  23.586  19.588  11.401
60182W        W30782  18.581  34.033   0.245
60183W        W30783   0.475  33.583  14.291
60184W        W30784   7.641  13.876   1.266
60185W        W30785   7.908  10.956  11.495
60186W        W30786  11.677  28.680   3.576
60187W        W30787  26.127   3.723   2.386
60188W        W30788   4.517  18.728  13.925
60189W        W30789  25.130   1.644   0.849
60190W        W30790   6.207  40.586   4.556
60191W        W30791   2.459  42.010   2.115
60192W        W30792  30.477  13.839  10.457
60193W        W30793  33.981  18.212   3.066
60194W        W30794   1.287   8.420   4.332
60195W        W30795  19.488  17.585  10.713
60196W        W30796  17.517  13.201  14.816
60197W        W30797  32.337  32.444   3.768
60198W        W30798  34.168  19.139   2.399
60199W        W30799  30.070  23.524  10.663
60200W        W30800  10.272  20.709   1.308
60201W        W30801   8.968   9.950   2.708
60202W        W30802  28.155  23.387  13.465
60203W        W30803   2.671   2.669  11.880
60204W        W30804  10.344  30.967  13.021
60205W        W30805   5.708  21.291   2.333
60206W        W30806  17.101   4.519  13.140
60207W        W30807  31.561  33.636  13.890
60208W        W30808  42.623  18.134   3.365
60209W        W30809  14.708  13.497  12.043
60210W        W30810  19.730  17.256  14.783
60211W        W30811  26.421  21.042   3.710
60212W        W30812   1.094  28.183  14.325
60213W        W30813  10.155   4.209  13.567
60214W        W30814  41.438  14.325   0.337
60215W        W30815  24.338  43.566  11.873
60216W        W30816   9.302  29.967  13.908
60217W        W30817   9.795  30.049  14.043
60218W        W30818  41.918  44.718   2.625
60219W        W30819  14.665  19.927  11.208
60220W        W30820  16.637  28.907  12.892
60221W        W30821  21.702   9.796  10.747
60222W        W30822  32.556   3.459   4.521
60223W        W30823  37.416  34.627   3.733
60224W        W30824  43.231  10.437  13.270
60225W        W30825  40.086  23.023   0.172
60226W        W30826  15.000  10.671  10.842
60227W        W30827  43.997   8.280  13.514
60228W        W30828   5.268  12.560  11.830
60229W        W30829  27.997   6.191  14.252
60230W        W30830   7.110  17.373  14.317
60231W        W30831   6.721  39.440  12.417
60232W        W30832  27.519  23.183  14.935
60233W        W30833   4.737  17.017  14.782
60234W        W30834  20.416  13.909  13.186
60235W        W30835  29.312  39.794  11.711
60236W        W30836   9.031  17.209   0.864
60237W        W30837   6.853  18.078  14.758
60238W        W30838  10.850   6.511  14.219
60239W        W30839  37.221  27.042   3.609
60240W        W30840   3.340   5.734  13.821
60241W        W30841  29.655  21.367  12.855
60242W        W30842  28.698  23.789  11.552
60243W        W30843  31.882   5.938   4.588
60244W        W30844   5.390  42.265   4.659
60245W        W30845  24.587  38.539  10.663
60246W        W30846   0.402  37.643   2.815
60247W        W30847  19.006  44.568   2.022
60248W        W30848  20.341  26.327   3.372
60249W        W30849  28.024   1.625   4.133
60250W        W30850   1.938  11.423   2.424
60251W        W30851  38.526  17.351   4.518
60252W        W30852  18.921  14.967  13.440
60253W        W30853  31.971   1.549  13.292
60254W        W30854  33.963  38.239   2.804
60255W        W30855  20.272  38.177  12.570
60256W        W30856  44.051  32.608   4.370
60257W        W30857  21.304   5.022  12.422
60258W        W30858  44.333  28.524   4.228
60259W        W30859  37.354  44.394  12.851
60260W        W30860  29.606   3.157   1.259
60261W        W30861  31.550   1.374   1.660
60262W        W30862  30.905  22.952  12.210
60263W        W30863   3.232  36.567   3.201
60264W        W30864  25.228  16.577   0.801
60265W        W30865   3.850   6.708  14.188
60266W        W30866   0.111   9.026  12.906
60267W        W30867  20.564  12.355  11.031
60268W        W30868  21.084  12.301   3.451
60269W        W30869  28.504  27.355   3.263
60270W        W30870  26.492  23.292   4.077
60271W        W30871  10.187  32.461  10.684
60272W        W30872  31.014  31.748  13.474
60273W        W30873  44.839  35.330   1.314
60274W        W30874   4.219   7.014   2.933
60275W        W30875  21.061  31.233   3.742
60276W        W30876  44.422  36.799  14.408
60277W        W30877  36.127  20.133  12.513
60278W        W30878  33.997  22.175  12.401
60279W        W30879  13.080   1.796   4.298
60280W        W30880   4.886  44.776  14.710
60281W        W30881  30.620  30.438  11.391
60282W        W30882  24.978  29.601  11.606
60283W        W30883  23.955  26.414   4.941
60284W        W30884  12.749  14.706   4.074
60285W        W30885   7.181  25.111   3.270
60286W        W30886   3.729   3.207   2.915
60287W        W30887  36.090   2.338  11.136
60288W        W30888  24.930   0.427   4.611
60289W        W30889  38.415  37.915  12.195
60290W        W30890  22.657  22.080   1.434
60291W        W30891  40.954   5.779  12.189
60292W        W30892   6.010  27.631  10.710
60293W        W30893   9.819   4.879   2.225
60294W        W30894  12.116  31.822   2.098
60295W        W30895  40.516  38.087  11.298
60296W        W30896  15.761  25.379   0.385
60297W        W30897   2.980  22.300   4.129
60298W        W30898   1.274  10.976  14.937
60299W        W30899  18.230  31.954   1.782
60300W        W30900  12.245   5.225   2.721
60301W        W30901   5.187  29.677  12.617
60302W        W30902   6.411  38.455   2.719
60303W        W30903  28.893  11.566  13.317
60304W        W30904  11.185   4.940   4.572
60305W        W30905  17.145   7.406   3.115
60306W        W30906   4.827  43.513   1.853
60307W        W30907  17.068   7.096   1.613
60308W        W30908  42.627  32.173  14.327
60309W        W30909  35.548  19.398  14.033
60310W        W30910  26.976  43.832   2.301
60311W        W30911  41.402  34.009   1.867
60312W        W30912  40.502  17.502  12.537
60313W        W30913  44.986  24.867  14.330
60314W        W30914  10.159  32.113   4.771
60315W        W30915   7.842  33.999   0.746
60316W        W30916   8.095   0.103   4.757
60317W        W30917   3.058   8.391   2.842
60318W        W30918  14.189  29.490   2.931
60319W        W30919  14.814  22.737   2.428
60320W        W30920  10.332   8.252   0.743
60321W        W30921  31.678   5.526   4.836
60322W        W30922  10.709  33.831  13.847
60323W        W30923  10.704  39.909  10.598
60324W        W30924  16.815  34.989  12.296
60325W        W30925   6.299  15.170  12.911
60326W        W30926  29.997  35.859   0.062
60327W        W30927   1.048  16.949   1.885
60328W        W30928  19.310   1.749  13.591
60329W        W30929   2.235  36.792  10.752
60330W        W30930  24.606  37.883   0.945
60331W        W30931  29.630  28.067   1.741
60332W        W30932  23.998   8.828  11.042
60333W        W30933  23.050   5.280  10.771
60334W        W30934  22.274  33.092  14.864
60335W        W30935  41.985  32.095  13.374
60336W        W30936  10.710  30.234   4.228
60337W        W30937  40.909  32.222  11.990
60338W        W30938  41.335   2.712   3.118
60339W        W30939  18.705   4.745   4.991
60340W        W30940  10.141   8.862   4.573
60341W        W30941  24.222   9.531   4.913
60342W        W30942  38.863  14.074   4.586
60343W        W30943  32.817  41.039   2.832
60344W        W30944  22.009   5.713   2.380
60345W        W30945  37.558   5.932   1.893
60346W        W30946   7.327   5.394   0.902
60347W        W30947  31.072  13.730  14.190
60348W        W30948  34.657  19.602   1.835
60349W        W30949   7.358  40.755   3.635
60350W        W30950   8.265  34.372   0.037
60351W        W30951  42.922   7.381   3.203
60352W        W30952  35.100  23.131   0.020
60353W        W30953  44.108  14.871   1.673
60354W        W30954  27.717  16.092  12.053
60355W        W30955   6.659   8.791  12.916
60356W        W30956  33.202   9.647  14.878
60357W        W30957  28.745  26.555  11.635
60358W        W30958  34.431  37.815  11.126
60359W        W30959  15.354  18.340   3.217
60360W        W30960  16.583   9.538  12.477
60361W        W30961   1.943   2.247  11.658
60362W        W30962  22.222  26.102   2.958
60363W        W30963  16.861   9.581   2.771
60364W        W30964  17.862  42.799   2.655
60365W        W30965   1.876  13.812  14.422
60366W        W30966  25.041  42.353   2.499
60367W        W30967  41.303  24.317   0.982
60368W        W30968  15.783   5.383  11.372
60369W        W30969  32.024  25.613   3.310
60370W        W30970  20.704  11.219  12.511
60371W        W30971  36.586   2.499   0.030
60372W        W30972  10.423   4.385  12.951
60373W        W30973  17.979  35.765   0.862
60374W        W30974  24.015  19.065   3.188
60375W        W30975  17.751  29.517  13.435
60376W        W30976  22.654  32.517   3.236
60377W        W30977  12.999  41.963   9.710
60378W        W30978  16.557  28.506   1.667
60379W        W30979   0.852  44.716   1.035
60380W        W30980   6.305   4.106   1.403
60381W        W30981  36.448  33.082   2.769
60382W        W30982  38.082   9.703  13.396
60383W        W30983   6.817  24.136   3.294
60384W        W30984  40.352  12.318   0.863
60385W        W30985  34.570  39.900  13.984
60386W        W30986   7.432  23.959  14.054
60387W        W30987  24.064  24.574   2.215
60388W        W30988  31.944  35.535   4.690
60389W        W30989   3.589  34.174   2.347
60390W        W30990  42.003  36.897   1.317
60391W        W30991  17.982   5.229   3.829
60392W        W30992   8.735   5.419   3.680
60393W        W30993  11.809  43.776  13.772
60394W        W30994  12.852  31.547   0.457
60395W        W30995  42.502  35.903   3.729
60396W        W30996  28.007  39.841   2.229
60397W        W30997  29.330  11.272  13.284
60398W        W30998  37.903   7.182   0.763
60399W        W30999   7.153  11.066   2.763
60400W        W31000  38.982  36.356   3.452
60401W        W31001  10.387   1.213  14.428
60402W        W31002  23.996   2.093  10.730
60403W        W31003   3.317  17.816   2.149
60404W        W31004  42.519   2.490   3.176
60405W        W31005  40.064  23.757   2.437
60406W        W31006  38.305  43.393  13.402
60407W        W31007   9.858  12.771  13.659
60408W        W31008  17.478  18.292  14.900
60409W        W31009   6.215  32.554   1.801
60410W        W31010   0.624   3.222  14.651
60411W        W31011  28.142  30.502   3.405
60412W        W31012   0.308  42.015  14.041
60413W        W31013  10.038  40.362   2.259
60414W        W31014  21.485  11.759  12.925
60415W        W31015  13.199   1.003   0.278
60416W        W31016  32.182  40.331   4.097
60417W        W31017  33.761  41.544  11.836
60418W        W31018  23.140  11.432  12.071
60419W        W31019   6.381  13.840   0.768
60420W        W31020  17.815  32.889   3.357
60421W        W31021  28.113  17.658   0.535
60422W        W31022  41.384  21.349   3.798
60423W        W31023  25.374   8.257  11.473
60424W        W31024  42.972   3.696  14.963
60425W        W31025   4.500  21.872   1.794
60426W        W31026  42.985  34.643   2.256
60427W        W31027  25.544   9.920   1.874
60428W        W31028  23.014  42.862   2.380
60429W        W31029  22.180   9.663  14.013
60430W        W31030   9.919   0.258  12.061
60431W        W31031   8.160   0.914   3.301
60432W        W31032  20.444  11.932  14.604
60433W        W31033  30.515  17.800   3.619
60434W        W31034  17.151  28.363  12.720
60435W        W31035  26.741  19.470  14.676
60436W        W31036  39.247  35.378  14.053
60437W        W31037  35.999  38.217   4.318
60438W        W31038   5.996  19.914  12.803
60439W        W31039  18.167  36.354  14.539
60440W        W31040  34.920  14.617   3.259
60441W        W31041  37.980  12.200   3.233
60442W        W31042  29.249  19.716  12.956
60443W        W31043  36.289  16.518   1.385
60444W        W31044   1.284   6.285   1.936
60445W        W31045  12.770   0.694  11.053
60446W        W31046   3.663   1.419   2.786
60447W        W31047   5.913  22.762  14.315
60448W        W31048   7.931  35.953  11.629
60449W        W31049   2.993   4.137   1.152
60450W        W31050   4.207   8.831   1.035
60451W        W31051  14.611  21.298   5.040
60452W        W31052  38.038   6.759  14.861
60453W        W31053  42.020  25.663   3.147
60454W        W31054  12.641  39.703   3.762
60455W        W31055  37.404  15.627  12.879
60456W        W31056  11.421  37.423   2.193
60457W        W31057   7.444  22.158  10.641
60458W        W31058   4.176   5.845   1.377
60459W        W31059  13.692  19.749  14.258
60460W        W31060  18.713  39.744  14.854
60461W        W31061  20.025   8.504  12.255
60462W        W31062   8.528  23.062   0.295
60463W        W31063  13.919   6.364  14.563
60464W        W31064  16.816  39.416   0.633
60465W        W31065  18.484  39.360   3.222
60466W        W31066  14.182  15.467  12.037
60467W        W31067  26.546   1.210   2.681
60468W        W31068   5.703  24.422  13.451
60469W        W31069  34.406   6.108  10.485
60470W        W31070   5.859  16.175   4.026
60471W        W31071  10.810  43.071  14.469
60472W        W31072  38.018  32.495   1.444
60473W        W31073   5.770  43.875   3.711
60474W        W31074  39.996   8.321  11.655
60475W        W31075  19.171  12.737   3.490
60476W        W31076  32.291  34.559   0.051
60477W        W31077  19.695  25.528  14.510
60478W        W31078  15.241  24.627  13.583
60479W        W31079  24.986  23.951   0.939
60480W        W31080   7.779   8.633   0.293
60481W        W31081  38.518   7.783   4.537
60482W        W31082  35.575  41.050  13.913
60483W        W31083   0.746  42.882   3.037
60484W        W31084  28.182  43.706   0.690
60485W        W31085   2.384  43.003   3.631
60486W        W31086  11.510  10.145  12.039
60487W        W31087  29.487  29.323   0.888
60488W        W31088  39.405  26.603   1.236
60489W        W31089  17.357  28.125   4.124
60490W        W31090  31.125  25.077  13.447
60491W        W31091  15.728  38.584  12.892
60492W        W31092   1.443  40.309  14.381
60493W        W31093  14.595  13.405  14.897
60494W        W31094  19.490  42.344   4.630
60495W        W31095   0.937  21.156   0.247
60496W        W31096  27.019  30.588   2.435
60497W        W31097  36.329   7.344   2.646
60498W        W31098   9.319  30.169   4.528
60499W        W31099  42.054  28.520  12.928
60500W        W31100   9.585  19.255  13.389
60501W        W31101  42.741  29.181  11.630
60502W        W31102  28.837  28.728  13.748
60503W        W31103  13.571  12.258  13.942
60504W        W31104  34.512  39.681   4.717
60505W        W31105  33.690  37.767   2.713
60506W        W31106  17.030  40.466  13.886
60507W        W31107  29.876   2.204   4.253
60508W        W31108  18.186  30.869   2.315
60509W        W31109  33.158  39.015   4.170
60510W        W31110  12.392  37.483   4.607
60511W        W31111   7.445   7.339  13.388
60512W        W31112  36.655  30.557   5.063
60513W        W31113  29.170  42.793  14.838
60514W        W31114  28.894  16.603   2.758
60515W        W31115  26.331  26.056   3.707
60516W        W31116  15.026  38.497  11.570
60517W        W31117  39.351   6.853  13.128
60518W        W31118  33.276   2.202  12.289
60519W        W31119  31.367  11.211  12.413
60520W        W31120  16.427  10.230  11.152
60521W        W31121  23.959  35.671  11.543
60522W        W31122  24.739   9.028   4.144
60523W        W31123  37.391  20.135   3.307
60524W        W31124  26.629  19.461   2.254
60525W        W31125  17.126  21.745  11.622
60526W        W31126  21.326  12.225   4.744
60527W        W31127  13.696   6.457  14.089
60528W        W31128  23.656   5.235  12.069
60529W        W31129  36.225  14.736  12.370
60530W        W31130   2.250   4.905   4.222
60531W        W31131  27.963  34.230  12.982
60532W        W31132  24.500  23.715   4.665
60533W        W31133   6.214  28.928   0.296
60534W        W31134  21.235  28.986  14.365
60535W        W31135   7.857   0.472   3.307
60536W        W31136  14.474  33.326  11.562
60537W        W31137  17.680  44.807   1.686
60538W        W31138   9.857  12.858   0.967
60539W        W31139   8.263  21.464   2.428
60540W        W31140   0.058   6.397   2.278
60541W        W31141  24.017  29.998  11.850
60542W        W31142  18.190  39.734  13.336
60543W        W31143  23.464  30.507   2.332
60544W        W31144  35.873  13.037   1.260
60545W        W31145  19.182  13.223  14.374
60546W        W31146  43.886  44.759  14.283
60547W        W31147  31.436  28.060  12.661
60548W        W31148   3.419  23.231  13.128
60549W        W31149   1.182  33.484   3.759
60550W        W31150   8.103  28.047   4.935
60551W        W31151  30.567  34.083  11.100
60552W        W31152  32.076  18.160   3.676
60553W        W31153  31.606   6.427  14.375
60554W        W31154  10.726   4.311   3.119
60555W        W31155  18.044  37.083  11.071
60556W        W31156  17.344  17.169  13.871
60557W        W31157  30.398  37.773   0.819
60558W        W31158  11.937   3.304   4.252
60559W        W31159   7.742  27.364   3.735
60560W        W31160   6.088  10.105   2.566
60561W        W31161  37.664  36.907   4.597
60562W        W31162  30.600  39.951  11.648
60563W        W31163  12.715  24.424  11.453
60564W        W31164  40.232  36.471  14.206
60565W        W31165  33.579  40.528  13.292
60566W        W31166  43.463   9.835  12.151
60567W        W31167  11.865   4.994  11.609
60568W        W31168   6.454  17.356  11.184
60569W        W31169  19.570  36.637   3.128
60570W        W31170   3.329  21.594  11.963
60571W        W31171  28.946  15.327  11.593
60572W        W31172  12.301  39.022  13.044
60573W        W31173  40.344  25.552  14.948
60574W        W31174  34.499  41.023  10.760
60575W        W31175  20.642  35.414  11.100
60576W        W31176  22.160  19.339   1.776
60577W        W31177  16.312  12.179   1.724
60578W        W31178   2.679  30.945   3.710
60579W        W31179  40.859  14.067   0.392
60580W        W31180   1.291   1.478   1.955
60581W        W31181  28.677  11.372  11.842
60582W        W31182   2.448  38.760  12.923
60583W        W31183   7.510  12.481   1.134
60584W        W31184  26.088   6.930   2.061
60585W        W31185  27.634   9.659  12.852
60586W        W31186  29.031   1.277   4.020
60587W        W31187  13.251  31.494  10.821
60588W        W31188  44.201  26.477  14.361
60589W        W31189  42.789   0.866  13.695
60590W        W31190  24.732  36.916   2.403
60591W        W31191  41.774  16.581  13.849
60592W        W31192  22.072  36.328   2.731
60593W        W31193  19.239   9.660   0.009
60594W        W31194  30.013   2.930  11.241
60595W        W31195  10.424   0.766   3.728
60596W        W31196  19.111  24.926  11.488
60597W        W31197  36.687  28.245  12.785
60598W        W31198   7.863  32.724  13.610
60599W        W31199  12.137   8.652  13.963
60600W        W31200  22.308  37.717   0.729
60601W        W31201  38.229   5.343   4.201
60602W        W31202   9.797  37.078  14.014
60603W        W31203  27.103  26.945   4.338
60604W        W31204   8.448   3.789   4.212
60605W        W31205  28.074  40.707  14.339
60606W        W31206   9.425  13.243   4.180
60607W        W31207  18.812   2.441   2.407
60608W        W31208   6.121  42.530  14.725
60609W        W31209  12.137  10.099  14.868
60610W        W31210  11.775   0.429  14.712
60611W        W31211  34.835  11.774  10.629
60612W        W31212  10.414  23.536  11.820
60613W        W31213  18.770  35.283  14.909
60614W        W31214  23.024  23.484  11.595
60615W        W31215  43.092  43.582  13.852
60616W        W31216  16.238   2.334  11.598
60617W        W31217  22.731  23.234  11.959
60618W        W31218   1.447  32.589   4.839
60619W        W31219  24.722  17.671   0.402
60620W        W31220  32.483  37.166   2.191
60621W        W31221  25.196  14.097   0.217
60622W        W31222  17.812  18.210   1.271
60623W        W31223   5.651  35.982   4.734
60624W        W31224  38.912   1.729  13.236
60625W        W31225   7.565  29.763   2.836
60626W        W31226  21.779  35.765   2.319
60627W        W31227  26.155  13.002   2.916
60628W        W31228  24.276  42.904   3.824
60629W        W31229   2.514  42.506   3.879
60630W        W31230  38.550  29.289  11.259
60631W        W31231   6.294   8.305   3.338
60632W        W31232   1.838  14.290  11.602
60633W        W31233  44.510  12.237  11.953
60634W        W31234   7.672   3.708   1.361
60635W        W31235   1.682   6.264   1.595
60636W        W31236  26.678  13.668   4.139
60637W        W31237  31.555  27.585  12.013
60638W        W31238  17.230   7.771  13.836
60639W        W31239  19.132  23.694  11.881
60640W        W31240  31.815   4.793   2.418
60641W        W31241  26.467  15.296   1.450
60642W        W31242  10.727  20.659   1.534
60643W        W31243  31.044   5.280  13.832
60644W        W31244  38.051  25.194  10.730
60645W        W31245   5.744   0.662   3.330
60646W        W31246  38.637  26.400  14.302
60647W        W31247  15.542  26.059   1.419
60648W        W31248   7.445  11.649   2.778
60649W        W31249  44.727  41.624  14.444
60650W        W31250  38.672  21.259  12.896
60651W        W31251  38.881   3.747   4.312
60652W        W31252   4.641  14.586   4.523
60653W        W31253  30.644  21.091  14.697
60654W        W31254  22.438  44.456  11.562
60655W        W31255  27.122  27.725   0.297
60656W        W31256   8.257  21.700  14.963
60657W        W31257  14.065  23.900  12.532
60658W        W31258   0.264  30.640   2.218
60659W        W31259  37.135  32.022  14.494
60660W        W31260  26.648  27.164   4.215
60661W        W31261  29.064  35.088   4.563
60662W        W31262  27.609  18.789  10.509
60663W        W31263   9.447  39.800   2.659
60664W        W31264   4.691  43.298  11.836
60665W        W31265  26.014  24.063   1.758
60666W        W31266  15.646  40.134   2.537
60667W        W31267  33.431  32.001   2.522
60668W        W31268   6.361  23.807   0.014
60669W        W31269  26.504   1.784  12.041
60670W        W31270   6.764  10.364  14.728
60671W        W31271  12.259  13.885  10.740
60672W        W31272  38.823  42.216  13.017
60673W        W31273  24.401  38.040  10.709
60674W        W31274  35.439  14.250   4.387
60675W        W31275  10.159   6.685   0.886
60676W        W31276   7.215   8.240   4.102
60677W        W31277  38.362  23.970  14.158
60678W        W31278  30.048   9.438   4.857
60679W        W31279  16.100  34.396  13.152
60680W        W31280  35.048  43.415  12.752
60681W        W31281  32.415  24.616   1.970
60682W        W31282  39.475  35.055  11.032
60683W        W31283  34.716  26.514   5.120
60684W        W31284   3.486  40.505  12.856
60685W        W31285  28.574  21.789   2.360
60686W        W31286  29.526  14.127  14.867
60687W        W31287   3.870  23.320  12.045
60688W        W31288   3.578  37.208   3.870
60689W        W31289  26.509  34.436  11.751
60690W        W31290  17.660  35.901   1.397
60691W        W31291  40.923   9.321   4.615
60692W        W31292  31.416   6.736  10.568
60693W        W31293  19.800  19.996   1.531
60694W        W31294  11.371   5.214  13.284
60695W        W31295  41.779  11.628  11.653
60696W        W31296  26.062  26.100  10.903
60697W        W31297  20.186  33.863  14.902
60698W        W31298  35.014   5.876   1.852
60699W        W31299  17.522  29.519   4.044
60700W        W31300  37.475   0.204  14.773
60701W        W31301  38.528  34.370  13.040
60702W        W31302   7.197  11.081   1.905
60703W        W31303  13.842  13.153   9.831
60704W        W31304  15.238   8.391   4.538
60705W        W31305   2.929   0.832   4.133
60706W        W31306  23.934  12.074   3.147
60707W        W31307  12.860  39.817  13.082
60708W        W31308   9.700  10.430   3.461
60709W        W31309   7.181   2.803  10.572
60710W        W31310  23.294   6.969  11.108
60711W        W31311  34.953  36.315  11.845
60712W        W31312  41.496  10.388   0.625
60713W        W31313  29.660  22.109  14.958
60714W        W31314  13.731  19.713   3.795
60715W        W31315  18.858  22.594   0.426
60716W        W31316  37.878  42.427  12.476
60717W        W31317  29.157  13.726   2.638
60718W        W31318  25.089  18.608   0.462
60719W        W31319  35.783   3.063  10.752
60720W        W31320  38.329  19.500   1.385
60721W        W31321  25.659   5.665  12.874
60722W        W31322  42.534   0.528   3.895
60723W        W31323  18.917   4.912  13.481
60724W        W31324  41.359  24.654  10.755
60725W        W31325  23.225  22.060   0.515
60726W        W31326  20.013  18.575   1.316
60727W        W31327   6.464   0.744  13.455
60728W        W31328   1.956  24.517  11.922
60729W        W31329  27.990  26.234  10.760
60730W        W31330  26.272  36.264   2.847
60731W        W31331   5.132  36.078   4.666
60732W        W31332  36.364   3.798  12.253
60733W        W31333  14.662  33.306  14.811
60734W        W31334   7.736   7.328  13.879
60735W        W31335  37.751  28.164  12.022
60736W        W31336  29.462   0.789   3.254
60737W        W31337  11.390  25.870  14.230
60738W        W31338  22.507  13.345  13.322
60739W        W31339   2.476  14.693  13.986
60740W        W31340  42.226   8.179  10.163
60741W        W31341  36.058  33.346   4.846
60742W        W31342  27.667  36.635   4.297
60743W        W31343  25.701  17.354   4.368
60744W        W31344   5.634   6.277  14.211
60745W        W31345  39.934  32.227   3.478
60746W        W31346  16.367  27.772   4.125
60747W        W31347  27.130  38.012  12.033
60748W        W31348  25.100   7.406  11.583
60749W        W31349  30.103  21.183  14.765
60750W        W31350  36.509  29.450   3.295
60751W        W31351  24.766  23.627   3.686
60752W        W31352  15.661  25.917  14.396
60753W        W31353   6.941  22.008  14.713
60754W        W31354  44.793  27.946   3.136
60755W        W31355  40.476  28.988  10.174
60756W        W31356  19.314  12.254  13.434
60757W        W31357  26.470  18.232  10.725
60758W        W31358   0.783  32.079   2.006
60759W        W31359  12.087  21.616   0.697
60760W        W31360   9.485  22.636  12.948
60761W        W31361  35.633  20.040  12.393
60762W        W31362  17.602  17.016  13.443
60763W        W31363  20.151   7.670   4.743
60764W        W31364  31.573   9.620   3.687
60765W        W31365  43.976  19.198  12.755
60766W        W31366  12.580  26.339   4.767
60767W        W31367  38.432  39.935  10.588
60768W        W31368  32.989  15.671  11.423
60769W        W31369  24.113  11.812  14.401
60770W        W31370  21.561  18.723   4.197
60771W        W31371  41.418  26.620  14.969
60772W        W31372   5.858  24.417  11.221
60773W        W31373  35.410   8.283   2.737
60774W        W31374  44.805  10.358  14.001
60775W        W31375  30.092  42.949   0.285
60776W        W31376  10.222  17.927  12.868
60777W        W31377  24.552  10.016  11.301
60778W        W31378  13.445  40.414  13.563
60779W        W31379  26.860  24.571  12.049
60780W        W31380  25.523  15.033   1.463
60781W        W31381  26.208  39.815  12.487
60782W        W31382   2.950   8.280   1.433
60783W        W31383  39.100  24.970  11.709
60784W        W31384  12.285  43.407  11.168
60785W        W31385  18.255   4.875   3.571
60786W        W31386  44.640   4.316  13.355
60787W        W31387   9.800  13.606  11.909
60788W        W31388   1.350  11.828  11.475
60789W        W31389  18.353  32.428   0.818
60790W        W31390  37.002  42.865   0.982
60791W        W31391  39.138  36.078  14.719
60792W        W31392  18.120  16.893  10.656
60793W        W31393   8.760  19.729   1.904
60794W        W31394  39.438  36.483  13.014
60795W        W31395  20.358  25.935   2.927
60796W        W31396   7.643  36.055   3.644
60797W        W31397  10.548   6.204  12.863
60798W        W31398   2.257  11.179  13.450
60799W        W31399  39.853  27.720  14.435
60800W        W31400  28.416   1.925  13.124
60801W        W31401  11.333   6.763   1.429
60802W        W31402  21.823  19.621   3.274
60803W        W31403  15.462  43.892   0.353
60804W        W31404  42.290  22.560   4.514
60805W        W31405   0.220  18.522  13.898
60806W        W31406  13.394   1.083  13.889
60807W        W31407  29.872  35.033   2.622
60808W        W31408  35.197  36.998  10.824
60809W        W31409  28.489  40.296  14.982
60810W        W31410  41.492  32.621   4.467
60811W        W31411  33.978  13.724   1.346
60812W        W31412  12.580  42.708   1.503
60813W        W31413  35.984  34.878   2.802
60814W        W31414  19.236  20.715   3.201
60815W        W31415  32.970  44.260  10.414
60816W        W31416  14.308  19.633  10.981
60817W        W31417  40.938   5.403  12.532
60818W        W31418  30.481  24.112  14.981
60819W        W31419   8.764  18.606   1.361
60820W        W31420  13.720  24.109   1.302
60821W        W31421  20.797  41.077   0.415
60822W        W31422  33.532  44.764  12.449
60823W        W31423  17.072  20.070   2.380
60824W        W31424  10.111   2.443   2.704
60825W        W31425  16.669  29.263  14.215
60826W        W31426  35.558  39.535   4.643
60827W        W31427  15.037  27.571   4.094
60828W        W31428  39.933  27.698  13.610
60829W        W31429  20.712  26.263   2.750
60830W        W31430  32.010  32.631  12.898
60831W        W31431  33.113  12.211   1.248
60832W        W31432  21.179   5.108   1.389
60833W        W31433  16.679  21.051   1.830
60834W        W31434  16.928   7.858  11.572
60835W        W31435  20.127  40.747  12.768
60836W        W31436  37.885   1.470  11.592
60837W        W31437  32.514  28.741  14.017
60838W        W31438  40.901  15.534  13.840
60839W        W31439   8.657  13.291   3.633
60840W        W31440  44.454   9.380   2.420
60841W        W31441   8.960  10.509  14.819
60842W        W31442  10.086  14.470   2.390
60843W        W31443  11.498  41.688   4.193
60844W        W31444  35.045   6.753  14.003
60845W        W31445  30.087   6.138  14.302
60846W        W31446  18.742  18.506   0.456
60847W        W31447  20.896   1.980   3.832
60848W        W31448  12.734  22.656  13.930
60849W        W31449   4.148  42.897  12.407
60850W        W31450   6.006   0.763   4.693
60851W        W31451  29.888  28.216   4.591
60852W        W31452  31.930  34.490   3.260
60853W        W31453  12.793  25.499   0.255
60854W        W31454   5.635  18.659  10.858
60855W        W31455  17.182  34.813   1.717
60856W        W31456  28.736  16.074   0.967
60857W        W31457  34.928   9.894   4.322
60858W        W31458   2.876  29.068   3.691
60859W        W31459  33.484  22.701   4.292
60860W        W31460  16.188  19.842  11.565
60861W        W31461   6.651  33.483  13.103
60862W        W31462  10.028  20.289  12.741
60863W        W31463  17.298  25.091  14.533
60864W        W31464  22.985  27.821  13.296
60865W        W31465  31.421  21.475  10.370
60866W        W31466   1.942   4.924  12.357
60867W        W31467  39.274   7.709   2.349
60868W        W31468  19.133   9.988  11.827
60869W        W31469  35.162   9.961  13.513
60870W        W31470  34.538  13.192  13.755
60871W        W31471   0.092  42.443  13.352
60872W        W31472   0.274  25.079  12.248
60873W        W31473  21.585  41.459   2.331
60874W        W31474  18.541   7.806   3.318
60875W        W31475  33.100  30.890   0.212
60876W        W31476   2.242  42.016   1.619
60877W        W31477  17.915  37.931   1.798
60878W        W31478  40.897   2.512  10.704
60879W        W31479  12.902  35.226   0.803
60880W        W31480  38.852  34.347   1.660
60881W        W31481  33.100  17.111   3.419
60882W        W31482  10.947  40.899  12.996
60883W        W31483   3.501   2.529   4.282
60884W        W31484  26.321  22.305  11.711
60885W        W31485  22.555  23.642   4.256
60886W        W31486  30.434  10.920   2.272
60887W        W31487  16.257  16.257  12.510
60888W        W31488   8.652  42.285   3.908
60889W        W31489  26.560  15.943   4.731
60890W        W31490  32.007  28.794  14.862
60891W        W31491  16.211  29.533   2.793
60892W        W31492   2.952  31.233   0.360
60893W        W31493   5.928  21.228  11.260
60894W        W31494  26.721   3.337   0.492
60895W        W31495  19.051   4.729   2.193
60896W        W31496  30.127  27.505   0.338
60897W        W31497  10.087  10.676   3.230
60898W        W31498   8.896   7.745  12.437
60899W        W31499  24.057  34.197   4.636
60900W        W31500  41.641  13.061   0.464
60901W        W31501   0.997  39.881   2.342
60902W        W31502  28.711  14.611   0.039
60903W        W31503   2.760  19.872   0.352
60904W        W31504  31.002  25.478   3.793
60905W        W31505  26.636   5.689  10.917
60906W        W31506  15.706  28.804   4.629
60907W        W31507  23.279  28.891   1.857
60908W        W31508  43.446   5.599   0.349
60909W        W31509   3.138  36.643  12.014
60910W        W31510  20.340  29.899   2.213
60911W        W31511  18.523  34.669  11.953
60912W        W31512   2.958   6.312   3.445
60913W        W31513  18.183   1.339  14.054
60914W        W31514   6.437   8.602  13.368
60915W        W31515   2.155   1.782   0.546
60916W        W31516  32.242  24.534  13.187
60917W        W31517  38.128  22.381   0.841
60918W        W31518  25.872  39.807   2.171
60919W        W31519  41.676  10.052  11.136
60920W        W31520   0.514  23.877  14.990
60921W        W31521   6.591  20.162   1.032
60922W        W31522  41.282  32.793   3.202
60923W        W31523  25.580   5.701   0.207
60924W        W31524  20.165  12.812   2.209
60925W        W31525  36.646  38.781  10.927
60926W        W31526   0.639  19.430   3.705
60927W        W31527  37.005  14.399  14.285
60928W        W31528  17.819  41.459   1.299
60929W        W31529  41.009   1.257  11.148
60930W        W31530  26.958  18.558  13.965
60931W        W31531   2.136  36.450   3.174
60932W        W31532  36.968  16.077   2.431
60933W        W31533  33.641  13.947   0.090
60934W        W31534  24.452  30.822  12.068
60935W        W31535   3.252  17.522  10.727
60936W        W31536   4.522  31.638   3.251
60937W        W31537  29.614   6.360   3.847
60938W        W31538  21.108   1.130  11.585
60939W        W31539  30.219   2.397   0.866
60940W        W31540  41.793   3.968   1.806
60941W        W31541  31.570  30.144  13.903
60942W        W31542  21.935  22.180   0.894
60943W        W31543  32.150  36.045  14.926
60944W        W31544  31.458   0.061  12.344
60945W        W31545  41.849  33.681   3.925
60946W        W31546  16.179  40.904  11.655
60947W        W31547  30.578  24.280  12.633
60948W        W31548  14.329  24.109   2.692
60949W        W31549  42.828  27.153  14.719
60950W        W31550   0.876  36.650  10.885
60951W        W31551  16.644  20.500   4.022
60952W        W31552  39.393  27.914   1.920
60953W        W31553   8.858   1.724   2.267
60954W        W31554  43.754  33.495  11.099
60955W        W31555  25.513  25.678   3.683
60956W        W31556  40.953  11.788   2.080
60957W        W31557  34.323  23.198  13.964
60958W        W31558   7.634  40.743  13.828
60959W        W31559  37.916  24.079  11.108
60960W        W31560  40.057  44.338  14.715
60961W        W31561  36.808  11.470   1.333
60962W        W31562  35.872  10.179   4.711
60963W        W31563  12.189  20.190   4.660
60964W        W31564  28.031  34.167   2.399
60965W        W31565  24.551  14.235   5.052
60966W        W31566   4.889  38.564   2.470
60967W        W31567  33.035  13.238   1.195
60968W        W31568  40.366  29.667  14.552
60969W        W31569   9.568  34.436  13.593
60970W        W31570  13.742  22.797  14.987
60971W        W31571  13.680  33.708  11.173
60972W        W31572  36.424  33.805   4.207
60973W        W31573  33.562   9.321  12.909
60974W        W31574  26.035  43.315   4.346
60975W        W31575  41.940  34.322   3.280
60976W        W31576  23.201  39.500   4.582
60977W        W31577  27.752  18.282  13.789
60978W        W31578  23.540   7.579  12.616
60979W        W31579  44.695  28.440   2.229
60980W        W31580  20.803  42.744  14.023
60981W        W31581  39.518   5.900   0.401
60982W        W31582   1.199  20.016  13.873
60983W        W31583   5.804   8.329   4.650
60984W        W31584  39.496  26.980  13.951
60985W        W31585  23.568  41.499  13.361
60986W        W31586  42.928  38.527  11.118
60987W        W31587  22.551  10.323   5.080
60988W        W31588  31.998  27.219  10.434
60989W        W31589  11.665   2.079   2.389
60990W        W31590  16.684  19.998  11.472
60991W        W31591  26.976  41.952  11.513
60992W        W31592   3.280  11.879   1.316
60993W        W31593  20.579   9.946  11.267
60994W        W31594   9.317  23.485  10.729
60995W        W31595  37.062  17.600  12.506
60996W        W31596  36.819  22.784  10.898
60997W        W31597   3.681   2.423  12.479
60998W        W31598  44.293  22.621   3.821
60999W        W31599  11.695  41.279   1.726
61000W        W31600  31.655  42.235  11.650
61001W        W31601   8.000  41.785   3.181
61002W        W31602  19.530   8.423  11.232
61003W        W31603  13.244  15.678   0.053
61004W        W31604  43.368  30.367  11.496
61005W        W31605  42.924  39.457  14.855
61006W        W31606  27.066  14.581   1.165
61007W        W31607   8.179  26.011   0.878
61008W        W31608  35.420  12.668   3.273
61009W        W31609   2.259  32.854   2.887
61010W        W31610  37.914   8.270  11.158
61011W        W31611   3.692  25.190  10.426
61012W        W31612  13.124  27.001  14.293
61013W        W31613   8.158   7.030   4.028
61014W        W31614  31.872  31.336  13.426
61015W        W31615  42.955  18.301  11.146
61016W        W31616  21.062   1.656  13.633
61017W        W31617  18.112  43.910   4.922
61018W        W31618  28.168  32.862   4.527
61019W        W31619  13.318  11.781  10.691
61020W        W31620  12.320  17.261   0.939
61021W        W31621  11.642  40.979  12.103
61022W        W31622  39.525   8.073  10.538
61023W        W31623  37.340   3.401  12.513
61024W        W31624  18.075  30.634  11.186
61025W        W31625  13.343  23.480   2.359
61026W        W31626  26.397   3.945  11.582
61027W        W31627  33.801  39.273  11.128
61028W        W31628  44.296  30.688   1.043
61029W        W31629  38.933   8.383   3.187
61030W        W31630   9.294  10.298   3.747
61031W        W31631  27.539  19.096  11.973
61032W        W31632  31.968  32.095   2.437
61033W        W31633  41.759  34.206   3.769
61034W        W31634  14.138  34.864  11.886
61035W        W31635  29.636  21.160  10.847
61036W        W31636   0.219  12.011  14.011
61037W        W31637  27.966  41.786   0.744
61038W        W31638  30.688  44.744   1.365
61039W        W31639  39.335   9.428   2.913
61040W        W31640   6.444   2.254   2.839
61041W        W31641  39.389   6.665  11.672
61042W        W31642  27.943  16.101   2.154
61043W        W31643  13.858  19.242  12.188
61044W        W31644  20.437  21.023  14.950
61045W        W31645  21.242   5.287   2.908
61046W        W31646  38.519  24.903   4.517
61047W        W31647  13.977  19.705   1.278
61048W        W31648  20.034   7.077  10.216
61049W        W31649  28.389   8.725   2.167
61050W        W31650  20.980  33.423   1.842
61051W        W31651  20.746  32.555  10.757
61052W        W31652  31.102  23.598  14.363
61053W        W31653  35.287   6.735   4.393
61054W        W31654  41.014  43.925   3.097
61055W        W31655   1.893  36.809  12.867
61056W        W31656  29.067  11.227  14.715
61057W        W31657  16.433  37.143   1.891
61058W        W31658  14.249  37.608  10.753
61059W        W31659  10.797  22.006   4.502
61060W        W31660   8.161   6.494   4.134
61061W        W31661  14.288  41.984  13.920
61062W        W31662   4.214   5.179   1.798
61063W        W31663   7.695  38.398   1.238
61064W        W31664  29.712  36.781   2.303
61065W        W31665  19.807  16.646  11.931
61066W        W31666  18.633  37.337  13.807
61067W        W31667  34.407  26.519  13.503
61068W        W31668   8.740  22.141   0.962
61069W        W31669  43.245  14.831  12.657
61070W        W31670  34.834  27.813  10.922
61071W        W31671  37.561   2.384   4.998
61072W        W31672  36.473  13.417   2.664
61073W        W31673  16.305  17.507  14.866
61074W        W31674  29.396   8.642  11.541
61075W        W31675   1.359  14.087  10.942
61076W        W31676  35.278  20.792  14.484
61077W        W31677  26.496  27.006  11.155
61078W        W31678  15.372  40.816  13.459
61079W        W31679  34.136  30.059   3.731
61080W        W31680  19.724  35.333   3.302
61081W        W31681   7.513  17.218   1.735
61082W        W31682  38.593   5.548   3.777
61083W        W31683  29.129   5.902  12.531
61084W        W31684   0.230  41.837   0.278
61085W        W31685   6.604  11.634   0.066
61086W        W31686  23.030  32.892  14.361
61087W        W31687  29.129  19.817   4.711
61088W        W31688   7.632   3.346  11.065
61089W        W31689  22.789  43.273   1.228
61090W        W31690  19.571   0.833   4.149
61091W        W31691  14.646  18.753  12.138
61092W        W31692   7.133  44.279  10.682
61093W        W31693  24.701   8.427  13.355
61094W        W31694  36.435  41.390  13.410
61095W        W31695  41.921  32.984  11.621
61096W        W31696  20.723  43.056  11.063
61097W        W31697  27.223   8.348  14.014
61098W        W31698   3.709  39.063  10.791
61099W        W31699  12.721  17.149  10.712
61100W        W31700  10.249  22.970  14.261
61101W        W31701  38.387  25.374   4.711
61102W        W31702  12.174  23.663   1.635
61103W        W31703  31.021   0.480  11.247
61104W        W31704   8.564  20.696   3.458
61105W        W31705   6.673  30.599  13.271
61106W        W31706  10.324  18.603   0.397
61107W        W31707  42.657   2.402   1.698
61108W        W31708  26.491   5.949  13.289
61109W        W31709  36.072  11.293  12.792
61110W        W31710  22.772  35.972  14.966
61111W        W31711  33.953   9.249   3.203
61112W        W31712  14.330  12.728  11.618
61113W        W31713   1.335  10.627  11.789
61114W        W31714  16.496  23.529   1.348
61115W        W31715  43.478   0.545  14.517
61116W        W31716  22.653   7.221   0.704
61117W        W31717  41.422  26.608   5.062
61118W        W31718  15.616   9.557  10.494
61119W        W31719  42.130  28.228   0.696
61120W        W31720  17.643   1.179  14.884
61121W        W31721   7.325  13.715  12.941
61122W        W31722  19.756  23.058   4.519
61123W        W31723  39.355   1.323   1.377
61124W        W31724  39.361   7.302  13.408
61125W        W31725  35.428  36.257  13.843
61126W        W31726  30.647  40.968   3.767
61127W        W31727  23.467  35.535   1.316
61128W        W31728  13.184  32.134   3.568
61129W        W31729  34.514   3.495  14.017
61130W        W31730  36.092  25.298  12.431
61131W        W31731  35.833  35.913  13.913
61132W        W31732  21.984  14.269   2.936
61133W        W31733  42.465  44.036  10.430
61134W        W31734  43.284  34.246   2.320
61135W        W31735  16.292  37.682  10.007
61136W        W31736  36.435  29.143   2.668
61137W        W31737  17.504  12.175   3.297
61138W        W31738  32.736  24.192   0.889
61139W        W31739  38.114  23.444  14.967
61140W        W31740  22.022  10.692  10.790
61141W        W31741  34.635  36.798   1.731
61142W        W31742   8.959  43.129   0.742
61143W        W31743  12.749   2.369  13.041
61144W        W31744  39.496  35.526   3.241
61145W        W31745   3.572  31.430  10.714
61146W        W31746  41.277  28.572   1.974
61147W        W31747  31.682   1.902  14.568
61148W        W31748  35.644  36.447   4.110
61149W        W31749  33.442  20.082  14.037
61150W        W31750  38.901  18.859   3.147
61151W        W31751   8.500  12.250  13.380
61152W        W31752  35.509  18.257   2.434
61153W        W31753  14.410  23.549   3.851
61154W        W31754   6.865  15.818  10.263
61155W        W31755   8.381  17.735   0.025
61156W        W31756  27.424  12.783  10.675
61157W        W31757  12.589  26.773  13.554
61158W        W31758  33.351  40.213   2.794
61159W        W31759  32.964   3.079   4.504
61160W        W31760   8.270   3.646   0.806
61161W        W31761  28.767  29.697   3.814
61162W        W31762  16.579  38.553  14.929
61163W        W31763   1.266  10.846  11.347
61164W        W31764  26.795  43.978   0.795
61165W        W31765   5.964  15.305  11.970
61166W        W31766  31.099   3.403  14.846
61167W        W31767  34.826   5.367   1.134
61168W        W31768   9.030   1.471  11.143
61169W        W31769  16.718  37.592  10.966
61170W        W31770  32.889  12.605  12.957
61171W        W31771   8.637  41.369   3.803
61172W        W31772   9.789  30.948   4.853
61173W        W31773  23.833   2.623   4.983
61174W        W31774  11.242  41.094  12.435
61175W        W31775  34.418  21.073  14.597
61176W        W31776  11.704  27.979   4.542
61177W        W31777  13.823  40.942  11.601
61178W        W31778  19.871  16.794  14.926
61179W        W31779  15.810  42.887  14.386
61180W        W31780  22.185  31.150  13.499
61181W        W31781  20.237  22.993  14.952
61182W        W31782  26.545  16.329   0.945
61183W        W31783  35.599  38.640   0.440
61184W        W31784  18.071   7.666  14.938
61185W        W31785  11.288  33.331   3.764
61186W        W31786  24.479  32.725  11.124
61187W        W31787   0.807  40.080  14.811
61188W        W31788  27.437  38.121   3.558
61189W        W31789   5.405   0.235   4.180
61190W        W31790  36.541  12.618   0.506
61191W        W31791   4.753  18.994  13.547
61192W        W31792  17.990  29.619  11.806
61193W        W31793  33.214  31.382  11.474
61194W        W31794  36.303  18.990   2.778
61195W        W31795  20.641  43.784  14.061
61196W        W31796  10.774  14.766   0.683
61197W        W31797  25.566  34.577   3.710
61198W        W31798  20.197  41.787  12.094
61199W        W31799  39.102  41.285  13.105
61200W        W31800  24.960  38.538  11.583
61201W        W31801  40.893  19.950   5.025
61202W        W31802  29.112  30.971  13.548
61203W        W31803  38.221   1.917   0.574
61204W        W31804  36.448   2.982   3.312
61205W        W31805  37.052  25.729  11.556
61206W        W31806  12.092  21.585  14.326
61207W        W31807  35.998  38.114  11.860
61208W        W31808  12.522  33.899   3.132
61209W        W31809  42.877  18.845   1.355
61210W        W31810  44.877  33.958  11.504
61211W        W31811  22.200  20.223   4.619
61212W        W31812  44.071  35.321  14.509
61213W        W31813  21.007  29.375   4.280
61214W        W31814  25.458  18.533  10.130
61215W        W31815  21.651  26.699  12.864
61216W        W31816  35.682   3.979  11.593
61217W        W31817  31.461  40.784  14.820
61218W        W31818  26.642   0.418  10.251
61219W        W31819   7.727  35.538  13.296
61220W        W31820  11.965  35.328  11.138
61221W        W31821  16.406   0.993   4.077
61222W        W31822  28.735  25.567  11.032
61223W        W31823  17.586  31.374   2.030
61224W        W31824  43.433  22.450  11.769
61225W        W31825   9.192  25.607   0.252
61226W        W31826  22.575  42.482   3.244
61227W        W31827   6.372   0.864   1.783
61228W        W31828   2.216  27.956   1.816
61229W        W31829   9.010  22.089  10.840
61230W        W31830  34.132  17.785  13.823
61231W        W31831  19.661  21.503   1.943
61232W        W31832   1.015  22.836   5.055
61233W        W31833   7.780  30.824  11.898
61234W        W31834   0.312   8.815   1.462
61235W        W31835   0.703  26.905  13.924
61236W        W31836  30.739  34.880  11.655
61237W        W31837   0.470  16.530   3.513
61238W        W31838   3.715  28.412  11.679
61239W        W31839  20.399  37.917  10.436
61240W        W31840  38.423   2.852  11.305
61241W        W31841  26.469  32.438   2.217
61242W        W31842  11.793   3.677   3.353
61243W        W31843   9.900  24.112   4.107
61244W        W31844  43.821   2.945   0.524
61245W        W31845  39.112   8.784   2.269
61246W        W31846  30.063  12.609  14.758
61247W        W31847  31.331  23.120   1.724
61248W        W31848  31.474  35.419   0.975
61249W        W31849   5.313  37.010   4.905
61250W        W31850   0.241  19.777   0.335
61251W        W31851   1.440  37.538   2.196
61252W        W31852  16.699  35.017  10.410
61253W        W31853  31.669  18.262   2.368
61254W        W31854  38.917  29.174  11.597
61255W        W31855   0.167   3.056  14.866
61256W        W31856   6.793   9.620   0.564
61257W        W31857  10.999  16.017  12.825
61258W        W31858   2.511  30.037  14.523
61259W        W31859  44.392  20.605   9.997
61260W        W31860  15.089   7.338   0.136
61261W        W31861  13.335  36.233  11.563
61262W        W31862   7.698   6.931   2.302
61263W        W31863  24.432  21.652   4.182
61264W        W31864  34.103  21.968   1.388
61265W        W31865  23.569  32.931  10.699
61266W        W31866   2.312  43.820  14.325
61267W        W31867  27.624  39.296  11.117
61268W        W31868   8.204  41.559   4.204
61269W        W31869   4.931   9.850   0.793
61270W        W31870  14.889  20.119  13.894
61271W        W31871  32.626  19.607   3.588
61272W        W31872  18.380  26.843  12.982
61273W        W31873  40.066  33.184   4.010
61274W        W31874   8.134  15.729  11.423
61275W        W31875  38.795  25.112  14.274
61276W        W31876   8.797   2.230  10.727
61277W        W31877  15.570  35.831  14.383
61278W        W31878  35.543  14.489   3.510
61279W        W31879  25.537  16.650   0.364
61280W        W31880   8.805  36.083   2.786
61281W        W31881  23.008  37.665  13.846
61282W        W31882  42.810  22.755   3.318
61283W        W31883  35.518   8.430   0.403
61284W        W31884  43.014  28.786  12.089
61285W        W31885  21.516  18.072  14.306
61286W        W31886   3.522  34.676   3.287
61287W        W31887  37.466  42.277   4.231
61288W        W31888  23.606   6.114  13.531
61289W        W31889  19.328  13.866   2.468
61290W        W31890  31.026  41.314   5.035
61291W        W31891  11.358  39.383  12.032
61292W        W31892  32.151   2.950   3.803
61293W        W31893  22.049  36.613  10.713
61294W        W31894  13.663  44.570  11.493
61295W        W31895  16.732  18.503  12.834
61296W        W31896  13.035  33.153  12.521
61297W        W31897   1.443   2.659  11.114
61298W        W31898  34.436  13.664  13.973
61299W        W31899  26.192   6.923   1.232
61300W        W31900  43.737  31.457  14.412
61301W        W31901   0.989   1.216  14.893
61302W        W31902   0.230  43.698  11.947
61303W        W31903  43.847  13.368  12.661
61304W        W31904  12.554   3.867  13.969
61305W        W31905  21.179   1.310   4.554
61306W        W31906  33.924  42.419  13.093
61307W        W31907   2.298  14.550  12.468
61308W        W31908  27.742  12.252  12.977
61309W        W31909  31.967  23.531   1.447
61310W        W31910  39.522   9.210   2.290
61311W        W31911  21.742  29.903   0.850
61312W        W31912   7.270  10.386   4.598
61313W        W31913  33.950   0.992   0.794
61314W        W31914  33.673  15.318  12.991
61315W        W31915   1.756  15.841   1.722
61316W        W31916   3.707  23.627   3.514
61317W        W31917  24.209   4.918   1.697
61318W        W31918  43.501  36.925  10.761
61319W        W31919  17.356  39.438   1.858
61320W        W31920  32.852   9.796  14.033
61321W        W31921  25.120  33.686  13.850
61322W        W31922  19.184  42.019   3.371
61323W        W31923  29.199  35.165  12.769
61324W        W31924  23.759  24.440   0.812
61325W        W31925  13.854  27.525  12.559
61326W        W31926  26.613  10.830  10.594
61327W        W31927  13.818  42.454   0.907
61328W        W31928  32.466  15.533  14.816
61329W        W31929  12.305   4.759  10.702
61330W        W31930   1.747  30.895  11.664
61331W        W31931  30.883  23.102  10.475
61332W        W31932  10.403  36.394  10.481
61333W        W31933  33.149  15.577  14.151
61334W        W31934   2.971  16.722   1.415
61335W        W31935  18.577  34.592   1.441
61336W        W31936  36.214  18.266   4.818
61337W        W31937  24.803   0.413   3.238
61338W        W31938   1.181  14.174   3.289
61339W        W31939   2.191  10.655  13.460
61340W        W31940  38.490  40.113  11.077
61341W        W31941  24.123  32.682   2.366
61342W        W31942  29.311  32.134  12.425
61343W        W31943  15.617   7.187   0.385
61344W        W31944  21.736  15.877  14.999
61345W        W31945  22.575  13.802   2.751
61346W        W31946  37.249  18.254   0.194
61347W        W31947  39.056   4.224  14.958
61348W        W31948   3.365  18.655   4.141
61349W        W31949   8.328   1.872  12.850
61350W        W31950  30.579  10.794   2.748
61351W        W31951  30.673  19.919  11.553
61352W        W31952   5.148   7.164  14.853
61353W        W31953  11.217  29.492   2.515
61354W        W31954   9.800  30.339   1.477
61355W        W31955  22.080  25.178   2.964
61356W        W31956   2.729   3.897  11.313
61357W        W31957  26.143  19.106   4.394
61358W        W31958  22.728   5.700   0.973
61359W        W31959  27.373  33.143   3.441
61360W        W31960   2.985  14.760  13.992
61361W        W31961   7.146  35.089   0.270
61362W        W31962   0.109  21.118   1.902
61363W        W31963   4.480   4.538  12.658
61364W        W31964  26.082  14.599   2.396
61365W        W31965  43.183  19.574   2.699
61366W        W31966  24.750  22.075  12.102
61367W        W31967  34.845  24.634  12.422
61368W        W31968   2.801  35.159   2.757
61369W        W31969  37.601  17.622  12.038
61370W        W31970  28.978  33.533  10.160
61371W        W31971  24.681  31.058  12.491
61372W        W31972  10.789   5.154   1.264
61373W        W31973  32.317  30.015  14.335
61374W        W31974  38.040   7.406   0.322
61375W        W31975  16.483  34.035  12.532
61376W        W31976  40.052   1.038  10.208
61377W        W31977  16.615  32.384  14.032
61378W        W31978   7.622  31.717  12.871
61379W        W31979  24.015  30.443  11.079
61380W        W31980  15.901  20.777   2.385
61381W        W31981  16.478  28.447   1.156
61382W        W31982  13.422  40.356   4.993
61383W        W31983  16.269  40.249   0.426
61384W        W31984  42.015   2.411   3.338
61385W        W31985  29.564   4.399   4.813
61386W        W31986  41.335  35.939   4.123
61387W        W31987  43.969  27.718   1.631
61388W        W31988  44.908  18.942   2.203
61389W        W31989  13.179  30.185  14.807
61390W        W31990  15.179   1.938  14.796
61391W        W31991  27.471  42.526   2.885
61392W        W31992  25.455  23.024   4.379
61393W        W31993   5.731   3.502   0.854
61394W        W31994  30.465  18.805  11.150
61395W        W31995   1.392  40.035   0.730
61396W        W31996   2.262  39.021   1.719
61397W        W31997  32.631  20.059  14.765
61398W        W31998  10.648   3.402  10.941
61399W        W31999  26.192  16.727  11.660
61400W        W32000   5.298  37.578  14.683
61401W        W32001  24.996  35.354   3.739
61402W        W32002  37.485  42.857   0.039
61403W        W32003   0.389  10.913   4.594
61404W        W32004  44.863  19.779  13.106
61405W        W32005   8.860   6.700   0.220
61406W        W32006  13.689  13.181   1.184
61407W        W32007  14.179  10.253   2.334
61408W        W32008  39.606   3.946  11.814
61409W        W32009  18.351  25.519  11.898
61410W        W32010  12.713  11.344  12.032
61411W        W32011  37.795  21.287   2.703
61412W        W32012  24.571   5.709   4.151
61413W        W32013  36.465  44.761   0.840
61414W        W32014  41.403  39.506  13.851
61415W        W32015  31.887  32.635   3.621
61416W        W32016  28.756  11.830   0.917
61417W        W32017  16.315   6.805   3.363
61418W        W32018  27.841  27.715   2.934
61419W        W32019   3.799  25.095   4.521
61420W        W32020  26.745  40.927   2.795
61421W        W32021  33.645  32.893  14.351
61422W        W32022  12.145  43.484   4.003
61423W        W32023  34.612  10.713   3.811
61424W        W32024  16.190  21.747  11.670
61425W        W32025   8.316  12.074   2.171
61426W        W32026   0.268  28.416  14.953
61427W        W32027   8.826   3.484  14.107
61428W        W32028  10.101  37.865  11.633
61429W        W32029   9.489  35.237  11.384
61430W        W32030  18.292  31.574   2.674
61431W        W32031  23.995   9.886  12.157
61432W        W32032  31.434   5.359   0.856
61433W        W32033  38.301  24.672   4.936
61434W        W32034  28.116  33.733   4.170
61435W        W32035  41.113  14.430   3.669
61436W        W32036  18.944  38.617   3.755
61437W        W32037  44.923  25.025  13.569
61438W        W32038  40.274  14.134   3.540
61439W        W32039   3.374  35.043   3.673
61440W        W32040  28.458  14.546   0.785
61441W        W32041  43.006   9.879  14.008
61442W        W32042  12.100   2.818  12.639
61443W        W32043  18.985  21.979  14.468
61444W        W32044  20.601  35.366  11.998
61445W        W32045  15.292   4.121  12.338
61446W        W32046  41.832  17.256  11.098
61447W        W32047  22.516   7.465  14.683
61448W        W32048   8.373   2.730  10.965
61449W        W32049  38.939  34.461   4.226
61450W        W32050   7.554  36.572  11.156
61451W        W32051   3.851  44.159   3.601
61452W        W32052   2.408  32.644   1.003
61453W        W32053  17.126  29.544   3.738
61454W        W32054  40.410  36.761   4.622
61455W        W32055  36.089  23.264  11.512
61456W        W32056  42.329  20.901   0.924
61457W        W32057  12.370  42.352  12.128
61458W        W32058   6.773  10.229  11.127
61459W        W32059  38.446  42.920  14.048
61460W        W32060  33.107   6.230  12.574
61461W        W32061  24.571  42.531   2.954
61462W        W32062  13.621  43.716   1.767
61463W        W32063   3.749  20.638   1.994
61464W        W32064  22.759  26.908  12.805
61465W        W32065  44.008  37.763   1.205
61466W        W32066   3.457  18.671  13.915
61467W        W32067   5.429  39.360  13.508
61468W        W32068  35.835  10.164  11.411
61469W        W32069  18.782  27.051   3.201
61470W        W32070   1.014  28.633   3.718
61471W        W32071  25.665   1.966  11.844
61472W        W32072  11.682   8.361  13.869
61473W        W32073  39.457  29.455   4.611
61474W        W32074  35.658  10.341  14.296
61475W        W32075  20.600   9.670   0.605
61476W        W32076  38.660  29.626   3.465
61477W        W32077  15.571  43.355  14.368
61478W        W32078  28.538  35.242   2.874
61479W        W32079  10.975  36.780   3.714
61480W        W32080  16.585  21.996   0.730
61481W        W32081   8.857  27.998   0.854
61482W        W32082  37.010  39.519  12.471
61483W        W32083  12.774  20.040   1.972
61484W        W32084  37.690   1.966  10.605
61485W        W32085  21.056   0.137  12.568
61486W        W32086   4.452   7.718   1.451
61487W        W32087  35.072   2.972   3.676
61488W        W32088  31.916  24.804   4.336
61489W        W32089   4.366  34.259   1.706
61490W        W32090  23.470  30.391   3.193
61491W        W32091  10.784  19.732   5.177
61492W        W32092  25.675   3.421  13.676
61493W        W32093  32.600  22.483  14.581
61494W        W32094  36.585  20.940  13.914
61495W        W32095  42.948  19.068  13.459
61496W        W32096   2.963  28.127   2.647
61497W        W32097  41.992   2.687  13.848
61498W        W32098  19.039  21.996   4.325
61499W        W32099  14.689   9.698   4.508
61500W        W32100   7.809  31.217  12.860
61501W        W32101   7.681  24.536  11.160
61502W        W32102  32.362  33.519  14.504
61503W        W32103  19.633  12.384  13.830
61504W        W32104  44.918  26.495  10.696
61505W        W32105  35.552  21.513   2.655
61506W        W32106   5.683  10.204   3.147
61507W        W32107   5.682  13.670   4.124
61508W        W32108  14.026  17.332   0.025
61509W        W32109  13.558   8.834  13.929
61510W        W32110   7.786  12.150  12.547
61511W        W32111   1.793  36.166   2.826
61512W        W32112  26.202  11.593  14.844
61513W        W32113  40.450   2.905   0.601
61514W        W32114  35.115  40.282  10.452
61515W        W32115  26.244  17.566   1.868
61516W        W32116   2.965   9.725   4.212
61517W        W32117  16.005  28.147   0.396
61518W        W32118  25.140  38.597  12.075
61519W        W32119  18.175   2.462   4.112
61520W        W32120   9.162  42.973  11.993
61521W        W32121   9.777  36.495   2.853
61522W        W32122  27.655  38.855   1.921
61523W        W32123  37.042  44.240  12.462
61524W        W32124  30.204   4.384   1.872
61525W        W32125  44.366  37.859  14.026
61526W        W32126  34.534   6.866  14.102
61527W        W32127   8.690  29.063   1.774
61528W        W32128  18.497  24.643  10.275
61529W        W32129  29.609  20.586   1.386
61530W        W32130   0.816  40.347   2.463
61531W        W32131   3.320  30.741   0.399
61532W        W32132   4.845  34.642   3.687
61533W        W32133  30.729  27.521   0.310
61534W        W32134  22.480  36.398  14.936
61535W        W32135   4.891   0.922  11.592
61536W        W32136  25.131  14.194   0.735
61537W        W32137   6.345  22.270  12.529
61538W        W32138  19.387  13.405   2.220
61539W        W32139  18.118  11.732   0.736
61540W        W32140  11.291  28.828   0.288
61541W        W32141  41.853  33.687  14.429
61542W        W32142  30.201  40.641  12.671
61543W        W32143   0.648  36.911   3.169
61544W        W32144   8.266   0.305  10.731
61545W        W32145  31.942  22.603  11.376
61546W        W32146  11.105  34.056  13.535
61547W        W32147  44.779  30.436   1.249
61548W        W32148  23.691  13.557   0.264
61549W        W32149  34.864   7.284   4.892
61550W        W32150  19.013   4.006  13.994
61551W        W32151  16.505  24.626   0.797
61552W        W32152   2.991  20.626   3.798
61553W        W32153  44.775  28.147   1.752
61554W        W32154  25.145  25.862  13.444
61555W        W32155   0.420  21.374  10.605
61556W        W32156   8.800  39.317  14.511
61557W        W32157  38.329  17.539  11.233
61558W        W32158  32.583   5.955  10.977
61559W        W32159  23.187   1.745  11.173
61560W        W32160  37.643  19.975   0.356
61561W        W32161  22.581   2.245  11.660
61562W        W32162   5.148  11.764  14.826
61563W        W32163  41.203  14.293   4.510
61564W        W32164  14.385  36.751  14.425
61565W        W32165   2.369  10.818   1.267
61566W        W32166   8.424  35.519  10.648
61567W        W32167  24.541   2.321  11.379
61568W        W32168  29.106  24.540   2.427
61569W        W32169  40.648  38.558   4.973
61570W        W32170   8.318  15.220  11.074
61571W        W32171  31.659  22.012  13.030
61572W        W32172  13.103  38.391  12.026
61573W        W32173  29.279  29.431   4.537
61574W        W32174  18.119  34.364   0.808
61575W        W32175  32.117   7.888  13.494
61576W        W32176   6.471  19.102  12.587
61577W        W32177  23.589   7.238   3.558
61578W        W32178   5.846  16.782   2.279
61579W        W32179  37.246   3.719  12.988
61580W        W32180  15.148  37.826  13.779
61581W        W32181  32.592  13.131   1.466
61582W        W32182  44.045  36.360  13.414
61583W        W32183  37.769  30.367  13.506
61584W        W32184  15.141  14.095   3.541
61585W        W32185   4.538   0.877   2.736
61586W        W32186   4.155  31.284   4.530
61587W        W32187   6.979  25.179   4.679
61588W        W32188  37.215   6.699  11.246
61589W        W32189  40.310  41.478  13.926
61590W        W32190  33.020  35.510   2.320
61591W        W32191  39.375   4.402  13.041
61592W        W32192  22.755   0.256   1.739
61593W        W32193  12.302  24.067  12.150
61594W        W32194  12.941  38.117  14.460
61595W        W32195   8.352  17.354  12.135
61596W        W32196  10.452  13.206   2.261
61597W        W32197  28.567  34.768  14.936
61598W        W32198  16.959  36.020  11.620
61599W        W32199  19.734  28.560  14.805
61600W        W32200   2.189  11.801  13.082
61601W        W32201  24.100  37.935   1.741
61602W        W32202  40.431  26.628   4.087
61603W        W32203  25.780  34.426  11.677
61604W        W32204   2.033  23.989  14.101
61605W        W32205  29.868  28.459  11.632
61606W        W32206  16.711  31.221   2.416
61607W        W32207  38.796   1.200   3.212
61608W        W32208  23.681  18.146  10.992
61609W        W32209  19.045  26.288   2.591
61610W        W32210  24.891  10.744   4.273
61611W        W32211   3.126   7.881   2.773
61612W        W32212  14.099  33.867   2.208
61613W        W32213   0.842  39.547  14.864
61614W        W32214   0.854   9.783  11.560
61615W        W32215  32.641  35.462  11.420
61616W        W32216  12.737  27.270  14.532
61617W        W32217  43.862  11.710   2.647
61618W        W32218   3.809  24.413  12.558
61619W        W32219  27.240  29.169  10.537
61620W        W32220  13.347  27.107  11.899
61621W        W32221  13.738  30.185  10.673
61622W        W32222   8.796  40.380   3.165
61623W        W32223   9.843  24.069  14.296
61624W        W32224  12.224  27.955   0.619
61625W        W32225  19.536  24.296  14.074
61626W        W32226  19.677  26.573  13.121
61627W        W32227   4.136  26.660  11.968
61628W        W32228  25.567  37.162  14.285
61629W        W32229  15.079  18.427  12.351
61630W        W32230   4.632  38.724   3.619
61631W        W32231  12.883  38.744   2.964
61632W        W32232  41.824  21.282  11.602
61633W        W32233  22.390  28.712   0.027
61634W        W32234  38.989  34.828   0.236
61635W        W32235  20.293   6.952  11.705
61636W        W32236  25.202  13.210   4.692
61637W        W32237  19.558  18.732  13.516
61638W        W32238   1.836  25.117  10.783
61639W        W32239  15.781  17.317   0.614
61640W        W32240  27.662  28.563  14.349
61641W        W32241  18.021   3.252  13.002
61642W        W32242  22.618  16.628  11.879
61643W        W32243  32.945  32.510  13.051
61644W        W32244  25.473  14.833  12.970
61645W        W32245  15.195  32.969   0.903
61646W        W32246   4.685  17.294  12.955
61647W        W32247  24.142  32.601  14.686
61648W        W32248  17.340  20.544   2.397
61649W        W32249  44.912   8.715  13.365
61650W        W32250  20.654  39.272   2.191
61651W        W32251  40.125  30.364   3.146
61652W        W32252  20.144   2.829   3.798
61653W        W32253  26.168  24.632  12.816
61654W        W32254   9.966  20.227   2.334
61655W        W32255  17.783  31.005  12.350
61656W        W32256  12.913  10.706   1.791
61657W        W32257  15.319   9.853   1.904
61658W        W32258  29.210  24.958   0.326
61659W        W32259   5.856  27.969  12.898
61660W        W32260  25.987  33.525  13.175
61661W        W32261  14.984  42.499  14.435
61662W        W32262  42.535  25.731   1.359
61663W        W32263  17.724  42.917   4.554
61664W        W32264  14.029  31.540  12.657
61665W        W32265   8.910  10.335  13.951
61666W        W32266  14.106  28.188   0.342
61667W        W32267  32.559  32.870  12.940
61668W        W32268  29.990  22.003  11.452
61669W        W32269  16.884  12.285  11.497
61670W        W32270   6.807   7.131  10.669
61671W        W32271   8.195  37.641  14.061
61672W        W32272  28.320  16.427  11.034
61673W        W32273   9.974   0.455  11.313
61674W        W32274  20.806  25.397  11.121
61675W        W32275  20.642  37.983   4.677
61676W        W32276  44.206   1.268  14.369
61677W        W32277   1.986   7.227   4.211
61678W        W32278  18.650  10.106   0.220
61679W        W32279  23.561  30.022   2.199
61680W        W32280  12.239  31.449  10.833
61681W        W32281  24.732  44.298   0.663
61682W        W32282  28.987   6.390  14.454
61683W        W32283  36.572   4.676  13.486
61684W        W32284  17.221  44.497   2.288
61685W        W32285  43.329  44.530  12.975
61686W        W32286   0.448   1.025  11.040
61687W        W32287  21.346  41.799  14.835
61688W        W32288  35.292   7.377  12.552
61689W        W32289  15.720  17.789  11.124
61690W        W32290  23.600  32.110  12.371
61691W        W32291  43.672  15.250  13.003
61692W        W32292  44.032  14.120  11.666
61693W        W32293  27.331   6.190  12.398
61694W        W32294  39.777  13.080   1.659
61695W        W32295  13.677  20.325  14.791
61696W        W32296   8.139  22.112  11.175
61697W        W32297  29.092  43.442   0.567
61698W        W32298  36.842   4.796  14.751
61699W        W32299  32.826  25.185  12.957
61700W        W32300   9.069  34.988  11.619
61701W        W32301  34.401  19.972  14.874
61702W        W32302   7.715   8.785   4.628
61703W        W32303  20.255  34.376  12.566
61704W        W32304  36.144  21.208  10.568
61705W        W32305   0.278  23.673  10.747
61706W        W32306  22.163  16.318  13.449
61707W        W32307  32.120  43.553   2.006
61708W        W32308  36.523  38.007   1.097
61709W        W32309  19.856  25.202  13.126
61710W        W32310   1.995  19.586  13.282
61711W        W32311  36.697  12.217  12.303
61712W        W32312   8.103   1.696   3.199
61713W        W32313   8.770  10.056  12.249
61714W        W32314  32.415  11.113  11.428
61715W        W32315   6.556  19.585  11.259
61716W        W32316  25.705  41.875  12.875
61717W        W32317   6.812  19.269  10.413
61718W        W32318  39.886   6.798  13.056
61719W        W32319  23.781   5.668  13.824
61720W        W32320  27.537  38.489   2.259
61721W        W32321   4.714  33.555  13.013
61722W        W32322  18.547   1.297  10.873
61723W        W32323  14.102  43.970  13.411
61724W        W32324   7.483  36.977   4.073
61725W        W32325   3.228  43.518   0.697
61726W        W32326  38.892  31.028  14.733
61727W        W32327  44.061  24.171  13.996
61728W        W32328  41.069  12.707   1.669
61729W        W32329  32.190  21.390  13.036
61730W        W32330  15.895  22.140  11.822
61731W        W32331  25.566  10.679  10.719
61732W        W32332  30.753  35.974  14.973
61733W        W32333  25.549  13.347  10.529
61734W        W32334  13.652   8.286  12.419
61735W        W32335   9.624   5.111   1.797
61736W        W32336  24.049  17.532  14.868
61737W        W32337  26.650  25.899  12.955
61738W        W32338  10.958  37.082  12.252
61739W        W32339  20.748   7.812   0.905
61740W        W32340   9.713   7.348   4.167
61741W        W32341   6.903   2.263  12.987
61742W        W32342  34.477   5.977   4.683
61743W        W32343   5.258  27.165  13.885
61744W        W32344   5.834   7.914   1.195
61745W        W32345  42.320  31.344  12.461
61746W        W32346   3.808  19.463  12.010
61747W        W32347  44.316  16.534   3.546
61748W        W32348  27.606  26.768  14.191
61749W        W32349  31.470  31.951  10.968
61750W        W32350  39.852  24.928  12.107
61751W        W32351   9.196   1.390  12.102
61752W        W32352   5.974  44.207   2.771
61753W        W32353  27.497   9.529   4.078
61754W        W32354   0.015  15.129   4.452
61755W        W32355  38.882  21.724  13.018
61756W        W32356  21.238  19.102   3.662
61757W        W32357   4.094  37.323   3.786
61758W        W32358  34.464  12.226  10.675
61759W        W32359   9.568  28.889  10.894
61760W        W32360  38.416  15.058  12.467
61761W        W32361  31.566   1.890  12.570
61762W        W32362  25.588  16.840  10.387
61763W        W32363  21.432  42.544  13.926
61764W        W32364  13.602  28.527   2.869
61765W        W32365  17.978   6.065   4.104
61766W        W32366  22.767  40.809  10.834
61767W        W32367  18.176  40.582  14.361
61768W        W32368  33.563   9.150  12.014
61769W        W32369  12.602  33.047  14.996
61770W        W32370  15.733  10.335  14.327
61771W        W32371   8.609  34.954   1.305
61772W        W32372  35.113   5.763  10.751
61773W        W32373   5.518  31.484   3.316
61774W        W32374  32.177  23.484   4.627
61775W        W32375  26.563  21.207  12.457
61776W        W32376  23.518   7.154   2.653
61777W        W32377  26.082   9.284  10.795
61778W        W32378  38.494  33.410  10.697
61779W        W32379  39.197   8.224  11.993
61780W        W32380   2.304  28.415  10.674
61781W        W32381   6.981  40.512  12.548
61782W        W32382  18.735  17.061   4.536
61783W        W32383  20.564  14.182   3.675
61784W        W32384  12.298  40.794   2.550
61785W        W32385  37.067  43.537   4.131
61786W        W32386  35.322  39.371  11.959
61787W        W32387  38.190   1.304   2.307
61788W        W32388  12.565  23.284  11.100
61789W        W32389   8.808  34.253   4.705
61790W        W32390  37.417  37.507  12.448
61791W        W32391  25.415  17.171   3.504
61792W        W32392   1.924  28.040  12.204
61793W        W32393   0.317   3.194   0.391
61794W        W32394   0.785  42.000  13.835
61795W        W32395  42.757  33.236   5.008
61796W        W32396   5.618  21.638  12.055
61797W        W32397   9.188  39.637   4.968
61798W        W32398  38.546  13.150  14.110
61799W        W32399  19.916  31.613   0.422
61800W        W32400  40.539  14.669  12.562
61801W        W32401  44.292   2.338  13.392
61802W        W32402   2.336  41.388  14.504
61803W        W32403  33.823  43.534  12.927
61804W        W32404  37.558  26.548  10.464
61805W        W32405   6.615  16.307   3.866
61806W        W32406  31.447  15.843  14.862
61807W        W32407   2.158  18.450   0.944
61808W        W32408  25.593  41.831  11.881
61809W        W32409  41.013   1.052  14.504
61810W        W32410  34.865  38.690  14.864
61811W        W32411  14.245  12.506   4.983
61812W        W32412  16.547  38.952  13.314
61813W        W32413   8.609  21.659  14.234
61814W        W32414  44.930  31.063   0.654
61815W        W32415  25.621  32.325   0.951
61816W        W32416  28.582   1.130   3.154
61817W        W32417  37.482  39.895  10.155
61818W        W32418  25.072  32.997  11.639
61819W        W32419  36.917  28.153   1.728
61820W        W32420  36.309  10.085   2.339
61821W        W32421   4.706  30.555  12.072
61822W        W32422  43.355  42.197   3.194
61823W        W32423  40.526  26.006  11.240
61824W        W32424  24.569   2.494  13.528
61825W        W32425   3.461  22.322   1.960
61826W        W32426  28.016   6.190  11.552
61827W        W32427  37.667  12.482   1.620
61828W        W32428  13.656  21.391  13.270
61829W        W32429  39.999  11.837  13.400
61830W        W32430  10.606  25.225  11.248
61831W        W32431  27.611   6.784   1.270
61832W        W32432  29.426   0.364  12.133
61833W        W32433  22.535  23.743  14.281
61834W        W32434   5.864  37.054   2.596
61835W        W32435  22.665  23.189   1.279
61836W        W32436   5.846  33.141   3.793
61837W        W32437  23.746  36.903   3.032
61838W        W32438  25.431  26.286  11.663
61839W        W32439  12.252  17.696   1.727
61840W        W32440   9.561  14.674   3.133
61841W        W32441  38.979  11.612   1.842
61842W        W32442  23.400   8.743   1.490
61843W        W32443   2.344   4.442   1.860
61844W        W32444  33.879  34.388   0.905
61845W        W32445  33.677   6.725   3.648
61846W        W32446  41.898   0.440  10.750
61847W        W32447  27.533  26.525  10.750
61848W        W32448  33.462  23.247  10.760
61849W        W32449   9.823   7.949   2.368
61850W        W32450  35.437  14.800   3.111
61851W        W32451  22.556  31.656  14.903
61852W        W32452  39.057   5.679   4.639
61853W        W32453  18.568  25.675  12.350
61854W        W32454  27.960  39.729   4.199
61855W        W32455   5.422  24.122  11.203
61856W        W32456  38.395  41.255  13.853
61857W        W32457  42.565  10.876   4.610
61858W        W32458   5.031  10.780   0.908
61859W        W32459  44.914  20.604  13.129
61860W        W32460  40.883  43.369   4.456
61861W        W32461  25.880  13.893  11.528
61862W        W32462  44.496  10.579  12.131
61863W        W32463  15.098   2.320  14.404
61864W        W32464  19.012  35.477   0.339
61865W        W32465  32.987  41.486  11.317
61866W        W32466  38.470  18.327   4.836
61867W        W32467   2.717   7.165  14.737
61868W        W32468  20.039  17.068  12.976
61869W        W32469  15.912  42.079   4.816
61870W        W32470  17.325  16.711   2.641
61871W        W32471  30.983  30.361  13.507
61872W        W32472  44.334  24.257  11.627
61873W        W32473  27.672   9.539   0.841
61874W        W32474  30.537  29.004  11.513
61875W        W32475  21.000  33.987  14.346
61876W        W32476  36.417  41.959   0.833
61877W        W32477   6.195  27.933  13.459
61878W        W32478   3.921   6.707   4.815
61879W        W32479  17.833  40.856  14.061
61880W        W32480  24.138  39.745   5.024
61881W        W32481  28.042  24.062  11.353
61882W        W32482   1.824  20.835  12.392
61883W        W32483  24.726   4.044  12.958
61884W        W32484  18.717   7.440  13.512
61885W        W32485  20.734  10.865   4.084
61886W        W32486  17.098   3.691  10.980
61887W        W32487  24.734  30.594   2.604
61888W        W32488   9.513   1.801  11.989
61889W        W32489  40.949  29.404  11.076
61890W        W32490  31.204  24.611  14.307
61891W        W32491  37.146  29.903   2.752
61892W        W32492  32.438  44.461   0.772
61893W        W32493  30.587  13.570   3.269
61894W        W32494  26.392  41.424   3.161
61895W        W32495  36.254  22.997   0.488
61896W        W32496  26.377  42.430  12.019
61897W        W32497  39.120  13.983  13.051
61898W        W32498   8.871  15.281  11.191
61899W        W32499  41.341   1.296  14.813
61900W        W32500  27.405  39.287   1.884
61901W        W32501  15.886   6.280  12.651
61902W        W32502  20.773  34.860   4.707
61903W        W32503  31.893  19.152   2.794
61904W        W32504  25.129  42.591  14.397
61905W        W32505  18.497   3.062  11.410
61906W        W32506  35.129  33.512   1.656
61907W        W32507  34.010  23.069  12.369
61908W        W32508  21.063  35.799   3.208
61909W        W32509  17.658   4.068   0.153
61910W        W32510  35.680  11.785  14.854
61911W        W32511  31.969  19.518  14.402
61912W        W32512  32.218  26.918   3.617
61913W        W32513   4.281  35.957   4.521
61914W        W32514  41.165  35.115   4.674
61915W        W32515   5.157   7.420  11.714
61916W        W32516  34.568  42.622   1.833
61917W        W32517  26.397  42.946   1.790
61918W        W32518  38.626  31.028   1.181
61919W        W32519   8.461  10.130   2.494
61920W        W32520   5.411  19.026   2.226
61921W        W32521   8.242   2.448   0.330
61922W        W32522  20.699  13.247  13.299
61923W        W32523  44.844  40.264  12.485
61924W        W32524  29.780  36.936  14.275
61925W        W32525  23.441  12.649   2.205
61926W        W32526   2.775  20.320   2.140
61927W        W32527  43.773  25.769   1.708
61928W        W32528   5.714   6.291   3.636
61929W        W32529  26.941  10.224  14.433
61930W        W32530  14.619   7.822   1.399
61931W        W32531  13.141  10.294  11.193
61932W        W32532  20.713  26.474  11.833
61933W        W32533  33.968  40.067  14.367
61934W        W32534  23.166  10.212   4.557
61935W        W32535  44.192  36.404   0.891
61936W        W32536  26.511  13.960   4.528
61937W        W32537   2.354   8.459   0.864
61938W        W32538   8.818  24.643  13.679
61939W        W32539  10.358   9.361  11.108
61940W        W32540  25.718  19.608   1.350
61941W        W32541  21.197  35.017   4.448
61942W        W32542  22.148   7.930   1.915
61943W        W32543   2.925  38.168   3.366
61944W        W32544  29.563  33.831   4.919
61945W        W32545   4.795   2.976   4.544
61946W        W32546  12.196  21.587   3.315
61947W        W32547  35.927  26.171   4.833
61948W        W32548  43.947  35.790  10.538
61949W        W32549  41.291   8.343  14.445
61950W        W32550  34.883   4.906  11.909
61951W        W32551  19.585  19.827   5.101
61952W        W32552   6.275  37.358   3.314
61953W        W32553   2.271  26.145   4.110
61954W        W32554  29.869  23.047  10.705
61955W        W32555  43.758  42.119   4.752
61956W        W32556   6.852   8.256  11.144
61957W        W32557   4.322  11.452  12.816
61958W        W32558  32.164  28.567   0.296
61959W        W32559  14.305  10.919   1.807
61960W        W32560  39.115  14.749  12.932
61961W        W32561   3.652   8.747   3.136
61962W        W32562  24.929  44.850  12.729
61963W        W32563  14.709   6.767  13.619
61964W        W32564   4.835  18.578  14.858
61965W        W32565  34.128  31.926   5.360
61966W        W32566  38.149  36.603   3.978
61967W        W32567  20.428  10.841   3.652
61968W        W32568  10.646  30.166   1.829
61969W        W32569   5.324  42.280   2.638
61970W        W32570   7.334  11.218  10.702
61971W        W32571   2.458  16.060   1.771
61972W        W32572  24.999  33.410  13.345
61973W        W32573  24.117  37.925   4.701
61974W        W32574   9.298  34.438  10.677
61975W        W32575  29.128  37.411  12.814
61976W        W32576   6.401  18.828   0.933
61977W        W32577   3.837  11.683  12.583
61978W        W32578  29.891  42.027  11.684
61979W        W32579  33.642  37.262  11.944
61980W        W32580  16.526  14.115   0.958
61981W        W32581   8.653  22.706   1.935
61982W        W32582  39.579   0.019   4.548
61983W        W32583  27.104  31.009   4.123
61984W        W32584   4.552   5.520   3.731
61985W        W32585   4.852  25.555  10.088
61986W        W32586  30.854  44.401   4.125
61987W        W32587  16.660   5.846   2.651
61988W        W32588  43.120  33.609  11.016
61989W        W32589  38.672  37.320   1.386
61990W        W32590  33.168  18.046  14.746
61991W        W32591  11.743  37.526   3.648
61992W        W32592   8.880  40.078   0.927
61993W        W32593  10.792  41.688   2.075
61994W        W32594   1.724  37.574  10.188
61995W        W32595  23.102  25.244  11.162
61996W        W32596   2.406  16.061   2.654
61997W        W32597  13.587  13.311   1.682
61998W        W32598  23.023  43.898  12.516
61999W        W32599  41.029  42.116  11.932
62000W        W32600  21.409  38.953  10.239
62001W        W32601  22.212  36.429   1.802
62002W        W32602  31.333  21.089   0.725
62003W        W32603  41.002  31.553   2.632
62004W        W32604  17.638  43.743  13.989
62005W        W32605  40.494  26.640   3.206
62006W        W32606  26.207  39.141  14.200
62007W        W32607  12.761  15.131   1.793
62008W        W32608  44.439  35.017  14.253
62009W        W32609  25.222  33.791  10.604
62010W        W32610  15.893  32.498  12.616
62011W        W32611  25.468  16.806  13.830
62012W        W32612  27.930  32.274   4.287
62013W        W32613  41.379   0.020  11.418
62014W        W32614   4.564  14.614   0.502
62015W        W32615   0.635  10.018   2.901
62016W        W32616  12.337  10.256  11.586
62017W        W32617   0.679  22.701  13.767
62018W        W32618  28.934   9.402  11.557
62019W        W32619  24.948  24.946  11.502
62020W        W32620  15.311   4.731   3.267
62021W        W32621  10.171  37.396   0.948
62022W        W32622   9.392  15.598  14.997
62023W        W32623   8.141   4.624  12.458
62024W        W32624   9.829  38.488  14.928
62025W        W32625  39.135   5.763  14.415
62026W        W32626  27.675  33.825  10.689
62027W        W32627  27.415  32.714   3.174
62028W        W32628  33.715  39.004   2.351
62029W        W32629  37.575  24.757  13.033
62030W        W32630  41.290  19.541  12.467
62031W        W32631  11.668  30.468  12.685
62032W        W32632  36.615  17.510  11.238
62033W        W32633   2.918  44.520  12.499
62034W        W32634  15.227  34.315   0.391
62035W        W32635  13.791  39.441   1.874
62036W        W32636  32.069  15.237  11.543
62037W        W32637   9.423  20.965  12.615
62038W        W32638   8.278   7.674  10.658
62039W        W32639   9.120   6.202  11.134
62040W        W32640  10.392  21.158   3.303
62041W        W32641  19.581  34.021   9.984
62042W        W32642   2.353  40.615   2.763
62043W        W32643  42.848   3.613  13.092
62044W        W32644  27.759  10.296   1.208
62045W        W32645  34.546  41.822  12.340
62046W        W32646  33.137   5.172  11.197
62047W        W32647   4.363  17.595   1.292
62048W        W32648  20.772  16.163   3.652
62049W        W32649  27.517  29.106  11.679
62050W        W32650  20.221  38.885  11.624
62051W        W32651  43.355   0.989   2.635
62052W        W32652  28.351  35.981   2.373
62053W        W32653  26.055   7.972   1.228
62054W        W32654  22.636   2.999  10.661
62055W        W32655   7.402  22.645   4.075
62056W        W32656  40.959  17.798   9.962
62057W        W32657  38.233  42.267   0.802
62058W        W32658   0.853  25.154  12.111
62059W        W32659  35.853  32.186   4.728
62060W        W32660  18.241  15.576  11.193
62061W        W32661   4.938   6.192  12.491
62062W        W32662  36.869   6.844   3.399
62063W        W32663   9.022  42.903   4.630
62064W        W32664  11.201  14.616  10.392
62065W        W32665  26.717   4.856   2.703
62066W        W32666  37.181  38.608   1.457
62067W        W32667  32.051  38.404  13.877
62068W        W32668  18.244   8.385  13.444
62069W        W32669  41.440  20.120  13.379
62070W        W32670   4.814  11.694  11.603
62071W        W32671   1.407  25.463  14.528
62072W        W32672   0.130   7.928  10.628
62073W        W32673  22.376  18.803  11.662
62074W        W32674  21.249  24.114   2.606
62075W        W32675  24.737  14.261  13.083
62076W        W32676  31.979  24.133   0.341
62077W        W32677  30.785   4.292  12.851
62078W        W32678   1.917  39.180   0.426
62079W        W32679  22.327  37.064  10.633
62080W        W32680  34.034  18.168  10.661
62081W        W32681  37.538  35.447   1.124
62082W        W32682  20.281  16.718   4.889
62083W        W32683  25.677  11.149   4.293
62084W        W32684  26.107  38.879  11.047
62085W        W32685  38.421  15.815  12.947
62086W        W32686  24.255  19.389   3.519
62087W        W32687  42.371   8.675   4.159
62088W        W32688   1.050  41.521  12.106
62089W        W32689  22.600  21.096   0.246
62090W        W32690   4.836  12.381   4.201
62091W        W32691   1.532   5.872  12.623
62092W        W32692   5.480  30.699   1.314
62093W        W32693  37.282  44.920  12.076
62094W        W32694  32.578  34.107  12.916
62095W        W32695   3.023  33.879   3.168
62096W        W32696   1.796  41.125  13.012
62097W        W32697  16.177  38.614  12.610
62098W        W32698  44.117  18.069   0.367
62099W        W32699  33.918  25.225  10.804
62100W        W32700  37.608  13.620  14.502
62101W        W32701  12.344  44.864   1.356
62102W        W32702  29.437  21.220   0.562
62103W        W32703  22.951  10.280  10.268
62104W        W32704  16.619  15.069   2.379
62105W        W32705  39.111   4.735  13.382
62106W        W32706  26.552  33.232   2.455
62107W        W32707  14.058   0.372  12.977
62108W        W32708  35.389  10.386   4.930
62109W        W32709  38.471  38.423  14.848
62110W        W32710  10.702   6.775   4.554
62111W        W32711  27.549  34.081  13.849
62112W        W32712   7.906  44.597   1.401
62113W        W32713  11.562  42.676   4.041
62114W        W32714  34.521  18.762   0.303
62115W        W32715  14.325  22.679  10.800
62116W        W32716  22.012   6.962  12.096
62117W        W32717   0.314   4.944   4.284
62118W        W32718  33.511  22.227   3.332
62119W        W32719  14.335   0.962   1.309
62120W        W32720   8.478  20.211  11.115
62121W        W32721  32.417  29.177   3.760
62122W        W32722  11.242  33.429   2.856
62123W        W32723  25.958  28.239   2.316
62124W        W32724   4.439   6.804  11.061
62125W        W32725  35.044  20.647  11.744
62126W        W32726  35.857  44.018  12.027
62127W        W32727   5.789  36.537   3.312
62128W        W32728  15.239  26.417   2.673
62129W        W32729   1.862  27.966   2.294
62130W        W32730  18.149   4.385  12.520
62131W        W32731  18.211  29.696  12.593
62132W        W32732  20.845  24.440   1.638
62133W        W32733  32.916   6.175   3.339
62134W        W32734  40.014  30.143  10.509
62135W        W32735  18.324  12.321   2.437
62136W        W32736   6.242  34.860  13.953
62137W        W32737  34.749  34.991   5.233
62138W        W32738  25.161  43.594  12.387
62139W        W32739  11.340  21.143  10.304
62140W        W32740  22.973   4.886   0.318
62141W        W32741  33.686  43.500   4.374
62142W        W32742  21.599  27.381  14.611
62143W        W32743   0.285   0.532  14.910
62144W        W32744  13.358  22.088  13.442
62145W        W32745  34.851  19.124   3.757
62146W        W32746  14.773  36.632   1.343
62147W        W32747  37.005  10.226   4.543
62148W        W32748  37.754  38.872  14.411
62149W        W32749   7.520  40.200  11.587
62150W        W32750  11.149  36.210  14.994
62151W        W32751  34.048  15.537   0.905
62152W        W32752  24.338   7.257  11.055
62153W        W32753   4.300   0.166   2.690
62154W        W32754  37.821  21.486  10.364
62155W        W32755  26.629  14.580  12.203
62156W        W32756  16.012  42.912  12.315
62157W        W32757   7.213  11.721  13.572
62158W        W32758  44.014  25.605  12.511
62159W        W32759  16.194  27.683  10.886
62160W        W32760  20.533  43.733   0.018
62161W        W32761  22.038   6.169  11.562
62162W        W32762  37.654  41.362  10.799
62163W        W32763  40.516  37.341   2.623
62164W        W32764  41.283  22.510  10.732
62165W        W32765  30.512  14.222  12.889
62166W        W32766  20.174  33.580  13.548
62167W        W32767  20.167  20.092  13.550
62168W        W32768   7.592  21.608  14.275
62169W        W32769  44.578  24.565  11.972
62170W        W32770  40.708  15.041  12.901
62171W        W32771  18.401  27.937   0.775
62172W        W32772  27.977  42.227   2.453
62173W        W32773  20.054  31.518   3.939
62174W        W32774  10.877  32.964   0.899
62175W        W32775  28.059   3.394  11.233
62176W        W32776  44.599   2.899  12.046
62177W        W32777  35.677   6.919   4.093
62178W        W32778   7.353  18.464   1.099
62179W        W32779   4.394  19.291   4.585
62180W        W32780  18.633   6.120   2.408
62181W        W32781   9.197  22.318  13.361
62182W        W32782  32.258  39.652  11.969
62183W        W32783   9.790  40.997  11.415
62184W        W32784  39.047   2.669   2.811
62185W        W32785  35.789  23.736   2.278
62186W        W32786  12.566   0.606   1.217
62187W        W32787  35.421   6.887  12.745
62188W        W32788  24.304  28.099   1.132
62189W        W32789  40.644  37.153  13.014
62190W        W32790   7.224  12.302  13.136
62191W        W32791   8.885  25.512  13.655
62192W        W32792  22.977  27.189  14.437
62193W        W32793  23.961  16.410   1.358
62194W        W32794  22.484  14.612   1.707
62195W        W32795  16.346  24.084   3.915
62196W        W32796   4.995  42.466   3.873
62197W        W32797  39.003  35.540   3.048
62198W        W32798   2.160   8.362   4.229
62199W        W32799  14.627  32.497   0.432
62200W        W32800   5.616   7.186  13.927
62201W        W32801  11.360   8.958   3.270
62202W        W32802   7.357  28.919  13.162
62203W        W32803  38.121  32.029   0.156
62204W        W32804  22.742  39.921   1.330
62205W        W32805   3.748  40.581  14.378
62206W        W32806  19.520  13.968   3.360
62207W        W32807  28.675  14.896  14.144
62208W        W32808  36.635  14.597   1.183
62209W        W32809   4.691   9.992   0.372
62210W        W32810  38.095  26.700  12.881
62211W        W32811  42.901  36.549   3.767
62212W        W32812   0.147  17.726   0.827
62213W        W32813  23.247  18.157  13.929
62214W        W32814  26.359  25.245  11.396
62215W        W32815  27.029  19.218  13.455
62216W        W32816  44.520  32.555   3.198
62217W        W32817   1.581  40.531   0.693
62218W        W32818   3.379  25.502   1.133
62219W        W32819  27.080  44.731  13.414
62220W        W32820  26.997  41.012   0.559
62221W        W32821  40.501  38.078  12.605
62222W        W32822  28.429  22.550  10.545
62223W        W32823  28.113  42.972  13.924
62224W        W32824  17.664   5.299  12.674
62225W        W32825  28.836  33.512  10.657
62226W        W32826  13.510  10.841  11.155
62227W        W32827   8.306   0.143   0.565
62228W        W32828   5.014  14.179   1.834
62229W        W32829  11.207   2.677  11.009
62230W        W32830   4.390   1.463  13.488
62231W        W32831   7.107  43.257  10.958
62232W        W32832  43.341   7.098   3.350
62233W        W32833  28.007  26.088   0.845
62234W        W32834  14.741   0.365   2.864
62235W        W32835   3.911  39.687  11.424
62236W        W32836  22.062  13.727  10.884
62237W        W32837  12.570   3.636  12.054
62238W        W32838  12.844  41.444  12.370
62239W        W32839  13.249   5.104  14.300
62240W        W32840  40.010  18.573   0.853
62241W        W32841  21.797  36.987  11.544
62242W        W32842  37.129  23.289   4.084
62243W        W32843   8.876  43.904  10.738
62244W        W32844  23.542  36.521  12.882
62245W        W32845  28.568  37.958  13.763
62246W        W32846  38.342  33.021  14.371
62247W        W32847  17.029   3.393  14.362
62248W        W32848  26.169  30.081  13.512
62249W        W32849  22.986  44.763   0.904
62250W        W32850  30.464  33.477   0.837
62251W        W32851  36.887   0.547  11.491
62252W        W32852  34.411   2.245   3.739
62253W        W32853  31.482  31.407  14.438
62254W        W32854   0.205  20.468   0.789
62255W        W32855   5.098   3.269  11.982
62256W        W32856  31.430   1.527   4.202
62257W        W32857  40.046  16.006   3.068
62258W        W32858  25.170  25.276   2.306
62259W        W32859  17.376  14.596  14.579
62260W        W32860  17.998   4.193   4.620
62261W        W32861   0.923  18.248  14.949
62262W        W32862  41.040  37.800  10.499
62263W        W32863   6.169  32.513   4.875
62264W        W32864  23.748   0.121  14.089
62265W        W32865  27.524   0.720  11.307
62266W        W32866  36.314  32.604   1.851
62267W        W32867   8.627  16.816  10.381
62268W        W32868  15.442  32.835   3.717
62269W        W32869  29.449  10.167  14.288
62270W        W32870  15.009  42.380  13.469
62271W        W32871  21.152  23.279  12.836
62272W        W32872  21.820  22.398   4.449
62273W        W32873  39.550  35.613  14.825
62274W        W32874  12.687  14.810   2.225
62275W        W32875  33.959  25.999   3.241
62276W        W32876   0.764  19.589   2.730
62277W        W32877  41.437  29.307  11.199
62278W        W32878   7.686   4.264   2.611
62279W        W32879   0.934  37.505  11.177
62280W        W32880  13.797   9.636  14.267
62281W        W32881  11.771  11.715  11.933
62282W        W32882  26.527  31.574  12.955
62283W        W32883  40.419  27.111  11.737
62284W        W32884  25.550  16.057  11.974
62285W        W32885  30.335  14.847  13.992
62286W        W32886  32.665   1.967   1.269
62287W        W32887  10.337  43.968   0.230
62288W        W32888  17.754   4.749  12.474
62289W        W32889  17.165   5.324  12.520
62290W        W32890  15.255  16.883   3.086
62291W        W32891  11.054  21.640   4.778
62292W        W32892  26.185  17.267  13.760
62293W        W32893   5.340  37.422   0.167
62294W        W32894  29.901   6.353  11.887
62295W        W32895   9.726  14.359  11.231
62296W        W32896  44.256   5.422  13.119
62297W        W32897  33.649   1.293   3.222
62298W        W32898  29.169  43.292   4.597
62299W        W32899  41.322  42.505   4.228
62300W        W32900   4.848   7.495  14.329
62301W        W32901  39.123   7.083   1.215
62302W        W32902  44.958   2.971  13.416
62303W        W32903  26.585  24.986   1.727
62304W        W32904  33.063  20.007   0.531
62305W        W32905  29.232  16.698   4.096
62306W        W32906  39.886  25.743  11.140
62307W        W32907  11.597  38.108  14.899
62308W        W32908   3.814   9.408   0.302
62309W        W32909  27.965  35.305  12.003
62310W        W32910  39.607   8.226  12.924
62311W        W32911  20.207  27.394  12.553
62312W        W32912  37.522  14.418   2.594
62313W        W32913  22.248   3.419  12.975
62314W        W32914  34.179  44.513  11.968
62315W        W32915  30.090  21.537   0.239
62316W        W32916  18.021  13.672   1.916
62317W        W32917   7.647   6.708  14.993
62318W        W32918  23.261  11.546   3.054
62319W        W32919  27.231  44.728  11.552
62320W        W32920   8.235  22.281   4.118
62321W        W32921  34.600   2.729   4.632
62322W        W32922   7.385   4.106   0.549
62323W        W32923  29.661   1.359   2.272
62324W        W32924  44.550  44.302  12.625
62325W        W32925   6.123  42.282  10.642
62326W        W32926  36.776  31.139   0.456
62327W        W32927  16.079  44.825  10.894
62328W        W32928  18.069  19.983  14.700
62329W        W32929  27.507  31.047   3.817
62330W        W32930  33.979  19.380  11.511
62331W        W32931  17.664  11.686   0.998
62332W        W32932  43.568   1.463  12.016
62333W        W32933  18.941  21.448  11.067
62334W        W32934  32.556   9.385   2.915
62335W        W32935  44.961  27.488  10.701
62336W        W32936  30.568  10.650   1.830
62337W        W32937  37.108   0.668   2.746
62338W        W32938  18.311  11.705  14.849
62339W        W32939  39.283  40.332   1.906
62340W        W32940  25.940  35.046   3.296
62341W        W32941  37.856  32.388   0.465
62342W        W32942   5.603  43.379  14.310
62343W        W32943  39.921  41.748  13.377
62344W        W32944  23.666  17.105   2.943
62345W        W32945   7.519  27.019   4.096
62346W        W32946   6.464  26.137  12.532
62347W        W32947   4.645  41.576   4.867
62348W        W32948  34.155   8.210   3.261
62349W        W32949   9.718  16.845   4.321
62350W        W32950  20.989  17.391   2.298
62351W        W32951  30.972   6.832   4.698
62352W        W32952  20.734  27.770  14.340
62353W        W32953  36.973  35.174   0.382
62354W        W32954  25.781  16.115  11.092
62355W        W32955  44.054  10.630   2.363
62356W        W32956  44.712  39.638  14.432
62357W        W32957  20.731  39.409   0.839
62358W        W32958  29.699  22.665  14.377
62359W        W32959  18.774  35.754   3.313
62360W        W32960  26.964  44.886  10.702
62361W        W32961   3.081  25.173   2.923
62362W        W32962   8.725  28.968  13.585
62363W        W32963  32.502  20.618   3.288
62364W        W32964   8.341  35.880   2.768
62365W        W32965  29.039  22.045  10.673
62366W        W32966  18.657   8.777   1.883
62367W        W32967  33.394  27.497  11.935
62368W        W32968  26.590   8.366  13.015
62369W        W32969  15.634  27.955   2.791
62370W        W32970  16.949  19.308   2.769
62371W        W32971   8.906  41.944   3.136
62372W        W32972  14.729  44.482   0.332
62373W        W32973  22.529  44.528   3.249
62374W        W32974  12.791   6.598   0.430
62375W        W32975  31.583  12.643  14.849
62376W        W32976  42.330  24.961   1.641
62377W        W32977  20.756  33.820   4.153
62378W        W32978  18.463   1.003   2.847
62379W        W32979  12.704  14.923   0.847
62380W        W32980  23.296   3.047   1.889
62381W        W32981  34.899  36.115  10.444
62382W        W32982  11.216   2.901  12.490
62383W        W32983  39.882   6.970  11.667
62384W        W32984  19.294   1.234  13.593
62385W        W32985  32.372  18.691   0.266
62386W        W32986  13.827  20.823  14.923
62387W        W32987  37.266  33.347   3.152
62388W        W32988  20.261   7.950  11.562
62389W        W32989  17.724  13.774  11.891
62390W        W32990  33.404   9.906  11.583
62391W        W32991  28.205  19.045  11.605
62392W        W32992  44.360  31.015  11.397
62393W        W32993   4.502  42.747  13.692
62394W        W32994   1.070   8.700  12.963
62395W        W32995  18.972  43.733   3.837
62396W        W32996  19.735  16.052   4.662
62397W        W32997  12.703   7.165   3.682
62398W        W32998   7.016  41.854  13.110
62399W        W32999  24.376  34.410   4.997
62400W        W33000  41.048  22.038   4.259
62401W        W33001  43.451  15.693  12.853
62402W        W33002   0.330  11.090  11.559
62403W        W33003  15.734  15.582   0.826
62404W        W33004  30.897  18.381   0.374
62405W        W33005   4.243  18.250  12.692
62406W        W33006   8.200  29.710  11.059
62407W        W33007  15.310  11.399  11.083
62408W        W33008  17.566  31.148   2.586
62409W        W33009  38.701   5.685   5.023
62410W        W33010   7.418   5.686  14.014
62411W        W33011  14.566  10.781   3.715
62412W        W33012  43.461  41.497  10.769
62413W        W33013  20.755  14.653  13.577
62414W        W33014  39.509  19.609  12.628
62415W        W33015   2.817  13.835   2.150
62416W        W33016  28.224  20.223   0.390
62417W        W33017  44.767  36.793   4.604
62418W        W33018  14.147  33.832  12.927
62419W        W33019  14.676  34.478  14.497
62420W        W33020   9.222  43.727   3.346
62421W        W33021  32.014  39.421  14.642
62422W        W33022  37.366  31.489   0.280
62423W        W33023  17.875  21.063   3.693
62424W        W33024  29.601  38.879   2.827
62425W        W33025  29.884  43.825  14.483
62426W        W33026   5.292  19.158  14.204
62427W        W33027  35.350   1.815   1.383
62428W        W33028  31.166  21.778   0.331
62429W        W33029  13.859  24.767  11.144
62430W        W33030  27.958   1.410   2.750
62431W        W33031   2.649  13.276  14.821
62432W        W33032   5.725   6.191   3.114
62433W        W33033  44.791  18.021   2.286
62434W        W33034   5.938  12.620   4.587
62435W        W33035  33.828   8.832  14.589
62436W        W33036  15.072  15.044  11.108
62437W        W33037  41.287  10.311  12.055
62438W        W33038  36.870   3.408   2.786
62439W        W33039  19.482  33.656   4.031
62440W        W33040  41.034  39.580  12.074
62441W        W33041   7.608  19.743   2.176
62442W        W33042  38.505  20.549  12.058
62443W        W33043  43.359   7.034  13.023
62444W        W33044  11.152  15.361   2.867
62445W        W33045  42.498  36.626   0.510
62446W        W33046  15.063  18.756   3.361
62447W        W33047  30.023   2.077  11.835
62448W        W33048  32.377   3.194   2.474
62449W        W33049  22.844  29.036  10.680
62450W        W33050  38.789  20.355   3.066
62451W        W33051   4.026  19.674   1.682
62452W        W33052  35.811  35.051  10.640
62453W        W33053  16.492   8.618  11.816
62454W        W33054  28.633  19.719  14.900
62455W        W33055  42.586  19.844   0.766
62456W        W33056   3.775  42.395  11.000
62457W        W33057   8.927  19.872  12.095
62458W        W33058  39.414  35.812  14.328
62459W        W33059  17.574  38.406   0.245
62460W        W33060  41.536  43.023  13.417
62461W        W33061  24.686  16.820  14.316
62462W        W33062   1.244   5.254  11.635
62463W        W33063  14.108  35.343  14.251
62464W        W33064  34.445   7.709   1.325
62465W        W33065  17.038  15.976   3.769
62466W        W33066  41.009  38.632   4.617
62467W        W33067  19.884  24.774   3.722
62468W        W33068  36.570  23.911   3.683
62469W        W33069   6.925   0.293   1.882
62470W        W33070  17.078  24.955  12.524
62471W        W33071  15.698  36.139   3.246
62472W        W33072   2.525   1.346  10.606
62473W        W33073  17.655   0.840   1.663
62474W        W33074  12.377   7.223   0.896
62475W        W33075   5.829  23.245   2.266
62476W        W33076   7.615  35.179  14.921
62477W        W33077  40.649   3.299   1.770
62478W        W33078  10.164  26.006   0.871
62479W        W33079  33.522  33.119   0.540
62480W        W33080  28.653  25.510   2.694
62481W        W33081  13.150  11.216   1.861
62482W        W33082  11.109  23.099  13.433
62483W        W33083  44.230   9.638  11.160
62484W        W33084   8.198  17.185  14.415
62485W        W33085  38.075  32.549  14.401
62486W        W33086  24.128  10.847  14.326
62487W        W33087  41.283  22.609   0.727
62488W        W33088   2.429  39.300   1.280
62489W        W33089   3.401  15.356   1.375
62490W        W33090  23.955  36.962   1.710
62491W        W33091  20.736  39.919  13.324
62492W        W33092  26.466  28.228  14.909
62493W        W33093  10.689  38.457   2.111
62494W        W33094  29.944  35.903   4.616
62495W        W33095  41.092  11.691   2.873
62496W        W33096   3.729  27.599   2.342
62497W        W33097   1.365   7.476  13.924
62498W        W33098   9.647  28.393  10.727
62499W        W33099  28.996  28.868   2.692
62500W        W33100  15.544  23.089  10.279
62501W        W33101  21.534  24.785  12.091
62502W        W33102  23.704  24.667   4.135
62503W        W33103  28.576  13.004   5.091
62504W        W33104   8.230  34.886  11.065
62505W        W33105  17.811  13.420   4.116
62506W        W33106  30.897  29.360   0.018
62507W        W33107   5.616  20.180   4.586
62508W        W33108   6.248  26.487  13.912
62509W        W33109  15.899  14.348  13.405
62510W        W33110  43.965  17.200  12.080
62511W        W33111  28.549  14.209  10.822
62512W        W33112  34.517  26.752   4.138
62513W        W33113  42.475  37.820  11.157
62514W        W33114  28.629  22.647   1.850
62515W        W33115  26.175  20.092   3.694
62516W        W33116  30.528   9.951   4.163
62517W        W33117   4.251  15.089  11.006
62518W        W33118  12.884  12.540   4.380
62519W        W33119   9.142  38.535   1.441
62520W        W33120  11.349  28.449  14.466
62521W        W33121  38.027   2.114   1.834
62522W        W33122  23.994  23.807   4.598
62523W        W33123  23.978  21.148   3.708
62524W        W33124  39.341  37.663  11.410
62525W        W33125  41.201   9.156   1.724
62526W        W33126  19.773   2.721  14.305
62527W        W33127  22.684  41.871  13.779
62528W        W33128   4.936  11.175   3.702
62529W        W33129  25.094   7.473  12.241
62530W        W33130  12.061  13.365   3.770
62531W        W33131  26.080  20.258   2.006
62532W        W33132  22.338   4.193  11.259
62533W        W33133  26.527  34.330  13.454
62534W        W33134  27.120  37.437   4.146
62535W        W33135  33.333   9.683  14.343
62536W        W33136  18.466   4.982  13.216
62537W        W33137  22.708  34.858  14.037
62538W        W33138  23.484  23.167  10.472
62539W        W33139  20.484  34.073  11.725
62540W        W33140  44.773   4.275   0.371
62541W        W33141   1.553   0.320   0.034
62542W        W33142   3.485   9.543   3.223
62543W        W33143  36.380   6.850   0.348
62544W        W33144  38.864   5.764   4.167
62545W        W33145  26.675  33.583   2.104
62546W        W33146   4.975  20.668  10.603
62547W        W33147   0.574  21.139  12.722
62548W        W33148  42.967  25.095   4.470
62549W        W33149  12.336  39.353  11.065
62550W        W33150  26.638  29.126  12.735
62551W        W33151  41.457  17.905  13.932
62552W        W33152  39.919   6.665   2.307
62553W        W33153   5.188  31.908   1.813
62554W        W33154  31.392  35.300  12.436
62555W        W33155   3.961   9.162  10.517
62556W        W33156  19.410   6.787   1.930
62557W        W33157  30.460  38.766  11.995
62558W        W33158  11.280   6.182   2.246
62559W        W33159  36.648   2.744   4.151
62560W        W33160  10.556  21.994   0.375
62561W        W33161  11.599   5.791   2.194
62562W        W33162  31.566  17.661  13.935
62563W        W33163  14.565  24.229   3.172
62564W        W33164  31.875  28.954  12.131
62565W        W33165   5.855  15.824  11.363
62566W        W33166  23.476  38.918   1.748
62567W        W33167  36.117  38.835  11.064
62568W        W33168   2.937  19.124   4.818
62569W        W33169   5.934  44.833   4.557
62570W        W33170  40.581   5.412  13.846
62571W        W33171  39.975  40.987  11.260
62572W        W33172  37.533   6.649  14.857
62573W        W33173  32.963  41.771  12.685
62574W        W33174   5.714   4.380   3.599
62575W        W33175   0.417   5.742  13.422
62576W        W33176  32.667  36.070   2.623
62577W        W33177   5.419   5.841   1.940
62578W        W33178  36.635  30.340   3.241
62579W        W33179  40.047   9.629  13.429
62580W        W33180  32.530  26.188   3.564
62581W        W33181  19.847  25.073  11.116
62582W        W33182  11.721  25.605   4.396
62583W        W33183  27.203  11.264  12.616
62584W        W33184  40.836  12.221   3.622
62585W        W33185  22.620  42.194  10.657
62586W        W33186  13.891   0.826   2.712
62587W        W33187  16.207  26.518  13.337
62588W        W33188  35.579  20.224  13.953
62589W        W33189  34.329  17.435  11.531
62590W        W33190   3.980  40.055  13.422
62591W        W33191  36.085   7.790  14.409
62592W        W33192  21.237  32.349  10.728
62593W        W33193  30.678  31.650  11.466
62594W        W33194  44.314   5.606  10.381
62595W        W33195  23.538  13.835   3.410
62596W        W33196   4.784  41.505   3.659
62597W        W33197  42.910   0.787   3.141
62598W        W33198  37.149  28.585   3.032
62599W        W33199  40.256  27.920  11.127
62600W        W33200  31.087  30.037   3.683
62601W        W33201   6.930  42.536  14.292
62602W        W33202   3.817  28.477  11.161
62603W        W33203  18.654  40.498   5.063
62604W        W33204   7.155  26.624   2.491
62605W        W33205  21.521  26.005   1.609
62606W        W33206  33.886  21.528   2.104
62607W        W33207   4.265  27.087   1.991
62608W        W33208   7.650  22.704   0.058
62609W        W33209  39.783   5.393   0.835
62610W        W33210   6.565  24.761   1.199
62611W        W33211  24.424  30.575  10.805
62612W        W33212  13.048  29.423   0.513
62613W        W33213  24.541   7.484  13.682
62614W        W33214   6.154   7.332   9.885
62615W        W33215   5.321  13.071   1.361
62616W        W33216  24.570  38.116   4.905
62617W        W33217  42.783   5.313   2.140
62618W        W33218  41.969   4.958   2.649
62619W        W33219  24.467  11.317   0.888
62620W        W33220  34.120   8.369   4.521
62621W        W33221  42.064   2.399   2.242
62622W        W33222  43.670  36.059   1.488
62623W        W33223   1.402  17.509  11.181
62624W        W33224   9.215  29.912  13.023
62625W        W33225  44.868  28.787  12.685
62626W        W33226  44.796  32.406   2.790
62627W        W33227  22.445  30.398  13.899
62628W        W33228   1.813  35.911  13.642
62629W        W33229  32.056   0.948  12.078
62630W        W33230   3.344  11.124   0.381
62631W        W33231  24.646   9.904   0.581
62632W        W33232  17.200   4.052   4.165
62633W        W33233  42.480  19.721  14.392
62634W        W33234  40.296  41.323   2.469
62635W        W33235  29.900  37.329  13.431
62636W        W33236  41.771  36.476  11.628
62637W        W33237  38.958   1.240  11.555
62638W        W33238  10.634   7.288   4.245
62639W        W33239   3.810  12.598  12.646
62640W        W33240  18.487  41.415   3.886
62641W        W33241   2.749  12.613   1.321
62642W        W33242  36.444   7.395   0.337
62643W        W33243  26.547  15.179   3.097
62644W        W33244  41.643  10.791  13.317
62645W        W33245  25.429  35.561  12.825
62646W        W33246  44.181  19.821   3.133
62647W        W33247   5.331  31.143   4.177
62648W        W33248   6.400  39.610  11.113
62649W        W33249  26.134  32.512  10.736
62650W        W33250  22.441  35.897  11.159
62651W        W33251  29.634  10.210  14.767
62652W        W33252  12.443   7.447   1.369
62653W        W33253   4.691  21.456  11.558
62654W        W33254   2.165  28.164  14.356
62655W        W33255  33.424  41.964   1.841
62656W        W33256  10.189   4.664  12.228
62657W        W33257  20.423   3.935  11.002
62658W        W33258  30.948   6.353  14.833
62659W        W33259  36.616  40.914  14.240
62660W        W33260  44.367   3.957   2.719
62661W        W33261  17.487  13.203  13.877
62662W        W33262  36.140  44.393   1.950
62663W        W33263  25.737  30.900   3.127
62664W        W33264  20.015  43.932   3.158
62665W        W33265  31.102  37.537  13.890
62666W        W33266  34.383  39.469   0.299
62667W        W33267  21.546  16.265  12.859
62668W        W33268  33.239  43.649   4.114
62669W        W33269  17.644  14.103  10.200
62670W        W33270  25.570  32.585  12.188
62671W        W33271  33.055  26.602  12.864
62672W        W33272  23.189  38.911   0.922
62673W        W33273   7.543  10.375   1.038
62674W        W33274   4.294  12.705  14.024
62675W        W33275   3.794  19.052  12.398
62676W        W33276  20.094  39.137   1.729
62677W        W33277  33.146   9.868   3.567
62678W        W33278  26.197  28.585   2.799
62679W        W33279  29.202  15.659  13.007
62680W        W33280  31.458  18.568   4.051
62681W        W33281  24.470  34.096  14.380
62682W        W33282  37.366  31.531   2.905
62683W        W33283  41.102  41.889  12.396
62684W        W33284  39.984   0.789  14.446
62685W        W33285  15.160  28.600   0.717
62686W        W33286   8.474  23.526   3.236
62687W        W33287  17.195  25.116  12.008
62688W        W33288   3.532  12.118  13.347
62689W        W33289  12.299  44.297  13.509
62690W        W33290  14.912  42.990   0.304
62691W        W33291  36.571  36.900  14.553
62692W        W33292  41.438  33.591   3.607
62693W        W33293  31.190  34.982   3.804
62694W        W33294  36.330   6.846  13.044
62695W        W33295  19.478   1.485  10.638
62696W        W33296  37.915  14.908   3.764
62697W        W33297   3.452  32.508  11.230
62698W        W33298  31.194   7.378  11.611
62699W        W33299   8.270  41.924   0.784
62700W        W33300  33.507   5.597   4.699
62701W        W33301  37.944   0.902  12.867
62702W        W33302  28.952  12.327   0.920
62703W        W33303  35.987  19.129   5.005
62704W        W33304  21.067   4.262  10.146
62705W        W33305  29.057  24.991   4.583
62706W        W33306  11.860  33.114   3.776
62707W        W33307   5.949  26.449   2.309
62708W        W33308  37.615  36.604   4.180
62709W        W33309   3.339   4.915  10.762
62710W        W33310  14.058   0.924   4.243
62711W        W33311  29.039  43.255  14.491
62712W        W33312  27.674  15.367   1.764
62713W        W33313   9.278  30.003  11.275
62714W        W33314  34.884  39.920   0.854
62715W        W33315   3.385  36.810  10.622
62716W        W33316  43.375  32.601   1.419
62717W        W33317  22.058  24.517  13.879
62718W        W33318  19.071  39.441   4.834
62719W        W33319  37.895   2.742  14.809
62720W        W33320  38.406  19.162  11.977
62721W        W33321   2.820  31.922  10.161
62722W        W33322  42.090  14.687   4.686
62723W        W33323   0.846   3.011  11.924
62724W        W33324   2.399  33.884   1.888
62725W        W33325   7.780  31.017   1.613
62726W        W33326  29.575  27.587   1.949
62727W        W33327  15.599   3.217  11.072
62728W        W33328  16.039   0.787  13.357
62729W        W33329  18.166   7.715  11.192
62730W        W33330  39.891  36.379   3.882
62731W        W33331  22.176  20.832   2.094
62732W        W33332  14.854  31.075   3.429
62733W        W33333  40.526  29.399  12.952
62734W        W33334  42.861  17.018   0.842
62735W        W33335  28.162  29.916  14.457
62736W        W33336  31.232  20.098  12.435
62737W        W33337  24.843  28.485   4.586
62738W        W33338  26.698  34.363   2.246
62739W        W33339  13.089  35.545   2.510
62740W        W33340  38.794  17.642  14.324
62741W        W33341  41.286  38.179  11.004
62742W        W33342  13.122  14.069  14.394
62743W        W33343  44.700   3.864  13.081
62744W        W33344  11.597  25.912   0.867
62745W        W33345  11.571  28.774  12.322
62746W        W33346   5.942  25.212   3.726
62747W        W33347  22.899   4.459  13.933
62748W        W33348  35.008  18.821  13.855
62749W        W33349  30.693  14.891  10.726
62750W        W33350  15.742   3.943  11.136
62751W        W33351  30.164   1.303  10.723
62752W        W33352   2.420  42.489   3.360
62753W        W33353  44.762  21.480  12.132
62754W        W33354  16.142  12.571   3.033
62755W        W33355   6.852  42.375   0.795
62756W        W33356  39.052   8.579   0.893
62757W        W33357  25.472   7.554   2.536
62758W        W33358   2.731  35.786  12.978
62759W        W33359  38.343   3.051  14.755
62760W        W33360  31.388  25.607  14.514
62761W        W33361  44.742  32.144  11.541
62762W        W33362  39.247  11.187   0.841
62763W        W33363  27.664  35.339  14.996
62764W        W33364  15.725  37.117   2.938
62765W        W33365  39.358  39.512  12.768
62766W        W33366  27.597  21.358  10.339
62767W        W33367   7.541  16.243  12.091
62768W        W33368  38.553  36.516   4.789
62769W        W33369   0.009  22.659   4.370
62770W        W33370  35.001  43.241  12.247
62771W        W33371   1.107   8.698  14.246
62772W        W33372  25.495  37.243   5.079
62773W        W33373  35.370  15.754   4.299
62774W        W33374   8.433  10.084   3.006
62775W        W33375  41.745  32.453  11.554
62776W        W33376   1.089  30.446   2.575
62777W        W33377  16.068  27.486   3.801
62778W        W33378  15.627  12.246   3.982
62779W        W33379  10.915  26.588   3.126
62780W        W33380  40.493  20.115   1.194
62781W        W33381   3.502  31.511  11.637
62782W        W33382  37.531  24.473   2.897
62783W        W33383  33.142  43.422  14.596
62784W        W33384  29.478  32.425  13.545
62785W        W33385  19.522  24.513  11.569
62786W        W33386  22.194  25.025  10.712
62787W        W33387   2.296   7.047   3.817
62788W        W33388  18.623  19.214   4.740
62789W        W33389  21.229  36.630   0.317
62790W        W33390  21.048  30.418   2.284
62791W        W33391  20.487  32.074   3.830
62792W        W33392  16.333  31.578  10.479
62793W        W33393  10.664   3.207  13.016
62794W        W33394   4.258  23.365   0.755
62795W        W33395   0.659   5.234   0.845
62796W        W33396  35.521  11.876  12.384
62797W        W33397  42.774  19.070  14.981
62798W        W33398   3.777  24.198  13.054
62799W        W33399  35.135  17.639   3.074
62800W        W33400   9.598   4.825  13.941
62801W        W33401  19.644  24.986   4.259
62802W        W33402   3.455  40.088  12.577
62803W        W33403  21.461   9.265   0.309
62804W        W33404  28.924   0.073   0.798
62805W        W33405  22.311  41.815   0.866
62806W        W33406  19.083  26.380   1.309
62807W        W33407  21.630  41.414   3.240
62808W        W33408  20.515  39.429   4.670
62809W        W33409  13.854  42.068   3.712
62810W        W33410  41.902  25.179   2.873
62811W        W33411  20.249  27.427  10.740
62812W        W33412  30.348  16.827  14.996
62813W        W33413   7.969  17.047   3.191
62814W        W33414   6.297  31.877  11.185
62815W        W33415  18.229  14.348   4.209
62816W        W33416  39.437  39.768  11.071
62817W        W33417  35.103  18.312   0.847
62818W        W33418  15.173  11.108  14.463
62819W        W33419  15.264  39.023  12.411
62820W        W33420   2.717  42.487  12.140
62821W        W33421  40.277  31.494   4.774
62822W        W33422  22.892  38.403   0.729
62823W        W33423  24.224  39.838  13.924
62824W        W33424   9.763   7.823   4.547
62825W        W33425  38.255  19.479   5.500
62826W        W33426  18.112   0.013   2.406
62827W        W33427   8.753   1.059   1.435
62828W        W33428  35.844   6.553   2.773
62829W        W33429  12.159  22.207   2.873
62830W        W33430  23.255   5.725  13.862
62831W        W33431   5.126   1.256   1.472
62832W        W33432   6.474  44.536   3.557
62833W        W33433  16.671  33.397   9.727
62834W        W33434  14.065  13.269  10.312
62835W        W33435  17.353  20.493  12.543
62836W        W33436  43.880  13.292  13.682
62837W        W33437  10.576  38.053  13.921
62838W        W33438   6.290  35.771  12.898
62839W        W33439   9.546  35.513   1.326
62840W        W33440  27.068  33.873   3.203
62841W        W33441  18.563  40.450  11.564
62842W        W33442  39.324   2.330   0.882
62843W        W33443  16.180  23.947  12.103
62844W        W33444   9.414  11.345   4.481
62845W        W33445   8.819  16.666   3.352
62846W        W33446  43.445  31.695  12.043
62847W        W33447  23.204   1.575  14.789
62848W        W33448  33.060  25.168   0.912
62849W        W33449  43.185  42.731   2.317
62850W        W33450   4.214   3.602   2.296
62851W        W33451  39.908  20.974  13.487
62852W        W33452  19.330  29.184   1.330
62853W        W33453  24.641  33.587  14.349
62854W        W33454   2.340   7.784   0.093
62855W        W33455  25.269  19.939  13.838
62856W        W33456   2.249  31.616  11.161
62857W        W33457   9.205   9.904  12.475
62858W        W33458  34.416  19.003   2.812
62859W        W33459  22.633  38.034  13.860
62860W        W33460   3.501   8.675  12.564
62861W        W33461  35.484   1.557  11.112
62862W        W33462  41.145  13.211  12.043
62863W        W33463  13.628  15.332   1.231
62864W        W33464  31.335  19.184  10.775
62865W        W33465  25.785  29.051  12.101
62866W        W33466  29.170  38.825  11.084
62867W        W33467  19.492  31.968  11.604
62868W        W33468  39.733  36.470  13.461
62869W        W33469  18.795  12.542   2.171
62870W        W33470  39.402   4.797   0.249
62871W        W33471  41.368  29.969  13.020
62872W        W33472  40.776  20.540   1.217
62873W        W33473  19.329   4.725  13.240
62874W        W33474   3.955  23.011  13.404
62875W        W33475  41.808  25.028  13.337
62876W        W33476  20.862  40.408  14.957
62877W        W33477  36.552  15.319  11.567
62878W        W33478   9.407  29.984   2.323
62879W        W33479  40.944  43.295  13.832
62880W        W33480  33.938  39.154   3.084
62881W        W33481  44.074  24.701   2.448
62882W        W33482  31.834  37.038   4.813
62883W        W33483  28.190   7.288   0.504
62884W        W33484   3.379   9.886  13.914
62885W        W33485  24.738  20.436  14.357
62886W        W33486  43.045  24.778   2.863
62887W        W33487  42.283  33.915  11.491
62888W        W33488  28.605  15.822   2.677
62889W        W33489  19.949  34.101   0.411
62890W        W33490   0.391  24.888  11.012
62891W        W33491  20.053  20.491   0.754
62892W        W33492  43.374  13.232   2.941
62893W        W33493  27.208   5.656   2.327
62894W        W33494  41.795  13.094   0.968
62895W        W33495  43.761   5.419  12.429
62896W        W33496  11.777  44.235   0.688
62897W        W33497  16.110  14.854  14.434
62898W        W33498  38.711  21.386   1.822
62899W        W33499  38.061  17.104  11.064
62900W        W33500  15.295  15.991   5.397
62901W        W33501  40.872  36.106   2.250
62902W        W33502  22.258  24.054  11.597
62903W        W33503  34.053  39.946   4.450
62904W        W33504  12.740   2.572  10.578
62905W        W33505   5.677  15.664   4.310
62906W        W33506  27.022  35.515   1.936
62907W        W33507  27.602  31.182   3.333
62908W        W33508   3.907  44.779  13.395
62909W        W33509  39.732  22.082   3.127
62910W        W33510  32.404  16.238  12.161
62911W        W33511  31.595  16.370   0.784
62912W        W33512  36.139  39.834   2.401
62913W        W33513  25.221  40.891  12.963
62914W        W33514  31.920  18.474  14.371
62915W        W33515  42.897  23.720  12.898
62916W        W33516   2.868  38.417  12.305
62917W        W33517   3.917  41.586   1.386
62918W        W33518  26.242  27.071  13.401
62919W        W33519   5.001  15.373  10.313
62920W        W33520  29.093  18.518  11.172
62921W        W33521  25.234  21.801   1.676
62922W        W33522  18.196  41.273  13.337
62923W        W33523  22.619  22.970   0.811
62924W        W33524  13.762   1.967   1.806
62925W        W33525   7.627   4.870  13.593
62926W        W33526  16.603  41.397  14.240
62927W        W33527  31.642  30.207   4.288
62928W        W33528   2.419  30.453  12.064
62929W        W33529   3.942  41.014  11.726
62930W        W33530  18.730  21.012  12.078
62931W        W33531  32.350   0.729  12.440
62932W        W33532   2.092  15.742   4.826
62933W        W33533   1.744  21.515  13.700
62934W        W33534   9.524  41.416   2.330
62935W        W33535  43.837  13.987   3.847
62936W        W33536   7.133  30.730   2.814
62937W        W33537  12.760  28.519  13.304
62938W        W33538  26.387  43.471   1.881
62939W        W33539   9.782   1.158  14.802
62940W        W33540   4.482  38.062  14.708
62941W        W33541  17.142  10.666   3.713
62942W        W33542   5.696   3.827  12.273
62943W        W33543  10.392  18.957  14.759
62944W        W33544  20.054  21.588   4.154
62945W        W33545  27.143  39.789   3.212
62946W        W33546   2.022  42.381   1.336
62947W        W33547   8.700  21.415   5.058
62948W        W33548   7.385  33.997  13.891
62949W        W33549  26.092  27.516  14.729
62950W        W33550  37.065  32.694   1.772
62951W        W33551  17.426  14.717   4.000
62952W        W33552  27.972  20.581  13.922
62953W        W33553  11.378  13.303   1.382
62954W        W33554  38.876  31.442   4.690
62955W        W33555  11.073   1.324   0.855
62956W        W33556  22.090  38.459   1.896
62957W        W33557  33.421  24.088   4.029
62958W        W33558  22.144  23.017  12.568
62959W        W33559  29.716  18.027   4.147
62960W        W33560  14.078  15.770  12.945
62961W        W33561  11.428  39.251   1.251
62962W        W33562  32.103  18.589   4.520
62963W        W33563  26.474  37.521   3.204
62964W        W33564  10.777  44.396  13.097
62965W        W33565   1.005  18.124   3.103
62966W        W33566  37.518  30.677  13.168
62967W        W33567  44.309  41.029   3.633
62968W        W33568  13.290   5.626   0.671
62969W        W33569  44.208  19.285  10.052
62970W        W33570  28.505  18.638   0.259
62971W        W33571   7.299   3.003  12.518
62972W        W33572  38.353  24.457  14.908
62973W        W33573  37.261  11.147   1.861
62974W        W33574  13.862  39.908  13.975
62975W        W33575  22.192  37.563   1.700
62976W        W33576  42.524  37.991   4.141
62977W        W33577  31.773   8.031  13.836
62978W        W33578  44.440   9.130  14.563
62979W        W33579  19.978  34.420   0.833
62980W        W33580  13.269  25.561  14.973
62981W        W33581  35.954   6.725  13.898
62982W        W33582   4.411   0.510  11.084
62983W        W33583  14.883  38.902  14.005
62984W        W33584  19.042  16.570   4.348
62985W        W33585   7.879   7.862  12.539
62986W        W33586   6.843  31.632  10.673
62987W        W33587  32.613  14.312  13.790
62988W        W33588   4.815   1.540  10.916
62989W        W33589  29.258  24.644  12.439
62990W        W33590  41.940  19.046   2.981
62991W        W33591  29.654  32.593   0.031
62992W        W33592  13.120   1.266  13.451
62993W        W33593  17.603  36.579   0.822
62994W        W33594  28.415  13.614  12.830
62995W        W33595  31.211   3.657  12.027
62996W        W33596  34.933  27.988  14.960
62997W        W33597  24.903  14.902   3.165
62998W        W33598   5.209   0.496  13.316
62999W        W33599  22.308   9.548   9.906
63000W        W33600  28.171  14.122   0.831
63001W        W33601  42.965  36.904   4.172
63002W        W33602  12.130  40.499   4.540
63003W        W33603  22.610   3.390  11.028
63004W        W33604  24.259  41.888   0.778
63005W        W33605   3.373  39.594  12.611
63006W        W33606  41.270  38.716   2.774
63007W        W33607  18.450   9.088   2.704
63008W        W33608   2.962  37.953  12.982
63009W        W33609  44.211  44.748   0.843
63010W        W33610   9.142   6.461  11.975
63011W        W33611  17.586   8.604   1.280
63012W        W33612   8.272  12.637  14.042
63013W        W33613  30.797  20.017   3.578
63014W        W33614  24.216  11.700  14.912
63015W        W33615  24.552   6.051   2.904
63016W        W33616  32.892   6.442  13.931
63017W        W33617  23.570  19.156   1.089
63018W        W33618  33.288   5.266  12.584
63019W        W33619  34.002  23.777   1.821
63020W        W33620  38.472  14.033  14.723
63021W        W33621  22.610  44.458   1.996
63022W        W33622  18.721  32.851  10.653
63023W        W33623  19.220  20.698   4.711
63024W        W33624   8.871  18.001  10.895
63025W        W33625  20.582  30.372  13.476
63026W        W33626   7.208  38.375  11.790
63027W        W33627  41.531   3.134  12.534
63028W        W33628  22.484   9.858  11.200
63029W        W33629  40.112  10.840  14.877
63030W        W33630  31.629  43.602  14.330
63031W        W33631  13.429  43.037   0.459
63032W        W33632  20.483  22.709   4.201
63033W        W33633  16.823   3.370  10.666
63034W        W33634  31.223  29.547   3.744
63035W        W33635  41.596   4.452  12.083
63036W        W33636  38.959  25.178   4.654
63037W        W33637   5.106  42.710  14.961
63038W        W33638  23.627   8.697  14.952
63039W        W33639  37.053   5.384  12.635
63040W        W33640  32.486  29.421  12.584
63041W        W33641   2.253  15.356   4.084
63042W        W33642  30.108  20.149   2.252
63043W        W33643   7.588  36.805   1.056
63044W        W33644  16.687  36.894  14.831
63045W        W33645  24.927   8.323   3.998
63046W        W33646  14.984  31.938  12.504
63047W        W33647  27.434  14.832  12.530
63048W        W33648  26.276  35.116   4.137
63049W        W33649   4.852  18.230  11.455
63050W        W33650  23.316  40.305  13.920
63051W        W33651  35.962  37.474  10.771
63052W        W33652   7.768   4.755  14.581
63053W        W33653  12.828  29.647  14.149
63054W        W33654  13.730  27.086   5.026
63055W        W33655  41.886  14.571  12.856
63056W        W33656  26.668  44.938  13.218
63057W        W33657  22.971  10.726   2.842
63058W        W33658  24.045  34.602  12.134
63059W        W33659  15.788   1.048  14.917
63060W        W33660  44.976   8.670  11.827
63061W        W33661  42.532  29.933   4.710
63062W        W33662  15.291  39.810   3.370
63063W        W33663  25.469   5.992  10.550
63064W        W33664  23.106   8.103   3.567
63065W        W33665   2.965  19.619   3.661
63066W        W33666  16.303   0.820   2.433
63067W        W33667  17.717   8.142   2.675
63068W        W33668  11.112  27.176   2.713
63069W        W33669  18.604  38.100  12.154
63070W        W33670  25.847  35.063   0.751
63071W        W33671  14.888   8.733  12.214
63072W        W33672  29.602  28.968   3.823
63073W        W33673  36.379  10.427  12.644
63074W        W33674  12.807   0.029  11.611
63075W        W33675  15.765  11.001  12.473
63076W        W33676  35.639  44.887   1.258
63077W        W33677  29.656   5.469   3.348
63078W        W33678  21.982  36.705   3.091
63079W        W33679  26.353   3.330   4.551
63080W        W33680   8.751  25.507   5.071
63081W        W33681  27.449   4.333  14.785
63082W        W33682  29.865   8.396  11.562
63083W        W33683  15.698  39.354   4.388
63084W        W33684  21.469  18.188   0.899
63085W        W33685  41.356  39.996  11.959
63086W        W33686  39.543  11.677   0.958
63087W        W33687  20.683  32.195   1.346
63088W        W33688   6.769  37.271  13.214
63089W        W33689   3.378  36.048  11.207
63090W        W33690  32.357  26.579   2.652
63091W        W33691   5.710   3.901   4.088
63092W        W33692  10.215   2.545  13.924
63093W        W33693   1.489  19.660   1.722
63094W        W33694  27.413  37.009  10.629
63095W        W33695  26.998  19.547   3.847
63096W        W33696   3.849   5.706  13.801
63097W        W33697  32.652  15.540   2.136
63098W        W33698  28.968   1.386  12.858
63099W        W33699  38.856  33.855   0.369
63100W        W33700  36.423   4.633  10.171
63101W        W33701  19.074  13.075  11.044
63102W        W33702  42.799  20.789   2.241
63103W        W33703  40.856  34.062   2.627
63104W        W33704  31.927  29.753   4.237
63105W        W33705   8.358  30.198  11.014
63106W        W33706  23.930  12.305  11.120
63107W        W33707  29.345  38.476  14.311
63108W        W33708  26.925  25.983  13.387
63109W        W33709  43.318  10.753  11.693
63110W        W33710  41.979  16.094   0.179
63111W        W33711  39.483   2.002  11.650
63112W        W33712  18.735  13.380  11.267
63113W        W33713  40.503  38.731   1.288
63114W        W33714  35.671  33.989  13.146
63115W        W33715   1.320  40.795   4.615
63116W        W33716  13.772  10.908  13.803
63117W        W33717  13.366   1.289   1.431
63118W        W33718  32.106  29.987  11.963
63119W        W33719  20.280  23.050  11.886
63120W        W33720   7.366  14.830  12.129
63121W        W33721   9.374  32.981  13.834
63122W        W33722  36.351  24.476  12.370
63123W        W33723  41.432  14.857   0.335
63124W        W33724  36.421   3.550  11.429
63125W        W33725  31.171   7.276  10.749
63126W        W33726  37.792  10.346   2.344
63127W        W33727   3.252  38.424   0.500
63128W        W33728  30.575   9.217   0.248
63129W        W33729  12.948   5.323  11.100
63130W        W33730  17.898   2.948   3.768
63131W        W33731  24.449  14.176  13.513
63132W        W33732  38.013  40.293   3.174
63133W        W33733  14.662  40.558   2.336
63134W        W33734   4.649  32.596  14.299
63135W        W33735  10.430  29.431  14.661
63136W        W33736  31.496  39.318  11.615
63137W        W33737  13.222  42.920  12.845
63138W        W33738  28.435  40.946   2.731
63139W        W33739  26.454   4.862   0.736
63140W        W33740  28.897  37.495  11.108
63141W        W33741  20.520   9.341  12.482
63142W        W33742  17.692  10.630  12.078
63143W        W33743   9.638  29.907   1.788
63144W        W33744  35.807  14.161   3.144
63145W        W33745  22.844   4.303  11.230
63146W        W33746  38.950  14.257   4.119
63147W        W33747  12.678  17.017   2.506
63148W        W33748  18.650  15.805  13.477
63149W        W33749  44.275  41.970   3.513
63150W        W33750  21.076  33.582   4.555
63151W        W33751  28.848  27.604   3.809
63152W        W33752  29.024  41.255   0.685
63153W        W33753  11.255  25.438   0.603
63154W        W33754  27.592  33.066  12.991
63155W        W33755  42.210  35.660   0.843
63156W        W33756  33.522  38.132   1.454
63157W        W33757   3.893  16.626  10.627
63158W        W33758  35.525   2.183   3.870
63159W        W33759  43.784   9.372   1.482
63160W        W33760  38.094  12.060  14.700
63161W        W33761  20.134  39.197   0.917
63162W        W33762  19.767  17.647   1.484
63163W        W33763   5.592  17.849   1.220
63164W        W33764  44.044   6.003   4.995
63165W        W33765  37.401  34.902  10.615
63166W        W33766  38.344  32.342  10.757
63167W        W33767   9.642   4.575   1.825
63168W        W33768  22.075  34.865  14.474
63169W        W33769  36.620  35.517  12.058
63170W        W33770  10.466  36.117  11.510
63171W        W33771  21.690  20.204   2.628
63172W        W33772  19.179  32.865   3.857
63173W        W33773   3.146   5.258  13.900
63174W        W33774  21.004  30.102  11.176
63175W        W33775  32.116  31.976  12.125
63176W        W33776  41.051  24.698  14.236
63177W        W33777  25.145  38.468  12.592
63178W        W33778  35.423   0.769   3.297
63179W        W33779  18.535  27.707   4.506
63180W        W33780   7.401  44.526  14.527
63181W        W33781  38.446   9.605  11.076
63182W        W33782  28.990  18.788  12.974
63183W        W33783  16.792  25.683   2.344
63184W        W33784  13.084   2.310  13.442
63185W        W33785  29.289  40.516   2.638
63186W        W33786  41.481  30.036   2.587
63187W        W33787   2.937  24.521   2.888
63188W        W33788  41.287  18.544   3.248
63189W        W33789  25.682  14.271   0.736
63190W        W33790  28.996  23.076  13.981
63191W        W33791  41.986  39.947   4.465
63192W        W33792  30.408   4.266  14.187
63193W        W33793  15.896  28.507  12.895
63194W        W33794   4.243   6.216   3.260
63195W        W33795  26.638  33.809   4.592
63196W        W33796   7.649  30.966  14.427
63197W        W33797   6.967  32.840   1.690
63198W        W33798  34.688  19.430  14.532
63199W        W33799   0.052   2.891  14.380
63200W        W33800   9.288  12.623  12.879
63201W        W33801  15.309   4.689   0.705
63202W        W33802   8.372  43.955  13.019
63203W        W33803  41.725  12.107   2.433
63204W        W33804  20.479  39.920  12.859
63205W        W33805  25.979  15.872   0.357
63206W        W33806  11.802  41.768  14.054
63207W        W33807  24.576  34.592  14.150
63208W        W33808   7.804  15.197  10.780
63209W        W33809  43.387   5.371  12.818
63210W        W33810   7.239   3.319  12.917
63211W        W33811  34.760  29.857  13.874
63212W        W33812  29.713  11.454   5.027
63213W        W33813  17.211  41.931  12.589
63214W        W33814  20.121  10.210   3.706
63215W        W33815   0.225   5.216  11.702
63216W        W33816  17.805   9.196   4.285
63217W        W33817  32.511  11.713  10.711
63218W        W33818   2.737  32.190   4.623
63219W        W33819  29.873  15.748  11.182
63220W        W33820  36.579  43.364   2.358
63221W        W33821  13.127  26.869  12.296
63222W        W33822  14.703  44.377  14.820
63223W        W33823  20.509  17.514  10.498
63224W        W33824  42.836  43.083  12.261
63225W        W33825  23.613  41.375   4.671
63226W        W33826  29.656  27.931  11.230
63227W        W33827  28.906   1.449  13.370
63228W        W33828  24.964  23.496  13.786
63229W        W33829  42.942  13.574   2.263
63230W        W33830  35.438   8.256   4.459
63231W        W33831  12.891  28.546  12.814
63232W        W33832  27.582  28.050  11.631
63233W        W33833  15.809  39.676   3.482
63234W        W33834  10.289  16.755   0.414
63235W        W33835  26.013  12.731   1.292
63236W        W33836  19.501  30.574  14.903
63237W        W33837   6.315  13.165  12.182
63238W        W33838  17.517  21.698   4.567
63239W        W33839   4.892  14.137  12.963
63240W        W33840  11.919  39.870  13.903
63241W        W33841   7.255  14.204   0.229
63242W        W33842  35.690  14.771  14.353
63243W        W33843  41.943  11.259  13.370
63244W        W33844   5.535  37.300  13.891
63245W        W33845  17.214  33.917   0.997
63246W        W33846  25.990  28.143   4.601
63247W        W33847  22.679  14.009   4.184
63248W        W33848   1.068  24.756   4.651
63249W        W33849  21.030  26.212   0.021
63250W        W33850  44.343  29.452   1.290
63251W        W33851   7.420  39.380  10.488
63252W        W33852  21.522  13.197   1.460
63253W        W33853  30.681  33.730   3.878
63254W        W33854  15.686  13.078  14.153
63255W        W33855  43.536  13.965  12.607
63256W        W33856  25.231   2.047  14.899
63257W        W33857  32.437  10.386  14.968
63258W        W33858  43.535  42.453  12.511
63259W        W33859  41.258   8.844   0.574
63260W        W33860  14.313  29.946   1.386
63261W        W33861  14.601  12.069  13.015
63262W        W33862  44.392  43.393  12.026
63263W        W33863  34.889   6.539   4.091
63264W        W33864  27.944   9.338   4.372
63265W        W33865  39.453  26.301  10.698
63266W        W33866  36.462  16.312  13.943
63267W        W33867  29.146  36.668  12.692
63268W        W33868  32.896  23.139  12.871
63269W        W33869   3.453   6.681  14.784
63270W        W33870  32.823  18.878  13.489
63271W        W33871  32.624  38.793  11.383
63272W        W33872   4.779  18.457  12.662
63273W        W33873  36.263   1.115   2.747
63274W        W33874  28.549  32.201  14.236
63275W        W33875  30.583   3.286  13.355
63276W        W33876  33.929   2.455  14.502
63277W        W33877  22.469   0.047   4.115
63278W        W33878   6.638  34.357   3.708
63279W        W33879  18.719   6.494  11.895
63280W        W33880  36.379  15.660   4.031
63281W        W33881  12.095  25.613   4.763
63282W        W33882   7.947  26.352   3.797
63283W        W33883   5.178  38.410  14.436
63284W        W33884  15.837  36.569  11.167
63285W        W33885  38.744  28.548   0.387
63286W        W33886  24.483  12.788  14.261
63287W        W33887  35.566   3.123   1.966
63288W        W33888  11.273  40.283   4.113
63289W        W33889  14.120  34.528   1.794
63290W        W33890   0.499  13.231   0.887
63291W        W33891  32.117  32.945   2.402
63292W        W33892  13.233  38.333  10.746
63293W        W33893  14.322   0.439  11.103
63294W        W33894  10.454  43.567  12.405
63295W        W33895  33.486   3.574   3.893
63296W        W33896  38.618  41.462  12.938
63297W        W33897  38.912  43.823  12.093
63298W        W33898  11.546  11.078   3.767
63299W        W33899   0.513  40.017   4.737
63300W        W33900  21.958  23.604   3.212
63301W        W33901  44.848  19.925   2.452
63302W        W33902  29.534  18.678   4.660
63303W        W33903  11.938  40.230  14.316
63304W        W33904  42.318  14.866  12.177
63305W        W33905  18.227   1.852   1.479
63306W        W33906  41.849  25.630  10.761
63307W        W33907   8.724  27.922  11.120
63308W        W33908   2.300   6.539  12.910
63309W        W33909  15.732  17.409  14.684
63310W        W33910  14.499   6.894   3.754
63311W        W33911   3.953  35.035  13.458
63312W        W33912  16.744  14.276   3.663
63313W        W33913  24.643  17.580   2.700
63314W        W33914  11.047  13.859  13.320
63315W        W33915   6.229  29.574   1.821
63316W        W33916  23.001  18.094  12.354
63317W        W33917  44.320  43.451   0.422
63318W        W33918  23.269  19.136  14.763
63319W        W33919  25.114  37.602   3.206
63320W        W33920  14.678  20.146   3.660
63321W        W33921  32.936  28.612   3.300
63322W        W33922  35.146  31.675   4.455
63323W        W33923   0.944  17.054   3.203
63324W        W33924  36.616  36.374   4.159
63325W        W33925  34.905   7.014  14.472
63326W        W33926  33.453   9.166   4.731
63327W        W33927  30.491  21.003   4.227
63328W        W33928  32.158  33.777   2.116
63329W        W33929  10.280  33.426  10.551
63330W        W33930   8.828  13.202  11.633
63331W        W33931  20.811  24.966  14.275
63332W        W33932  24.363   6.711   1.310
63333W        W33933   5.709  16.077  13.210
63334W        W33934   9.159  10.242   1.430
63335W        W33935  30.512   8.362   1.388
63336W        W33936  27.205  16.133   2.865
63337W        W33937  27.973  15.100   3.332
63338W        W33938   3.636  16.388   0.469
63339W        W33939   1.564  41.607  12.145
63340W        W33940  14.620   7.002   2.824
63341W        W33941  30.325  17.823   3.141
63342W        W33942  13.769  38.738   1.384
63343W        W33943   6.773   3.029   3.861
63344W        W33944  39.601  19.908   0.696
63345W        W33945   2.753  13.635  13.760
63346W        W33946  32.084  35.958  13.422
63347W        W33947  17.638   0.997   2.831
63348W        W33948  21.557  30.155   2.835
63349W        W33949   2.609  43.384  13.972
63350W        W33950   4.735   5.653   0.682
63351W        W33951   4.906  24.700   1.937
63352W        W33952  30.682  43.357   0.902
63353W        W33953  37.475  26.307  13.969
63354W        W33954  26.970  38.424   2.951
63355W        W33955  28.122  15.344   2.856
63356W        W33956  37.908  33.393   0.265
63357W        W33957  16.763   7.704   2.894
63358W        W33958  22.925  24.303  13.483
63359W        W33959  11.068  39.006  11.801
63360W        W33960  44.724   0.480  12.338
63361W        W33961  36.358   2.168  12.942
63362W        W33962  33.967  32.445   4.152
63363W        W33963  22.981   1.980   3.523
63364W        W33964   2.326  36.478   3.644
63365W        W33965   8.747  20.702   0.653
63366W        W33966  15.650   4.993  13.985
63367W        W33967  27.052  28.429   4.084
63368W        W33968   9.816  20.534   1.170
63369W        W33969  42.819  14.758  12.384
63370W        W33970   7.121  36.461  13.813
63371W        W33971  43.386   4.148   0.402
63372W        W33972  44.334  23.194   1.987
63373W        W33973  14.562  42.782  14.956
63374W        W33974  44.469  20.695  12.837
63375W        W33975  40.502  29.603   3.853
63376W        W33976  18.204   9.329   4.578
63377W        W33977  14.571   9.911   2.285
63378W        W33978  38.622  42.855   1.947
63379W        W33979  14.665   3.713  12.882
63380W        W33980  33.501  25.070   2.843
63381W        W33981  43.734  27.433   3.822
63382W        W33982   3.503  24.748   1.774
63383W        W33983  42.977  13.292  13.234
63384W        W33984  33.080   1.871   4.543
63385W        W33985  23.297   4.881   3.636
63386W        W33986  19.015  25.225  13.603
63387W        W33987  29.608   2.978   2.799
63388W        W33988  37.131  34.975   4.061
63389W        W33989  24.466  23.265   2.130
63390W        W33990  18.641  19.605  13.845
63391W        W33991  39.770  30.675   3.978
63392W        W33992  30.462  39.799  14.052
63393W        W33993  32.972   5.909   0.826
63394W        W33994  11.372  14.197  13.042
63395W        W33995   7.619   7.436  11.181
63396W        W33996  16.334  19.178  12.324
63397W        W33997   5.599  42.926  12.590
63398W        W33998   4.870   6.442  13.407
63399W        W33999  12.708   4.148   3.725
63400W        W34000  31.942  27.650  13.519
63401W        W34001  24.126  23.912  11.408
63402W        W34002  29.988  10.107   1.236
63403W        W34003  26.052  19.423  11.936
63404W        W34004   2.342  15.549   2.741
63405W        W34005  11.580  10.230   4.105
63406W        W34006   7.336  31.486   2.155
63407W        W34007  19.526   1.343   2.908
63408W        W34008  33.280  33.428  14.016
63409W        W34009  12.729   0.190   1.459
63410W        W34010  41.613  41.551  11.953
63411W        W34011  14.312  23.949   3.556
63412W        W34012   1.788   9.742  11.183
63413W        W34013  40.819   7.391   2.263
63414W        W34014  35.194  19.752  11.280
63415W        W34015  34.333  20.309   1.309
63416W        W34016  42.083   4.848   3.156
63417W        W34017   0.033  35.981   3.430
63418W        W34018  24.533  10.922   2.885
63419W        W34019  13.651  17.239   4.585
63420W        W34020  14.030  32.257  11.053
63421W        W34021  21.485  42.327   1.123
63422W        W34022   6.524   9.243  12.697
63423W        W34023  39.496  17.930   2.666
63424W        W34024   2.479   5.624  14.502
63425W        W34025  17.618  20.073  10.668
63426W        W34026  19.094  24.598  14.402
63427W        W34027  27.679  38.512   3.805
63428W        W34028  38.944   1.768   4.444
63429W        W34029  25.410  23.261   0.018
63430W        W34030   2.910  38.086  11.499
63431W        W34031  14.144  19.488   1.725
63432W        W34032  24.950  41.276  14.956
63433W        W34033  22.120  13.393   4.602
63434W        W34034  38.749  11.654  12.448
63435W        W34035  24.281  33.041   4.002
63436W        W34036  44.305  41.527   3.245
63437W        W34037  26.136  12.328  11.431
63438W        W34038  38.255   4.055  12.960
63439W        W34039  41.390  12.513   2.429
63440W        W34040  36.913   2.512   0.481
63441W        W34041  44.850  42.466   0.472
63442W        W34042   8.503   1.239   0.704
63443W        W34043   4.804  41.888   2.144
63444W        W34044  43.720  32.618   2.690
63445W        W34045  42.344  17.763  12.404
63446W        W34046  44.938  11.756  10.766
63447W        W34047  28.759  36.321  12.570
63448W        W34048  12.856   1.489  12.010
63449W        W34049   9.652  41.455  14.396
63450W        W34050  33.437  37.482  12.361
63451W        W34051   0.341  44.922   1.802
63452W        W34052  31.012  38.884   3.960
63453W        W34053   9.341  41.705   3.311
63454W        W34054  20.060  10.138  14.071
63455W        W34055   5.681   8.768  10.743
63456W        W34056  41.002  18.793  12.087
63457W        W34057  41.794   6.335  11.170
63458W        W34058  25.460  20.830   4.258
63459W        W34059  44.088   6.358   4.572
63460W        W34060  32.362  23.801   5.006
63461W        W34061  41.040  36.908   3.976
63462W        W34062  19.924  14.860  14.784
63463W        W34063  30.094   5.985   4.307
63464W        W34064  39.252  22.246   1.385
63465W        W34065   6.827   1.456  12.084
63466W        W34066  27.952  12.777  10.675
63467W        W34067  27.989  32.152  10.007
63468W        W34068  31.581  33.742   3.635
63469W        W34069   7.888  41.192  13.813
63470W        W34070   7.922  36.864  11.362
63471W        W34071  42.804  32.523  11.645
63472W        W34072  32.629  18.130  12.225
63473W        W34073  23.027  35.519  14.944
63474W        W34074  19.182  40.969  13.593
63475W        W34075  34.009   3.894   3.326
63476W        W34076  37.081  15.853   4.717
63477W        W34077  13.729  36.350   2.870
63478W        W34078   4.355  42.023  14.823
63479W        W34079  13.436  27.891  14.001
63480W        W34080  18.534   9.818   3.452
63481W        W34081   4.390  33.308  14.943
63482W        W34082  41.623  19.706  14.120
63483W        W34083   6.516   2.773   2.926
63484W        W34084  35.566  12.207   0.162
63485W        W34085  34.113  14.051   1.836
63486W        W34086  35.604  13.518   1.229
63487W        W34087  28.713  21.280  11.812
63488W        W34088  16.510  40.819  14.304
63489W        W34089  10.598  44.236  14.849
63490W        W34090   5.882  41.029  14.541
63491W        W34091  41.411  18.602   1.303
63492W        W34092   7.350  31.919  14.969
63493W        W34093   7.823  16.045  14.025
63494W        W34094  10.116  20.029   4.572
63495W        W34095  44.821  26.655  13.535
63496W        W34096  11.715  41.340   3.830
63497W        W34097  20.322   9.946   3.313
63498W        W34098  35.079   7.918   2.902
63499W        W34099   8.774  36.875   3.273
63500W        W34100  37.577  18.035  11.118
63501W        W34101   1.163  35.171   4.074
63502W        W34102  31.466  18.647   3.149
63503W        W34103  37.821  33.443   1.104
63504W        W34104  37.155  35.302  14.587
63505W        W34105  30.228  44.207  13.788
63506W        W34106  34.545  37.383  12.061
63507W        W34107  11.842  26.190  10.688
63508W        W34108  30.344  33.476   3.561
63509W        W34109  23.617   6.757  14.298
63510W        W34110  29.215  34.097  14.462
63511W        W34111  20.179  28.423   0.699
63512W        W34112  19.059  42.518  11.517
63513W        W34113  41.399  23.227  13.545
63514W        W34114  31.250  11.428   1.083
63515W        W34115  25.992  12.233   4.102
63516W        W34116  41.757   0.337  13.985
63517W        W34117  36.787  34.265  10.612
63518W        W34118   0.680   1.123   0.381
63519W        W34119  18.650  41.752  11.291
63520W        W34120   9.852   2.682   3.694
63521W        W34121   9.169  33.886  12.458
63522W        W34122  19.946  27.991   2.358
63523W        W34123   8.132  25.124   0.988
63524W        W34124   9.893  21.154   3.226
63525W        W34125  29.474  38.303  10.998
63526W        W34126  42.261  41.463   2.232
63527W        W34127   9.404  13.240   2.201
63528W        W34128  30.570  42.764   2.929
63529W        W34129  19.394  36.869  10.754
63530W        W34130   5.258  16.012   0.335
63531W        W34131  42.410  41.558   4.100
63532W        W34132  44.447  44.497   3.640
63533W        W34133   7.819  29.434   4.857
63534W        W34134  34.817  16.222   2.192
63535W        W34135   6.341  18.275  12.827
63536W        W34136  28.884  41.456   0.202
63537W        W34137  13.014  32.623   1.301
63538W        W34138  28.512  28.393   3.279
63539W        W34139  17.034  26.478  12.799
63540W        W34140  43.703  15.874   1.776
63541W        W34141  10.891  29.378  13.306
63542W        W34142   2.210  16.154   1.327
63543W        W34143   1.340   6.701   4.485
63544W        W34144  21.011  12.571  11.190
63545W        W34145   6.968  23.080  13.798
63546W        W34146  28.293   5.841   3.948
63547W        W34147  32.156   8.115   5.001
63548W        W34148  43.867   0.745  11.110
63549W        W34149  34.916   3.860  11.947
63550W        W34150   4.500  11.368   2.797
63551W        W34151   1.382  18.410  11.121
63552W        W34152  34.106  27.653   1.005
63553W        W34153  35.443  29.620   1.835
63554W        W34154  40.771   0.868  13.271
63555W        W34155   5.909   4.868  10.371
63556W        W34156  40.460  38.820   3.463
63557W        W34157  29.559  37.938   2.721
63558W        W34158  17.392  28.219  14.719
63559W        W34159  13.580   6.863   3.215
63560W        W34160   0.300   8.570   4.210
63561W        W34161  26.236  21.540   3.769
63562W        W34162  34.619  44.979  14.468
63563W        W34163  31.191   0.358   4.491
63564W        W34164  11.351   4.756  11.591
63565W        W34165  38.011   0.131  12.471
63566W        W34166   8.760  28.188   1.345
63567W        W34167  21.830  21.639   3.205
63568W        W34168  44.764  19.100  13.550
63569W        W34169  31.872  29.285  14.898
63570W        W34170  38.894  24.697  13.952
63571W        W34171   3.218  13.239  11.117
63572W        W34172   4.773   5.256   1.488
63573W        W34173  13.759  39.753  12.895
63574W        W34174  38.509   2.406   4.592
63575W        W34175  21.781   3.985   3.771
63576W        W34176  43.955  10.694  13.952
63577W        W34177  33.945  43.802  14.673
63578W        W34178  28.693  40.024  12.529
63579W        W34179  18.104  38.098  12.329
63580W        W34180  42.354  39.763  12.198
63581W        W34181  41.521   8.358  11.528
63582W        W34182  41.591   6.371  14.825
63583W        W34183  18.871  37.645  10.352
63584W        W34184   6.073  21.239   2.728
63585W        W34185  27.741  20.710   1.290
63586W        W34186  12.368   9.417   0.662
63587W        W34187  15.720  41.948   1.266
63588W        W34188  41.291  11.659   4.170
63589W        W34189  28.994  44.517  13.060
63590W        W34190  30.669  39.218   4.148
63591W        W34191  34.380  41.538  11.471
63592W        W34192  15.128  31.651   2.265
63593W        W34193  13.194  22.409   4.062
63594W        W34194   5.180   9.292  14.361
63595W        W34195  35.256   8.859  11.533
63596W        W34196  23.607  22.133  10.659
63597W        W34197   4.747   5.747   2.758
63598W        W34198  16.314  32.513   9.891
63599W        W34199   8.389   2.656  14.850
63600W        W34200  13.277   9.168   4.120
63601W        W34201  20.619  30.991  14.651
63602W        W34202  18.969  24.245   4.503
63603W        W34203   9.918  18.872  11.528
63604W        W34204  20.085  30.679   3.799
63605W        W34205   0.350  25.156  14.953
63606W        W34206  44.320   7.984   0.861
63607W        W34207  42.519  37.477   2.676
63608W        W34208  30.609  30.193   0.473
63609W        W34209  22.645  44.653  12.968
63610W        W34210  44.300   3.684   4.549
63611W        W34211  42.983  18.808  11.145
63612W        W34212  41.372   2.324   4.165
63613W        W34213  43.307  15.649  11.572
63614W        W34214  24.390   3.240  13.876
63615W        W34215   7.972   2.474  11.209
63616W        W34216  32.113  17.932   1.545
63617W        W34217  18.168  10.773   3.245
63618W        W34218  43.711  21.990   2.742
63619W        W34219  17.583  11.723  11.107
63620W        W34220  17.254   2.948   3.601
63621W        W34221  34.166  18.623  13.123
63622W        W34222  37.533   0.923   1.847
63623W        W34223  37.618   3.625   4.480
63624W        W34224   4.692  23.924   5.130
63625W        W34225  14.867   0.742  11.588
63626W        W34226   6.732  44.500  10.934
63627W        W34227  38.175   7.693  12.604
63628W        W34228   5.143   7.490   0.735
63629W        W34229  20.025  33.075  13.649
63630W        W34230  21.566  36.614   4.234
63631W        W34231   8.582   6.977  11.548
63632W        W34232  24.514  38.901   4.579
63633W        W34233   9.448  16.619  14.318
63634W        W34234  38.540  21.078   0.923
63635W        W34235  24.081  25.069  13.485
63636W        W34236  10.361  19.344  12.718
63637W        W34237  41.778  21.377  10.401
63638W        W34238  43.844  27.120   4.312
63639W        W34239  19.415  22.533   2.280
63640W        W34240  16.569  34.381   3.116
63641W        W34241  12.881  16.074   1.667
63642W        W34242  43.815  38.498  11.179
63643W        W34243   3.829  27.048   4.562
63644W        W34244   0.034  37.540  10.672
63645W        W34245   5.440  34.565  14.760
63646W        W34246  12.818  32.099   2.233
63647W        W34247  23.253  41.886  11.216
63648W        W34248  42.862  13.109  10.849
63649W        W34249   0.236   3.639  11.391
63650W        W34250  11.375   4.054   1.538
63651W        W34251  11.273  41.471   0.827
63652W        W34252   8.379   4.280  14.017
63653W        W34253   0.799  13.878  11.183
63654W        W34254  42.511  35.467   1.888
63655W        W34255  25.052  20.376  12.646
63656W        W34256  34.584   6.171   1.766
63657W        W34257  22.633  38.511   0.288
63658W        W34258  27.420  38.274   1.231
63659W        W34259  31.537  43.011   3.731
63660W        W34260  38.863  28.094   3.393
63661W        W34261  30.388  30.658  13.850
63662W        W34262  42.958  32.403   3.644
63663W        W34263  34.015  33.627  11.189
63664W        W34264  33.250  22.440   5.054
63665W        W34265   9.259  22.445  14.391
63666W        W34266  13.361  41.479   0.138
63667W        W34267  23.522  44.389  12.979
63668W        W34268   9.146  20.531  12.542
63669W        W34269  31.170  12.739  13.788
63670W        W34270  11.651  14.603   3.261
63671W        W34271   8.123   6.886   1.984
63672W        W34272  39.547  24.268   0.769
63673W        W34273   8.992  44.251  11.179
63674W        W34274   4.965  44.520   1.472
63675W        W34275   1.783  44.819   4.607
63676W        W34276  23.786  23.851   2.628
63677W        W34277  42.024  40.170   1.473
63678W        W34278  10.577   4.950   3.739
63679W        W34279  34.918  17.418  10.701
63680W        W34280  30.997  38.545  12.003
63681W        W34281   2.270  14.285   1.635
63682W        W34282  36.939  28.570  11.173
63683W        W34283  15.711  15.851  10.268
63684W        W34284   3.973  16.024   1.791
63685W        W34285  11.251  26.997  12.462
63686W        W34286  31.717  11.322   1.393
63687W        W34287   4.349  44.296   3.697
63688W        W34288  42.582  29.978   0.384
63689W        W34289  36.480  26.280   4.106
63690W        W34290  30.185  40.673   3.093
63691W        W34291  17.522  40.241  14.950
63692W        W34292  23.184  24.973   3.249
63693W        W34293  42.860  36.045   1.934
63694W        W34294  19.478  29.854  11.748
63695W        W34295  33.764  21.065  12.043
63696W        W34296  44.415  18.271  10.660
63697W        W34297  28.378  33.079   0.290
63698W        W34298  35.356   3.589   1.993
63699W        W34299  29.526   4.159  11.479
63700W        W34300  37.889  31.967  12.228
63701W        W34301   7.682  34.465  12.085
63702W        W34302  17.483  20.645  14.339
63703W        W34303  44.005  22.175   1.385
63704W        W34304  37.286   9.321  13.432
63705W        W34305  11.884  11.147   4.365
63706W        W34306  32.320  35.895   2.964
63707W        W34307  37.633  18.858   2.721
63708W        W34308  14.813  23.773   3.252
63709W        W34309   0.847  15.640  14.895
63710W        W34310  38.872  11.615  10.146
63711W        W34311  16.547  34.421  12.887
63712W        W34312  10.178   1.219   3.787
63713W        W34313  40.346  28.955   4.676
63714W        W34314   2.459   6.025   1.776
63715W        W34315   5.741  30.987  12.987
63716W        W34316  15.446   4.164  14.676
63717W        W34317  32.851  16.256  13.057
63718W        W34318  29.638  21.302  12.365
63719W        W34319  20.251  36.451   1.795
63720W        W34320  44.286   3.015   0.287
63721W        W34321  34.500   6.223   0.282
63722W        W34322  19.795  21.732   0.007
63723W        W34323  16.084  13.194  14.939
63724W        W34324   1.715  39.902   3.269
63725W        W34325  34.090  11.256  14.439
63726W        W34326  12.153  33.476  14.890
63727W        W34327  38.834  25.657   4.779
63728W        W34328  17.104  17.534   2.419
63729W        W34329  19.582   9.827  12.926
63730W        W34330  19.646  40.082  14.538
63731W        W34331  11.305  10.184   1.443
63732W        W34332  44.260  14.326  10.621
63733W        W34333  34.610  32.108   1.346
63734W        W34334   5.023  12.256   3.726
63735W        W34335  24.052  34.627  14.347
63736W        W34336  24.049   1.886   2.673
63737W        W34337  15.730  29.471   4.623
63738W        W34338  21.174  17.602  11.095
63739W        W34339  44.007  26.947  14.479
63740W        W34340  25.095  22.790   1.829
63741W        W34341   8.751  38.752   5.017
63742W        W34342   1.157  36.690   3.302
63743W        W34343  43.283   6.641   4.279
63744W        W34344  38.004  17.208   4.548
63745W        W34345  24.669   5.794   1.518
63746W        W34346  34.576  25.132  14.943
63747W        W34347  41.060  31.375   2.140
63748W        W34348   8.124  26.150   3.328
63749W        W34349  40.422   9.343  12.650
63750W        W34350  35.883   9.390  13.281
63751W        W34351  34.977   2.354   1.938
63752W        W34352  17.139  15.818   4.740
63753W        W34353  14.361  23.520   4.363
63754W        W34354  38.100  14.050   4.177
63755W        W34355   9.174  23.186   1.504
63756W        W34356  12.577  25.580   4.628
63757W        W34357   4.718  16.823   2.710
63758W        W34358   6.312  21.968  10.780
63759W        W34359  24.209  16.764  11.495
63760W        W34360   3.267   5.452   1.744
63761W        W34361  10.625  14.668   3.157
63762W        W34362   9.711  41.806   3.699
63763W        W34363   9.168  17.842   3.770
63764W        W34364  18.327  43.505   3.030
63765W        W34365  27.970  21.270   0.326
63766W        W34366   5.196  14.117   0.223
63767W        W34367  24.629  15.569   0.273
63768W        W34368  32.103  35.498   3.752
63769W        W34369  22.098   9.794  12.105
63770W        W34370  27.932  41.774  14.877
63771W        W34371   0.951  26.461  11.628
63772W        W34372  43.467  28.230  14.780
63773W        W34373  25.800  29.609  11.228
63774W        W34374  44.195  38.635  13.403
63775W        W34375  22.457  24.540  11.772
63776W        W34376   5.056  21.023   0.496
63777W        W34377  33.137  34.905   2.954
63778W        W34378  38.255   2.199  11.074
63779W        W34379  21.240  18.747  12.866
63780W        W34380  42.073  41.509  11.763
63781W        W34381  22.588  12.328  13.865
63782W        W34382  19.341   7.422  11.515
63783W        W34383  25.948   2.317  11.550
63784W        W34384  24.345  17.164  13.571
63785W        W34385  22.373  27.755  12.977
63786W        W34386  23.560  43.576  11.314
63787W        W34387  17.121  25.997  11.636
63788W        W34388  10.751  10.111  11.111
63789W        W34389  40.419  36.799   3.256
63790W        W34390  15.636  39.280   3.870
63791W        W34391  16.886   9.262   3.176
63792W        W34392   5.810  41.915   4.661
63793W        W34393  24.180  23.003   3.375
63794W        W34394  11.113  42.364   2.644
63795W        W34395   9.926  29.897   0.029
63796W        W34396   1.075  44.437  14.774
63797W        W34397   3.908   1.163  11.498
63798W        W34398  35.078  25.763   3.421
63799W        W34399  43.886  37.233   1.624
63800W        W34400  21.758  29.956   3.809
63801W        W34401  19.794  12.743   0.034
63802W        W34402   0.953  40.918  11.365
63803W        W34403  26.911  28.184  10.652
63804W        W34404  32.828   5.839  12.829
63805W        W34405  18.723  43.243   2.759
63806W        W34406  23.716  33.037  12.927
63807W        W34407  12.895  21.514   4.967
63808W        W34408  16.244  20.227   1.816
63809W        W34409  40.631  13.337   1.366
63810W        W34410   5.753  24.943  11.214
63811W        W34411  20.229  19.710   0.020
63812W        W34412  38.514   7.468   3.221
63813W        W34413  12.318  23.724   0.184
63814W        W34414  28.510  37.941  14.286
63815W        W34415   7.842  44.574   3.054
63816W        W34416   9.278  38.888  12.085
63817W        W34417   0.140  21.774   1.634
63818W        W34418  13.223  11.185  10.910
63819W        W34419  11.172  39.766  12.354
63820W        W34420  28.553  18.566  11.015
63821W        W34421  28.074  11.282  12.674
63822W        W34422   7.967   6.896  14.043
63823W        W34423   3.359  23.012   4.563
63824W        W34424   7.622  25.847   2.683
63825W        W34425  12.675  29.167   2.234
63826W        W34426  19.588  44.047  11.028
63827W        W34427  30.681   5.695   3.634
63828W        W34428  30.532  27.494  11.910
63829W        W34429  19.196  31.640  14.565
63830W        W34430   6.917  18.033   1.881
63831W        W34431  17.766  21.987  10.663
63832W        W34432  41.895  38.199  14.322
63833W        W34433  27.548  37.834   2.738
63834W        W34434   2.454   1.950   2.248
63835W        W34435  39.420  25.703   1.249
63836W        W34436  23.400  32.752   4.283
63837W        W34437  36.556  15.092   1.222
63838W        W34438   8.927  12.826  10.967
63839W        W34439  21.301  31.903  11.235
63840W        W34440  28.646  42.284  11.187
63841W        W34441  37.476  22.936   2.921
63842W        W34442  10.177  23.900  13.926
63843W        W34443   6.894   1.143  13.372
63844W        W34444  11.959  20.237   3.244
63845W        W34445  10.210  18.222  11.556
63846W        W34446  40.976  39.029   4.965
63847W        W34447   2.726   6.515   0.435
63848W        W34448   6.021  33.582  14.243
63849W        W34449  43.810  26.718   4.654
63850W        W34450  15.782  13.385  14.545
63851W        W34451  30.022   0.446   4.693
63852W        W34452  29.932  15.183  12.991
63853W        W34453   9.928  41.894   2.371
63854W        W34454  12.271  30.625   1.279
63855W        W34455   9.640  34.870  12.959
63856W        W34456  13.239  13.760   0.277
63857W        W34457  36.177  28.096  12.847
63858W        W34458  37.077  22.088  14.868
63859W        W34459  36.257   9.879  10.738
63860W        W34460   4.913  19.526  12.637
63861W        W34461  16.252  41.600   2.673
63862W        W34462  17.780  16.274   4.085
63863W        W34463  32.054  10.215  12.691
63864W        W34464  12.891  41.802   3.702
63865W        W34465  31.665  38.616   1.413
63866W        W34466  42.285  14.139   2.127
63867W        W34467  39.857   3.227  11.319
63868W        W34468   9.004  25.154   3.747
63869W        W34469  10.252  20.853  10.672
63870W        W34470  13.809  18.486   4.115
63871W        W34471  16.802  37.529   3.423
63872W        W34472  15.537  27.146   4.872
63873W        W34473  42.026   0.925   1.627
63874W        W34474  15.355  32.334  10.421
63875W        W34475  12.740  13.188   0.790
63876W        W34476  44.333  36.389   3.397
63877W        W34477   5.161  31.896  11.545
63878W        W34478   0.849  42.393   1.954
63879W        W34479  22.940  11.623   1.217
63880W        W34480  16.622  38.837  10.560
63881W        W34481   9.578   0.909   4.102
63882W        W34482   7.844  43.961  12.995
63883W        W34483  18.668  37.353   3.796
63884W        W34484  33.622  20.615   0.805
63885W        W34485   2.000   0.111   0.318
63886W        W34486   5.789  43.827  14.543
63887W        W34487  27.533  40.912  11.060
63888W        W34488  37.393  40.020   0.719
63889W        W34489  35.613  44.478  12.125
63890W        W34490  35.645  26.042   3.778
63891W        W34491  17.762  21.744   3.149
63892W        W34492  41.743  16.493  11.563
63893W        W34493  21.902  35.883   0.119
63894W        W34494  10.109   8.197  10.674
63895W        W34495  42.074  38.109  13.838
63896W        W34496  38.750  23.081  12.449
63897W        W34497  43.457   0.204  13.531
63898W        W34498  25.477  28.985   2.252
63899W        W34499  29.150   7.688  11.698
63900W        W34500  30.953  26.476  14.839
63901W        W34501   9.303  41.180   3.144
63902W        W34502  30.619  14.341   4.238
63903W        W34503  12.380  37.552   1.629
63904W        W34504   4.822   9.370   2.396
63905W        W34505  12.556  25.478  12.539
63906W        W34506  27.055  39.379   2.623
63907W        W34507   6.485  30.709   0.705
63908W        W34508  17.061  32.920  12.369
63909W        W34509  26.737  23.505   0.829
63910W        W34510  40.633  27.878   3.648
63911W        W34511   8.610  26.950   2.355
63912W        W34512  30.524   1.766  14.481
63913W        W34513  17.084  28.412  14.230
63914W        W34514   7.901   2.042   4.256
63915W        W34515  37.084   4.462  12.531
63916W        W34516   6.318  40.509   3.122
63917W        W34517  33.334  31.120  11.922
63918W        W34518  38.463  43.336   1.903
63919W        W34519  16.745  42.812   4.701
63920W        W34520  40.806   8.823   0.915
63921W        W34521  22.003  26.136   3.937
63922W        W34522  14.658  13.476   1.703
63923W        W34523  14.685  19.348  13.470
63924W        W34524  22.045  17.128  14.616
63925W        W34525  21.229  11.699  11.216
63926W        W34526  34.445   6.449  11.938
63927W        W34527  44.511   0.635   9.878
63928W        W34528   9.802   7.413   3.177
63929W        W34529  33.431  44.418  14.932
63930W        W34530  16.185  44.514  11.633
63931W        W34531  38.629  31.466   0.029
63932W        W34532  42.751   9.360   2.766
63933W        W34533  18.445  39.270  13.375
63934W        W34534  42.383   1.712  10.734
63935W        W34535  36.605  41.448  10.738
63936W        W34536  23.610  14.871  12.019
63937W        W34537  22.759  35.908  12.541
63938W        W34538  23.950   9.225   3.325
63939W        W34539  11.951  29.644  12.550
63940W        W34540  42.997  31.447   0.755
63941W        W34541  30.564  41.638  13.480
63942W        W34542  33.117   3.864  13.250
63943W        W34543  31.206  35.829   1.805
63944W        W34544  31.259  10.825  11.565
63945W        W34545  10.110  17.314  14.192
63946W        W34546  26.113   0.440  13.446
63947W        W34547  38.854  22.617  13.044
63948W        W34548  33.111  32.669  12.581
63949W        W34549  27.589  29.074   1.870
63950W        W34550  34.493  42.864  14.233
63951W        W34551  38.287  29.803  12.419
63952W        W34552   9.177   3.367   2.778
63953W        W34553  24.717  25.079  10.950
63954W        W34554   5.291  17.444  14.447
63955W        W34555  20.281  39.017   0.174
63956W        W34556   6.432  15.789   3.117
63957W        W34557  38.051  44.090   0.323
63958W        W34558   2.525   0.838   3.776
63959W        W34559   7.807  43.577  12.464
63960W        W34560  11.351  39.014  13.937
63961W        W34561  17.709  17.192  10.469
63962W        W34562  16.030  14.420   9.729
63963W        W34563  18.000  26.974   0.952
63964W        W34564  30.890   7.709  12.136
63965W        W34565  15.434  26.007  10.314
63966W        W34566  36.541   0.200  10.840
63967W        W34567  36.409  34.085   3.788
63968W        W34568  44.251   2.701  14.614
63969W        W34569  31.612  24.060  11.096
63970W        W34570  24.223  31.931  11.310
63971W        W34571  38.288  37.949  14.982
63972W        W34572  32.643  28.852   2.306
63973W        W34573  31.164  40.427   1.507
63974W        W34574  41.454   7.237   1.637
63975W        W34575  27.890  20.238   4.516
63976W        W34576  14.468   7.888  12.059
63977W        W34577  17.550  36.585  10.687
63978W        W34578  21.582  10.247  13.597
63979W        W34579  43.996   1.674   0.515
63980W        W34580   6.760  36.066   0.161
63981W        W34581  39.305  15.512   3.953
63982W        W34582  20.153  21.439  14.771
63983W        W34583  25.661  27.668  12.841
63984W        W34584  26.914  41.802  13.963
63985W        W34585  22.516  44.679   1.114
63986W        W34586  11.707  33.415  14.608
63987W        W34587  25.032   1.366  12.919
63988W        W34588  18.469   9.490  11.008
63989W        W34589  23.172   2.934   3.272
63990W        W34590   2.949   6.979   4.863
63991W        W34591  12.847   1.358   0.395
63992W        W34592  30.443  39.893   0.478
63993W        W34593  34.903  43.758  12.349
63994W        W34594  29.466  14.328   0.371
63995W        W34595  21.030   9.723  12.938
63996W        W34596   0.378  20.227   4.015
63997W        W34597  35.581  37.490  12.490
63998W        W34598  44.879  10.367  13.451
63999W        W34599  20.779  13.894   2.136
64000W        W34600  22.952  32.051   1.194
64001W        W34601  32.413  11.151   4.686
64002W        W34602  16.338  39.551  12.977
64003W        W34603  26.528   1.946  14.398
64004W        W34604  42.640  20.268  11.078
64005W        W34605  22.810   6.663   0.444
64006W        W34606  37.589  14.713   1.048
64007W        W34607  42.530  17.175   2.191
64008W        W34608  19.240  22.237  12.002
64009W        W34609  22.461   8.627   1.820
64010W        W34610  34.485   7.201  14.926
64011W        W34611  34.236  31.421   4.047
64012W        W34612   4.430   7.315   0.262
64013W        W34613  41.425  39.518   1.432
64014W        W34614  10.825   7.666  11.162
64015W        W34615  31.966  28.988   2.752
64016W        W34616  17.179  28.452   2.518
64017W        W34617  33.662  31.573  11.654
64018W        W34618  36.571  43.450   3.288
64019W        W34619  44.872  17.486   0.476
64020W        W34620  29.398  26.991  10.549
64021W        W34621   9.160  24.550  14.913
64022W        W34622  17.085  33.915  12.553
64023W        W34623  17.623   2.869   4.716
64024W        W34624   6.324  37.024   1.649
64025W        W34625   1.132  19.088   4.121
64026W        W34626   7.930  44.780  11.627
64027W        W34627  32.474  30.974   1.887
64028W        W34628  16.615  38.056   0.833
64029W        W34629   3.987   0.455  12.357
64030W        W34630  14.967  19.771  13.487
64031W        W34631  35.095  35.471   1.381
64032W        W34632   1.318  12.822  14.706
64033W        W34633   3.805  17.108   2.697
64034W        W34634   3.785  23.556  11.508
64035W        W34635  14.071  18.801   3.350
64036W        W34636  37.406  30.497   3.838
64037W        W34637  26.165  36.811   2.800
64038W        W34638  25.055  41.581  11.619
64039W        W34639  30.325  41.573  12.695
64040W        W34640   9.293  13.812   0.795
64041W        W34641  12.722   4.153  14.760
64042W        W34642  41.145  44.085  14.527
64043W        W34643   1.635   8.202  12.517
64044W        W34644  38.564  42.044  14.585
64045W        W34645  18.317   3.205   4.595
64046W        W34646   0.687  29.203  12.553
64047W        W34647  37.403  19.854   0.816
64048W        W34648  24.660  42.114  14.003
64049W        W34649   5.458  21.475   0.894
64050W        W34650  32.025  41.339   1.404
64051W        W34651  29.156  15.149  12.460
64052W        W34652  25.672  44.853  11.088
64053W        W34653  14.766  33.478   1.414
64054W        W34654   4.405   8.710   4.884
64055W        W34655  14.867  32.184  14.422
64056W        W34656  29.415  32.157  12.944
64057W        W34657   8.719  33.805   4.415
64058W        W34658  22.778  27.542  11.575
64059W        W34659  41.760  15.346   2.350
64060W        W34660  13.389  20.569   2.348
64061W        W34661  16.636  37.141  13.396
64062W        W34662  18.571  27.515   3.156
64063W        W34663  35.127  31.535  12.963
64064W        W34664  14.641  26.580   4.116
64065W        W34665   0.861  33.372   4.600
64066W        W34666  23.592  17.254   3.872
64067W        W34667  21.840   7.137   0.461
64068W        W34668  32.600   8.688  14.293
64069W        W34669  21.988  29.087   2.743
64070W        W34670   4.695   3.423   3.180
64071W        W34671  15.751  26.990   1.418
64072W        W34672  18.780  27.884   0.431
64073W        W34673  30.308  25.605   0.809
64074W        W34674  13.149  28.138  12.603
64075W        W34675   3.463   7.334   4.306
64076W        W34676  29.091  42.314  14.563
64077W        W34677  37.882  11.626  12.996
64078W        W34678  30.554  25.846   0.434
64079W        W34679   2.400  40.025   0.730
64080W        W34680  42.798   5.876  11.978
64081W        W34681   9.395  37.453   3.762
64082W        W34682  12.126   5.338   0.069
64083W        W34683  22.813  40.897  14.276
64084W        W34684  19.942  34.771  14.965
64085W        W34685  33.519  39.625  11.361
64086W        W34686  13.096  13.171  10.167
64087W        W34687  36.618   7.254  12.903
64088W        W34688  33.276  40.794   2.122
64089W        W34689   4.804  17.266   1.195
64090W        W34690  24.947  30.753   3.422
64091W        W34691  13.001   2.767  14.757
64092W        W34692  44.976  41.949   4.397
64093W        W34693  15.608   6.647   3.128
64094W        W34694  40.553  20.265   3.759
64095W        W34695  23.316  14.220  11.527
64096W        W34696  37.048  32.378   4.724
64097W        W34697  17.055  38.007  14.408
64098W        W34698  26.517   5.182  13.112
64099W        W34699  26.575   1.766   2.828
64100W        W34700  36.356  22.353   2.682
64101W        W34701  11.259  42.450   3.141
64102W        W34702  20.089  21.318  10.048
64103W        W34703   3.689  18.233   2.288
64104W        W34704  24.289  33.010  14.956
64105W        W34705  10.762  33.643   2.819
64106W        W34706  32.223  14.574  14.008
64107W        W34707  38.590  26.044   2.089
64108W        W34708  12.659   2.251  14.673
64109W        W34709  38.073  17.137  13.360
64110W        W34710  29.020  20.946   0.319
64111W        W34711   8.194  23.115   3.358
64112W        W34712  22.586  34.854  11.770
64113W        W34713  11.973   3.023   4.715
64114W        W34714  28.706  11.605  11.145
64115W        W34715   1.450  34.881   1.827
64116W        W34716  14.548   4.390   0.293
64117W        W34717  12.844  38.426  12.484
64118W        W34718  30.605  33.948   1.739
64119W        W34719  39.582  40.673  12.032
64120W        W34720  40.932  13.454   4.418
64121W        W34721  11.647  41.813   0.452
64122W        W34722  33.005  26.079  12.804
64123W        W34723  12.210   8.535   1.864
64124W        W34724  44.931   6.239   0.866
64125W        W34725  30.635   9.707   0.466
64126W        W34726   7.755  44.757  11.155
64127W        W34727  28.174  12.214   3.689
64128W        W34728  34.222  31.390   1.660
64129W        W34729  11.167  34.495  12.474
64130W        W34730  13.324  35.582  14.101
64131W        W34731  22.758  23.253  13.881
64132W        W34732  36.867  20.171  10.647
64133W        W34733  37.503  18.870  13.513
64134W        W34734  14.200  30.755  11.056
64135W        W34735  18.889  28.495  10.283
64136W        W34736  11.028   1.658  12.102
64137W        W34737  42.462  29.552   0.797
64138W        W34738  23.580  31.146   4.650
64139W        W34739   8.827  10.974  11.836
64140W        W34740  36.389  34.042   2.869
64141W        W34741  30.602  35.343  12.377
64142W        W34742   9.573  22.548   0.874
64143W        W34743  16.831  42.536  13.309
64144W        W34744  43.984  16.076   4.604
64145W        W34745   2.876  24.487  11.705
64146W        W34746  17.866  11.349  11.692
64147W        W34747  20.020  10.167  12.316
64148W        W34748  36.997  38.949   4.916
64149W        W34749  39.629  28.074  12.846
64150W        W34750  42.016   8.594   3.006
64151W        W34751   2.758  36.953   2.656
64152W        W34752  19.986   4.018  10.719
64153W        W34753  14.785  29.771  14.261
64154W        W34754   3.176   4.952  13.385
64155W        W34755  18.575   2.930   3.195
64156W        W34756   9.618   3.331  13.538
64157W        W34757  33.023   0.372  11.126
64158W        W34758  42.609  36.463   4.184
64159W        W34759  15.087  22.977  12.530
64160W        W34760  16.043  38.229   0.311
64161W        W34761   7.065   2.864   2.726
64162W        W34762  22.609   1.464   0.734
64163W        W34763  24.146   0.246   2.092
64164W        W34764  38.961   3.383  14.298
64165W        W34765   4.965  35.143   3.637
64166W        W34766   7.711  14.261   4.672
64167W        W34767  22.030  40.041  12.034
64168W        W34768  42.474   7.345  10.673
64169W        W34769  23.291  19.052  12.057
64170W        W34770  34.462  20.116  13.997
64171W        W34771  44.288  24.454  12.995
64172W        W34772  32.194  13.946  12.607
64173W        W34773  34.917  21.260  13.473
64174W        W34774  31.124  14.594  10.723
64175W        W34775   0.820  32.507   2.853
64176W        W34776  25.276  26.515   4.279
64177W        W34777  26.319  40.532  14.365
64178W        W34778  22.152   3.389   1.411
64179W        W34779   4.156  34.701   5.603
64180W        W34780  39.269  26.379  11.689
64181W        W34781  37.463  21.391   4.829
64182W        W34782  11.379  30.970   1.903
64183W        W34783  14.526  30.988   3.805
64184W        W34784  10.251  24.494  10.796
64185W        W34785  12.827  25.859  14.826
64186W        W34786  44.014  40.976   1.179
64187W        W34787  32.783   0.270   0.732
64188W        W34788  23.346   2.496  10.145
64189W        W34789  11.653  23.100  13.565
64190W        W34790   1.509  37.006   3.508
64191W        W34791  20.588  20.231  13.243
64192W        W34792  31.417   8.190   2.656
64193W        W34793  28.725   8.390   2.346
64194W        W34794  21.546  42.053   0.285
64195W        W34795  15.094  16.086  11.034
64196W        W34796   7.904  42.323   2.670
64197W        W34797  29.861  19.280  10.606
64198W        W34798  44.287  32.530   2.701
64199W        W34799  17.539  18.619  10.932
64200W        W34800  27.508  25.127   4.095
64201W        W34801  44.279  41.462  12.581
64202W        W34802   9.763  35.504   3.121
64203W        W34803  40.962  11.159   2.664
64204W        W34804  12.288  12.345   3.713
64205W        W34805  12.765  39.717   0.314
64206W        W34806   7.449   0.314   0.994
64207W        W34807   9.541   3.064   4.399
64208W        W34808  35.024   8.528  14.876
64209W        W34809  31.651  27.639   4.745
64210W        W34810  38.395  31.684   0.443
64211W        W34811   3.504  40.620   4.124
64212W        W34812  27.108  39.245  11.569
64213W        W34813   5.252  36.847  12.543
64214W        W34814  38.602   9.192  13.968
64215W        W34815  36.441  28.968   3.143
64216W        W34816  44.812  33.007   0.800
64217W        W34817  21.470  26.454  10.715
64218W        W34818  26.103   8.290   3.237
64219W        W34819   1.263  22.234  13.689
64220W        W34820  11.727  29.113   2.279
64221W        W34821  23.195  16.049  11.435
64222W        W34822  13.176  38.597  12.888
64223W        W34823  13.615  44.885  11.090
64224W        W34824  27.352  32.418  13.419
64225W        W34825   0.952  12.658   3.351
64226W        W34826  44.564  30.600   1.922
64227W        W34827   8.173  29.326  12.376
64228W        W34828   7.585  25.157  13.415
64229W        W34829   6.121  30.711  13.223
64230W        W34830  38.543  16.395   0.830
64231W        W34831  40.323  18.139  14.298
64232W        W34832  27.078  29.206  12.982
64233W        W34833   2.963   6.735   0.023
64234W        W34834  14.670  21.835   1.695
64235W        W34835  20.065   5.781  10.557
64236W        W34836  25.252  25.186   4.870
64237W        W34837  37.629  35.810  14.959
64238W        W34838  38.123  33.095   2.345
64239W        W34839  25.363   7.380   9.652
64240W        W34840  44.864   7.479   4.865
64241W        W34841  16.165  28.071  14.914
64242W        W34842   3.241  38.591  11.404
64243W        W34843  24.756  12.723  12.834
64244W        W34844  18.163  22.327  13.586
64245W        W34845  13.395  28.182  10.663
64246W        W34846  18.244  10.758   4.192
64247W        W34847  29.859  33.629   2.162
64248W        W34848  22.419  38.720   5.051
64249W        W34849  44.470  29.648  14.330
64250W        W34850  28.557  44.037  13.445
64251W        W34851   4.155  41.485  14.440
64252W        W34852  25.497  38.434   3.194
64253W        W34853   9.346  11.238  14.519
64254W        W34854  14.902  36.872  14.389
64255W        W34855  22.328  10.646   4.209
64256W        W34856   7.820   4.281  14.761
64257W        W34857   8.484   2.810  12.870
64258W        W34858   5.833   8.449   1.223
64259W        W34859  41.855  10.719   4.672
64260W        W34860   0.208  27.819  12.545
64261W        W34861  40.762   6.511  10.813
64262W        W34862  13.602  32.457  11.410
64263W        W34863  44.069  41.387   1.710
64264W        W34864  23.960  44.873  12.306
64265W        W34865  12.619  13.221   1.287
64266W        W34866  43.555   7.370   3.735
64267W        W34867  11.842  12.823   0.821
64268W        W34868   7.438  23.100   1.407
64269W        W34869   1.931  30.860   1.096
64270W        W34870   2.211  15.330   2.278
64271W        W34871   2.193  40.789  13.792
64272W        W34872  24.202  24.453  11.395
64273W        W34873   3.737  35.624   2.169
64274W        W34874  21.822  39.552  12.082
64275W        W34875  25.469  41.332   4.349
64276W        W34876  30.513   6.622   4.880
64277W        W34877   7.898  34.910   0.767
64278W        W34878  17.855  12.344  12.385
64279W        W34879  35.365  22.098   0.928
64280W        W34880  13.251  19.385   1.788
64281W        W34881  28.964  44.239   3.320
64282W        W34882  40.910   7.126   3.212
64283W        W34883   3.227   0.057   3.905
64284W        W34884  29.086  41.867  14.275
64285W        W34885  19.464   2.101   3.681
64286W        W34886  32.603   6.411  13.505
64287W        W34887  29.599  35.876  13.537
64288W        W34888  20.337  12.214  11.472
64289W        W34889   0.812  36.193  10.637
64290W        W34890  30.924  27.905  13.879
64291W        W34891  44.532  44.229  11.607
64292W        W34892  39.899  27.369  14.819
64293W        W34893  33.050  20.589  11.604
64294W        W34894  17.149  14.661   2.694
64295W        W34895  44.026  27.069   0.808
64296W        W34896  39.848  20.615  14.360
64297W        W34897  44.818  16.077   3.238
64298W        W34898  35.304  32.982   1.254
64299W        W34899  29.161  34.135  13.572
64300W        W34900  19.614  18.091   1.718
64301W        W34901  37.385  13.590  13.574
64302W        W34902  23.237   0.405   2.445
64303W        W34903   2.244   4.165  12.446
64304W        W34904  27.669   1.397   1.328
64305W        W34905  41.514  35.386  14.860
64306W        W34906  12.175  41.871  13.512
64307W        W34907  38.738  28.509  13.007
64308W        W34908  43.546  29.673  13.562
64309W        W34909  33.379  35.519  11.981
64310W        W34910  19.196  27.458   2.357
64311W        W34911  43.368  37.989   0.871
64312W        W34912  12.649   8.889   2.606
64313W        W34913   6.398  10.794   3.137
64314W        W34914  14.313  30.454  11.590
64315W        W34915  19.649  40.965   3.201
64316W        W34916   5.811  36.954   1.707
64317W        W34917   8.730  31.528   1.167
64318W        W34918  18.630  31.578  12.576
64319W        W34919   0.947  41.376   4.591
64320W        W34920   7.230  21.224  14.238
64321W        W34921   3.842  17.049  10.977
64322W        W34922  39.514   0.487   0.476
64323W        W34923  31.163   5.928   0.062
64324W        W34924  26.162  17.045   1.923
64325W        W34925  21.552  44.277  14.000
64326W        W34926  26.919   8.154   1.315
64327W        W34927   1.409   9.314  12.023
64328W        W34928   7.390  32.714   2.878
64329W        W34929  43.336   8.314   1.832
64330W        W34930  30.388  28.146   3.112
64331W        W34931  22.006  41.247  11.183
64332W        W34932  30.460  38.789   3.188
64333W        W34933  37.757   8.368   1.239
64334W        W34934  13.043   8.497  12.335
64335W        W34935   3.753  31.642   4.546
64336W        W34936  34.528  38.430   4.139
64337W        W34937  24.933  32.853   1.256
64338W        W34938  12.318   9.331   1.186
64339W        W34939  41.803  29.148  12.844
64340W        W34940  20.636   6.518  10.428
64341W        W34941   5.814  29.662   0.458
64342W        W34942  31.887  43.768  13.834
64343W        W34943  19.111  29.909   1.941
64344W        W34944   7.294  29.457   4.997
64345W        W34945  44.341  26.633   4.581
64346W        W34946  11.587   0.255   1.433
64347W        W34947  24.167  24.561  10.874
64348W        W34948   9.895  13.187   3.969
64349W        W34949   8.804  43.450   4.547
64350W        W34950  12.877   3.344   0.744
64351W        W34951  10.556  14.122   1.388
64352W        W34952  23.575  34.740   4.253
64353W        W34953  16.659  43.888  11.515
64354W        W34954  39.429  27.427  14.502
64355W        W34955  17.115  24.617  12.936
64356W        W34956  37.785  13.433  12.594
64357W        W34957  29.789  36.573  11.973
64358W        W34958   8.828  20.255   3.590
64359W        W34959  19.504   3.760  12.732
64360W        W34960  24.766  24.610  14.982
64361W        W34961  23.119  42.169   4.051
64362W        W34962  18.662  40.351  10.239
64363W        W34963   9.354  26.933  13.028
64364W        W34964   3.983  23.676   0.444
64365W        W34965   1.689  10.814  14.687
64366W        W34966   7.479  17.155   3.994
64367W        W34967   4.495  27.946   2.347
64368W        W34968  13.664   9.366  14.930
64369W        W34969  24.792  13.284  12.005
64370W        W34970  18.215  35.116   3.280
64371W        W34971  34.633  22.778   3.076
64372W        W34972  36.401  44.794   1.736
64373W        W34973  30.957  27.473   0.805
64374W        W34974  44.919  29.793  10.737
64375W        W34975  37.935   2.218  14.790
64376W        W34976  10.923  16.270   2.670
64377W        W34977   2.546  17.126  14.385
64378W        W34978  28.667   8.209   2.893
64379W        W34979  23.543   3.159  14.336
64380W        W34980  45.000   2.477  11.070
64381W        W34981  15.777   3.891  10.220
64382W        W34982  22.439  32.493   3.732
64383W        W34983  40.395  23.446   3.409
64384W        W34984  16.595  24.041   2.468
64385W        W34985  20.610   9.496   1.897
64386W        W34986  23.003  12.659   1.401
64387W        W34987   5.729  34.506   2.635
64388W        W34988  33.212   3.789  12.745
64389W        W34989   6.816  21.075  11.244
64390W        W34990  40.143  32.650  14.870
64391W        W34991  23.603  31.549   1.085
64392W        W34992  22.903   5.223  12.376
64393W        W34993  20.449   1.316   4.864
64394W        W34994  34.035  22.303  10.290
64395W        W34995  19.104  25.090   3.603
64396W        W34996  33.418  15.758  12.847
64397W        W34997   6.026  38.346   4.775
64398W        W34998  25.264  15.540  14.071
64399W        W34999  20.119   0.687   2.371
64400W        W35000  41.411  22.593   4.634
64401W        W35001  26.120   8.757  13.480
64402W        W35002  36.575  27.511   1.855
64403W        W35003  43.748  43.952   4.531
64404W        W35004  35.597  11.881  11.423
64405W        W35005  41.692  23.518   1.309
64406W        W35006  43.737   3.667  13.306
64407W        W35007   4.205  11.941  13.374
64408W        W35008  24.106  38.927   2.633
64409W        W35009  30.099  39.041   1.792
64410W        W35010  37.116  29.446  12.099
64411W        W35011  11.218  29.046   2.206
64412W        W35012   1.891  10.184   3.321
64413W        W35013   1.053  18.664   2.365
64414W        W35014  20.702   5.249  13.452
64415W        W35015  27.771  18.552   1.420
64416W        W35016  12.652  18.556  12.032
64417W        W35017  11.771   2.748  13.704
64418W        W35018   0.625  26.311   3.725
64419W        W35019  15.974  40.583  12.116
64420W        W35020  20.083   7.762  14.832
64421W        W35021  24.519  18.178  13.403
64422W        W35022  38.963  12.118   0.839
64423W        W35023  10.315  39.594   3.349
64424W        W35024  20.313  27.268   5.373
64425W        W35025  24.115  39.331  10.668
64426W        W35026  35.394  13.264   1.855
64427W        W35027  39.367  36.072   4.012
64428W        W35028  42.984   7.916  14.872
64429W        W35029  19.049   4.397  11.570
64430W        W35030  22.103  18.507   2.472
64431W        W35031  34.211   6.271  13.299
64432W        W35032  24.662  18.666   2.433
64433W        W35033  22.103   7.587   5.014
64434W        W35034  13.796  34.100  12.139
64435W        W35035  40.429  35.050   1.417
64436W        W35036   9.394  34.135   0.646
64437W        W35037   2.966  39.358  11.143
64438W        W35038  18.934  32.063  14.316
64439W        W35039   4.253  36.333   2.752
64440W        W35040  31.695   7.205  12.012
64441W        W35041  19.568  35.542   0.351
64442W        W35042  37.103  35.465   1.400
64443W        W35043  32.576  41.890   3.608
64444W        W35044  19.304  15.468  11.825
64445W        W35045  36.599  14.685  11.905
64446W        W35046  39.726   3.339  14.939
64447W        W35047   3.600  29.141   4.835
64448W        W35048   4.166  20.239   4.828
64449W        W35049  10.342  25.554  13.555
64450W        W35050  35.843  38.992   2.471
64451W        W35051  10.980   4.414  14.639
64452W        W35052   3.774  30.103  10.993
64453W        W35053  23.053  26.428   0.339
64454W        W35054  35.606  10.191   0.247
64455W        W35055  37.430  33.599   1.433
64456W        W35056  22.526   0.349   3.675
64457W        W35057   2.678  40.042  14.284
64458W        W35058  37.819  41.755   2.337
64459W        W35059   1.389  25.606   1.074
64460W        W35060  15.005  11.696   4.589
64461W        W35061  28.783  38.860  11.458
64462W        W35062  35.648  26.528  14.399
64463W        W35063  42.337  22.953  13.559
64464W        W35064  30.426  43.285  11.567
64465W        W35065  41.090  34.814   0.449
64466W        W35066  17.491  41.592   1.704
64467W        W35067  16.097  39.660  13.446
64468W        W35068  41.357  33.603  13.270
64469W        W35069   5.110   4.933   0.310
64470W        W35070  23.500   5.497  11.663
64471W        W35071  41.860   8.725  13.818
64472W        W35072  39.395  27.539   1.571
64473W        W35073  28.554  10.272  13.297
64474W        W35074  28.107  26.279   4.565
64475W        W35075   0.841   9.965  13.411
64476W        W35076   8.610   0.468  11.701
64477W        W35077  36.933  29.093  11.186
64478W        W35078  39.412  24.663  11.963
64479W        W35079  40.008  17.073   2.426
64480W        W35080  26.708  13.954   0.847
64481W        W35081  29.812  37.342   4.360
64482W        W35082   0.685  30.975  13.228
64483W        W35083   3.185  20.062   2.314
64484W        W35084  24.750  39.035   1.466
64485W        W35085  29.200   8.150   2.996
64486W        W35086  32.981   4.882   4.148
64487W        W35087  16.294  37.864   3.450
64488W        W35088  10.104   9.277   1.684
64489W        W35089  39.947  15.763  12.890
64490W        W35090  40.675  41.249   5.085
64491W        W35091  14.370  30.151  13.755
64492W        W35092  38.066   9.899  12.377
64493W        W35093  27.341   8.868  12.726
64494W        W35094  10.796  36.272   3.632
64495W        W35095  25.160  16.767  10.733
64496W        W35096  24.835  44.902  13.452
64497W        W35097  38.829  28.960  12.055
64498W        W35098  16.825   5.290   4.471
64499W        W35099  37.633  22.995   3.400
64500W        W35100   4.052  18.128   4.203
64501W        W35101   0.994  20.122  11.637
64502W        W35102  20.918  13.210  11.604
64503W        W35103   0.080  31.968   0.709
64504W        W35104  32.466  43.284  11.524
64505W        W35105  18.859  18.137  13.857
64506W        W35106  26.161   6.775   3.689
64507W        W35107  36.393  27.566  13.511
64508W        W35108  13.661  32.981  11.460
64509W        W35109  27.494  10.129  13.786
64510W        W35110  15.141  40.987  12.169
64511W        W35111  28.466   9.503   4.534
64512W        W35112   7.294  15.654   2.667
64513W        W35113   5.261   8.893   1.880
64514W        W35114  22.528   3.443  14.672
64515W        W35115  21.394  43.853  14.536
64516W        W35116  36.913  20.740   4.646
64517W        W35117  21.831   9.308  12.764
64518W        W35118  29.891  43.501   0.466
64519W        W35119  13.139  41.277  13.542
64520W        W35120  10.129  23.809   1.743
64521W        W35121  39.559   0.389  12.976
64522W        W35122  15.111  24.889   2.541
64523W        W35123   6.703  21.232   4.863
64524W        W35124   5.042  22.647  11.406
64525W        W35125  12.364  38.793  13.912
64526W        W35126  13.098  36.289   3.248
64527W        W35127  22.481  35.412  11.905
64528W        W35128  34.029   0.411   0.816
64529W        W35129  22.471   9.329  13.453
64530W        W35130  28.566  24.428   0.688
64531W        W35131  32.384   1.900  13.777
64532W        W35132  33.053   3.611   4.579
64533W        W35133  36.869  29.885  13.079
64534W        W35134  39.430  24.590  13.840
64535W        W35135  33.276  16.374  14.776
64536W        W35136  15.546   2.313   2.200
64537W        W35137  21.189  31.173  12.099
64538W        W35138  25.060  32.438  13.877
64539W        W35139  25.923  44.415  14.138
64540W        W35140  41.460  23.100   4.915
64541W        W35141  19.779  40.727   4.125
64542W        W35142  26.262  10.339   2.322
64543W        W35143  39.015   9.662   3.259
64544W        W35144   3.654  35.177   3.245
64545W        W35145   1.138  32.890   0.995
64546W        W35146  39.331  23.153  14.202
64547W        W35147  29.957  43.432  13.488
64548W        W35148  25.352   7.267  12.623
64549W        W35149   5.286  11.753  13.848
64550W        W35150  43.298   2.465   2.733
64551W        W35151  25.561  11.904   9.876
64552W        W35152   7.701  33.103  12.438
64553W        W35153   1.075  21.261  12.704
64554W        W35154  21.534   0.759   0.676
64555W        W35155  15.429  41.566  10.488
64556W        W35156  11.790  43.887  13.290
64557W        W35157  36.136  43.488   0.354
64558W        W35158  19.052  33.532   1.885
64559W        W35159  42.140  22.633  13.208
64560W        W35160  32.732  31.382   1.690
64561W        W35161  15.717  41.151  14.888
64562W        W35162  12.769  12.280   0.681
64563W        W35163  17.835  13.380   1.237
64564W        W35164  31.098  35.922   4.091
64565W        W35165  42.878  22.127  10.703
64566W        W35166  36.292   3.479  14.901
64567W        W35167  25.095  19.540   0.436
64568W        W35168  43.960   0.432  12.862
64569W        W35169   9.990   9.747   0.105
64570W        W35170   1.926  37.584   3.702
64571W        W35171  13.289  21.293  14.259
64572W        W35172  32.621  31.094   0.130
64573W        W35173  13.313  43.775   2.229
64574W        W35174  30.772  24.174  13.099
64575W        W35175  40.928   0.958  12.250
64576W        W35176   1.987   5.392  10.710
64577W        W35177   4.508  10.863   0.937
64578W        W35178   5.697   9.948   1.152
64579W        W35179  24.492  36.780  13.305
64580W        W35180   1.978  34.103   0.463
64581W        W35181  21.042  43.029  13.359
64582W        W35182  41.056  23.253   2.841
64583W        W35183  23.986  12.692   4.694
64584W        W35184  12.282  13.350   1.887
64585W        W35185  41.833  37.174  12.246
64586W        W35186  38.955  32.984  10.947
64587W        W35187  37.123  40.202   3.227
64588W        W35188   7.177  43.798  14.792
64589W        W35189  10.680  15.567   0.431
64590W        W35190  44.234   2.026  14.920
64591W        W35191  43.542  19.995   2.803
64592W        W35192  38.426  29.140   1.206
64593W        W35193   5.246  23.233  14.745
64594W        W35194  35.935  13.230   2.581
64595W        W35195  22.735  31.627   2.810
64596W        W35196   9.740  37.489   4.209
64597W        W35197  31.224  35.555   3.193
64598W        W35198  21.975  26.421  13.990
64599W        W35199  12.400   7.999  12.914
64600W        W35200  18.333  23.014   4.721
64601W        W35201  20.748  13.664  11.755
64602W        W35202  44.472  22.789   5.194
64603W        W35203  23.932  37.265  13.870
64604W        W35204   2.928  21.884  12.430
64605W        W35205  19.104  25.147  11.958
64606W        W35206  12.870   6.610  13.939
64607W        W35207  31.986  44.201  10.689
64608W        W35208  25.649   9.801  14.485
64609W        W35209  35.928  32.026  12.150
64610W        W35210  14.874  12.260  14.494
64611W        W35211   8.103  16.230  13.310
64612W        W35212   1.854  32.471  11.443
64613W        W35213  30.604  12.241   1.841
64614W        W35214  44.030  10.125   2.454
64615W        W35215   0.186   1.318   4.180
64616W        W35216  32.620  24.990  12.472
64617W        W35217  25.537  20.990  14.502
64618W        W35218  36.535  38.182  12.010
64619W        W35219   7.392  34.825   2.245
64620W        W35220  38.405  18.243  11.903
64621W        W35221  35.950  43.187  13.704
64622W        W35222  32.097   0.751   4.084
64623W        W35223  25.832  33.545   1.301
64624W        W35224  15.194  17.735  11.232
64625W        W35225   3.220  33.698  14.862
64626W        W35226  39.215  17.978  10.391
64627W        W35227  32.483  23.392   0.325
64628W        W35228  26.975  21.559   4.421
64629W        W35229  26.978  30.969   1.285
64630W        W35230  29.429  43.408   3.073
64631W        W35231  32.476  38.594   2.770
64632W        W35232   0.975   0.466   2.715
64633W        W35233  21.567  40.479   1.261
64634W        W35234  22.558  33.166  10.684
64635W        W35235  13.880  39.922   0.909
64636W        W35236  11.336  27.236   4.523
64637W        W35237  39.023  19.057  14.220
64638W        W35238  16.556  17.790  13.977
64639W        W35239  39.064  41.754  12.846
64640W        W35240   8.256  24.578  11.908
64641W        W35241  26.724   9.067  13.936
64642W        W35242  43.616  40.018  10.493
64643W        W35243  12.904  10.148  13.137
64644W        W35244  16.859  44.515   4.302
64645W        W35245  15.871  13.675   1.396
64646W        W35246  25.470  37.433  13.806
64647W        W35247  28.167  43.903   2.428
64648W        W35248  15.675   0.273  11.356
64649W        W35249  21.676  31.302   0.907
64650W        W35250   9.335  10.539   2.380
64651W        W35251  27.193   1.185  12.969
64652W        W35252  22.157   7.417   1.900
64653W        W35253  12.232   4.309  13.763
64654W        W35254  25.052  23.608  13.296
64655W        W35255  34.105  30.157  13.344
64656W        W35256  13.393  24.403   2.378
64657W        W35257  44.194   1.944   3.740
64658W        W35258  20.466  31.123  12.774
64659W        W35259  21.702   4.232   1.903
64660W        W35260  18.544  14.889  12.365
64661W        W35261  26.654  34.277   4.869
64662W        W35262  26.353  27.623   1.922
64663W        W35263  19.384  25.386   1.205
64664W        W35264   0.189  21.327  12.417
64665W        W35265  36.304  39.568  12.071
64666W        W35266  15.697  22.150   2.710
64667W        W35267  38.211  12.583  14.731
64668W        W35268  27.540  31.016   4.956
64669W        W35269  19.537   6.999  10.270
64670W        W35270   5.293  44.479  11.165
64671W        W35271  15.529  23.784   1.468
64672W        W35272  24.492  40.800   2.823
64673W        W35273  23.842  31.934  13.228
64674W        W35274  32.890  28.369  13.398
64675W        W35275  38.479  20.380   1.854
64676W        W35276  36.087   7.787  12.454
64677W        W35277  24.249  10.764  14.829
64678W        W35278  17.139   6.985  10.968
64679W        W35279  37.582  10.496  14.473
64680W        W35280   2.760  24.388   0.539
64681W        W35281  14.693  13.574   0.380
64682W        W35282  15.140   4.837  13.114
64683W        W35283  14.762  41.737   4.926
64684W        W35284  10.241  27.708   3.293
64685W        W35285  32.625  29.171  13.097
64686W        W35286  10.129  28.449   2.681
64687W        W35287  27.210  37.525  11.831
64688W        W35288  25.317   1.807   4.542
64689W        W35289  26.177  22.777   3.236
64690W        W35290  29.535  29.959   4.019
64691W        W35291   9.690  30.836  11.397
64692W        W35292  20.799  15.294   3.742
64693W        W35293  13.323  15.918   3.071
64694W        W35294  11.709  31.936  14.061
64695W        W35295  22.052  27.502  14.806
64696W        W35296  22.490  33.036   1.397
64697W        W35297   4.542   4.347  12.192
64698W        W35298  44.508  30.560  11.098
64699W        W35299  25.886   5.229  12.515
64700W        W35300  25.065  40.964   3.538
64701W        W35301   3.786  28.395   3.181
64702W        W35302   2.315  20.727   2.103
64703W        W35303   8.661   1.778  14.189
64704W        W35304  15.750  41.126  11.832
64705W        W35305  29.329  18.878  12.541
64706W        W35306  34.813  31.028  12.035
64707W        W35307  10.084  20.691   0.295
64708W        W35308   0.864   0.307  14.340
64709W        W35309  25.642   8.706  11.445
64710W        W35310  44.047  38.357  10.745
64711W        W35311  44.511  17.352   3.294
64712W        W35312  17.349   8.833  10.743
64713W        W35313   3.226   6.893   4.214
64714W        W35314  30.896  30.487   1.671
64715W        W35315  14.707  18.598   2.722
64716W        W35316  16.991  17.102   2.692
64717W        W35317  33.661  27.847  10.136
64718W        W35318  15.194   6.713  13.833
64719W        W35319  39.486  41.845  14.680
64720W        W35320   4.194  13.219   4.885
64721W        W35321  27.659  24.120   4.529
64722W        W35322  15.713   7.784  10.752
64723W        W35323  21.186  33.536  13.473
64724W        W35324  29.918  11.212  11.571
64725W        W35325  43.894  25.179  11.908
64726W        W35326  43.484  26.950  11.966
64727W        W35327  39.366  33.028   2.654
64728W        W35328  12.883  42.284   1.501
64729W        W35329  19.739   4.097   2.323
64730W        W35330   1.735  27.967  11.171
64731W        W35331  24.945  31.424  12.020
64732W        W35332   0.277  33.028   2.229
64733W        W35333  24.071  15.081  14.265
64734W        W35334  16.629  35.863   0.649
64735W        W35335  41.469  35.105  12.919
64736W        W35336  14.868   9.253  12.848
64737W        W35337  43.246  33.947   3.124
64738W        W35338   0.879  26.011  13.475
64739W        W35339  35.047  31.025   3.427
64740W        W35340  40.514  28.492  12.478
64741W        W35341  10.159   9.100  11.593
64742W        W35342  19.256   0.720   0.419
64743W        W35343  17.528  16.297  14.863
64744W        W35344   0.499  24.678  11.999
64745W        W35345   7.739  21.924   1.228
64746W        W35346  28.647   3.588   4.515
64747W        W35347  13.118   7.941  11.064
64748W        W35348   3.683  37.765   1.996
64749W        W35349  20.285  18.772   1.755
64750W        W35350  17.071  31.502  11.001
64751W        W35351   0.480  29.493   3.660
64752W        W35352  13.892   3.458   1.695
64753W        W35353   7.090  17.180   0.835
64754W        W35354   9.695  29.885   3.342
64755W        W35355  26.551  31.010  12.109
64756W        W35356  21.262   2.943  14.710
64757W        W35357   1.136  32.426  13.841
64758W        W35358  16.087   9.852   2.317
64759W        W35359  30.597  40.446   4.031
64760W        W35360   9.716  39.938  12.284
64761W        W35361  14.095   6.961   4.701
64762W        W35362  18.701  26.939  12.570
64763W        W35363  28.912  32.122  12.773
64764W        W35364  15.226  18.198  10.508
64765W        W35365  11.341  26.005   1.375
64766W        W35366   7.492  17.753  12.110
64767W        W35367  33.562  25.639  11.912
64768W        W35368  11.396   9.291  11.870
64769W        W35369  32.970  27.415  13.406
64770W        W35370   3.649   1.048  14.936
64771W        W35371  23.648  19.984  11.043
64772W        W35372  37.097  40.485   2.787
64773W        W35373   7.493   2.237  11.901
64774W        W35374  37.900  17.213   2.378
64775W        W35375  11.298  42.319  14.292
64776W        W35376  33.120  12.117   0.732
64777W        W35377  20.247  29.895   3.250
64778W        W35378  10.645  17.294  14.284
64779W        W35379  33.782  26.953   4.493
64780W        W35380  21.039  23.561  14.596
64781W        W35381   7.418  26.068   1.375
64782W        W35382  39.037  28.118  11.613
64783W        W35383  12.613  25.398  14.782
64784W        W35384  25.648  43.835   4.100
64785W        W35385  29.178  12.757   4.285
64786W        W35386  13.794  40.779  12.096
64787W        W35387  29.137  28.490   4.783
64788W        W35388  18.965   2.470  12.590
64789W        W35389  36.535  43.051  10.716
64790W        W35390  12.178  26.200   4.073
64791W        W35391  41.730   0.802  13.781
64792W        W35392  42.375  27.444  13.991
64793W        W35393  13.127  10.066   1.447
64794W        W35394  26.548  24.993  14.278
64795W        W35395   9.190  19.598  14.248
64796W        W35396  40.856  27.187   4.534
64797W        W35397  36.796  37.210  14.156
64798W        W35398   3.182  36.346   2.746
64799W        W35399  32.192  41.423   1.891
64800W        W35400  14.654  13.819   2.117
64801W        W35401   6.764  33.976   4.530
64802W        W35402  12.795  17.367   4.295
64803W        W35403   8.680   5.200  13.456
64804W        W35404  38.472  38.948  13.990
64805W        W35405  13.097   1.312  11.563
64806W        W35406  16.062  16.708  12.318
64807W        W35407  24.700  26.591  12.091
64808W        W35408   4.409  25.685  10.331
64809W        W35409  28.485  11.292  13.548
64810W        W35410  10.024  36.640  13.118
64811W        W35411  40.075  38.511  11.968
64812W        W35412  29.038  23.645  13.860
64813W        W35413  30.669  22.476  13.007
64814W        W35414  29.433  11.945   2.286
64815W        W35415   9.261  44.329  14.321
64816W        W35416   0.241   3.723   2.873
64817W        W35417  40.766  21.984  13.863
64818W        W35418  39.280  34.534   4.702
64819W        W35419  30.809  36.659   2.676
64820W        W35420  30.346  25.001   2.309
64821W        W35421  18.693  26.463   4.924
64822W        W35422   6.375  26.349   2.032
64823W        W35423   7.369   7.801  13.070
64824W        W35424  43.229   1.229   3.928
64825W        W35425  23.607  30.379  13.002
64826W        W35426  35.618  32.064  11.657
64827W        W35427  38.380  17.604  10.697
64828W        W35428   5.263  35.020  14.941
64829W        W35429  33.397  10.119   0.768
64830W        W35430  32.106   2.929   0.444
64831W        W35431   6.115   3.530  11.993
64832W        W35432  39.568  34.961  12.756
64833W        W35433  10.752  31.127   3.217
64834W        W35434  41.362   9.801  12.037
64835W        W35435  17.339  15.538   3.668
64836W        W35436   5.221   6.296   4.314
64837W        W35437  15.413   4.242   0.190
64838W        W35438  14.607  30.029  11.525
64839W        W35439  31.773   2.292  14.914
64840W        W35440  36.981   8.751   1.267
64841W        W35441  15.675  19.568   2.835
64842W        W35442  41.614  42.554   3.812
64843W        W35443   1.031  21.041  11.849
64844W        W35444  14.906  34.786  12.456
64845W        W35445  26.979  36.950  14.043
64846W        W35446  36.920  15.509   0.351
64847W        W35447  23.573  39.348   1.402
64848W        W35448  11.729  21.770   2.251
64849W        W35449  44.055  33.569   3.243
64850W        W35450  37.570  21.981  13.461
64851W        W35451  37.017  33.036   3.861
64852W        W35452   3.625   4.754   1.200
64853W        W35453  14.576   5.260  13.390
64854W        W35454  34.315   7.001  10.888
64855W        W35455  25.609   8.490   3.134
64856W        W35456  30.156  18.095  11.121
64857W        W35457  18.477  18.790  10.590
64858W        W35458  40.332  25.008   4.241
64859W        W35459   4.767  23.529   4.770
64860W        W35460  43.506   1.699  12.700
64861W        W35461  43.359   4.544  11.931
64862W        W35462  42.493   2.797  12.025
64863W        W35463   9.768  34.399  13.116
64864W        W35464  12.209  29.116   3.171
64865W        W35465   3.124  21.401  13.570
64866W        W35466   2.452  18.050  12.441
64867W        W35467  24.978   1.835   1.700
64868W        W35468  29.578  15.049  14.442
64869W        W35469  15.689  38.323  14.593
64870W        W35470  22.191   7.354   4.157
64871W        W35471  18.994  11.672   0.431
64872W        W35472   2.790  14.723   3.645
64873W        W35473  15.491  21.531  11.020
64874W        W35474  26.258  26.121  12.525
64875W        W35475  24.764  39.082   2.334
64876W        W35476  41.222  13.582  14.097
64877W        W35477  30.393  32.777  11.568
64878W        W35478   3.242   3.238   5.080
64879W        W35479  17.310  20.687  11.160
64880W        W35480   0.434  11.341  11.130
64881W        W35481  16.049  40.338   4.899
64882W        W35482  20.923   5.700  13.609
64883W        W35483   1.544  38.870   4.166
64884W        W35484  19.069  13.702   3.265
64885W        W35485  28.248  10.745   3.620
64886W        W35486  15.089  27.848  11.178
64887W        W35487  10.839  30.487  10.705
64888W        W35488   4.831  25.226   1.712
64889W        W35489  11.620  16.817  14.927
64890W        W35490   1.852  33.118  13.243
64891W        W35491  33.007  40.964  12.129
64892W        W35492   9.244  12.266  11.366
64893W        W35493  18.342  29.261   1.283
64894W        W35494   2.305  28.568   3.267
64895W        W35495  25.664  29.211   4.713
64896W        W35496  14.559  36.302  12.651
64897W        W35497   2.319  35.603  14.847
64898W        W35498  33.170  20.395   0.910
64899W        W35499  38.030  10.517  11.266
64900W        W35500  10.138  19.290  12.030
64901W        W35501   7.184  38.487   1.264
64902W        W35502  20.293  38.003   4.230
64903W        W35503  33.897  22.964   4.109
64904W        W35504   0.843  26.421   2.264
64905W        W35505   9.698  13.799   4.284
64906W        W35506  25.361   9.191   9.784
64907W        W35507   7.973  17.568  11.850
64908W        W35508   7.804  32.999   2.293
64909W        W35509   2.733  16.348   4.099
64910W        W35510  17.092  29.256  10.184
64911W        W35511  12.714  37.298   2.363
64912W        W35512  10.650  34.697   2.850
64913W        W35513  34.198  21.455   1.322
64914W        W35514  41.308  26.305  12.795
64915W        W35515  38.491  31.078  11.879
64916W        W35516  40.327   8.740   0.712
64917W        W35517  42.302  22.650   1.127
64918W        W35518  18.370   3.029  10.903
64919W        W35519  27.611  21.774  13.801
64920W        W35520  13.137  14.145   9.869
64921W        W35521  34.426  18.712   2.323
64922W        W35522   0.785  10.727   4.910
64923W        W35523  18.163  16.524  11.910
64924W        W35524  18.674  24.513   0.648
64925W        W35525   9.362  25.053  10.689
64926W        W35526  38.581   4.267  10.689
64927W        W35527   2.984  11.742   0.409
64928W        W35528  25.580  40.445   2.416
64929W        W35529  35.850  21.155   2.367
64930W        W35530  21.343   0.903  10.801
64931W        W35531  41.508  43.852   3.962
64932W        W35532  17.197  16.208  11.634
64933W        W35533  17.486  17.181   2.823
64934W        W35534  23.792  27.238  11.184
64935W        W35535  31.353  11.324  13.341
64936W        W35536  21.688  22.961   0.454
64937W        W35537  40.859  13.184   0.801
64938W        W35538  12.343  10.301  10.720
64939W        W35539  29.371  19.306   2.827
64940W        W35540  27.916  10.305   4.183
64941W        W35541  22.835  24.125  11.127
64942W        W35542  40.076  23.670  12.454
64943W        W35543  38.310  15.602  14.548
64944W        W35544   1.051  27.975   2.715
64945W        W35545  43.478  32.883   0.987
64946W        W35546  10.615  20.233   4.439
64947W        W35547  14.846  44.587   4.153
64948W        W35548  21.895  41.094   1.118
64949W        W35549  41.184   1.701  10.930
64950W        W35550  36.735  35.051   2.104
64951W        W35551  34.439  14.838  12.156
64952W        W35552  40.579  13.790   3.231
64953W        W35553  34.116  14.757  13.527
64954W        W35554  29.921  29.953  11.654
64955W        W35555  23.139  11.862   4.546
64956W        W35556   3.502   3.019  11.587
64957W        W35557  19.028  19.625  12.031
64958W        W35558  30.661   5.298   3.272
64959W        W35559  13.596  37.276   2.155
64960W        W35560  42.533  18.126   1.459
64961W        W35561  25.902   9.682   4.141
64962W        W35562  35.886  31.411   0.475
64963W        W35563  42.529  13.239   0.872
64964W        W35564   2.097  34.378  14.654
64965W        W35565  21.959  26.582   3.672
64966W        W35566  27.109  36.520   2.910
64967W        W35567   5.994  14.110   1.970
64968W        W35568  32.569   6.291   0.305
64969W        W35569  14.826  40.354  13.122
64970W        W35570  17.541  24.594  13.251
64971W        W35571  31.027  43.117  10.086
64972W        W35572  35.904  36.622  10.432
64973W        W35573  41.590  44.267   4.737
64974W        W35574  40.410  28.682  10.602
64975W        W35575  35.089  10.176   9.699
64976W        W35576  34.842  21.660   3.655
64977W        W35577  38.091  30.550   3.261
64978W        W35578  43.013  27.746  13.371
64979W        W35579  43.906  16.588  14.845
64980W        W35580  11.594  43.493   0.395
64981W        W35581  18.563  11.762  10.309
64982W        W35582  33.046  22.294  14.810
64983W        W35583   0.710  19.556  13.271
64984W        W35584  28.128  42.011   1.666
64985W        W35585   5.224  37.492   4.597
64986W        W35586  22.684  26.368   2.768
64987W        W35587  26.902   5.867   4.092
64988W        W35588  33.604  39.491   3.244
64989W        W35589  31.396  12.592   3.721
64990W        W35590  14.994  22.727   4.229
64991W        W35591  34.519   2.710  11.599
64992W        W35592  21.369  33.126  12.081
64993W        W35593  42.637   3.721   2.047
64994W        W35594   3.818  42.486   2.794
64995W        W35595  17.367  15.872   0.192
64996W        W35596  34.826  24.369   4.951
64997W        W35597   1.140   6.854   2.738
64998W        W35598   7.308  12.845   3.321
64999W        W35599   1.297   0.990   1.845
65000W        W35600  25.958   1.473  13.284
65001W        W35601  14.162  23.764  13.907
65002W        W35602  21.234  27.190  14.925
65003W        W35603   0.795  36.738   4.861
65004W        W35604   2.817  30.461   1.461
65005W        W35605  16.340  20.527  14.930
65006W        W35606  28.645  11.639  12.663
65007W        W35607   9.714  17.477   3.775
65008W        W35608  11.471  11.433   1.229
65009W        W35609  41.265  29.111   2.704
65010W        W35610   6.325   1.389   3.421
65011W        W35611   6.477   6.671   3.115
65012W        W35612  34.655  16.634   2.451
65013W        W35613  35.493  32.125   1.875
65014W        W35614  42.469   2.831   3.667
65015W        W35615  30.504  31.443  12.377
65016W        W35616  23.676   0.790   5.256
65017W        W35617   3.971  30.748  13.092
65018W        W35618  43.660   2.502   0.327
65019W        W35619  34.325  24.191  13.084
65020W        W35620  31.452  34.521  14.452
65021W        W35621  33.220  29.203  12.455
65022W        W35622  44.245  43.223   1.805
65023W        W35623   0.789  21.909  12.092
65024W        W35624  23.902  14.898  12.695
65025W        W35625  12.289  28.407  11.118
65026W        W35626  43.460  19.042  14.407
65027W        W35627  35.274  19.824  13.982
65028W        W35628  28.282  10.993  11.858
65029W        W35629  42.588  31.194  12.898
65030W        W35630  11.640  38.010   3.459
65031W        W35631   7.429  22.470   2.826
65032W        W35632  14.835  37.998  12.026
65033W        W35633   8.656  36.893  12.371
65034W        W35634  30.509  19.194   4.233
65035W        W35635  10.387  10.339   1.850
65036W        W35636  27.982  18.043  12.527
65037W        W35637  28.166  32.619   2.257
65038W        W35638  33.462  37.282   2.593
65039W        W35639  27.817  15.255   5.098
65040W        W35640  39.306  32.114  10.496
65041W        W35641  36.812   6.097   2.410
65042W        W35642  43.034   6.781   1.748
65043W        W35643   1.901   0.252  12.937
65044W        W35644   3.263  21.264  11.574
65045W        W35645  14.123  30.947  13.364
65046W        W35646  32.471  37.663  13.957
65047W        W35647  18.094  38.803  11.626
65048W        W35648  26.532   4.857  14.809
65049W        W35649   9.077  19.153  11.431
65050W        W35650   1.857  41.941   1.031
65051W        W35651   9.441  33.448   4.134
65052W        W35652  30.030  25.025  12.607
65053W        W35653  44.546   6.831  12.033
65054W        W35654  43.416  30.521   3.762
65055W        W35655   3.427   5.845  10.140
65056W        W35656  21.108   0.649  12.539
65057W        W35657   9.922   9.627   2.982
65058W        W35658  22.114  23.337  14.567
65059W        W35659  37.879  44.313   4.687
65060W        W35660   7.435  15.373  13.846
65061W        W35661   9.923  28.952   1.227
65062W        W35662   5.872   6.911   2.092
65063W        W35663   6.943   5.400  13.037
65064W        W35664  20.680  21.316  14.007
65065W        W35665  10.943  40.584  13.427
65066W        W35666   8.802  31.066  10.763
65067W        W35667   2.186  20.623  13.888
65068W        W35668   6.134  26.688   3.255
65069W        W35669  28.438   7.536  11.868
65070W        W35670   3.891  16.690  12.564
65071W        W35671  30.549  23.312   4.669
65072W        W35672  40.996  44.457   3.742
65073W        W35673   5.070  12.865   2.335
65074W        W35674  33.971  32.250  10.231
65075W        W35675  13.898  10.772   1.491
65076W        W35676  42.337  11.434   3.673
65077W        W35677   0.996  21.296   5.194
65078W        W35678  26.923  21.622  12.872
65079W        W35679  26.076  43.480  11.118
65080W        W35680  28.138  37.045   0.710
65081W        W35681  10.861   8.170  11.443
65082W        W35682  34.588  12.720  10.709
65083W        W35683  20.480  33.227   1.347
65084W        W35684   2.822  41.547   4.639
65085W        W35685   0.510   3.413   3.656
65086W        W35686  17.018  10.151  13.581
65087W        W35687  40.694  37.789   2.830
65088W        W35688  41.966   4.441   0.084
65089W        W35689  14.083  39.882  10.959
65090W        W35690  25.702  22.035   0.351
65091W        W35691  35.987  19.798   5.065
65092W        W35692  31.714  39.120  11.173
65093W        W35693   2.832   5.503  12.567
65094W        W35694   4.402  22.528  13.617
65095W        W35695  34.441  31.564  10.691
65096W        W35696  43.855  22.505  13.998
65097W        W35697  41.105  25.526   2.917
65098W        W35698  34.734  29.027   4.132
65099W        W35699  33.636   1.782   0.217
65100W        W35700  40.335   8.480  12.455
65101W        W35701  34.017   7.243  12.207
65102W        W35702   9.611  35.668  12.208
65103W        W35703  42.510  24.925  11.133
65104W        W35704   3.899  17.712   0.239
65105W        W35705  25.628  40.735   1.771
65106W        W35706  43.211  11.260   0.339
65107W        W35707  41.453  35.841   3.099
65108W        W35708  27.639   7.690  12.486
65109W        W35709  11.118  35.047  12.878
65110W        W35710  24.415  33.277  13.985
65111W        W35711  30.910  37.093  10.639
65112W        W35712  33.838  24.286  12.968
65113W        W35713  31.241  20.571   1.822
65114W        W35714  35.956  38.272  13.057
65115W        W35715  18.193   8.390   4.761
65116W        W35716   5.368  35.297  10.830
65117W        W35717   5.660  34.043   3.972
65118W        W35718  24.270  26.231   1.769
65119W        W35719  31.321   9.668  11.174
65120W        W35720  26.439  22.290   1.137
65121W        W35721  39.834  40.971  12.372
65122W        W35722  44.809  39.364  14.885
65123W        W35723  12.540  10.145   4.530
65124W        W35724  10.768  15.767   3.761
65125W        W35725  44.019   2.826   4.132
65126W        W35726  43.512  34.513   3.776
65127W        W35727  39.533  43.394   3.313
65128W        W35728  22.735  41.839   1.849
65129W        W35729  38.929  23.809  10.285
65130W        W35730  12.285  20.157   0.442
65131W        W35731  28.520  41.290   0.547
65132W        W35732   8.277  29.677   3.275
65133W        W35733  15.152  19.090   4.921
65134W        W35734  25.485  38.746   0.385
65135W        W35735  18.200  14.576   1.917
65136W        W35736   7.138   5.166   0.445
65137W        W35737  39.654  35.854  13.816
65138W        W35738   3.481  29.539   0.917
65139W        W35739   5.714  14.876   4.542
65140W        W35740   0.248  10.489   3.744
65141W        W35741   6.369   4.269   0.254
65142W        W35742  32.166  25.084   1.976
65143W        W35743   6.147  14.672   4.766
65144W        W35744  36.201  43.560   2.949
65145W        W35745  14.943  19.157  12.236
65146W        W35746  19.991   1.387   2.665
65147W        W35747  43.536  41.467   0.827
65148W        W35748  38.108   4.392  14.567
65149W        W35749  14.820  23.822   0.875
65150W        W35750  17.369  28.641   2.034
65151W        W35751   3.063  16.453   0.509
65152W        W35752  26.549  38.750  10.013
65153W        W35753  20.106  43.331  14.327
65154W        W35754   1.909  26.894   1.081
65155W        W35755  40.523   1.867  14.584
65156W        W35756  22.684  33.021   2.840
65157W        W35757  25.054  36.962   4.442
65158W        W35758  12.266  25.217   4.439
65159W        W35759  44.746  21.060  12.439
65160W        W35760  23.255  10.387  14.524
65161W        W35761  23.083  22.615   4.691
65162W        W35762  25.874  13.508   3.772
65163W        W35763   7.409  31.978   2.265
65164W        W35764  21.117  36.838   3.176
65165W        W35765  36.526   9.122  13.023
65166W        W35766  20.463  12.050  11.932
65167W        W35767  12.206   7.139  13.843
65168W        W35768   0.293  13.084  12.492
65169W        W35769  16.093  26.167  14.531
65170W        W35770  33.291   3.066   2.679
65171W        W35771  22.655   0.755  12.129
65172W        W35772  40.086   3.290   3.373
65173W        W35773  30.076  25.480  14.390
65174W        W35774  42.975  31.181  11.570
65175W        W35775  22.891  20.714  11.932
65176W        W35776  18.299  42.092  14.468
65177W        W35777  20.076  25.214   2.402
65178W        W35778  38.847   0.306   2.804
65179W        W35779  14.681  15.813  10.784
65180W        W35780  22.497  28.568  11.386
65181W        W35781   9.575  21.122  13.093
65182W        W35782  42.038  11.758  12.089
65183W        W35783  15.175  22.039   0.819
65184W        W35784  40.894  26.977  11.944
65185W        W35785  40.418   3.634  11.243
65186W        W35786  29.043  27.561  11.977
65187W        W35787  26.534   4.316   3.477
65188W        W35788  32.450  43.603   3.673
65189W        W35789  27.601  15.574  14.898
65190W        W35790  29.936  31.435   0.243
65191W        W35791  15.721  43.380  14.871
65192W        W35792  10.250  33.574   2.257
65193W        W35793  21.004   4.889   3.345
65194W        W35794  33.023  44.269  12.431
65195W        W35795  34.548  32.011  11.894
65196W        W35796  25.456  20.750   0.859
65197W        W35797  11.781  20.613  12.876
65198W        W35798  10.924  13.789   1.913
65199W        W35799   3.988  24.500  14.377
65200W        W35800  11.235  28.206  14.934
65201W        W35801  28.453  40.529  12.632
65202W        W35802  22.504  22.185   3.606
65203W        W35803  44.931  18.081  14.762
65204W        W35804  26.464  42.347  12.984
65205W        W35805  28.287  36.395   2.922
65206W        W35806  13.181  35.814  10.428
65207W        W35807   8.132  32.972   4.174
65208W        W35808  35.485  23.759   1.854
65209W        W35809   3.379  31.945  14.800
65210W        W35810  20.619  17.830   3.088
65211W        W35811  31.512   7.428   0.431
65212W        W35812  19.599  38.475  12.047
65213W        W35813  33.973   4.901   3.805
65214W        W35814   8.376   7.347   1.864
65215W        W35815  35.308  38.611  10.706
65216W        W35816   5.907  36.412   4.609
65217W        W35817  18.079  12.134  11.355
65218W        W35818  22.972  28.568  10.839
65219W        W35819   0.479  10.229   0.673
65220W        W35820  26.181  21.832  11.552
65221W        W35821  31.361  41.529   2.888
65222W        W35822  26.225   1.714  12.502
65223W        W35823  15.305  26.087   3.076
65224W        W35824  33.605  43.026   4.163
65225W        W35825  22.498   0.550   0.870
65226W        W35826  30.074   8.091   1.365
65227W        W35827  17.625  24.489  10.503
65228W        W35828  26.433  19.724   1.788
65229W        W35829  41.598  16.798   2.753
65230W        W35830  18.624  41.468  11.717
65231W        W35831  36.564  13.281  14.605
65232W        W35832  16.126  33.883  13.279
65233W        W35833  17.361  20.747   4.436
65234W        W35834  19.747   6.802   4.799
65235W        W35835  16.576  14.493  11.973
65236W        W35836  43.125  18.690  10.455
65237W        W35837  19.333  25.957  14.488
65238W        W35838  44.853  15.294   1.279
65239W        W35839  26.548  44.285   0.429
65240W        W35840  24.697  35.044  13.548
65241W        W35841   9.853  42.986  14.474
65242W        W35842  27.545   7.172  14.866
65243W        W35843   6.390  26.178   1.377
65244W        W35844  17.085  31.758  12.851
65245W        W35845  15.144  40.673   2.509
65246W        W35846  34.568  16.744  12.885
65247W        W35847   2.648  40.100  10.953
65248W        W35848   7.612  16.320  11.586
65249W        W35849   9.571  21.473  14.315
65250W        W35850   1.018  14.910  11.369
65251W        W35851  24.268  21.345   1.390
65252W        W35852  37.138  37.090   0.456
65253W        W35853  33.297  17.631  14.453
65254W        W35854   1.494   1.281   4.543
65255W        W35855  24.647  34.180   1.328
65256W        W35856   0.978  24.599  13.030
65257W        W35857  27.742   0.935  14.076
65258W        W35858  22.571  38.522  11.043
65259W        W35859  26.507  16.027  12.129
65260W        W35860  18.020  42.004  12.094
65261W        W35861  12.873  11.409  12.873
65262W        W35862  24.566  16.118  11.001
65263W        W35863  13.704  23.927  11.312
65264W        W35864  11.766  29.970   3.392
65265W        W35865  28.014   2.769   2.738
65266W        W35866  14.291  31.496   0.698
65267W        W35867  37.835  15.218  14.094
65268W        W35868  26.565  37.673  11.137
65269W        W35869  24.119  35.221   3.413
65270W        W35870  12.055  42.749   3.599
65271W        W35871  41.199  42.257  14.873
65272W        W35872  41.905  13.189  10.899
65273W        W35873   2.359  15.417  10.702
65274W        W35874  41.491   8.737   3.665
65275W        W35875  19.590   5.384  12.004
65276W        W35876  21.122  10.291   3.915
65277W        W35877  14.350   5.838   3.444
65278W        W35878  32.423  22.095  14.268
65279W        W35879   5.284  40.578  10.980
65280W        W35880   9.837  24.015  10.350
65281W        W35881  33.240  37.996   0.533
65282W        W35882  34.112  10.504   1.192
65283W        W35883   3.644   1.890   1.302
65284W        W35884  17.603  35.836  14.899
65285W        W35885   1.801  38.820   0.797
65286W        W35886  17.785   0.805  11.477
65287W        W35887   9.756  37.013   2.903
65288W        W35888  25.954  41.923  14.518
65289W        W35889   2.523  13.137   2.624
65290W        W35890  17.562  30.171   2.762
65291W        W35891  25.570   3.640  10.465
65292W        W35892   3.517  22.978  14.472
65293W        W35893  34.860  40.272   3.170
65294W        W35894  33.215  32.102   1.197
65295W        W35895  13.108  37.141   2.096
65296W        W35896  33.457   0.956  13.824
65297W        W35897  24.622  41.181   3.189
65298W        W35898  39.823  12.209   2.117
65299W        W35899  25.880  35.834   2.826
65300W        W35900  28.167  43.030   1.263
65301W        W35901  20.608  16.635   0.316
65302W        W35902   4.417  10.419  10.672
65303W        W35903   8.091  21.508   1.312
65304W        W35904  21.816  34.082  13.794
65305W        W35905  35.512  35.140   2.727
65306W        W35906   6.795  31.278  14.430
65307W        W35907  34.507  19.480   0.027
65308W        W35908  22.660  17.150  12.004
65309W        W35909  37.489  23.177  10.929
65310W        W35910   8.351   3.244  12.619
65311W        W35911  28.873  40.552   3.705
65312W        W35912  20.792  32.746  14.178
65313W        W35913   7.288  42.367  12.052
65314W        W35914  26.231  19.226  12.987
65315W        W35915  33.576   0.191  13.361
65316W        W35916  20.517  10.275  14.940
65317W        W35917   3.241  23.207   0.931
65318W        W35918  38.418  20.627  14.130
65319W        W35919  34.444  35.888   0.727
65320W        W35920  13.535  13.672   1.233
65321W        W35921  16.570  11.484   2.851
65322W        W35922  20.611  37.611  13.897
65323W        W35923   4.221  13.714   3.581
65324W        W35924  17.447  37.879  10.648
65325W        W35925   2.212  27.958  10.404
65326W        W35926  36.641   9.174   1.212
65327W        W35927  15.371  23.856   3.652
65328W        W35928   6.467  32.947  13.037
65329W        W35929  28.571  28.855  10.419
65330W        W35930  31.106  11.930   1.172
65331W        W35931   4.624  25.975  11.202
65332W        W35932  26.680  39.874   1.783
65333W        W35933   0.839  44.684  12.589
65334W        W35934   3.749  31.869   1.907
65335W        W35935  20.521  39.306  11.627
65336W        W35936  16.190  40.366  11.109
65337W        W35937  18.827   2.267  11.170
65338W        W35938  30.704   3.925   0.601
65339W        W35939  34.462  42.330  13.259
65340W        W35940  15.786  10.990  10.154
65341W        W35941  33.315  32.284  11.483
65342W        W35942   0.747  44.709   1.540
65343W        W35943  23.604  44.970  11.467
65344W        W35944   1.658   9.783   1.903
65345W        W35945   6.972   3.164  12.102
65346W        W35946   7.523  26.002  12.409
65347W        W35947   8.907  19.642   1.368
65348W        W35948   7.570  41.945  12.020
65349W        W35949  10.529  32.937   4.170
65350W        W35950  31.518   0.543  14.088
65351W        W35951  13.871   6.642   0.387
65352W        W35952  32.072  32.173   3.433
65353W        W35953   6.950  37.683   2.142
65354W        W35954  11.274   4.227   1.044
65355W        W35955  41.555   5.039  13.135
65356W        W35956   6.220  22.150  13.388
65357W        W35957   6.965  16.103   1.926
65358W        W35958  29.102   7.980  13.507
65359W        W35959  21.607  34.980  12.055
65360W        W35960  17.185  37.839  13.871
65361W        W35961  33.632   8.587   0.890
65362W        W35962  19.288  16.702   0.774
65363W        W35963  44.548  26.056  12.844
65364W        W35964  23.712  40.687  10.756
65365W        W35965   9.943  19.192  13.030
65366W        W35966  22.690  13.064  10.579
65367W        W35967  25.790  11.226   0.539
65368W        W35968  33.345  29.984  13.660
65369W        W35969  36.418  27.072   1.658
65370W        W35970  43.887   3.307   1.833
65371W        W35971   9.452   1.336   1.661
65372W        W35972  39.532  32.348   0.366
65373W        W35973  31.627  26.317   4.005
65374W        W35974  39.630  25.117   0.432
65375W        W35975   5.167  17.919  14.014
65376W        W35976  37.085  41.440   2.768
65377W        W35977   6.452  38.432  14.990
65378W        W35978  31.442   8.369   1.222
65379W        W35979   4.759  30.561   4.569
65380W        W35980  27.274  26.085  12.454
65381W        W35981  36.868  29.476   2.666
65382W        W35982  15.637  25.009  14.291
65383W        W35983  23.537  21.820  11.083
65384W        W35984  24.151  31.215  12.840
65385W        W35985   4.860   2.858  12.222
65386W        W35986  34.442  21.301  12.463
65387W        W35987   7.216  13.870  14.368
65388W        W35988  17.687  22.513  12.523
65389W        W35989  19.729  21.211   3.667
65390W        W35990  32.736   3.897  12.898
65391W        W35991  24.563  21.355   2.716
65392W        W35992  24.745  31.882  12.866
65393W        W35993  18.583  20.260   4.703
65394W        W35994  31.997  36.384   2.075
65395W        W35995  27.395  37.609   2.304
65396W        W35996   5.285  11.697   2.943
65397W        W35997  31.878  22.516   2.236
65398W        W35998  22.122   0.710   1.917
65399W        W35999  12.394  35.171  14.074
65400W        W36000   9.801  33.587  13.788
65401W        W36001  40.132   8.328  12.930
65402W        W36002  20.941  18.744   3.409
65403W        W36003  16.340  19.941   2.777
65404W        W36004  17.277  22.707  12.796
65405W        W36005   1.448  26.948  14.969
65406W        W36006  13.845  29.906  11.149
65407W        W36007  39.795  28.037  10.376
65408W        W36008  42.352   0.643  11.867
65409W        W36009  38.808   9.282  11.846
65410W        W36010  34.535  19.248   0.506
65411W        W36011  33.096  33.260   4.303
65412W        W36012   3.921  17.256  13.268
65413W        W36013  17.221  27.456   2.676
65414W        W36014  13.309  31.223   2.603
65415W        W36015  37.036   6.750  12.670
65416W        W36016   2.622  13.244  13.441
65417W        W36017  27.766  40.104   0.776
65418W        W36018  32.078  26.646   3.153
65419W        W36019   8.139  13.537   2.805
65420W        W36020  19.491   3.502  13.497
65421W        W36021  40.038  28.464  14.848
65422W        W36022   3.650   9.673  11.203
65423W        W36023  11.857  17.977   1.948
65424W        W36024  18.304  31.872   4.195
65425W        W36025  30.947   7.133  11.227
65426W        W36026   2.280  22.950  10.484
65427W        W36027  22.525  29.012   4.112
65428W        W36028   6.420  25.725   2.177
65429W        W36029  44.346  32.088  13.982
65430W        W36030  42.880  30.812   2.235
65431W        W36031  42.076   8.247   3.548
65432W        W36032  18.158  14.570   2.818
65433W        W36033  38.460   7.295  13.552
65434W        W36034  19.010  26.422   3.174
65435W        W36035  23.492  22.037   3.931
65436W        W36036  15.808  18.738   2.404
65437W        W36037  43.921   0.909  13.018
65438W        W36038  37.439  16.561   3.433
65439W        W36039  27.078  12.808   2.888
65440W        W36040  43.584  26.331  11.208
65441W        W36041  25.999   1.618  11.989
65442W        W36042  11.472  35.868  11.093
65443W        W36043   2.505  17.166   1.924
65444W        W36044  19.178  27.950   1.432
65445W        W36045  16.441  24.382  12.124
65446W        W36046  20.942  34.278   2.806
65447W        W36047  15.112  24.446   1.794
65448W        W36048  11.846  13.185   3.163
65449W        W36049  40.997   7.182   0.407
65450W        W36050  42.108  24.002  13.461
65451W        W36051  42.965   0.670   3.630
65452W        W36052  43.907  37.496  11.386
65453W        W36053  33.592  13.265  11.577
65454W        W36054  17.970  12.072  10.875
65455W        W36055   5.842  29.418   3.622
65456W        W36056  25.594  42.486  14.870
65457W        W36057  14.275  40.999  12.218
65458W        W36058  30.367  23.916  10.852
65459W        W36059  37.779   8.639  11.495
65460W        W36060   9.122  15.808   2.405
65461W        W36061  22.181  22.696   2.180
65462W        W36062  42.461   3.667   0.197
65463W        W36063  16.322  42.872  14.365
65464W        W36064  25.398   6.938   3.317
65465W        W36065  44.942   6.638   1.446
65466W        W36066   1.788   0.846  14.597
65467W        W36067  21.570   5.207  11.830
65468W        W36068  31.473   1.532   0.224
65469W        W36069  22.815   4.721  11.586
65470W        W36070  36.145  19.171   0.252
65471W        W36071  34.930   1.847  14.786
65472W        W36072   1.166  33.070  11.664
65473W        W36073   6.291  40.491  13.274
65474W        W36074   1.947   8.568  13.913
65475W        W36075  38.702  10.846   1.441
65476W        W36076   3.735  11.108   4.710
65477W        W36077  33.341  20.700  11.180
65478W        W36078  25.099  35.502   2.742
65479W        W36079  41.264  37.247   3.630
65480W        W36080  14.774  26.482   3.235
65481W        W36081   4.029  31.175   2.655
65482W        W36082   1.734  33.048   4.780
65483W        W36083  23.247  39.372  12.624
65484W        W36084  29.965  31.900   2.633
65485W        W36085  41.580  31.595   0.415
65486W        W36086  30.571  19.134   3.255
65487W        W36087  18.773   1.203  12.061
65488W        W36088  28.138  32.537  11.434
65489W        W36089  32.329   8.305  12.508
65490W        W36090  12.384   6.938   1.322
65491W        W36091  44.476  16.271   0.790
65492W        W36092  42.314  36.089  11.093
65493W        W36093  23.180  13.660   4.606
65494W        W36094  16.966  33.333  10.488
65495W        W36095  24.119  11.854  10.969
65496W        W36096  38.168  19.778   4.127
65497W        W36097  39.464  38.536  12.921
65498W        W36098   2.868  25.414   3.311
65499W        W36099  28.952  38.778   3.157
65500W        W36100  13.389  37.120  12.433
65501W        W36101  25.559  16.048   4.561
65502W        W36102  40.956  20.686  12.476
65503W        W36103  29.670  39.443  12.278
65504W        W36104  33.969  11.972   3.665
65505W        W36105  11.256  24.699   1.356
65506W        W36106  33.109  17.806  14.013
65507W        W36107   3.444  38.079  13.975
65508W        W36108  31.620  39.312  14.971
65509W        W36109  14.074  33.002  11.794
65510W        W36110  42.743  39.810   0.400
65511W        W36111  30.551  11.584  14.999
65512W        W36112   0.527   8.693  12.976
65513W        W36113  18.327  43.475  14.075
65514W        W36114  42.109  30.415  12.635
65515W        W36115  39.826  40.519  11.563
65516W        W36116  24.283  33.831  14.856
65517W        W36117  24.868  29.490   4.383
65518W        W36118  39.800  26.000   2.230
65519W        W36119  33.969  10.609  13.417
65520W        W36120  24.961  17.050  12.977
65521W        W36121  38.855  14.423  14.958
65522W        W36122  38.282  31.302  10.888
65523W        W36123  14.165  21.530   1.834
65524W        W36124   3.405  21.523   4.196
65525W        W36125  28.493  36.907  14.725
65526W        W36126   4.480   8.077  12.097
65527W        W36127  13.133   6.128  10.738
65528W        W36128  37.881  16.566  14.485
65529W        W36129  14.581  42.930   3.656
65530W        W36130   7.808  40.851   2.297
65531W        W36131  30.142   0.654  12.090
65532W        W36132  23.688   1.856   0.684
65533W        W36133   9.368  21.196  12.165
65534W        W36134  12.885  27.318  12.122
65535W        W36135   3.226  17.186   1.453
65536W        W36136  21.488  19.047  14.425
65537W        W36137  35.957  42.536   1.357
65538W        W36138  10.845  16.278  12.352
65539W        W36139  29.383  28.512   3.928
65540W        W36140  24.682   9.169  10.671
65541W        W36141  15.195  13.222  12.859
65542W        W36142  41.569   6.973  13.783
65543W        W36143   9.719  25.029   2.139
65544W        W36144   6.613  24.627   3.634
65545W        W36145  31.907  37.142   1.474
65546W        W36146  16.243   8.618   0.133
65547W        W36147  32.016  33.386  13.837
65548W        W36148  17.674  31.937  14.018
65549W        W36149  27.834  40.449   2.523
65550W        W36150  40.065  16.899   1.526
65551W        W36151  22.421  36.938   1.874
65552W        W36152  37.536  31.813   0.845
65553W        W36153  41.263  13.797   0.225
65554W        W36154   6.195  17.142  14.543
65555W        W36155  15.099   6.163  13.783
65556W        W36156  34.370   9.149   4.854
65557W        W36157   6.177  17.663  13.374
65558W        W36158   4.915  40.106  14.119
65559W        W36159  34.847  18.305   4.091
65560W        W36160   6.745  38.530  11.612
65561W        W36161  33.992  35.902  14.866
65562W        W36162  42.051  16.884   4.215
65563W        W36163  20.915  44.073  14.533
65564W        W36164  43.314  42.341  12.059
65565W        W36165  10.851  24.494   2.545
65566W        W36166   1.331  35.926   2.676
65567W        W36167   0.880  25.422  11.643
65568W        W36168  32.608   1.287   3.506
65569W        W36169  28.164  11.809   4.683
65570W        W36170  11.596  44.911  14.495
65571W        W36171  19.295  32.126  11.100
65572W        W36172  14.820  11.089   1.827
65573W        W36173  34.844  38.377  10.629
65574W        W36174  39.888  32.415  12.366
65575W        W36175  35.398  44.076   3.614
65576W        W36176   9.782   5.010   4.901
65577W        W36177  32.108  29.978  13.853
65578W        W36178  43.445  24.750   0.308
65579W        W36179  35.220  13.755  11.103
65580W        W36180  26.087   0.176   0.385
65581W        W36181   6.845   8.942  13.407
65582W        W36182  31.857  19.108   0.960
65583W        W36183   9.864  41.660  13.959
65584W        W36184  43.473   0.865   4.510
65585W        W36185  37.944  30.308  11.238
65586W        W36186  28.152  13.781   4.038
65587W        W36187  35.528  40.924   4.207
65588W        W36188   0.267  14.617   4.845
65589W        W36189  25.956  22.272  11.340
65590W        W36190  42.284  16.699  13.841
65591W        W36191  13.939   8.681  11.708
65592W        W36192  21.561   6.348  13.782
65593W        W36193  12.523  19.791  12.290
65594W        W36194   9.871  25.519   3.290
65595W        W36195   4.614  37.654  10.252
65596W        W36196  26.672  35.886  11.528
65597W        W36197  18.590  36.322   4.566
65598W        W36198  41.057  24.559   0.491
65599W        W36199  21.141  17.933  13.459
65600W        W36200  43.454  31.382  11.634
65601W        W36201  20.079  39.617  13.971
65602W        W36202  11.320  11.693  13.020
65603W        W36203  11.704  15.881  12.059
65604W        W36204  42.302  23.765   0.297
65605W        W36205  22.924  30.454   0.755
65606W        W36206  23.551  17.737   3.675
65607W        W36207  41.457  15.068  14.447
65608W        W36208  40.601  35.522  13.696
65609W        W36209  35.999   4.820   2.841
65610W        W36210   3.861  17.805   1.426
65611W        W36211  20.188   1.679  11.566
65612W        W36212  26.943  16.186   2.378
65613W        W36213  40.266  31.234   4.310
65614W        W36214  23.864  27.055  13.924
65615W        W36215   3.997  37.957  14.815
65616W        W36216  28.172   7.259   2.411
65617W        W36217  11.676   6.882   3.368
65618W        W36218  44.999  40.795   1.146
65619W        W36219  25.148  36.638   2.200
65620W        W36220  18.595   5.633   4.711
65621W        W36221  22.118  37.525   4.942
65622W        W36222   7.300  44.934   3.689
65623W        W36223  40.078   6.206  14.387
65624W        W36224   7.859  10.673  12.316
65625W        W36225  42.423   8.099  14.938
65626W        W36226  32.958   6.971  13.933
65627W        W36227  10.353   1.402  11.136
65628W        W36228  26.232  26.553  11.065
65629W        W36229  23.169   8.107   2.627
65630W        W36230  16.629  44.254   3.899
65631W        W36231  36.051   4.016  10.775
65632W        W36232  33.585  39.246   9.796
65633W        W36233   9.387  42.533   2.893
65634W        W36234   0.399  24.937   2.369
65635W        W36235  18.536   4.034  10.738
65636W        W36236  43.170  19.750  13.826
65637W        W36237  35.823  31.806   2.684
65638W        W36238  31.554  39.693  14.592
65639W        W36239   2.960  34.434  13.843
65640W        W36240  21.540  37.373  14.154
65641W        W36241  17.998  39.979  12.624
65642W        W36242  26.091   6.927  11.586
65643W        W36243  27.855  42.228  10.836
65644W        W36244  25.491  29.050   4.258
65645W        W36245  31.951  37.500   4.548
65646W        W36246  36.904  38.341   0.586
65647W        W36247  23.185   1.046  14.781
65648W        W36248   9.657  34.978  13.871
65649W        W36249  16.138  39.031  11.905
65650W        W36250   9.002  33.405   1.753
65651W        W36251  13.825  35.162   0.875
65652W        W36252  30.312  20.722  14.900
65653W        W36253  15.131   5.700  11.464
65654W        W36254   2.747  22.646   3.791
65655W        W36255  20.234  37.420   4.152
65656W        W36256  23.188  27.455   2.273
65657W        W36257  30.699   0.224   4.344
65658W        W36258   9.324  22.999   3.718
65659W        W36259  40.798   8.962   0.026
65660W        W36260  29.057  23.159   0.765
65661W        W36261  35.636  42.794   0.227
65662W        W36262  40.347  21.733   1.165
65663W        W36263  44.834  34.978  13.166
65664W        W36264  24.222  38.400   2.745
65665W        W36265  19.700   4.293   0.459
65666W        W36266  31.337  37.088  12.622
65667W        W36267  12.396  15.597  14.847
65668W        W36268  18.778  38.120   4.191
65669W        W36269  44.823   2.263   0.169
65670W        W36270   4.298   0.526   3.033
65671W        W36271  12.663  41.974  13.723
65672W        W36272  28.601  27.038  10.421
65673W        W36273   1.945  29.005   4.615
65674W        W36274  39.858  42.777  12.052
65675W        W36275   0.740  10.055   5.133
65676W        W36276   7.428  13.282   2.369
65677W        W36277  29.838   7.253  13.538
65678W        W36278   7.649  19.151  11.626
65679W        W36279  33.164   6.768   3.737
65680W        W36280  42.094  10.944   0.967
65681W        W36281  13.147  21.750  14.435
65682W        W36282   5.189  39.277  13.962
65683W        W36283  37.792  20.250  13.067
65684W        W36284  24.135  16.028   3.721
65685W        W36285  37.861  21.238  11.163
65686W        W36286  33.607  13.596  11.977
65687W        W36287  13.245  28.505  13.513
65688W        W36288  29.109  44.521  10.510
65689W        W36289  12.256  30.025   3.229
65690W        W36290  31.583  27.426   3.283
65691W        W36291   6.908  27.639   4.563
65692W        W36292  42.274   0.540   2.417
65693W        W36293  34.384   5.402   1.420
65694W        W36294   8.657  43.235   1.912
65695W        W36295  12.282  39.236   0.920
65696W        W36296  21.462  21.287   3.701
65697W        W36297  39.357  44.321  11.537
65698W        W36298  11.068   6.703   2.792
65699W        W36299  18.264  11.822  12.612
65700W        W36300  42.897  18.113   2.729
65701W        W36301   9.080  41.553   2.851
65702W        W36302  17.673  29.753   5.033
65703W        W36303   0.713  31.116   1.437
65704W        W36304  32.443  38.755   4.879
65705W        W36305   7.807  15.095   4.163
65706W        W36306  27.356   4.020   1.703
65707W        W36307   5.296   6.131  12.111
65708W        W36308  41.044   8.670  13.543
65709W        W36309  21.407   5.602  13.805
65710W        W36310  30.414  11.047  11.717
65711W        W36311  27.548  14.663  13.927
65712W        W36312  29.113  15.132   1.815
65713W        W36313  38.529   4.214  13.374
65714W        W36314  18.575  22.554  12.015
65715W        W36315   3.824  42.354  11.993
65716W        W36316  10.205  26.784   5.108
65717W        W36317  43.093  38.565   3.484
65718W        W36318  38.384   3.307   1.232
65719W        W36319  15.029  35.065  12.047
65720W        W36320  28.610  40.722  14.040
65721W        W36321  13.093   4.469  14.963
65722W        W36322  25.877  43.814  10.301
65723W        W36323   3.179  12.748  11.689
65724W        W36324  33.663   4.343   4.133
65725W        W36325  11.291  21.569  10.622
65726W        W36326   2.749  16.222   1.356
65727W        W36327  14.314   8.255  14.298
65728W        W36328  29.812  44.389  12.064
65729W        W36329  33.119  42.322   3.621
65730W        W36330   6.210   0.310   0.453
65731W        W36331  21.626   8.274   2.730
65732W        W36332   7.719  38.266  11.649
65733W        W36333   2.907  42.429   2.204
65734W        W36334  43.450  42.012  10.756
65735W        W36335  33.382   4.540  13.395
65736W        W36336  29.146  37.161   2.260
65737W        W36337  12.040  36.341   3.267
65738W        W36338  25.573   3.975  14.545
65739W        W36339  10.142   7.263  10.647
65740W        W36340  41.009  28.262  12.569
65741W        W36341  34.496  17.806   1.375
65742W        W36342  19.908  33.242  11.877
65743W        W36343  15.217  36.879   2.416
65744W        W36344   3.984  22.549  12.808
65745W        W36345  35.258  39.985   0.237
65746W        W36346  43.850  28.977  14.370
65747W        W36347  27.488  28.416  14.817
65748W        W36348  44.810   8.152  12.352
65749W        W36349  16.128  33.690  13.756
65750W        W36350   8.249  18.615   1.302
65751W        W36351  11.172  28.965  14.376
65752W        W36352  38.973  30.246   4.237
65753W        W36353   4.344  24.204  14.710
65754W        W36354  35.071  14.794   1.807
65755W        W36355  42.803  16.473  11.415
65756W        W36356  21.026  10.854  11.477
65757W        W36357   3.200  35.519  11.162
65758W        W36358  43.340  24.507  11.572
65759W        W36359   9.793  37.841   3.269
65760W        W36360  32.526  28.030  10.860
65761W        W36361  26.740   6.610  14.823
65762W        W36362  20.151  13.698   1.779
65763W        W36363  42.891  23.407  10.230
65764W        W36364  28.681  27.902  12.072
65765W        W36365  37.865  31.660  10.755
65766W        W36366  37.762   6.794  12.078
65767W        W36367  43.501   8.415   3.730
65768W        W36368  23.072  26.240  14.346
65769W        W36369  30.833  31.452   2.750
65770W        W36370  19.640   5.661   4.064
65771W        W36371  31.507   1.306  13.401
65772W        W36372   7.835  41.426   0.311
65773W        W36373  31.441  41.421   4.703
65774W        W36374   0.432   0.286  14.013
65775W        W36375   8.672  22.123  12.532
65776W        W36376  13.680  31.948  14.124
65777W        W36377   8.400  10.358   0.505
65778W        W36378  16.795  31.737   2.312
65779W        W36379  18.313  20.611  11.169
65780W        W36380  12.133   8.002  11.845
65781W        W36381  30.741  43.067  13.449
65782W        W36382   9.869   2.582   1.393
65783W        W36383  15.674  11.679  13.466
65784W        W36384   8.003  20.106   4.053
65785W        W36385  41.807   6.139  13.817
65786W        W36386  38.113  29.718   4.529
65787W        W36387  15.560  25.439   4.443
65788W        W36388   9.068  38.504  14.232
65789W        W36389  41.102  18.191   4.357
65790W        W36390   1.521  16.588   0.211
65791W        W36391  12.101   1.063   2.416
65792W        W36392  13.143  36.824  10.998
65793W        W36393  32.773  27.526   2.139
65794W        W36394   3.808   8.238  10.598
65795W        W36395  28.010  25.758  10.587
65796W        W36396  41.278  25.956   2.111
65797W        W36397   7.364  11.440  12.590
65798W        W36398  30.564  41.490  12.248
65799W        W36399  30.878  22.683   3.829
65800W        W36400  25.900  32.415   0.533
65801W        W36401  27.707  24.909  14.420
65802W        W36402  31.864  30.568   3.026
65803W        W36403  39.358  36.079   1.256
65804W        W36404  15.362  34.085   1.823
65805W        W36405   9.258  44.871   4.040
65806W        W36406  10.806  41.808  14.280
65807W        W36407  12.168   4.921  12.040
65808W        W36408  17.746  15.110  12.050
65809W        W36409  30.497  44.306  12.825
65810W        W36410  27.913   6.309   2.370
65811W        W36411  39.859  20.601   1.739
65812W        W36412  26.164  18.178  11.139
65813W        W36413  44.755   9.015  10.596
65814W        W36414  11.854  35.256  13.610
65815W        W36415  10.651  18.686   1.730
65816W        W36416  22.450   1.292   0.264
65817W        W36417  40.233  25.714   0.818
65818W        W36418  18.151   8.949  14.327
65819W        W36419  15.009  19.582   1.346
65820W        W36420   6.734  38.261  13.477
65821W        W36421  43.547   4.518   5.462
65822W        W36422  37.362   2.867  12.599
65823W        W36423   4.834  31.122  13.108
65824W        W36424  28.943  40.751   1.859
65825W        W36425  11.679  41.150  11.612
65826W        W36426  40.992  17.512  10.791
65827W        W36427  12.124  43.802  11.495
65828W        W36428  25.511  33.520   3.335
65829W        W36429  25.605  19.814   4.078
65830W        W36430   2.050  16.600   0.308
65831W        W36431  24.488  42.856  13.459
65832W        W36432  20.106  18.735   4.030
65833W        W36433  24.926  41.905   4.524
65834W        W36434  10.395  43.537   2.705
65835W        W36435  24.099  12.329   3.563
65836W        W36436  22.116  20.887  11.525
65837W        W36437  32.331  38.086  11.419
65838W        W36438   7.253  17.746  14.654
65839W        W36439  40.390  14.214  12.836
65840W        W36440   0.179  27.048  14.943
65841W        W36441  12.974   0.902  14.155
65842W        W36442  30.935  25.644  14.263
65843W        W36443  32.081  32.382  14.033
65844W        W36444   4.992  17.277   1.705
65845W        W36445  26.409  11.887   0.251
65846W        W36446  19.319   4.230   1.308
65847W        W36447  32.387  14.097  14.188
65848W        W36448  14.862   9.825   2.698
65849W        W36449  13.910  12.346  14.352
65850W        W36450  27.607  31.918  14.573
65851W        W36451  14.215  40.792  11.271
65852W        W36452  32.909   9.125   2.280
65853W        W36453  35.603   6.662  10.887
65854W        W36454  28.564  13.077   3.758
65855W        W36455  34.505  29.937   1.389
65856W        W36456  11.732   4.941   0.409
65857W        W36457  31.970  37.338   3.618
65858W        W36458  29.217  11.366   4.019
65859W        W36459  20.221  19.836   2.692
65860W        W36460  12.773  40.526  13.951
65861W        W36461  13.447  37.013  13.278
65862W        W36462  17.045   6.882   2.619
65863W        W36463  40.845  33.047   1.415
65864W        W36464   2.378  36.422   4.566
65865W        W36465   4.976  22.048   4.552
65866W        W36466  37.348  35.374   0.060
65867W        W36467  14.877  25.662   2.258
65868W        W36468  11.347   6.124  14.861
65869W        W36469  29.877  18.779   2.227
65870W        W36470   0.043  30.606   4.012
65871W        W36471  26.947  44.032  10.735
65872W        W36472  27.004  23.079  12.112
65873W        W36473  30.505  42.953   0.624
65874W        W36474  34.847  21.311   3.228
65875W        W36475   0.707  16.102   2.254
65876W        W36476  17.583  16.195   1.714
65877W        W36477   7.755  41.073   2.762
65878W        W36478  36.150  42.409  13.955
65879W        W36479   9.591  43.663  13.922
65880W        W36480  43.868  33.193   0.810
65881W        W36481  14.571  38.777   0.814
65882W        W36482   5.700  20.201  12.436
65883W        W36483  40.801  40.915   3.759
65884W        W36484  42.816  16.124  12.228
65885W        W36485  12.628  39.645   2.624
65886W        W36486  18.610   5.735  10.069
65887W        W36487  44.972  36.861  11.790
65888W        W36488  25.591  14.733   3.776
65889W        W36489  23.816  16.634  11.188
65890W        W36490   0.826  21.717  11.228
65891W        W36491  32.574  27.557   0.023
65892W        W36492  15.104   1.514  13.928
65893W        W36493   1.587  27.704  12.461
65894W        W36494  37.449   2.002  14.906
65895W        W36495  39.920  24.198  14.225
65896W        W36496  42.939  30.709   1.358
65897W        W36497   4.222  41.465   0.458
65898W        W36498   4.805  12.842  10.134
65899W        W36499   6.259  43.728   2.800
65900W        W36500  20.453  30.547  14.949
65901W        W36501  23.721   7.866   1.428
65902W        W36502  18.791  25.917   3.894
65903W        W36503   6.779   1.425   1.855
65904W        W36504  31.414  24.813   0.128
65905W        W36505  32.930   5.488   0.466
65906W        W36506   4.029   1.843   1.958
65907W        W36507   1.169  26.237  12.487
65908W        W36508  24.759  20.003   1.792
65909W        W36509  40.039  31.016  10.466
65910W        W36510  27.914  38.592   1.561
65911W        W36511  39.590  26.035  11.502
65912W        W36512  39.825  13.617  11.888
65913W        W36513  24.031   4.071   4.609
65914W        W36514   6.375  35.613   1.749
65915W        W36515  12.155  41.341   4.155
65916W        W36516  39.568  29.337   2.760
65917W        W36517  30.673   0.378  14.562
65918W        W36518  17.277  19.580   0.297
65919W        W36519  21.511  34.895   0.288
65920W        W36520  11.851  39.475  13.574
65921W        W36521   1.980  24.993  14.998
65922W        W36522  32.640   4.436  12.930
65923W        W36523   6.713  41.828   2.289
65924W        W36524  16.700  37.085  10.894
65925W        W36525  44.530   7.307  11.271
65926W        W36526  26.088   5.138  14.757
65927W        W36527  27.304  39.036   2.326
65928W        W36528  29.469   3.596   5.071
65929W        W36529   6.440  17.644   3.724
65930W        W36530   2.853  31.421   4.995
65931W        W36531  33.001  37.741  12.562
65932W        W36532  21.917  37.481   2.567
65933W        W36533  22.518  29.028  11.100
65934W        W36534  29.448   7.276   3.794
65935W        W36535  25.460  38.965  13.593
65936W        W36536  31.505   7.188   3.708
65937W        W36537  21.199   9.487  11.523
65938W        W36538   1.989   8.517  11.150
65939W        W36539   9.307  29.129   0.445
65940W        W36540  15.523  36.457   0.901
65941W        W36541  20.491   8.989  11.012
65942W        W36542   3.234  39.239   1.829
65943W        W36543  15.100  12.883   5.113
65944W        W36544  22.794  30.174   4.837
65945W        W36545  38.771  39.671   4.144
65946W        W36546   8.283  28.495  11.896
65947W        W36547  24.165  37.164  13.161
65948W        W36548   1.345  21.122  13.859
65949W        W36549  26.589  34.094   1.225
65950W        W36550  32.839  34.911   0.878
65951W        W36551   4.138  29.579   2.011
65952W        W36552  10.660  11.665  13.989
65953W        W36553  33.992   9.849  12.284
65954W        W36554  36.087  11.518  10.663
65955W        W36555   1.443  34.671   9.892
65956W        W36556   7.894  41.371   4.994
65957W        W36557  32.663   7.955   3.219
65958W        W36558  42.350  30.009  14.930
65959W        W36559  35.032   8.403  11.149
65960W        W36560  33.052  22.544  13.076
65961W        W36561  23.917  33.328  10.732
65962W        W36562  33.812  30.509   1.886
65963W        W36563  28.130  22.797   3.281
65964W        W36564   3.751  20.691   2.516
65965W        W36565   5.351  22.500  13.420
65966W        W36566   2.681   6.019   1.273
65967W        W36567  31.820   2.020   3.319
65968W        W36568  23.506  31.679   2.400
65969W        W36569  39.821  41.418  14.540
65970W        W36570  36.335  22.018   1.836
65971W        W36571  42.410   8.927   3.708
65972W        W36572  34.589  39.303   1.858
65973W        W36573  31.673   9.296  11.226
65974W        W36574  36.398  28.635  10.493
65975W        W36575  37.660  24.781   4.215
65976W        W36576  10.672   8.532  12.842
65977W        W36577  15.662  31.152   4.165
65978W        W36578  18.031   4.867   2.083
65979W        W36579   7.032  13.104   4.133
65980W        W36580  33.635  42.454   1.920
65981W        W36581  35.621  12.544   3.734
65982W        W36582  10.634  28.037   4.836
65983W        W36583   6.812  14.996   0.607
65984W        W36584  16.376   4.827  14.323
65985W        W36585   6.197  41.343  13.036
65986W        W36586   6.357  30.176   1.302
65987W        W36587  33.121  41.720   1.206
65988W        W36588  23.656  29.453  10.410
65989W        W36589  38.381  30.975  13.126
65990W        W36590  31.282   8.648  11.965
65991W        W36591  25.456  40.953   1.325
65992W        W36592   1.238   2.978   2.251
65993W        W36593  17.541  15.347   1.765
65994W        W36594  37.422   2.835  11.418
65995W        W36595  34.976  30.114   3.279
65996W        W36596  10.737  17.636  14.661
65997W        W36597  15.076  42.760  14.869
65998W        W36598  22.088   4.948  13.809
65999W        W36599  30.177  12.289  13.871
66000W        W36600  10.298  10.972   1.433
66001W        W36601   3.778  44.282   0.235
66002W        W36602  39.897   7.215  13.425
66003W        W36603  42.031  27.198   2.156
66004W        W36604  44.839   2.204  10.591
66005W        W36605  21.325   2.052  13.912
66006W        W36606   2.173  42.817   2.656
66007W        W36607  35.397  25.075  13.994
66008W        W36608  31.990  26.440   1.724
66009W        W36609  32.971  37.183  14.383
66010W        W36610   7.190  40.668   0.629
66011W        W36611  31.458  30.306  11.843
66012W        W36612  41.317  12.839   4.780
66013W        W36613  18.534  24.784  12.884
66014W        W36614  11.286   6.318  12.483
66015W        W36615  26.988  11.827   3.718
66016W        W36616   0.753  25.011   3.296
66017W        W36617   6.556  31.377   2.529
66018W        W36618  25.534  13.018   0.340
66019W        W36619  39.456  42.337   2.319
66020W        W36620   8.389  40.954  13.949
66021W        W36621  30.385  23.002  10.645
66022W        W36622  33.053  32.375  14.995
66023W        W36623   8.084  24.012  14.878
66024W        W36624  37.601  26.590   2.930
66025W        W36625  13.622  20.213  10.606
66026W        W36626  12.256  18.110   4.587
66027W        W36627  25.991  25.118   4.227
66028W        W36628   3.369  12.165   2.693
66029W        W36629  30.951  19.036  11.112
66030W        W36630   8.798   6.278   3.036
66031W        W36631  40.795  37.410  10.781
66032W        W36632   2.989  13.297  10.630
66033W        W36633  44.350  19.065  11.931
66034W        W36634  40.310  21.349   4.561
66035W        W36635  16.627   2.887  13.517
66036W        W36636   4.290  27.947  13.355
66037W        W36637   6.791  13.080   0.727
66038W        W36638  21.295  18.083   1.819
66039W        W36639  16.903  22.216   1.608
66040W        W36640  40.238  20.823   0.449
66041W        W36641   8.190  40.329   1.421
66042W        W36642  43.732   7.452   1.411
66043W        W36643   6.588   3.728   3.099
66044W        W36644  13.717  15.203  13.921
66045W        W36645  23.627  28.490  12.554
66046W        W36646  28.050  29.383   9.881
66047W        W36647  16.665   0.611  14.118
66048W        W36648  23.173  26.928   0.361
66049W        W36649   6.003  18.118  13.254
66050W        W36650  28.544  14.631  14.554
66051W        W36651  31.934   4.406   1.624
66052W        W36652  42.524  13.310  12.993
66053W        W36653  39.414  25.563  13.486
66054W        W36654  35.346  37.792   0.856
66055W        W36655  33.646  21.961   1.944
66056W        W36656  13.309  41.042  12.523
66057W        W36657   0.072  44.055  13.472
66058W        W36658  21.602  21.305  13.410
66059W        W36659   7.966  38.338   4.891
66060W        W36660  38.859  39.738  10.360
66061W        W36661  17.007  20.664  10.715
66062W        W36662  19.213  32.962   0.018
66063W        W36663  30.063  26.436  12.108
66064W        W36664   8.142  25.508  11.976
66065W        W36665   6.657   1.179   3.067
66066W        W36666  40.119   3.306  13.889
66067W        W36667  25.535   2.016   1.745
66068W        W36668  35.964  33.778   3.638
66069W        W36669  42.218  39.364  13.512
66070W        W36670  43.855   0.778   4.894
66071W        W36671  24.438  23.579  11.704
66072W        W36672   2.855  32.894   3.181
66073W        W36673  23.559  26.919  10.816
66074W        W36674  20.486  28.695   0.376
66075W        W36675  10.388  18.728   1.244
66076W        W36676  17.186  15.891  13.346
66077W        W36677  35.967  38.347   1.746
66078W        W36678  21.835   2.941  12.362
66079W        W36679  29.698  12.694   4.237
66080W        W36680  38.035   5.519   0.457
66081W        W36681  20.528  35.056   1.230
66082W        W36682  37.631  22.430  14.395
66083W        W36683  22.543  10.196   2.134
66084W        W36684   9.141  22.502  14.918
66085W        W36685   7.965   0.598  12.480
66086W        W36686  25.995  30.318  13.069
66087W        W36687  12.634   8.914  14.064
66088W        W36688  44.179  26.173  13.510
66089W        W36689  15.226  37.047  14.768
66090W        W36690  43.742  12.369   3.253
66091W        W36691   5.488  19.666  13.493
66092W        W36692  42.970  25.039  10.920
66093W        W36693  10.822  11.945   2.307
66094W        W36694  43.625   5.373  11.931
66095W        W36695  19.870  40.612  11.068
66096W        W36696  25.148  26.771   3.215
66097W        W36697  14.132  11.790   1.206
66098W        W36698  30.636  29.643  13.912
66099W        W36699  42.713  30.179   4.283
66100W        W36700  12.621  37.567  12.382
66101W        W36701  33.643  39.494  13.459
66102W        W36702  16.869   8.281  11.110
66103W        W36703  27.737  40.854  14.918
66104W        W36704  26.169  29.062  13.406
66105W        W36705  39.268  10.776   0.533
66106W        W36706  38.866  42.202  14.998
66107W        W36707  41.571  40.392   2.177
66108W        W36708   6.934  21.995   0.741
66109W        W36709  33.435   6.650   1.937
66110W        W36710  34.125   8.907  11.205
66111W        W36711  20.247  17.628   1.159
66112W        W36712  31.581  43.675   3.141
66113W        W36713  13.254  30.867  13.931
66114W        W36714  39.730   8.846   0.293
66115W        W36715  44.365  39.451  12.513
66116W        W36716  43.330   3.629  13.644
66117W        W36717  38.878  30.100  11.471
66118W        W36718   5.469  18.114   4.388
66119W        W36719   5.757  10.434  11.233
66120W        W36720  31.094  11.202   4.189
66121W        W36721   0.740  41.834  11.443
66122W        W36722   0.647   0.483  10.363
66123W        W36723  41.843   6.964  12.422
66124W        W36724  31.022   4.785  13.578
66125W        W36725  27.964  22.520   3.816
66126W        W36726  35.087  11.153   4.537
66127W        W36727  22.267  37.157   1.367
66128W        W36728  28.501   0.664   4.557
66129W        W36729   7.241  39.425  13.806
66130W        W36730  41.018  39.558  12.944
66131W        W36731  30.085  19.351  14.569
66132W        W36732  13.260   1.657  13.119
66133W        W36733  26.082  30.686  12.726
66134W        W36734  23.063  40.446   4.866
66135W        W36735  24.943  37.801  11.262
66136W        W36736  36.097  19.560  10.530
66137W        W36737  21.530  18.016  13.798
66138W        W36738  34.739   7.078  10.634
66139W        W36739  27.955  29.598   0.528
66140W        W36740  41.143   7.407  12.780
66141W        W36741  19.565  15.905  14.114
66142W        W36742  13.283  24.347   1.399
66143W        W36743  17.396   0.142   2.854
66144W        W36744  22.646   8.607  10.688
66145W        W36745   9.605  21.598   4.952
66146W        W36746  19.716  11.146   3.583
66147W        W36747  39.986   2.639  14.440
66148W        W36748  20.481  14.387   2.789
66149W        W36749  27.643   4.708   4.062
66150W        W36750  12.141  42.860  11.923
66151W        W36751  39.536  13.008   0.035
66152W        W36752  15.399   2.766   0.761
66153W        W36753  29.534  21.178   5.028
66154W        W36754  26.071  17.027   3.632
66155W        W36755   5.310  19.237  12.791
66156W        W36756  39.081  19.095  13.698
66157W        W36757  24.180  13.884   5.060
66158W        W36758  40.413   4.546  13.923
66159W        W36759  36.864  36.771  13.536
66160W        W36760  11.092   8.873  14.288
66161W        W36761   4.789  35.917  14.172
66162W        W36762  22.074   0.125   3.766
66163W        W36763   6.623   8.608   3.610
66164W        W36764   2.259  23.498   5.083
66165W        W36765  34.054  18.569   2.639
66166W        W36766   9.430  23.893   4.978
66167W        W36767  37.818   1.243   2.649
66168W        W36768  33.835  16.733  13.188
66169W        W36769  37.491  10.610   2.726
66170W        W36770  36.450  19.041  11.004
66171W        W36771  24.606  39.020  14.460
66172W        W36772  43.354  38.912  12.251
66173W        W36773  28.913  15.304   4.143
66174W        W36774  32.548  20.003  13.803
66175W        W36775  23.081  23.773   4.258
66176W        W36776   3.757   1.399  12.812
66177W        W36777  41.902  42.789   2.674
66178W        W36778   7.691   6.475  10.112
66179W        W36779  19.143   1.430  14.059
66180W        W36780  34.946  18.322  10.339
66181W        W36781  13.472  32.825  13.970
66182W        W36782  33.552  10.137  12.046
66183W        W36783  38.796  27.688   4.137
66184W        W36784  27.435  17.486  12.121
66185W        W36785  36.804  32.977  11.058
66186W        W36786  26.220  31.493   1.354
66187W        W36787  38.687  12.385   0.491
66188W        W36788   8.265  30.611  11.933
66189W        W36789   0.231  21.262  14.756
66190W        W36790  28.919  32.990   1.266
66191W        W36791  33.338  13.752  11.572
66192W        W36792   9.222  42.980  13.345
66193W        W36793  32.999  21.659  13.929
66194W        W36794  25.642  21.663  14.033
66195W        W36795  21.003  11.802   3.563
66196W        W36796  33.857  18.770  12.735
66197W        W36797  27.107  36.156  11.603
66198W        W36798  21.548   4.938   1.742
66199W        W36799  22.648   6.148   0.687
66200W        W36800  21.538  14.058   1.803
66201W        W36801  17.696   2.444  12.564
66202W        W36802  13.303  14.186  14.932
66203W        W36803  31.472  29.205   2.831
66204W        W36804  14.072  24.992   2.668
66205W        W36805   3.487  11.912   4.434
66206W        W36806  29.972  33.305   0.718
66207W        W36807  43.319  17.713  12.326
66208W        W36808  36.757  25.706   2.375
66209W        W36809  14.354  40.059  13.835
66210W        W36810  40.889  36.525   3.106
66211W        W36811   4.359  16.630   3.227
66212W        W36812   4.672   1.115  14.331
66213W        W36813  18.500   0.004   3.243
66214W        W36814   7.119  22.089  12.999
66215W        W36815  40.143  35.132  14.498
66216W        W36816  40.122  24.621  14.521
66217W        W36817  27.551  13.800   4.570
66218W        W36818   6.864  25.213  10.725
66219W        W36819  35.645  16.832   3.194
66220W        W36820  23.916  24.084   2.188
66221W        W36821  27.501  40.750  12.388
66222W        W36822  41.537   2.480  14.000
66223W        W36823   9.338  13.167  11.644
66224W        W36824  42.436  23.503  12.839
66225W        W36825  30.933  31.628  14.396
66226W        W36826  24.704  27.062  11.512
66227W        W36827  39.853  36.793   0.330
66228W        W36828  23.274  29.630  14.440
66229W        W36829  35.046  12.751  12.033
66230W        W36830   0.698  10.727   0.508
66231W        W36831  22.037  43.257   3.150
66232W        W36832   8.075   5.340  12.429
66233W        W36833  14.355  22.788   2.766
66234W        W36834  31.053  13.610  13.242
66235W        W36835  32.291  17.727  14.337
66236W        W36836   5.415  12.607   4.606
66237W        W36837   6.753  10.237   3.167
66238W        W36838  44.667   4.439  14.902
66239W        W36839   3.476  16.826  13.533
66240W        W36840  22.067  32.891  14.400
66241W        W36841  36.339   9.913  12.552
66242W        W36842  24.986  29.001   2.381
66243W        W36843  26.701  42.018  11.948
66244W        W36844  44.567  44.178   3.253
66245W        W36845  25.716  23.667  14.933
66246W        W36846   6.383  31.053   1.504
66247W        W36847  35.595  18.536  14.904
66248W        W36848  17.847  19.984  13.968
66249W        W36849  28.760  23.666   4.232
66250W        W36850  39.801  10.426  13.923
66251W        W36851  30.588   3.937   2.814
66252W        W36852  34.389  37.394  13.917
66253W        W36853   9.635  14.994   1.386
66254W        W36854  19.296  12.787   4.015
66255W        W36855  15.681  22.186   0.668
66256W        W36856  40.883  16.611  10.522
66257W        W36857  34.506  30.498  13.377
66258W        W36858  34.793  35.754  11.156
66259W        W36859  36.507  18.211  11.542
66260W        W36860  15.334  37.079  12.980
66261W        W36861   5.218  21.108  10.726
66262W        W36862  28.150   0.557  11.194
66263W        W36863   6.845  22.277   3.375
66264W        W36864  18.500  26.749  10.837
66265W        W36865  26.041  39.973   3.616
66266W        W36866  21.066  38.587   0.844
66267W        W36867  37.434  11.389  13.986
66268W        W36868   1.760  23.574   4.880
66269W        W36869   1.271  24.364   4.371
66270W        W36870  13.860  21.546   0.531
66271W        W36871  32.484  29.237  13.915
66272W        W36872   7.749  27.151  11.988
66273W        W36873  31.617  34.689  10.853
66274W        W36874   3.342  17.529  12.420
66275W        W36875  14.815  27.398  13.928
66276W        W36876  16.048  25.440  14.959
66277W        W36877  30.289  44.215  11.396
66278W        W36878  19.614  31.711   2.966
66279W        W36879   4.018  36.106   2.256
66280W        W36880  22.992  44.961  14.368
66281W        W36881  44.756  19.294   1.845
66282W        W36882  37.520  38.463  12.969
66283W        W36883  33.143  15.148   3.317
66284W        W36884  33.559  34.208   2.272
66285W        W36885  17.712   4.360  12.806
66286W        W36886  18.344   6.807   3.089
66287W        W36887   5.205  40.518  14.338
66288W        W36888  29.582   3.213   1.765
66289W        W36889  20.574  42.242   1.386
66290W        W36890   1.780  31.608   0.405
66291W        W36891  15.078  18.673  10.622
66292W        W36892   2.479  20.077  11.605
66293W        W36893  15.578   8.075   0.219
66294W        W36894  23.624  17.686   4.196
66295W        W36895  18.035  40.944   4.925
66296W        W36896   3.418  37.065  11.913
66297W        W36897  36.665  36.942  12.834
66298W        W36898  29.123  19.276   3.282
66299W        W36899  20.253  38.958  12.492
66300W        W36900  25.726  16.298   1.687
66301W        W36901  26.335   1.451  14.989
66302W        W36902   0.552  11.975  11.449
66303W        W36903  41.466  23.728  13.900
66304W        W36904  29.694  19.882  12.713
66305W        W36905  44.833  14.392  11.260
66306W        W36906  35.001  16.881   2.733
66307W        W36907  28.424  24.651   4.026
66308W        W36908  18.843  37.440  14.335
66309W        W36909   7.646  30.495  11.122
66310W        W36910   9.931  40.814  12.879
66311W        W36911  20.363  38.418   2.283
66312W        W36912  16.649  25.563  12.474
66313W        W36913  37.123  25.619   3.300
66314W        W36914  21.073  16.129  13.101
66315W        W36915  44.937  44.753   1.524
66316W        W36916  37.429  23.065  10.420
66317W        W36917  18.694  12.458  10.264
66318W        W36918  41.448   0.254  11.887
66319W        W36919  36.278  21.114   3.545
66320W        W36920  20.744   9.371   4.640
66321W        W36921  24.700  31.082   2.215
66322W        W36922   7.226  12.689   3.863
66323W        W36923  20.666  30.977   0.174
66324W        W36924  12.051  18.107   5.095
66325W        W36925  25.062  18.717  11.406
66326W        W36926   3.383  26.787  11.345
66327W        W36927  29.917  24.726  12.151
66328W        W36928  29.953  30.429  13.028
66329W        W36929   8.425  13.224  13.550
66330W        W36930  25.007  23.281   0.332
66331W        W36931  29.261  43.595  14.808
66332W        W36932  21.734  22.742  10.492
66333W        W36933  28.427   1.778   1.696
66334W        W36934  32.876  32.010  12.921
66335W        W36935  28.224  37.815   1.896
66336W        W36936  17.675  18.210   2.170
66337W        W36937  27.074  29.598   1.025
66338W        W36938  39.058  38.936  13.988
66339W        W36939  43.493  38.352  13.954
66340W        W36940  28.269  24.599   1.175
66341W        W36941  18.810   7.821  14.353
66342W        W36942  16.232  31.423  12.337
66343W        W36943  33.513  36.080  13.867
66344W        W36944  42.569  11.182   4.129
66345W        W36945  16.989   9.661  13.269
66346W        W36946  22.649  16.720   2.634
66347W        W36947  27.658   7.140   2.422
66348W        W36948   3.000  43.926  14.737
66349W        W36949  28.174  40.197   0.467
66350W        W36950  13.643  16.449  12.166
66351W        W36951  11.029  35.582  11.177
66352W        W36952   0.515  27.752  11.366
66353W        W36953  43.808   0.463   1.216
66354W        W36954   5.054  16.566   2.119
66355W        W36955   3.632   9.185   2.848
66356W        W36956  44.304  41.538  10.987
66357W        W36957  23.581  16.059  11.078
66358W        W36958   1.172  28.155   1.205
66359W        W36959  23.190  29.812   4.946
66360W        W36960  14.595  21.574  14.467
66361W        W36961  25.464   8.318   4.054
66362W        W36962  13.728  22.908   0.770
66363W        W36963   4.822   0.933   4.238
66364W        W36964   1.748   2.837   2.206
66365W        W36965  10.685  35.025   4.187
66366W        W36966   0.218  42.906  10.455
66367W        W36967   5.940  40.299   1.399
66368W        W36968  24.276  27.848  14.840
66369W        W36969  23.432  10.964   3.684
66370W        W36970  34.784  15.732   2.017
66371W        W36971  14.161   7.749   3.111
66372W        W36972  39.339  32.170   3.139
66373W        W36973  32.990  28.055  10.623
66374W        W36974  37.633  31.517  14.798
66375W        W36975  42.834   2.467  11.582
66376W        W36976  36.911  15.312   3.701
66377W        W36977   9.941  14.352   0.281
66378W        W36978  19.959   0.893  13.410
66379W        W36979  30.209  31.828  11.566
66380W        W36980  36.902  14.346   4.281
66381W        W36981  17.601  31.591  14.937
66382W        W36982  13.074   7.159  13.794
66383W        W36983  22.588  41.723   4.143
66384W        W36984   6.756  27.417  13.827
66385W        W36985  40.294   3.866   2.613
66386W        W36986   8.292  27.704  13.831
66387W        W36987  18.551  42.958   3.145
66388W        W36988  27.885  30.160  14.839
66389W        W36989  40.874  14.364   4.121
66390W        W36990  37.717  27.757  14.070
66391W        W36991  33.121  43.979  13.054
66392W        W36992  20.741  42.276  14.947
66393W        W36993  10.245  38.402   1.311
66394W        W36994  31.481  36.195   4.387
66395W        W36995  39.301  44.933  13.035
66396W        W36996  19.834   6.121   3.958
66397W        W36997   0.051   9.341  13.791
66398W        W36998  34.568   3.801  14.677
66399W        W36999  28.711  25.996   4.047
66400W        W37000   3.670  12.345  10.477
66401W        W37001  36.744   3.980   3.591
66402W        W37002   7.689  22.562  14.088
66403W        W37003  15.740   0.782   1.280
66404W        W37004  21.227  44.586  11.870
66405W        W37005  11.899  13.863   3.752
66406W        W37006  28.069  26.200  13.848
66407W        W37007   6.323  33.968  11.723
66408W        W37008  29.112  24.690   1.779
66409W        W37009  32.145  39.993   3.715
66410W        W37010   5.008  44.477   3.805
66411W        W37011   6.115  27.862  12.159
66412W        W37012  26.096  28.730  11.115
66413W        W37013  27.177   3.740  11.606
66414W        W37014  12.788  33.617  11.117
66415W        W37015   5.171  32.143   0.270
66416W        W37016  36.151   6.942   4.297
66417W        W37017  32.526  23.581  11.099
66418W        W37018  19.258  28.103   4.265
66419W        W37019  31.400  37.367   2.926
66420W        W37020  22.495  10.894  10.746
66421W        W37021  32.194  27.537  13.978
66422W        W37022   9.116   9.363  11.601
66423W        W37023  36.754  32.509   2.145
66424W        W37024  25.390  24.227  14.355
66425W        W37025  17.147  32.670  11.931
66426W        W37026  27.788  32.143   0.978
66427W        W37027  18.551  35.257   2.259
66428W        W37028  28.458  35.540  12.852
66429W        W37029   4.788  12.188  13.530
66430W        W37030  22.233  44.375   3.657
66431W        W37031  39.237  36.923  14.724
66432W        W37032   8.059  25.048  13.581
66433W        W37033  11.698  15.075   1.476
66434W        W37034  18.145   7.029  12.268
66435W        W37035  12.232  21.056   2.758
66436W        W37036  22.763   9.809  13.332
66437W        W37037   7.267  30.295  12.414
66438W        W37038  16.104  33.517   1.885
66439W        W37039  13.162  43.417   3.157
66440W        W37040  20.216  11.244   4.431
66441W        W37041  26.976  28.139   4.513
66442W        W37042  31.565   3.044   3.112
66443W        W37043  40.422  21.127   2.909
66444W        W37044  33.558   9.196   3.818
66445W        W37045  40.971  36.903  13.894
66446W        W37046  21.754  11.543  12.092
66447W        W37047  43.257  44.194   2.328
66448W        W37048  30.206  15.585  12.791
66449W        W37049  23.212  22.085   4.706
66450W        W37050  31.552  13.463  11.566
66451W        W37051  31.648  24.899   0.616
66452W        W37052  15.131  24.282  13.973
66453W        W37053  40.880  21.081   3.144
66454W        W37054  20.549   9.706   1.109
66455W        W37055  32.871  32.196  14.525
66456W        W37056  44.278   6.313  12.542
66457W        W37057  24.483  19.343   0.289
66458W        W37058  34.895  22.451  12.024
66459W        W37059  19.465   3.273   4.227
66460W        W37060  38.030  21.557   4.544
66461W        W37061  24.757  41.836   2.391
66462W        W37062  24.688   1.295  14.830
66463W        W37063   2.338  31.193  13.753
66464W        W37064  34.126  44.120   0.441
66465W        W37065  21.643  37.813  11.685
66466W        W37066  41.205  21.835   3.786
66467W        W37067  43.207  36.581   1.275
66468W        W37068  27.183   6.113   0.333
66469W        W37069  24.649   3.401   2.518
66470W        W37070  12.240  11.264   4.753
66471W        W37071  34.276  36.859   3.558
66472W        W37072   3.446  11.559  11.982
66473W        W37073  23.169  12.369   2.735
66474W        W37074  22.034  33.292  11.171
66475W        W37075   5.437  44.514  13.397
66476W        W37076  31.049  44.873   4.223
66477W        W37077   1.760  12.145  14.000
66478W        W37078  12.841  28.449   3.346
66479W        W37079  29.732  37.388  11.428
66480W        W37080  43.987  18.193  11.881
66481W        W37081  44.756  44.325   1.725
66482W        W37082   8.639   0.937  11.944
66483W        W37083   5.381  15.132  14.016
66484W        W37084  43.008  12.197  11.579
66485W        W37085   2.881  35.935  11.101
66486W        W37086   7.173  20.008   2.262
66487W        W37087  22.437  22.092  11.866
66488W        W37088  38.877  32.240   4.731
66489W        W37089  36.920  36.441  13.986
66490W        W37090  27.934  13.666   0.810
66491W        W37091   4.970  28.516   1.794
66492W        W37092  22.030   5.469  11.955
66493W        W37093  18.146  25.264  10.659
66494W        W37094  39.451  32.039  11.821
66495W        W37095  35.126  34.084   4.796
66496W        W37096  35.350   6.101  14.000
66497W        W37097  34.348  20.066  11.218
66498W        W37098   3.950  20.106  13.052
66499W        W37099  22.632  15.558   0.056
66500W        W37100  28.123  23.876  13.631
66501W        W37101  39.810  15.566  11.518
66502W        W37102  15.075  32.104  13.828
66503W        W37103   4.898  29.523   0.036
66504W        W37104   0.892  30.683  10.663
66505W        W37105  37.232  30.549  11.993
66506W        W37106  35.429  44.405   4.234
66507W        W37107  21.182  22.025  14.816
66508W        W37108  29.086  23.228   4.303
66509W        W37109  41.654  13.741  11.066
66510W        W37110  18.754  13.460   1.007
66511W        W37111  39.151   4.118   1.487
66512W        W37112  10.380  38.525  12.327
66513W        W37113  28.620  15.813   3.187
66514W        W37114   8.422  38.996  13.753
66515W        W37115  28.815   4.388  12.020
66516W        W37116  41.573  16.674  14.994
66517W        W37117  20.940  41.311   4.469
66518W        W37118  34.959  37.153   0.828
66519W        W37119  23.953  37.417  12.069
66520W        W37120  22.820  33.473   1.386
66521W        W37121  16.838  36.876  11.842
66522W        W37122  27.411  13.605   0.896
66523W        W37123   5.640  20.038   1.305
66524W        W37124   1.473  19.585  14.002
66525W        W37125  12.398  32.906  12.846
66526W        W37126  11.811   7.774   4.352
66527W        W37127   0.905  22.893  11.947
66528W        W37128   7.222  12.319  11.434
66529W        W37129  18.923  15.284  14.491
66530W        W37130   2.630  37.098  13.178
66531W        W37131  15.675  26.971   0.410
66532W        W37132  36.882  15.047   2.222
66533W        W37133  23.601  29.992   4.246
66534W        W37134   0.715  26.748   1.174
66535W        W37135   0.663  16.204   0.420
66536W        W37136  43.369  33.457  11.459
66537W        W37137   7.616  25.173   0.921
66538W        W37138  39.259  12.818  13.749
66539W        W37139   2.990  37.864   2.493
66540W        W37140  21.348   1.283  11.153
66541W        W37141  39.300  20.063  12.452
66542W        W37142  11.315  27.882  13.596
66543W        W37143  20.526  12.021   1.427
66544W        W37144  35.425  32.127  11.191
66545W        W37145  29.170  30.620  11.651
66546W        W37146  19.334  36.813   1.511
66547W        W37147   9.195  11.905  10.079
66548W        W37148  12.788  42.168   2.434
66549W        W37149  12.752  25.042   4.657
66550W        W37150  27.505  31.433  14.966
66551W        W37151  34.513   9.502  12.805
66552W        W37152  28.423  14.069  11.991
66553W        W37153  29.077   5.508   2.436
66554W        W37154  41.733  38.005   4.605
66555W        W37155  34.381   6.140  14.220
66556W        W37156  17.052   9.668   1.167
66557W        W37157  24.987  21.708   0.767
66558W        W37158   8.333  33.069   2.409
66559W        W37159  27.503  11.942  14.475
66560W        W37160  12.271  11.056   3.291
66561W        W37161  43.944  37.556  14.072
66562W        W37162  31.140  20.214   3.158
66563W        W37163  27.687  36.280  12.063
66564W        W37164  44.759   4.869   0.973
66565W        W37165  27.933  29.400  11.824
66566W        W37166  21.801  24.243  12.138
66567W        W37167  32.695  33.556  10.127
66568W        W37168  20.533  20.737  10.805
66569W        W37169  43.473   0.065  10.665
66570W        W37170  40.074   6.676  14.120
66571W        W37171  10.114  28.510  14.926
66572W        W37172  28.716  33.947  10.402
66573W        W37173  43.444   4.242   3.329
66574W        W37174  15.051  30.944  14.928
66575W        W37175   0.495   1.984   3.990
66576W        W37176  17.951  18.887   3.599
66577W        W37177  41.468  20.004  12.308
66578W        W37178  18.327  15.147  11.955
66579W        W37179  22.736  16.118  13.459
66580W        W37180  20.644  29.602  14.550
66581W        W37181  12.192  18.340  12.122
66582W        W37182  19.591  42.479   2.308
66583W        W37183  31.429  15.189   3.720
66584W        W37184  16.065  11.666  14.798
66585W        W37185  30.051   7.187   1.117
66586W        W37186  22.174   3.178  10.745
66587W        W37187  10.617   0.801   1.701
66588W        W37188  11.102   1.448  12.546
66589W        W37189   5.922  19.599   1.259
66590W        W37190  15.539  15.763   5.006
66591W        W37191   2.249  43.890   0.234
66592W        W37192  42.398  34.594   3.829
66593W        W37193  32.429   6.745  11.774
66594W        W37194   2.886  23.022  13.867
66595W        W37195  42.047  29.067  10.448
66596W        W37196   3.958   1.904  14.943
66597W        W37197  21.065   8.768   3.018
66598W        W37198  16.877   8.839   0.311
66599W        W37199  28.126  14.907  10.935
66600W        W37200  39.490  22.760  11.211
66601W        W37201  34.109   8.258   0.209
66602W        W37202  21.665  39.337   2.724
66603W        W37203   0.343  26.498   1.437
66604W        W37204  39.768   1.458   0.004
66605W        W37205  32.561  35.959   0.261
66606W        W37206  25.645  15.808   0.768
66607W        W37207  42.941   8.968   3.244
66608W        W37208  20.273  21.621  13.495
66609W        W37209  32.924  18.141   0.507
66610W        W37210  44.276  41.108  13.843
66611W        W37211   0.303  12.711  10.711
66612W        W37212   3.688   8.273   4.156
66613W        W37213  44.400  12.197   2.743
66614W        W37214  19.143  41.899   3.875
66615W        W37215  16.263   8.123  12.092
66616W        W37216  25.974  13.433  11.710
66617W        W37217  21.167  19.951  10.643
66618W        W37218  15.529  33.164  10.688
66619W        W37219  22.403  43.885  12.603
66620W        W37220   6.239   7.447  14.411
66621W        W37221  20.533  17.128   1.285
66622W        W37222  31.328   7.504   0.923
66623W        W37223  19.306  43.464   4.156
66624W        W37224  10.734  44.631   1.271
66625W        W37225  19.211  26.163  14.034
66626W        W37226  20.438  36.840  12.348
66627W        W37227   8.974  12.082  13.544
66628W        W37228  14.621  17.826   3.170
66629W        W37229  40.948  25.541   1.407
66630W        W37230  18.051  40.434  13.873
66631W        W37231  35.021  42.730  12.115
66632W        W37232  37.022  41.589  11.238
66633W        W37233  32.409  43.806  12.328
66634W        W37234   8.690  26.995  11.044
66635W        W37235  43.543  41.864  14.951
66636W        W37236  26.358   1.274  11.941
66637W        W37237   4.326   6.356   0.685
66638W        W37238   1.021  24.400   0.262
66639W        W37239  23.152  25.481  11.674
66640W        W37240  20.702  30.662   2.617
66641W        W37241   9.652  27.019   3.631
66642W        W37242  34.161  19.566  11.077
66643W        W37243  26.990  15.027   0.794
66644W        W37244  23.462   3.798   4.221
66645W        W37245  14.626  27.259  12.972
66646W        W37246  22.690  40.708   0.971
66647W        W37247  22.800   1.371   3.697
66648W        W37248  10.371  43.382   5.133
66649W        W37249  15.741  27.443   1.197
66650W        W37250  10.798  44.476  14.437
66651W        W37251  11.991   7.822   4.829
66652W        W37252  16.802  30.632  14.433
66653W        W37253  14.214   3.241   0.181
66654W        W37254  36.573  29.550   0.772
66655W        W37255   8.249   4.935   1.961
66656W        W37256  17.058   3.496   0.871
66657W        W37257  30.962   0.492   2.173
66658W        W37258  20.167  28.266  13.618
66659W        W37259  40.836  16.596   3.190
66660W        W37260  44.446  14.620   2.565
66661W        W37261  39.819   4.739   2.264
66662W        W37262  16.822   4.240  10.753
66663W        W37263  35.765  24.667   4.045
66664W        W37264  19.722  34.593   1.256
66665W        W37265  37.406  21.558   3.943
66666W        W37266  17.309  26.897   2.741
66667W        W37267   3.888  11.220  13.836
66668W        W37268  38.765  25.695  14.870
66669W        W37269  32.865  14.277  13.354
66670W        W37270  29.424  20.317  14.055
66671W        W37271  17.203  23.211  13.021
66672W        W37272   9.699  36.371   1.811
66673W        W37273  44.920   6.813   0.960
66674W        W37274  44.749   4.344  11.086
66675W        W37275  10.307  43.555   4.153
66676W        W37276  35.601  36.116  12.743
66677W        W37277  33.962  14.899   4.824
66678W        W37278  37.501  10.739   1.339
66679W        W37279  29.543  29.456   1.464
66680W        W37280  40.467  10.003   5.047
66681W        W37281  20.362  11.846  14.104
66682W        W37282   4.881  31.976  11.987
66683W        W37283   8.272  29.908  12.984
66684W        W37284  36.872   4.149  12.902
66685W        W37285  27.106   5.155   2.438
66686W        W37286  10.740  30.267   0.395
66687W        W37287  26.002  24.075  14.950
66688W        W37288  32.439   2.726  13.608
66689W        W37289  12.410  31.025   4.616
66690W        W37290   2.237   2.778   3.760
66691W        W37291  26.236   1.758   4.131
66692W        W37292  19.070  39.536  13.943
66693W        W37293  22.821  17.144   1.865
66694W        W37294  35.116  33.476   1.150
66695W        W37295   1.738  21.948   0.924
66696W        W37296  42.798  44.785  11.785
66697W        W37297  13.555  23.900  10.709
66698W        W37298  29.138  42.181  11.030
66699W        W37299   8.325  16.469   2.706
66700W        W37300  33.329  15.913   4.578
66701W        W37301   9.730  17.022  12.016
66702W        W37302  18.884  13.271   3.493
66703W        W37303   6.661  28.411  12.873
66704W        W37304  19.342  44.469   4.694
66705W        W37305  30.109  41.695   5.063
66706W        W37306   2.121  41.744   2.893
66707W        W37307  17.245  34.567  12.884
66708W        W37308  18.288  13.352  11.029
66709W        W37309  10.331  13.554   3.701
66710W        W37310  21.544   6.230  11.413
66711W        W37311  39.789  34.392   2.424
66712W        W37312   9.279  31.120  11.529
66713W        W37313  21.115  19.980   2.154
66714W        W37314   3.145   0.892  11.278
66715W        W37315  26.870   9.007  10.038
66716W        W37316   4.792  34.404  10.080
66717W        W37317  29.059   2.385   3.703
66718W        W37318  31.102  24.320  12.723
66719W        W37319  11.720  21.672  10.929
66720W        W37320  26.636  44.580   2.313
66721W        W37321  42.040  21.965   0.087
66722W        W37322  25.631  30.624   0.239
66723W        W37323  41.985  24.160  10.750
66724W        W37324  37.325  22.178   4.582
66725W        W37325  12.657  14.348  12.436
66726W        W37326  28.669  30.431   3.341
66727W        W37327  23.643   8.988   9.929
66728W        W37328   2.446  14.644  12.960
66729W        W37329   8.156  38.544   0.233
66730W        W37330  17.777   1.436   1.694
66731W        W37331  28.960  10.283  14.261
66732W        W37332  10.630  27.484  14.228
66733W        W37333  35.576  33.527   4.611
66734W        W37334  19.255  23.490  12.550
66735W        W37335  16.120   6.959   1.961
66736W        W37336  36.606  23.762   0.855
66737W        W37337  42.426  31.810   2.793
66738W        W37338  42.890   5.480  13.431
66739W        W37339   6.836   9.163  13.916
66740W        W37340  41.939  22.759   3.254
66741W        W37341  24.435  43.019  11.843
66742W        W37342  12.347  11.734   2.862
66743W        W37343   2.212  25.240   0.865
66744W        W37344  31.671  21.570  14.150
66745W        W37345  35.162  20.690   1.698
66746W        W37346  16.681  42.385  12.510
66747W        W37347  41.469  16.499  12.042
66748W        W37348   5.729  37.012  13.390
66749W        W37349  43.537  40.415  13.409
66750W        W37350   9.182  22.472   3.761
66751W        W37351  18.074   4.822   0.269
66752W        W37352   2.245   0.682   2.399
66753W        W37353  27.563  43.845   0.088
66754W        W37354  16.515  26.036   3.696
66755W        W37355  26.076   1.680   2.172
66756W        W37356  30.402  22.101   3.306
66757W        W37357   4.464  31.040   2.435
66758W        W37358  35.105  32.945  13.029
66759W        W37359   6.761   5.614   1.769
66760W        W37360  39.076   9.866   0.973
66761W        W37361  15.827  18.160   3.274
66762W        W37362  18.562  11.972  13.079
66763W        W37363  29.543  36.664   4.088
66764W        W37364  29.483  38.798   0.901
66765W        W37365  27.146  21.653   3.370
66766W        W37366  34.614   4.323  13.001
66767W        W37367  13.001  15.208   4.099
66768W        W37368   3.465  41.364   2.883
66769W        W37369  33.226  20.419  12.042
66770W        W37370  13.911  43.327   1.355
66771W        W37371   2.908  11.619  13.857
66772W        W37372  39.092   0.657   2.518
66773W        W37373  29.863  13.302  10.502
66774W        W37374  31.558  40.625   1.250
66775W        W37375  27.995  32.614   1.410
66776W        W37376  37.560  24.962  11.624
66777W        W37377  39.842  22.401  11.217
66778W        W37378   2.922  19.648  14.040
66779W        W37379  30.261   8.758  11.546
66780W        W37380   9.150  33.867   4.125
66781W        W37381  28.928  14.733   0.960
66782W        W37382  10.383  43.901  12.814
66783W        W37383  44.956  18.211   0.800
66784W        W37384   6.858  28.229  14.912
66785W        W37385  15.076   6.052  13.272
66786W        W37386  27.928  14.231   2.219
66787W        W37387  14.517  27.861   0.314
66788W        W37388  33.388  22.635  10.850
66789W        W37389  42.398   2.147  12.590
66790W        W37390  27.146   8.660   0.420
66791W        W37391  43.125  34.881   0.583
66792W        W37392  18.341  39.029   4.040
66793W        W37393  29.102   4.722   3.119
66794W        W37394  20.197  18.759   0.871
66795W        W37395  34.257  39.886   0.003
66796W        W37396   5.611  10.340   2.637
66797W        W37397   7.386  38.736   3.734
66798W        W37398  41.483   5.626   0.899
66799W        W37399  40.247  25.711   2.290
66800W        W37400  34.396  13.314  12.418
66801W        W37401  18.454  30.143  12.542
66802W        W37402  20.171  11.669   4.132
66803W        W37403   6.897   0.871   2.696
66804W        W37404  42.548  15.167  12.561
66805W        W37405  37.013  12.388  14.042
66806W        W37406  41.053  37.881  13.432
66807W        W37407  22.512  27.385   3.048
66808W        W37408  40.956   3.870  14.014
66809W        W37409  28.201  12.779   2.710
66810W        W37410  44.075  28.652  14.030
66811W        W37411   1.996  23.883   4.528
66812W        W37412  42.314  19.376   2.821
66813W        W37413  35.771  19.184  13.126
66814W        W37414  21.735  42.972  13.846
66815W        W37415   4.542   1.620  11.977
66816W        W37416  34.543  35.907   3.671
66817W        W37417  42.909  18.059   1.818
66818W        W37418  21.341  34.602  12.640
66819W        W37419   0.882   8.776   3.287
66820W        W37420  25.057   6.859   0.539
66821W        W37421  11.294  27.198  13.074
66822W        W37422  10.317  10.385   4.184
66823W        W37423  26.595  12.656   3.038
66824W        W37424   2.905  26.107  10.440
66825W        W37425  39.665  22.757  12.535
66826W        W37426  34.352  41.063   4.611
66827W        W37427  22.952  41.015  13.444
66828W        W37428   5.905  38.762  11.177
66829W        W37429  16.543   0.426  11.514
66830W        W37430  17.666  13.748   3.165
66831W        W37431  23.984  32.834   3.635
66832W        W37432  43.216  36.940   3.699
66833W        W37433  23.733  18.343   3.334
66834W        W37434   5.690  30.453  13.064
66835W        W37435  20.703  12.839  14.752
66836W        W37436  38.703   0.445   0.971
66837W        W37437  23.272  30.574   3.663
66838W        W37438   2.278  26.989  12.807
66839W        W37439  18.076  22.338   0.318
66840W        W37440  34.208  40.147  13.091
66841W        W37441  36.891  11.549  10.466
66842W        W37442  34.506  14.868   3.022
66843W        W37443  37.510   7.314   3.370
66844W        W37444  33.613  39.245   1.901
66845W        W37445  41.052  39.932  11.510
66846W        W37446  38.480  38.942  14.895
66847W        W37447  28.073  12.250  12.361
66848W        W37448   3.321  24.676   3.227
66849W        W37449  19.764  42.096  12.241
66850W        W37450  40.324  17.708  11.654
66851W        W37451  13.149  38.481  13.833
66852W        W37452  36.089   4.485  10.591
66853W        W37453  30.838  40.440   1.891
66854W        W37454  24.451  32.679  13.509
66855W        W37455  12.463  19.794  11.021
66856W        W37456   6.340  23.481  14.631
66857W        W37457  24.960  39.438  11.546
66858W        W37458  23.949  43.943   2.060
66859W        W37459   8.982  43.150  14.839
66860W        W37460  17.124  43.136  10.229
66861W        W37461  19.149   3.321   1.200
66862W        W37462  40.754  11.916  14.433
66863W        W37463  27.194  32.678  11.670
66864W        W37464  39.741  16.349  11.082
66865W        W37465  41.621  43.014   1.583
66866W        W37466  20.239  27.569   2.348
66867W        W37467  26.257   7.840   4.228
66868W        W37468  25.618  12.444   4.849
66869W        W37469   9.714  43.536   3.429
66870W        W37470  17.188  27.652   3.687
66871W        W37471  20.942  43.884   4.179
66872W        W37472  35.451  30.494  13.397
66873W        W37473   0.507  39.337  11.054
66874W        W37474   3.396  18.652   2.153
66875W        W37475  34.118  33.158  11.438
66876W        W37476   9.184  10.722  12.931
66877W        W37477   7.578   0.437   0.407
66878W        W37478  11.766  28.445  13.469
66879W        W37479  43.428   3.738   3.526
66880W        W37480  15.391  35.808   2.710
66881W        W37481  33.885  16.593  12.347
66882W        W37482  33.042  34.920   2.434
66883W        W37483   4.474   2.951  14.762
66884W        W37484  24.658  28.252   1.845
66885W        W37485   0.971   3.750  14.934
66886W        W37486  35.223  23.164  13.152
66887W        W37487  21.177  33.320  12.930
66888W        W37488  39.802   6.742   0.462
66889W        W37489  32.709  23.000   0.947
66890W        W37490  31.572  21.964  10.703
66891W        W37491  10.955   2.672   2.822
66892W        W37492  17.143  29.788  11.259
66893W        W37493  21.159  26.952   2.801
66894W        W37494  37.576  15.809  11.395
66895W        W37495  37.411   0.268   2.570
66896W        W37496   5.802  14.133  10.752
66897W        W37497   3.328  12.243  14.791
66898W        W37498  27.432  32.577  12.127
66899W        W37499  42.930  30.134  11.471
66900W        W37500  44.523  44.769  12.922
66901W        W37501  22.115  22.241  11.158
66902W        W37502   6.355   4.872   1.844
66903W        W37503  13.898   0.200  12.495
66904W        W37504  39.966  17.630   4.228
66905W        W37505   0.406  10.728  12.646
66906W        W37506  37.917  34.834   1.788
66907W        W37507  40.886  28.505  14.317
66908W        W37508  36.094  20.205   3.577
66909W        W37509  14.688  10.182  11.521
66910W        W37510  40.176  27.222  12.568
66911W        W37511  32.182  42.806  10.719
66912W        W37512  26.693  11.286   0.498
66913W        W37513   8.121   6.821  12.490
66914W        W37514  16.298  31.479  14.389
66915W        W37515  26.221  36.572   0.494
66916W        W37516  15.296  39.958   1.805
66917W        W37517  27.784  27.390  11.341
66918W        W37518  19.293  11.895  12.399
66919W        W37519  12.220   8.873  11.807
66920W        W37520  30.078   2.888  10.730
66921W        W37521  25.307  13.227  14.928
66922W        W37522  19.926  41.518  11.054
66923W        W37523  25.679  11.792  13.437
66924W        W37524  37.918  34.025  14.464
66925W        W37525  23.385  10.911   4.662
66926W        W37526  31.827  22.711  14.938
66927W        W37527  28.950   8.160   1.012
66928W        W37528   4.260  11.960   2.178
66929W        W37529   0.211  22.656   2.556
66930W        W37530  38.880  16.202  10.690
66931W        W37531  21.611   9.987   1.819
66932W        W37532  17.608   8.814   2.118
66933W        W37533  21.771   6.433   3.164
66934W        W37534  29.768  41.073   2.397
66935W        W37535  12.243  18.636  11.677
66936W        W37536  42.954  43.864  11.112
66937W        W37537  11.896   2.371  10.500
66938W        W37538  30.555  39.918  14.969
66939W        W37539   7.944  37.303  13.758
66940W        W37540  12.848  21.423   3.969
66941W        W37541  40.730  28.596  13.300
66942W        W37542  14.336  14.815  12.515
66943W        W37543   3.726  19.379   1.367
66944W        W37544  32.988  21.534  12.067
66945W        W37545  38.477  18.810   2.818
66946W        W37546  24.197  40.541   1.994
66947W        W37547  23.180  34.291   3.599
66948W        W37548  33.452  28.402   0.723
66949W        W37549  24.634   3.296  11.740
66950W        W37550   9.171   7.126   0.021
66951W        W37551  19.075   5.220  13.887
66952W        W37552  31.103   1.698   4.684
66953W        W37553   1.531  20.571   2.711
66954W        W37554  21.991   8.280   3.129
66955W        W37555   2.250  15.327   3.232
66956W        W37556  43.463   1.326   3.275
66957W        W37557  39.255  24.964   1.404
66958W        W37558  33.146   3.123  12.002
66959W        W37559  30.117  39.957   1.797
66960W        W37560  36.369  10.596   4.137
66961W        W37561  38.838  14.129  13.496
66962W        W37562  30.570  27.226   2.750
66963W        W37563  19.770   2.254  10.096
66964W        W37564  12.673  13.008   4.563
66965W        W37565   6.275  12.338   0.794
66966W        W37566  22.990  21.591   2.790
66967W        W37567  15.134  26.967  11.509
66968W        W37568  20.109  32.566  13.705
66969W        W37569  37.937  36.857  14.422
66970W        W37570   2.775  26.202   2.833
66971W        W37571  25.352  27.578  11.349
66972W        W37572  23.269  32.923   1.915
66973W        W37573  12.929  14.824  12.461
66974W        W37574  15.933  33.122   0.183
66975W        W37575  24.568   5.861   2.424
66976W        W37576  19.527  17.222   2.298
66977W        W37577  27.510  16.592   2.761
66978W        W37578  42.976  27.379   4.944
66979W        W37579  44.999  43.036  13.004
66980W        W37580   1.432  37.798   3.399
66981W        W37581   0.682   8.199  12.221
66982W        W37582  23.860  44.932   1.751
66983W        W37583  16.907   1.348  14.512
66984W        W37584  26.596   9.669  12.816
66985W        W37585  33.157  10.845  11.387
66986W        W37586  20.049  43.931  12.369
66987W        W37587  10.690   9.888  12.621
66988W        W37588  10.356  28.253   1.803
66989W        W37589  44.835  23.187   3.864
66990W        W37590  32.161  33.225  12.870
66991W        W37591  34.484  43.738  11.969
66992W        W37592  13.535  34.490   1.809
66993W        W37593   6.738  43.140  12.049
66994W        W37594  43.057  14.608   3.631
66995W        W37595  30.661  36.974  11.503
66996W        W37596  25.706  28.135  10.569
66997W        W37597  29.530  37.929   4.931
66998W        W37598  44.372  15.783  11.586
66999W        W37599  39.353  29.550  10.922
67000W        W37600  25.174  24.781   4.527
67001W        W37601  41.381  17.755   3.655
67002W        W37602  28.734  14.672   3.928
67003W        W37603  18.524  37.582  12.129
67004W        W37604  28.535  19.967   3.979
67005W        W37605  34.007  40.804   0.767
67006W        W37606  25.687  16.899   4.139
67007W        W37607  22.971  28.562   3.112
67008W        W37608  11.383   7.464   0.459
67009W        W37609  11.286  33.206   2.377
67010W        W37610  35.287   5.642   4.308
67011W        W37611  36.543  39.045   3.667
67012W        W37612  31.673  20.989  11.092
67013W        W37613  34.118  26.652   0.434
67014W        W37614  39.815  15.724  14.601
67015W        W37615  44.281  19.043  13.315
67016W        W37616  14.200  14.057  13.800
67017W        W37617   1.556  22.782   3.388
67018W        W37618  28.184  32.981  11.130
67019W        W37619  12.736  39.283   1.749
67020W        W37620  40.361   1.479  13.884
67021W        W37621  10.092   4.832   1.789
67022W        W37622  27.261  10.246   1.362
67023W        W37623  27.971  17.746   0.039
67024W        W37624  27.000  39.609   0.704
67025W        W37625   4.993  24.093   3.078
67026W        W37626  21.221  15.437  13.788
67027W        W37627  44.523  11.719   0.238
67028W        W37628  26.174  18.033   3.820
67029W        W37629  12.571   3.296   1.278
67030W        W37630  41.404   9.657   3.897
67031W        W37631   1.974   5.843   1.894
67032W        W37632  19.010  10.865  11.084
67033W        W37633  25.657  10.167  11.280
67034W        W37634   6.025  10.771  13.332
67035W        W37635  33.895  37.809   4.452
67036W        W37636  26.258  18.852   2.152
67037W        W37637  15.191   2.841   2.213
67038W        W37638  11.165  16.103   4.399
67039W        W37639   9.322  30.381   0.584
67040W        W37640  26.550  25.606   3.563
67041W        W37641  35.544  32.864   0.779
67042W        W37642  44.857   3.784   4.172
67043W        W37643  37.868  37.801   4.723
67044W        W37644  35.815  13.550  14.948
67045W        W37645  21.476  12.665   2.297
67046W        W37646  25.221  17.529  14.528
67047W        W37647  23.960  34.876  12.552
67048W        W37648   8.800  32.842   4.761
67049W        W37649  36.187  30.946   4.245
67050W        W37650   4.654  20.686   0.354
67051W        W37651  31.627  39.063  13.754
67052W        W37652  20.567  10.623   2.240
67053W        W37653  26.728  43.885   1.832
67054W        W37654  15.695  10.324   2.742
67055W        W37655   2.397  18.104   1.783
67056W        W37656   5.800  28.942   0.995
67057W        W37657  26.719  18.798  11.758
67058W        W37658  23.549  19.487  11.898
67059W        W37659  26.459  25.101   3.093
67060W        W37660  38.076  29.528   2.347
67061W        W37661  23.374  14.639   3.089
67062W        W37662  39.162   2.316  11.946
67063W        W37663  28.112  15.987  12.454
67064W        W37664  15.825  15.280  14.410
67065W        W37665   4.945  10.789  11.416
67066W        W37666  43.033  25.523  13.714
67067W        W37667  28.564  37.677  12.947
67068W        W37668   6.414  16.188  14.998
67069W        W37669  35.148  19.258   2.461
67070W        W37670   1.912  18.296   1.379
67071W        W37671   7.490  14.218  12.822
67072W        W37672  19.212  37.359  10.681
67073W        W37673  21.128  38.280  10.449
67074W        W37674  38.468  18.044   3.300
67075W        W37675  10.250  25.956   3.636
67076W        W37676  30.969  38.787  14.430
67077W        W37677  15.137   5.396   4.600
67078W        W37678  18.422  34.082  12.633
67079W        W37679   7.861  11.657   0.617
67080W        W37680  29.708  30.096  11.194
67081W        W37681   2.340  43.269   2.460
67082W        W37682  18.666  29.241   0.723
67083W        W37683  31.440   0.404   1.301
67084W        W37684  28.740   9.757  13.295
67085W        W37685  33.419  37.650  12.851
67086W        W37686  22.105  32.933   4.631
67087W        W37687  18.775  21.513   1.229
67088W        W37688  35.220  26.648   4.585
67089W        W37689  38.535  33.071  13.873
67090W        W37690  21.364  30.010   2.089
67091W        W37691   6.631   6.840   0.871
67092W        W37692   0.258   0.404   4.176
67093W        W37693  27.126  27.786  11.656
67094W        W37694  37.832  16.407  12.522
67095W        W37695  24.025   9.832   1.687
67096W        W37696   4.073   8.388  12.932
67097W        W37697  24.085   4.921  12.018
67098W        W37698  41.474  19.626  13.576
67099W        W37699  43.813   7.910  11.522
67100W        W37700  41.574  18.981  10.293
67101W        W37701  39.129  39.268  11.059
67102W        W37702  12.347  39.630   1.537
67103W        W37703   8.526  32.162  12.827
67104W        W37704  24.526  40.189   0.146
67105W        W37705  32.897   4.013   0.337
67106W        W37706   5.682  43.265  11.149
67107W        W37707  16.081   5.875   4.561
67108W        W37708  18.538  25.629  12.910
67109W        W37709   9.542  33.517  12.537
67110W        W37710  27.688  14.855   1.758
67111W        W37711  24.911   7.479   2.668
67112W        W37712   0.905  43.365   4.555
67113W        W37713  26.222  30.677   3.673
67114W        W37714  33.020  42.011  11.679
67115W        W37715  15.172   6.748  11.238
67116W        W37716  14.310  29.447  12.520
67117W        W37717   0.117  29.480  11.766
67118W        W37718  43.628  40.580  14.316
67119W        W37719   1.386   6.691  12.940
67120W        W37720  13.074  29.895   2.347
67121W        W37721  16.752  18.503  11.461
67122W        W37722  16.274   4.823   3.517
67123W        W37723  24.535   6.885   1.778
67124W        W37724   3.339  39.837   2.709
67125W        W37725  11.727  34.342  11.166
67126W        W37726   8.455  39.852   0.702
67127W        W37727   8.286  22.522   1.277
67128W        W37728  32.975  30.879  13.845
67129W        W37729   5.537  25.674   4.640
67130W        W37730   3.837   2.927   3.325
67131W        W37731  18.020  22.296   4.225
67132W        W37732   7.380  28.839  10.754
67133W        W37733   4.740   7.736  12.969
67134W        W37734  20.917  42.049   2.223
67135W        W37735  24.661  31.604   2.377
67136W        W37736  16.765  40.025   2.462
67137W        W37737  20.810  17.290  13.927
67138W        W37738  10.393  42.315   0.487
67139W        W37739  29.511  12.885  11.561
67140W        W37740  32.968  27.471   0.895
67141W        W37741  22.687  13.693   3.769
67142W        W37742  36.436  27.997  12.380
67143W        W37743  37.989  41.997  13.430
67144W        W37744  29.050  14.717  14.508
67145W        W37745  13.303  23.293   0.817
67146W        W37746  34.122   0.502  14.448
67147W        W37747  21.883  32.967   3.205
67148W        W37748  42.543   1.273  11.249
67149W        W37749  12.688   2.008  11.391
67150W        W37750  17.301   2.780  14.215
67151W        W37751  16.498  21.827   3.793
67152W        W37752  29.435  40.798   1.736
67153W        W37753  17.564  38.952  10.896
67154W        W37754  12.742  16.345   4.698
67155W        W37755  19.527   0.594  11.093
67156W        W37756  17.578  34.397   3.231
67157W        W37757  20.114  15.821  12.454
67158W        W37758  13.257   5.894   3.433
67159W        W37759  35.641  42.937  13.056
67160W        W37760  27.229  35.402  13.904
67161W        W37761  39.942  28.513   2.609
67162W        W37762  23.822   4.694   0.474
67163W        W37763  40.278  19.453  14.965
67164W        W37764  16.795  19.637  12.881
67165W        W37765   9.114  25.154  11.144
67166W        W37766  44.539   0.262   3.192
67167W        W37767   7.406  41.503   3.250
67168W        W37768  21.674  37.963   1.800
67169W        W37769  41.999  19.519   3.191
67170W        W37770  44.812  43.878  14.537
67171W        W37771  16.873  22.821  11.853
67172W        W37772  42.555  43.851  11.983
67173W        W37773  16.993  10.670  12.863
67174W        W37774   2.204  21.149   4.174
67175W        W37775  36.659  41.798  14.278
67176W        W37776  39.599  13.843  12.690
67177W        W37777  36.957   7.766   4.330
67178W        W37778   9.675  29.387  12.560
67179W        W37779  21.187  30.532  10.890
67180W        W37780  19.065  33.008   1.477
67181W        W37781  44.846   0.466  11.860
67182W        W37782  20.262  39.120  11.181
67183W        W37783  38.592  29.649  11.652
67184W        W37784  27.656   4.207   0.604
67185W        W37785  25.670  16.554   4.529
67186W        W37786  31.534  42.505   4.622
67187W        W37787  18.271   9.603   2.737
67188W        W37788  34.673   0.791  11.485
67189W        W37789  16.557  26.687  14.713
67190W        W37790  42.728  34.470   2.660
67191W        W37791  18.960  19.843  12.485
67192W        W37792  41.754   2.897   3.356
67193W        W37793  35.561   5.259  13.938
67194W        W37794   8.146  11.409  11.569
67195W        W37795  19.569  39.317   4.152
67196W        W37796  42.824  10.407  12.970
67197W        W37797  36.466  14.595  12.838
67198W        W37798  37.777  37.996  12.874
67199W        W37799  35.643  44.002   0.174
67200W        W37800  18.228  24.995  11.086
67201W        W37801  42.160  30.815  14.431
67202W        W37802  29.856  38.608   1.663
67203W        W37803  43.441  36.621  12.110
67204W        W37804  12.054  42.560   4.096
67205W        W37805   8.710  36.401  12.578
67206W        W37806  16.254   0.020  11.698
67207W        W37807   6.162  40.950  12.666
67208W        W37808  10.143  30.692  14.875
67209W        W37809  16.091  20.161   3.189
67210W        W37810   6.460  37.233   4.087
67211W        W37811  44.316  20.775  14.404
67212W        W37812  44.887  20.339   3.826
67213W        W37813  19.403  15.662   2.219
67214W        W37814  13.705  27.430  11.655
67215W        W37815  21.623  33.838   3.642
67216W        W37816   6.792   2.005   0.921
67217W        W37817  18.603   0.499   1.849
67218W        W37818  18.966   0.961   3.146
67219W        W37819  42.315  13.590  11.588
67220W        W37820  17.213  15.624   2.810
67221W        W37821  12.749  44.535  12.843
67222W        W37822  37.471  23.712  12.437
67223W        W37823   4.914  24.019  11.141
67224W        W37824  40.561  23.326   2.934
67225W        W37825   4.447  18.568  11.415
67226W        W37826  24.215  20.094   0.835
67227W        W37827   9.601  20.567   2.489
67228W        W37828  14.631  23.505  14.433
67229W        W37829  19.579  39.812  14.086
67230W        W37830   4.963  38.921  14.827
67231W        W37831  11.069   4.768  13.895
67232W        W37832  34.345  42.639  12.867
67233W        W37833   2.401   5.226  10.997
67234W        W37834  31.393  24.447   0.732
67235W        W37835  23.360   9.038  13.399
67236W        W37836  41.962  33.318  14.059
67237W        W37837   2.877   8.431   3.721
67238W        W37838  30.891  42.745  11.523
67239W        W37839  23.040  24.332   4.580
67240W        W37840   6.702  21.582   0.498
67241W        W37841  20.185  40.004   1.923
67242W        W37842  18.728  33.548  14.359
67243W        W37843  15.296  39.252   0.339
67244W        W37844  14.438   4.509   1.775
67245W        W37845  26.146  22.612   1.731
67246W        W37846  37.231  36.099  12.297
67247W        W37847  43.249  36.066   1.239
67248W        W37848  23.662  11.337   0.385
67249W        W37849  33.553  16.481  11.128
67250W        W37850  32.785  36.595  13.366
67251W        W37851   5.282  40.335  11.437
67252W        W37852  28.492  32.180  11.322
67253W        W37853  28.670   7.174  13.069
67254W        W37854  22.303   6.449   0.468
67255W        W37855  30.982   2.355  14.134
67256W        W37856   7.805  22.402   1.053
67257W        W37857   6.733  28.750   0.570
67258W        W37858  29.107  28.073   1.752
67259W        W37859  26.574   5.248  12.605
67260W        W37860  37.889   9.250  11.219
67261W        W37861   7.107  10.120   4.151
67262W        W37862   8.087   6.301   3.640
67263W        W37863  16.754  11.685  11.998
67264W        W37864   2.144   0.496  13.302
67265W        W37865  28.614  13.134   0.776
67266W        W37866   3.127  37.390   4.938
67267W        W37867  33.357  18.478  12.874
67268W        W37868  40.699  20.220  10.270
67269W        W37869  21.681   8.428  13.347
67270W        W37870  44.043  10.158   4.370
67271W        W37871   8.871  30.542   4.333
67272W        W37872  31.210  29.914  11.112
67273W        W37873  23.157  42.872   4.579
67274W        W37874  25.034  20.338   3.175
67275W        W37875  26.527  29.393   0.776
67276W        W37876   7.941   4.719  12.004
67277W        W37877   6.951  31.412  11.702
67278W        W37878   7.209  15.859  12.070
67279W        W37879  43.095  16.682  14.793
67280W        W37880  22.664  37.035   4.528
67281W        W37881  41.852  40.692  13.292
67282W        W37882  24.337  12.517   4.998
67283W        W37883  31.950  13.296   4.152
67284W        W37884  22.719  30.666   3.625
67285W        W37885  33.726  39.068   1.446
67286W        W37886  17.153  17.159   1.389
67287W        W37887  30.690   7.991  10.831
67288W        W37888  17.010  28.541   1.109
67289W        W37889  36.090  37.135   5.111
67290W        W37890  40.008  44.867  14.521
67291W        W37891  31.993  39.888  14.362
67292W        W37892   3.293   8.931   1.885
67293W        W37893  24.282  18.369   4.218
67294W        W37894  18.292  44.832  12.431
67295W        W37895   3.961  39.018   3.165
67296W        W37896  15.409  30.684   4.083
67297W        W37897  29.455  24.746  11.933
67298W        W37898  11.547  19.204   3.333
67299W        W37899  38.039  33.802   2.761
67300W        W37900   9.684  20.029   2.703
67301W        W37901   0.427  13.704  10.881
67302W        W37902  40.463  26.627   2.245
67303W        W37903  26.502  17.352  10.783
67304W        W37904  42.452  13.594   2.908
67305W        W37905  37.010  41.754   3.190
67306W        W37906  17.452  36.877   0.277
67307W        W37907  23.334  43.870  12.978
67308W        W37908  15.190  12.675   1.224
67309W        W37909  26.201   3.858  12.083
67310W        W37910  25.976   5.960  13.442
67311W        W37911   0.510   8.874   3.804
67312W        W37912  13.261  24.956   3.764
67313W        W37913  29.502   6.807  12.374
67314W        W37914  34.987  16.774  14.769
67315W        W37915  19.586  23.063  12.659
67316W        W37916  38.054  22.626   0.366
67317W        W37917  13.313   8.895  12.570
67318W        W37918   0.486  21.140   2.285
67319W        W37919  15.650  39.621   2.597
67320W        W37920   8.213  33.548   0.678
67321W        W37921  33.432  35.921  14.899
67322W        W37922  31.683  14.299  14.817
67323W        W37923  11.097  12.761   4.517
67324W        W37924  39.269   1.301  13.334
67325W        W37925  10.973  42.270   5.216
67326W        W37926   8.268  41.787  14.978
67327W        W37927  37.794  40.963   4.813
67328W        W37928   5.275   7.782  12.829
67329W        W37929   3.177   9.201  12.280
67330W        W37930  30.947  32.136  14.420
67331W        W37931  25.483   2.201   0.891
67332W        W37932  41.392  42.261   0.795
67333W        W37933  16.561   2.285  14.315
67334W        W37934  38.398  34.690  13.434
67335W        W37935   8.396  26.708  10.059
67336W        W37936  29.412  31.439  13.420
67337W        W37937   8.253  25.527  11.479
67338W        W37938   7.646  28.092   3.159
67339W        W37939   5.224  41.810   2.443
67340W        W37940  30.674  34.133   4.198
67341W        W37941  23.219  29.058   2.340
67342W        W37942  18.831  30.129  10.691
67343W        W37943  19.975  10.109  13.156
67344W        W37944  31.573  38.810  12.813
67345W        W37945  30.411  20.747  11.470
67346W        W37946  36.738  38.586   4.654
67347W        W37947  11.611   9.793   3.796
67348W        W37948   1.390  10.338  11.177
67349W        W37949  10.894  26.162  14.010
67350W        W37950  11.160   8.013   3.099
67351W        W37951  20.643  29.177   3.505
67352W        W37952   8.513  17.119  10.798
67353W        W37953  29.485   9.833   2.728
67354W        W37954   9.800  38.831  11.441
67355W        W37955  44.308  34.410  11.026
67356W        W37956  26.763  25.742   2.710
67357W        W37957  30.032  11.135  12.973
67358W        W37958  23.537   5.866   3.058
67359W        W37959   2.792  17.492   0.989
67360W        W37960  18.767  32.188  14.818
67361W        W37961  40.770  20.601   3.070
67362W        W37962  42.842  35.769   1.425
67363W        W37963  29.344  32.168   3.193
67364W        W37964  37.833  41.054   3.642
67365W        W37965  22.025  25.576  12.423
67366W        W37966  16.047  20.117  14.781
67367W        W37967  13.660   3.158  12.558
67368W        W37968  32.090  31.066  12.302
67369W        W37969  34.292  19.243  14.249
67370W        W37970   6.110  35.473   3.122
67371W        W37971  28.013  11.371  11.669
67372W        W37972  24.239  19.692  13.894
67373W        W37973  35.463  40.037  10.759
67374W        W37974  11.380  34.974  12.421
67375W        W37975  19.218  29.190   2.714
67376W        W37976   4.321   4.228  13.033
67377W        W37977  15.408  23.950  14.304
67378W        W37978  33.011   7.501  13.877
67379W        W37979  17.665  20.979  13.895
67380W        W37980  12.274  15.636  13.138
67381W        W37981   5.863  42.020   3.700
67382W        W37982  33.096  32.670   3.250
67383W        W37983   8.252  21.465   0.464
67384W        W37984   3.660  30.551  12.094
67385W        W37985  32.594  41.858  11.429
67386W        W37986  18.436   9.252  14.716
67387W        W37987  20.081  23.430  10.975
67388W        W37988  42.338   8.248  12.138
67389W        W37989  12.407  15.143   0.330
67390W        W37990  37.492  18.519   3.665
67391W        W37991  22.222  12.283   3.627
67392W        W37992  28.467  14.774   4.357
67393W        W37993   8.413  31.338  12.418
67394W        W37994  41.989  15.252   0.840
67395W        W37995  28.538  29.267  10.073
67396W        W37996  44.931  12.556  11.993
67397W        W37997  14.119  35.767  11.466
67398W        W37998  40.123   4.879  13.128
67399W        W37999  22.270  32.636  13.913
67400W        W38000  21.601  13.587   0.472
67401W        W38001  16.594  39.553   2.362
67402W        W38002  15.825  18.292  11.108
67403W        W38003  31.151  41.386   1.720
67404W        W38004   8.041  27.633   2.246
67405W        W38005  35.513  41.899  13.039
67406W        W38006  26.353  20.412  14.269
67407W        W38007  31.098   8.456  14.445
67408W        W38008   0.355  32.675  12.144
67409W        W38009  25.920  34.364  13.378
67410W        W38010  31.608   3.647   0.974
67411W        W38011  18.009  12.794   3.813
67412W        W38012  31.611  37.820   2.784
67413W        W38013   2.383  36.356   0.331
67414W        W38014  40.894  36.860   4.462
67415W        W38015  32.791  13.776   2.775
67416W        W38016  25.514  28.563  13.900
67417W        W38017   2.268  23.822   0.943
67418W        W38018  41.566  16.050   2.352
67419W        W38019  11.633  18.867   4.423
67420W        W38020  34.953  41.517  11.555
67421W        W38021  33.816  30.454  10.832
67422W        W38022  42.713  21.799   2.464
67423W        W38023  41.575  23.865   0.808
67424W        W38024  32.222  31.164   0.464
67425W        W38025  16.876  43.326   3.357
67426W        W38026  12.104  37.043  13.025
67427W        W38027  17.533  11.099   2.215
67428W        W38028  10.583  36.882  14.832
67429W        W38029  16.553   2.815  10.445
67430W        W38030  32.980   4.679  11.183
67431W        W38031   6.863  43.228   1.305
67432W        W38032  28.421  37.790  12.428
67433W        W38033  26.682   0.228  12.590
67434W        W38034   0.799   2.662  12.830
67435W        W38035  17.940  33.146  13.907
67436W        W38036  21.363  17.698   0.820
67437W        W38037   1.037  26.928   0.792
67438W        W38038  30.913  44.935   4.735
67439W        W38039   9.412  35.403  14.057
67440W        W38040  24.276  12.849  12.645
67441W        W38041  24.157  38.601   3.438
67442W        W38042  24.609   1.444   4.815
67443W        W38043  29.169  30.616  10.788
67444W        W38044  38.515   5.462  13.877
67445W        W38045  39.262  17.507  12.925
67446W        W38046  18.267   9.403   2.272
67447W        W38047   9.362  33.193   0.964
67448W        W38048  41.708  36.284   4.304
67449W        W38049  32.958  24.017  10.711
67450W        W38050  26.565  15.063  12.050
67451W        W38051  34.516  35.462  10.484
67452W        W38052   7.846  40.565   2.769
67453W        W38053  32.177  17.344   3.204
67454W        W38054  25.630  25.196  10.666
67455W        W38055   9.646  37.519   2.840
67456W        W38056  37.962  12.834   1.892
67457W        W38057  42.741   3.087   1.372
67458W        W38058  36.469  42.789  13.843
67459W        W38059  39.379  44.942   0.995
67460W        W38060  13.061  38.627  11.119
67461W        W38061  29.419   8.290   0.849
67462W        W38062  25.711   2.952  14.729
67463W        W38063  28.985   0.303  12.803
67464W        W38064  30.410  35.356  10.751
67465W        W38065  26.041  26.894  11.385
67466W        W38066  39.468  23.701   3.303
67467W        W38067   0.022  21.998  11.158
67468W        W38068   1.383  11.483   0.817
67469W        W38069  37.846  31.403   0.756
67470W        W38070  34.098  23.157  14.803
67471W        W38071  33.974  26.480   4.482
67472W        W38072  25.477  30.185  12.908
67473W        W38073  27.315  25.116   4.575
67474W        W38074  35.583  22.124  11.204
67475W        W38075  39.310  40.300  11.097
67476W        W38076  41.329  44.544  14.311
67477W        W38077  14.071  10.557  13.114
67478W        W38078  12.713   6.298   1.776
67479W        W38079   9.762   0.874  12.601
67480W        W38080  38.415   4.606  11.410
67481W        W38081  37.248  44.025   4.206
67482W        W38082   4.867  27.553   2.960
67483W        W38083  13.100  27.976   1.291
67484W        W38084  21.236  17.395   0.377
67485W        W38085  31.518   4.292   0.333
67486W        W38086  17.444  32.945  11.572
67487W        W38087  16.674  29.760   2.773
67488W        W38088   5.270  42.985  14.282
67489W        W38089  25.265  36.049  13.853
67490W        W38090   6.757  27.998  10.151
67491W        W38091   1.581  43.002  10.628
67492W        W38092  11.698  35.013   4.745
67493W        W38093  40.011  29.600   4.002
67494W        W38094  13.759   0.717  12.465
67495W        W38095  15.221  22.286  13.897
67496W        W38096  16.324  31.814  13.493
67497W        W38097  37.044  27.930   3.681
67498W        W38098  14.642  34.151  12.942
67499W        W38099  11.370  22.877   0.740
67500W        W38100   1.033  19.777   5.073
67501W        W38101  38.290  15.717   0.438
67502W        W38102  38.258   7.545   2.369
67503W        W38103   8.289  32.575   4.890
67504W        W38104   4.662  38.386  10.217
67505W        W38105   3.261  11.447  11.139
67506W        W38106  31.393   9.379   1.249
67507W        W38107  25.744  23.722  12.668
67508W        W38108  22.577  40.560  11.662
67509W        W38109  16.022   2.953   4.472
67510W        W38110  11.047  21.137  13.366
67511W        W38111  22.304  24.175  12.100
67512W        W38112   3.755  16.338   4.207
67513W        W38113  28.441  34.904  10.401
67514W        W38114  11.193  23.567  10.587
67515W        W38115   3.888   9.614  14.848
67516W        W38116  31.459  13.295  13.094
67517W        W38117  36.467  11.846  10.465
67518W        W38118  40.561   3.996  12.968
67519W        W38119   0.043   0.890   2.813
67520W        W38120  16.616  12.172  11.959
67521W        W38121  32.539   4.729  11.569
67522W        W38122   7.859  28.479   0.418
67523W        W38123   7.698  18.581  11.669
67524W        W38124  22.284  35.557   0.279
67525W        W38125  26.432  16.848   0.161
67526W        W38126  21.366  31.848  12.596
67527W        W38127  28.439  20.301   4.369
67528W        W38128  28.014  39.954   3.706
67529W        W38129   5.878  32.171  11.145
67530W        W38130  19.521   8.894   0.319
67531W        W38131  17.356  22.292  13.107
67532W        W38132  23.877  39.273   5.051
67533W        W38133  41.770  27.559   3.276
67534W        W38134  35.980  16.841   3.645
67535W        W38135  41.407   8.150  14.916
67536W        W38136   2.517  12.315  14.336
67537W        W38137  40.029   5.717  14.539
67538W        W38138  36.763   5.787  14.031
67539W        W38139  32.459  39.833   2.414
67540W        W38140  24.550  41.473   3.633
67541W        W38141  11.218  42.809  14.942
67542W        W38142   3.488   2.198   4.687
67543W        W38143  13.625   1.318   3.641
67544W        W38144   7.731  35.453  12.285
67545W        W38145  39.127  17.517  11.091
67546W        W38146  42.311  43.485   0.325
67547W        W38147  32.498  39.590   0.312
67548W        W38148  42.910  36.109  11.464
67549W        W38149  39.566   2.863   4.080
67550W        W38150   9.994  35.408  12.453
67551W        W38151  38.823  34.799   4.590
67552W        W38152  26.103   4.530  13.491
67553W        W38153  17.779  12.268   3.736
67554W        W38154   5.276   7.924  10.579
67555W        W38155   8.848  13.988  14.031
67556W        W38156  34.446  10.602   3.288
67557W        W38157   9.681  44.808  12.080
67558W        W38158  18.594  12.876  11.196
67559W        W38159  28.926  28.028   0.427
67560W        W38160  33.630  27.157  14.851
67561W        W38161  10.296  31.626   4.652
67562W        W38162  27.776  33.603   1.438
67563W        W38163  17.835  37.503  13.355
67564W        W38164  31.509  41.873  12.435
67565W        W38165   6.656  19.408  12.197
67566W        W38166  41.447  38.740   1.849
67567W        W38167  37.972  43.554   4.100
67568W        W38168  34.097  32.630  14.781
67569W        W38169  42.887   3.913   9.899
67570W        W38170   0.266  21.957   2.643
67571W        W38171  32.011  26.766  11.413
67572W        W38172  28.957  36.054   0.242
67573W        W38173  44.418  28.612   3.733
67574W        W38174  34.495  22.081  14.763
67575W        W38175  28.926   0.219   4.623
67576W        W38176   1.963  22.961  10.921
67577W        W38177  15.349  28.248   3.391
67578W        W38178  21.686  19.554   1.691
67579W        W38179  28.501  16.476  13.103
67580W        W38180  28.941  31.412   1.284
67581W        W38181   6.383  35.559  12.156
67582W        W38182   5.247  35.700   4.109
67583W        W38183   7.504   8.324  11.545
67584W        W38184   7.661  16.797  13.925
67585W        W38185   7.352  31.075   1.339
67586W        W38186  29.075  18.479  14.611
67587W        W38187  28.641  24.582  13.353
67588W        W38188  13.958  27.143   1.977
67589W        W38189  27.067  27.615   4.522
67590W        W38190  21.184   8.839   2.117
67591W        W38191  43.184  32.134  11.930
67592W        W38192  15.227  40.530   4.781
67593W        W38193  41.925  11.274  14.718
67594W        W38194  41.318  35.883  12.358
67595W        W38195  10.736  41.302  12.445
67596W        W38196  39.799  42.410   0.980
67597W        W38197  21.270  35.495   3.666
67598W        W38198  44.616  35.482  14.414
67599W        W38199  19.594  36.659  13.931
67600W        W38200  40.432  44.408   1.541
67601W        W38201  13.291   1.582  11.150
67602W        W38202   0.161  12.623   4.029
67603W        W38203  42.348  15.278   3.099
67604W        W38204  40.267   3.253  12.546
67605W        W38205  31.407  37.618  11.067
67606W        W38206  19.824  18.542  12.908
67607W        W38207  12.002  27.654  13.874
67608W        W38208  42.148  22.692   0.508
67609W        W38209  12.563   3.712   0.977
67610W        W38210  35.046  27.669  12.373
67611W        W38211  18.719  31.924  10.254
67612W        W38212  18.583   2.656  10.571
67613W        W38213  37.355  41.160   3.892
67614W        W38214  19.330  43.801  11.924
67615W        W38215   2.000  15.192   3.663
67616W        W38216  28.626  41.060  14.499
67617W        W38217  19.206   8.731  14.925
67618W        W38218  33.298  11.928   2.070
67619W        W38219  40.389  22.616   1.722
67620W        W38220  16.475   8.603  13.396
67621W        W38221  14.730  28.889  14.483
67622W        W38222  38.327  40.551  12.587
67623W        W38223  41.054  31.193   4.594
67624W        W38224  44.749  39.461   2.277
67625W        W38225  10.356  25.464  12.568
67626W        W38226   2.455  14.334   3.684
67627W        W38227  14.240  11.424  12.567
67628W        W38228  18.220  27.540   4.882
67629W        W38229  43.795  30.436  12.200
67630W        W38230  22.159  29.618   1.162
67631W        W38231  30.628  39.041   1.791
67632W        W38232   4.737  37.359   4.556
67633W        W38233  19.647   7.314  13.670
67634W        W38234  42.665  21.045  10.711
67635W        W38235  16.182  28.634  13.306
67636W        W38236  16.858  19.837   1.217
67637W        W38237  12.907  14.181  13.935
67638W        W38238  35.874  38.538   0.904
67639W        W38239  20.711  42.544   2.835
67640W        W38240  29.245  13.220   4.611
67641W        W38241   2.447  43.192  10.327
67642W        W38242  32.816  42.023  14.799
67643W        W38243   8.795  39.915  13.785
67644W        W38244  27.011  36.679  11.562
67645W        W38245  28.600   8.183  12.363
67646W        W38246  21.555  36.640  11.200
67647W        W38247  23.678  26.735   1.308
67648W        W38248  43.817  37.590   2.129
67649W        W38249  39.302  32.840   0.394
67650W        W38250  13.096  32.026   0.829
67651W        W38251  44.404  40.507   4.873
67652W        W38252  12.203  18.579  12.585
67653W        W38253  20.159  14.330   1.441
67654W        W38254  26.702   6.232   3.061
67655W        W38255  33.493  16.665   0.619
67656W        W38256  21.787   1.741  14.799
67657W        W38257   3.009  18.601   4.518
67658W        W38258   5.687  44.309  14.854
67659W        W38259   2.903  10.350  11.555
67660W        W38260   8.546  29.197  13.153
67661W        W38261  20.970  42.164   4.760
67662W        W38262  36.789  42.665  11.519
67663W        W38263  37.305  40.951   3.440
67664W        W38264   3.645  26.771   4.116
67665W        W38265  21.572  35.525   3.220
67666W        W38266  38.353   5.875   4.150
67667W        W38267  26.546  36.583  14.196
67668W        W38268  31.593  23.224   4.787
67669W        W38269  24.907   7.011  12.393
67670W        W38270  21.642   2.822  13.912
67671W        W38271  35.434   4.728  11.137
67672W        W38272   7.481  35.557   0.467
67673W        W38273   8.655  18.592  14.382
67674W        W38274  27.258  23.917  13.343
67675W        W38275  13.363  28.746  14.414
67676W        W38276  12.305  31.186  12.569
67677W        W38277   4.920   9.508  11.977
67678W        W38278  40.541  26.147  11.721
67679W        W38279   9.906  40.587   1.799
67680W        W38280  16.809  20.811   2.686
67681W        W38281  15.150   3.019   3.085
67682W        W38282  14.542  39.094   3.206
67683W        W38283   0.561  28.074  13.504
67684W        W38284  10.519   0.301   0.205
67685W        W38285  18.284  24.728   1.445
67686W        W38286  21.611  35.581   1.870
67687W        W38287  15.697   3.081   2.812
67688W        W38288  40.272  33.083   0.497
67689W        W38289   0.284  41.953  11.649
67690W        W38290  20.620  31.992   3.350
67691W        W38291  44.580  25.625   0.121
67692W        W38292  43.070  40.493  13.610
67693W        W38293  41.422  38.907   9.846
67694W        W38294   4.351  36.612  14.393
67695W        W38295  14.028  20.149   5.126
67696W        W38296   0.246  29.917   4.541
67697W        W38297  22.418  30.705  14.792
67698W        W38298   4.975   5.688   1.712
67699W        W38299  21.039  30.579   0.837
67700W        W38300  18.081  22.583   2.070
67701W        W38301  19.795  25.403  10.391
67702W        W38302  23.157  38.165  13.877
67703W        W38303   0.745  29.691  13.844
67704W        W38304   1.036   8.645  10.782
67705W        W38305  37.859  37.400   3.750
67706W        W38306  44.326  41.578  14.075
67707W        W38307  21.633  41.049  11.559
67708W        W38308  11.690  29.427   4.563
67709W        W38309  18.737  10.715   1.828
67710W        W38310  32.133  16.840   2.366
67711W        W38311   4.309  44.752   1.847
67712W        W38312  39.096  12.370  12.041
67713W        W38313  29.731  31.609   4.832
67714W        W38314  16.570   9.852  14.710
67715W        W38315   8.462   3.221  11.119
67716W        W38316  30.493  43.702   2.535
67717W        W38317   0.481  33.524   2.297
67718W        W38318  18.140   5.395   3.333
67719W        W38319  11.846   5.996  13.102
67720W        W38320   4.235   7.346   2.191
67721W        W38321  27.564  28.522   3.330
67722W        W38322  39.403  13.637  13.964
67723W        W38323  22.716  25.081  13.084
67724W        W38324  10.716  34.078  14.319
67725W        W38325  11.638  28.363  11.492
67726W        W38326  42.332   8.585  13.043
67727W        W38327  20.659  25.571  13.899
67728W        W38328  16.351  25.150  14.466
67729W        W38329  16.101  26.098   1.386
67730W        W38330   4.092  42.088   1.046
67731W        W38331  36.382  41.236  12.458
67732W        W38332  17.729  13.289  14.323
67733W        W38333   1.395  13.144  10.635
67734W        W38334  14.159  21.505  12.404
67735W        W38335  15.057  14.004   3.054
67736W        W38336  14.354   1.480   1.290
67737W        W38337   5.175  21.076   3.848
67738W        W38338  10.581  17.238   4.918
67739W        W38339   1.251  38.391  14.445
67740W        W38340  41.010  44.365  12.552
67741W        W38341   1.506   9.363  10.961
67742W        W38342  36.224  27.421   1.277
67743W        W38343  32.026  13.057   4.603
67744W        W38344   7.120  40.589  11.499
67745W        W38345  29.041  21.309   2.971
67746W        W38346  20.658   7.138  12.882
67747W        W38347  13.553  11.359  11.891
67748W        W38348  41.847  36.446  14.328
67749W        W38349  29.871  15.619  13.773
67750W        W38350  19.264  10.885   2.653
67751W        W38351  33.455  10.691   1.193
67752W        W38352  29.899  13.420   4.079
67753W        W38353   0.922  14.670   2.197
67754W        W38354  25.813   1.859  12.869
67755W        W38355  28.488  30.056   4.626
67756W        W38356  39.537  42.513   0.535
67757W        W38357  32.584  23.991  14.290
67758W        W38358   3.515   3.456   2.405
67759W        W38359  32.137  19.264  14.871
67760W        W38360   7.464  16.231   1.861
67761W        W38361  26.161  19.597  10.726
67762W        W38362  37.993  42.235  13.883
67763W        W38363  33.463  32.743   3.619
67764W        W38364  22.692  28.092   0.977
67765W        W38365   9.015  16.126   4.184
67766W        W38366   7.806   2.390  10.719
67767W        W38367   3.323  38.282  10.616
67768W        W38368   3.128  31.541  14.089
67769W        W38369  25.708  24.149  13.941
67770W        W38370   1.242  31.874   2.126
67771W        W38371  12.764  35.041  11.659
67772W        W38372  27.068  40.458  11.460
67773W        W38373  40.603  14.156   1.803
67774W        W38374   1.507  21.860  13.402
67775W        W38375   9.268  35.071  14.407
67776W        W38376  35.177   8.211   3.338
67777W        W38377  12.783  37.165   4.654
67778W        W38378   4.654  26.695   2.704
67779W        W38379  36.975  27.057  13.098
67780W        W38380  21.488  14.560   1.854
67781W        W38381   9.121  13.175  14.010
67782W        W38382   9.842  26.944   0.717
67783W        W38383  14.732  17.387   0.012
67784W        W38384  31.901  38.134  12.883
67785W        W38385  26.603  34.847   2.454
67786W        W38386  23.560  31.835   4.156
67787W        W38387  20.266   6.211  11.937
67788W        W38388  30.035  25.691   0.372
67789W        W38389  22.390  14.609  14.806
67790W        W38390   3.746   6.733   2.795
67791W        W38391   0.247  41.427  13.086
67792W        W38392  18.599  12.972   3.120
67793W        W38393  30.676  30.512  12.384
67794W        W38394   7.291  26.048  10.671
67795W        W38395   3.226   0.431   2.222
67796W        W38396  21.193  32.646  12.522
67797W        W38397   7.141  31.290  11.177
67798W        W38398   6.277  12.206  14.553
67799W        W38399  11.422   7.156  14.907
67800W        W38400  38.193   0.223   3.316
67801W        W38401   3.799  43.508  13.996
67802W        W38402  31.365  25.592   1.829
67803W        W38403  43.146  28.258  13.452
67804W        W38404   3.960   0.861  13.537
67805W        W38405  21.042  14.802   1.795
67806W        W38406   0.792  30.132   3.793
67807W        W38407  30.903   6.338  11.733
67808W        W38408  23.441  33.462   4.732
67809W        W38409  32.506  40.459  13.667
67810W        W38410  12.766   0.354   3.317
67811W        W38411  13.266   3.829   4.428
67812W        W38412  29.203   7.865   4.165
67813W        W38413  35.973  44.523  10.667
67814W        W38414  29.392  43.009  12.896
67815W        W38415  20.317  24.203   1.459
67816W        W38416   8.286   3.438   1.274
67817W        W38417   3.383  40.907  12.570
67818W        W38418  27.979  23.185   1.679
67819W        W38419   3.532   2.321   3.814
67820W        W38420  27.364  11.687  10.701
67821W        W38421  18.727   3.323  14.844
67822W        W38422  17.025  18.647   3.891
67823W        W38423  25.078  43.083  14.375
67824W        W38424  15.512  28.089  11.415
67825W        W38425  28.210  20.792   2.220
67826W        W38426  35.050   7.979   1.788
67827W        W38427   1.890  41.104   4.578
67828W        W38428  34.795  25.009  12.047
67829W        W38429  13.822  15.023  12.864
67830W        W38430  28.030  17.335   3.624
67831W        W38431  15.595  36.949   2.051
67832W        W38432  44.768  22.140   0.769
67833W        W38433  11.780  13.298   4.552
67834W        W38434  28.118  34.495  10.279
67835W        W38435  34.870  18.666   1.636
67836W        W38436  18.027  37.023   1.784
67837W        W38437   9.840  17.767  14.070
67838W        W38438   8.190  15.290  12.467
67839W        W38439  13.933  38.566   1.853
67840W        W38440  11.923  36.324   4.398
67841W        W38441  35.161   1.830   4.910
67842W        W38442  18.001  32.627  13.908
67843W        W38443   2.635  40.541  13.049
67844W        W38444  37.795  25.637   2.298
67845W        W38445   5.251  18.663  10.473
67846W        W38446  31.312   5.277  11.177
67847W        W38447  35.548  19.774  11.936
67848W        W38448  22.163   3.375   3.661
67849W        W38449  33.882  26.756  13.563
67850W        W38450  42.823  26.168  14.402
67851W        W38451  35.459  39.097   2.100
67852W        W38452   1.895  25.050   3.355
67853W        W38453   6.415  43.495  13.546
67854W        W38454   7.701  37.062  13.363
67855W        W38455  39.162  31.318  13.727
67856W        W38456  31.982  12.644   1.937
67857W        W38457  41.646  29.170   0.787
67858W        W38458  32.784  38.325  11.546
67859W        W38459  11.575   0.252   2.612
67860W        W38460  29.583  31.966   4.491
67861W        W38461  32.486  26.011   0.666
67862W        W38462  38.407   0.349  10.899
67863W        W38463  28.997   8.887  12.812
67864W        W38464  13.593  28.190   4.439
67865W        W38465   3.864   0.440   0.863
67866W        W38466  16.825  13.321  10.331
67867W        W38467   1.865  32.122  13.191
67868W        W38468   3.811   6.688   1.170
67869W        W38469  36.652  21.973   3.529
67870W        W38470  42.038  31.231   4.742
67871W        W38471  13.498   2.684  11.627
67872W        W38472   9.244  41.565  10.978
67873W        W38473  13.828   8.312  10.561
67874W        W38474  22.518  10.161  12.113
67875W        W38475  21.823  22.825   1.837
67876W        W38476   0.178  39.880   3.343
67877W        W38477   3.957  40.775   1.129
67878W        W38478  20.806  44.895  11.996
67879W        W38479   4.912  37.824  13.963
67880W        W38480  17.228  44.966   4.229
67881W        W38481   8.610   1.798   3.123
67882W        W38482  32.865  20.218  13.428
67883W        W38483   8.350   1.326   3.578
67884W        W38484   3.688   3.449  13.491
67885W        W38485   7.892  40.261   4.220
67886W        W38486  14.595  11.778   0.988
67887W        W38487  30.472  16.572  14.488
67888W        W38488  43.603  24.415  11.136
67889W        W38489   5.383  29.511  10.675
67890W        W38490   0.981  26.439   3.126
67891W        W38491  11.192  23.982   3.226
67892W        W38492   2.868   8.610   1.858
67893W        W38493   0.984  34.607   1.875
67894W        W38494  43.921  17.094  14.885
67895W        W38495  24.464  18.708  13.154
67896W        W38496   6.231   5.203  12.367
67897W        W38497  41.967  10.765  14.004
67898W        W38498  41.784  26.144  13.880
67899W        W38499  19.602  38.485  13.655
67900W        W38500   5.242   6.767   2.854
67901W        W38501  29.568  25.042  12.377
67902W        W38502   3.371  33.919   2.768
67903W        W38503  33.972  12.427  13.849
67904W        W38504   3.723  44.057   2.269
67905W        W38505  18.144  36.034  12.591
67906W        W38506  17.610   3.950  13.492
67907W        W38507  36.907  33.633   1.407
67908W        W38508  36.552  22.482   2.200
67909W        W38509  29.578  37.406   2.716
67910W        W38510  29.339   7.866  11.065
67911W        W38511   9.900   0.734   3.717
67912W        W38512  38.481   3.744  10.661
67913W        W38513  28.079   1.755   1.237
67914W        W38514   8.237  40.523   3.903
67915W        W38515  25.780  11.142  12.664
67916W        W38516  21.141   9.713   4.589
67917W        W38517  35.887   7.384   4.146
67918W        W38518  35.448  19.299  11.821
67919W        W38519  30.381   8.822  12.028
67920W        W38520   9.878  11.256   1.732
67921W        W38521  10.174   0.414   1.123
67922W        W38522  15.006  40.105   5.020
67923W        W38523  18.145  14.866  13.415
67924W        W38524  24.825  38.844  12.778
67925W        W38525  43.846  19.672  11.484
67926W        W38526   2.846   7.095   1.976
67927W        W38527  36.860  41.901   0.548
67928W        W38528  12.741  25.906   3.287
67929W        W38529  22.377  41.877  13.352
67930W        W38530  34.892  44.412   1.257
67931W        W38531  32.197  41.488   0.875
67932W        W38532  19.063   7.817  11.760
67933W        W38533  15.254  22.762  12.962
67934W        W38534  20.110   2.683  11.132
67935W        W38535  25.162  27.183   2.368
67936W        W38536   7.608  37.597   3.241
67937W        W38537  17.861  25.401  11.070
67938W        W38538  28.469  44.022  12.004
67939W        W38539  19.787  23.769   3.601
67940W        W38540   9.399   7.440  13.635
67941W        W38541   4.180   0.108   3.702
67942W        W38542  19.621  23.040  10.368
67943W        W38543   0.630  35.479  14.487
67944W        W38544  11.894   0.855  11.624
67945W        W38545  38.230  31.138  12.650
67946W        W38546   9.253  19.444   4.553
67947W        W38547  44.898  15.642  14.238
67948W        W38548  37.754  40.852  11.227
67949W        W38549  34.095  29.588   1.507
67950W        W38550  28.060  32.416  14.088
67951W        W38551   5.756  14.620   2.773
67952W        W38552  39.488  32.124   1.790
67953W        W38553  11.705   1.823   0.488
67954W        W38554  37.675  43.758  14.072
67955W        W38555  21.829   0.801   1.499
67956W        W38556  30.881  10.803   3.652
67957W        W38557   3.395  30.564  13.905
67958W        W38558  24.581   3.848   3.864
67959W        W38559  11.336   0.432  13.883
67960W        W38560   0.243  40.428  14.045
67961W        W38561  21.196  27.269   0.876
67962W        W38562  24.192  26.426  14.388
67963W        W38563  43.639  38.458   1.727
67964W        W38564  13.736  24.672  10.641
67965W        W38565  15.042   1.175  14.286
67966W        W38566   5.985  33.421   4.206
67967W        W38567  37.825  19.611  14.653
67968W        W38568  39.391  22.560  10.368
67969W        W38569  21.910   9.964  14.433
67970W        W38570  35.993  25.180   3.812
67971W        W38571  25.237  22.608  13.416
67972W        W38572  20.759  31.539  12.946
67973W        W38573  44.986  37.779  12.114
67974W        W38574  16.653  42.381  11.573
67975W        W38575  21.642  22.276  14.700
67976W        W38576  30.697   0.736   0.251
67977W        W38577  21.961  17.145  11.405
67978W        W38578   8.157  27.190  13.918
67979W        W38579  31.553   6.862   1.197
67980W        W38580  21.209   6.413  14.254
67981W        W38581   4.582   9.125  11.921
67982W        W38582  31.789  35.872  11.467
67983W        W38583  43.529  16.055  10.649
67984W        W38584  43.443  31.032  14.359
67985W        W38585   6.250  41.401  10.589
67986W        W38586   6.937  13.859   1.946
67987W        W38587  42.943  25.655  11.620
67988W        W38588   7.592  43.310  10.784
67989W        W38589   7.044  16.374  12.015
67990W        W38590  10.160  14.159   4.347
67991W        W38591  36.169  19.442   4.216
67992W        W38592  38.026  25.264   2.685
67993W        W38593  41.630  16.816  12.944
67994W        W38594  22.006  17.071   2.306
67995W        W38595  11.780  26.729   2.191
67996W        W38596  34.372  32.070  14.077
67997W        W38597  37.612  26.526  14.447
67998W        W38598  29.444  23.916   1.647
67999W        W38599  25.157  23.428   4.150
68000W        W38600   6.427  34.331  14.792
68001W        W38601   7.419  21.122  11.213
68002W        W38602  44.817  14.330   4.996
68003W        W38603   4.424  35.274  13.529
68004W        W38604  33.082  38.694   4.592
68005W        W38605   2.507  42.436  13.252
68006W        W38606  16.210  42.907   3.541
68007W        W38607  11.339  38.816   4.408
68008W        W38608  14.849  18.669   4.696
68009W        W38609   0.367  26.421  10.958
68010W        W38610  28.460  40.123   2.176
68011W        W38611  25.586  43.458  11.300
68012W        W38612  11.613  11.211  13.059
68013W        W38613  26.624  36.623   2.652
68014W        W38614  29.974  33.612   3.213
68015W        W38615  24.419   5.253   0.373
68016W        W38616  24.518  25.983   2.194
68017W        W38617  17.309  21.949   1.451
68018W        W38618  13.186  10.669  11.556
68019W        W38619  27.889  11.826  11.515
68020W        W38620  15.233  21.151  14.682
68021W        W38621  24.000  20.573   1.051
68022W        W38622  37.833  28.172  10.424
68023W        W38623  31.161   5.533  14.728
68024W        W38624  28.117  26.884   1.833
68025W        W38625  40.257   3.128  11.027
68026W        W38626  13.463  11.158  12.353
68027W        W38627  44.713  30.064  11.126
68028W        W38628  42.813   2.264  11.121
68029W        W38629  25.945  29.711   2.287
68030W        W38630  44.973  38.450  14.874
68031W        W38631   3.754  12.685   1.710
68032W        W38632  28.667  41.630   3.352
68033W        W38633  43.409  36.796  12.600
68034W        W38634  44.716  37.523   4.584
68035W        W38635  36.565  44.449  11.926
68036W        W38636   8.454   6.666   3.755
68037W        W38637  11.990   9.089   0.840
68038W        W38638  34.684  30.961   1.862
68039W        W38639  33.670  22.188  12.914
68040W        W38640  18.599  31.913  13.901
68041W        W38641   7.925  25.612   3.254
68042W        W38642  30.080   0.406   0.122
68043W        W38643  33.233   5.471   2.161
68044W        W38644  44.487  10.843   4.892
68045W        W38645  10.318  10.767  10.639
68046W        W38646  22.050   5.701  10.684
68047W        W38647  19.776   4.397  14.918
68048W        W38648   6.604  22.198  11.631
68049W        W38649   3.729  38.836   3.601
68050W        W38650  33.018  23.848  12.212
68051W        W38651   6.853   2.024  14.886
68052W        W38652  26.034  32.275  13.899
68053W        W38653  39.302  19.062   1.172
68054W        W38654  42.825  10.161  11.632
68055W        W38655  18.015  41.089  11.197
68056W        W38656   5.896  34.857  10.914
68057W        W38657  27.917  28.698  13.825
68058W        W38658  13.213  30.087  10.610
68059W        W38659  25.549  12.806  10.730
68060W        W38660   9.363  18.933   1.824
68061W        W38661   7.080  43.750   3.252
68062W        W38662  16.304  24.172  10.163
68063W        W38663  18.319  28.996   4.311
68064W        W38664  24.305  38.410   4.554
68065W        W38665  15.538  16.792  11.520
68066W        W38666  34.558  12.090   3.326
68067W        W38667  37.925  11.113  13.168
68068W        W38668   7.216  14.673   3.724
68069W        W38669   1.391   7.405  11.717
68070W        W38670  24.443  33.871   1.715
68071W        W38671  35.727  40.020   3.318
68072W        W38672  12.283   2.813   2.806
68073W        W38673  21.685  26.753   2.787
68074W        W38674   8.764  23.966   0.445
68075W        W38675   0.745   6.317   1.178
68076W        W38676  28.555  16.757  14.625
68077W        W38677  24.028  12.696  10.715
68078W        W38678   6.167  32.506  12.887
68079W        W38679   8.810  40.388   4.183
68080W        W38680  24.442  19.805  13.426
68081W        W38681  37.048  43.990  11.083
68082W        W38682  20.036  17.850  11.574
68083W        W38683  26.024   8.932  14.446
68084W        W38684  38.709  16.489   4.051
68085W        W38685  13.342  15.327   4.514
68086W        W38686  39.481   1.447  11.659
68087W        W38687  31.005  43.457  14.441
68088W        W38688  15.807  44.703   2.758
68089W        W38689  36.020  41.732  13.455
68090W        W38690   0.483   5.046  10.498
68091W        W38691  30.083  24.263  12.008
68092W        W38692  21.666  32.419   5.103
68093W        W38693  11.694   3.143  12.643
68094W        W38694  26.995  10.703  13.332
68095W        W38695  24.282  38.596  11.075
68096W        W38696  31.067  21.303   2.345
68097W        W38697   1.389  14.112  11.435
68098W        W38698   6.954  29.704  11.079
68099W        W38699  19.109  23.954  14.010
68100W        W38700  38.867  20.588  14.967
68101W        W38701   6.264  23.873   1.995
68102W        W38702  41.862  43.949  11.106
68103W        W38703  29.524   9.626  12.532
68104W        W38704  40.476  28.239   4.090
68105W        W38705  36.565  40.440  12.102
68106W        W38706  36.515   2.350  10.784
68107W        W38707  23.851  36.557   4.186
68108W        W38708   9.865  44.912   2.254
68109W        W38709  15.576  14.659  13.081
68110W        W38710  42.218  14.943  10.728
68111W        W38711  32.067  31.848  14.085
68112W        W38712  25.922   3.915  13.492
68113W        W38713  27.008  40.267   3.847
68114W        W38714  20.628   6.647  13.097
68115W        W38715  43.717  38.853  13.411
68116W        W38716   9.802  12.339   2.451
68117W        W38717   1.507  38.597  14.036
68118W        W38718  32.337  41.862  14.848
68119W        W38719  13.349  39.898  13.714
68120W        W38720  41.822   3.942  14.467
68121W        W38721   7.888  10.816   4.083
68122W        W38722   4.814  11.068   3.209
68123W        W38723  27.663  10.551  11.150
68124W        W38724   4.311  27.482  13.582
68125W        W38725  37.659  17.435   4.231
68126W        W38726  16.191  34.644  14.786
68127W        W38727  20.124  12.710  14.613
68128W        W38728  40.729  31.427  14.868
68129W        W38729   6.460  24.058  11.906
68130W        W38730  10.585  13.351   0.746
68131W        W38731  28.123  19.682   3.825
68132W        W38732   8.337  31.549   1.880
68133W        W38733  20.041   9.842  14.519
68134W        W38734   6.003   4.403  12.021
68135W        W38735  11.778  40.566   3.220
68136W        W38736  42.925  18.988   3.107
68137W        W38737  14.182   9.120   3.493
68138W        W38738  15.865   6.773   4.298
68139W        W38739  33.632  25.121  11.274
68140W        W38740  35.024  29.736   1.455
68141W        W38741  10.304  10.281   0.902
68142W        W38742  34.192  32.610  13.403
68143W        W38743  41.222  34.102  13.137
68144W        W38744   4.402  40.607  12.919
68145W        W38745  40.735  44.267   3.351
68146W        W38746  32.680  36.471   0.400
68147W        W38747  44.072  19.950   1.904
68148W        W38748  15.613  31.431   0.081
68149W        W38749   3.696  31.928  10.111
68150W        W38750  22.639   8.005   3.162
68151W        W38751  33.681  30.397  10.331
68152W        W38752  33.552  24.702   3.203
68153W        W38753  25.950   2.900   4.217
68154W        W38754  31.898  16.967   4.887
68155W        W38755  41.410  36.099  11.488
68156W        W38756   7.186  11.201  13.687
68157W        W38757   7.365  30.248   4.629
68158W        W38758  23.045   4.818   1.771
68159W        W38759   9.544  27.072   4.544
68160W        W38760  37.875  35.862   1.319
68161W        W38761  11.207  10.948   4.115
68162W        W38762  13.815  43.408  11.472
68163W        W38763   3.845  43.446  11.196
68164W        W38764  22.501  26.492  14.941
68165W        W38765  15.776  29.054  14.720
68166W        W38766  29.303  44.984  14.484
68167W        W38767   4.311  44.212   1.852
68168W        W38768  29.829  13.810  11.171
68169W        W38769   2.084  10.901  14.352
68170W        W38770  35.104  20.132   3.656
68171W        W38771  33.115  29.458  14.277
68172W        W38772   3.747  40.336   3.734
68173W        W38773  25.323  29.919  11.437
68174W        W38774  41.600  36.210   0.222
68175W        W38775   6.886  44.890  13.940
68176W        W38776  17.482  16.623   4.339
68177W        W38777  29.536  21.657   1.436
68178W        W38778  22.212   6.669   3.247
68179W        W38779  43.207  15.729  12.386
68180W        W38780  21.961  23.646  11.428
68181W        W38781  17.114  31.136   1.884
68182W        W38782  10.841  36.918   0.279
68183W        W38783  27.985  28.563  14.769
68184W        W38784  34.376   6.724   4.055
68185W        W38785   7.113  34.870   3.154
68186W        W38786   2.537   5.350   3.395
68187W        W38787  32.498  17.408   4.850
68188W        W38788  38.523   3.267  13.034
68189W        W38789  38.406  18.838   3.773
68190W        W38790   0.318  33.951  12.602
68191W        W38791  11.803  38.401   3.768
68192W        W38792   5.947  27.490  13.465
68193W        W38793   3.897  19.861  11.680
68194W        W38794  13.105  31.512   3.453
68195W        W38795   0.286  37.766   3.332
68196W        W38796  24.066  28.169  11.520
68197W        W38797   5.320  16.773   3.918
68198W        W38798  25.469  43.281   3.747
68199W        W38799  27.265   0.795  12.648
68200W        W38800  39.734   6.006  11.148
68201W        W38801  22.588  11.113   2.840
68202W        W38802  39.285  36.180  11.551
68203W        W38803  28.469   7.120   4.660
68204W        W38804  31.614  23.542   2.214
68205W        W38805  11.271   6.233  11.501
68206W        W38806  32.712  23.147   2.053
68207W        W38807  19.531  30.003   3.741
68208W        W38808   8.960  38.461   3.178
68209W        W38809  12.168  34.860   1.475
68210W        W38810  19.698  11.418   0.285
68211W        W38811   0.517  27.942   1.981
68212W        W38812  16.377  16.278  11.013
68213W        W38813  41.569   4.135  14.911
68214W        W38814  36.016  15.392  10.695
68215W        W38815  24.135  22.401   3.128
68216W        W38816   8.151   5.189  11.184
68217W        W38817   5.481  37.341   1.811
68218W        W38818  26.632  40.219  11.582
68219W        W38819   7.219   2.916  11.719
68220W        W38820  42.066  10.774  12.008
68221W        W38821  35.054  35.667   0.918
68222W        W38822  13.369   0.997  14.786
68223W        W38823   0.649  42.011   3.294
68224W        W38824  31.885  24.098   5.054
68225W        W38825  17.995  31.584  12.051
68226W        W38826  41.700  27.060   3.087
68227W        W38827  36.674  32.237   4.159
68228W        W38828   8.893  36.597   2.818
68229W        W38829   0.932  37.144   0.592
68230W        W38830   3.277  12.714   1.911
68231W        W38831  20.546  12.676   0.533
68232W        W38832  32.997   6.972  11.646
68233W        W38833  20.329   7.078   0.512
68234W        W38834  29.913   3.718  12.222
68235W        W38835  43.500  18.447  11.845
68236W        W38836  13.176  30.036  12.016
68237W        W38837   7.832  42.849  10.884
68238W        W38838  34.145  10.142  13.511
68239W        W38839  42.341   2.843   2.213
68240W        W38840  15.271  38.236   0.603
68241W        W38841  18.455  15.635  10.723
68242W        W38842  21.712  16.595  13.404
68243W        W38843  44.830   3.982   3.128
68244W        W38844  29.512  10.889  10.841
68245W        W38845  32.583  28.645   4.619
68246W        W38846  34.100  14.039   2.598
68247W        W38847  25.933  36.068  12.377
68248W        W38848  33.641  11.698   3.313
68249W        W38849  22.331  19.579   3.176
68250W        W38850  35.615   0.711  14.474
68251W        W38851   6.227  30.443   0.332
68252W        W38852  18.170   8.089   0.927
68253W        W38853  11.072   9.765   4.815
68254W        W38854  35.069   4.355   3.586
68255W        W38855  37.687   7.806   5.091
68256W        W38856  29.440  29.608  13.146
68257W        W38857  25.009  18.588   3.666
68258W        W38858   5.653   8.716  13.899
68259W        W38859   1.737   3.036  12.002
68260W        W38860  14.032   5.222  13.367
68261W        W38861   3.319  39.895   4.442
68262W        W38862  20.705   4.660  11.868
68263W        W38863  36.126  30.982   1.400
68264W        W38864  14.248   1.192   3.109
68265W        W38865  15.923  41.542   4.863
68266W        W38866   8.005  39.464  12.957
68267W        W38867  24.748  14.732   1.837
68268W        W38868  22.133   8.138  11.525
68269W        W38869   2.405   6.895   1.781
68270W        W38870   9.075   1.847   3.345
68271W        W38871   6.214   5.839  14.343
68272W        W38872  44.282  25.509  14.706
68273W        W38873  31.401   3.451   0.250
68274W        W38874   8.681  12.457   1.936
68275W        W38875  10.818  38.426  10.568
68276W        W38876   3.736   0.773  14.497
68277W        W38877  44.305  37.744   2.294
68278W        W38878  26.846  36.913   0.560
68279W        W38879  26.566  12.636   4.133
68280W        W38880  14.869  42.891   2.282
68281W        W38881  16.525  28.737   4.316
68282W        W38882  25.024   9.152  13.497
68283W        W38883   5.135  12.100  11.652
68284W        W38884  29.862   3.152   0.562
68285W        W38885  11.134  39.338   3.299
68286W        W38886  30.968  23.560   0.700
68287W        W38887  10.121  15.033   1.233
68288W        W38888  36.340  42.047   1.744
68289W        W38889  15.318   3.389  14.730
68290W        W38890   9.837   3.088   1.451
68291W        W38891  28.907   7.554  12.120
68292W        W38892  44.840   0.741   4.101
68293W        W38893  18.997   4.466   1.000
68294W        W38894  28.545  39.985   3.537
68295W        W38895  32.496  35.198   1.163
68296W        W38896  31.412  33.368  13.451
68297W        W38897  21.744  12.545   0.389
68298W        W38898   0.874   8.882  10.318
68299W        W38899   5.393  30.101  14.925
68300W        W38900  13.730  25.173  13.516
68301W        W38901  26.925  10.843  13.816
68302W        W38902  42.963  38.812   2.454
68303W        W38903  44.951  31.652  11.542
68304W        W38904   2.391   7.207   2.220
68305W        W38905  20.339  32.859  10.878
68306W        W38906  41.413  39.246   1.919
68307W        W38907   4.547  27.269  10.791
68308W        W38908  20.698  23.215   4.112
68309W        W38909  10.259  16.853   1.237
68310W        W38910  23.599  20.106  11.536
68311W        W38911  35.407  37.343   0.633
68312W        W38912  25.751  17.853   1.871
68313W        W38913  44.799  27.392  14.049
68314W        W38914   0.930  20.259  11.143
68315W        W38915  39.806  40.262   1.717
68316W        W38916  25.198  29.052  13.399
68317W        W38917  38.371  19.557  14.731
68318W        W38918   5.206  21.577   3.727
68319W        W38919  36.871  15.782  13.064
68320W        W38920  34.124   8.021  13.742
68321W        W38921   7.163  34.371  12.060
68322W        W38922   7.842   9.428   2.945
68323W        W38923  15.884   8.442   2.808
68324W        W38924  24.746   8.412   1.852
68325W        W38925  10.833  21.133  14.215
68326W        W38926  32.369  16.459  10.671
68327W        W38927  30.911  41.493   3.826
68328W        W38928  15.520  37.316  13.479
68329W        W38929  23.180  37.459  10.990
68330W        W38930  15.155  36.748  13.332
68331W        W38931  24.933  33.662  11.007
68332W        W38932  42.866  28.668  11.608
68333W        W38933   2.850  13.907   1.621
68334W        W38934  16.030  34.116  12.288
68335W        W38935  24.192  43.329  12.676
68336W        W38936  43.374   7.811   1.340
68337W        W38937  37.924  24.799   3.624
68338W        W38938   7.341  31.851  12.453
68339W        W38939  10.163  12.612   3.200
68340W        W38940   8.739   0.296   4.050
68341W        W38941   8.742   9.360   4.423
68342W        W38942  33.132  29.931  11.069
68343W        W38943  41.469  24.272   0.485
68344W        W38944  13.232  28.195   3.592
68345W        W38945   2.312  35.380   2.827
68346W        W38946   5.941  33.436  13.281
68347W        W38947  18.079   0.009   2.911
68348W        W38948  23.785  30.433  13.502
68349W        W38949  13.446   7.896   3.615
68350W        W38950  21.181  25.199  13.024
68351W        W38951  30.609   7.117   3.617
68352W        W38952  23.581  32.515  11.090
68353W        W38953  39.648  35.471  10.763
68354W        W38954  43.544  18.802   2.285
68355W        W38955  41.787  29.120  14.953
68356W        W38956   6.814  32.740  11.616
68357W        W38957  18.304   6.868   4.460
68358W        W38958  28.134  26.581   3.091
68359W        W38959  31.080  27.433  11.199
68360W        W38960   4.760  40.388  12.620
68361W        W38961  18.910   8.950   5.065
68362W        W38962  44.356  18.767  10.628
68363W        W38963  37.918  14.199   1.688
68364W        W38964  41.362  37.336  12.426
68365W        W38965  22.570  37.503  10.836
68366W        W38966  26.612   5.625   3.254
68367W        W38967  34.100   0.306  12.811
68368W        W38968  33.077  37.834   1.405
68369W        W38969  20.712  18.250   0.270
68370W        W38970  26.728  26.421   0.681
68371W        W38971  40.218   8.729  11.421
68372W        W38972  14.651  27.208   0.736
68373W        W38973  10.392  26.048   2.223
68374W        W38974  41.056   6.590  12.402
68375W        W38975  21.150  34.081   3.762
68376W        W38976   7.501  24.622   1.259
68377W        W38977  35.447   3.173   2.913
68378W        W38978  17.666  34.534  12.588
68379W        W38979   0.513  20.058   0.703
68380W        W38980  12.636  34.589  13.475
68381W        W38981   1.753   1.832   3.737
68382W        W38982  12.567  18.502   2.090
68383W        W38983  43.095  16.170   0.872
68384W        W38984  29.817  44.182  11.167
68385W        W38985  29.499  36.065   0.079
68386W        W38986  34.982  16.827   0.796
68387W        W38987  40.976  40.838   0.965
68388W        W38988   1.044  32.567   3.312
68389W        W38989  13.334  29.681   3.719
68390W        W38990   2.262  43.934   4.609
68391W        W38991  20.069  37.120   1.831
68392W        W38992   2.668   3.797  13.128
68393W        W38993  31.331   5.466   3.999
68394W        W38994   1.742  21.119  10.647
68395W        W38995  11.969   2.357   1.051
68396W        W38996  30.492  13.760  12.565
68397W        W38997  18.687  13.595  10.739
68398W        W38998  12.668   6.784   0.910
68399W        W38999  24.088  23.999  14.926
68400W        W39000  34.026  34.256   3.235
68401W        W39001  11.648  23.997  14.058
68402W        W39002  35.944  40.919   3.887
68403W        W39003  18.661  28.484   9.828
68404W        W39004   2.763  23.846   0.366
68405W        W39005  28.671  11.932   2.642
68406W        W39006  28.975  38.365  11.158
68407W        W39007  42.074  29.095  14.481
68408W        W39008  29.923  29.635  11.258
68409W        W39009  26.474  18.142   0.239
68410W        W39010  30.163  14.384   3.243
68411W        W39011   8.821  13.673  14.436
68412W        W39012  13.864  33.208   0.504
68413W        W39013  25.065  26.271   3.207
68414W        W39014  12.847  15.787   2.898
68415W        W39015  39.908   9.580  12.181
68416W        W39016   3.720  15.240   4.025
68417W        W39017  21.253   7.250   1.288
68418W        W39018  39.894   1.576   2.805
68419W        W39019  14.808  16.762  12.108
68420W        W39020  27.735  44.905   2.238
68421W        W39021  41.035  14.520  13.976
68422W        W39022   6.375   4.174   3.299
68423W        W39023  37.833  17.645   3.799
68424W        W39024  43.888  13.203   2.874
68425W        W39025  13.861  41.283  12.070
68426W        W39026  29.334  38.489   1.696
68427W        W39027   8.764  19.421   0.019
68428W        W39028   6.068  35.141  12.497
68429W        W39029  30.064  10.999  13.500
68430W        W39030  35.395  36.507  13.050
68431W        W39031   4.818  12.162   1.188
68432W        W39032  29.973  22.668   1.667
68433W        W39033  25.992   0.762   0.941
68434W        W39034   9.444  43.362  11.117
68435W        W39035  39.902  36.299   3.337
68436W        W39036  37.106  15.629  11.580
68437W        W39037  26.693  37.701   4.802
68438W        W39038   3.904  38.718  12.518
68439W        W39039  29.765  10.208   0.774
68440W        W39040  23.498   0.972   0.742
68441W        W39041  14.786  23.371  12.623
68442W        W39042  24.941  20.014   0.030
68443W        W39043  35.266   0.140  12.576
68444W        W39044  40.373  25.077  14.379
68445W        W39045   4.855  24.994   3.383
68446W        W39046   4.317  44.085  11.853
68447W        W39047  41.083  31.715  14.582
68448W        W39048   0.817  41.351   0.812
68449W        W39049   3.476  14.268  14.214
68450W        W39050  26.285   7.889  12.110
68451W        W39051  12.465  14.792   1.269
68452W        W39052  30.255   5.048  11.162
68453W        W39053  11.836   1.558   2.467
68454W        W39054  25.220  19.451   3.161
68455W        W39055   9.780  23.683   3.802
68456W        W39056  28.133  44.177   0.932
68457W        W39057   6.709  14.096  12.424
68458W        W39058  38.820  28.899   3.840
68459W        W39059  30.066  34.698  14.316
68460W        W39060  23.119  14.191   2.229
68461W        W39061  18.555   1.787  11.076
68462W        W39062  34.708  14.706   4.659
68463W        W39063   8.975  30.989  14.462
68464W        W39064   3.780  33.918  11.460
68465W        W39065  37.085  35.907   1.710
68466W        W39066   1.166  44.473   4.207
68467W        W39067  43.823  23.101  12.556
68468W        W39068  29.388  41.842   2.689
68469W        W39069   0.426  31.408  12.421
68470W        W39070  14.565  43.411   3.881
68471W        W39071  34.703  22.072   4.592
68472W        W39072  16.985  32.097  12.475
68473W        W39073  35.678  14.728  11.134
68474W        W39074  33.476   7.194  10.104
68475W        W39075  16.294   3.349  10.747
68476W        W39076  41.264  27.655   4.189
68477W        W39077  15.808  39.442   1.778
68478W        W39078  37.015   3.807  11.481
68479W        W39079  12.522  17.330   3.850
68480W        W39080  24.969  11.263   0.802
68481W        W39081  39.968  19.034  14.291
68482W        W39082  13.690  26.899   0.920
68483W        W39083   2.155  37.508   9.869
68484W        W39084  36.977  35.394   3.757
68485W        W39085   6.303   4.711  12.309
68486W        W39086  10.383  33.038   0.788
68487W        W39087  30.116   5.259   1.730
68488W        W39088   0.508  43.377  11.024
68489W        W39089  32.423  31.348  10.965
68490W        W39090  21.441  10.413   2.137
68491W        W39091  14.533  23.796   9.897
68492W        W39092  30.914  31.010   1.642
68493W        W39093   5.811  39.386   3.870
68494W        W39094  29.637  15.793  10.286
68495W        W39095  41.061   0.961  11.698
68496W        W39096  13.598  17.725   3.185
68497W        W39097  40.460  39.323   3.314
68498W        W39098   5.254  12.662  12.821
68499W        W39099  30.028   8.346   4.509
68500W        W39100  28.568  23.520   2.329
68501W        W39101  37.988  25.585  11.125
68502W        W39102   9.435  33.382  13.494
68503W        W39103   0.768  40.817   4.773
68504W        W39104   5.353  35.166   2.262
68505W        W39105  30.862  11.302  12.395
68506W        W39106  32.159  41.737   0.347
68507W        W39107  36.338   9.407  12.422
68508W        W39108  30.531  32.600  13.078
68509W        W39109  29.494   5.922   3.096
68510W        W39110  33.415  35.881   4.511
68511W        W39111  29.907  22.049  14.484
68512W        W39112  42.595  33.981   1.207
68513W        W39113  43.247  26.478  11.935
68514W        W39114   3.088  19.058   0.203
68515W        W39115  26.008  30.961  10.488
68516W        W39116  32.245  39.437  14.189
68517W        W39117  29.923   9.226  11.599
68518W        W39118  40.897  17.113  10.466
68519W        W39119  42.456  29.319   2.737
68520W        W39120  21.646   0.327  12.531
68521W        W39121  11.794  30.485  10.771
68522W        W39122  10.938  35.495   4.129
68523W        W39123  26.159  19.958   0.970
68524W        W39124  41.568   3.634  11.821
68525W        W39125  26.408   6.186   1.526
68526W        W39126  42.457  27.904   4.623
68527W        W39127   1.700   3.411  10.739
68528W        W39128  25.546  38.924   4.497
68529W        W39129  20.259  14.750   3.092
68530W        W39130  18.909   4.830  12.962
68531W        W39131   3.221  12.547  10.677
68532W        W39132  19.773  41.108   0.557
68533W        W39133   8.880   4.371  11.985
68534W        W39134  19.996   7.573   0.312
68535W        W39135  37.651  34.910  12.833
68536W        W39136  17.608  12.205  12.865
68537W        W39137  40.345  15.415  11.577
68538W        W39138  30.689  21.521  14.381
68539W        W39139  29.163   2.797   4.185
68540W        W39140  10.353  38.181  10.599
68541W        W39141   2.448  14.232  13.282
68542W        W39142  10.404   1.610  11.591
68543W        W39143  27.034  14.602  11.413
68544W        W39144  12.988   7.284   2.685
68545W        W39145  24.500  37.007   0.937
68546W        W39146  38.460  40.396   3.416
68547W        W39147  14.001  41.034  13.088
68548W        W39148  25.533  41.788   0.480
68549W        W39149  15.298  20.487   1.760
68550W        W39150  23.210   2.983  11.707
68551W        W39151  31.498  40.111   1.143
68552W        W39152  30.413  35.567  14.883
68553W        W39153  25.562  20.734  14.957
68554W        W39154  14.084  34.558   2.661
68555W        W39155  18.953  15.746  11.598
68556W        W39156  11.178  14.520   1.742
68557W        W39157  36.906  29.675   1.722
68558W        W39158  24.960  25.479  10.716
68559W        W39159  13.760  30.472   0.134
68560W        W39160  32.537  43.106   3.579
68561W        W39161  37.776  10.738   3.855
68562W        W39162  10.245  19.506  14.012
68563W        W39163  12.822  23.128   4.374
68564W        W39164  36.815   1.205   0.144
68565W        W39165  11.279   7.598  10.938
68566W        W39166  25.574  24.366  13.467
68567W        W39167  11.312   5.213  13.784
68568W        W39168  44.588   5.515   0.067
68569W        W39169   0.930  36.403   2.337
68570W        W39170  36.358  22.219   3.188
68571W        W39171  33.231  26.387   2.718
68572W        W39172  37.916  22.218  11.424
68573W        W39173  44.722   6.321  10.449
68574W        W39174  25.670  14.169  12.323
68575W        W39175   8.209  30.363   2.193
68576W        W39176  41.356  14.570  14.390
68577W        W39177  13.618  31.803   1.423
68578W        W39178   4.328  17.215  11.188
68579W        W39179  38.656  31.091  12.371
68580W        W39180  22.654  41.696   5.021
68581W        W39181  12.813  31.832  14.955
68582W        W39182   0.418   1.387  14.016
68583W        W39183   8.675  10.059  14.820
68584W        W39184  20.922   6.213   0.328
68585W        W39185  22.470   6.403  11.037
68586W        W39186  34.041  10.756  12.441
68587W        W39187  38.291  36.675  13.416
68588W        W39188  24.910  18.139   0.292
68589W        W39189  34.466  14.752   1.325
68590W        W39190  11.553  25.480  14.538
68591W        W39191  14.416  36.913   3.855
68592W        W39192  14.577  14.082   0.467
68593W        W39193  42.010  15.624   0.484
68594W        W39194  21.252   9.775   0.488
68595W        W39195  15.457  11.037  10.687
68596W        W39196  11.629  39.724  11.648
68597W        W39197  31.780  29.909  14.309
68598W        W39198  43.319  25.394   4.706
68599W        W39199  32.467  36.927   4.161
68600W        W39200  26.999   2.669   4.309
68601W        W39201   4.207  28.069   0.962
68602W        W39202  18.628  11.598   1.375
68603W        W39203  19.237  44.303   0.009
68604W        W39204  17.987   8.903   1.167
68605W        W39205  41.511  15.598  14.544
68606W        W39206  42.824   9.774   2.401
68607W        W39207  13.446  38.773   4.204
68608W        W39208   1.215  32.128  12.643
68609W        W39209  36.847  25.783  14.370
68610W        W39210  18.043  20.547  13.013
68611W        W39211  17.061   3.055  13.307
68612W        W39212  34.094   0.767   2.172
68613W        W39213  22.752  43.435  12.470
68614W        W39214  33.735   5.367   2.266
68615W        W39215  39.781  24.539   2.800
68616W        W39216  21.531  13.277  12.326
68617W        W39217  18.136  12.074  10.391
68618W        W39218  15.658  29.586   0.932
68619W        W39219  29.572  19.158  11.615
68620W        W39220  11.114  37.049   2.781
68621W        W39221  12.165   9.907  12.789
68622W        W39222  36.413  39.701  13.372
68623W        W39223  12.097   2.825   1.460
68624W        W39224  44.104   8.422   1.284
68625W        W39225   1.254  18.834   0.931
68626W        W39226  41.674   1.639  14.976
68627W        W39227   1.791  18.408   4.604
68628W        W39228  13.176   9.075  11.531
68629W        W39229  29.504   7.272   1.062
68630W        W39230  19.353  37.903   1.338
68631W        W39231  36.891   5.734  11.825
68632W        W39232  19.309  14.321  13.460
68633W        W39233  25.062  15.286   1.407
68634W        W39234  10.138  12.831   1.391
68635W        W39235   9.407  41.290  14.834
68636W        W39236  23.741  24.747   3.617
68637W        W39237  21.557  21.601  12.951
68638W        W39238  27.976  27.440   1.134
68639W        W39239   1.022   3.931  13.372
68640W        W39240   5.529   6.309   2.136
68641W        W39241  32.016  37.919  14.197
68642W        W39242  25.550  10.497   3.080
68643W        W39243  26.101   7.431   4.565
68644W        W39244   4.942  19.158  11.474
68645W        W39245  44.305  39.430  10.159
68646W        W39246  41.943  34.818   4.931
68647W        W39247  33.073  12.627  13.848
68648W        W39248   7.942   0.732   2.858
68649W        W39249  25.494  21.530   1.301
68650W        W39250  40.814   7.067  12.422
68651W        W39251  30.213  31.804   5.219
68652W        W39252  43.474  20.753  13.356
68653W        W39253  31.624  20.933   1.789
68654W        W39254  28.556  19.108  13.108
68655W        W39255   2.297  35.553   3.319
68656W        W39256  33.690  41.016  14.377
68657W        W39257  21.164  22.992   3.182
68658W        W39258  43.894   1.918  12.992
68659W        W39259  34.118  31.576  11.919
68660W        W39260  38.806  23.683  13.441
68661W        W39261   5.175  13.097   4.623
68662W        W39262  22.815  35.085   4.543
68663W        W39263  35.631   9.649   2.056
68664W        W39264  21.640  21.536   4.813
68665W        W39265  25.497   9.946  13.526
68666W        W39266  24.175  18.006  11.093
68667W        W39267   0.375  44.943  11.629
68668W        W39268   5.191  33.451  12.873
68669W        W39269  37.867   3.762   2.256
68670W        W39270  41.101  12.199  12.886
68671W        W39271  17.725  43.945   1.399
68672W        W39272  21.756  12.278   3.406
68673W        W39273  18.196  26.979  12.501
68674W        W39274  23.920  11.836   2.620
68675W        W39275  12.600   6.321  14.853
68676W        W39276  35.859   1.355  14.368
68677W        W39277  21.315  41.956   0.742
68678W        W39278   6.369   8.240  12.896
68679W        W39279  29.139  27.050   1.807
68680W        W39280   2.725   2.945  11.173
68681W        W39281  31.590  38.541  13.672
68682W        W39282   5.312  32.097   1.323
68683W        W39283   8.871  39.978  11.462
68684W        W39284   9.728  40.312   3.611
68685W        W39285  37.859  42.823   3.756
68686W        W39286  27.382  43.354   0.684
68687W        W39287   8.872  41.745  13.879
68688W        W39288  33.542  26.409  12.880
68689W        W39289  40.666  13.261  11.834
68690W        W39290  23.731  43.327   0.713
68691W        W39291   8.339  39.966  14.000
68692W        W39292  37.419   1.473  13.292
68693W        W39293  44.326  36.390   3.918
68694W        W39294  33.936  40.964   3.251
68695W        W39295  44.920  38.589  10.199
68696W        W39296   6.991  37.317   3.943
68697W        W39297  11.482  30.787   0.833
68698W        W39298   7.837  40.352  13.055
68699W        W39299  29.679  26.953  12.913
68700W        W39300   5.236  30.401   4.737
68701W        W39301  21.240   8.002  12.474
68702W        W39302   9.839  25.516  13.303
68703W        W39303  34.097  32.586   2.303
68704W        W39304  34.667  42.740   2.587
68705W        W39305  16.063  11.647   2.858
68706W        W39306  35.849   2.161  12.805
68707W        W39307  12.227  35.310  10.673
68708W        W39308  28.603  44.927  11.891
68709W        W39309  15.812  10.112   3.201
68710W        W39310  32.460  37.961   1.176
68711W        W39311  12.585  40.075  11.672
68712W        W39312   6.625  13.794  11.570
68713W        W39313  23.741  38.049  12.987
68714W        W39314  16.824  23.164   1.219
68715W        W39315  11.783  27.186  10.685
68716W        W39316  21.224  43.065  11.141
68717W        W39317  35.601  19.568   2.444
68718W        W39318  22.224   0.224   1.713
68719W        W39319   3.519  38.246   1.955
68720W        W39320  29.508  39.862   0.465
68721W        W39321  12.258   1.967  11.672
68722W        W39322   1.807  41.062   2.454
68723W        W39323   6.722  40.022   0.353
68724W        W39324   3.309   8.873  14.031
68725W        W39325   9.429  13.058   1.278
68726W        W39326  24.795   8.543   3.213
68727W        W39327  28.138  14.567   1.836
68728W        W39328   8.730  44.007  13.388
68729W        W39329  14.284  31.550   4.418
68730W        W39330  40.406  41.888   3.684
68731W        W39331  36.695  39.925  12.112
68732W        W39332  30.336  11.292  12.530
68733W        W39333  43.829  37.869   4.372
68734W        W39334  36.011  22.142  13.630
68735W        W39335  11.869  44.880  11.466
68736W        W39336  33.138  27.455  12.381
68737W        W39337  16.084  40.997   0.227
68738W        W39338  22.389   3.409   3.219
68739W        W39339   9.792   0.445   4.166
68740W        W39340  34.476  20.934   3.715
68741W        W39341  11.374  15.721  13.048
68742W        W39342  27.035  33.012   4.321
68743W        W39343  22.680  40.728   4.193
68744W        W39344  13.144  44.903   1.350
68745W        W39345   5.913   0.815  11.668
68746W        W39346  26.460  24.809  13.811
68747W        W39347  27.860  25.953  14.275
68748W        W39348  24.163  38.104  11.215
68749W        W39349  15.772  27.065   4.259
68750W        W39350  10.210   7.178   2.321
68751W        W39351  11.124   4.153   3.839
68752W        W39352   3.007  21.137   1.555
68753W        W39353  20.292  23.221  14.314
68754W        W39354   3.985  17.217   4.354
68755W        W39355  42.341  20.566  14.310
68756W        W39356  14.135  42.850   3.400
68757W        W39357  40.048  14.784   2.355
68758W        W39358  28.869  24.549   0.279
68759W        W39359  14.761  30.684   2.166
68760W        W39360  27.532   0.500   4.571
68761W        W39361  25.997  15.357   0.345
68762W        W39362  32.346  10.254   2.545
68763W        W39363  40.935  19.084   3.696
68764W        W39364  17.048  17.324   1.915
68765W        W39365  31.181  33.806   0.223
68766W        W39366   3.204   1.200   0.943
68767W        W39367  19.673  19.602  11.349
68768W        W39368  28.617  33.095  10.873
68769W        W39369   4.384   3.109   4.220
68770W        W39370  42.719  20.935   4.038
68771W        W39371  29.970  18.287   1.281
68772W        W39372   0.276  32.552  14.936
68773W        W39373  13.305  31.314   0.290
68774W        W39374  37.965  15.122  12.171
68775W        W39375  13.180  34.426  11.124
68776W        W39376  14.258  20.986   0.774
68777W        W39377  39.341  31.280  11.608
68778W        W39378  24.495  22.702   1.190
68779W        W39379  18.746  15.815   3.408
68780W        W39380  36.968   3.412  11.159
68781W        W39381  40.635  34.873   0.966
68782W        W39382  25.137  36.505  10.720
68783W        W39383  26.683  44.863  14.416
68784W        W39384   0.048  28.083  13.548
68785W        W39385  24.706  40.260  12.860
68786W        W39386  24.235  12.701   9.814
68787W        W39387  44.178  29.942   1.380
68788W        W39388  23.512   4.834  14.048
68789W        W39389   7.192  10.088  14.841
68790W        W39390  34.939   5.741   4.677
68791W        W39391  34.105  41.899   2.886
68792W        W39392  22.124  35.498   3.067
68793W        W39393  14.100  29.416   1.481
68794W        W39394  27.917  17.352   1.508
68795W        W39395  32.514  30.945   0.902
68796W        W39396  36.423  12.078   0.438
68797W        W39397  40.411  19.384  12.591
68798W        W39398  16.034  29.480   2.275
68799W        W39399  17.257   1.715   3.640
68800W        W39400  39.445   7.243   2.099
68801W        W39401  10.740   6.627   0.348
68802W        W39402   3.964  36.531  11.532
68803W        W39403  37.086   6.812  14.107
68804W        W39404  28.653  13.243  12.494
68805W        W39405  40.892   9.754  11.186
68806W        W39406   3.266  29.045  12.996
68807W        W39407  13.266   1.439   2.485
68808W        W39408  11.901  32.519  12.296
68809W        W39409  12.204   9.648  12.049
68810W        W39410  39.438  36.636   4.642
68811W        W39411  30.364  38.042   2.214
68812W        W39412  20.972  41.265   1.962
68813W        W39413  43.424  34.946   3.492
68814W        W39414  43.472  11.789  10.907
68815W        W39415   4.707  44.325   0.303
68816W        W39416  19.020   5.385   3.818
68817W        W39417   5.375  34.846   1.871
68818W        W39418  21.328  29.593  14.819
68819W        W39419   3.750   7.130  12.955
68820W        W39420  17.520  42.910   1.837
68821W        W39421  26.471  27.191   2.843
68822W        W39422  14.854  39.448  14.751
68823W        W39423  14.348   7.168  13.603
68824W        W39424   1.018  22.861   1.950
68825W        W39425  43.192  25.602  13.042
68826W        W39426  10.102   4.128  10.419
68827W        W39427  18.298  39.985  13.874
68828W        W39428   5.940  22.069   3.781
68829W        W39429  10.718  28.157   2.622
68830W        W39430  25.930   0.988  14.127
68831W        W39431   6.952  41.101  14.289
68832W        W39432  38.868  38.034   2.454
68833W        W39433  20.771  20.136   4.185
68834W        W39434  31.068  11.268   3.692
68835W        W39435  36.830  41.624   0.991
68836W        W39436  33.126  33.370   1.425
68837W        W39437   3.464  17.361  11.226
68838W        W39438  12.605  15.721   1.429
68839W        W39439  33.358  44.925  11.992
68840W        W39440  33.022   8.924  13.563
68841W        W39441   9.012  16.573  12.487
68842W        W39442  32.562  44.694  11.572
68843W        W39443  28.712  35.820  12.482
68844W        W39444  19.818  10.645  12.377
68845W        W39445  35.412   6.292  11.944
68846W        W39446  43.436  25.491  11.665
68847W        W39447   8.743  22.331  13.669
68848W        W39448  20.001   0.570   4.237
68849W        W39449   0.264  30.567  14.073
68850W        W39450  23.069   1.476   5.021
68851W        W39451  32.392  41.867   1.641
68852W        W39452  31.056  11.804   0.682
68853W        W39453  20.980   8.640   1.663
68854W        W39454   9.960  12.760  12.330
68855W        W39455  14.847  12.229  10.663
68856W        W39456  23.906  18.331   1.056
68857W        W39457  30.901  38.528   2.878
68858W        W39458   3.300  31.032   1.527
68859W        W39459   6.966  43.730  13.070
68860W        W39460  38.368   8.084  10.968
68861W        W39461  22.059  13.853   2.650
68862W        W39462  12.246  39.250   1.940
68863W        W39463  34.755  42.839   5.134
68864W        W39464  32.334  13.363  13.841
68865W        W39465  34.046   6.408   3.791
68866W        W39466   2.290  15.847   3.171
68867W        W39467   8.623   9.470   0.021
68868W        W39468   6.459  39.615  13.379
68869W        W39469  40.460   1.062   5.035
68870W        W39470  16.571   1.445  12.475
68871W        W39471   7.904  17.492  11.030
68872W        W39472  16.142   7.008   2.466
68873W        W39473   2.803  28.738   4.660
68874W        W39474  17.356  41.237   1.312
68875W        W39475  19.001  44.608  11.535
68876W        W39476  34.380  24.537  14.826
68877W        W39477  32.894  21.569  10.750
68878W        W39478  10.769   6.314   2.087
68879W        W39479   6.144  21.263  11.718
68880W        W39480  25.321  18.713  14.443
68881W        W39481  36.529  44.950  14.469
68882W        W39482  25.957  28.215  11.123
68883W        W39483  26.164  24.902   0.039
68884W        W39484  17.848  36.439  13.077
68885W        W39485  39.129  14.244  14.159
68886W        W39486   3.062  19.088   1.494
68887W        W39487  20.611  23.064   3.180
68888W        W39488   3.180  24.240  10.776
68889W        W39489  10.696  38.618  11.028
68890W        W39490  11.178  31.310   4.551
68891W        W39491  31.557   4.878  14.488
68892W        W39492  23.386   8.995   0.787
68893W        W39493   9.152  28.598  10.750
68894W        W39494  19.553  37.485   0.177
68895W        W39495  22.634  19.490  13.766
68896W        W39496  33.279  12.869  13.410
68897W        W39497  38.767  32.465   2.226
68898W        W39498  27.919   5.930   4.296
68899W        W39499  20.312  19.560  10.494
68900W        W39500  25.443  32.700   2.123
68901W        W39501  32.639  24.570  12.806
68902W        W39502  37.763  42.961   3.254
68903W        W39503   0.239  10.002   0.244
68904W        W39504  21.677  22.542   2.286
68905W        W39505  43.833  11.944   1.676
68906W        W39506   6.013  37.612   4.224
68907W        W39507  16.711   3.876   4.551
68908W        W39508   8.976  15.979   1.397
68909W        W39509   3.107  35.222   4.996
68910W        W39510   5.505  16.031   1.193
68911W        W39511  27.409  25.675   3.306
68912W        W39512  18.643   9.709  11.458
68913W        W39513  33.540  29.409   4.620
68914W        W39514  32.970  35.890  12.903
68915W        W39515  44.373  23.955  13.038
68916W        W39516  21.497  26.880   3.646
68917W        W39517  25.495   6.397   3.226
68918W        W39518   2.849  42.240   1.150
68919W        W39519  40.125  39.486  11.055
68920W        W39520   8.135  41.885  11.201
68921W        W39521  41.725  41.141   1.369
68922W        W39522  33.168  31.584   3.179
68923W        W39523  27.612  25.436   4.824
68924W        W39524  11.370  39.906  13.909
68925W        W39525  21.576  10.666  12.370
68926W        W39526  19.325  13.143   0.270
68927W        W39527  11.390   1.019  13.052
68928W        W39528   2.786  21.625   4.827
68929W        W39529  39.007  18.077   0.775
68930W        W39530  15.385  10.820   4.037
68931W        W39531  33.860   5.307   1.412
68932W        W39532   2.716   9.852   0.435
68933W        W39533  31.583  29.467   0.762
68934W        W39534   8.723  43.270  13.913
68935W        W39535  17.269  39.307  11.151
68936W        W39536   6.880   0.719   3.672
68937W        W39537  29.389  37.496   4.705
68938W        W39538  38.565  31.522   1.909
68939W        W39539  14.396  23.476   0.363
68940W        W39540  18.240  13.801  13.792
68941W        W39541   4.908  19.365  14.456
68942W        W39542  22.052  33.055  10.716
68943W        W39543  43.576  31.928  14.612
68944W        W39544   8.747  16.969  13.434
68945W        W39545  39.645   0.125  11.024
68946W        W39546  26.483  13.723  12.382
68947W        W39547  19.516  10.357  10.676
68948W        W39548  10.280  35.670   1.826
68949W        W39549  35.796  38.816  10.631
68950W        W39550  37.542  10.640  11.209
68951W        W39551   7.798  22.229   0.214
68952W        W39552   2.274  25.721  11.534
68953W        W39553  24.319  28.558  14.625
68954W        W39554  19.754   9.842   4.059
68955W        W39555  31.103  14.016   2.173
68956W        W39556  27.428   1.350   0.784
68957W        W39557  16.494  44.240   3.358
68958W        W39558  37.497  18.344  13.481
68959W        W39559  12.636  12.362  12.013
68960W        W39560  43.832  34.541  10.357
68961W        W39561  17.983   3.190   0.741
68962W        W39562  38.059  44.245   0.806
68963W        W39563  35.456  30.418  11.909
68964W        W39564  15.131  17.829  12.394
68965W        W39565  25.147  20.409  14.732
68966W        W39566  35.143  19.726   1.910
68967W        W39567   0.081  14.578  10.839
68968W        W39568  17.195   7.207  12.586
68969W        W39569  15.017  11.812  12.792
68970W        W39570  44.543  17.398  10.306
68971W        W39571  38.365  15.014   1.219
68972W        W39572  34.888  24.788  14.097
68973W        W39573  22.258   0.772  12.456
68974W        W39574  12.434  19.337   2.308
68975W        W39575   4.233  20.053  14.541
68976W        W39576  20.608  42.059  12.848
68977W        W39577   7.358  44.193   3.184
68978W        W39578  25.181  39.971  10.723
68979W        W39579  31.826   5.760  11.607
68980W        W39580  35.038   8.933  10.222
68981W        W39581  32.821  42.993   3.143
68982W        W39582  22.527   6.834  12.854
68983W        W39583   3.406   6.376  10.852
68984W        W39584  38.840   5.761  14.826
68985W        W39585   9.198  19.452  11.039
68986W        W39586  12.740  19.391   4.470
68987W        W39587  38.371  32.069  12.088
68988W        W39588  17.538  27.764  13.621
68989W        W39589  14.296  32.491   0.892
68990W        W39590  19.134  23.173  12.942
68991W        W39591   4.352  19.079   0.664
68992W        W39592  15.755  22.228   3.241
68993W        W39593  38.062  41.994   3.225
68994W        W39594  19.756  35.621   3.748
68995W        W39595  17.879  33.815  14.196
68996W        W39596  44.099   7.393  10.479
68997W        W39597  37.609  39.965   1.975
68998W        W39598  27.006   1.263   2.898
68999W        W39599  38.447   3.483   4.527
69000W        W39600  32.491  42.556   2.167
69001W        W39601  43.376  38.765  11.271
69002W        W39602  30.124   9.462   0.397
69003W        W39603  17.782  44.396   3.933
69004W        W39604  35.566  44.235   2.332
69005W        W39605  37.908  29.629   1.872
69006W        W39606  36.018   2.837   0.768
69007W        W39607  39.292  38.267  12.479
69008W        W39608  38.344   8.796   4.744
69009W        W39609  24.263  16.786  12.782
69010W        W39610  34.600  10.578   2.372
69011W        W39611   0.057  33.432   3.189
69012W        W39612  34.817  23.613   0.249
69013W        W39613  43.945  40.029   2.717
69014W        W39614  19.061   8.840  14.424
69015W        W39615  16.066  17.912  12.454
69016W        W39616  43.278  35.008   2.051
69017W        W39617  27.990   9.764   1.800
69018W        W39618  20.414  40.467   1.844
69019W        W39619   5.164  27.972  10.674
69020W        W39620  23.742  21.017  13.467
69021W        W39621  21.643  18.512   1.733
69022W        W39622  23.495  28.580  10.921
69023W        W39623  33.084  25.268  14.494
69024W        W39624  13.798  44.461  14.765
69025W        W39625   7.455  33.053   0.843
69026W        W39626  21.477   4.688   1.275
69027W        W39627  32.620  41.034  12.968
69028W        W39628  43.854  22.377  12.070
69029W        W39629  24.139   0.225  14.418
69030W        W39630  17.015  30.413   4.196
69031W        W39631  44.245  39.001  12.230
69032W        W39632  40.529  25.491   2.679
69033W        W39633  42.797  27.425   0.747
69034W        W39634  33.947  15.864   0.492
69035W        W39635  16.292  21.721  13.171
69036W        W39636  29.883  19.793   4.195
69037W        W39637  32.055   7.944  11.044
69038W        W39638  36.113  36.934  10.983
69039W        W39639   6.471  17.186  12.088
69040W        W39640  28.032  36.484   3.348
69041W        W39641   6.702  20.506   3.843
69042W        W39642  43.568   1.825  14.065
69043W        W39643  15.690  41.251   2.872
69044W        W39644  16.650   7.434   1.475
69045W        W39645   9.304  44.815   1.237
69046W        W39646  15.720  26.397   3.186
69047W        W39647  36.363  22.194  14.037
69048W        W39648  41.911  17.385   4.285
69049W        W39649  23.652  18.499  11.499
69050W        W39650  18.186  19.623   4.702
69051W        W39651  21.793  28.639   2.917
69052W        W39652  24.318   8.714   4.044
69053W        W39653   9.377  41.038  11.063
69054W        W39654  21.055  14.567  10.305
69055W        W39655  39.761  31.151   4.229
69056W        W39656   3.378  11.087   2.269
69057W        W39657   7.855  16.774   4.954
69058W        W39658  28.520   3.209  13.346
69059W        W39659  26.588  17.309  11.626
69060W        W39660   9.747  13.635   0.473
69061W        W39661  33.961  28.763  13.951
69062W        W39662  12.344  22.042   0.530
69063W        W39663  16.409  18.721  12.101
69064W        W39664  12.192  41.167   3.695
69065W        W39665  33.020  11.050   2.413
69066W        W39666  37.800   7.991   4.579
69067W        W39667  31.716  27.985   0.818
69068W        W39668  14.037   2.852  10.639
69069W        W39669  16.627   5.354  10.907
69070W        W39670  32.786  35.051  12.475
69071W        W39671  18.560  28.544   3.795
69072W        W39672  14.708  17.857  12.058
69073W        W39673  43.346  27.630   4.132
69074W        W39674  22.238  28.650  14.524
69075W        W39675  18.175  17.703   2.762
69076W        W39676  31.807  27.130   2.232
69077W        W39677  23.154   0.442  14.534
69078W        W39678  33.025  14.726   3.035
69079W        W39679  10.577  37.397   0.001
69080W        W39680  31.450  16.861  13.514
69081W        W39681  35.091  32.091  10.795
69082W        W39682  10.457   9.323   3.818
69083W        W39683  16.541  42.949   1.728
69084W        W39684  22.529   8.831  11.142
69085W        W39685   4.408  28.994   4.129
69086W        W39686  39.908  33.995  13.090
69087W        W39687   8.329  14.054  12.432
69088W        W39688   3.796  22.808   3.798
69089W        W39689  41.097  16.286  11.689
69090W        W39690   3.435  44.536  12.506
69091W        W39691   3.214  10.684  13.543
69092W        W39692  29.669  42.940   0.584
69093W        W39693  33.799  16.507   1.032
69094W        W39694  23.106  31.377   0.912
69095W        W39695   3.308   4.021  14.367
69096W        W39696  19.252  32.095  12.137
69097W        W39697   4.437   3.990   4.602
69098W        W39698  17.196  17.603  12.965
69099W        W39699   3.769  32.818   3.919
69100W        W39700  25.929  11.198   1.827
69101W        W39701  21.336   8.024  13.349
69102W        W39702   8.975  38.333  13.347
69103W        W39703  27.788  31.537  10.706
69104W        W39704  29.086  28.403   0.033
69105W        W39705  25.172   7.866   4.517
69106W        W39706  24.523  33.461  10.755
69107W        W39707   1.227  29.516  11.863
69108W        W39708  34.556  30.153   4.763
69109W        W39709  29.627  19.742   2.650
69110W        W39710  27.596  30.963  14.772
69111W        W39711  29.645  42.893  11.975
69112W        W39712  28.666  34.373  13.577
69113W        W39713  37.575   0.488   2.112
69114W        W39714  13.302   7.278   2.261
69115W        W39715  11.585  11.830  12.402
69116W        W39716  25.403  23.091   0.967
69117W        W39717   8.192   4.433   1.735
69118W        W39718  16.651  37.073  11.405
69119W        W39719   9.779   8.743  13.532
69120W        W39720  19.796  41.967   0.014
69121W        W39721  12.700  21.949  11.704
69122W        W39722  13.678  32.102   4.755
69123W        W39723   0.772   3.843   2.904
69124W        W39724  14.376   9.528   3.274
69125W        W39725  12.885   7.225  11.506
69126W        W39726  44.335  29.610  13.827
69127W        W39727  44.268   7.264  12.144
69128W        W39728  27.487  42.028   2.370
69129W        W39729  20.024  17.120   4.160
69130W        W39730  12.386  17.560  10.668
69131W        W39731  16.939  23.506   4.222
69132W        W39732  21.265  13.048  11.968
69133W        W39733  24.515  12.861  10.543
69134W        W39734  39.112  16.835  13.996
69135W        W39735  41.876  29.944  14.699
69136W        W39736   9.763  44.805   0.414
69137W        W39737  38.427  30.663  12.645
69138W        W39738  36.616   1.148   0.697
69139W        W39739  30.429  31.465   2.406
69140W        W39740   3.546  17.153   0.883
69141W        W39741  42.514   6.722  12.040
69142W        W39742  36.417   9.909  14.444
69143W        W39743   6.278   2.720   1.023
69144W        W39744  21.722  27.933  12.049
69145W        W39745  34.991  42.117  13.029
69146W        W39746  23.722  29.103  13.647
69147W        W39747  39.583  32.001  12.379
69148W        W39748  37.016  36.886   2.834
69149W        W39749   1.889  35.091  11.542
69150W        W39750  44.706  28.242  14.378
69151W        W39751  12.234   3.018   3.261
69152W        W39752  30.300  18.075   0.929
69153W        W39753   6.246  34.437   4.047
69154W        W39754  22.747  35.591  13.107
69155W        W39755   4.868  14.088   4.693
69156W        W39756  44.808   0.646  10.561
69157W        W39757  38.044   0.411  13.773
69158W        W39758  37.782  35.582  12.579
69159W        W39759   4.199   2.805  12.935
69160W        W39760  32.422  30.854  11.142
69161W        W39761  21.088  27.709  13.443
69162W        W39762  39.254  29.138   4.062
69163W        W39763  23.717  31.912   1.846
69164W        W39764  20.478   7.171   2.619
69165W        W39765  36.467  26.733   0.739
69166W        W39766  26.000  25.465   0.911
69167W        W39767  44.702  40.824  13.987
69168W        W39768  20.768   3.696  13.367
69169W        W39769   8.719  20.747   4.897
69170W        W39770  18.279   4.795  14.789
69171W        W39771   1.428  29.045  13.555
69172W        W39772  10.280  25.939   1.376
69173W        W39773  35.124  11.291  14.444
69174W        W39774  44.511  24.697  14.288
69175W        W39775  24.833  13.879  11.375
69176W        W39776  32.985  38.455  14.234
69177W        W39777  22.511  33.859   2.126
69178W        W39778  33.758   4.844  13.242
69179W        W39779  32.334  15.095   2.180
69180W        W39780  24.456  25.588  10.656
69181W        W39781  15.844  43.045   0.265
69182W        W39782  41.399   6.859  14.261
69183W        W39783  27.948   6.361   4.641
69184W        W39784  33.400  26.097  10.551
69185W        W39785  24.103  39.371  12.583
69186W        W39786   3.219  17.038  10.921
69187W        W39787  16.134  18.352   4.430
69188W        W39788  16.563  18.010   1.678
69189W        W39789  20.503   8.209   3.543
69190W        W39790  41.824  33.986  13.448
69191W        W39791  15.143  21.204   2.409
69192W        W39792   2.961  20.227  13.378
69193W        W39793   0.776  33.520  10.095
69194W        W39794   1.876  38.990  13.750
69195W        W39795  32.022  44.300   2.786
69196W        W39796  14.080   9.609   3.715
69197W        W39797  43.774   8.215  14.428
69198W        W39798  33.533  29.217  14.865
69199W        W39799  31.102  16.330  12.326
69200W        W39800  24.048   0.901   4.586
69201W        W39801  25.662  30.437  14.298
69202W        W39802   3.574  11.247  12.375
69203W        W39803   9.316  22.669   0.410
69204W        W39804   9.429   8.272  14.029
69205W        W39805  43.144  33.286  10.016
69206W        W39806   7.197  31.761   2.808
69207W        W39807  28.433  29.118  12.545
69208W        W39808   6.292  15.475  12.483
69209W        W39809  41.741  15.446  12.641
69210W        W39810   1.779  10.210   4.182
69211W        W39811  25.161  19.774  11.095
69212W        W39812  25.207  21.048   1.205
69213W        W39813  42.986  39.943  11.151
69214W        W39814  13.374  42.421  14.910
69215W        W39815   7.947  20.786  13.757
69216W        W39816  12.178  37.547   4.119
69217W        W39817  40.275  40.488   0.467
69218W        W39818  28.989  41.058   1.421
69219W        W39819  21.150  39.670  14.273
69220W        W39820  35.421  11.326  12.226
69221W        W39821  21.661  32.951   3.682
69222W        W39822  24.682  42.414  12.664
69223W        W39823   6.683   0.673   3.167
69224W        W39824  17.224   2.972  14.696
69225W        W39825  25.667  44.314  11.960
69226W        W39826   8.821   4.477   4.894
69227W        W39827  35.436  27.243   4.012
69228W        W39828  23.072  26.502  10.797
69229W        W39829  40.724   1.410  14.830
69230W        W39830   1.347  40.253   2.284
69231W        W39831  26.444  14.894  13.574
69232W        W39832  29.789  20.786  14.860
69233W        W39833  40.605  24.211   4.032
69234W        W39834  14.964  10.665  14.665
69235W        W39835  13.192  11.780   1.687
69236W        W39836  23.662  23.438   4.554
69237W        W39837  31.500   9.702  14.297
69238W        W39838  34.616   7.202   1.381
69239W        W39839   6.735  24.459  11.181
69240W        W39840  41.447  25.679   0.081
69241W        W39841   0.662  40.414   5.383
69242W        W39842  23.975   3.910  11.938
69243W        W39843  42.254  29.264  13.072
69244W        W39844   2.786  34.977   0.027
69245W        W39845  26.515  34.615  13.027
69246W        W39846   5.051  43.073  11.553
69247W        W39847   3.194  42.706   1.054
69248W        W39848  23.525  12.080  12.462
69249W        W39849  41.875   1.143  14.875
69250W        W39850  32.881  33.600   3.336
69251W        W39851  22.621   6.177  10.162
69252W        W39852  44.419  23.636   4.608
69253W        W39853   8.646  31.184  14.125
69254W        W39854  17.830  33.982  12.017
69255W        W39855  41.154  27.492  12.981
69256W        W39856   2.467  29.416  11.096
69257W        W39857   7.671  13.067  10.558
69258W        W39858   5.181   3.386   3.325
69259W        W39859   4.605  29.443  11.076
69260W        W39860  26.105  28.084  13.954
69261W        W39861  20.769  42.726   5.152
69262W        W39862  22.894  29.418   4.116
69263W        W39863  32.555  32.617  12.472
69264W        W39864  30.119  17.064   1.797
69265W        W39865  14.737   1.428   4.972
69266W        W39866   1.676   3.446   0.565
69267W        W39867  19.236  28.428   1.632
69268W        W39868  28.663  36.199  14.000
69269W        W39869   9.900   0.370  12.575
69270W        W39870   3.748   7.127  13.881
69271W        W39871  26.495   5.259  13.986
69272W        W39872  18.130  17.854  10.439
69273W        W39873  29.995   4.828  14.925
69274W        W39874  35.709   6.939  14.559
69275W        W39875  40.073  35.310   3.150
69276W        W39876  40.089  44.311  13.048
69277W        W39877  22.172  29.888  14.772
69278W        W39878  17.239  23.945   5.075
69279W        W39879  25.076   7.708   9.957
69280W        W39880  32.600  15.197  10.690
69281W        W39881  44.042  10.608  14.955
69282W        W39882   4.408  30.540  14.082
69283W        W39883  41.521  38.966   2.348
69284W        W39884  20.119  20.270   0.276
69285W        W39885  35.202  14.610   0.738
69286W        W39886  13.491  14.883   0.328
69287W        W39887  13.315  33.046  10.718
69288W        W39888  17.523  11.882  13.278
69289W        W39889  19.201  19.226   3.128
69290W        W39890  39.160   3.343  13.844
69291W        W39891  44.441   0.760   1.913
69292W        W39892  27.177   8.785  11.349
69293W        W39893  30.338  16.895  11.632
69294W        W39894  20.424  33.065  11.906
69295W        W39895   3.356   5.334  13.056
69296W        W39896  38.780  30.846   1.897
69297W        W39897  35.050   3.945   2.272
69298W        W39898  42.361   6.435   0.852
69299W        W39899  13.322  37.915  13.719
69300W        W39900   8.824  17.220   2.236
69301W        W39901  33.685  21.021  12.914
69302W        W39902  35.465  18.786  10.934
69303W        W39903   5.955  40.879   0.443
69304W        W39904  38.309   0.666   0.058
69305W        W39905  42.648  34.571   0.821
69306W        W39906  21.151  12.043   0.827
69307W        W39907  27.941   1.312  13.766
69308W        W39908  44.502  38.486  10.511
69309W        W39909  44.282  12.659  11.548
69310W        W39910  44.292  25.728   2.753
69311W        W39911  11.354  12.248  11.621
69312W        W39912   2.787   0.583  11.009
69313W        W39913   5.825  10.858  12.452
69314W        W39914  42.028  40.482  12.125
69315W        W39915  44.361  16.659   2.167
69316W        W39916  26.898  10.810   3.411
69317W        W39917  19.869  44.829  11.454
69318W        W39918   4.420   4.001  10.949
69319W        W39919   6.325   9.417  11.521
69320W        W39920  37.671  38.782   0.213
69321W        W39921  25.909  19.115  14.372
69322W        W39922  10.097  12.120  13.405
69323W        W39923  43.433  21.685   4.187
69324W        W39924  40.809   2.179  13.484
69325W        W39925  35.043  20.064   2.756
69326W        W39926  34.015  13.668  11.019
69327W        W39927  22.724   2.741  11.929
69328W        W39928  42.274  37.253  13.228
69329W        W39929   4.221  29.140  10.886
69330W        W39930  28.051   7.300   1.008
69331W        W39931  22.212  37.385  12.543
69332W        W39932  38.374  43.447  11.090
69333W        W39933  12.228  43.404  12.159
69334W        W39934  10.698   4.272   0.051
69335W        W39935  23.341  44.734   4.066
69336W        W39936  39.281   0.303  14.329
69337W        W39937   9.485  26.650   1.240
69338W        W39938  37.588  31.002  14.513
69339W        W39939   7.244  20.290  12.483
69340W        W39940  11.554   5.397  10.561
69341W        W39941  22.672  12.608   5.092
69342W        W39942  42.738  19.934  13.280
69343W        W39943  24.512  39.482   1.378
69344W        W39944  18.857  28.134  11.966
69345W        W39945  43.730  20.555   1.860
69346W        W39946  37.864  19.523   1.166
69347W        W39947   9.783  27.184  12.921
69348W        W39948  20.503  32.976   2.714
69349W        W39949  13.088  39.986  10.928
69350W        W39950  10.341  37.099  14.425
69351W        W39951  11.733  43.260  10.700
69352W        W39952   7.726  23.194  10.811
69353W        W39953   3.767  43.460  13.122
69354W        W39954  20.992  22.757   1.411
69355W        W39955  18.619  16.307   2.598
69356W        W39956  32.410  32.878   2.835
69357W        W39957  40.385  40.540   4.767
69358W        W39958   5.240  23.723  12.395
69359W        W39959  24.602   6.109   1.951
69360W        W39960  29.630  20.231   3.269
69361W        W39961  38.624  36.918  13.094
69362W        W39962  42.747  33.625   2.943
69363W        W39963  33.482  20.727   2.314
69364W        W39964  29.552   4.498  12.340
69365W        W39965   8.355   3.732   3.188
69366W        W39966  43.835   7.897   3.244
69367W        W39967  22.806  27.081  12.013
69368W        W39968  35.920  21.515   3.688
69369W        W39969  38.552  37.902  14.009
69370W        W39970  15.850  29.233  12.540
69371W        W39971   3.342   0.354  14.068
69372W        W39972  21.710  38.113   4.233
69373W        W39973  15.110  30.979  13.370
69374W        W39974  24.217  43.451  13.932
69375W        W39975  32.137  20.355  12.899
69376W        W39976  44.349  11.696   2.857
69377W        W39977  28.088  33.587   5.028
69378W        W39978  35.158  25.914   3.898
69379W        W39979  40.053   1.771   1.849
69380W        W39980  14.627  30.176   4.210
69381W        W39981  37.216  26.144  14.388
69382W        W39982   8.290   5.191   3.475
69383W        W39983  29.130  18.833   1.546
69384W        W39984  32.539  30.217   2.343
69385W        W39985  35.950  37.171   3.341
69386W        W39986  32.475   6.741  13.963
69387W        W39987  17.052  43.446   5.133
69388W        W39988   9.750  28.077  14.898
69389W        W39989  36.934  18.806  11.040
69390W        W39990  31.673  38.501   2.332
69391W        W39991  22.566  35.386  12.427
69392W        W39992   9.443  10.028   2.365
69393W        W39993  33.754   3.192  13.643
69394W        W39994  19.775  19.715  12.321
69395W        W39995  13.416  38.463   1.828
69396W        W39996  44.908   1.057   1.939
69397W        W39997  35.918  34.069   2.070
69398W        W39998  31.437  27.875  13.616
69399W        W39999  35.934  32.089  13.662
69400W        W40000   7.350  34.956  14.280
69401W        W40001  16.138  18.784   1.371
69402W        W40002  13.125   1.794   0.248
69403W        W40003   4.951  28.201   0.840
69404W        W40004  28.125  44.929   0.272
69405W        W40005  12.219  12.157   3.221
69406W        W40006  37.458  33.970  12.847
69407W        W40007  22.937  19.083   0.183
69408W        W40008  28.049  36.830  12.998
69409W        W40009  17.228  41.820   3.615
69410W        W40010  23.591  23.532   1.677
69411W        W40011  23.197  25.017  10.710
69412W        W40012  17.156  10.217  12.568
69413W        W40013  24.164  33.973   1.285
69414W        W40014  22.175  39.842  13.889
69415W        W40015   7.208   0.763  12.087
69416W        W40016  23.042  11.721   0.365
69417W        W40017  25.051   7.870  11.389
69418W        W40018   6.490   4.213   1.907
69419W        W40019   8.392   5.856  12.972
69420W        W40020  18.087  28.961  12.091
69421W        W40021  17.654   8.303  12.217
69422W        W40022  20.164  34.053  12.136
69423W        W40023  24.800   4.854  14.334
69424W        W40024  17.479   4.267   2.833
69425W        W40025  39.349  25.827  10.554
69426W        W40026  21.053  19.517  12.557
69427W        W40027  36.633   1.710   0.841
69428W        W40028   1.620   2.195  11.229
69429W        W40029   9.141  43.443   1.272
69430W        W40030  20.148  13.653  13.542
69431W        W40031  20.280  33.020  12.812
69432W        W40032  13.131  34.026   1.180
69433W        W40033  38.549   8.169  14.827
69434W        W40034  23.239  17.759  14.470
69435W        W40035   7.514  40.166  11.063
69436W        W40036  29.063  35.381   2.231
69437W        W40037   6.798  17.192   2.233
69438W        W40038  32.396  37.107   1.271
69439W        W40039  22.793  10.191   1.674
69440W        W40040  29.544  42.726   2.499
69441W        W40041  40.620  17.193  12.986
69442W        W40042   8.665  14.208   4.133
69443W        W40043  16.800  38.027   3.300
69444W        W40044  19.275  17.130  11.589
69445W        W40045  23.042   1.658  12.904
69446W        W40046  26.009   0.652   4.043
69447W        W40047  31.857  25.570  14.830
69448W        W40048  36.077   9.319  11.853
69449W        W40049   9.306  33.944  10.416
69450W        W40050  16.491  26.768   2.199
69451W        W40051   4.484  44.465  12.625
69452W        W40052  11.683  34.552  12.559
69453W        W40053  17.722  37.831   5.106
69454W        W40054  11.231  20.779   2.336
69455W        W40055  14.556  12.605   0.403
69456W        W40056  42.197  41.900  13.488
69457W        W40057   1.798  41.331   2.913
69458W        W40058  39.373  25.413   2.180
69459W        W40059  27.177  39.913  11.118
69460W        W40060  44.685  27.528   1.009
69461W        W40061  15.292   1.853   2.274
69462W        W40062  12.010   6.182   3.578
69463W        W40063  28.263  39.305   0.690
69464W        W40064  33.079  33.937   1.056
69465W        W40065  41.586  23.057   3.938
69466W        W40066  40.815  13.120   1.825
69467W        W40067  12.693  34.919   1.608
69468W        W40068  26.520  11.562  11.315
69469W        W40069  24.143  39.038   3.138
69470W        W40070  17.330  40.031   4.067
69471W        W40071  14.295  43.798   2.207
69472W        W40072  35.271  13.375   4.098
69473W        W40073  27.916  10.175  13.479
69474W        W40074  38.738  16.239  13.023
69475W        W40075  19.157  40.394   4.886
69476W        W40076   0.228  29.146   0.819
69477W        W40077  40.894  36.035   4.395
69478W        W40078  27.912  21.791  12.476
69479W        W40079  30.966  29.126  13.472
69480W        W40080  30.541  20.011  10.714
69481W        W40081   7.754  15.619   4.146
69482W        W40082   9.210  43.513  10.658
69483W        W40083  12.826  16.127  12.635
69484W        W40084  21.779  34.366  11.715
69485W        W40085  12.248  36.554  11.615
69486W        W40086  25.172  40.259  13.998
69487W        W40087  38.217  11.964  13.763
69488W        W40088  44.006  15.165  14.871
69489W        W40089  40.578  35.982   1.396
69490W        W40090  44.950  32.391   4.404
69491W        W40091  26.110  20.921  12.401
69492W        W40092  13.436  36.650  12.891
69493W        W40093  29.080  13.189   1.541
69494W        W40094  18.143   0.266  12.658
69495W        W40095  24.514  44.943   1.277
69496W        W40096  44.900   2.324   2.273
69497W        W40097   2.396  15.624  12.992
69498W        W40098   3.967  15.690  12.448
69499W        W40099  29.658  44.964   2.288
69500W        W40100  13.439  23.520  11.180
69501W        W40101  33.568   3.812  14.901
69502W        W40102  15.654   4.622  14.865
69503W        W40103   7.361   7.032  12.022
69504W        W40104   5.670  33.834  13.489
69505W        W40105  33.082  23.979   4.907
69506W        W40106  22.597  35.995   4.495
69507W        W40107  10.482  28.911   4.633
69508W        W40108   0.838  34.194  10.709
69509W        W40109  19.674  19.745   2.667
69510W        W40110  24.185  24.049  14.375
69511W        W40111   2.849  41.122  10.637
69512W        W40112  18.755   9.220   0.718
69513W        W40113  27.477  13.200  11.682
69514W        W40114  36.937  14.902  13.572
69515W        W40115  34.915  11.656   0.404
69516W        W40116  17.632  16.720   3.839
69517W        W40117   9.829  25.713  14.988
69518W        W40118  18.608  25.944   4.879
69519W        W40119  32.707   2.746  11.991
69520W        W40120  39.385  40.199  11.933
69521W        W40121   8.374  35.040   3.377
69522W        W40122  43.861  11.664   2.135
69523W        W40123  12.732  36.576   3.809
69524W        W40124  22.702  16.648   1.757
69525W        W40125   1.917  10.419   2.163
69526W        W40126  11.854  36.350   2.732
69527W        W40127  16.785  20.553  12.582
69528W        W40128  11.942   7.658  14.847
69529W        W40129   8.782  31.074   2.594
69530W        W40130  44.938  10.406   4.164
69531W        W40131  13.155   2.941   4.761
69532W        W40132  37.397  29.665   1.187
69533W        W40133  21.499   5.377  11.336
69534W        W40134  32.693   8.703  13.232
69535W        W40135  10.106   0.679  13.477
69536W        W40136  21.061   1.313  10.692
69537W        W40137   5.477  27.235  12.611
69538W        W40138  27.025  24.123  13.760
69539W        W40139  14.410  21.186   2.149
69540W        W40140  39.849  39.792   2.655
69541W        W40141  15.317  17.620   3.705
69542W        W40142  29.824  39.298  12.796
69543W        W40143  35.450  15.796   1.323
69544W        W40144  32.518  16.044   1.223
69545W        W40145  24.813  39.492  14.423
69546W        W40146  30.286  30.926  13.026
69547W        W40147  27.943   8.612   2.393
69548W        W40148  29.669  38.999  11.122
69549W        W40149  28.278  25.640   3.039
69550W        W40150  10.728   4.382  13.777
69551W        W40151   7.935  42.908  10.383
69552W        W40152  30.074  28.732   1.281
69553W        W40153  10.632  13.316   2.763
69554W        W40154  14.181   4.844  10.748
69555W        W40155   1.717   7.710  14.240
69556W        W40156  32.021  19.998   1.925
69557W        W40157   3.449  19.239  13.063
69558W        W40158   8.840  21.631   1.770
69559W        W40159  18.138  16.017  11.934
69560W        W40160  34.362  33.986   1.701
69561W        W40161  41.749  11.769   4.588
69562W        W40162  41.929  33.498   1.029
69563W        W40163  28.862  18.138   2.799
69564W        W40164  31.584  41.808  12.954
69565W        W40165  35.555  25.659   3.189
69566W        W40166  26.359   3.419  14.228
69567W        W40167  26.575   1.542   0.885
69568W        W40168   1.235   3.776  13.897
69569W        W40169  32.939  18.216  13.049
69570W        W40170   4.531  17.993   4.393
69571W        W40171  15.009  31.358  11.132
69572W        W40172  23.618  32.382   0.513
69573W        W40173  21.781   9.190   0.759
69574W        W40174  31.180  11.869   3.144
69575W        W40175  23.122   5.974  13.418
69576W        W40176  23.192  30.874   0.871
69577W        W40177  43.839  13.812  12.983
69578W        W40178  23.188  38.526   2.738
69579W        W40179  34.361  17.285   1.263
69580W        W40180  38.572  33.149   3.276
69581W        W40181  36.812  12.791  13.342
69582W        W40182  19.352  24.247  11.081
69583W        W40183  42.484  21.257  11.137
69584W        W40184  34.443  41.493   2.889
69585W        W40185  40.180  36.080   2.867
69586W        W40186   3.744  42.294   3.379
69587W        W40187  38.782  25.117  11.189
69588W        W40188  15.248  15.538  13.947
69589W        W40189  25.692  38.141   2.472
69590W        W40190   4.847  32.784   2.174
69591W        W40191  27.527   1.245   1.811
69592W        W40192  11.203  16.895  11.757
69593W        W40193  19.240   4.221   2.197
69594W        W40194  29.027  44.963  11.591
69595W        W40195   2.696  41.060  11.123
69596W        W40196   9.789   9.710  13.631
69597W        W40197   4.138  32.329  14.446
69598W        W40198  42.922  37.028  12.582
69599W        W40199  41.001  22.412   5.101
69600W        W40200  28.329  17.681  10.516
69601W        W40201  13.076  14.573  14.258
69602W        W40202  33.561   1.329  14.918
69603W        W40203  15.025  26.177   2.189
69604W        W40204  44.425  23.889   0.822
69605W        W40205  13.395  37.990   0.850
69606W        W40206  19.778  22.554  11.635
69607W        W40207  43.257  12.756  13.959
69608W        W40208  12.764  14.322   3.384
69609W        W40209  16.895  31.772   0.328
69610W        W40210  23.295  34.158  14.774
69611W        W40211   1.963  36.970  13.856
69612W        W40212  24.047  41.158   5.178
69613W        W40213  31.987  13.330  11.199
69614W        W40214  33.094   9.942   4.553
69615W        W40215   2.385  24.600   0.236
69616W        W40216   2.154   1.019   2.031
69617W        W40217  13.394  31.415   4.375
69618W        W40218  24.056  34.946   1.451
69619W        W40219   4.798  34.661  12.377
69620W        W40220  30.409   2.929   0.936
69621W        W40221  14.266  14.168  11.685
69622W        W40222  38.979  43.549  14.789
69623W        W40223  25.026  32.586  12.397
69624W        W40224  18.797   4.117   0.192
69625W        W40225  24.903  44.788   2.842
69626W        W40226  31.972  13.803   2.477
69627W        W40227  28.445   0.709  10.553
69628W        W40228  28.244  39.567  12.461
69629W        W40229  14.389  17.644   2.238
69630W        W40230  12.796  32.477  13.393
69631W        W40231  32.029  10.273   2.112
69632W        W40232  38.996  14.687   0.394
69633W        W40233   5.887  41.500  14.805
69634W        W40234  20.537   1.311  12.874
69635W        W40235  40.027  43.462  14.730
69636W        W40236  28.641  17.763   3.639
69637W        W40237  25.074  39.669  11.115
69638W        W40238  16.948  40.970  12.277
69639W        W40239  23.167  19.669   0.024
69640W        W40240  25.382   3.318  14.085
69641W        W40241  42.615  40.071  12.505
69642W        W40242  23.362   3.839  13.469
69643W        W40243  37.330  21.294  10.208
69644W        W40244  26.921  12.826  14.846
69645W        W40245  25.480  42.994  11.118
69646W        W40246  31.084  26.978  10.410
69647W        W40247   5.921  35.199   4.584
69648W        W40248  13.255  44.686  13.069
69649W        W40249  43.226  35.694   2.675
69650W        W40250  17.237  42.441   0.792
69651W        W40251  36.070   3.914  11.272
69652W        W40252  29.839  24.149   2.894
69653W        W40253   3.940  36.840   3.657
69654W        W40254  31.515   1.024   3.338
69655W        W40255  18.798  12.337  12.045
69656W        W40256  32.081  38.321  10.952
69657W        W40257  15.295  31.719  12.885
69658W        W40258   5.438  41.745  11.625
69659W        W40259  25.064  27.070   0.903
69660W        W40260  26.466  42.447   1.559
69661W        W40261  32.521  22.746   4.155
69662W        W40262  27.695   0.949   0.518
69663W        W40263  23.490  42.091  12.084
69664W        W40264  30.530  29.656   2.737
69665W        W40265  18.305  24.093  11.060
69666W        W40266  30.549  28.297   5.094
69667W        W40267  32.150  23.097   4.179
69668W        W40268  20.785  43.398   4.151
69669W        W40269  21.235  19.844   0.204
69670W        W40270  36.487  38.811   5.055
69671W        W40271  30.882   8.376   4.562
69672W        W40272   0.012  40.424  10.735
69673W        W40273  14.841  26.451   1.750
69674W        W40274  15.335  35.280   3.360
69675W        W40275  40.967  17.843  11.190
69676W        W40276  29.083  43.821   2.921
69677W        W40277   2.429  28.212   2.229
69678W        W40278   0.911   5.077  10.941
69679W        W40279  19.584   4.251   3.811
69680W        W40280  12.188  29.439  11.967
69681W        W40281  29.354   1.409   0.261
69682W        W40282  23.190  23.504   2.032
69683W        W40283  17.599   4.202  14.628
69684W        W40284  26.126  11.535  12.598
69685W        W40285  42.581   7.846   4.735
69686W        W40286  17.588  43.447  13.315
69687W        W40287  25.692  34.977  13.296
69688W        W40288   2.802  17.995  11.131
69689W        W40289  37.285  33.699  12.007
69690W        W40290  35.473  15.542  10.724
69691W        W40291  24.117  19.654   0.548
69692W        W40292  43.341   4.502  12.442
69693W        W40293  19.552  33.275   0.233
69694W        W40294  28.215   1.732  14.757
69695W        W40295  29.876  16.295   2.783
69696W        W40296  30.070  26.294  12.597
69697W        W40297  29.250  30.887  14.564
69698W        W40298  27.914  13.868  11.585
69699W        W40299  42.824  23.592   2.810
69700W        W40300   9.458   0.352  11.280
69701W        W40301  24.574   7.919   1.800
69702W        W40302   8.400   9.634  13.127
69703W        W40303  42.630  25.063   4.078
69704W        W40304  34.061  34.822   1.227
69705W        W40305  37.834  21.623  14.885
69706W        W40306  19.498  14.721   2.272
69707W        W40307  19.676  27.424  13.407
69708W        W40308   4.322  24.055   2.941
69709W        W40309  15.364  15.460  10.305
69710W        W40310   8.981  21.160  10.428
69711W        W40311  25.697   0.258   4.093
69712W        W40312  11.257  40.937  11.412
69713W        W40313   0.473  15.603   2.341
69714W        W40314  32.381  41.210  14.253
69715W        W40315  15.136  21.518   0.943
69716W        W40316  32.043  42.582  13.026
69717W        W40317   9.903  20.623  13.874
69718W        W40318  24.482   2.262  12.568
69719W        W40319  42.853  39.041  11.646
69720W        W40320  26.675  15.334  13.452
69721W        W40321  13.343  37.135  14.834
69722W        W40322  18.150  10.221   4.163
69723W        W40323  33.538  35.010   2.626
69724W        W40324  27.852  12.200   4.070
69725W        W40325  39.355  18.633   2.321
69726W        W40326  15.136  41.555  12.478
69727W        W40327  30.937   0.470  10.749
69728W        W40328  19.006  22.834   2.227
69729W        W40329  31.389  16.792   4.146
69730W        W40330   0.766  25.923  12.548
69731W        W40331  11.282  37.937   4.762
69732W        W40332  32.307  33.147  14.944
69733W        W40333  28.415  38.870   0.357
69734W        W40334  21.482   5.667   4.072
69735W        W40335   1.536   6.809  10.657
69736W        W40336  41.451  41.818   3.674
69737W        W40337  18.297  43.240   3.494
69738W        W40338   6.228  29.561  10.400
69739W        W40339  33.601  11.263  12.817
69740W        W40340  39.425  29.044  13.661
69741W        W40341   2.247  26.698   1.419
69742W        W40342  20.677  21.205   3.140
69743W        W40343  35.886  42.787   0.893
69744W        W40344  39.740  10.703   0.383
69745W        W40345  22.541  26.753   2.384
69746W        W40346   1.352  35.937   3.672
69747W        W40347  40.750  36.477  13.380
69748W        W40348  21.648  27.150   4.705
69749W        W40349   3.685   8.946   1.228
69750W        W40350  30.631  27.956  12.120
69751W        W40351  12.531  31.886   0.811
69752W        W40352  25.718  41.091   3.582
69753W        W40353  38.440   9.130   2.358
69754W        W40354   1.429  18.500   1.314
69755W        W40355  41.194  39.350  13.394
69756W        W40356  22.385   7.406  10.331
69757W        W40357  12.280  14.145   3.418
69758W        W40358  31.909   1.127  12.953
69759W        W40359  23.166  41.589  14.788
69760W        W40360  19.457  31.819  10.710
69761W        W40361  15.613  29.387   1.430
69762W        W40362  39.473  18.055   5.007
69763W        W40363  37.091  27.601   0.952
69764W        W40364  11.318  42.039  11.370
69765W        W40365  15.166  14.329  11.913
69766W        W40366  14.329  11.052  12.943
69767W        W40367  24.583  23.899  12.071
69768W        W40368  14.212  36.357   4.487
69769W        W40369  16.515  31.383  13.855
69770W        W40370  24.632  15.558   1.294
69771W        W40371  42.426  35.557  11.952
69772W        W40372  30.354  14.148   2.487
69773W        W40373   6.373   4.731  10.587
69774W        W40374   3.483  40.892  14.892
69775W        W40375  25.038   8.758   0.403
69776W        W40376  33.859   3.398  10.662
69777W        W40377  41.857  28.694   0.695
69778W        W40378  29.780  14.740  13.263
69779W        W40379  23.581  13.344   1.129
69780W        W40380  43.927  11.622  10.683
69781W        W40381  26.542  32.395   1.175
69782W        W40382  10.134   7.561   1.255
69783W        W40383  33.628  36.350  11.657
69784W        W40384  33.064  23.560   2.151
69785W        W40385   9.021   8.363  14.460
69786W        W40386  41.733  11.843  13.395
69787W        W40387  20.987  34.028  13.424
69788W        W40388  15.188  20.014   0.925
69789W        W40389  34.969  19.073   4.766
69790W        W40390  39.455  30.100   1.899
69791W        W40391   5.842  41.993   1.010
69792W        W40392  12.229  39.136  13.541
69793W        W40393   8.630  41.406  12.523
69794W        W40394   2.722  37.557  10.683
69795W        W40395  24.880  21.771  12.511
69796W        W40396  34.829  44.434   3.230
69797W        W40397  35.799   5.389  14.959
69798W        W40398   4.926  11.223  14.544
69799W        W40399   6.526  38.547   4.722
69800W        W40400  33.784  31.988   3.401
69801W        W40401  23.744  10.214   3.375
69802W        W40402  11.024  36.143  11.218
69803W        W40403  36.680  14.299  14.992
69804W        W40404  15.222  16.284  13.405
69805W        W40405   5.698  43.972   1.526
69806W        W40406  15.855  22.104  12.318
69807W        W40407  33.825   3.900   1.478
69808W        W40408  44.976  21.307  14.261
69809W        W40409   1.526   3.306   2.856
69810W        W40410  37.301  28.707  11.561
69811W        W40411  27.567   3.493   1.288
69812W        W40412  38.897  31.820   5.024
69813W        W40413  12.730  39.486  11.373
69814W        W40414  15.073  39.519  12.529
69815W        W40415  25.255  14.801  10.996
69816W        W40416  33.036  33.103   3.561
69817W        W40417  23.976  24.721   1.186
69818W        W40418  43.381   8.169   3.278
69819W        W40419  32.993  19.703  10.392
69820W        W40420  25.999  44.248   2.333
69821W        W40421   0.284  44.600   4.609
69822W        W40422  16.167  19.128   2.272
69823W        W40423  34.906  42.290   2.754
69824W        W40424  30.805  33.368  12.303
69825W        W40425  21.749  35.410   2.709
69826W        W40426  42.588  31.541  11.504
69827W        W40427  27.027  40.796   2.384
69828W        W40428  42.372  40.942  11.561
69829W        W40429  13.762  12.725   4.985
69830W        W40430  12.140  14.830   1.657
69831W        W40431  31.278   9.835  13.256
69832W        W40432  25.566  42.309  11.691
69833W        W40433  40.602  17.361  12.042
69834W        W40434  20.682  11.121   2.363
69835W        W40435   8.062  22.823   0.870
69836W        W40436  11.804   0.260  12.340
69837W        W40437   4.238  36.540   4.263
69838W        W40438  31.180  17.123  11.078
69839W        W40439  25.646   8.362  11.048
69840W        W40440  39.440  15.229   2.591
69841W        W40441   2.214  18.078   2.300
69842W        W40442   9.442  14.806   0.912
69843W        W40443  28.763  40.820   0.534
69844W        W40444  21.572  36.329   3.789
69845W        W40445  14.926  23.933  14.477
69846W        W40446   3.450  22.024   1.481
69847W        W40447   1.937  10.228  11.258
69848W        W40448  22.467  17.665  13.607
69849W        W40449  25.551  16.311  10.650
69850W        W40450  23.694   8.411  10.951
69851W        W40451  28.397   1.244  14.592
69852W        W40452  10.784  24.681  13.984
69853W        W40453  34.675  42.503  11.616
69854W        W40454  36.922  11.395  11.337
69855W        W40455  31.169   9.855   0.489
69856W        W40456  31.471   9.260  13.500
69857W        W40457  11.325  29.631  10.590
69858W        W40458   3.227  19.503  14.947
69859W        W40459  24.710  35.468  10.530
69860W        W40460  41.632   5.764   2.380
69861W        W40461  10.118  35.040  12.798
69862W        W40462  25.152  18.197   0.756
69863W        W40463  20.140  16.643   3.420
69864W        W40464  12.398  29.842  12.850
69865W        W40465  42.956  42.087   2.843
69866W        W40466  11.717  20.236  11.167
69867W        W40467  43.994  38.769  12.955
69868W        W40468   2.567  11.994   3.391
69869W        W40469  32.974   7.770  11.224
69870W        W40470  21.407  21.983  13.852
69871W        W40471  27.542   9.647  13.946
69872W        W40472  25.638  42.085  11.017
69873W        W40473  28.057  36.596   1.020
69874W        W40474   4.353  24.397  12.624
69875W        W40475  31.385  32.132  11.452
69876W        W40476  14.760  36.620   4.626
69877W        W40477  19.459   1.958  10.425
69878W        W40478  10.072   6.321  13.013
69879W        W40479   1.748  32.078  11.758
69880W        W40480  14.864  41.319   3.268
69881W        W40481  22.554  37.265   5.045
69882W        W40482   8.900  41.386   0.298
69883W        W40483   9.214  43.962   2.902
69884W        W40484   4.145  16.608  12.089
69885W        W40485   1.237   7.496   4.678
69886W        W40486   0.553  25.613   1.315
69887W        W40487  29.686  22.612   2.358
69888W        W40488  21.465  35.528   5.068
69889W        W40489  36.897   5.781  12.337
69890W        W40490  29.162   7.068  13.986
69891W        W40491   2.085   5.473   4.791
69892W        W40492  38.738  33.560  13.937
69893W        W40493  15.869  27.580   2.519
69894W        W40494   2.604   3.651  11.781
69895W        W40495  34.445  14.526  13.941
69896W        W40496  27.219   5.247   4.652
69897W        W40497  11.774  19.382   4.520
69898W        W40498   3.266   6.843  12.865
69899W        W40499  36.314  10.109   1.566
69900W        W40500  23.276  16.122  13.405
69901W        W40501  12.121  34.839  10.437
69902W        W40502  34.934  36.298   5.151
69903W        W40503  29.416  33.460   2.405
69904W        W40504  34.462   3.713   4.681
69905W        W40505  25.119   2.878   3.126
69906W        W40506  12.213  44.397   0.481
69907W        W40507  26.090  15.655   1.908
69908W        W40508  35.939  15.652   2.771
69909W        W40509  33.991  15.714   9.622
69910W        W40510  25.060  18.816  12.626
69911W        W40511   0.010  44.070  12.520
69912W        W40512   3.432  27.040   0.705
69913W        W40513   0.577  41.363   3.639
69914W        W40514  25.727   4.945  14.438
69915W        W40515  32.144  20.557  12.390
69916W        W40516  26.123   2.129  12.010
69917W        W40517   8.685  26.734   0.077
69918W        W40518   4.344  22.359   3.281
69919W        W40519  41.981  13.465  12.885
69920W        W40520  34.765  14.840   0.871
69921W        W40521  30.368   3.790   0.993
69922W        W40522   9.860   4.592   2.644
69923W        W40523  40.391  27.551   0.735
69924W        W40524  14.599  29.975  13.328
69925W        W40525  16.238  29.453   4.891
69926W        W40526   4.338  41.883  10.591
69927W        W40527  43.837  13.586   4.407
69928W        W40528  41.661  43.194  11.124
69929W        W40529  10.850  11.177  11.103
69930W        W40530  42.276  10.065  13.386
69931W        W40531  21.855  40.528   3.408
69932W        W40532   3.617  36.026   4.492
69933W        W40533   1.937   8.355  10.671
69934W        W40534  18.348  33.003   2.876
69935W        W40535  35.466  29.434  13.234
69936W        W40536   1.977  13.252   3.687
69937W        W40537  23.112  16.753   3.325
69938W        W40538  34.529  35.896  13.745
69939W        W40539  35.579  29.608  13.718
69940W        W40540  37.310  20.119   4.187
69941W        W40541   5.013  26.500  14.291
69942W        W40542  31.594  17.320  14.840
69943W        W40543  30.443   7.359  12.847
69944W        W40544   3.947  21.570   0.969
69945W        W40545   1.190  44.733  12.048
69946W        W40546  40.111  34.400  12.025
69947W        W40547  17.587  41.072  14.468
69948W        W40548   2.693   0.749  14.435
69949W        W40549  26.466  29.411   3.121
69950W        W40550  37.005   8.873   0.737
69951W        W40551   0.986  27.085   1.923
69952W        W40552  39.433  27.909  14.739
69953W        W40553  13.634  18.295   4.570
69954W        W40554  20.152  35.581   4.823
69955W        W40555  41.562  22.477  12.407
69956W        W40556   6.616   7.139  14.560
69957W        W40557  28.299  21.728   1.794
69958W        W40558   3.956  32.514  10.918
69959W        W40559  24.302  30.759   2.244
69960W        W40560  26.429  30.306  14.807
69961W        W40561  11.746   1.174   2.802
69962W        W40562  27.154  25.160  11.577
69963W        W40563  43.027  23.116  10.648
69964W        W40564   1.479   1.221  13.031
69965W        W40565  30.633  35.961  13.775
69966W        W40566  30.452  21.172   0.662
69967W        W40567  13.588  39.456  13.874
69968W        W40568   2.829   0.382   2.853
69969W        W40569  44.927  37.835   2.720
69970W        W40570  35.397  16.107  12.055
69971W        W40571  17.204  13.266  14.399
69972W        W40572   9.836  42.360  13.364
69973W        W40573  22.208   5.466   1.955
69974W        W40574  41.685   1.969  11.168
69975W        W40575   1.544  42.316  13.446
69976W        W40576  19.306  26.274  14.914
69977W        W40577  18.909  44.671  14.806
69978W        W40578  22.136  40.901  11.594
69979W        W40579  27.240   7.419   1.596
69980W        W40580  32.036  23.031   0.337
69981W        W40581  11.671  23.210  12.147
69982W        W40582   8.675  23.637  12.534
69983W        W40583   2.154  34.884   1.461
69984W        W40584  14.439  18.445  11.220
69985W        W40585  29.018  19.514  13.813
69986W        W40586  35.987   9.692   2.451
69987W        W40587  32.676  44.370   1.922
69988W        W40588  40.108  39.379   0.601
69989W        W40589   7.467  43.841   4.844
69990W        W40590  41.987  41.391   1.768
69991W        W40591  41.034  13.048   1.267
69992W        W40592  41.867   7.422   9.996
69993W        W40593  14.597  13.772  11.608
69994W        W40594   9.652  22.577  14.720
69995W        W40595  19.752  40.883   2.693
69996W        W40596  24.976   1.121   0.800
69997W        W40597   5.139  15.138   0.686
69998W        W40598  11.043   7.136  14.118
69999W        W40599  19.913  31.208  12.715
70000W        W40600  41.547  28.694   3.396
70001W        W40601  29.070  10.417   1.212
70002W        W40602  17.060  18.807   2.819
70003W        W40603  41.957  11.769  14.887
70004W        W40604  38.932   5.854  10.730
70005W        W40605  23.138   6.588   2.149
70006W        W40606  41.619  24.742   1.484
70007W        W40607  11.946  11.610  13.352
70008W        W40608  42.723   2.609  12.979
70009W        W40609   8.757  39.801  12.306
70010W        W40610  28.948   4.956   1.681
70011W        W40611  26.545  31.486  11.027
70012W        W40612   3.661  10.809   1.203
70013W        W40613  14.686  16.711   3.776
70014W        W40614  15.780  10.740   1.274
70015W        W40615  13.326  20.695  14.887
70016W        W40616   7.783  19.789   1.690
70017W        W40617  15.200  11.954  14.260
70018W        W40618  44.917  38.045   4.121
70019W        W40619  38.806  33.482   1.301
70020W        W40620  37.200   1.373   5.069
70021W        W40621  11.844  26.324  14.731
70022W        W40622  17.237  42.886   4.805
70023W        W40623  14.149  24.533   2.909
70024W        W40624  31.495   5.200  12.400
70025W        W40625  41.217   9.247  14.881
70026W        W40626   1.340  41.815  11.172
70027W        W40627  44.396   3.616  10.805
70028W        W40628  17.234  26.361   2.724
70029W        W40629  23.265  25.008  14.530
70030W        W40630   7.816  41.547  10.763
70031W        W40631  42.002  40.621   4.120
70032W        W40632   9.559  30.358  10.585
70033W        W40633  20.144   9.860   0.829
70034W        W40634   3.860  43.386  12.200
70035W        W40635  20.489   2.804   2.275
70036W        W40636   2.346  31.003  12.000
70037W        W40637  19.726  34.832  10.614
70038W        W40638  32.139  25.985   1.899
70039W        W40639   0.551  33.431  11.753
70040W        W40640   6.839  22.282   3.923
70041W        W40641  12.286  25.488   2.390
70042W        W40642  25.114  31.141  11.600
70043W        W40643  40.759   7.017   4.585
70044W        W40644  37.911  15.801   0.840
70045W        W40645  37.390  35.480   4.402
70046W        W40646  24.405  35.425  12.859
70047W        W40647  44.401  17.231  14.997
70048W        W40648  41.123  20.760  10.217
70049W        W40649  11.270   4.002  11.148
70050W        W40650  14.233  31.566  13.122
70051W        W40651  23.121  39.104   1.400
70052W        W40652  36.681  19.473   4.265
70053W        W40653  20.520  30.913   4.863
70054W        W40654  37.641  26.854   3.376
70055W        W40655  35.056  17.637  12.893
70056W        W40656  35.488   0.416  13.819
70057W        W40657  20.511  39.479   4.155
70058W        W40658  14.469   8.910  13.840
70059W        W40659  41.110  17.792   2.670
70060W        W40660  32.624  41.243   2.121
70061W        W40661   9.399  29.053   3.780
70062W        W40662  29.345  27.592   2.852
70063W        W40663   9.407  28.017  13.976
70064W        W40664  22.665  30.096   4.311
70065W        W40665   5.802   2.963  11.079
70066W        W40666   0.915  24.597   1.946
70067W        W40667  14.102  11.048   3.760
70068W        W40668  16.167  39.572   2.715
70069W        W40669  31.034  30.597   4.083
70070W        W40670   0.586   4.115  14.965
70071W        W40671  32.826   4.992   0.994
70072W        W40672  19.588  20.082  11.932
70073W        W40673  42.518   2.759  11.214
70074W        W40674  11.853  27.990  14.832
70075W        W40675  13.409  29.174   0.841
70076W        W40676  22.584  36.640   0.366
70077W        W40677  35.351   7.095  14.243
70078W        W40678  19.690  19.407   3.096
70079W        W40679  20.124   5.836   2.138
70080W        W40680  27.656  30.669   3.179
70081W        W40681  19.804  14.754   2.700
70082W        W40682  37.464  27.028   0.412
70083W        W40683  11.117  34.496   2.935
70084W        W40684   3.261  44.292   2.313
70085W        W40685  41.792  31.588   1.185
70086W        W40686   2.698  41.952  11.410
70087W        W40687  40.521  36.915   2.328
70088W        W40688  34.580  43.404  12.539
70089W        W40689  27.055  40.268   2.324
70090W        W40690   9.837  35.829  13.532
70091W        W40691  13.690  22.005   2.094
70092W        W40692  40.261   0.562  11.586
70093W        W40693  27.382   1.891  10.439
70094W        W40694  17.630  33.363   4.087
70095W        W40695  16.459   9.596   4.063
70096W        W40696  15.360  43.732  14.825
70097W        W40697   1.950  44.192   3.223
70098W        W40698  16.430  28.038  14.458
70099W        W40699  10.634  37.160   4.484
70100W        W40700  12.384  32.565  14.971
70101W        W40701  30.167  25.157  14.837
70102W        W40702  32.018  30.821   0.827
70103W        W40703  33.060  10.381  11.106
70104W        W40704  28.915  28.585   0.963
70105W        W40705   4.526  32.225  13.339
70106W        W40706  29.302   4.111  11.017
70107W        W40707   8.240  43.433  11.544
70108W        W40708  28.907   0.703   3.228
70109W        W40709   3.272   4.517   0.850
70110W        W40710   9.156  13.782  12.416
70111W        W40711  24.622  34.008   3.736
70112W        W40712  29.340   8.908  14.940
70113W        W40713  35.960   9.213  11.293
70114W        W40714  13.607   6.299  13.601
70115W        W40715  38.082  11.245  12.075
70116W        W40716  40.018   1.867   0.936
70117W        W40717   2.910  30.291   1.942
70118W        W40718  35.941   1.195   1.154
70119W        W40719  10.584  28.311   1.307
70120W        W40720  30.952  35.915  12.963
70121W        W40721  27.651  20.889  10.554
70122W        W40722  40.521  37.841  13.410
70123W        W40723   3.570  30.949   5.112
70124W        W40724  11.563  10.689   4.391
70125W        W40725   9.778  42.959   5.105
70126W        W40726  37.810  14.475   4.206
70127W        W40727  39.287  42.279   0.940
70128W        W40728  44.863   1.937  13.308
70129W        W40729  44.038  10.737   4.667
70130W        W40730  24.296   9.873  14.672
70131W        W40731  15.728   6.849  14.394
70132W        W40732  16.582   1.010   3.398
70133W        W40733  40.943  26.943   3.278
70134W        W40734  18.722   8.355  10.750
70135W        W40735  12.749  43.425  11.468
70136W        W40736   7.221  33.117   4.097
70137W        W40737   7.926  25.130   1.457
70138W        W40738  29.492  18.555   1.315
70139W        W40739  24.123  20.789   2.413
70140W        W40740  15.048  19.928   4.939
70141W        W40741  26.452  36.474  12.734
70142W        W40742  40.793  19.188  10.771
70143W        W40743  43.436  25.653   2.554
70144W        W40744  38.488   4.902   1.789
70145W        W40745  35.525  13.093   3.662
70146W        W40746  17.867  21.694  12.063
70147W        W40747   5.826  18.607   3.325
70148W        W40748  29.269  43.817   3.386
70149W        W40749  21.538  24.018  12.538
70150W        W40750  21.698   7.872  11.680
70151W        W40751  44.763  31.456   3.563
70152W        W40752  11.132  12.362   1.369
70153W        W40753  20.010   6.363  14.957
70154W        W40754  13.361  22.051   4.475
70155W        W40755   4.459  40.206  13.873
70156W        W40756  20.583   8.291  12.950
70157W        W40757   9.839  32.229  10.049
70158W        W40758   4.764   9.696  14.944
70159W        W40759   8.818   0.982   2.841
70160W        W40760  15.618   4.212   2.401
70161W        W40761   0.677  38.086   3.557
70162W        W40762  22.005  11.417  11.151
70163W        W40763  15.632  31.162   1.510
70164W        W40764  15.263  21.967   4.639
70165W        W40765  23.852   4.833  12.507
70166W        W40766  16.788  34.419   0.971
70167W        W40767  25.856  34.416   1.165
70168W        W40768  22.597  22.487   4.770
70169W        W40769  32.205  33.514  10.509
70170W        W40770   7.694  39.730   0.085
70171W        W40771   4.751   7.175  11.557
70172W        W40772   1.733  36.904   1.198
70173W        W40773  16.722  25.143   3.618
70174W        W40774   8.715  29.588   1.783
70175W        W40775   6.985  27.284   4.931
70176W        W40776   7.873  29.011   0.479
70177W        W40777  19.382  25.782  12.053
70178W        W40778  33.411  31.528   2.723
70179W        W40779   5.182   9.404  13.477
70180W        W40780  17.271   4.321   0.453
70181W        W40781  28.189  44.842   4.376
70182W        W40782  28.976  30.834   1.037
70183W        W40783   4.363  22.064  13.409
70184W        W40784   1.201  24.522  10.881
70185W        W40785  13.268  27.735   3.326
70186W        W40786   7.168  44.005  12.457
70187W        W40787  24.798   2.756   2.286
70188W        W40788   6.918   6.378   0.898
70189W        W40789  29.395  16.029  11.673
70190W        W40790  34.354  40.969  13.531
70191W        W40791  30.278  34.007   3.591
70192W        W40792  40.270  35.781   5.010
70193W        W40793  29.845  42.472  14.083
70194W        W40794   7.736  18.738   2.285
70195W        W40795   0.240  43.738   2.717
70196W        W40796  29.937  35.419   0.881
70197W        W40797  16.170  24.634  13.096
70198W        W40798  26.923  13.325   2.926
70199W        W40799  36.343  25.475   0.306
70200W        W40800   3.356   8.405   1.846
70201W        W40801  20.096   2.303   4.612
70202W        W40802  40.622  44.154  11.073
70203W        W40803  20.957   1.280  14.498
70204W        W40804  17.699  37.548  11.715
70205W        W40805  40.823   0.770   0.548
70206W        W40806  11.886  15.012  11.113
70207W        W40807  25.141  20.681   3.565
70208W        W40808  42.429   4.180  13.396
70209W        W40809  40.084  17.376  11.986
70210W        W40810   7.917  38.689   0.890
70211W        W40811   0.394  37.993   1.921
70212W        W40812  13.075   6.587  12.066
70213W        W40813  37.237  43.015   1.456
70214W        W40814   2.729  22.518   2.061
70215W        W40815  20.935   0.504   4.507
70216W        W40816  13.681  32.585   4.532
70217W        W40817  21.497  22.274  10.470
70218W        W40818  40.808   0.763  14.000
70219W        W40819  25.816  22.027  13.137
70220W        W40820  32.807  13.318  13.577
70221W        W40821  44.519  32.446  14.364
70222W        W40822  26.420  13.859  10.618
70223W        W40823  34.645  37.404  13.452
70224W        W40824  11.803  19.024  13.986
70225W        W40825  12.811   3.703   3.223
70226W        W40826   3.488  23.800   2.955
70227W        W40827   2.364  31.166  10.444
70228W        W40828  24.607  11.235   2.375
70229W        W40829   2.317  13.738  14.069
70230W        W40830  42.336  31.901   1.918
70231W        W40831  32.443  34.516  11.669
70232W        W40832   1.562  25.486   3.452
70233W        W40833   2.853  32.197  12.455
70234W        W40834  29.047  35.611   4.563
70235W        W40835  13.403  17.206  14.329
70236W        W40836  11.425  19.548   2.866
70237W        W40837   1.974  14.216   3.787
70238W        W40838   3.429  12.060  11.898
70239W        W40839  11.129  18.185   1.489
70240W        W40840  24.674  40.999   4.360
70241W        W40841  23.112  12.860  10.821
70242W        W40842  18.731   1.283  13.382
70243W        W40843  14.114  23.680  10.536
70244W        W40844  44.320  44.368  14.065
70245W        W40845   3.935  31.448   1.268
70246W        W40846  16.095   1.083  13.757
70247W        W40847  41.924  44.195   2.661
70248W        W40848   8.250  32.085   4.672
70249W        W40849   9.657  11.116   2.747
70250W        W40850   6.337  18.174  14.813
70251W        W40851  18.301   4.837  14.256
70252W        W40852  17.903  20.660  13.499
70253W        W40853  43.479   9.215   4.231
70254W        W40854  20.807  33.511  14.474
70255W        W40855  19.671  24.073   1.889
70256W        W40856  24.777  30.411  12.076
70257W        W40857  42.341   3.568   3.399
70258W        W40858   1.552  28.349   5.049
70259W        W40859  24.651  24.287  13.667
70260W        W40860  12.082  25.240  13.777
70261W        W40861  16.205  40.743   3.377
70262W        W40862  35.971   8.570  11.970
70263W        W40863  15.626  18.911   5.027
70264W        W40864  38.638  21.072  11.981
70265W        W40865   1.029  14.686   1.687
70266W        W40866  26.183   9.826   0.957
70267W        W40867  33.591  18.241   1.143
70268W        W40868  25.344  15.841  11.095
70269W        W40869   1.748  35.409   2.320
70270W        W40870  41.474   6.738   1.805
70271W        W40871  27.179  25.977  13.826
70272W        W40872  29.067  32.104  10.557
70273W        W40873   2.154  35.543  12.490
70274W        W40874  16.560  15.288   4.189
70275W        W40875  42.306   1.939   2.413
70276W        W40876  10.831  27.290  12.482
70277W        W40877  27.471   1.194  13.526
70278W        W40878   3.156   2.620   5.052
70279W        W40879  21.500  29.432   4.442
70280W        W40880   3.941  37.931   3.332
70281W        W40881  28.573  36.406  14.850
70282W        W40882  26.013   2.632  11.961
70283W        W40883  27.637   3.688  11.390
70284W        W40884   8.869   1.545   1.315
70285W        W40885  23.044   3.925   1.687
70286W        W40886  44.637  39.056   9.967
70287W        W40887  33.411  42.428  12.165
70288W        W40888  35.889  44.845   1.726
70289W        W40889   3.482  18.646  10.413
70290W        W40890  32.500  27.485   4.190
70291W        W40891  12.644   2.914   4.883
70292W        W40892  10.732  34.442   3.309
70293W        W40893  42.329  24.531   4.744
70294W        W40894  37.420   0.396   3.106
70295W        W40895   6.518  29.633  10.823
70296W        W40896  40.172  33.035  13.579
70297W        W40897  20.061  30.255   1.949
70298W        W40898  25.282  12.094  11.657
70299W        W40899   9.167  42.606  10.723
70300W        W40900  25.215  35.330  14.316
70301W        W40901  16.414   5.180  13.146
70302W        W40902  19.729  36.946  12.033
70303W        W40903  25.225  16.096   3.787
70304W        W40904  13.178  26.191   1.744
70305W        W40905  18.544   0.553  11.465
70306W        W40906   2.421  10.519   0.839
70307W        W40907  34.349  13.067   1.022
70308W        W40908  35.856   7.878  14.853
70309W        W40909   2.377   4.671  10.272
70310W        W40910  41.602  33.566   2.092
70311W        W40911  40.369  30.831   4.637
70312W        W40912  17.202   4.423  11.744
70313W        W40913  25.154   8.443   4.485
70314W        W40914  20.382  40.586  10.983
70315W        W40915   5.508  33.160   3.059
70316W        W40916  11.733   1.514  11.930
70317W        W40917  28.229  22.913  13.203
70318W        W40918  42.960   4.861   1.764
70319W        W40919  15.562   1.680   1.839
70320W        W40920  42.838  13.236   0.452
70321W        W40921  42.453   0.768  11.328
70322W        W40922  30.428  23.474   1.776
70323W        W40923  37.956  13.067   4.306
70324W        W40924  12.719   2.780   3.863
70325W        W40925  14.684   7.972  14.063
70326W        W40926  34.970  39.286  11.578
70327W        W40927  15.785  27.883   0.778
70328W        W40928  29.053   3.845   2.204
70329W        W40929  44.862   3.367  12.859
70330W        W40930  15.735  41.384  13.963
70331W        W40931  16.335   5.682  13.289
70332W        W40932  32.076  35.717   0.352
70333W        W40933  18.358  11.118   2.483
70334W        W40934  34.337   3.302   0.842
70335W        W40935  26.940   3.578   3.354
70336W        W40936  24.701   3.657  12.102
70337W        W40937   2.998  35.778  13.767
70338W        W40938  15.577  17.219  10.234
70339W        W40939   5.738  14.351   2.339
70340W        W40940  33.442  35.592  14.042
70341W        W40941   0.808  43.040   0.271
70342W        W40942  17.979   8.417  14.270
70343W        W40943  35.637   8.338   1.401
70344W        W40944  23.396  18.216  11.841
70345W        W40945   6.366  31.625  14.378
70346W        W40946  25.457  11.165   0.941
70347W        W40947  39.448  24.193  11.022
70348W        W40948  41.352  40.898   3.799
70349W        W40949  26.937  40.757  11.062
70350W        W40950   6.220  36.259  11.579
70351W        W40951  30.069  15.751   1.760
70352W        W40952  36.968  37.294  13.630
70353W        W40953  29.893  26.394   0.742
70354W        W40954   5.937  22.774  12.853
70355W        W40955  29.042   7.888  10.457
70356W        W40956  22.630  23.489   1.705
70357W        W40957  27.120   6.604   1.266
70358W        W40958  16.236   2.818   0.139
70359W        W40959  40.796   9.049  12.237
70360W        W40960   6.701  14.363  14.025
70361W        W40961   2.323  17.836   3.264
70362W        W40962  44.767  29.345  13.998
70363W        W40963   9.251  10.798   2.831
70364W        W40964  10.613  28.666   2.588
70365W        W40965  36.026  15.792  14.711
70366W        W40966  29.017  12.588   3.148
70367W        W40967  11.820   1.774   4.606
70368W        W40968  37.602  11.223   1.487
70369W        W40969  14.095  15.661   2.674
70370W        W40970  42.862  23.703   3.521
70371W        W40971  14.663   7.425  11.301
70372W        W40972  13.860  37.364   3.159
70373W        W40973  31.417  32.132  10.500
70374W        W40974  41.091  17.276  12.144
70375W        W40975  43.554  34.881   4.596
70376W        W40976  38.549  26.360   4.791
70377W        W40977   7.171  15.297   0.995
70378W        W40978  24.641  43.770  11.515
70379W        W40979  43.600  11.738   1.035
70380W        W40980  29.093  43.360   4.096
70381W        W40981  15.893   4.398  11.565
70382W        W40982  24.029  13.639  11.596
70383W        W40983  43.281   8.947  11.129
70384W        W40984  26.536  23.106  11.890
70385W        W40985  38.326  34.509  11.597
70386W        W40986  31.906  35.133   0.818
70387W        W40987  17.153  33.159   0.313
70388W        W40988  27.959  29.436   2.512
70389W        W40989  27.868  25.172   3.714
70390W        W40990  31.945  26.623  13.428
70391W        W40991  25.574  37.026   4.256
70392W        W40992  28.401   6.714  13.072
70393W        W40993   4.960  15.619   2.025
70394W        W40994  21.141  28.551   2.391
70395W        W40995  44.025  29.906   2.276
70396W        W40996   0.209  13.691   2.796
70397W        W40997  14.910  29.091   2.768
70398W        W40998   0.816  28.565   1.311
70399W        W40999  34.864  41.810   4.290
70400W        W41000  28.924   2.890   0.887
70401W        W41001  15.641  28.391   0.891
70402W        W41002   8.318  38.109   3.229
70403W        W41003  24.888  41.553   2.886
70404W        W41004  37.514   1.962  13.054
70405W        W41005  41.804  12.995  13.035
70406W        W41006   7.680   6.129   1.864
70407W        W41007  15.425  27.776   4.358
70408W        W41008  37.602   9.454  13.846
70409W        W41009  33.521  10.650  11.995
70410W        W41010   1.754  33.851   2.252
70411W        W41011  44.847  30.599  14.402
70412W        W41012  30.642  17.259   1.901
70413W        W41013   0.422   1.495   0.834
70414W        W41014  13.216  15.561  14.046
70415W        W41015   8.628   3.448   0.491
70416W        W41016  36.487   2.241   4.055
70417W        W41017  39.322  29.077  14.910
70418W        W41018   9.113   5.725  14.015
70419W        W41019  24.090  24.911  11.730
70420W        W41020  41.008  39.256   1.602
70421W        W41021   7.329  18.565  14.056
70422W        W41022  24.243  23.440   3.672
70423W        W41023  40.276  10.186  10.089
70424W        W41024  17.704  44.185   2.390
70425W        W41025  24.797   8.866   4.653
70426W        W41026  25.932   6.354  14.729
70427W        W41027   7.290  28.052   2.720
70428W        W41028  16.032  40.919   1.239
70429W        W41029  28.525  34.426  11.622
70430W        W41030  29.675   2.922  12.523
70431W        W41031  17.277   4.394  14.127
70432W        W41032  44.735  17.050  10.663
70433W        W41033  17.752  30.641  11.975
70434W        W41034  24.213  15.864  10.746
70435W        W41035  29.863  26.534   3.525
70436W        W41036  24.740  42.940   4.643
70437W        W41037  36.439  41.709   2.210
70438W        W41038   5.311  18.632   0.544
70439W        W41039   7.391  12.197   3.791
70440W        W41040  28.027  31.619   2.233
70441W        W41041  19.605  30.266  13.965
70442W        W41042  17.127   4.993  11.140
70443W        W41043  20.233   4.988   2.338
70444W        W41044  36.976  43.506   0.065
70445W        W41045  20.619  25.419  14.926
70446W        W41046   6.862  14.169   2.393
70447W        W41047   0.450  11.857  11.941
70448W        W41048  30.120  44.532   2.574
70449W        W41049  30.965  25.539  10.808
70450W        W41050  26.947   3.179   3.656
70451W        W41051   7.607  23.157  11.767
70452W        W41052  21.803  44.115  13.024
70453W        W41053   8.205  10.288   4.679
70454W        W41054  30.020  18.605  11.239
70455W        W41055  32.213  40.173  12.117
70456W        W41056  23.077  27.503   1.253
70457W        W41057  28.395  30.911   0.864
70458W        W41058  26.429  33.750   1.637
70459W        W41059  20.047  29.951  14.598
70460W        W41060  23.291  27.964  14.791
70461W        W41061  23.083  44.041  14.620
70462W        W41062  14.683  30.401  12.547
70463W        W41063  20.676  36.580  14.107
70464W        W41064  18.943   5.382   4.423
70465W        W41065   0.073   4.389   4.863
70466W        W41066  24.980  21.211   2.092
70467W        W41067  34.394  37.878   0.935
70468W        W41068  13.996  26.360   3.023
70469W        W41069  44.359  26.617  13.276
70470W        W41070   0.394  37.406  12.930
70471W        W41071   1.860  11.802   2.797
70472W        W41072  16.434   9.088   0.395
70473W        W41073  22.976  23.950   2.208
70474W        W41074  15.594  17.141  13.389
70475W        W41075  23.652  29.584  13.425
70476W        W41076  18.617  43.848   4.629
70477W        W41077  39.389   3.932   0.623
70478W        W41078  12.586   7.956  11.097
70479W        W41079  25.917   7.261  13.858
70480W        W41080  28.386  12.661   1.454
70481W        W41081  22.488  26.957  11.515
70482W        W41082   3.316  23.328  11.617
70483W        W41083  11.115  26.053  11.643
70484W        W41084  41.413  38.217   2.778
70485W        W41085   3.175  36.922   1.389
70486W        W41086  34.997  29.411   4.387
70487W        W41087   4.882  31.005   3.169
70488W        W41088  10.098   5.348   1.892
70489W        W41089  28.142  20.775  10.290
70490W        W41090  29.188  36.040  10.612
70491W        W41091   1.340  15.231  11.115
70492W        W41092  37.549  21.150   0.737
70493W        W41093  29.162  27.493  13.415
70494W        W41094  33.689  13.786  13.578
70495W        W41095  27.385  35.447   3.196
70496W        W41096  22.560  40.072  12.939
70497W        W41097   0.779  37.946   1.135
70498W        W41098   8.784  37.044   1.889
70499W        W41099  24.942  29.834  11.123
70500W        W41100   9.787   3.745  11.893
70501W        W41101  31.438  22.136  14.342
70502W        W41102  31.177   0.958  11.133
70503W        W41103   8.166  23.780   2.270
70504W        W41104  42.160   3.533   4.007
70505W        W41105  41.375  26.106  14.205
70506W        W41106   7.154   9.276  11.365
70507W        W41107  16.108   7.761   4.321
70508W        W41108  26.027  20.122  14.577
70509W        W41109  15.801  32.354  12.119
70510W        W41110  42.320   0.842   4.861
70511W        W41111  16.786  32.166   4.134
70512W        W41112  22.469  38.699   0.801
70513W        W41113  29.249  39.534  12.556
70514W        W41114  42.910  40.975  14.293
70515W        W41115   3.728  37.938   1.492
70516W        W41116  41.413  22.796   2.130
70517W        W41117   1.213   9.839   2.163
70518W        W41118  25.959  23.253   3.126
70519W        W41119  18.670   6.959   1.443
70520W        W41120  15.980  40.085  12.360
70521W        W41121  32.632   7.852  11.602
70522W        W41122   9.304  24.881  13.982
70523W        W41123  29.995  44.351  10.502
70524W        W41124  41.858  10.428   4.239
70525W        W41125  24.044   7.483   3.573
70526W        W41126  34.589  24.990   3.669
70527W        W41127  37.431  38.528  14.833
70528W        W41128  31.402  30.506   3.313
70529W        W41129   8.171   8.456   1.903
70530W        W41130  17.166  33.441  14.791
70531W        W41131   6.704  32.053  10.939
70532W        W41132  24.432  12.888   2.285
70533W        W41133  40.437  25.707   1.309
70534W        W41134   4.231  23.783  11.418
70535W        W41135  10.240  10.181  12.619
70536W        W41136  33.026  21.209   3.720
70537W        W41137   6.408   2.442  12.960
70538W        W41138  37.034  20.297   1.840
70539W        W41139  32.650  39.479  10.179
70540W        W41140  21.593  16.128  12.364
70541W        W41141  24.624  26.550   1.444
70542W        W41142   8.810  10.638   4.117
70543W        W41143   2.275  18.507   4.456
70544W        W41144   0.419   2.980   3.343
70545W        W41145  34.725  29.726   2.365
70546W        W41146  24.675  23.190   1.288
70547W        W41147   6.891  24.640   4.067
70548W        W41148  43.237  29.177  11.440
70549W        W41149  42.149  31.048   2.742
70550W        W41150  24.177   6.468  11.988
70551W        W41151  29.602  12.195   3.553
70552W        W41152  25.465  38.613  14.395
70553W        W41153  10.473   6.076  10.807
70554W        W41154   5.434   1.378   0.371
70555W        W41155  31.696  40.250  12.170
70556W        W41156   0.430  26.766  13.062
70557W        W41157  25.229  26.142  10.726
70558W        W41158   0.255  36.541  12.110
70559W        W41159  34.551   3.510  11.074
70560W        W41160   7.290  42.528   4.077
70561W        W41161   0.179  13.653   3.801
70562W        W41162  28.937  26.749   4.269
70563W        W41163  20.733  44.920  11.028
70564W        W41164   1.248   0.422  11.429
70565W        W41165   0.023  32.360   0.361
70566W        W41166  16.119   2.390   1.431
70567W        W41167  28.895   9.677   3.668
70568W        W41168  28.120  22.016   3.685
70569W        W41169  40.882   0.289   4.163
70570W        W41170  16.028   7.256  12.626
70571W        W41171  30.562  33.693  13.985
70572W        W41172  10.683  36.716   2.735
70573W        W41173   4.639  12.156   4.647
70574W        W41174  14.317  35.414  11.118
70575W        W41175  30.231  31.842   0.821
70576W        W41176  26.236  11.816   4.924
70577W        W41177  11.374  32.997  11.878
70578W        W41178  14.048  27.794   4.901
70579W        W41179  43.013  41.248  10.742
70580W        W41180   6.297  35.405  11.345
70581W        W41181  37.857   8.713   0.778
70582W        W41182  25.406   0.734   2.639
70583W        W41183  33.986  34.422  12.900
70584W        W41184  37.548   4.835   1.353
70585W        W41185  34.780  41.296   4.111
70586W        W41186  24.737  26.316  10.549
70587W        W41187  23.778   7.643   0.036
70588W        W41188  26.180  18.710  11.886
70589W        W41189  28.917  43.384   3.105
70590W        W41190  37.625  21.193   3.205
70591W        W41191  15.753   5.007   2.078
70592W        W41192  29.909   9.712  12.136
70593W        W41193  26.174  22.047  12.721
70594W        W41194  20.179   2.283  14.598
70595W        W41195  21.650   7.910  14.175
70596W        W41196  35.493  34.899   3.217
70597W        W41197  33.583   3.494  12.934
70598W        W41198  29.742  35.072  14.051
70599W        W41199  18.260  23.833  12.992
70600W        W41200  25.004  19.546  11.607
70601W        W41201  30.725  20.692   1.839
70602W        W41202  24.940  18.019   3.719
70603W        W41203  44.445  44.387   9.928
70604W        W41204  28.611  30.189  14.400
70605W        W41205  32.972  17.143   2.931
70606W        W41206  37.318  21.578   2.816
70607W        W41207   7.937  21.011  11.326
70608W        W41208  21.139  26.624   2.286
70609W        W41209  22.498   1.330  13.900
70610W        W41210  25.658  41.069  11.133
70611W        W41211  25.827  19.658  13.652
70612W        W41212  32.017  18.789  10.466
70613W        W41213  43.018  39.845   4.267
70614W        W41214  15.188  33.787  12.465
70615W        W41215  20.844   1.056   2.667
70616W        W41216  14.712   5.672   4.730
70617W        W41217   6.323  30.611   3.185
70618W        W41218  30.374  21.795   3.744
70619W        W41219  37.352  34.941  14.271
70620W        W41220  22.293  41.355   3.888
70621W        W41221  41.948   4.845  14.754
70622W        W41222  19.725  28.197   0.564
70623W        W41223  20.752  25.544   3.080
70624W        W41224  40.470  35.062   3.773
70625W        W41225  24.259   5.190  11.603
70626W        W41226  37.676  17.636  14.035
70627W        W41227  12.228   4.392  14.738
70628W        W41228  40.644  28.929  10.993
70629W        W41229  14.528  16.736  14.572
70630W        W41230   2.890  31.184   3.275
70631W        W41231  39.077   4.866  12.181
70632W        W41232   4.791  10.757   4.834
70633W        W41233  44.347  35.507   1.396
70634W        W41234  38.006  28.208   0.805
70635W        W41235  40.636  10.742   2.713
70636W        W41236  40.539  11.079   0.303
70637W        W41237  41.322  30.992  12.490
70638W        W41238  37.894  10.336   2.864
70639W        W41239  43.290  43.446   1.839
70640W        W41240  22.715  18.785   0.993
70641W        W41241  30.883  40.788  13.323
70642W        W41242  28.757  32.526  12.483
70643W        W41243  19.331  44.834  13.703
70644W        W41244   9.243  22.221   4.220
70645W        W41245  12.834  27.274   3.764
70646W        W41246  36.659  44.258   1.883
70647W        W41247  25.801   2.927  13.252
70648W        W41248   9.763  10.655  12.036
70649W        W41249  44.198  14.747  13.409
70650W        W41250  31.320  21.947   1.758
70651W        W41251   0.907   9.134   4.640
70652W        W41252   1.399  27.220   2.189
70653W        W41253  21.531  10.326   3.093
70654W        W41254   4.096  20.961   4.479
70655W        W41255  11.908  35.384   4.418
70656W        W41256  30.123   0.057  11.498
70657W        W41257  19.147  33.358   3.792
70658W        W41258  33.064   0.355  12.008
70659W        W41259  19.515  15.113   1.384
70660W        W41260  34.363  10.938  13.508
70661W        W41261   2.263  14.689  13.507
70662W        W41262  23.218  19.983  10.751
70663W        W41263  43.223   1.523  14.322
70664W        W41264  16.450  36.046  13.317
70665W        W41265  27.064  22.061   1.467
70666W        W41266  35.189  15.134   4.030
70667W        W41267  13.273  12.979   2.803
70668W        W41268   8.759  10.934   2.764
70669W        W41269  35.289  41.715   1.683
70670W        W41270  29.182  14.288  14.195
70671W        W41271  31.180   0.410   3.127
70672W        W41272   2.658  12.558   0.378
70673W        W41273  36.764  37.184  10.395
70674W        W41274  35.327  22.194  14.121
70675W        W41275   5.356  13.138  12.654
70676W        W41276  34.822   3.424   3.733
70677W        W41277   6.928   2.841   4.632
70678W        W41278  16.674   7.648  13.378
70679W        W41279  13.057   0.052   4.153
70680W        W41280   8.352  43.201   3.609
70681W        W41281  37.103  29.436   2.185
70682W        W41282   2.422  35.526   4.776
70683W        W41283   1.893  41.825   0.523
70684W        W41284  19.789  44.441  12.075
70685W        W41285  33.662  35.790  14.458
70686W        W41286  12.102   6.168  14.852
70687W        W41287  33.997  10.321   1.673
70688W        W41288  22.174  42.039   4.157
70689W        W41289  18.497  35.613   4.099
70690W        W41290  31.609  17.339  13.533
70691W        W41291  35.790  40.813  13.212
70692W        W41292  25.435  37.232  12.871
70693W        W41293  15.733  14.644   2.134
70694W        W41294  22.636  16.378   2.239
70695W        W41295  42.928   5.433   3.074
70696W        W41296   0.034  36.546   1.293
70697W        W41297  29.729  11.596   0.387
70698W        W41298  26.042  31.557   4.774
70699W        W41299  22.987  14.231  14.036
70700W        W41300   7.863   8.770  12.425
70701W        W41301  25.132   1.047  14.889
70702W        W41302  10.657  39.899  12.272
70703W        W41303  33.448   7.814  13.950
70704W        W41304  34.982  41.981   0.378
70705W        W41305   8.773  28.097  12.623
70706W        W41306  43.952   6.398  14.742
70707W        W41307   4.049  10.412  13.457
70708W        W41308  27.546   1.945   4.330
70709W        W41309  25.564  30.014   1.231
70710W        W41310  19.448  20.055   3.655
70711W        W41311  15.576  22.261  11.453
70712W        W41312   1.684  25.977  13.923
70713W        W41313  33.218  43.299   0.629
70714W        W41314  39.765  25.021   1.257
70715W        W41315  14.159  11.848   0.657
70716W        W41316  35.485  38.042   4.101
70717W        W41317  28.011  24.084   0.808
70718W        W41318   0.987  32.184   2.479
70719W        W41319  32.464   0.921  10.725
70720W        W41320  20.992   4.887  12.825
70721W        W41321  10.624  15.319  11.452
70722W        W41322   6.249  32.227   0.009
70723W        W41323  25.642  13.115   1.268
70724W        W41324  36.597  31.891   0.876
70725W        W41325  16.285  12.793  12.608
70726W        W41326  15.862  13.346   2.769
70727W        W41327  20.703   3.703  14.294
70728W        W41328  15.530  12.197   2.474
70729W        W41329  29.067  25.206   1.851
70730W        W41330  14.751  41.821  14.085
70731W        W41331  21.614  13.898   0.041
70732W        W41332  21.966  25.160  14.829
70733W        W41333  33.599   3.271   0.424
70734W        W41334  31.216  44.179   1.922
70735W        W41335  37.515  41.133   2.449
70736W        W41336  18.044  18.537   2.354
70737W        W41337   5.968  29.448   4.157
70738W        W41338   9.398  11.843   3.593
70739W        W41339   6.731   1.310   4.742
70740W        W41340  42.261   0.414  13.172
70741W        W41341  12.251  35.390   1.398
70742W        W41342  19.663   8.208   3.299
70743W        W41343  24.137   0.384  13.085
70744W        W41344  14.807   3.178   5.037
70745W        W41345  40.912  36.314   1.721
70746W        W41346   2.784  37.864   1.988
70747W        W41347  28.716   1.306  11.526
70748W        W41348   3.420   6.815   4.696
70749W        W41349  29.171  18.547  14.103
70750W        W41350   3.839  31.015  11.559
70751W        W41351  11.625  25.771  12.662
70752W        W41352  23.502  17.458   0.632
70753W        W41353   0.006  15.587   3.209
70754W        W41354  19.452   1.108   0.846
70755W        W41355  41.267  15.442   4.545
70756W        W41356  37.452  23.145   1.034
70757W        W41357   2.976   5.130   0.207
70758W        W41358  35.515  22.589   4.325
70759W        W41359  38.664  44.510   3.371
70760W        W41360  31.118  35.654  14.489
70761W        W41361  21.489  43.363  11.483
70762W        W41362  12.520  16.088   3.156
70763W        W41363  37.077   6.391   0.691
70764W        W41364  11.765  14.696  10.252
70765ION    NA+41365   9.118  42.258  11.584
70766ION    NA+41366   0.954  31.133   0.970
70767ION    NA+41367  16.793  14.324   9.579
70768ION    NA+41368  30.108  36.317   1.428
70769ION    NA+41369  11.845  14.229   2.123
70770ION    NA+41370  20.892  21.296   9.707
70771ION    NA+41371  32.223   5.363   2.979
70772ION    NA+41372   6.406  15.577   5.348
70773ION    NA+41373  16.273  24.525   3.612
70774ION    NA+41374  25.582  35.975   0.944
70775ION    NA+41375   3.317  43.538  13.520
70776ION    NA+41376   4.223  27.476   2.351
70777ION    NA+41377  40.467  40.649   0.940
70778ION    NA+41378  28.587  17.310  11.236
70779ION    NA+41379   3.981  10.427  11.624
70780ION    NA+41380  23.392   5.323   0.251
70781ION    NA+41381  36.947  10.048  13.861
70782ION    NA+41382  38.662  39.269  13.070
70783ION    NA+41383   0.045  16.630  13.911
70784ION    NA+41384  31.558  27.937   3.245
70785ION    NA+41385   7.370  32.365  12.434
70786ION    NA+41386   6.852  39.949  13.048
70787ION    NA+41387   6.978  20.415  13.622
70788ION    NA+41388  44.212  30.698  10.687
70789ION    NA+41389  10.333  41.789  12.185
70790ION    NA+41390  31.879  36.552  13.967
70791ION    NA+41391  34.246   3.626  11.479
70792ION    NA+41392  18.684  16.217   4.082
70793ION    NA+41393  16.120   2.855  10.748
70794ION    NA+41394   7.782  32.559   1.182
70795ION    NA+41395  20.793   2.878   0.468
70796ION    NA+41396   9.520  27.647  14.722
70797ION    NA+41397   7.620   5.854  12.550
70798ION    NA+41398  27.029  21.830  13.325
70799ION    NA+41399  18.056  12.698   1.789
70800ION    NA+41400  39.217  36.075   5.191
70801ION    NA+41401  35.850  20.938  14.413
70802ION    NA+41402  27.801  34.330  14.759
70803ION    NA+41403  24.210  36.347  13.447
70804ION    NA+41404  30.105   5.008  13.153
70805ION    NA+41405   8.664  39.329  13.448
70806ION    NA+41406  35.229   1.858   0.195
70807ION    NA+41407   8.396  25.103  12.192
70808ION    NA+41408  22.033  32.744   2.723
70809ION    NA+41409  24.424  33.343   3.013
70810ION    NA+41410  41.320  11.907  12.519
70811ION    NA+41411  34.628  31.503  11.985
70812ION    NA+41412  27.465  39.583  11.513
70813ION    NA+41413   2.642  25.590  14.177
70814ION    NA+41414  14.669   1.241  11.614
70815ION    NA+41415  15.725  12.865   2.874
70816ION    NA+41416  40.035  28.001  14.038
70817ION    NA+41417  33.381  29.272   9.838
70818ION    NA+41418   9.238  25.429   1.474
70819ION    NA+41419  27.109   4.054   3.461
70820ION    NA+41420  14.323   1.330   4.625
70821ION    NA+41421  39.622  14.345  14.193
70822ION    NA+41422  11.193  43.802   2.097
70823ION    NA+41423  12.006   5.801   1.243
70824ION    NA+41424  22.746   6.228   2.164
70825ION    NA+41425   8.413  24.484  13.971
70826ION    NA+41426  18.124   6.390   0.365
70827ION    NA+41427  36.769  37.813  10.907
70828ION    NA+41428  23.546  30.063   3.736
70829ION    NA+41429  34.212  40.978   0.314
70830ION    NA+41430  41.756  20.681   1.645
70831ION    NA+41431   2.868  41.340  12.659
70832ION    NA+41432  37.020   9.836   1.153
70833ION    NA+41433  11.004  22.181  14.835
70834ION    NA+41434  15.851   1.921   0.989
70835ION    NA+41435  30.214  27.804  14.921
70836ION    NA+41436  12.350   2.853  14.549
70837ION    NA+41437  41.024  10.146  12.482
70838ION    NA+41438  26.049  11.795  11.246
70839ION    NA+41439  18.773  28.553   0.034
70840ION    NA+41440  25.672  32.173   3.653
70841ION    NA+41441   0.168  18.575  13.022
70842ION    NA+41442  21.329  41.634   3.604
70843ION    NA+41443  19.839  33.533   4.381
70844ION    NA+41444  32.439  36.446  10.333
70845ION    NA+41445  41.941   4.936   1.844
70846ION    NA+41446  38.430  39.717   2.591
70847ION    NA+41447   8.093  42.423   3.132
70848ION    NA+41448   3.563  40.561   3.307
70849ION    NA+41449  23.756   9.836   0.444
70850ION    NA+41450  43.093  25.891  10.732
70851ION    NA+41451  39.823  19.811   1.178
70852ION    NA+41452  31.503  19.475  11.600
70853ION    NA+41453  43.633  21.557   2.075
70854ION    NA+41454  30.452  40.598  13.555
70855ION    NA+41455  30.994  24.255   0.035
70856ION    NA+41456   2.216  21.723   4.437
70857ION    NA+41457  20.444  19.556   0.476
70858ION    NA+41458   4.967   5.452   0.235
70859ION    NA+41459  25.124  42.326  13.964
70860ION    NA+41460  36.667   4.409   0.012
70861ION    NA+41461  28.556   9.627  14.003
70862ION    NA+41462  40.312   8.660   3.646
70863ION    NA+41463  28.253   6.208   5.051
70864ION    NA+41464  28.437   2.822   2.442
70865ION    NA+41465  15.263  28.084  10.735
70866ION    NA+41466  31.010  36.444  12.938
70867ION    NA+41467  25.708  19.075  12.126
70868ION    NA+41468  38.880   7.508  11.610
70869ION    NA+41469  38.181  29.721   2.859
70870ION    NA+41470  33.842   8.617   1.363
70871ION    NA+41471  11.657  30.374   0.060
70872ION    NA+41472  38.523  27.959  14.910
70873ION    NA+41473  33.913  36.034   2.268
70874ION    NA+41474   4.119  30.025   4.932
70875ION    NA+41475  23.075  41.330  11.591
70876ION    NA+41476  11.317  18.000  12.381
70877ION    NA+41477  37.101   7.215  10.600
70878ION    NA+41478   1.824  19.084   0.378
70879ION    NA+41479  29.583  19.906   3.688
70880ION    NA+41480  39.735  30.334   3.504
70881ION    NA+41481  24.681  18.671   4.959
70882ION    NA+41482  42.560  18.443  13.900
70883ION    NA+41483  40.747  14.652   3.343
70884ION    NA+41484  10.018  35.951   3.295
70885ION    NA+41485  37.423  12.277   2.417
70886ION    NA+41486  34.743  21.435   0.402
70887ION    NA+41487   4.171   2.915  11.065
70888ION    NA+41488  29.136  20.476   1.633
70889ION    NA+41489  26.768  10.998   2.329
70890ION    NA+41490  21.667  26.517   0.371
70891ION    NA+41491  31.451  23.102  14.074
70892ION    NA+41492  28.463   2.267   4.585
70893ION    NA+41493  11.639  14.111  12.459
70894ION    NA+41494  12.797  24.890   3.107
70895ION    NA+41495  41.712   0.365   3.100
70896ION    NA+41496  13.858  37.607   4.595
70897ION    NA+41497  25.173   6.647   2.877
70898ION    NA+41498  33.340  19.305   3.293
70899ION    NA+41499  14.251  27.445   3.551
70900ION    NA+41500   6.355   7.398  12.304
70901ION    NA+41501   0.583  42.036  14.489
70902ION    NA+41502  34.985  29.327  13.007
70903ION    NA+41503  28.110   1.299   0.017
70904ION    NA+41504  39.117   4.361  12.584
70905ION    NA+41505   3.678  11.247  13.353
70906ION    NA+41506   7.594  22.251  12.841
70907ION    NA+41507   0.650  17.706  13.486
70908ION    NA+41508  44.490  16.450  11.207
70909ION    NA+41509  30.200  10.638  11.973
70910ION    NA+41510  16.689  37.178   4.409
70911ION    NA+41511   6.153   8.715   9.785
70912ION    NA+41512   5.892   9.533  11.807
70913ION    NA+41513  27.646  10.183   3.267
70914ION    NA+41514  12.354   3.309   0.730
70915ION    NA+41515   5.611  39.930   2.714
70916ION    NA+41516  37.106  42.346   0.378
70917ION    NA+41517   8.722  28.822   2.618
70918ION    NA+41518  23.106  19.163  14.272
70919ION    NA+41519  43.346  38.053   1.910
70920ION    NA+41520  16.009  22.793  12.623
70921ION    NA+41521  40.164  22.461   9.481
70922ION    NA+41522   7.126  38.666  14.366
70923ION    NA+41523   3.135  26.402  12.215
70924ION    NA+41524  28.869  16.281   4.106
70925ION    NA+41525   1.957  41.669  12.910
70926ION    NA+41526  34.438  17.407   4.374
70927ION    NA+41527  35.511  32.586   4.620
70928ION    NA+41528  32.145  30.878  13.459
70929ION    NA+41529   6.388   0.385  14.508
70930ION    NA+41530   8.364  40.563  14.319
70931ION    NA+41531   0.862  34.519   0.029
70932ION    NA+41532  24.599  36.113   1.395
70933ION    NA+41533  26.159  14.833   1.536
70934ION    NA+41534  25.259  27.488  10.859
70935ION    NA+41535  26.257  38.973  11.555
70936ION    NA+41536   3.494   8.777  11.448
70937ION    NA+41537  33.891  15.233  13.484
70938ION    NA+41538  42.761  15.309   2.782
70939ION    NA+41539   6.621   9.930  10.733
70940ION    NA+41540  11.940  40.413   1.687
70941ION    NA+41541  44.491   1.922  13.658
70942ION    NA+41542  20.318  27.601  14.032
70943ION    NA+41543  44.115   3.038  13.802
70944ION    NA+41544   8.964   1.984   2.781
70945ION    NA+41545   0.192  27.603  13.760
70946ION    NA+41546  35.692  15.097   4.130
70947ION    NA+41547   2.903  10.306  12.074
70948ION    NA+41548  10.289   4.064  14.056
70949ION    NA+41549  12.697  36.230  14.163
70950ION    NA+41550  16.853   0.170  12.341
70951ION    NA+41551  22.138  12.894   2.776
70952ION    NA+41552  25.351   0.746   3.322
70953ION    NA+41553  44.743  29.295  12.810
70954ION    NA+41554  27.229   0.053   2.271
70955ION    NA+41555  41.314   3.993   4.567
70956ION    NA+41556  42.915  31.852  13.995
70957ION    NA+41557  26.866  41.066  13.966
70958ION    NA+41558  41.816  40.859  14.213
70959ION    NA+41559  33.915  40.685   2.148
70960ION    NA+41560   1.498  10.362  12.946
70961ION    NA+41561  44.207  16.088   2.320
70962ION    NA+41562  14.234  14.837  14.968
70963ION    NA+41563   8.461  31.849   1.457
70964ION    NA+41564  29.220  25.265  12.052
70965ION    NA+41565  23.722   0.660   2.237
70966ION    NA+41566  31.858  13.482   1.136
70967ION    NA+41567  20.866  36.200  14.404
70968ION    NA+41568  37.730  27.088  13.743
70969ION    NA+41569  23.522  43.908  12.246
70970ION    NA+41570  42.309  25.552   1.827
70971ION    NA+41571  14.730  29.387   0.419
70972ION    NA+41572  30.982  16.765  14.367
70973ION    NA+41573   0.760  38.381  12.945
70974ION    NA+41574  18.239  43.626  11.483
70975ION    NA+41575  14.322  25.217   0.687
70976ION    NA+41576  30.797  26.047  11.440
70977ION    NA+41577  35.442   1.136   1.323
70978ION    NA+41578  41.351  15.875   1.887
70979ION    NA+41579  32.545  15.630  13.498
70980ION    NA+41580  20.810  42.071  11.847
70981ION    NA+41581  25.243  19.810  10.155
70982ION    NA+41582   6.254   3.171   3.970
70983ION    NA+41583  43.423  24.228   0.207
70984ION    NA+41584  42.977  21.314   1.162
70985ION    NA+41585  20.685  27.429  11.638
70986ION    NA+41586  41.134  33.258  13.696
70987ION    NA+41587   8.042  17.870   0.416
70988ION    NA+41588  18.606   8.370   3.896
70989ION    NA+41589  40.225  34.816   3.194
70990ION    NA+41590  32.474   6.764  12.280
70991ION    NA+41591   2.461  12.120  11.171
70992ION    NA+41592   0.094   3.507   3.359
70993ION    NA+41593  21.179  15.454   4.093
70994ION    NA+41594  34.351   6.906   2.858
70995ION    NA+41595  14.619  40.980   0.371
70996ION    NA+41596  44.014   3.907  10.953
70997ION    NA+41597   6.981  26.532  14.115
70998ION    NA+41598  44.181  35.450   2.793
70999ION    NA+41599  32.576  44.302  11.947
71000ION    NA+41600  20.033  26.277  11.864
71001ION    NA+41601  29.492  33.231   1.946
71002ION    NA+41602  17.061  35.544   2.228
71003ION    NA+41603  31.368   9.815   3.243
71004ION    NA+41604   7.337  14.854  10.800
71005ION    NA+41605  12.283  22.128   1.441
71006ION    NA+41606  30.282  33.233  10.789
71007ION    NA+41607   2.861  38.880  12.542
71008ION    NA+41608   8.716  43.572   1.532
71009ION    NA+41609  23.304  25.463   3.278
71010ION    NA+41610  19.597  11.490  11.531
71011ION    NA+41611   0.680  41.095  13.805
71012ION    NA+41612   6.420   2.253  12.033
71013ION    NA+41613  38.419  30.217   2.133
71014ION    NA+41614   3.207  38.602   3.250
71015ION    NA+41615   4.635  26.236  10.313
71016ION    NA+41616  25.854   7.745  14.845
71017ION    NA+41617  44.709  25.152   5.222
71018ION    NA+41618  26.143  29.106   2.748
71019ION    NA+41619  38.958  12.441  12.856
71020ION    NA+41620  19.112   7.184  13.832
71021ION    NA+41621  20.042  37.186  12.368
71022ION    NA+41622  12.432  20.184   2.331
71023ION    NA+41623  17.539  37.075  14.606
71024ION    NA+41624   1.756   5.892   4.262
71025ION    NA+41625  26.783  42.285  14.848
71026ION    NA+41626   0.006  32.863   2.674
71027ION    NA+41627   7.426   3.259   1.708
71028ION    NA+41628  13.466  36.936   1.016
71029ION    NA+41629   0.319  35.905  10.650
71030ION    NA+41630   0.949  11.951  11.729
71031ION    NA+41631  26.218  40.375   3.316
71032ION    NA+41632   2.739  32.577  10.715
71033ION    NA+41633  21.557  40.802   3.877
71034ION    NA+41634  27.185   0.071  14.366
71035ION    NA+41635  19.096  41.367   1.880
71036ION    NA+41636   8.700  14.777   2.829
71037ION    NA+41637  17.195   0.372   1.605
71038ION    NA+41638  21.433  30.153   1.589
71039ION    NA+41639   9.587   1.234   0.706
71040ION    NA+41640  35.538  11.457  12.710
71041ION    NA+41641  17.491  16.868  11.287
71042ION    NA+41642  16.658   4.842   2.103
71043ION    NA+41643  17.092   7.237   0.303
71044ION    NA+41644   2.651  19.221  12.473
71045ION    NA+41645   1.900   7.990   0.725
71046ION    NA+41646  21.436   4.682  13.062
71047ION    NA+41647  22.973  27.036   3.182
71048ION    NA+41648  24.906   1.585   3.634
71049ION    NA+41649  25.429  26.319  13.469
71050ION    NA+41650   6.248  26.491  14.885
71051ION    NA+41651  41.803  30.628   5.465
71052ION    NA+41652   6.510  27.839   2.119
71053ION    NA+41653  34.341  14.052   0.700
71054ION    NA+41654   2.809  39.263   0.333
71055ION    NA+41655  35.425  13.832  14.723
71056ION    NA+41656  17.268  30.556  12.706
71057ION    NA+41657  12.608   8.403   2.796
71058ION    NA+41658  34.141  21.200   1.784
71059ION    NA+41659  44.939  34.328   0.908
71060ION    NA+41660  39.886  31.384   0.025
71061ION    NA+41661  27.324  36.598   3.875
71062ION    NA+41662  23.985   8.725  14.172
71063ION    NA+41663   6.331   7.930  11.458
71064ION    NA+41664  37.143  43.124  14.255
71065ION    NA+41665  16.571  38.502  13.566
71066ION    NA+41666  38.545  41.059   2.844
71067ION    NA+41667   9.801   2.729  12.149
71068ION    NA+41668   0.360  20.770  14.990
71069ION    NA+41669  40.965  25.216  12.494
71070ION    NA+41670  39.247  15.405  14.918
71071ION    NA+41671  17.141  38.145   1.830
71072ION    NA+41672   6.780  38.266   3.109
71073ION    NA+41673  36.620  27.180   4.543
71074ION    NA+41674  12.695   9.497  12.047
71075ION    NA+41675   5.739  44.493  11.447
71076ION    NA+41676  42.146  23.402  14.970
71077ION    NA+41677  21.527  30.972  10.852
71078ION    NA+41678  19.774  30.061   0.373
71079ION    NA+41679  21.460  23.958  13.875
71080ION    NA+41680   2.261  15.082  12.483
71081ION    NA+41681  10.415   5.347   0.921
71082ION    NA+41682  44.303  42.623   4.325
71083ION    NA+41683  26.096  16.063   0.869
71084ION    NA+41684  29.017  20.158  12.673
71085ION    NA+41685  42.942  40.285   0.422
71086ION    NA+41686   2.311   5.688   1.415
71087ION    NA+41687  13.602  13.373   0.263
71088ION    NA+41688  37.105   7.480  13.481
71089ION    NA+41689   8.073   1.818  10.240
71090ION    NA+41690   3.804  38.638   9.781
71091ION    NA+41691  25.428  43.400   2.682
71092ION    NA+41692  21.544  38.869   2.573
71093ION    NA+41693  32.997  39.918   4.125
71094ION    NA+41694  29.020  15.117  10.336
71095ION    NA+41695  27.782   3.277   1.738
71096ION    NA+41696   5.073  24.670  11.894
71097ION    NA+41697  28.661   4.361  12.527
71098ION    NA+41698  18.318  37.940  14.938
71099ION    NA+41699  29.117  18.565  13.535
71100ION    NA+41700  33.552   5.395   0.169
71101ION    NA+41701  12.760  18.894   1.267
71102ION    NA+41702  20.125   8.780   1.915
71103ION    NA+41703  23.538  16.690   1.322
71104ION    NA+41704  28.350  17.311  12.540
71105ION    NA+41705   9.184  25.743  12.258
71106ION    NA+41706  20.585  42.932   4.117
71107ION    NA+41707   3.077  30.173  12.352
71108ION    NA+41708  25.219  30.430   2.471
71109ION    NA+41709  43.013  34.344  12.035
71110ION    NA+41710  40.256   4.001   3.238
71111ION    NA+41711   2.755  33.455  14.037
71112ION    NA+41712  17.864  14.583   4.901
71113ION    NA+41713   2.809  40.640   2.502
71114ION    NA+41714  30.059  10.189   4.239
71115ION    NA+41715  11.919  16.097  11.628
71116ION    NA+41716   4.239   3.473  12.103
71117ION    NA+41717  15.319  14.711   0.721
71118ION    NA+41718  23.792  12.253  14.292
71119ION    NA+41719   0.515  40.542  10.779
71120ION    NA+41720  38.546  19.060  12.532
71121ION    NA+41721  10.740  26.764  14.753
71122ION    NA+41722  24.986  44.099  11.771
71123ION    NA+41723  14.014   8.887   0.765
71124ION    NA+41724   9.070  35.772  14.427
71125ION    NA+41725  23.321  19.438   3.726
71126ION    NA+41726   3.551  24.678  14.104
71127ION    NA+41727  16.197  13.612  13.144
71128ION    NA+41728  32.174   1.105   9.827
71129ION    NA+41729  10.690   8.792   3.608
71130ION    NA+41730  11.269  30.177  10.550
71131ION    NA+41731   1.373   0.376  12.885
71132ION    NA+41732  41.141  22.723  14.167
71133ION    NA+41733   7.440  19.457  10.723
71134ION    NA+41734  23.867  36.706   0.444
71135ION    NA+41735  27.960  21.195   1.442
71136ION    NA+41736  31.026  40.634  14.235
71137ION    NA+41737  12.306  13.989   5.273
71138ION    NA+41738  20.707  39.906   0.682
71139ION    NA+41739  12.282  38.516  14.334
71140ION    NA+41740   8.942  22.263  12.928
71141ION    NA+41741   7.817  41.942   1.626
71142ION    NA+41742   4.601  40.201   2.843
71143ION    NA+41743  26.627   1.673  13.974
71144ION    NA+41744  11.665  13.047   3.656
71145ION    NA+41745  29.394  30.557  12.095
71146ION    NA+41746  25.148  33.517   2.014
71147ION    NA+41747  14.142  10.192   2.857
71148ION    NA+41748  10.709  43.634   3.527
71149ION    NA+41749   4.527  38.275   3.869
71150ION    NA+41750  13.962   3.305  12.157
71151ION    NA+41751  23.047  40.617   1.850
71152ION    NA+41752  33.523  40.144  11.333
71153ION    NA+41753  41.496  10.484   4.981
71154ION    NA+41754  41.390  35.239   1.264
71155ION    NA+41755  34.936  22.495  12.936
71156ION    NA+41756  25.336  23.773  14.033
71157ION    NA+41757  35.641  35.519  12.262
71158ION    NA+41758  12.283  28.046  14.530
71159ION    NA+41759  15.695   5.643  12.174
71160ION    NA+41760   1.075   7.845   0.356
71161ION    NA+41761  31.872  34.001  11.118
71162ION    NA+41762  34.265  23.885   2.683
71163ION    NA+41763   7.334  19.158   2.839
71164ION    NA+41764  17.487  19.370  14.515
71165ION    NA+41765  14.264   6.260   0.990
71166ION    NA+41766  17.322  37.399   0.890
71167ION    NA+41767   2.689  27.213   1.495
71168ION    NA+41768   7.904  28.289   4.134
71169ION    NA+41769  11.203  38.076   0.258
71170ION    NA+41770  36.441  11.766  12.409
71171ION    NA+41771  41.985  38.083   2.160
71172ION    NA+41772  38.142  40.655  13.086
71173ION    NA+41773   1.324   8.791   0.566
71174ION    NA+41774  41.753  26.653   1.689
71175ION    NA+41775  28.788  11.086  13.187
71176ION    NA+41776  21.046  16.539   2.648
71177ION    NA+41777   1.927  23.071   3.659
71178ION    NA+41778  42.174  43.322   2.820
71179ION    NA+41779  21.558  30.791   0.918
71180ION    NA+41780  15.313  30.531  10.670
71181ION    NA+41781  29.689   5.190   0.799
71182ION    NA+41782  43.042   9.428  10.592
71183ION    NA+41783  17.864  10.145  12.042
71184ION    NA+41784  27.235  44.395  13.754
71185ION    NA+41785  37.006  11.097  12.674
71186ION    NA+41786  31.556  25.840  10.823
71187ION    NA+41787  16.716  41.591  10.361
71188ION    NA+41788   7.712  35.767   4.553
71189ION    NA+41789  44.101  33.791  13.314
71190ION    NA+41790  13.580  23.895   3.082
71191ION    NA+41791  33.433  21.924   3.792
71192ION    NA+41792  35.378  35.882   0.172
71193ION    NA+41793  32.004  14.413   1.470
71194ION    NA+41794   4.211  19.640  12.944
71195ION    NA+41795   4.446  35.767  11.902
71196ION    NA+41796  36.945   4.989   2.741
71197ION    NA+41797  18.772  28.127   4.058
71198ION    NA+41798   5.279   6.278   1.671
71199ION    NA+41799   6.847  10.303   0.250
71200ION    NA+41800  19.139  39.515  10.651
71201ION    NA+41801  28.878  28.837  13.250
71202ION    NA+41802  44.518   2.909   4.072
71203ION    NA+41803   7.688   9.458   0.903
71204ION    NA+41804  32.103  30.891   2.684
71205ION    NA+41805   2.676  41.097   3.393
71206ION    NA+41806  43.747  10.395  11.909
71207ION    NA+41807  20.813  17.396   3.307
71208ION    NA+41808   8.553  28.173   4.694
71209ION    NA+41809  26.993  16.855   0.959
71210ION    NA+41810  14.124  43.269   3.097
71211ION    NA+41811  26.494  35.944  10.640
71212ION    NA+41812  11.281  25.610   2.650
71213ION    NA+41813  39.453  39.696   0.680
71214ION    NA+41814   1.195  16.309   1.191
71215ION    NA+41815  36.042  27.505  10.362
71216ION    NA+41816  32.370   6.435   5.061
71217ION    NA+41817  20.181  35.882  13.746
71218ION    NA+41818  15.837   4.490   1.950
71219ION    NA+41819  36.192   9.095  10.358
71220ION    NA+41820  18.714   8.123   2.933
71221ION    NA+41821  19.240  14.857  14.379
71222ION    NA+41822  15.308  36.099  10.709
71223ION    NA+41823   7.168  25.274  11.142
71224ION    NA+41824  31.305  30.740   1.446
71225ION    NA+41825  32.932   9.104  11.611
71226ION    NA+41826  12.169  34.124  14.592
71227ION    NA+41827  27.523   8.828   0.108
71228ION    NA+41828  40.586  26.380   2.760
71229ION    NA+41829  11.680  36.405  12.742
71230ION    NA+41830  43.051  29.231   0.765
71231ION    NA+41831  16.097  21.231  11.711
71232ION    NA+41832   5.492  30.488  11.252
71233ION    NA+41833  37.083  19.130   2.298
71234ION    NA+41834  21.204  10.669   4.245
71235ION    NA+41835   9.374  34.359   1.227
71236ION    NA+41836  26.937  24.960   0.439
71237ION    NA+41837  37.016   1.463   4.506
71238ION    NA+41838  22.770  11.627   2.817
71239ION    NA+41839  12.192  33.210  11.642
71240ION    NA+41840  26.150  20.569  10.324
71241ION    NA+41841   2.159  14.886   4.309
71242ION    NA+41842  17.859  42.722  10.612
71243ION    NA+41843  18.038  32.361  14.903
71244ION    NA+41844   1.413  26.514  14.252
71245ION    NA+41845  23.020  24.003   3.207
71246ION    NA+41846  20.149  32.121  14.622
71247ION    NA+41847  24.439   3.642   1.032
71248ION    NA+41848  27.003   2.277   4.766
71249ION    NA+41849  15.512  12.267  12.065
71250ION    NA+41850  34.282  34.431   0.506
71251ION    NA+41851  20.754  12.212  13.485
71252ION    NA+41852   9.915  23.206  11.940
71253ION    NA+41853   9.172  35.215   0.251
71254ION    NA+41854  11.569   8.933   4.615
71255ION    NA+41855  18.314  32.336  11.350
71256ION    NA+41856  43.010  33.149   1.178
71257ION    NA+41857  15.394  33.807  11.552
71258ION    NA+41858  17.300   6.858   1.206
71259ION    NA+41859  42.411  33.091  13.884
71260ION    NA+41860  43.038  24.624  12.780
71261ION    NA+41861   8.712  25.369  13.148
71262ION    NA+41862  33.151  12.162  12.887
71263ION    NA+41863  28.506  10.515  14.188
71264ION    NA+41864  29.894  15.563  10.691
71265ION    NA+41865  13.145   1.307   3.808
71266ION    NA+41866  13.142  39.409   4.957
71267ION    NA+41867  12.744  34.355   2.275
71268ION    NA+41868  32.493  26.182  10.751
71269ION    NA+41869   0.515  41.067  11.536
71270ION    NA+41870   6.234  42.745  10.465
71271ION    NA+41871   1.376  22.546  10.749
71272ION    NA+41872  24.662  29.960   3.403
71273ION    NA+41873  22.293  31.216   3.570
71274ION    NA+41874  13.532   0.730  11.220
71275ION    NA+41875  22.181  41.814  11.971
71276ION    NA+41876  44.765  36.784  12.282
71277ION    NA+41877  24.935  14.702   4.420
71278ION    NA+41878   9.316  17.360  11.992
71279ION    NA+41879   6.405  11.105  10.221
71280ION    NA+41880  38.795  34.596  12.599
71281ION    NA+41881  25.154  20.693  10.724
71282ION    NA+41882   6.697  15.324  11.567
71283ION    NA+41883  11.858   6.955  12.544
71284ION    NA+41884  30.455  42.628   5.458
71285ION    NA+41885   3.100   6.185   0.281
71286ION    NA+41886   2.804  41.892  13.231
71287ION    NA+41887   7.968  12.897  14.856
71288ION    NA+41888  43.144  10.187   2.268
71289ION    NA+41889  10.283  10.842  14.046
71290ION    NA+41890  11.325  20.773   3.766
71291ION    NA+41891   9.922  37.243  10.352
71292ION    NA+41892  32.636   4.820  14.801
71293ION    NA+41893   0.968   5.454   3.101
71294ION    NA+41894  17.493  14.454  11.490
71295ION    NA+41895  43.134   4.673   3.546
71296ION    NA+41896  34.404   2.788   0.861
71297ION    NA+41897  25.085  11.624  14.379
71298ION    NA+41898  21.995   8.400   1.780
71299ION    NA+41899   8.226  37.633   2.160
71300ION    NA+41900  41.538   1.429  11.169
71301ION    NA+41901  19.283  24.643   4.349
71302ION    NA+41902  13.276  23.034   2.631
71303ION    NA+41903  44.875  37.759  14.096
71304ION    NA+41904   6.186   0.813   0.389
71305ION    NA+41905   9.617  31.647   0.864
71306ION    NA+41906  41.881  19.557   2.223
71307ION    NA+41907  23.449  19.035   1.558
71308ION    NA+41908  26.084  30.200  12.003
71309ION    NA+41909  27.175  10.692  14.555
71310ION    NA+41910  40.946  23.306  13.304
71311ION    NA+41911  26.578  35.582   1.711
71312ION    NA+41912  11.567   6.498   1.047
71313ION    NA+41913  27.386  10.248  10.459
71314ION    NA+41914   1.943   6.404  13.382
71315ION    NA+41915  22.875   3.433  12.994
71316ION    NA+41916  18.668  32.176   2.301
71317ION    NA+41917  22.646  30.025  11.619
71318ION    NA+41918  41.150  39.545  11.189
71319ION    NA+41919  33.881   5.709  11.907
71320ION    NA+41920  28.379  25.207   2.363
71321ION    NA+41921   7.667  36.322  13.845
71322ION    NA+41922  36.582  26.195   2.518
71323ION    NA+41923  24.540  42.997   1.865
71324ION    NA+41924   9.075  25.384   2.619
71325ION    NA+41925   2.301  43.963  12.074
71326ION    NA+41926  44.094  27.485  11.966
71327ION    NA+41927   3.165  35.015   2.391
71328ION    NA+41928   9.122  20.620   2.730
71329ION    NA+41929   5.774   2.760   1.808
71330ION    NA+41930  19.465  19.662   0.284
71331ION    NA+41931  27.978  19.523   2.001
71332ION    NA+41932  13.060  23.999  13.966
71333ION    NA+41933  23.798  16.026   0.620
71334ION    NA+41934  27.373  35.249   0.595
71335ION    NA+41935  10.659  30.676  11.184
71336ION    NA+41936  33.508  25.020  14.259
71337ION    NA+41937  32.961   6.422   2.014
71338ION    NA+41938  28.387  31.613  12.580
71339ION    NA+41939   3.736  32.821   1.446
71340ION    NA+41940   8.119  21.282   3.661
71341ION    NA+41941   6.628  13.820   0.078
71342ION    NA+41942  21.009   8.996   3.495
71343ION    NA+41943  23.020  34.974  14.462
71344ION    NA+41944   0.157  22.274   1.817
71345ION    NA+41945   4.679  17.580  11.090
71346ION    NA+41946  32.998  22.971   4.170
71347ION    NA+41947  44.242   8.837  12.357
71348ION    NA+41948  38.486  42.843   3.267
71349ION    NA+41949  37.045   3.545   1.041
71350ION    NA+41950  21.160  37.944  11.441
71351ION    NA+41951   4.238  29.300  10.077
71352ION    NA+41952  17.416  30.010   4.674
71353ION    NA+41953  44.640  17.709   0.048
71354ION    NA+41954  22.295  37.095  11.465
71355ION    NA+41955   5.762  28.486  12.956
71356ION    NA+41956  34.858   9.773  13.121
71357ION    NA+41957  21.961   6.679   1.460
71358ION    NA+41958  19.132  12.583   2.567
71359ION    NA+41959   9.864  43.993  14.296
71360ION    NA+41960   9.304   7.591   4.491
71361ION    NA+41961  33.148   4.445  11.609
71362ION    NA+41962   4.240  15.322  14.539
71363ION    NA+41963  11.937  44.444  10.800
71364ION    NA+41964  41.337   0.228   1.971
71365ION    NA+41965   5.882  21.680  11.539
71366ION    NA+41966  42.365  21.323   3.285
71367ION    NA+41967  17.074  24.467   4.209
71368ION    NA+41968  40.013  33.972   0.082
71369ION    NA+41969  14.706  27.924  11.991
71370ION    NA+41970  23.959  27.189   3.245
71371ION    NA+41971  39.033  22.368   1.864
71372ION    NA+41972  40.767  44.000   3.872
71373ION    NA+41973  28.049  22.319   0.312
71374ION    NA+41974  18.047  18.116   1.762
71375ION    NA+41975  40.835  33.576   1.299
71376ION    NA+41976  33.307   5.058  13.378
71377ION    NA+41977  36.935   0.714   0.961
71378ION    NA+41978  34.940  42.804  10.818
71379ION    NA+41979  15.475  16.187  13.957
71380ION    NA+41980  13.659   1.745  12.344
71381ION    NA+41981  26.331  28.914   1.276
71382ION    NA+41982  19.502  36.873  13.455
71383ION    NA+41983  10.307   1.877   1.499
71384ION    NA+41984  14.018  35.183  13.499
71385ION    NA+41985  41.598  22.978  10.355
71386ION    NA+41986  30.126   2.258  14.806
71387ION    NA+41987   3.356  40.074   0.545
71388ION    NA+41988  31.327   5.291   3.125
71389ION    NA+41989  26.901   3.823  13.492
71390ION    NA+41990  21.697   4.810   9.845
71391ION    NA+41991  10.356  38.691   1.763
71392ION    NA+41992  17.233  10.148   3.630
71393ION    NA+41993  24.498  43.620  12.356
71394ION    NA+41994   4.729  39.252   3.931
71395ION    NA+41995  37.947  15.408   3.630
71396ION    NA+41996  30.402  32.663   2.653
71397ION    NA+41997  23.255  24.486   0.841
71398ION    NA+41998  10.801  39.777   1.441
71399ION    NA+41999  20.616  31.852  13.871
71400ION    NA+42000  22.986  43.068  13.378
71401ION    NA+42001   4.019  18.099  11.411
71402ION    NA+42002  10.817  23.391   4.650
71403ION    NA+42003  20.125  31.980  12.103
71404ION    NA+42004   2.170  29.736   1.408
71405ION    NA+42005  26.101  23.228  11.222
71406ION    NA+42006  25.543  44.619  10.051
71407ION    NA+42007   6.924   3.454  12.525
71408ION    NA+42008  33.665  25.735   0.486
71409ION    NA+42009  25.962   0.261   9.664
71410ION    NA+42010  43.740  22.609   3.860
71411ION    NA+42011  28.902  26.199  10.694
71412ION    NA+42012  32.853  42.862  11.511
71413ION    NA+42013  40.300   0.696  12.782
71414ION    NA+42014  20.481  13.641   4.421
71415ION    NA+42015  20.142   3.610   0.689
71416ION    NA+42016  27.254  33.183  11.666
71417ION    NA+42017  35.103   2.935   2.081
71418ION    NA+42018  36.483  42.108   4.693
71419ION    NA+42019  25.830  14.353   4.700
71420ION    NA+42020  24.790  37.651  12.505
71421ION    NA+42021  44.830  42.775  11.206
71422ION    NA+42022  35.448  35.722  11.406
71423ION    NA+42023   2.407   9.827   4.095
71424ION    NA+42024  19.636  13.634  13.596
71425ION    NA+42025   8.568  30.564   2.509
71426ION    NA+42026  32.957  13.293   2.524
71427ION    NA+42027  35.863  41.164  14.958
71428ION    NA+42028  29.509  15.602   3.461
71429ION    NA+42029  40.063  39.013  10.828
71430ION    NA+42030  44.338  26.591  13.805
71431ION    NA+42031  35.874   6.724   2.265
71432ION    NA+42032   1.479  21.521   0.870
71433ION    NA+42033  11.039  34.057   1.676
71434ION    NA+42034   3.660  44.932   2.814
71435ION    NA+42035   7.870  30.126  10.845
71436ION    NA+42036  15.031  17.021   0.316
71437ION    NA+42037  18.739  43.947   3.158
71438ION    NA+42038  36.915  37.563   4.588
71439ION    NA+42039  24.967  24.123   0.006
71440ION    NA+42040   4.371  16.108   0.509
71441ION    NA+42041  17.987  37.922  10.654
71442ION    NA+42042  43.574  19.999  14.027
71443ION    NA+42043  42.438  12.516  13.470
71444ION    NA+42044  26.937  11.711   3.204
71445ION    NA+42045   8.594  34.516   1.642
71446ION    NA+42046   1.829  27.573  12.018
71447ION    NA+42047  35.219  38.370   1.531
71448ION    NA+42048   0.462  34.890   2.676
71449ION    NA+42049  10.734  10.221   2.686
71450ION    NA+42050   9.741  16.728   0.481
71451ION    NA+42051  16.678  33.196  13.543
71452ION    NA+42052  18.744  39.109   4.505
71453ION    NA+42053  14.896   5.541  10.738
71454ION    NA+42054  38.795   5.917  14.003
71455ION    NA+42055  32.811  44.908  14.425
71456ION    NA+42056  34.229  41.644   1.611
71457ION    NA+42057  15.429  12.216   1.944
71458ION    NA+42058   8.120  29.461  14.296
71459ION    NA+42059  33.707  38.419   2.092
71460ION    NA+42060  36.589  40.264   4.400
71461ION    NA+42061  41.670  23.488   3.575
71462ION    NA+42062   7.176   2.767   4.109
71463ION    NA+42063  24.984  30.350  12.961
71464ION    NA+42064   5.536   1.872  14.679
71465ION    NA+42065  37.047  21.741   4.631
71466ION    NA+42066  42.773   0.473   2.364
71467ION    NA+42067  11.392  21.719   1.794
71468ION    NA+42068   7.426  36.002  11.441
71469ION    NA+42069   7.109  11.871  14.476
71470ION    NA+42070  39.376  26.141   0.981
71471ION    NA+42071  42.307  10.479  14.309
71472ION    NA+42072  34.809  40.403   4.239
71473ION    NA+42073  31.032  27.918   1.688
71474ION    NA+42074   5.299  22.335  13.921
71475ION    NA+42075  36.024  22.420  11.240
71476ION    NA+42076  25.977  30.846  14.379
71477ION    NA+42077   6.511  41.836   3.043
71478ION    NA+42078  27.623  25.048  10.651
71479ION    NA+42079  26.322   2.532   0.181
71480ION    NA+42080  23.933   0.512   1.255
71481ION    NA+42081  14.799  27.707   2.842
71482ION    NA+42082  17.793   3.966   3.635
71483ION    NA+42083  32.223  23.496  12.360
71484ION    NA+42084  33.239  38.982   1.579
71485ION    NA+42085  31.627  30.771  11.655
71486ION    NA+42086  22.124  23.512   3.961
71487ION    NA+42087  22.869  15.735   2.322
71488ION    NA+42088   4.843   2.349   1.763
71489ION    NA+42089   4.949  28.994  12.674
71490ION    NA+42090  13.321  21.476   1.349
71491ION    NA+42091  11.252  37.416   5.063
71492ION    NA+42092   9.940  14.117  13.957
71493ION    NA+42093  10.435  41.502  13.449
71494ION    NA+42094  40.920  23.466   0.335
71495ION    NA+42095  40.407  43.752   2.294
71496ION    NA+42096  14.037  32.422   3.691
71497ION    NA+42097  30.006  16.378  14.322
71498ION    NA+42098  13.293  12.407   2.186
71499ION    NA+42099  24.454  11.848   2.658
71500ION    NA+42100   2.372  42.954   0.654
71501ION    NA+42101  10.010  19.197   4.081
71502ION    NA+42102   9.628  28.463   2.841
71503ION    NA+42103  29.198  10.704   1.825
71504ION    NA+42104  44.454  28.161   3.478
71505ION    NA+42105  19.827  41.659  13.592
71506ION    NA+42106  33.424  38.535  13.949
71507ION    NA+42107  20.703  36.888   3.810
71508ION    NA+42108  17.556  38.785  13.327
71509ION    NA+42109  28.914  12.842   4.728
71510ION    NA+42110  39.554  20.281  14.722
71511ION    NA+42111  20.242   4.300   3.129
71512ION    NA+42112  39.517  28.226  13.330
71513ION    NA+42113  13.184  31.117   4.025
71514ION    NA+42114   8.350  23.881  13.842
71515ION    NA+42115   3.856   9.653   2.817
71516ION    NA+42116  41.463  26.639   0.474
71517ION    NA+42117  29.177  31.907   4.174
71518ION    NA+42118  20.802   0.553   2.676
71519ION    NA+42119   8.240  19.781   1.937
71520ION    NA+42120  12.028  22.837  12.350
71521ION    NA+42121  19.067  17.886   4.196
71522ION    NA+42122  10.758  12.409   2.539
71523ION    NA+42123  20.345   0.072  11.331
71524ION    NA+42124  38.445  14.167  11.413
71525ION    NA+42125  27.513  28.590  11.483
71526ION    NA+42126  19.803  30.546   1.282
71527ION    NA+42127   2.849  20.370   3.202
71528ION    NA+42128  13.101   2.966  13.899
71529ION    NA+42129  22.498  29.097  10.210
71530ION    NA+42130  44.241  38.780   4.186
71531ION    NA+42131  39.499  29.573   4.109
71532ION    NA+42132  13.319   2.314   1.396
71533ION    NA+42133  23.508   4.285   0.550
71534ION    NA+42134  41.387  23.952  12.073
71535ION    NA+42135  17.397  29.281   3.366
71536ION    NA+42136  43.475   1.523  14.792
71537ION    NA+42137  24.473  25.147  11.394
71538ION    NA+42138   7.420  42.802  12.316
71539ION    NA+42139  15.814  40.391   3.188
71540ION    NA+42140  20.104  12.258   2.449
71541ION    NA+42141  34.828  30.598   3.111
71542ION    NA+42142   7.939  12.611  12.043
71543ION    NA+42143  17.436   9.415  11.509
71544ION    NA+42144   7.235  33.765   5.172
71545ION    NA+42145  38.739   0.823  14.859
71546ION    NA+42146   9.487   6.062  12.022
71547ION    NA+42147  39.613   1.872   4.005
71548ION    NA+42148  24.943  37.147  14.326
71549ION    NA+42149  18.780   3.324  11.074
71550ION    NA+42150  32.937  15.382   2.529
71551ION    NA+42151  24.663  30.712  14.523
71552ION    NA+42152   6.437  40.966   2.389
71553ION    NA+42153  35.684  33.932  11.363
71554ION    NA+42154  17.230  23.374   3.371
71555ION    NA+42155  16.349  43.896  12.809
71556ION    NA+42156  32.364  26.292  12.081
71557ION    NA+42157  24.022  41.279  14.762
71558ION    NA+42158  24.958  28.388  11.177
71559ION    NA+42159  21.467   1.331  14.325
71560ION    NA+42160  28.171  18.394   1.724
71561ION    NA+42161  22.127  37.977  13.699
71562ION    NA+42162  15.673  33.037   1.085
71563ION    NA+42163  16.897   7.456   3.846
71564ION    NA+42164  41.958   9.986   2.587
71565ION    NA+42165  29.730  29.180  13.011
71566ION    NA+42166  35.637  23.125   3.080
71567ION    NA+42167  17.034  15.638   0.491
71568ION    NA+42168  38.685  44.940  11.096
71569ION    NA+42169  18.977  16.715  11.451
71570ION    NA+42170  37.647  28.439  14.389
71571ION    NA+42171  32.286  37.333   3.188
71572ION    NA+42172   8.907  36.301  13.459
71573ION    NA+42173   1.616  29.192   2.690
71574ION    NA+42174  22.462  28.512  10.875
71575ION    NA+42175  21.262  28.468  12.955
71576ION    NA+42176  39.898  16.602  10.669
71577ION    NA+42177  23.941  21.635  12.372
71578ION    NA+42178  17.385  42.761   3.614
71579ION    NA+42179  20.275  24.740   3.354
71580ION    NA+42180   6.155  20.098   1.318
71581ION    NA+42181  10.566  26.256   3.316
71582ION    NA+42182  32.372  11.075   3.955
71583ION    NA+42183  23.553  18.053   4.639
71584ION    NA+42184  13.958  32.783  13.839
71585ION    NA+42185  24.535  42.940  14.499
71586ION    NA+42186  26.931  27.224   0.904
71587ION    NA+42187  27.614   4.008   0.135
71588ION    NA+42188  34.537   8.759   0.241
71589ION    NA+42189  28.859  28.388   2.387
71590ION    NA+42190  39.136  44.118   1.476
71591ION    NA+42191  16.207  34.135  10.801
71592ION    NA+42192   0.367  36.300   4.941
71593ION    NA+42193  11.804  13.294   1.655
71594ION    NA+42194  38.804  28.003   2.510
71595ION    NA+42195  44.307   5.929  14.896
71596ION    NA+42196  39.693   4.392   4.893
71597ION    NA+42197  43.223  44.484   1.856
71598ION    NA+42198  31.982  12.633   2.818
71599ION    NA+42199   1.866  33.375   1.356
71600ION    NA+42200  24.936  19.913  13.438
71601ION    NA+42201  21.008  32.394  11.186
71602ION    NA+42202  43.878   9.472  11.548
71603ION    NA+42203  11.589  35.174  14.601
71604ION    NA+42204  34.898  40.690   2.755
71605ION    NA+42205   5.718  22.518   0.077
71606ION    NA+42206  19.338   3.963  13.611
71607ION    NA+42207  17.860  11.189  13.016
71608ION    NA+42208  36.303  44.168  12.270
71609ION    NA+42209  12.339  34.860  10.903
71610ION    NA+42210  36.135  12.475   3.663
71611ION    NA+42211  39.666  17.970   9.308
71612ION    NA+42212   5.253  25.653  11.910
71613ION    NA+42213  30.502  33.386  13.541
71614ION    NA+42214  20.880  20.165  14.230
71615ION    NA+42215  29.241  27.427   2.354
71616ION    NA+42216  18.752  36.938  14.113
71617ION    NA+42217  16.221  12.658  13.624
71618ION    NA+42218  40.526   4.219  14.916
71619ION    NA+42219  44.613  27.463  11.087
71620ION    NA+42220   0.416  17.804   3.044
71621ION    NA+42221  36.202  36.038  10.699
71622ION    NA+42222  33.521   7.135   4.654
71623ION    NA+42223  27.588  37.404   1.116
71624ION    NA+42224  28.480  10.407   2.763
71625ION    NA+42225  31.405  25.698   2.654
71626ION    NA+42226  16.513  26.434   5.714
71627ION    NA+42227  28.376   2.884  13.861
71628ION    NA+42228  12.715  26.667   2.508
71629ION    NA+42229  29.505  10.271  10.764
71630ION    NA+42230  39.083  10.784   4.197
71631ION    NA+42231   6.298  38.141  14.563
71632ION    NA+42232  34.388   1.278  10.676
71633ION    NA+42233  39.520   3.758  10.624
71634ION    NA+42234   5.906  24.800  14.368
71635ION    NA+42235   6.198   3.972  11.491
71636ION    NA+42236   5.812  15.764  10.859
71637ION    NA+42237  16.131  18.091   3.679
71638ION    NA+42238  31.495  12.799   1.790
71639ION    NA+42239  13.279  43.438  11.481
71640ION    NA+42240   1.808   3.230  13.577
71641ION    NA+42241  28.325  33.415  12.669
71642ION    NA+42242  35.876  35.879   3.686
71643ION    NA+42243  34.107  17.908  14.399
71644ION    NA+42244  21.148   5.836   0.016
71645ION    NA+42245   5.751  16.257  12.367
71646ION    NA+42246  27.587  17.302   4.355
71647ION    NA+42247  25.601   1.235  10.639
71648ION    NA+42248  11.028  39.609   2.841
71649ION    NA+42249  43.582   6.414  14.355
71650ION    NA+42250  39.079  13.960  14.953
71651ION    NA+42251   6.261   0.013   2.523
71652ION    NA+42252  33.212  18.510  13.412
71653ION    NA+42253  32.681  33.412  11.131
71654ION    NA+42254  16.049  20.926  14.155
71655ION    NA+42255   7.677  14.415   1.362
71656ION    NA+42256  35.857   7.552   2.826
71657ION    NA+42257   9.140  21.063   3.666
71658ION    NA+42258  22.159  15.720  10.702
71659ION    NA+42259  41.066   6.404  10.406
71660ION    NA+42260  13.294  16.192   0.759
71661ION    NA+42261  18.223  43.368   2.525
71662ION    NA+42262  28.568  13.447  14.785
71663ION    NA+42263  13.552  25.879  11.834
71664ION    NA+42264   3.673  36.402  13.690
71665ION    NA+42265   4.034  39.392  14.927
71666ION    NA+42266  31.149   8.478   0.784
71667ION    NA+42267  41.627  12.244   1.081
71668ION    NA+42268  27.017  17.577  10.755
71669ION    NA+42269  26.897  40.354  10.118
71670ION    NA+42270  28.699   8.457   0.634
71671ION    NA+42271  12.818  39.248  14.395
71672ION    NA+42272  10.483  16.059   0.521
71673ION    NA+42273  39.301  34.541   1.791
71674ION    NA+42274  33.481  31.195   0.462
71675ION    NA+42275  14.775  22.212  13.431
71676ION    NA+42276  37.332   2.714   1.829
71677ION    NA+42277   9.200  42.726   1.026
71678ION    NA+42278  29.100   0.981   0.978
71679ION    NA+42279   5.686  19.182  13.848
71680ION    NA+42280  44.500  32.977   1.475
71681ION    NA+42281  28.587  19.104  12.054
71682ION    NA+42282  37.346   1.164   0.140
71683ION    NA+42283   0.002  13.116  10.852
71684ION    NA+42284  20.556  28.496   2.213
71685ION    NA+42285   0.192  15.574  10.993
71686ION    NA+42286  38.309  38.463   4.979
71687ION    NA+42287  37.545  37.558   2.746
71688ION    NA+42288  10.724  12.356  10.860
71689ION    NA+42289  14.630  13.386  13.470
71690ION    NA+42290  33.514  41.437   4.987
71691ION    NA+42291  11.339  40.646  10.413
71692ION    NA+42292  24.178   2.018   0.621
71693ION    NA+42293  25.444  20.300   2.811
71694ION    NA+42294  20.416  42.039   3.552
71695ION    NA+42295  36.367  36.047   4.666
71696ION    NA+42296  32.690   0.524   1.191
71697ION    NA+42297   0.237  31.234  11.632
71698ION    NA+42298  17.977  31.413   0.275
71699ION    NA+42299  24.654  28.189  14.726
71700ION    NA+42300   4.522  16.081  11.126
71701ION    NA+42301  16.123  17.219   1.917
71702ION    NA+42302   6.186   0.268  13.012
71703ION    NA+42303  42.975  36.049   2.966
71704ION    NA+42304  20.257  43.719  11.933
71705ION    NA+42305   7.803   6.003  11.180
71706ION    NA+42306  14.261   9.892  14.380
71707ION    NA+42307   6.622  42.621  14.762
71708ION    NA+42308  25.403  27.666   3.160
71709ION    NA+42309  41.890  24.196   1.835
71710ION    NA+42310  41.270  42.543  12.095
71711ION    NA+42311  35.805  35.011  14.243
71712ION    NA+42312  40.456  34.071  13.878
71713ION    NA+42313   8.328  19.719  11.102
71714ION    NA+42314  29.649  27.431  10.722
71715ION    NA+42315  14.317  38.017  13.867
71716ION    NA+42316  30.312  29.818  13.491
71717ION    NA+42317  13.152  26.811  11.224
71718ION    NA+42318  13.016  23.880   0.712
71719ION    NA+42319  44.396  40.182   9.848
71720ION    NA+42320  27.955  15.948   0.004
71721ION    NA+42321  12.349   9.124  12.758
71722ION    NA+42322  16.735  28.920  13.811
71723ION    NA+42323   6.912   4.442   3.107
71724ION    NA+42324  21.678  39.822   0.907
71725ION    NA+42325   7.314  31.068  11.978
71726ION    NA+42326  20.708   8.459  13.901
71727ION    NA+42327  32.524   9.783   0.233
71728ION    NA+42328   8.718  17.798   4.026
71729ION    NA+42329  23.981  35.359  11.118
71730ION    NA+42330  15.537  43.290   2.624
71731ION    NA+42331  21.327  26.160  14.216
71732ION    NA+42332  31.306   8.703  10.551
71733ION    NA+42333  13.091  14.620  12.908
71734ION    NA+42334  12.267  34.972  13.468
71735ION    NA+42335  17.004   4.320   4.603
71736ION    NA+42336  18.627   1.739  11.959
71737ION    NA+42337  44.789  11.134   3.612
71738ION    NA+42338  23.802   2.815   4.431
71739ION    NA+42339  12.733   2.318   4.588
71740ION    NA+42340  21.665  37.531   1.520
71741ION    NA+42341  11.169  20.761   0.807
71742ION    NA+42342  27.715  43.344   3.602
71743ION    NA+42343  12.741  27.837  12.350
71744ION    NA+42344  26.548   5.319   0.964
71745ION    NA+42345   6.243  18.550  14.466
71746ION    NA+42346  35.516  38.996  13.216
71747ION    NA+42347  18.116  34.992   3.771
71748ION    NA+42348  41.215  29.457   0.722
71749ION    NA+42349  41.324  10.952   1.350
71750ION    NA+42350  36.773  16.992  12.173
71751ION    NA+42351   7.397  42.452  11.166
71752ION    NA+42352  16.587  36.354   2.779
71753ION    NA+42353  12.197  37.527   1.099
71754ION    NA+42354   8.085  25.582   2.678
71755ION    NA+42355  38.366  41.841  10.846
71756ION    NA+42356  32.956  20.295  13.968
71757ION    NA+42357   0.774  17.135   1.468
71758ION    NA+42358   6.091  15.280   0.942
71759ION    NA+42359  36.147  16.716  13.771
71760ION    NA+42360  17.723  26.209   3.451
71761ION    NA+42361  25.364  21.665  13.037
71762ION    NA+42362  24.379   2.978  10.301
71763ION    NA+42363  18.820  20.586  13.447
71764ION    NA+42364  16.797  23.984  11.477
71765ION    NA+42365  36.400  44.366   1.449
71766ION    NA+42366   8.236  28.251   2.136
71767ION    NA+42367  33.390  15.967   3.683
71768ION    NA+42368  26.008  42.849  13.848
71769ION    NA+42369  36.866  14.246  11.953
71770ION    NA+42370  14.358  28.499   4.577
71771ION    NA+42371   7.186   7.788   5.102
71772ION    NA+42372  13.419  37.757  14.224
71773ION    NA+42373  25.111   0.841   4.365
71774ION    NA+42374  26.757  22.480  11.488
71775ION    NA+42375  29.534  36.341  13.771
71776ION    NA+42376  44.727  44.689   0.869
71777ION    NA+42377   7.085  20.262  14.380
71778ION    NA+42378  27.932   7.411   0.084
71779ION    NA+42379  34.140  33.587   2.370
71780ION    NA+42380   3.962  39.067   4.027
71781ION    NA+42381   8.129  17.042  11.136
71782ION    NA+42382  16.062  34.131   2.403
71783ION    NA+42383  20.095   4.528   0.710
71784ION    NA+42384  28.628   1.786   2.620
71785ION    NA+42385  37.941   3.877  10.686
71786ION    NA+42386   6.264  23.100  11.555
71787ION    NA+42387   3.656  12.318  11.502
71788ION    NA+42388  25.276  35.469   1.752
71789ION    NA+42389  41.036  42.552   3.390
71790ION    NA+42390  32.542   7.289  13.810
71791ION    NA+42391  14.169  42.727  11.470
71792ION    NA+42392  30.542  32.310  10.508
71793ION    NA+42393  18.426  24.711  13.436
71794ION    NA+42394   2.942  38.957  14.014
71795ION    NA+42395  43.772  17.861   2.581
71796ION    NA+42396  22.272  17.652  14.603
71797ION    NA+42397   8.475  42.014   4.527
71798ION    NA+42398   5.318  11.260  13.114
71799ION    NA+42399  42.069  42.123   1.297
71800ION    NA+42400  18.512  38.507   3.185
71801ION    NA+42401  23.005  41.229  10.693
71802ION    NA+42402  35.813  29.563   3.746
71803ION    NA+42403  28.898  39.261  11.135
71804ION    NA+42404  20.755   2.422   4.085
71805ION    NA+42405  43.829  24.201  12.901
71806ION    NA+42406  42.594  37.437  12.714
71807ION    NA+42407  22.444   1.267  12.432
71808ION    NA+42408   4.376  40.520   1.330
71809ION    NA+42409  32.161   6.204   1.933
71810ION    NA+42410   1.648  37.142  14.235
71811ION    NA+42411  36.520  22.704   3.287
71812ION    NA+42412  29.559  24.091   4.162
71813ION    NA+42413  33.047  14.301  14.717
71814ION    NA+42414   2.255  18.589   3.949
71815ION    NA+42415  30.080  10.797   0.942
71816ION    NA+42416  16.101  11.614   1.503
71817ION    NA+42417  21.659  10.708   1.765
71818ION    NA+42418  29.839  11.408  12.499
71819ION    NA+42419   8.808  18.714   2.848
71820ION    NA+42420  18.349  14.646  14.254
71821ION    NA+42421   9.723   6.033   1.285
71822ION    NA+42422  26.469  35.303   0.710
71823ION    NA+42423  17.056   3.375   3.307
71824ION    NA+42424  39.879   2.714  11.257
71825ION    NA+42425  15.106  13.600  14.912
71826ION    NA+42426  25.633   9.169   1.672
71827ION    NA+42427  20.121   6.558   1.306
71828ION    NA+42428   6.334  39.336   4.026
71829ION    NA+42429   1.771   0.412  11.536
71830ION    NA+42430   1.728  15.719  12.573
71831ION    NA+42431   7.786  29.642  11.716
71832ION    NA+42432  39.043   4.225   3.068
71833ION    NA+42433   3.334  37.338   1.686
71834ION    NA+42434   8.434  26.897  11.477
71835ION    NA+42435  35.366  14.587   1.258
71836ION    NA+42436  18.131  28.972   1.663
71837ION    NA+42437  18.596  23.968   4.743
71838ION    NA+42438  14.341  10.346   0.923
71839ION    NA+42439  42.555   7.410   0.532
71840ION    NA+42440  11.472  27.206  14.434
71841ION    NA+42441  13.029   8.530   4.654
71842ION    NA+42442  33.377   9.787   1.414
71843ION    NA+42443  14.509  36.101  11.499
71844ION    NA+42444  10.384  44.251   4.716
71845ION    NA+42445  40.236   5.823  13.005
71846ION    NA+42446  15.749   2.428   2.785
71847ION    NA+42447  36.751  13.455  12.297
71848ION    NA+42448  16.613  29.230   4.505
71849ION    NA+42449  34.515  11.208  11.704
71850ION    NA+42450  29.479  23.702  14.192
71851ION    NA+42451  35.708   3.172  12.885
71852ION    NA+42452  28.491   4.741   2.450
71853ION    NA+42453  11.668  38.559  10.706
71854ION    NA+42454  39.971  40.738  13.567
71855ION    NA+42455  30.567  38.522   5.708
71856ION    NA+42456   9.541  32.347  14.595
71857ION    NA+42457  42.267  30.508   2.807
71858ION    NA+42458  21.372   3.597  13.459
71859ION    NA+42459  34.674  32.011  10.494
71860ION    NA+42460  39.795   3.829   2.542
71861ION    NA+42461  42.429  30.148   3.840
71862ION    NA+42462   3.519  23.451   0.203
71863ION    NA+42463  19.458  13.975   0.762
71864ION    NA+42464  25.142  24.968  10.669
71865ION    NA+42465  18.223   9.986  14.184
71866ION    NA+42466  28.207  33.463  11.316
71867ION    NA+42467  20.618  21.563  14.510
71868ION    NA+42468  20.293  36.588   4.587
71869ION    NA+42469  17.634  13.666   0.446
71870ION    NA+42470  43.612  28.497  10.706
71871ION    NA+42471  19.707  30.941  12.308
71872ION    NA+42472  12.783  20.864   9.781
71873ION    NA+42473  20.083  33.044  12.341
71874ION    NA+42474  42.595  37.356   1.840
71875ION    NA+42475  26.857  27.671   2.043
71876ION    NA+42476  37.457   6.530   4.222
71877ION    NA+42477  15.236  38.946  12.931
71878ION    NA+42478  28.186   3.726  14.364
71879ION    NA+42479   1.680  34.258   3.426
71880ION    NA+42480  22.060  10.630   0.019
71881ION    NA+42481  12.687  35.530  11.559
71882ION    NA+42482  11.654  42.966  11.116
71883ION    NA+42483  31.821  19.582   1.229
71884ION    NA+42484   0.754   1.517   2.356
71885ION    NA+42485  22.370  18.904   2.697
71886ION    NA+42486   2.402  36.563  13.338
71887ION    NA+42487  19.510   7.647  11.075
71888ION    NA+42488  21.713  27.406   1.296
71889ION    NA+42489  20.012  20.001  11.190
71890ION    NA+42490   6.742   2.244   2.357
71891ION    NA+42491  40.046  22.017   1.823
71892ION    NA+42492  35.377  10.297   0.840
71893ION    NA+42493  22.092   6.433   2.764
71894ION    NA+42494  11.880  20.707  13.367
71895ION    NA+42495  22.479  29.489  13.803
71896ION    NA+42496  41.814  25.081  11.983
71897ION    NA+42497  14.078  18.157   3.649
71898ION    NA+42498  36.154  23.848   1.890
71899ION    NA+42499  34.931  14.732  14.786
71900ION    NA+42500  41.606  32.132   4.448
71901ION    NA+42501  26.604  14.447   2.279
71902ION    NA+42502  36.399  15.759   3.101
71903ION    NA+42503  24.371  28.711   4.498
71904ION    NA+42504  37.345  24.456   4.521
71905ION    NA+42505  25.500   4.894  12.528
71906ION    NA+42506  41.401  42.730   2.591
71907ION    NA+42507   0.357  18.228   4.387
71908ION    NA+42508  19.147  38.574  10.278
71909ION    NA+42509  13.446  39.837   1.846
71910ION    NA+42510  43.216  13.249   3.437
71911ION    NA+42511   3.180  23.699   1.001
71912ION    NA+42512  41.348  34.066   3.448
71913ION    NA+42513   2.968  37.518  13.256
71914ION    NA+42514  32.675   2.543   1.167
71915ION    NA+42515  31.469  18.002  11.613
71916ION    NA+42516  30.917  24.469   3.536
71917ION    NA+42517  36.017  17.173   2.666
71918ION    NA+42518  31.439  15.016  14.370
71919ION    NA+42519  12.326  22.501  13.125
71920ION    NA+42520  18.734   2.325   4.222
71921ION    NA+42521  43.896  20.515  12.046
71922ION    NA+42522  28.976  11.817   1.381
71923ION    NA+42523   8.649  35.809   2.327
71924ION    NA+42524  38.128  28.513  10.727
71925ION    NA+42525  24.549  40.585   0.479
71926ION    NA+42526  31.691  36.964  11.671
71927ION    NA+42527  28.395  26.920   4.231
71928ION    NA+42528  35.406  39.722   3.815
71929ION    NA+42529  21.939  14.823   1.491
71930ION    NA+42530  35.636  11.323   2.797
71931ION    NA+42531  29.804   2.923   2.325
71932ION    NA+42532  18.822  37.377  12.902
71933ION    NA+42533  30.281  41.351  11.813
71934ION    NA+42534  18.890  39.972  12.777
71935ION    NA+42535  13.775   5.957  12.068
71936ION    NA+42536   7.023   9.261   1.485
71937ION    NA+42537  21.255  16.489  12.489
71938ION    NA+42538  29.375   5.473   2.903
71939ION    NA+42539  16.884   1.871   3.974
71940ION    NA+42540  42.138  39.555  11.038
71941ION    NA+42541  37.892  18.273   5.453
71942ION    NA+42542   8.239  24.275  13.098
71943ION    NA+42543  22.356  11.613  10.641
71944ION    NA+42544  28.005  11.250   3.720
71945ION    NA+42545  42.853  13.051  14.206
71946ION    NA+42546  42.745  43.762   0.726
71947ION    NA+42547  24.808  35.059  14.040
71948ION    NA+42548  15.003   9.521   1.113
71949ION    NA+42549   8.267  20.573   4.584
71950ION    NA+42550  18.664  17.683   2.419
71951ION    NA+42551   7.809  21.827  11.593
71952ION    NA+42552  22.791  26.842  14.025
71953ION    NA+42553  29.897   7.851   0.224
71954ION    NA+42554   9.263  17.505   4.697
71955ION    NA+42555  12.133  13.674   2.903
71956ION    NA+42556   4.489   7.718  12.495
71957ION    NA+42557  16.604  15.753   3.992
71958ION    NA+42558  35.284  25.613  13.743
71959ION    NA+42559  24.936  14.735  12.832
71960ION    NA+42560   0.452  31.518   4.107
71961ION    NA+42561  21.612  44.336  14.504
71962ION    NA+42562   9.630   7.415  14.964
71963ION    NA+42563  40.901  33.090   2.858
71964ION    NA+42564   6.692   0.726  10.719
71965ION    NA+42565   4.476  43.846  11.430
71966ION    NA+42566  23.694  40.963  13.968
71967ION    NA+42567  16.023  25.405   3.133
71968ION    NA+42568  30.166   1.045  12.991
71969ION    NA+42569  26.626   7.110  14.859
71970ION    NA+42570  33.522  24.802   0.137
71971ION    NA+42571   4.961  17.568  12.593
71972ION    NA+42572  13.787  37.308   2.621
71973ION    NA+42573  29.825  11.456  13.497
71974ION    NA+42574  23.268  16.376  14.088
71975ION    NA+42575  13.209   4.667   9.984
71976ION    NA+42576  38.495  14.008   3.329
71977ION    NA+42577  21.841  12.155   4.697
71978ION    NA+42578  36.925  24.754  10.136
71979ION    NA+42579   4.710   9.325  14.577
71980ION    NA+42580  32.743  36.334  14.893
71981ION    NA+42581   8.597  28.789   4.138
71982ION    NA+42582  19.058  29.712  13.481
71983ION    NA+42583  34.010   5.969  14.657
71984ION    NA+42584   1.300  31.583   4.633
71985ION    NA+42585   5.798   1.180   3.333
71986ION    NA+42586   6.871  34.959   0.834
71987ION    NA+42587  34.176  12.283   4.247
71988ION    NA+42588   7.211   1.480  11.121
71989ION    NA+42589  40.363  36.369  14.681
71990ION    NA+42590  38.258  15.290   0.016
71991ION    NA+42591  16.621  38.666  11.361
71992ION    NA+42592  20.671   9.181  13.415
71993ION    NA+42593   7.841   8.157   1.458
71994ION    NA+42594  13.900  22.056   0.577
71995ION    NA+42595  37.517  25.512   1.844
71996ION    NA+42596  16.300  14.891   3.271
71997ION    NA+42597  17.496  12.813   0.949
71998ION    NA+42598  41.260  18.246  11.996
71999ION    NA+42599  41.682  18.922  13.764
72000ION    NA+42600   3.990   5.615  11.350
72001ION    NA+42601   0.418  13.437  13.882
72002ION    NA+42602   1.998  31.038   4.116
72003ION    NA+42603   1.728  44.487   2.814
72004ION    NA+42604  35.370  41.390   2.477
72005ION    NA+42605  39.679  44.081  12.135
72006ION    NA+42606  44.939   0.952  12.057
72007ION    NA+42607  20.744  16.635  14.222
72008ION    NA+42608  43.757  37.410  13.245
72009ION    NA+42609   1.540  43.466   3.769
72010ION    NA+42610  14.337   8.210   0.070
72011ION    NA+42611  33.169  11.599   0.815
72012ION    NA+42612   0.618  38.594   5.140
72013ION    NA+42613  11.840  28.951  13.598
72014ION    NA+42614  15.493  34.976   2.001
72015ION    NA+42615  39.936   7.400   1.856
72016ION    NA+42616   1.362  19.502   1.223
72017ION    NA+42617  26.796  33.668  12.281
72018ION    NA+42618  10.608  29.505  14.160
72019ION    NA+42619  32.197  18.390  12.177
72020ION    NA+42620  37.069   9.645   3.881
72021ION    NA+42621  20.213  10.430  12.723
72022ION    NA+42622  30.581  37.212   3.811
72023ION    NA+42623  39.042   0.891  11.049
72024ION    NA+42624  24.505   8.658   0.504
72025ION    NA+42625   9.428  16.332   4.510
72026ION    NA+42626  39.259   6.718  10.756
72027ION    NA+42627  10.858  25.170  10.773
72028ION    NA+42628  44.330  30.030  14.849
72029ION    NA+42629  34.361  13.713  11.476
72030ION    NA+42630  14.436  31.636  13.635
72031ION    NA+42631   9.494  13.552   4.693
72032ION    NA+42632  32.413  35.635   1.463
72033ION    NA+42633  37.871  26.092   4.255
72034ION    NA+42634  20.765  30.997  12.383
72035ION    NA+42635  37.366  38.489   3.838
72036ION    NA+42636  28.661  43.823   3.226
72037ION    NA+42637  41.602  17.188   0.175
72038ION    NA+42638   3.193  30.890   2.957
72039ION    NA+42639  17.658  31.199   1.086
72040ION    NA+42640  41.289   9.411  11.278
72041ION    NA+42641  35.304  28.078  10.717
72042ION    NA+42642  36.530  40.211  13.462
72043ION    NA+42643  41.813  37.384   1.217
72044ION    NA+42644  11.912  24.628  11.139
72045ION    NA+42645  35.649  43.720  11.661
72046ION    NA+42646  44.257  39.201   0.055
72047ION    NA+42647  29.280  13.577   1.232
72048ION    NA+42648  27.636  42.468  12.761
72049ION    NA+42649  19.100  22.491   4.104
72050ION    NA+42650  23.036  18.522   3.442
72051ION    NA+42651   5.190  21.033  14.807
72052ION    NA+42652  44.332  19.177  14.315
72053ION    NA+42653  26.544  43.714  10.850
72054ION    NA+42654  25.353   3.215   0.529
72055ION    NA+42655  27.685  40.077   3.315
72056ION    NA+42656  12.307  10.844   3.769
72057ION    NA+42657   3.183  23.113  12.686
72058ION    NA+42658   1.000  31.002  12.236
72059ION    NA+42659  18.190  23.262   0.918
72060ION    NA+42660   3.922   2.244   4.415
72061ION    NA+42661   6.023  21.202   4.186
72062ION    NA+42662  38.165  30.929  14.049
72063ION    NA+42663  30.991  17.303   3.195
72064ION    NA+42664  11.692   1.281  14.016
72065ION    NA+42665  22.699  43.297   2.861
72066ION    NA+42666  32.492  35.739  13.805
72067ION    NA+42667  41.258  42.748   0.612
72068ION    NA+42668   3.762   9.813  11.681
72069ION    NA+42669  29.576   3.465   0.859
72070ION    NA+42670  11.170  31.671  12.952
72071ION    NA+42671  33.636  34.300  14.013
72072ION    NA+42672  19.320  35.234   9.552
72073ION    NA+42673   9.049  30.084   1.661
72074ION    NA+42674  38.324   7.748   0.038
72075ION    NA+42675  22.702  30.466  14.400
72076ION    NA+42676   5.693   0.849  13.833
72077ION    NA+42677  16.707  11.287  14.584
72078ION    NA+42678  25.347  28.665   3.162
72079ION    NA+42679  38.275   4.111   2.281
72080ION    NA+42680   3.776  38.517  11.438
72081ION    NA+42681   0.739  13.597  12.948
72082ION    NA+42682  39.026  18.068  11.695
72083ION    NA+42683  37.677  27.974   5.046
72084ION    NA+42684  20.009  42.344   4.684
72085ION    NA+42685  23.640  44.394   0.362
72086ION    NA+42686   1.443  29.093  11.654
72087ION    NA+42687  18.532  19.022   1.081
72088ION    NA+42688  12.895  28.396   4.772
72089ION    NA+42689  23.543  36.120   2.084
72090ION    NA+42690  18.796   4.271   2.475
72091ION    NA+42691  24.146  28.626   3.206
72092ION    NA+42692  34.638  15.780  11.141
72093ION    NA+42693  40.528  39.867  12.445
72094ION    NA+42694  41.525  32.684   3.916
72095ION    NA+42695   2.540  26.868  14.246
72096ION    NA+42696  21.100  29.409   3.003
72097ION    NA+42697  27.846  16.076   0.893
72098ION    NA+42698  27.124  25.745   1.029
72099ION    NA+42699  14.216  26.112  14.480
72100ION    NA+42700   5.170  33.195   2.179
72101ION    NA+42701  12.297  36.893   2.319
72102ION    NA+42702  33.361  16.825  11.463
72103ION    NA+42703  18.205  40.673   3.452
72104ION    NA+42704   9.462  22.302  11.016
72105ION    NA+42705  40.261  11.567   0.295
72106ION    NA+42706  36.332  24.227  11.657
72107ION    NA+42707  39.040  21.999   3.939
72108ION    NA+42708  16.320  38.986  14.854
72109ION    NA+42709   6.722   0.694   2.156
72110ION    NA+42710  23.134  37.106   2.418
72111ION    NA+42711  25.487   3.446  12.198
72112ION    NA+42712  35.349  18.864   1.470
72113ION    NA+42713  43.129  15.773   3.689
72114ION    NA+42714  40.378  28.744   2.455
72115ION    NA+42715  22.206  34.601  11.498
72116ION    NA+42716  25.436  41.939   4.648
72117ION    NA+42717  20.637  28.138  10.327
72118ION    NA+42718  21.079  44.892  13.558
72119ION    NA+42719   4.879  20.782   2.363
72120ION    NA+42720  39.818   6.188  12.243
72121ION    NA+42721   7.782  32.939   3.763
72122ION    NA+42722  28.560  39.467   4.127
72123ION    NA+42723   6.772  14.924   2.879
72124ION    NA+42724   9.838  23.839   4.574
72125ION    NA+42725  12.763   3.065  10.359
72126ION    NA+42726   2.957   5.498   3.086
72127ION    NA+42727  19.407  38.183   2.255
72128ION    NA+42728  32.562  32.126  14.112
72129ION    NA+42729  21.916  31.619  12.675
72130ION    NA+42730  41.480  13.722   2.113
72131ION    NA+42731  41.764  27.141  12.632
72132ION    NA+42732   4.124   1.409  12.467
72133ION    NA+42733  32.791   5.536  11.183
72134ION    NA+42734  21.541  23.783  14.653
72135ION    NA+42735  21.996  13.406  11.576
72136ION    NA+42736  11.702  17.524   3.511
72137ION    NA+42737   1.561   1.967  13.793
72138ION    NA+42738   8.986  12.284  11.980
72139ION    NA+42739  19.644   5.270  14.458
72140ION    NA+42740   2.368  40.365  14.041
72141ION    NA+42741  33.873   6.772  14.241
72142ION    NA+42742  10.773  17.008   0.399
72143ION    NA+42743  20.462  35.047   3.844
72144ION    NA+42744  34.515   7.526  13.425
72145ION    NA+42745  23.044  38.866  13.152
72146ION    NA+42746   5.762  18.737   1.424
72147ION    NA+42747  22.606  13.118  12.883
72148ION    NA+42748  37.562  30.696   0.025
72149ION    NA+42749   2.948   9.429  13.208
72150ION    NA+42750  25.979  34.829   1.442
72151ION    NA+42751  29.975  43.997   0.320
72152ION    NA+42752  38.841  38.001  10.609
72153ION    NA+42753  21.421  32.451   1.952
72154ION    NA+42754   1.209  42.724  11.563
72155ION    NA+42755  30.090  14.130  13.847
72156ION    NA+42756  18.435  13.043   0.691
72157ION    NA+42757   8.434   3.603  10.776
72158ION    NA+42758  20.236   7.100  11.181
72159ION    NA+42759  44.399  22.730  14.356
72160ION    NA+42760  18.525  14.314   0.888
72161ION    NA+42761   8.763  16.528  12.050
72162ION    NA+42762  19.150  41.048   3.313
72163ION    NA+42763  39.172  12.149  10.327
72164ION    NA+42764  18.046  39.074  14.166
72165ION    NA+42765  16.139  28.836   1.691
72166ION    NA+42766   6.435  19.682  14.098
72167ION    NA+42767  29.979  38.331   0.282
72168ION    NA+42768  37.628  13.787   1.839
72169ION    NA+42769  37.249  34.159   4.299
72170ION    NA+42770   7.858  30.290   4.487
72171ION    NA+42771  39.825  34.002   2.771
72172ION    NA+42772  21.080  36.996  12.573
72173ION    NA+42773  29.116  37.034  10.923
72174ION    NA+42774  25.946  20.400  12.502
72175ION    NA+42775  13.174  11.012  14.391
72176ION    NA+42776  34.985  22.728   0.704
72177ION    NA+42777   0.594  33.849   1.278
72178ION    NA+42778   8.829   3.997  11.606
72179ION    NA+42779  13.591  36.881   3.504
72180ION    NA+42780  35.635  31.893  14.632
72181ION    NA+42781  21.550  13.072   1.986
72182ION    NA+42782  15.817   0.837   3.771
72183ION    NA+42783  34.988  30.393  10.350
72184ION    NA+42784  32.417   3.452   1.492
72185ION    NA+42785  40.477  43.842  10.703
72186ION    NA+42786   7.825  34.519  14.429
72187ION    NA+42787  30.924   9.659   0.028
72188ION    NA+42788  22.931   9.118   2.545
72189ION    NA+42789  32.812  30.208   4.547
72190ION    NA+42790  33.775  39.552  12.015
72191ION    NA+42791   0.141  38.167   0.269
72192ION    NA+42792   0.456  28.871   1.718
72193ION    NA+42793  21.227   6.326  12.149
72194ION    NA+42794  44.311  37.113  10.590
72195ION    NA+42795  20.725  34.517   0.363
72196ION    NA+42796  40.993  35.569   3.231
72197ION    NA+42797  26.675  13.568   2.519
72198ION    NA+42798  40.546  39.002   4.550
72199ION    NA+42799   2.713  28.560  13.329
72200ION    NA+42800  41.843  14.102  11.789
72201ION    NA+42801  41.066  36.045  13.168
72202ION    NA+42802  23.552  27.001   0.762
72203ION    NA+42803  33.117  41.803   0.190
72204ION    NA+42804  41.124   5.363  13.007
72205ION    NA+42805  37.394   8.587   0.943
72206ION    NA+42806  12.570  43.500   2.713
72207ION    NA+42807  15.083   1.632   0.917
72208ION    NA+42808   5.040  24.494   2.715
72209ION    NA+42809  39.382  40.001   3.246
72210ION    NA+42810  21.925  28.410   2.006
72211ION    NA+42811  32.957   9.301  14.420
72212ION    NA+42812   5.015  17.971  13.518
72213ION    NA+42813  16.267  33.563  12.710
72214ION    NA+42814  20.206  33.432  11.428
72215ION    NA+42815  33.476   6.081  11.009
72216ION    NA+42816  42.123  33.816  13.044
72217ION    NA+42817  12.675  28.699   2.456
72218ION    NA+42818  30.567  43.115   0.154
72219ION    NA+42819  21.858   1.514   1.076
72220ION    NA+42820   7.228  30.522  13.906
72221ION    NA+42821  22.000  16.027   2.380
72222ION    NA+42822  25.436   9.745   2.366
72223ION    NA+42823  24.787  14.553   2.757
72224ION    NA+42824  19.959  38.124  10.679
72225ION    NA+42825  34.791   0.325  11.334
72226ION    NA+42826  25.443  31.075  12.014
72227ION    NA+42827  25.635  21.193   4.576
72228ION    NA+42828   2.290  43.968  11.074
72229ION    NA+42829  26.941  24.072   0.629
72230ION    NA+42830  20.796  23.860   3.468
72231ION    NA+42831  36.833  37.134  11.882
72232ION    NA+42832  28.239  32.883  13.383
72233ION    NA+42833  31.512  10.426   4.076
72234ION    NA+42834  28.416  28.807  14.634
72235ION    NA+42835  22.918   7.794  12.031
72236ION    NA+42836  27.948   4.242   2.950
72237ION    NA+42837  25.616  31.574  10.904
72238ION    NA+42838  23.479  11.728  13.461
72239ION    NA+42839  40.752  14.444  10.251
72240ION    NA+42840  18.694  29.510  14.671
72241ION    NA+42841  21.295  33.636  12.127
72242ION    NA+42842  16.671   6.754  13.035
72243ION    NA+42843  17.480  28.088  13.231
72244ION    NA+42844  38.796   5.129   1.054
72245ION    NA+42845  12.508  33.147  12.393
72246ION    NA+42846  24.279  32.473   3.854
72247ION    NA+42847  34.038  26.350  11.625
72248ION    NA+42848  40.743  41.141  13.075
72249ION    NA+42849  29.194  28.172  11.216
72250ION    NA+42850  22.990  36.265  14.126
72251ION    NA+42851  32.351  31.116   1.396
72252ION    NA+42852   2.978  16.161  13.452
72253ION    NA+42853  38.406  36.174  11.653
72254ION    NA+42854  41.458   6.630   0.833
72255ION    NA+42855  27.454  30.011  13.853
72256ION    NA+42856   2.955  21.198   3.526
72257ION    NA+42857   2.751  22.008  12.942
72258ION    NA+42858   0.393  39.493   0.556
72259ION    NA+42859  25.846   8.818   0.843
72260ION    NA+42860   3.905  11.217   0.448
72261ION    NA+42861  27.628   2.460   4.027
72262ION    NA+42862   0.799  32.128   3.210
72263ION    NA+42863   6.557  15.536   2.118
72264ION    NA+42864  25.233  35.635   4.655
72265ION    NA+42865  43.475  29.069   2.315
72266ION    NA+42866  28.286  31.995   4.044
72267ION    NA+42867   6.304  17.995  10.712
72268ION    NA+42868  31.963  28.464   1.780
72269ION    NA+42869  15.505   2.099   0.200
72270ION    NA+42870  17.473   3.169   0.854
72271ION    NA+42871  10.015  30.016  14.531
72272ION    NA+42872  33.947  11.874  12.186
72273ION    NA+42873   4.680  17.821   3.355
72274ION    NA+42874   9.144  38.554  11.134
72275ION    NA+42875   3.808   8.150  13.823
72276ION    NA+42876   3.131  27.037   3.356
72277ION    NA+42877  40.894  28.613   4.065
72278ION    NA+42878  35.149  32.009   5.266
72279ION    NA+42879  31.346  37.643   4.290
72280ION    NA+42880  14.139  41.251  11.074
72281ION    NA+42881  11.370  42.472   0.934
72282ION    NA+42882  26.493  27.715   0.012
72283ION    NA+42883  41.897  20.839  13.277
72284ION    NA+42884   0.890   2.891   0.967
72285ION    NA+42885   0.375   6.195  11.939
72286ION    NA+42886  37.345  41.361  13.303
72287ION    NA+42887  38.410  34.345   0.891
72288ION    NA+42888  21.692  20.079   0.284
72289ION    NA+42889  25.683  44.671  13.098
72290ION    NA+42890  11.876  33.655  12.239
72291ION    NA+42891  22.164  13.138   1.200
72292ION    NA+42892  12.142   1.505  10.758
72293ION    NA+42893  27.626  39.431   1.443
72294ION    NA+42894   6.104   6.916  10.222
72295ION    NA+42895   5.166  13.303  10.785
72296ION    NA+42896  11.560   4.852  14.065
72297ION    NA+42897  10.893  23.576  14.952
72298ION    NA+42898  36.509  17.663   1.832
72299ION    NA+42899  36.764  31.291  14.926
72300ION    NA+42900  42.288   4.350   3.120
72301ION    NA+42901  38.188  10.009  11.292
72302ION    NA+42902  16.847   1.675  11.678
72303ION    NA+42903  42.513   0.020   3.918
72304ION    NA+42904  36.162  12.308  11.728
72305ION    NA+42905  22.591  36.622  10.757
72306ION    NA+42906  10.399  42.309  10.947
72307ION    NA+42907  13.860  38.289   3.283
72308ION    NA+42908   5.795  14.422   1.007
72309ION    NA+42909  40.694   6.206  12.223
72310ION    NA+42910  44.041   2.167   0.378
72311ION    NA+42911   7.377  22.769   0.971
72312ION    NA+42912  22.759  30.135   2.830
72313ION    NA+42913  39.812  43.001  14.814
72314ION    NA+42914   1.653  38.804  13.094
72315ION    NA+42915  17.783  16.674  12.224
72316ION    NA+42916   7.335  24.810  14.557
72317ION    NA+42917  29.931  31.524   3.407
72318ION    NA+42918  10.697  38.828  11.494
72319ION    NA+42919  25.363   2.083  13.077
72320ION    NA+42920  10.089  35.973  11.873
72321ION    NA+42921   0.016  29.520   2.898
72322ION    NA+42922  24.996  26.987   1.909
72323ION    NA+42923  41.266  42.633   1.605
72324ION    NA+42924   0.267   6.686   2.882
72325ION    NA+42925  35.554   4.200  14.953
72326ION    NA+42926  16.225  18.825   4.206
72327ION    NA+42927  27.647  21.280  10.891
72328ION    NA+42928  26.992  14.315   0.087
72329ION    NA+42929  11.604  13.010  13.150
72330ION    NA+42930  35.930  20.464  12.150
72331ION    NA+42931  21.220  22.951   0.990
72332ION    NA+42932  43.979  43.125   0.200
72333ION    NA+42933  14.174  38.887  11.431
72334ION    NA+42934   2.064  39.248   2.847
72335ION    NA+42935  20.252  19.282   5.087
72336ION    NA+42936  12.712   3.859  13.452
72337ION    NA+42937  16.034  18.697  13.568
72338ION    NA+42938  39.266   6.829  13.641
72339ION    NA+42939  34.685  16.298  13.464
72340ION    NA+42940  36.133   5.194   0.325
72341ION    NA+42941  43.041  30.231   0.447
72342ION    NA+42942  13.625   0.388   0.292
72343ION    NA+42943  19.447  43.956   3.951
72344ION    NA+42944   7.083  40.550   1.132
72345ION    NA+42945  36.161   1.462   0.710
72346ION    NA+42946  13.140  32.494  10.709
72347ION    NA+42947   3.702  35.856   1.491
72348ION    NA+42948  26.701   6.726  13.938
72349ION    NA+42949  13.275   3.185  12.939
72350ION    NA+42950  16.983  29.668  13.096
72351ION    NA+42951  18.595  15.382  11.560
72352ION    NA+42952  40.442  37.058   0.402
72353ION    NA+42953  34.300  31.083  13.029
72354ION    NA+42954   1.901   4.940  12.878
72355ION    NA+42955  26.676  20.722  14.585
72356ION    NA+42956  14.811  36.125   1.394
72357ION    NA+42957  27.719  14.941  10.622
72358ION    NA+42958  10.177  14.267   2.856
72359ION    NA+42959  29.480  10.398   2.734
72360ION    NA+42960   4.607  29.990  11.037
72361ION    NA+42961  23.770   3.050   0.825
72362ION    NA+42962  19.425   1.331  14.563
72363ION    NA+42963  25.331   6.447  10.726
72364ION    NA+42964  30.908  21.213   4.020
72365ION    NA+42965  39.877  16.143  13.879
72366ION    NA+42966  43.639  43.139   3.998
72367ION    NA+42967  33.691  41.695  13.891
72368ION    NA+42968  33.345   1.841  14.087
72369ION    NA+42969  25.474  14.184   4.063
72370ION    NA+42970  26.431  10.330   1.806
72371ION    NA+42971  24.872  32.586   2.944
72372ION    NA+42972  34.200  15.106   3.935
72373ION    NA+42973  28.048  25.969  11.741
72374ION    NA+42974  14.884   6.419   1.824
72375ION    NA+42975  35.207  16.104   2.966
72376ION    NA+42976   9.217  28.911  13.837
72377ION    NA+42977  44.235  44.849  13.352
72378ION    NA+42978  11.594  25.185  13.136
72379ION    NA+42979  21.586  10.948  10.600
72380ION    NA+42980  26.346  44.852   1.848
72381ION    NA+42981  40.870  41.768   1.296
72382ION    NA+42982  42.045  37.037   3.275
72383ION    NA+42983   5.313  28.722   3.160
72384ION    NA+42984  25.728  40.243  11.530
72385ION    NA+42985  34.143   1.490   3.009
72386ION    NA+42986  21.222   2.332  12.195
72387ION    NA+42987   1.368  16.538   2.004
72388ION    NA+42988  33.362  21.218   2.411
72389ION    NA+42989   9.078  22.195   9.937
72390ION    NA+42990   4.563  38.632   4.698
72391ION    NA+42991  23.544  25.701   1.415
72392ION    NA+42992  32.116  31.129   3.686
72393ION    NA+42993   2.923  36.424  11.265
72394ION    NA+42994  35.730  23.120   2.191
72395ION    NA+42995  14.750  20.249  12.501
72396ION    NA+42996  30.164  14.026   0.148
72397ION    NA+42997  43.720  33.532  12.341
72398ION    NA+42998  35.986   5.697   3.397
72399ION    NA+42999  37.347  40.823  12.428
72400ION    NA+43000  26.000  13.104  10.615
72401ION    NA+43001   3.255  28.431   3.204
72402ION    NA+43002  30.137  19.799   2.795
72403ION    NA+43003  42.318   8.322   1.771
72404ION    NA+43004  43.405   1.885  13.161
72405ION    NA+43005  10.314  34.426  14.443
72406ION    NA+43006  18.502  20.858   4.073
72407ION    NA+43007  13.159   4.673   2.743
72408ION    NA+43008  35.310  34.005  13.527
72409ION    NA+43009  28.727  27.955  14.606
72410ION    NA+43010  32.195  34.448   3.735
72411ION    NA+43011  37.300  13.552  11.384
72412ION    NA+43012  21.421  18.566  14.222
72413ION    NA+43013  43.732  38.353  14.978
72414ION    NA+43014  16.537  40.800   2.996
72415ION    NA+43015   0.742   4.912  14.310
72416ION    NA+43016  21.267  39.212   0.229
72417ION    NA+43017  19.843  28.396  12.841
72418ION    NA+43018  21.545   4.400  10.855
72419ION    NA+43019  10.221  24.426  14.908
72420ION    NA+43020  35.779   7.707  12.024
72421ION    NA+43021  44.895  30.587   4.496
72422ION    NA+43022  27.945  40.911  10.598
72423ION    NA+43023  36.405  32.557   2.801
72424ION    NA+43024  32.954  42.804   3.601
72425ION    NA+43025   0.675  20.020  14.000
72426ION    NA+43026  30.902  17.451   1.454
72427ION    NA+43027  30.749  41.654  11.098
72428ION    NA+43028  17.273  12.249   3.813
72429ION    NA+43029   5.037  38.822   3.073
72430ION    NA+43030   4.695  28.947  10.952
72431ION    NA+43031  28.826  38.614  13.452
72432ION    NA+43032  17.623  44.708   2.596
72433ION    NA+43033  28.395  34.494   1.059
72434ION    NA+43034  33.869   1.209  13.005
72435ION    NA+43035  20.488  43.290   1.960
72436ION    NA+43036   6.835  37.831   4.568
72437ION    NA+43037  18.349  11.045   1.951
72438ION    NA+43038   9.621  24.670  11.201
72439ION    NA+43039  36.839  20.318  11.153
72440ION    NA+43040  40.521  30.216   2.534
72441ION    NA+43041  18.162  20.100   4.417
72442ION    NA+43042   6.227   6.195   0.336
72443ION    NA+43043  32.779   5.637   1.787
72444ION    NA+43044  18.272  25.615  13.836
72445ION    NA+43045   9.794  30.236   4.307
72446ION    NA+43046  21.144  40.895  12.421
72447ION    NA+43047  21.685   2.799   3.044
72448ION    NA+43048  34.351  18.765  14.404
72449ION    NA+43049  15.904  16.433  10.870
72450ION    NA+43050  32.973  11.615   1.795
72451ION    NA+43051  10.678  25.047  12.588
72452ION    NA+43052  13.345   6.203   3.824
72453ION    NA+43053  27.223   3.106   2.629
72454ION    NA+43054  34.549  41.414   9.752
72455ION    NA+43055   6.677   5.346   4.607
72456ION    NA+43056  15.060  23.530   2.728
72457ION    NA+43057  44.772  40.751   0.694
72458ION    NA+43058  30.243  42.896  14.234
72459ION    NA+43059  11.882  18.275  13.464
72460ION    NA+43060  22.457   2.255   4.115
72461ION    NA+43061  11.179  10.620   1.183
72462ION    NA+43062   7.378  41.040   1.837
72463ION    NA+43063   7.432  39.729   1.640
72464ION    NA+43064  38.880  42.025   2.847
72465ION    NA+43065  12.124  42.232  13.124
72466ION    NA+43066   4.977   2.823  11.734
72467ION    NA+43067  26.442   1.521   3.673
72468ION    NA+43068   7.268  21.598  14.660
72469ION    NA+43069  29.785  40.660  12.973
72470ION    NA+43070  16.714  20.539   1.719
72471ION    NA+43071  22.138  29.488   1.835
72472ION    NA+43072  35.805  15.090   0.657
72473ION    NA+43073  31.415   2.533   4.046
72474ION    NA+43074  39.874  27.961   2.090
72475ION    NA+43075  37.948   1.417   1.389
72476ION    NA+43076   3.831  31.866  13.062
72477ION    NA+43077  11.364  11.936   1.230
72478ION    NA+43078  20.060  13.536  12.028
72479ION    NA+43079  11.700  20.921  10.597
72480ION    NA+43080   6.820  34.075   0.368
72481ION    NA+43081  34.151  38.702   3.232
72482ION    NA+43082  36.236  39.908   3.289
72483ION    NA+43083  35.271  19.469   4.674
72484ION    NA+43084  34.579   6.605  12.838
72485ION    NA+43085   7.845  14.009  12.240
72486ION    NA+43086  40.539  20.317   1.659
72487ION    NA+43087  24.032  16.692  13.525
72488ION    NA+43088  35.198  14.352  13.104
72489ION    NA+43089  13.859   4.826  11.165
72490ION    NA+43090  23.386   2.217   3.746
72491ION    NA+43091  23.521   2.225  12.476
72492ION    NA+43092  41.713   9.061   2.879
72493ION    NA+43093  41.598   2.679  12.303
72494ION    NA+43094  11.210  18.941  11.547
72495ION    NA+43095   3.557  26.593   1.069
72496ION    NA+43096  36.495  23.565  12.398
72497ION    NA+43097  28.517  36.801  13.311
72498ION    NA+43098  30.032   1.953  11.329
72499ION    NA+43099   4.145   7.394   0.677
72500ION    NA+43100  40.030  21.453  13.685
72501ION    NA+43101  13.376  41.552   1.344
72502ION    NA+43102  40.831   7.052  10.788
72503ION    NA+43103   8.630   0.475  14.741
72504ION    NA+43104  14.902   8.434   0.686
72505ION    NA+43105  22.310  37.838  10.537
72506ION    NA+43106  36.465   1.915   5.207
72507ION    NA+43107   0.767  10.653   1.031
72508ION    NA+43108  14.336  44.963  10.395
72509ION    NA+43109  25.383  38.933   2.994
72510ION    NA+43110  22.274  43.329   0.543
72511ION    NA+43111   6.408   0.338   3.466
72512ION    NA+43112  21.603  22.436  10.948
72513ION    NA+43113  20.328  44.329   2.051
72514ION    NA+43114  33.440  19.347  10.834
72515ION    NA+43115  34.790  40.462  14.682
72516ION    NA+43116  39.561   5.469  14.498
72517ION    NA+43117  43.258   1.899   4.504
72518ION    NA+43118   6.656  26.076  11.990
72519ION    NA+43119  23.822   4.475  12.920
72520ION    NA+43120   4.734  12.723   2.877
72521ION    NA+43121  10.696  22.713  11.559
72522ION    NA+43122   6.522  26.964   5.021
72523ION    NA+43123  33.650  22.458   4.750
72524ION    NA+43124   5.885  38.750   1.529
72525ION    NA+43125  42.174  37.695   3.893
72526ION    NA+43126  15.548  24.603  11.523
72527ION    NA+43127  20.765  18.936   0.964
72528ION    NA+43128  12.257  25.564  12.038
72529ION    NA+43129   4.778  18.739  10.726
72530ION    NA+43130   0.950  35.524  11.707
72531ION    NA+43131  38.539  34.114  13.512
72532ION    NA+43132  38.447   0.828   3.121
72533ION    NA+43133  41.458  25.176   3.169
72534ION    NA+43134  20.158   1.116   1.433
72535ION    NA+43135  37.612  44.327   0.526
72536ION    NA+43136  39.393  10.259  14.266
72537ION    NA+43137  36.769  27.907   0.540
72538ION    NA+43138  30.919  24.723  12.429
72539ION    NA+43139  36.248  29.875   0.980
72540ION    NA+43140  22.169  17.516   1.038
72541ION    NA+43141  10.721  41.508   1.598
72542ION    NA+43142  10.766  25.655  13.913
72543ION    NA+43143  28.345  17.169   1.211
72544ION    NA+43144   7.610   6.978  11.366
72545ION    NA+43145   6.766  17.018  14.481
72546ION    NA+43146  29.167  32.692   4.978
72547ION    NA+43147  21.269  39.383   3.413
72548ION    NA+43148  18.632  40.983  13.377
72549ION    NA+43149  17.985  10.892   3.726
72550ION    NA+43150   4.614  39.303   0.618
72551ION    NA+43151  13.714  12.749   2.891
72552ION    NA+43152   2.343  15.630   3.643
72553ION    NA+43153  30.038  15.146   4.006
72554ION    NA+43154   2.914  23.172   1.648
72555ION    NA+43155  43.386  24.259   1.627
72556ION    NA+43156  18.290  13.538   4.372
72557ION    NA+43157   9.622  36.035   2.363
72558ION    NA+43158  22.369  11.500  12.425
72559ION    NA+43159  12.594  21.166   4.637
72560ION    NA+43160  19.795  34.844   3.127
72561ION    NA+43161  43.907   2.900  14.940
72562ION    NA+43162  13.138   5.545   4.736
72563ION    NA+43163   8.016   1.684   2.667
72564ION    NA+43164  11.008  35.753   2.829
72565ION    NA+43165   4.311   2.674   0.381
72566ION    NA+43166  17.108  16.391   3.410
72567ION    NA+43167  25.674  36.616   3.918
72568ION    NA+43168  16.596  14.987   1.875
72569ION    NA+43169  28.367  37.713   2.430
72570ION    NA+43170   5.235  32.053  14.777
72571ION    NA+43171  39.588  31.183   3.708
72572ION    NA+43172  23.407  38.707  12.234
72573ION    NA+43173  38.915  15.260  12.143
72574ION    NA+43174  26.624  35.057  14.349
72575ION    NA+43175  21.604   9.914  11.259
72576ION    NA+43176  30.192  19.537  13.295
72577ION    NA+43177   5.160  42.799  12.347
72578ION    NA+43178  40.540  21.654  12.848
72579ION    CL-43179  31.432  35.684   0.503
72580ION    CL-43180  41.381  38.251  14.378
72581ION    CL-43181  17.910  12.422   2.107
72582ION    CL-43182  23.366  41.298  11.939
72583ION    CL-43183  13.832  11.053  11.556
72584ION    CL-43184   9.781  31.968  14.575
72585ION    CL-43185   3.788  41.426   4.079
72586ION    CL-43186  32.080  38.524   3.275
72587ION    CL-43187  15.395  42.310  13.122
72588ION    CL-43188  10.300  20.571  13.109
72589ION    CL-43189  41.494  11.709   3.215
72590ION    CL-43190  37.791   4.680  13.851
72591ION    CL-43191  32.050   4.999  13.743
72592ION    CL-43192  43.949   0.190  13.315
72593ION    CL-43193  23.943  35.663   4.356
72594ION    CL-43194  42.434  12.070  13.472
72595ION    CL-43195  37.296  31.174  12.330
72596ION    CL-43196  31.161  43.594  11.919
72597ION    CL-43197  11.088  24.106  12.519
72598ION    CL-43198  27.179  41.491  11.688
72599ION    CL-43199  11.989  31.364   4.214
72600ION    CL-43200  10.777  30.367  12.401
72601ION    CL-43201  30.352   1.684  11.136
72602ION    CL-43202  33.825  37.795  12.530
72603ION    CL-43203  10.461  15.036  11.854
72604ION    CL-43204  29.298  29.766   5.041
72605ION    CL-43205  34.400  18.594  10.689
72606ION    CL-43206  15.358  38.648  10.719
72607ION    CL-43207  18.520   3.512  10.764
72608ION    CL-43208  20.645  26.676   3.099
72609ION    CL-43209  31.000  18.681  14.278
72610ION    CL-43210  30.937   3.513   2.750
72611ION    CL-43211  24.437  11.476   4.574
72612ION    CL-43212   9.490  13.095   4.655
72613ION    CL-43213  21.429  24.028  10.258
72614ION    CL-43214  25.677   1.513   1.239
72615ION    CL-43215   2.130  15.514  12.580
72616ION    CL-43216  38.210   9.771   4.956
72617ION    CL-43217   8.893  21.093  11.464
72618ION    CL-43218  40.359  32.491  12.533
72619ION    CL-43219  42.486  28.314  11.544
72620ION    CL-43220  17.957  13.487   4.678
72621ION    CL-43221  10.108  39.431   0.378
72622ION    CL-43222  13.507  32.376  10.929
72623ION    CL-43223  13.094  32.193   2.650
72624ION    CL-43224  24.444  43.923   3.276
72625ION    CL-43225  43.274   0.313  14.087
72626ION    CL-43226   0.008  27.268   5.107
72627ION    CL-43227  28.222  22.078   0.646
72628ION    CL-43228  19.250   6.199   4.934
72629ION    CL-43229  33.382  27.085   1.954
72630ION    CL-43230  17.020   7.760   4.149
72631ION    CL-43231  32.799  10.869  12.828
72632ION    CL-43232   8.319  24.263  13.563
72633ION    CL-43233  24.990   0.594   2.075
72634ION    CL-43234   1.470   7.996   0.550
72635ION    CL-43235   8.424  39.818   3.625
72636ION    CL-43236  35.890  10.786  14.415
72637ION    CL-43237  26.919   1.613  10.350
72638ION    CL-43238  30.013   7.861   3.588
72639ION    CL-43239   3.623  42.587   0.759
72640ION    CL-43240  42.445   3.435  13.873
72641ION    CL-43241  28.120  26.790   4.560
72642ION    CL-43242  30.860  36.056  14.274
72643ION    CL-43243  41.768  21.149  12.090
72644ION    CL-43244  44.634  13.244  10.634
72645ION    CL-43245   1.439  10.270   1.913
72646ION    CL-43246   2.964  20.975  11.247
72647ION    CL-43247  13.771  16.985  13.564
72648ION    CL-43248   8.471  42.063   4.988
72649ION    CL-43249  24.022  16.071   0.236
72650ION    CL-43250  20.800   1.338  13.319
72651ION    CL-43251  29.260  29.052  13.114
72652ION    CL-43252  31.711  11.123  13.668
72653ION    CL-43253  23.688  27.437  12.573
72654ION    CL-43254  35.166  44.956  14.535
72655ION    CL-43255   1.209   4.555   4.007
72656ION    CL-43256  44.099   2.709  12.015
72657ION    CL-43257  27.371  24.741   4.998
72658ION    CL-43258  33.503  27.656  14.710
72659ION    CL-43259  31.138  38.076  13.861
72660ION    CL-43260  23.623  39.455  10.830
72661ION    CL-43261  13.920  13.071   3.137
72662ION    CL-43262  13.656   1.937  11.944
72663ION    CL-43263  37.952  11.328   3.132
72664ION    CL-43264  42.476  37.443  12.283
72665ION    CL-43265  39.919   5.257  14.337
72666ION    CL-43266  39.901   4.015   2.947
72667ION    CL-43267  32.841  19.032   0.869
72668ION    CL-43268  11.682  36.866   0.502
72669ION    CL-43269  16.442  17.103   3.772
72670ION    CL-43270  13.166  30.112   3.399
72671ION    CL-43271   8.471  17.778   0.516
72672ION    CL-43272  38.035  36.423  11.640
72673ION    CL-43273  28.039  17.462   1.030
72674ION    CL-43274  25.633  21.496   4.926
72675ION    CL-43275  28.123  14.525  12.048
72676ION    CL-43276   6.873  33.139   2.128
72677ION    CL-43277  41.349   0.398   3.358
72678ION    CL-43278   0.718   9.579   1.973
72679ION    CL-43279  28.950   8.573   0.277
72680ION    CL-43280  24.268  37.226   0.404
72681ION    CL-43281   9.149  32.527   4.463
72682ION    CL-43282  32.490  36.992   0.759
72683ION    CL-43283  23.265  33.360   1.096
72684ION    CL-43284  42.796  13.022  14.649
72685ION    CL-43285  21.933  10.468   1.493
72686ION    CL-43286  21.718  37.152   1.291
72687ION    CL-43287   3.966  14.281   4.137
72688ION    CL-43288  14.690  29.553   0.833
72689ION    CL-43289  13.337   2.411   0.960
72690ION    CL-43290  30.487  41.506  11.438
72691ION    CL-43291  12.737  44.348  14.785
72692ION    CL-43292  19.825  20.220   2.782
72693ION    CL-43293  36.029  27.346  10.786
72694ION    CL-43294  34.871  24.794  10.701
72695ION    CL-43295   6.743  29.385  13.369
72696ION    CL-43296  20.252  20.312  12.559
72697ION    CL-43297  30.914  22.556  12.516
72698ION    CL-43298  11.280  27.492  12.632
72699ION    CL-43299  32.661  38.137   4.066
72700ION    CL-43300  16.996  11.433   5.073
72701ION    CL-43301  34.553   1.637   2.905
72702ION    CL-43302   7.123  34.046  13.436
72703ION    CL-43303  29.064  13.236   1.040
72704ION    CL-43304  26.605  40.247  10.465
72705ION    CL-43305  30.858   7.640  13.070
72706ION    CL-43306   1.949  44.355   0.855
72707ION    CL-43307  23.485   2.757   0.619
72708ION    CL-43308  29.742  17.004   4.273
72709ION    CL-43309  25.574  40.295  14.350
72710ION    CL-43310   1.456  16.496   2.452
72711ION    CL-43311  21.216  25.597   1.318
72712ION    CL-43312  26.922  44.379   4.268
72713ION    CL-43313   7.535  32.205   1.298
72714ION    CL-43314  12.556   8.868   1.714
72715ION    CL-43315  12.338   1.867  10.582
72716ION    CL-43316  15.046  38.440   2.339
72717ION    CL-43317  10.657  15.766  12.508
72718ION    CL-43318  26.837  40.688  14.210
72719ION    CL-43319  33.861   5.592  14.899
72720ION    CL-43320  25.084  36.311  12.607
72721ION    CL-43321  20.244  40.447  11.448
72722ION    CL-43322  38.124  36.970  12.949
72723ION    CL-43323  12.661  19.413  11.289
72724ION    CL-43324  31.040   8.114  13.974
72725ION    CL-43325   6.786  13.998   0.455
72726ION    CL-43326  10.887  35.448   2.525
72727ION    CL-43327  19.204  21.231  12.018
72728ION    CL-43328  13.144   5.230  12.944
72729ION    CL-43329   9.702  21.610  14.804
72730ION    CL-43330  44.876  29.213  12.389
72731ION    CL-43331   1.891   1.004   2.826
72732ION    CL-43332  42.764  16.696  12.986
72733ION    CL-43333   3.951  26.764   1.198
72734ION    CL-43334  27.278  13.347  13.530
72735ION    CL-43335  42.884  44.182   0.663
72736ION    CL-43336  19.288   4.679   4.199
72737ION    CL-43337  29.764  13.872   0.274
72738ION    CL-43338  40.474   4.505  13.002
72739ION    CL-43339  18.390  24.375  13.141
72740ION    CL-43340  14.043  22.621  11.227
72741ION    CL-43341   3.912  42.244  12.550
72742ION    CL-43342   2.787  22.742   1.571
72743ION    CL-43343  21.817  17.629  14.648
72744ION    CL-43344   4.252  28.269   1.455
72745ION    CL-43345  35.239  18.122  12.978
72746ION    CL-43346   3.435  28.158  11.257
72747ION    CL-43347  25.977  30.217   0.993
72748ION    CL-43348  29.726   7.215   1.538
72749ION    CL-43349  18.316   8.805  13.064
72750ION    CL-43350  44.776  22.054   1.895
72751ION    CL-43351   7.953   9.599  11.061
72752ION    CL-43352  26.390  11.738   1.229
72753ION    CL-43353   4.377  17.890  11.224
72754ION    CL-43354   9.971  17.702   2.659
72755ION    CL-43355  23.860   1.365  14.730
72756ION    CL-43356  36.842   3.708   1.414
72757ION    CL-43357  16.850   1.438   0.367
72758ION    CL-43358  23.080  43.495  13.256
72759ION    CL-43359  44.622   8.869  12.597
72760ION    CL-43360  44.119   2.543   0.131
72761ION    CL-43361  35.086   3.229   1.733
72762ION    CL-43362  18.812  42.443  11.981
72763ION    CL-43363   3.685  30.339   1.987
72764ION    CL-43364  10.801  34.089  11.395
72765ION    CL-43365  36.546   9.070   2.149
72766ION    CL-43366  37.886  16.160  10.649
72767ION    CL-43367  30.382  12.574   3.651
72768ION    CL-43368  23.410   9.866   0.737
72769ION    CL-43369   6.354  10.919  10.630
72770ION    CL-43370  12.518  40.571  13.472
72771ION    CL-43371  43.115  23.983   0.436
72772ION    CL-43372  11.565   3.767   2.739
72773ION    CL-43373   5.128   5.332   0.637
72774ION    CL-43374  26.869   8.775   2.602
72775ION    CL-43375  28.738  31.949   4.068
72776ION    CL-43376   1.240  13.346   1.350
72777ION    CL-43377  41.240  29.657   3.400
72778ION    CL-43378   9.279  12.606  11.878
72779ION    CL-43379  21.192  42.756   0.316
72780ION    CL-43380  39.095  44.191   1.023
72781ION    CL-43381  37.964  33.282   9.918
72782ION    CL-43382  27.881  16.104   0.426
72783ION    CL-43383  24.916  14.126   2.780
72784ION    CL-43384  29.973  38.300   4.175
72785ION    CL-43385   4.470  18.222   3.378
72786ION    CL-43386  28.390   5.863  12.970
72787ION    CL-43387  43.664  36.205   0.532
72788ION    CL-43388  27.178  44.203  13.343
72789ION    CL-43389  22.481   6.043  10.659
72790ION    CL-43390  16.418  36.945   4.142
72791ION    CL-43391   4.781  31.548  13.384
72792ION    CL-43392  22.544  26.618   1.297
72793ION    CL-43393  19.679  11.169  14.367
72794ION    CL-43394  16.221  18.459   3.924
72795ION    CL-43395  18.713  32.202  11.197
72796ION    CL-43396   6.254   0.023   9.848
72797ION    CL-43397  26.686  39.048   2.840
72798ION    CL-43398   4.304  18.658  14.580
72799ION    CL-43399  32.086  38.465   0.363
72800ION    CL-43400  25.478  23.458  13.748
72801ION    CL-43401  42.976   4.419  10.820
72802ION    CL-43402  44.593  12.282   5.016
72803ION    CL-43403   3.582  32.565   2.149
72804ION    CL-43404  40.776  30.027   4.788
72805ION    CL-43405  36.113  18.328  13.418
72806ION    CL-43406  11.754  32.976   2.453
72807ION    CL-43407  31.441  14.694   3.169
72808ION    CL-43408   8.928   2.722   3.789
72809ION    CL-43409   1.873  25.977   5.050
72810ION    CL-43410   6.300   8.301   0.412
72811ION    CL-43411  44.062  22.026  12.642
72812ION    CL-43412  18.051   3.994  14.778
72813ION    CL-43413  11.824  18.001  10.775
72814ION    CL-43414  18.120  35.242   4.140
72815ION    CL-43415  18.630   2.838   2.700
72816ION    CL-43416  43.497   5.340   1.318
72817ION    CL-43417  31.077  24.074   0.435
72818ION    CL-43418  25.648   3.540   4.150
72819ION    CL-43419  27.144  28.365  11.592
72820ION    CL-43420  15.798  27.916  12.333
72821ION    CL-43421  26.923  32.874   3.356
72822ION    CL-43422  38.980   9.194   5.229
72823ION    CL-43423  26.546  35.512   5.028
72824ION    CL-43424  26.921  35.267   0.658
72825ION    CL-43425  11.090  35.716   4.636
72826ION    CL-43426  30.180  40.676  13.192
72827ION    CL-43427   2.681   4.713  14.329
72828ION    CL-43428  20.223  10.574  13.146
72829ION    CL-43429   4.739  35.976   0.952
72830ION    CL-43430  35.903  38.796  13.097
72831ION    CL-43431   0.407   8.557  13.482
72832ION    CL-43432  31.059  20.101  10.715
72833ION    CL-43433   2.778  41.224   0.192
72834ION    CL-43434  15.150   4.880   5.069
72835ION    CL-43435  35.456  41.018  14.830
72836ION    CL-43436  25.102  21.224  14.314
72837ION    CL-43437  44.344  27.275  10.783
72838ION    CL-43438  34.506   7.718  14.757
72839ION    CL-43439  39.523  26.514   9.853
72840ION    CL-43440   1.957  31.692   1.396
72841ION    CL-43441   1.914  39.423   3.228
72842ION    CL-43442  27.750  43.025  11.226
72843ION    CL-43443  23.101  28.087   2.937
72844ION    CL-43444  15.826  23.108   1.279
72845ION    CL-43445   0.540  40.679  13.721
72846ION    CL-43446  22.529  26.469  14.047
72847ION    CL-43447  41.441  35.700  13.763
72848ION    CL-43448  36.601  37.854  10.482
72849ION    CL-43449  39.830  13.458  12.379
72850ION    CL-43450   4.133  13.663   0.385
72851ION    CL-43451  14.382  30.627   1.782
72852ION    CL-43452  41.983  25.901  13.453
72853ION    CL-43453  19.497  34.924  14.224
72854ION    CL-43454  29.277   5.289   0.630
72855ION    CL-43455   9.075  36.342   5.000
72856ION    CL-43456  35.983  24.831  12.647
72857ION    CL-43457  38.966  19.062   0.265
72858ION    CL-43458  22.719  17.709  14.534
72859ION    CL-43459   2.446  29.711   4.079
72860ION    CL-43460   3.581  26.512  12.197
72861ION    CL-43461  31.754  37.721   4.127
72862ION    CL-43462  10.094   9.332  13.866
72863ION    CL-43463  13.328  28.645   0.926
72864ION    CL-43464  10.429  29.840   0.459
72865ION    CL-43465  10.732   8.401   3.394
72866ION    CL-43466  15.459   1.855   0.745
72867ION    CL-43467  37.861  23.494   0.831
72868ION    CL-43468  16.297   6.216  11.087
72869ION    CL-43469  41.877   4.405  12.536
72870ION    CL-43470   3.683  10.170  11.400
72871ION    CL-43471   3.730  33.934  10.590
72872ION    CL-43472  24.932   6.709   3.249
72873ION    CL-43473  23.547   7.092   1.755
72874ION    CL-43474   0.522  39.887   1.926
72875ION    CL-43475   0.954  32.965  14.796
72876ION    CL-43476  40.004  24.318  13.736
72877ION    CL-43477  23.508  15.151   4.441
72878ION    CL-43478  10.076  19.651   5.003
72879ION    CL-43479  27.667  37.265  12.280
72880ION    CL-43480  28.699  18.687  13.434
72881ION    CL-43481  31.095  34.635  12.839
72882ION    CL-43482  26.707  36.640  13.695
72883ION    CL-43483  39.592  15.275  13.412
72884ION    CL-43484  12.587  42.811   3.585
72885ION    CL-43485  27.400  36.310   2.064
72886ION    CL-43486  41.842  38.737  13.567
72887ION    CL-43487   9.870   6.281  11.946
72888ION    CL-43488  43.995   9.341   1.002
72889ION    CL-43489   3.147  30.990   2.523
72890ION    CL-43490  31.080   0.341   3.982
72891ION    CL-43491  27.400  41.978   3.762
72892ION    CL-43492  17.851  31.232   0.674
72893ION    CL-43493  42.144  37.363   3.581
72894ION    CL-43494  13.274  40.699   5.349
72895ION    CL-43495  20.649  36.877   4.563
72896ION    CL-43496  41.985  19.183   2.000
72897ION    CL-43497  35.430  31.960   3.540
72898ION    CL-43498  11.135  28.757   4.987
72899ION    CL-43499  21.004   3.885   4.288
72900ION    CL-43500   7.201  27.969   0.940
72901ION    CL-43501  15.402   9.634   0.951
72902ION    CL-43502  22.934   1.384  14.353
72903ION    CL-43503  26.442   1.817   1.806
72904ION    CL-43504  27.451  13.044   4.259
72905ION    CL-43505  37.840  34.586   2.247
72906ION    CL-43506  20.490  11.246   1.509
72907ION    CL-43507  40.110  43.977  12.185
72908ION    CL-43508  27.246  26.945  13.422
72909ION    CL-43509   2.965  20.795   3.316
72910ION    CL-43510   6.973  15.578   1.958
72911ION    CL-43511  14.715  39.150   3.703
72912ION    CL-43512  10.891  32.119   4.263
72913ION    CL-43513  35.049  44.390  13.436
72914ION    CL-43514   4.045  41.176  11.236
72915ION    CL-43515  40.283  40.519  13.808
72916ION    CL-43516  23.971  34.622  13.001
72917ION    CL-43517  32.925  44.220   0.835
72918ION    CL-43518   1.917   8.105  11.460
72919ION    CL-43519  31.893   6.840  10.218
72920ION    CL-43520   7.799  13.616   2.208
72921ION    CL-43521   9.328  26.424  13.077
72922ION    CL-43522  19.613  13.736  11.122
72923ION    CL-43523  41.507  10.972  14.728
72924ION    CL-43524   8.862   1.979  13.748
72925ION    CL-43525  27.488  23.069  12.366
72926ION    CL-43526  23.996   7.252   4.051
72927ION    CL-43527  30.635  21.317   3.681
72928ION    CL-43528  34.661  42.959   0.542
72929ION    CL-43529  24.229  17.990  14.701
72930ION    CL-43530   7.411  42.847  12.761
72931ION    CL-43531  31.436  23.431   4.282
72932ION    CL-43532  31.709   6.206   1.883
72933ION    CL-43533  30.892  43.789   1.793
72934ION    CL-43534  44.352  42.040  13.791
72935ION    CL-43535   2.668   7.833   1.473
72936ION    CL-43536  32.445  29.622   0.536
72937ION    CL-43537   7.691   1.562   4.112
72938ION    CL-43538   2.864  35.131   0.977
72939ION    CL-43539  32.654   6.074   1.925
72940ION    CL-43540   3.325   3.146   3.341
72941ION    CL-43541  23.311  13.347   2.788
72942ION    CL-43542  36.297  16.011   1.486
72943ION    CL-43543   9.121  32.367  12.088
72944ION    CL-43544   3.756  33.982   4.099
72945ION    CL-43545  21.980  18.001   2.350
72946ION    CL-43546  27.600  18.675  11.007
72947ION    CL-43547  32.297   7.088  11.099
72948ION    CL-43548  33.466  11.194  10.975
72949ION    CL-43549  19.107  25.940   3.477
72950ION    CL-43550  39.363  17.778   0.490
72951ION    CL-43551  32.959   8.659  11.648
72952ION    CL-43552  30.716   4.709   2.172
72953ION    CL-43553  36.588  16.759  11.841
72954ION    CL-43554  12.117  20.190  14.931
72955ION    CL-43555  17.900  14.545  14.287
72956ION    CL-43556  31.132  25.732  13.790
72957ION    CL-43557  19.034   2.766  12.032
72958ION    CL-43558  18.194   7.747  10.680
72959ION    CL-43559  24.028  35.009   2.300
72960ION    CL-43560  33.944   9.899   2.278
72961ION    CL-43561  10.803  33.348  14.952
72962ION    CL-43562  14.876  24.200  10.801
72963ION    CL-43563   4.818  17.027   2.218
72964ION    CL-43564  20.058  31.971   0.045
72965ION    CL-43565  27.518  16.944   4.622
72966ION    CL-43566  36.572  28.159   0.854
72967ION    CL-43567   8.422  27.154   0.568
72968ION    CL-43568  11.003  41.496   3.256
72969ION    CL-43569  10.934   7.127  11.120
72970ION    CL-43570  44.435  17.619  14.651
72971ION    CL-43571  16.820   2.594  13.915
72972ION    CL-43572  43.184  28.367  10.694
72973ION    CL-43573  41.927  33.652  12.682
72974ION    CL-43574  14.338   4.374  12.253
72975ION    CL-43575  43.817  15.816  14.211
72976ION    CL-43576  18.288   1.445   1.795
72977ION    CL-43577  18.739  29.179  14.362
72978ION    CL-43578   2.418  39.055   0.391
72979ION    CL-43579   8.407  19.364   1.911
72980ION    CL-43580  43.714  43.402  14.971
72981ION    CL-43581   2.707  26.763  14.649
72982ION    CL-43582  34.584  37.906  11.879
72983ION    CL-43583   5.770  28.114   0.608
72984ION    CL-43584  11.611   6.032   1.136
72985ION    CL-43585  18.865  32.514   0.893
72986ION    CL-43586  30.135   5.120   0.823
72987ION    CL-43587   7.932   9.148   3.363
72988ION    CL-43588  25.186  41.689   0.858
72989ION    CL-43589  34.761  26.094  10.396
72990ION    CL-43590  20.667  17.503  11.012
72991ION    CL-43591  21.091  41.984   1.685
72992ION    CL-43592   8.454  37.611   0.367
72993ION    CL-43593  32.483   0.811  12.945
72994ION    CL-43594   8.762  23.622   1.955
72995ION    CL-43595  41.781  12.646  11.665
72996ION    CL-43596  17.549  40.746  14.898
72997ION    CL-43597  25.265  21.412  12.681
72998ION    CL-43598  44.357  12.738   1.948
72999ION    CL-43599  17.888   7.131  13.665
73000ION    CL-43600   8.591  35.129  11.397
73001ION    CL-43601  39.006   0.887  14.490
73002ION    CL-43602   3.289  23.639   0.549
73003ION    CL-43603  10.272  39.233  13.321
73004ION    CL-43604  35.410   0.745   1.104
73005ION    CL-43605  22.960  41.276  11.144
73006ION    CL-43606  15.941  19.261  14.832
73007ION    CL-43607  21.198  13.603  14.941
73008ION    CL-43608  18.984  12.626   2.988
73009ION    CL-43609  41.121  44.122   4.121
73010ION    CL-43610  40.482  37.734  10.522
73011ION    CL-43611  41.992  36.110   3.900
73012ION    CL-43612  30.095  22.563  10.795
73013ION    CL-43613  36.915  13.791  12.007
73014ION    CL-43614  40.394   2.020   0.501
73015ION    CL-43615  40.338  17.598   4.824
73016ION    CL-43616  10.673  18.246   0.493
73017ION    CL-43617  27.411  14.340   0.264
73018ION    CL-43618  32.998  16.508  13.765
73019ION    CL-43619   2.598  41.615  12.920
73020ION    CL-43620   1.240  15.012  13.489
73021ION    CL-43621  34.887  31.446  11.626
73022ION    CL-43622  25.929  15.291  11.648
73023ION    CL-43623  39.262  22.263   4.236
73024ION    CL-43624  17.797   3.251   5.056
73025ION    CL-43625  33.588   7.814  12.554
73026ION    CL-43626  34.168  42.905  14.636
73027ION    CL-43627  32.032  35.854   1.349
73028ION    CL-43628  16.024  25.685   2.785
73029ION    CL-43629  30.467  25.800  14.533
73030ION    CL-43630  38.633  22.012  14.756
73031ION    CL-43631  24.314   1.593   0.593
73032ION    CL-43632  23.303  15.618   2.388
73033ION    CL-43633   1.400  11.225   3.343
73034ION    CL-43634  27.497   5.252  12.911
73035ION    CL-43635  34.364  14.973   3.539
73036ION    CL-43636  15.748  31.423   2.800
73037ION    CL-43637  13.699  11.604  12.381
73038ION    CL-43638  32.965  21.052   1.247
73039ION    CL-43639  18.495   1.012   3.383
73040ION    CL-43640  21.115  33.545  14.024
73041ION    CL-43641   8.608  18.907   0.935
73042ION    CL-43642  14.351   5.750   4.362
73043ION    CL-43643  22.685   1.518   2.889
73044ION    CL-43644  21.174  22.410  11.078
73045ION    CL-43645  16.006   2.329   2.435
73046ION    CL-43646  43.465   7.917  12.772
73047ION    CL-43647  18.995  36.923   2.270
73048ION    CL-43648  18.349  19.318  13.503
73049ION    CL-43649  33.707  13.516   3.731
73050ION    CL-43650  14.256  10.821   4.217
73051ION    CL-43651  25.882   3.980   1.991
73052ION    CL-43652  27.645  23.750   2.843
73053ION    CL-43653  20.177  44.739   9.732
73054ION    CL-43654  37.473  36.821   1.286
73055ION    CL-43655  17.853  28.355  13.195
73056ION    CL-43656  16.687  29.949  11.789
73057ION    CL-43657  37.069  24.845  10.579
73058ION    CL-43658  42.056  24.230  12.964
73059ION    CL-43659  10.769  41.898  12.241
73060ION    CL-43660   3.923  13.846   2.344
73061ION    CL-43661  29.436  34.865   2.865
73062ION    CL-43662  12.456  36.643   1.982
73063ION    CL-43663  22.378  28.866  10.604
73064ION    CL-43664   4.246  14.301  11.400
73065ION    CL-43665  42.190  39.604   4.103
73066ION    CL-43666  11.063  12.150  12.991
73067ION    CL-43667  20.439   6.707  11.273
73068ION    CL-43668  37.700  17.735   2.513
73069ION    CL-43669   8.512  44.062   3.630
73070ION    CL-43670  17.824  39.805  11.438
73071ION    CL-43671  12.269   9.863   1.000
73072ION    CL-43672  28.305  13.639  14.479
73073ION    CL-43673  15.876  42.476   0.398
73074ION    CL-43674   9.023  17.610   4.308
73075ION    CL-43675   2.682  43.476  14.481
73076ION    CL-43676  36.272   6.155  14.951
73077ION    CL-43677  27.962  40.956  10.129
73078ION    CL-43678  29.160  37.485   3.539
73079ION    CL-43679  33.928  38.407   0.839
73080ION    CL-43680   4.442  21.775  12.445
73081ION    CL-43681   4.198  33.641  12.900
73082ION    CL-43682   7.248  39.927   1.999
73083ION    CL-43683  30.753  37.550   1.132
73084ION    CL-43684  33.929  28.712   3.255
73085ION    CL-43685  11.085  26.997  14.561
73086ION    CL-43686  37.246   3.422   0.648
73087ION    CL-43687   7.832  10.364   1.762
73088ION    CL-43688   9.786  27.177  11.428
73089ION    CL-43689  30.214  32.421  10.190
73090ION    CL-43690  43.937  31.904  14.267
73091ION    CL-43691  24.589   0.337  13.352
73092ION    CL-43692  23.768   1.980  13.947
73093ION    CL-43693   3.655   4.765  14.679
73094ION    CL-43694  27.456  39.401  13.805
73095ION    CL-43695  35.630  23.007   2.638
73096ION    CL-43696   7.363  23.952   2.613
73097ION    CL-43697  28.207   7.195  11.078
73098ION    CL-43698   5.931  14.859   1.024
73099ION    CL-43699  20.860  40.816  13.907
73100ION    CL-43700  26.666  44.298  12.467
73101ION    CL-43701  23.427  36.821   0.347
73102ION    CL-43702   3.355  24.595   5.095
73103ION    CL-43703  28.083  24.498   4.506
73104ION    CL-43704  20.532  30.093   5.177
73105ION    CL-43705  30.975  27.867  12.512
73106ION    CL-43706  21.591  36.252   0.302
73107ION    CL-43707  25.175  23.012   3.112
73108ION    CL-43708  14.509   3.981  14.795
73109ION    CL-43709  40.853   6.820  10.387
73110ION    CL-43710  20.876  27.802  10.132
73111ION    CL-43711  36.526  38.914   3.164
73112ION    CL-43712   3.116  23.536   1.436
73113ION    CL-43713  12.666  21.316   2.623
73114ION    CL-43714   9.269  41.314   0.696
73115ION    CL-43715  44.060  35.123   2.513
73116ION    CL-43716  44.816  32.996  10.555
73117ION    CL-43717   9.912   8.527   0.841
73118ION    CL-43718   2.941   8.998  13.338
73119ION    CL-43719  25.426  13.243  13.505
73120ION    CL-43720  10.679  38.423   1.605
73121ION    CL-43721  21.528  15.596   3.833
73122ION    CL-43722  16.122   1.898  12.932
73123ION    CL-43723  25.654  41.389  13.483
73124ION    CL-43724  20.567  22.180   3.262
73125ION    CL-43725   3.684  42.445  14.045
73126ION    CL-43726  30.563  19.293   0.670
73127ION    CL-43727  12.535   3.600   0.443
73128ION    CL-43728  23.487   5.482   0.677
73129ION    CL-43729  31.437  11.142  14.630
73130ION    CL-43730  34.268  18.326  14.339
73131ION    CL-43731  25.521  10.410  13.286
73132ION    CL-43732  37.989  37.155  10.929
73133ION    CL-43733  42.749  35.018  13.338
73134ION    CL-43734  44.062  35.429  12.776
73135ION    CL-43735  11.284  13.798   0.355
73136ION    CL-43736  10.895  31.847  13.271
73137ION    CL-43737  33.966  13.901   0.508
73138ION    CL-43738  21.394   1.542   1.028
73139ION    CL-43739   0.466  20.394   1.701
73140ION    CL-43740   2.991  28.426   1.445
73141ION    CL-43741   7.209  27.967  10.944
73142ION    CL-43742  40.754  38.093  13.041
73143ION    CL-43743  36.727  29.605   9.829
73144ION    CL-43744  36.374  41.460  11.606
73145ION    CL-43745  43.110  20.512  11.107
73146ION    CL-43746   8.320  11.375   1.238
73147ION    CL-43747  11.612   4.616   4.406
73148ION    CL-43748  18.446  15.639   0.943
73149ION    CL-43749  21.873  21.956   4.979
73150ION    CL-43750  24.170  18.404   2.411
73151ION    CL-43751  26.893  24.509   0.496
73152ION    CL-43752  16.561  26.953   0.502
73153ION    CL-43753   2.074   0.400  11.207
73154ION    CL-43754   5.497  37.131  14.447
73155ION    CL-43755  31.066   6.904  12.426
73156ION    CL-43756   6.871  28.195  11.858
73157ION    CL-43757  40.097  28.790  12.589
73158ION    CL-43758  41.417  37.880  12.323
73159ION    CL-43759  14.484  31.316  12.625
73160ION    CL-43760  13.073  36.358  14.367
73161ION    CL-43761   4.705  26.102   0.022
73162ION    CL-43762  13.249  27.098  10.890
73163ION    CL-43763  12.625  39.123   3.211
73164ION    CL-43764   3.537  25.096   1.401
73165ION    CL-43765  44.788  27.629  13.569
73166ION    CL-43766  36.525  29.961  13.484
73167ION    CL-43767  42.722  41.382  14.042
73168ION    CL-43768  18.740   1.027   9.850
73169ION    CL-43769   2.009   8.507   5.119
73170ION    CL-43770  17.211   2.989   1.167
73171ION    CL-43771   9.619  25.822  12.333
73172ION    CL-43772   7.815   3.230   1.490
73173ION    CL-43773  27.472  29.374   2.280
73174ION    CL-43774  32.653  10.027  10.034
73175ION    CL-43775  17.640  30.241  14.629
73176ION    CL-43776  18.090  18.776   4.094
73177ION    CL-43777  40.013   2.612  11.671
73178ION    CL-43778  42.010  35.567  14.804
73179ION    CL-43779   8.247   3.077   4.928
73180ION    CL-43780   5.137  28.315   3.087
73181ION    CL-43781  35.231   0.313  11.261
73182ION    CL-43782  29.208  27.606  12.467
73183ION    CL-43783  19.244   8.883   0.966
73184ION    CL-43784   9.521  10.068  11.912
73185ION    CL-43785   0.426  24.595   0.749
73186ION    CL-43786   9.903  41.725  12.321
73187ION    CL-43787  40.305  21.682   1.679
73188ION    CL-43788  25.950  14.977   1.152
73189ION    CL-43789  17.753  14.825  11.483
73190ION    CL-43790  14.755  16.874  14.998
73191ION    CL-43791  12.169   7.055  12.850
73192ION    CL-43792  22.721  18.665   2.848
73193ION    CL-43793   6.139  36.432   0.392
73194ION    CL-43794  31.981  43.723   0.906
73195ION    CL-43795  17.138  41.038   5.046
73196ION    CL-43796  35.374  34.199  11.178
73197ION    CL-43797  26.357  14.660   1.933
73198ION    CL-43798  25.436  10.624  11.218
73199ION    CL-43799   4.029  36.123   1.640
73200ION    CL-43800  12.325  44.495  12.571
73201ION    CL-43801   3.635  44.074   4.063
73202ION    CL-43802  19.465   3.744  13.980
73203ION    CL-43803  32.657   1.233   3.008
73204ION    CL-43804  28.471  22.991   0.968
73205ION    CL-43805  32.202  10.066   0.353
73206ION    CL-43806  12.686  25.008   2.687
73207ION    CL-43807  36.051  29.556   1.223
73208ION    CL-43808  29.924   6.460   0.565
73209ION    CL-43809  23.056  23.603  13.647
73210ION    CL-43810  13.393  17.730   0.243
73211ION    CL-43811  22.732  21.548  11.608
73212ION    CL-43812  25.686  38.977  14.073
73213ION    CL-43813  32.321   0.349   1.008
73214ION    CL-43814  37.079  25.921  13.931
73215ION    CL-43815  14.790  23.312  11.252
73216ION    CL-43816  37.193   7.040  13.478
73217ION    CL-43817   6.185  34.541   3.518
73218ION    CL-43818  10.867  31.857   1.246
73219ION    CL-43819  22.988  42.612  13.389
73220ION    CL-43820  32.913  23.632   0.508
73221ION    CL-43821  27.521  15.314   4.597
73222ION    CL-43822   8.549  24.104  14.190
73223ION    CL-43823   8.146  23.554   3.720
73224ION    CL-43824   1.491  33.875   3.583
73225ION    CL-43825  23.203   3.895   2.234
73226ION    CL-43826  22.113  17.720   4.951
73227ION    CL-43827  44.187  20.197  12.160
73228ION    CL-43828  37.573   6.389  14.379
73229ION    CL-43829  25.817  32.004  12.486
73230ION    CL-43830  14.162  43.733  12.383
73231ION    CL-43831  22.396   9.586   1.401
73232ION    CL-43832  25.240   9.048   3.655
73233ION    CL-43833  14.166  17.796  10.539
73234ION    CL-43834  30.055  18.519  12.245
73235ION    CL-43835  21.132   7.482   2.443
73236ION    CL-43836  38.230   4.556   2.311
73237ION    CL-43837  17.477   7.129   2.807
73238ION    CL-43838  20.325  13.190  12.131
73239ION    CL-43839   2.519   5.952  12.562
73240ION    CL-43840   4.357  39.319   0.241
73241ION    CL-43841  30.858   0.416   5.156
73242ION    CL-43842  36.302  12.589  11.400
73243ION    CL-43843   1.559  36.727  14.094
73244ION    CL-43844  24.668   3.214   3.058
73245ION    CL-43845  34.499  37.308   2.811
73246ION    CL-43846  30.415  29.537  11.478
73247ION    CL-43847  43.503  20.560   4.943
73248ION    CL-43848  22.944  27.569  14.801
73249ION    CL-43849   2.436   0.485  10.278
73250ION    CL-43850  17.194  32.740   2.226
73251ION    CL-43851  20.312  14.737  11.829
73252ION    CL-43852  20.376  32.032  14.217
73253ION    CL-43853  37.836   6.275   1.622
73254ION    CL-43854  13.615  14.966  10.683
73255ION    CL-43855  25.471  19.889   2.641
73256ION    CL-43856  34.407  34.623   3.302
73257ION    CL-43857   4.733   0.421   1.959
73258ION    CL-43858  21.802  18.497  12.957
73259ION    CL-43859  11.768   6.358   4.887
73260ION    CL-43860  41.660  32.252   4.012
73261ION    CL-43861  41.442  27.784  13.973
73262ION    CL-43862  30.766  13.461   3.906
73263ION    CL-43863  21.024  12.168  10.864
73264ION    CL-43864  22.683  12.367  14.750
73265ION    CL-43865   9.572  15.140  14.291
73266ION    CL-43866  20.074   5.239  14.339
73267ION    CL-43867   9.323  43.880   4.190
73268ION    CL-43868  12.905  10.224   0.318
73269ION    CL-43869  24.454  30.917   1.263
73270ION    CL-43870  12.248  38.198  14.004
73271ION    CL-43871  21.688   6.296  13.264
73272ION    CL-43872  41.792   1.265   1.947
73273ION    CL-43873  14.631   6.893  14.571
73274ION    CL-43874  16.267  19.147   4.522
73275ION    CL-43875  16.660   9.613   1.524
73276ION    CL-43876  33.402   0.336   4.368
73277ION    CL-43877  29.631  12.977  11.052
73278ION    CL-43878  34.951  30.488   9.902
73279ION    CL-43879  21.588  30.450   1.219
73280ION    CL-43880   7.354  40.010  14.775
73281ION    CL-43881   3.874   1.768   2.463
73282ION    CL-43882  16.282   3.316   4.731
73283ION    CL-43883  22.478  33.994   1.594
73284ION    CL-43884  20.348   6.175   1.351
73285ION    CL-43885  35.653  35.577  11.794
73286ION    CL-43886  44.741  33.549   4.034
73287ION    CL-43887  33.153  41.683   4.808
73288ION    CL-43888   1.673  17.704  11.569
73289ION    CL-43889  26.627   3.223  12.500
73290ION    CL-43890  38.485  39.164  12.673
73291ION    CL-43891  36.126  22.599  10.843
73292ION    CL-43892  42.883   7.262   0.800
73293ION    CL-43893  31.261  16.994  12.643
73294ION    CL-43894  34.342  36.151   2.253
73295ION    CL-43895  43.711  26.570   3.777
73296ION    CL-43896  22.333   0.632   1.408
73297ION    CL-43897  40.256   6.164  12.377
73298ION    CL-43898  22.984  27.061   4.260
73299ION    CL-43899   8.188  12.734   0.211
73300ION    CL-43900  12.462   9.216  12.324
73301ION    CL-43901  16.173  29.506   0.882
73302ION    CL-43902  17.962  15.777  10.799
73303ION    CL-43903   1.964  34.574  11.586
73304ION    CL-43904  28.468  13.875  13.289
73305ION    CL-43905  41.249  39.178  14.731
73306ION    CL-43906  38.957   0.445  12.214
73307ION    CL-43907   4.237  29.578  13.635
73308ION    CL-43908  26.121  14.240   4.359
73309ION    CL-43909  11.813  42.522   0.896
73310ION    CL-43910   6.416  35.845   3.323
73311ION    CL-43911  43.950  21.117   4.468
73312ION    CL-43912   5.000  34.252  11.606
73313ION    CL-43913  42.811  31.365  14.948
73314ION    CL-43914  13.446  37.332  14.363
73315ION    CL-43915  32.549  20.750  11.567
73316ION    CL-43916  22.424   6.245   3.945
73317ION    CL-43917  38.649   1.048   0.254
73318ION    CL-43918  18.947   7.327   1.936
73319ION    CL-43919   8.078   3.336  10.818
73320ION    CL-43920  31.311  24.787  12.633
73321ION    CL-43921  24.551  15.855  14.323
73322ION    CL-43922  11.551  13.004  12.697
73323ION    CL-43923  26.061  32.376   3.745
73324ION    CL-43924   1.648  16.113  14.777
73325ION    CL-43925  39.720  29.539   1.007
73326ION    CL-43926  37.264  43.549  14.336
73327ION    CL-43927  31.452  38.433  11.697
73328ION    CL-43928   7.672   1.773  13.088
73329ION    CL-43929  12.439   4.175  13.289
73330ION    CL-43930   9.684  27.913  14.401
73331ION    CL-43931   8.851  26.881   2.816
73332ION    CL-43932  15.661   8.906   2.853
73333ION    CL-43933  30.924  17.449   3.615
73334ION    CL-43934   4.661  24.678  11.712
73335ION    CL-43935  34.931   7.652   2.427
73336ION    CL-43936  21.760  29.731   1.777
73337ION    CL-43937  14.350  16.660   2.172
73338ION    CL-43938  18.174  11.432   2.113
73339ION    CL-43939  16.149  40.575   2.923
73340ION    CL-43940   3.994   3.144  13.818
73341ION    CL-43941  32.036  33.971  14.580
73342ION    CL-43942  17.093   5.768  10.679
73343ION    CL-43943  13.151  24.264   0.898
73344ION    CL-43944  27.023  24.212   2.158
73345ION    CL-43945  18.669  22.072  10.639
73346ION    CL-43946  32.383  15.215  13.495
73347ION    CL-43947  35.089   2.600   2.388
73348ION    CL-43948  17.573   0.412   1.370
73349ION    CL-43949  21.795  24.836   2.695
73350ION    CL-43950  28.399   5.598   0.137
73351ION    CL-43951  43.916  42.788   4.151
73352ION    CL-43952   6.062  19.435  13.929
73353ION    CL-43953   4.099  10.058  11.878
73354ION    CL-43954  33.849   4.275  14.918
73355ION    CL-43955  41.778   4.376  13.531
73356ION    CL-43956  39.167  30.841   9.997
73357ION    CL-43957  11.935  41.832  13.055
73358ION    CL-43958  17.326  21.022  10.501
73359ION    CL-43959  43.707  25.650  12.963
73360ION    CL-43960   6.423   6.631  11.639
73361ION    CL-43961  30.122   2.611   2.272
73362ION    CL-43962   5.498  13.269  10.475
73363ION    CL-43963  26.636  13.112   2.560
73364ION    CL-43964  40.469  26.685  10.745
73365ION    CL-43965  23.379   4.588   0.243
73366ION    CL-43966  41.981   9.809   1.178
73367ION    CL-43967  38.360   0.215  14.782
73368ION    CL-43968  11.804  37.602  12.150
73369ION    CL-43969   5.901  16.689  10.373
73370ION    CL-43970  17.017  14.139  14.627
73371ION    CL-43971  13.319  24.366  10.675
73372ION    CL-43972   0.997  12.147  11.320
73373ION    CL-43973  41.233  12.039   1.140
73374ION    CL-43974  40.940  38.428  11.280
73375ION    CL-43975   9.788  29.790   4.310
73376ION    CL-43976  33.645   5.880  12.246
73377ION    CL-43977  40.249  14.781   5.182
73378ION    CL-43978   0.945  43.572  10.701
73379ION    CL-43979  30.437  29.186  14.775
73380ION    CL-43980   0.078  32.568   2.346
73381ION    CL-43981  13.422  12.510   2.610
73382ION    CL-43982   1.845  34.649   3.262
73383ION    CL-43983  14.652  44.590  14.339
73384ION    CL-43984   3.215  32.907  12.435
73385ION    CL-43985  30.655  40.620  13.973
73386ION    CL-43986  14.422  16.715   4.257
73387ION    CL-43987  21.608  24.058  14.298
73388ION    CL-43988  21.493   4.439  11.297
73389ION    CL-43989  20.760  11.850  13.757
73390ION    CL-43990   2.854  13.832  10.722
73391ION    CL-43991  19.842  27.965  11.882
73392ION    CL-43992  16.592  20.611   3.108
73393ION    CL-43993  20.263  13.419  13.102
73394ION    CL-43994   4.665   9.065  14.215
73395ION    CL-43995  31.846  27.881   3.580
73396ION    CL-43996  34.939   7.801  10.456
73397ION    CL-43997  20.751  12.541  13.177
73398ION    CL-43998  21.150  17.494   3.585
73399ION    CL-43999  19.611  39.801  14.978
73400ION    CL-44000  31.465  10.442  12.976
73401ION    CL-44001  22.763  15.237   4.913
73402ION    CL-44002   6.072  18.244  11.009
73403ION    CL-44003  33.927  17.596  11.895
73404ION    CL-44004  12.578  10.230   2.723
73405ION    CL-44005  22.430  15.893   2.327
73406ION    CL-44006  20.550  14.362  14.864
73407ION    CL-44007  12.660  42.019  14.286
73408ION    CL-44008  22.739  15.174  12.007
73409ION    CL-44009  13.706  29.343  12.027
73410ION    CL-44010  10.726  30.045   3.313
73411ION    CL-44011  26.057  44.631  11.747
73412ION    CL-44012  24.466  22.512  12.091
73413ION    CL-44013  22.621  25.631   0.326
73414ION    CL-44014  36.489  27.052  13.344
73415ION    CL-44015  43.330  35.528  13.972
73416ION    CL-44016   7.212  40.790   1.495
73417ION    CL-44017  26.596   8.763  11.361
73418ION    CL-44018  42.786  18.038  12.366
73419ION    CL-44019  33.438  39.774  11.808
73420ION    CL-44020  44.858   9.555   2.740
73421ION    CL-44021  36.727   1.510   4.874
73422ION    CL-44022  17.344  14.127  11.768
73423ION    CL-44023  42.765  31.609   1.722
73424ION    CL-44024  13.183  30.997  12.046
73425ION    CL-44025  27.948  18.005  13.346
73426ION    CL-44026  21.948  32.318   2.835
73427ION    CL-44027  42.576   2.333   2.203
73428ION    CL-44028   2.710  26.441  12.056
73429ION    CL-44029   6.361  13.630   2.618
73430ION    CL-44030  13.576  44.619  14.314
73431ION    CL-44031   3.434   2.244   1.668
73432ION    CL-44032  43.287  28.851   0.776
73433ION    CL-44033   0.825  13.169   3.281
73434ION    CL-44034  39.918   0.529   2.594
73435ION    CL-44035   7.700  36.789  12.394
73436ION    CL-44036  44.955   9.835  13.961
73437ION    CL-44037   9.052  33.533  14.477
73438ION    CL-44038  29.709  37.974   9.943
73439ION    CL-44039  29.689  10.032   4.045
73440ION    CL-44040  10.974  38.170   0.633
73441ION    CL-44041  13.903   4.421  11.353
73442ION    CL-44042  36.067  11.089  11.394
73443ION    CL-44043  12.711  16.336   0.245
73444ION    CL-44044  14.278  19.068  11.870
73445ION    CL-44045  35.956  10.229  12.405
73446ION    CL-44046  34.890  17.831   0.596
73447ION    CL-44047  20.319  10.021   4.891
73448ION    CL-44048  14.753   8.380  10.450
73449ION    CL-44049   9.639  36.039  11.856
73450ION    CL-44050  44.332  34.173  13.343
73451ION    CL-44051  34.013  18.285   0.757
73452ION    CL-44052  36.041  33.662  14.746
73453ION    CL-44053  12.107  22.673  12.767
73454ION    CL-44054  33.329  24.320   3.579
73455ION    CL-44055  26.600   5.321   2.449
73456ION    CL-44056  25.454  14.250   3.614
73457ION    CL-44057  33.140  13.123   2.152
73458ION    CL-44058  37.138  20.070   2.799
73459ION    CL-44059  35.225  40.968   2.595
73460ION    CL-44060  31.777   5.299   3.056
73461ION    CL-44061  25.315  14.435   4.462
73462ION    CL-44062   8.651  10.552  12.144
73463ION    CL-44063  44.350  32.417  13.515
73464ION    CL-44064  20.547  22.281  12.344
73465ION    CL-44065  17.062  13.522  13.841
73466ION    CL-44066  24.710  30.952  14.897
73467ION    CL-44067  32.659   1.934   2.295
73468ION    CL-44068  35.159   9.807   4.759
73469ION    CL-44069  13.651  30.210  11.529
73470ION    CL-44070  33.423  26.574   9.775
73471ION    CL-44071  39.523  34.159   1.620
73472ION    CL-44072  39.294  39.866   0.288
73473ION    CL-44073   5.930  10.848  11.543
73474ION    CL-44074  43.215   7.612  13.691
73475ION    CL-44075  17.631   8.043  14.020
73476ION    CL-44076  22.280  39.306  12.027
73477ION    CL-44077   7.163  20.534  14.014
73478ION    CL-44078  20.949  16.324  13.975
73479ION    CL-44079  35.665  11.649  13.963
73480ION    CL-44080   7.612  44.339   9.835
73481ION    CL-44081  44.581  41.471   3.685
73482ION    CL-44082  19.910   7.433  11.129
73483ION    CL-44083   1.523  40.288   0.229
73484ION    CL-44084  39.868   8.629   3.676
73485ION    CL-44085   1.844  38.200   1.618
73486ION    CL-44086  27.415  35.374   2.416
73487ION    CL-44087  16.750  43.422  11.188
73488ION    CL-44088   8.952  41.307   1.645
73489ION    CL-44089  14.525  38.320   4.227
73490ION    CL-44090   2.549  41.499  10.867
73491ION    CL-44091  22.131  17.909   1.250
73492ION    CL-44092  28.051  15.912   1.266
73493ION    CL-44093  20.775  41.970  10.725
73494ION    CL-44094  33.986  35.237   4.550
73495ION    CL-44095  32.843  35.490   1.439
73496ION    CL-44096  30.337  36.700   1.455
73497ION    CL-44097   6.788  22.158  10.647
73498ION    CL-44098  35.993  15.425   0.418
73499ION    CL-44099  39.082   9.772   1.477
73500ION    CL-44100  16.652  27.618   1.262
73501ION    CL-44101  14.271  35.421  13.776
73502ION    CL-44102   8.492  41.164   4.550
73503ION    CL-44103  38.541  28.560  10.888
73504ION    CL-44104  27.473  17.101   3.331
73505ION    CL-44105  10.134  26.366   3.296
73506ION    CL-44106  33.906  30.967  11.041
73507ION    CL-44107   8.699   0.061  14.589
73508ION    CL-44108  37.517  19.474   0.494
73509ION    CL-44109  15.524  24.285   0.402
73510ION    CL-44110   5.184  14.279  13.354
73511ION    CL-44111   1.225   9.700   1.120
73512ION    CL-44112  15.838  35.131   3.308
73513ION    CL-44113  17.146  29.686  10.467
73514ION    CL-44114  16.531  32.585   5.014
73515ION    CL-44115  21.409  10.957   2.053
73516ION    CL-44116  21.046  39.375  14.877
73517ION    CL-44117  19.686  30.488  12.357
73518ION    CL-44118  38.035  30.490  13.943
73519ION    CL-44119  22.173  20.063   3.326
73520ION    CL-44120   5.405  24.252   2.804
73521ION    CL-44121  39.595  30.765   3.528
73522ION    CL-44122  12.071  10.874   2.149
73523ION    CL-44123   2.945  30.392  14.422
73524ION    CL-44124  33.754   8.215   3.608
73525ION    CL-44125  22.417   6.326   2.462
73526ION    CL-44126  23.370  44.991   3.361
73527ION    CL-44127   9.525  34.033   3.751
73528ION    CL-44128   6.106  36.159   5.000
73529ION    CL-44129  34.060  44.365  13.287
73530ION    CL-44130   1.644  20.964   3.609
73531ION    CL-44131  15.467  28.367  14.454
73532ION    CL-44132  12.700  34.599  10.885
73533ION    CL-44133  10.891  29.102   2.626
73534ION    CL-44134   9.596  25.701   1.457
73535ION    CL-44135  23.024  24.734  11.124
73536ION    CL-44136   9.984  19.826  10.416
73537ION    CL-44137  32.606  13.439   3.746
73538ION    CL-44138  31.658  13.855   3.683
73539ION    CL-44139  31.646  14.581   1.678
73540ION    CL-44140  39.658   0.257   3.521
73541ION    CL-44141   6.648  29.265   1.963
73542ION    CL-44142  32.964  43.401  12.515
73543ION    CL-44143   7.696  24.204  11.657
73544ION    CL-44144  30.943  30.519   3.593
73545ION    CL-44145  30.841  14.064   2.614
73546ION    CL-44146  32.121  11.831  14.387
73547ION    CL-44147  26.061  37.724  12.447
73548ION    CL-44148   6.006   2.997   3.642
73549ION    CL-44149  23.144  27.115  13.932
73550ION    CL-44150  18.144  37.353  11.494
73551ION    CL-44151  16.034  21.214  12.158
73552ION    CL-44152  23.059  14.268  11.067
73553ION    CL-44153  37.234  37.027  11.714
73554ION    CL-44154   2.722  36.574  11.637
73555ION    CL-44155  30.989  43.280  10.985
73556ION    CL-44156  40.442  30.225   0.916
73557ION    CL-44157  41.101  41.208  13.333
73558ION    CL-44158  37.203  28.443  14.437
73559ION    CL-44159  26.531  41.093  10.992
73560ION    CL-44160  15.750   6.512   1.787
73561ION    CL-44161  17.037   2.026  11.480
73562ION    CL-44162  11.633  13.081  13.601
73563ION    CL-44163  41.079  18.076   3.358
73564ION    CL-44164   9.699  22.054  13.846
73565ION    CL-44165  21.894  14.309   5.185
73566ION    CL-44166  22.479  36.900  11.098
73567ION    CL-44167  34.882  16.385   2.845
73568ION    CL-44168  39.871  18.128  13.598
73569ION    CL-44169  11.573   6.953   1.012
73570ION    CL-44170  31.435  12.821  10.338
73571ION    CL-44171   0.440  25.113  14.433
73572ION    CL-44172   2.029  14.875  12.156
73573ION    CL-44173  18.975  28.902   9.676
73574ION    CL-44174   4.524  38.170   4.650
73575ION    CL-44175  40.700  42.310   3.578
73576ION    CL-44176  37.418  23.452   2.090
73577ION    CL-44177  28.159  38.015  11.036
73578ION    CL-44178  10.330  15.871   0.143
73579ION    CL-44179  37.864  11.191  14.191
73580ION    CL-44180  19.906  18.138   2.152
73581ION    CL-44181  15.168  31.752  12.040
73582ION    CL-44182  24.023  36.273   0.506
73583ION    CL-44183  19.159  31.754  13.027
73584ION    CL-44184  12.734  36.772  11.629
73585ION    CL-44185  37.572   6.487   0.503
73586ION    CL-44186   7.907  37.417   4.166
73587ION    CL-44187  11.547  43.850   4.600
73588ION    CL-44188  36.664  39.909   4.139
73589ION    CL-44189  38.940  35.415  13.175
73590ION    CL-44190  16.371  19.256   1.275
73591ION    CL-44191  26.263  37.587   1.765
73592ION    CL-44192  40.978   0.339   0.279
73593ION    CL-44193  17.426  19.109  14.157
73594ION    CL-44194   6.871  11.626  11.942
73595ION    CL-44195  41.378   1.318   4.942
73596ION    CL-44196  21.794   0.203  12.061
73597ION    CL-44197  34.897  15.590  12.429
73598ION    CL-44198   9.066  15.778  11.166
73599ION    CL-44199  18.472  42.917  10.057
73600ION    CL-44200   8.944   0.034   3.650
73601ION    CL-44201  43.546  21.213  14.362
73602ION    CL-44202  15.640  40.168   3.542
73603ION    CL-44203  10.075   4.824   3.747
73604ION    CL-44204  19.433  11.726  11.178
73605ION    CL-44205  33.249   2.432  10.480
73606ION    CL-44206  26.959  38.337   1.965
73607ION    CL-44207   8.402  31.920   3.651
73608ION    CL-44208  22.533  19.419  12.044
73609ION    CL-44209  21.849   4.493  13.003
73610ION    CL-44210  19.716   8.656   2.039
73611ION    CL-44211  33.452  18.905  10.763
73612ION    CL-44212   3.936  10.124  14.766
73613ION    CL-44213  23.013  42.313   3.549
73614ION    CL-44214  34.456  44.294  14.235
73615ION    CL-44215   7.792  19.673   4.241
73616ION    CL-44216  17.860  10.392   4.921
73617ION    CL-44217  10.362   4.299  14.430
73618ION    CL-44218  40.177   2.430   2.780
73619ION    CL-44219  41.845  44.842   0.306
73620ION    CL-44220  23.679  29.631  12.521
73621ION    CL-44221  30.937  43.065  12.952
73622ION    CL-44222  40.142  30.356   2.344
73623ION    CL-44223  24.049  18.564   0.589
73624ION    CL-44224   1.271  21.194   1.095
73625ION    CL-44225  14.066  27.378   3.963
73626ION    CL-44226   7.113   8.661   3.779
73627ION    CL-44227  42.572  17.711  11.113
73628ION    CL-44228  27.674  15.309  10.373
73629ION    CL-44229  39.250  15.204   2.127
73630ION    CL-44230  43.510  43.459  12.591
73631ION    CL-44231  18.241  10.628   1.805
73632ION    CL-44232  38.629   5.986   4.593
73633ION    CL-44233  10.363  22.331   5.049
73634ION    CL-44234   6.652  17.739  10.576
73635ION    CL-44235  37.001  38.481  12.982
73636ION    CL-44236   8.233  13.735   3.293
73637ION    CL-44237  39.260  12.857   3.596
73638ION    CL-44238  18.631   4.496  12.353
73639ION    CL-44239   6.701  31.172  10.885
73640ION    CL-44240  32.919  42.069  13.094
73641ION    CL-44241  28.062  32.842  13.798
73642ION    CL-44242  13.305  40.387  14.063
73643ION    CL-44243  32.602  21.466  14.584
73644ION    CL-44244   4.349  27.061  11.753
73645ION    CL-44245  18.590  25.311  13.928
73646ION    CL-44246   2.231  19.069  12.476
73647ION    CL-44247  19.665  23.029  13.156
73648ION    CL-44248  19.818   1.294   1.662
73649ION    CL-44249   9.570  11.616   2.795
73650ION    CL-44250  30.962   5.904  12.286
73651ION    CL-44251  19.332   8.212  14.968
73652ION    CL-44252  43.635  37.571  13.645
73653ION    CL-44253  22.022   1.659   1.501
73654ION    CL-44254  24.707  32.990   3.071
73655ION    CL-44255  22.326  15.048   1.475
73656ION    CL-44256  23.407  26.127   1.416
73657ION    CL-44257  41.041  28.665  12.895
73658ION    CL-44258   7.573  10.698  14.484
73659ION    CL-44259  44.388  40.382  12.226
73660ION    CL-44260  23.566  25.251   3.574
73661ION    CL-44261  28.592  20.728   9.989
73662ION    CL-44262  18.748  31.589  14.285
73663ION    CL-44263  13.053  28.969  13.386
73664ION    CL-44264   6.805  24.150  10.738
73665ION    CL-44265   3.732  33.285   1.483
73666ION    CL-44266  33.568   8.398   1.639
73667ION    CL-44267  40.447  18.221   2.597
73668ION    CL-44268   6.516  10.043   0.406
73669ION    CL-44269  23.212  36.651  14.170
73670ION    CL-44270  43.494  21.400  10.549
73671ION    CL-44271  38.481  34.110   2.849
73672ION    CL-44272  18.850   8.392   5.084
73673ION    CL-44273   3.892  34.848   4.977
73674ION    CL-44274  11.347   8.133   2.627
73675ION    CL-44275  25.384   5.322  12.581
73676ION    CL-44276  24.081   3.364   0.997
73677ION    CL-44277  11.851   8.517  11.650
73678ION    CL-44278   6.966  14.589  12.418
73679ION    CL-44279  13.638  34.435  10.579
73680ION    CL-44280  44.290  13.878   4.081
73681ION    CL-44281  14.868  39.409   4.980
73682ION    CL-44282  15.623  15.090   4.054
73683ION    CL-44283   9.775  14.400  13.650
73684ION    CL-44284   3.834  39.741  12.387
73685ION    CL-44285  20.660  33.657   2.287
73686ION    CL-44286  15.026  32.991  13.967
73687ION    CL-44287   8.370  28.416   4.328
73688ION    CL-44288   6.520  28.197   1.847
73689ION    CL-44289  22.683  35.319   2.333
73690ION    CL-44290  28.927  12.783  12.594
73691ION    CL-44291  37.483   1.508   4.517
73692ION    CL-44292  38.360  36.294  10.375
73693ION    CL-44293  11.169  33.128   3.273
73694ION    CL-44294  10.417  29.853  14.384
73695ION    CL-44295  16.275  21.314  14.171
73696ION    CL-44296  37.374   9.916  13.875
73697ION    CL-44297  26.633  10.661   2.051
73698ION    CL-44298   3.989  12.620   1.255
73699ION    CL-44299  20.092   3.956   3.371
73700ION    CL-44300  23.545  13.005  11.127
73701ION    CL-44301  27.084   8.933   4.123
73702ION    CL-44302  41.080  19.808  12.033
73703ION    CL-44303  17.494  27.221  12.969
73704ION    CL-44304  16.355  27.153  11.001
73705ION    CL-44305  11.702  36.458  12.298
73706ION    CL-44306  43.182   1.851  14.700
73707ION    CL-44307  15.921  16.826  10.132
73708ION    CL-44308   6.669  10.443  13.356
73709ION    CL-44309  44.395  36.601  12.106
73710ION    CL-44310   2.379  11.831   1.214
73711ION    CL-44311  24.780  43.804  12.048
73712ION    CL-44312   7.664  10.132   3.459
73713ION    CL-44313  40.283  18.850   1.198
73714ION    CL-44314  19.130  30.955   4.984
73715ION    CL-44315  21.184   4.979  13.306
73716ION    CL-44316  18.773  30.174   0.848
73717ION    CL-44317  26.569  14.329  14.916
73718ION    CL-44318  16.955  33.301   5.529
73719ION    CL-44319  44.638  11.268   4.011
73720ION    CL-44320  25.131  25.336   3.803
73721ION    CL-44321   8.807  20.838   2.483
73722ION    CL-44322  44.047  28.308   3.363
73723ION    CL-44323  34.053  17.626   4.475
73724ION    CL-44324  15.268  27.206   1.443
73725ION    CL-44325   3.725  21.569   0.490
73726ION    CL-44326  10.530  35.930  11.976
73727ION    CL-44327   4.174  43.389   5.059
73728ION    CL-44328  12.342   6.928  10.832
73729ION    CL-44329   2.861  34.886   3.613
73730ION    CL-44330  43.259   6.361  12.479
73731ION    CL-44331  21.549  28.766   0.294
73732ION    CL-44332   9.423  20.369   2.955
73733ION    CL-44333  37.928  31.331  13.954
73734ION    CL-44334  21.103  36.591   2.727
73735ION    CL-44335   9.452   5.233  14.797
73736ION    CL-44336  33.442  13.094  12.024
73737ION    CL-44337  34.623   8.768   0.679
73738ION    CL-44338  25.405  11.720   1.433
73739ION    CL-44339  29.421   3.049   0.789
73740ION    CL-44340   5.408  16.908   4.409
73741ION    CL-44341   9.731  11.415  13.088
73742ION    CL-44342  35.588  26.440   1.678
73743ION    CL-44343  23.872  19.070   1.727
73744ION    CL-44344  30.974  32.399  10.371
73745ION    CL-44345  17.222  38.505   2.084
73746ION    CL-44346  18.345  20.506   4.317
73747ION    CL-44347  29.679   2.238  11.314
73748ION    CL-44348  13.205  13.582  11.169
73749ION    CL-44349   0.517  40.745  11.187
73750ION    CL-44350   6.228  38.563   1.749
73751ION    CL-44351  30.028  29.549  13.256
73752ION    CL-44352  36.286  34.160   1.293
73753ION    CL-44353  16.994   9.482  11.520
73754ION    CL-44354  17.161  25.751   0.356
73755ION    CL-44355  22.016  10.077  11.323
73756ION    CL-44356  21.141  29.854   2.999
73757ION    CL-44357  42.585  17.116  14.001
73758ION    CL-44358   6.120  21.216   3.750
73759ION    CL-44359   9.845  44.050   1.434
73760ION    CL-44360  42.158   1.738  14.852
73761ION    CL-44361   3.974   5.198  11.198
73762ION    CL-44362  29.071  33.934   2.883
73763ION    CL-44363   7.781  21.669   1.699
73764ION    CL-44364  36.222  12.061  12.124
73765ION    CL-44365  29.494  35.054   3.847
73766ION    CL-44366  37.975  42.950  12.571
73767ION    CL-44367  28.344   2.618  10.237
73768ION    CL-44368   0.495  41.487  11.708
73769ION    CL-44369  29.911  29.000  12.622
73770ION    CL-44370  14.928  37.530   3.189
73771ION    CL-44371  19.602   3.025  10.480
73772ION    CL-44372  15.141  44.953   2.194
73773ION    CL-44373  36.895  26.673  14.976
73774ION    CL-44374  22.252  11.921  12.525
73775ION    CL-44375  27.396  35.337   4.801
73776ION    CL-44376  29.003  32.553  10.814
73777ION    CL-44377  14.616  16.524  13.123
73778ION    CL-44378  13.881  36.050   4.748
73779ION    CL-44379  41.290  42.714   3.033
73780ION    CL-44380  14.866  31.643  13.766
73781ION    CL-44381  33.740  19.467   3.154
73782ION    CL-44382  43.651   3.665  11.045
73783ION    CL-44383  16.699  26.327  11.575
73784ION    CL-44384   8.554  28.475   2.370
73785ION    CL-44385  24.103  28.925   4.809
73786ION    CL-44386   8.176  11.670  10.870
73787ION    CL-44387  32.926  17.108   4.496
73788ION    CL-44388   0.222   7.703  11.074
73789ION    CL-44389  44.885  38.850   2.779
73790ION    CL-44390  40.047   9.376  10.692
73791ION    CL-44391   8.389  23.521  11.887
73792ION    CL-44392  10.761  33.873   2.032
73793ION    CL-44393  39.533  30.945  13.922
73794ION    CL-44394  17.867  34.899  12.888
73795ION    CL-44395  43.450  24.446  12.857
73796ION    CL-44396  16.461   8.584   4.065
73797ION    CL-44397  40.472  15.484  12.067
73798ION    CL-44398   4.400  35.337  11.781
73799ION    CL-44399  21.002  30.214   1.760
73800ION    CL-44400  42.900   0.185   3.771
73801ION    CL-44401  11.053   5.791   4.804
73802ION    CL-44402   2.355  33.998  12.648
73803ION    CL-44403  26.687  20.789  14.143
73804ION    CL-44404  38.968  34.893  12.314
73805ION    CL-44405  22.108   1.319   0.717
73806ION    CL-44406  32.852  37.481  11.590
73807ION    CL-44407  32.762   3.016  13.331
73808ION    CL-44408   9.442  31.863   0.513
73809ION    CL-44409  22.864   8.212  12.202
73810ION    CL-44410  34.054   4.773   3.205
73811ION    CL-44411   6.151  26.072   0.015
73812ION    CL-44412  28.269  27.001  13.194
73813ION    CL-44413  40.909  17.088  11.713
73814ION    CL-44414  12.206  34.251   0.021
73815ION    CL-44415  16.583  12.159  11.095
73816ION    CL-44416  20.140   0.182  11.712
73817ION    CL-44417   4.786   6.642   4.964
73818ION    CL-44418  17.066  42.768   1.289
73819ION    CL-44419  30.577  32.535   1.319
73820ION    CL-44420  43.562  21.548   2.518
73821ION    CL-44421  39.204  29.237  12.696
73822ION    CL-44422  37.322  18.656  11.716
73823ION    CL-44423  11.604   1.386   0.805
73824ION    CL-44424  41.122  12.896  14.308
73825ION    CL-44425  20.187  27.141   1.442
73826ION    CL-44426  41.371  34.789   1.254
73827ION    CL-44427  37.301  33.084   4.284
73828ION    CL-44428  33.511  24.426   0.399
73829ION    CL-44429  26.239  29.336   1.388
73830ION    CL-44430  27.661  37.371   0.678
73831ION    CL-44431  44.601  44.961   1.199
73832ION    CL-44432  31.934  41.015   0.913
73833ION    CL-44433   4.434  18.694   1.967
73834ION    CL-44434  29.620   7.664  11.468
73835ION    CL-44435  16.427  31.376  12.817
73836ION    CL-44436  12.541   8.657   3.158
73837ION    CL-44437  31.997  24.507   3.835
73838ION    CL-44438  32.600   7.414  13.383
73839ION    CL-44439   0.215  34.011   1.083
73840ION    CL-44440  35.974  23.429   1.930
73841ION    CL-44441  18.482  29.766  14.983
73842ION    CL-44442  37.961  24.654  11.829
73843ION    CL-44443  25.911   2.513  14.988
73844ION    CL-44444  31.615  29.507  12.908
73845ION    CL-44445  28.293   5.329  10.594
73846ION    CL-44446   0.821  21.415  12.217
73847ION    CL-44447  31.672  27.024  13.635
73848ION    CL-44448  38.608  38.642   0.295
73849ION    CL-44449  39.282  20.669   0.960
73850ION    CL-44450   8.914  35.566   0.137
73851ION    CL-44451   1.715  18.079   2.386
73852ION    CL-44452  11.169   2.268  11.692
73853ION    CL-44453  25.526   9.433   2.047
73854ION    CL-44454  13.290  34.470  12.129
73855ION    CL-44455   6.492   0.316   2.270
73856ION    CL-44456   3.195  44.849  13.894
73857ION    CL-44457  43.903   9.958   0.199
73858ION    CL-44458  32.530  38.838  12.986
73859ION    CL-44459  31.851   1.522   0.941
73860ION    CL-44460   1.188  37.055  11.030
73861ION    CL-44461  16.281  43.883   1.394
73862ION    CL-44462  28.498  10.062  14.126
73863ION    CL-44463  13.216  12.526  12.307
73864ION    CL-44464  30.239  34.784  11.588
73865ION    CL-44465  43.034  33.429  10.534
73866ION    CL-44466   2.070   9.373  11.407
73867ION    CL-44467  29.593   9.397  13.011
73868ION    CL-44468  38.354  29.933   2.484
73869ION    CL-44469  12.262  33.958   1.116
73870ION    CL-44470  39.752  16.636   3.667
73871ION    CL-44471  14.547  27.548   3.195
73872ION    CL-44472   6.469  43.026  14.880
73873ION    CL-44473  18.283  44.708   1.387
73874ION    CL-44474  19.163  40.949  11.149
73875ION    CL-44475  26.611  18.226   3.597
73876ION    CL-44476  10.573  36.994   0.743
73877ION    CL-44477  44.457  24.826  13.781
73878ION    CL-44478  15.277  22.247   2.334
73879ION    CL-44479   2.407   5.856  11.573
73880ION    CL-44480   5.502  39.586  11.099
73881ION    CL-44481  23.467  33.426  11.025
73882ION    CL-44482   4.866   4.258   2.770
73883ION    CL-44483  27.781   3.724   1.720
73884ION    CL-44484  33.330   3.465  10.727
73885ION    CL-44485  26.785  27.442  11.170
73886ION    CL-44486   1.006  39.894  12.856
73887ION    CL-44487  15.328  26.953   3.963
73888ION    CL-44488  17.866  30.056   4.596
73889ION    CL-44489  20.612  31.476   4.605
73890ION    CL-44490  25.191  36.782  14.400
73891ION    CL-44491  41.251  23.355   3.654
73892ION    CL-44492   5.130  36.657   0.333
73893ION    CL-44493   4.953  34.403   0.519
73894ION    CL-44494  26.997  33.444  11.938
73895ION    CL-44495   4.964   7.443  11.156
73896ION    CL-44496  19.984  39.268   3.415
73897ION    CL-44497  25.378  35.669   4.227
73898ION    CL-44498   2.377   8.632  12.175
73899ION    CL-44499  35.739  34.001  13.659
73900ION    CL-44500   0.460  10.362   1.167
73901ION    CL-44501   1.197  18.325   0.870
73902ION    CL-44502  34.029   6.403  14.463
73903ION    CL-44503  14.859  22.584   9.891
73904ION    CL-44504  44.137  16.761   4.040
73905ION    CL-44505  44.830  34.455  14.910
73906ION    CL-44506   5.360  21.300   0.138
73907ION    CL-44507  27.580  19.662   2.148
73908ION    CL-44508  44.536  14.647  10.910
73909ION    CL-44509  13.920   9.599  11.224
73910ION    CL-44510  23.612  40.258   2.739
73911ION    CL-44511  33.871   4.003   3.815
73912ION    CL-44512  35.647  29.942   3.922
73913ION    CL-44513  37.391  44.843  13.463
73914ION    CL-44514  27.682  33.229   2.772
73915ION    CL-44515  31.222   8.045   0.877
73916ION    CL-44516  25.845  44.816  12.707
73917ION    CL-44517  41.112   9.312  10.878
73918ION    CL-44518  31.540  16.377   5.043
73919ION    CL-44519   7.749  27.539   5.142
73920ION    CL-44520  28.250   4.541   2.784
73921ION    CL-44521  26.129  17.487  11.778
73922ION    CL-44522  43.924  19.055   2.075
73923ION    CL-44523  12.867  29.782  14.654
73924ION    CL-44524  22.226   9.179   3.526
73925ION    CL-44525  17.888  42.399  10.297
73926ION    CL-44526  20.265   4.950   0.691
73927ION    CL-44527  28.073  42.488  10.446
73928ION    CL-44528  35.833  22.657  14.353
73929ION    CL-44529  10.847   6.812  13.761
73930ION    CL-44530   9.624  34.629   0.956
73931ION    CL-44531  33.948  40.250   2.256
73932ION    CL-44532  23.503   4.188   4.590
73933ION    CL-44533  17.074  23.731  12.993
73934ION    CL-44534  35.503   6.395   1.258
73935ION    CL-44535  24.394   8.898  14.220
73936ION    CL-44536  29.083  20.827   3.149
73937ION    CL-44537   7.331   9.406   1.181
73938ION    CL-44538  42.005  13.955  11.392
73939ION    CL-44539  20.131   4.064   0.663
73940ION    CL-44540  34.447  37.632   0.475
73941ION    CL-44541  41.188  32.886   4.139
73942ION    CL-44542  33.488  38.646   1.763
73943ION    CL-44543  18.931  35.028  13.386
73944ION    CL-44544   3.878   7.089   5.147
73945ION    CL-44545   4.340   4.428  11.720
73946ION    CL-44546  21.093  16.284  12.128
73947ION    CL-44547  25.356  38.909   2.547
73948ION    CL-44548   1.653  17.109  14.866
73949ION    CL-44549   7.833  18.107  12.977
73950ION    CL-44550  18.313   5.250  14.562
73951ION    CL-44551  35.307  37.049  12.500
73952ION    CL-44552   3.512  30.672  10.569
73953ION    CL-44553  42.932  37.993  10.998
73954ION    CL-44554  12.325   9.186   0.175
73955ION    CL-44555  19.396  13.850  13.282
73956ION    CL-44556  15.532  30.632  11.047
73957ION    CL-44557  11.928  18.983   3.632
73958ION    CL-44558  13.823  38.129   0.526
73959ION    CL-44559   9.308  20.670  13.030
73960ION    CL-44560   4.933  20.678  14.670
73961ION    CL-44561  12.635  34.171   3.554
73962ION    CL-44562  41.306  16.875   3.179
73963ION    CL-44563  15.297   5.616   0.543
73964ION    CL-44564  43.840   6.835  11.585
73965ION    CL-44565  12.353  35.203   1.880
73966ION    CL-44566  28.424  12.207  11.950
73967ION    CL-44567  35.644  14.758   0.942
73968ION    CL-44568  10.922  16.285  14.315
73969ION    CL-44569  20.917  12.094  14.740
73970ION    CL-44570  33.921   2.470   2.873
73971ION    CL-44571  25.494  37.957  13.908
73972ION    CL-44572  19.840  40.630  12.344
73973ION    CL-44573  25.910  36.665   1.920
73974ION    CL-44574  30.380   5.208  13.442
73975ION    CL-44575  17.080  42.858   3.290
73976ION    CL-44576  14.996   5.107  10.771
73977ION    CL-44577  42.557  23.171   1.448
73978ION    CL-44578   3.273  17.761   2.672
73979ION    CL-44579   5.151  29.006   1.642
73980ION    CL-44580  41.427  17.148  14.768
73981ION    CL-44581  20.506  27.208   0.497
73982ION    CL-44582  21.726  23.344  11.879
73983ION    CL-44583  35.080  22.344  12.542
73984ION    CL-44584  44.207  36.873   2.571
73985ION    CL-44585  12.338  44.524   0.966
73986ION    CL-44586  24.751   9.880  11.793
73987ION    CL-44587  14.444  20.436   5.061
73988ION    CL-44588  12.700  18.715   0.862
73989ION    CL-44589  22.623  14.249   4.978
73990ION    CL-44590   9.812  40.024   4.958
73991ION    CL-44591  33.725   2.746  13.312
73992ION    CL-44592  36.262  37.084  14.154
73993ION    CL-44593   8.703  11.707   2.217
73994ION    CL-44594  23.239  38.912  11.874
73995ION    CL-44595  37.921  29.518   3.172
73996ION    CL-44596  16.083  31.398  11.846
73997ION    CL-44597  19.815  33.610  11.307
73998ION    CL-44598  37.049   8.556  11.948
73999ION    CL-44599  32.309  21.452   5.040
74000ION    CL-44600  21.728   4.234   3.280
74001ION    CL-44601   4.519  29.116  12.694
74002ION    CL-44602  31.627  31.121  11.937
74003ION    CL-44603  12.528  25.089   0.552
74004ION    CL-44604  14.564   8.377  12.441
74005ION    CL-44605  25.651   6.506  10.412
74006ION    CL-44606  20.362  42.970   2.275
74007ION    CL-44607  12.114  19.194  14.402
74008ION    CL-44608  37.007  26.955   4.489
74009ION    CL-44609  17.378  37.201  14.205
74010ION    CL-44610  19.998  37.680  10.665
74011ION    CL-44611  12.201  22.489   3.308
74012ION    CL-44612  15.215  30.213  13.847
74013ION    CL-44613  17.174   2.198   3.883
74014ION    CL-44614  42.540  21.530  13.858
74015ION    CL-44615  15.277  30.398   0.780
74016ION    CL-44616  43.353  43.029  11.468
74017ION    CL-44617  23.345  32.496   2.699
74018ION    CL-44618  24.777  35.074   0.738
74019ION    CL-44619  25.622  15.422   3.199
74020ION    CL-44620  37.167  16.698   1.088
74021ION    CL-44621  14.607  26.542  11.839
74022ION    CL-44622  21.619   5.341   3.284
74023ION    CL-44623   5.606  32.296   3.585
74024ION    CL-44624  43.710  28.466  14.371
74025ION    CL-44625  15.301  36.552  14.481
74026ION    CL-44626  10.990  29.350  11.532
74027ION    CL-44627  28.693  17.522  12.728
74028ION    CL-44628  23.299   5.499  14.838
74029ION    CL-44629  36.553  16.127   4.212
74030ION    CL-44630  16.427  24.688   0.255
74031ION    CL-44631   7.070  32.082   0.387
74032ION    CL-44632  36.735   0.605   5.111
74033ION    CL-44633  21.199  36.500  14.405
74034ION    CL-44634  43.350  17.974   2.470
74035ION    CL-44635  20.839   1.320  11.159
74036ION    CL-44636   7.018  30.133  13.972
74037ION    CL-44637  38.544  30.957  14.332
74038ION    CL-44638  43.989  23.110   1.617
74039ION    CL-44639  16.203  33.709   2.386
74040ION    CL-44640  12.250  17.605  11.638
74041ION    CL-44641  21.331  23.538  13.766
74042ION    CL-44642  23.693  34.386   3.318
74043ION    CL-44643   4.412  38.937   4.051
74044ION    CL-44644  17.351  36.902  11.934
74045ION    CL-44645  22.224  25.010  11.695
74046ION    CL-44646  36.861  42.117   0.084
74047ION    CL-44647  38.677  13.531   0.897
74048ION    CL-44648  35.330  28.400   2.390
74049ION    CL-44649  19.800   7.906  12.401
74050ION    CL-44650  20.525  25.107   3.294
74051ION    CL-44651   7.556  34.455   1.879
74052ION    CL-44652  24.416   9.559  10.906
74053ION    CL-44653  21.212  12.739   0.445
74054ION    CL-44654   2.535  15.745   1.318
74055ION    CL-44655  13.537  14.594  12.873
74056ION    CL-44656  21.620   8.588   1.935
74057ION    CL-44657  27.828  42.591  12.374
74058ION    CL-44658  16.888  16.015   0.293
74059ION    CL-44659  43.680  22.244   3.607
74060ION    CL-44660  28.286  33.065  12.958
74061ION    CL-44661  30.006  30.359   1.218
74062ION    CL-44662  19.777  31.386  12.216
74063ION    CL-44663  40.395  43.417  10.807
74064ION    CL-44664   4.977  31.610   1.411
74065ION    CL-44665  17.645  42.770   3.990
74066ION    CL-44666  18.652   0.899   4.408
74067ION    CL-44667  36.697  11.409  12.563
74068ION    CL-44668   4.184   3.857   4.171
74069ION    CL-44669  10.920  16.494  11.874
74070ION    CL-44670  15.478   1.005   4.009
74071ION    CL-44671  26.373  42.150  14.728
74072ION    CL-44672  37.125  33.660   1.874
74073ION    CL-44673  41.558  22.561  14.152
74074ION    CL-44674  36.894  22.082   4.896
74075ION    CL-44675  42.241  10.040  14.241
74076ION    CL-44676  39.109  44.178   1.929
74077ION    CL-44677  27.832   7.684   4.431
74078ION    CL-44678  41.119  13.317   4.895
74079ION    CL-44679  23.834  11.105  10.757
74080ION    CL-44680   0.021  10.843  13.957
74081ION    CL-44681  37.875  10.737   0.513
74082ION    CL-44682  12.826  26.734   2.071
74083ION    CL-44683   6.604  20.639   9.914
74084ION    CL-44684   2.147   1.606   1.255
74085ION    CL-44685  36.707  44.024  12.141
74086ION    CL-44686  13.300  37.642  12.520
74087ION    CL-44687  20.831  15.433   4.388
74088ION    CL-44688  18.106  17.591   0.878
74089ION    CL-44689  33.322  42.021  14.856
74090ION    CL-44690  37.172  34.130   4.747
74091ION    CL-44691   4.099  29.158  14.533
74092ION    CL-44692  19.000  17.144   0.834
74093ION    CL-44693  14.240   0.820  12.786
74094ION    CL-44694  12.449   5.905   1.234
74095ION    CL-44695  37.536  26.730  13.561
74096ION    CL-44696  38.079  44.961   1.397
74097ION    CL-44697  20.491  21.173   2.656
74098ION    CL-44698  15.266   3.448  11.583
74099ION    CL-44699  22.780  40.904   1.634
74100ION    CL-44700  23.979   1.780   1.829
74101ION    CL-44701  44.611  25.131   1.962
74102ION    CL-44702  23.020   7.375  11.886
74103ION    CL-44703  24.645   7.033  14.834
74104ION    CL-44704  20.809   8.866  13.713
74105ION    CL-44705  15.311  10.558  10.443
74106ION    CL-44706  39.848  25.302  13.515
74107ION    CL-44707  26.540  16.337  10.689
74108ION    CL-44708  16.589  38.794  11.790
74109ION    CL-44709  10.877  34.161   1.241
74110ION    CL-44710  18.451  10.260  13.920
74111ION    CL-44711  38.254  30.839  10.639
74112ION    CL-44712   5.591  10.889   4.579
74113ION    CL-44713  20.026  11.924   2.161
74114ION    CL-44714  14.831  27.896  13.843
74115ION    CL-44715   3.778  32.451   1.175
74116ION    CL-44716  13.687  31.414  11.137
74117ION    CL-44717  25.725  36.784  12.004
74118ION    CL-44718  11.402   3.663  14.972
74119ION    CL-44719  33.523  16.374   3.811
74120ION    CL-44720  12.177  33.323  12.101
74121ION    CL-44721  35.506  35.575  12.697
74122ION    CL-44722  28.540  19.702  13.891
74123ION    CL-44723  21.000   7.052  10.520
74124ION    CL-44724  22.057  20.998  14.459
74125ION    CL-44725  25.731   8.995   1.248
74126ION    CL-44726  31.549  25.739   0.512
74127ION    CL-44727  15.453   8.508   4.097
74128ION    CL-44728   2.997  17.277   4.269
74129ION    CL-44729  24.083  23.000   0.028
74130ION    CL-44730  22.880  39.073  12.793
74131ION    CL-44731  16.513  38.062  13.530
74132ION    CL-44732  43.710  24.472  14.947
74133ION    CL-44733  31.606  11.611   4.894
74134ION    CL-44734   8.812  10.204  11.220
74135ION    CL-44735  37.823  12.578   4.178
74136ION    CL-44736  43.446  43.502   3.801
74137ION    CL-44737  12.840  27.295   0.835
74138ION    CL-44738  34.041   3.111   4.235
74139ION    CL-44739   2.968  23.992   3.671
74140ION    CL-44740  36.873  24.140   1.210
74141ION    CL-44741  34.845   9.853   3.312
74142ION    CL-44742  30.092   8.430  13.400
74143ION    CL-44743   6.435  16.312   4.757
74144ION    CL-44744  18.645  23.983   1.769
74145ION    CL-44745  16.762  14.867  13.837
74146ION    CL-44746  33.200   5.730  11.104
74147ION    CL-44747  16.016  16.025  10.723
74148ION    CL-44748  20.755  43.227   1.581
74149ION    CL-44749  15.176  39.611  14.328
74150ION    CL-44750   0.561  20.749   0.390
74151ION    CL-44751   3.133   0.556  11.660
74152ION    CL-44752  18.807  14.741  14.293
74153ION    CL-44753  18.978  27.190   3.682
74154ION    CL-44754  25.045  17.280  11.954
74155ION    CL-44755  24.755  12.388  10.644
74156ION    CL-44756  17.594  28.704  10.545
74157ION    CL-44757  41.071  33.128  13.271
74158ION    CL-44758  23.843  41.132  14.365
74159ION    CL-44759   6.795  19.900  14.324
74160ION    CL-44760  44.747  27.478   0.481
74161ION    CL-44761  38.034   2.304   3.357
74162ION    CL-44762  33.517  25.008  14.715
74163ION    CL-44763  15.135  44.129   5.007
74164ION    CL-44764  23.590  14.747  13.445
74165ION    CL-44765   2.147  33.051   1.233
74166ION    CL-44766  24.906  28.598   3.141
74167ION    CL-44767  19.656  16.623  12.864
74168ION    CL-44768   5.367  33.822   3.613
74169ION    CL-44769  29.804  17.393   0.519
74170ION    CL-44770   3.395  40.217   0.967
74171ION    CL-44771  30.180   0.687   4.248
74172ION    CL-44772  39.001   8.201  13.944
74173ION    CL-44773  20.215  12.738  11.005
74174ION    CL-44774  31.100  40.545   4.100
74175ION    CL-44775   5.023  10.674   3.754
74176ION    CL-44776  28.240  29.945   0.816
74177ION    CL-44777  22.692   9.480   2.654
74178ION    CL-44778   1.886  29.431  13.819
74179ION    CL-44779  27.620  24.618  10.764
74180ION    CL-44780  18.104   1.988   3.445
74181ION    CL-44781   5.668  36.360   3.789
74182ION    CL-44782  39.771  28.160  13.704
74183ION    CL-44783   3.160  10.131   0.433
74184ION    CL-44784  27.564  43.206   0.215
74185ION    CL-44785  30.634  42.886  14.017
74186ION    CL-44786   5.710   1.433   3.691
74187ION    CL-44787  41.686  14.232  12.192
74188ION    CL-44788  20.293  43.891   2.147
74189ION    CL-44789  36.426  30.006  14.478
74190ION    CL-44790  44.053  11.606   5.093
74191ION    CL-44791  12.100  12.173   0.204
74192ION    CL-44792  23.121  28.037   1.289
74193ION    CL-44793  24.166   5.873  11.156
74194ION    CL-44794  39.305  10.786   3.809
74195ION    CL-44795  17.094  16.289   1.847
74196ION    CL-44796  23.728  23.489   0.840
74197ION    CL-44797  15.755  26.993  14.481
74198ION    CL-44798  21.876   2.482   3.295
74199ION    CL-44799  41.303   6.440   3.510
74200ION    CL-44800  43.937  16.538  12.849
74201ION    CL-44801   7.763  43.776   0.723
74202ION    CL-44802  42.260  42.397  14.932
74203ION    CL-44803  29.525  24.231   1.242
74204ION    CL-44804  42.028  21.410   3.570
74205ION    CL-44805  18.076  16.405  12.425
74206ION    CL-44806   1.482  21.808   3.098
74207ION    CL-44807  15.386  19.192  11.998
74208ION    CL-44808   4.975  24.520   0.338
74209ION    CL-44809  40.190  12.634  14.560
74210ION    CL-44810   4.773  17.779   1.560
74211ION    CL-44811  30.113  27.381  14.808
74212ION    CL-44812  14.393   6.744   4.263
74213ION    CL-44813  26.677   0.740   5.011
74214ION    CL-44814  35.056   9.837  12.053
74215ION    CL-44815  25.901  18.747  12.360
74216ION    CL-44816  13.177  36.719   3.556
74217ION    CL-44817  28.455   6.169  11.125
74218ION    CL-44818  12.859  31.572   1.886
74219ION    CL-44819   2.364   3.693  14.986
74220ION    CL-44820  25.046  37.025  10.765
74221ION    CL-44821  43.749  12.631   4.136
74222ION    CL-44822  31.046   7.339   4.607
74223ION    CL-44823  38.743  24.429   3.264
74224ION    CL-44824   4.147   9.334   0.988
74225ION    CL-44825  36.485   2.690  11.172
74226ION    CL-44826  41.469  16.098   3.925
74227ION    CL-44827  27.050  28.026   2.234
74228ION    CL-44828  32.273  13.887  13.718
74229ION    CL-44829  16.509  19.207  11.858
74230ION    CL-44830  12.640  40.493  11.358
74231ION    CL-44831  12.490  38.929  14.414
74232ION    CL-44832  37.137  16.362   2.030
74233ION    CL-44833  31.617  19.235   1.424
74234ION    CL-44834  20.874   9.092   9.841
74235ION    CL-44835  32.964  19.203   3.527
74236ION    CL-44836  23.937  11.465  12.579
74237ION    CL-44837   3.304  25.987  10.760
74238ION    CL-44838  26.245  17.237  13.266
74239ION    CL-44839  36.470  13.179  12.530
74240ION    CL-44840  31.323  20.034   3.602
74241ION    CL-44841  36.254  24.546  14.429
74242ION    CL-44842  34.541  16.883   4.910
74243ION    CL-44843  17.079  28.005  13.432
74244ION    CL-44844  44.805  30.387  13.910
74245ION    CL-44845  41.406  19.242  13.908
74246ION    CL-44846  41.772   2.257   1.247
74247ION    CL-44847  21.482   5.837   1.798
74248ION    CL-44848  23.127  18.924   1.258
74249ION    CL-44849   4.699  23.663  14.111
74250ION    CL-44850  26.253   7.840  12.658
74251ION    CL-44851  12.506  12.260   1.114
74252ION    CL-44852  35.530  25.968  13.857
74253ION    CL-44853  29.584  24.475   2.232
74254ION    CL-44854  20.758  19.292   0.680
74255ION    CL-44855  11.147  12.218  10.861
74256ION    CL-44856  19.337   7.545   4.859
74257ION    CL-44857  39.550  39.646   1.124
74258ION    CL-44858  32.229  15.324   4.785
74259ION    CL-44859  24.722  29.442   5.125
74260ION    CL-44860  15.321  43.462  13.901
74261ION    CL-44861  44.004   5.333   2.208
74262ION    CL-44862  18.455  39.239  14.098
74263ION    CL-44863  26.591   2.295   0.461
74264ION    CL-44864  42.774   7.925   4.078
74265ION    CL-44865   1.185  16.597   1.554
74266ION    CL-44866  26.333  43.397   0.639
74267ION    CL-44867  39.326  20.638  14.576
74268ION    CL-44868  28.691  16.871   1.230
74269ION    CL-44869  24.091  34.477   1.153
74270ION    CL-44870  27.438  43.244  10.289
74271ION    CL-44871   4.615  19.315   1.063
74272ION    CL-44872  31.182   1.707   5.221
74273ION    CL-44873  40.280  23.056   3.736
74274ION    CL-44874  40.196  17.588  10.546
74275ION    CL-44875   5.285  22.339   1.445
74276ION    CL-44876  39.997  38.745   2.088
74277ION    CL-44877   0.111  43.028  10.969
74278ION    CL-44878  39.881  35.438  13.512
74279ION    CL-44879   7.540  28.385   3.884
74280ION    CL-44880  26.960  13.591  12.614
74281ION    CL-44881   1.986  20.169   4.511
74282ION    CL-44882  16.993  41.816  10.054
74283ION    CL-44883  39.245  39.999   3.672
74284ION    CL-44884  28.625  28.401  14.613
74285ION    CL-44885  17.725   5.574   4.147
74286ION    CL-44886  27.206  44.703  14.104
74287ION    CL-44887  21.059  24.814   2.019
74288ION    CL-44888  43.041  19.360   4.072
74289ION    CL-44889  14.531  29.471  13.511
74290ION    CL-44890  14.651   1.413  14.499
74291ION    CL-44891  11.058  22.544  14.580
74292ION    CL-44892   9.910  32.412   5.100
74293ION    CL-44893  42.658  15.540   9.921
74294ION    CL-44894  29.741  15.273   3.686
74295ION    CL-44895  10.757   1.875  12.516
74296ION    CL-44896  14.683  41.192   0.760
74297ION    CL-44897   3.937  32.394  11.425
74298ION    CL-44898  24.080   0.566   2.489
74299ION    CL-44899  12.656  26.552   2.944
74300ION    CL-44900  26.733  14.038   2.483
74301ION    CL-44901  19.608  28.017  12.853
74302ION    CL-44902  32.261  35.235   0.168
74303ION    CL-44903  42.580  23.303  14.913
74304ION    CL-44904  15.274  10.851   1.674
74305ION    CL-44905   2.362   3.823   2.719
74306ION    CL-44906  37.076  14.497   0.318
74307ION    CL-44907  27.494   8.789  14.075
74308ION    CL-44908  24.333  42.653   2.064
74309ION    CL-44909  21.867  10.490  14.639
74310ION    CL-44910  28.483  31.148   1.332
74311ION    CL-44911  16.803  11.372  14.155
74312ION    CL-44912  26.264   5.515  13.452
74313ION    CL-44913  23.520  13.686   0.727
74314ION    CL-44914  24.149   8.749   0.758
74315ION    CL-44915   1.856  12.009   3.763
74316ION    CL-44916  32.774  36.793   4.988
74317ION    CL-44917  15.657  34.369   0.681
74318ION    CL-44918  18.961  31.940   4.970
74319ION    CL-44919  24.602  20.495   1.707
74320ION    CL-44920   5.872   9.555  11.360
74321ION    CL-44921  39.903  28.642   0.323
74322ION    CL-44922  32.804  15.196   2.914
74323ION    CL-44923  42.978  24.739  14.059
74324ION    CL-44924  38.776  21.668   3.767
74325ION    CL-44925  11.508  31.558  12.666
74326ION    CL-44926  10.685   5.829   2.291
74327ION    CL-44927   6.832   7.102   0.474
74328ION    CL-44928   3.412  34.338   1.246
74329ION    CL-44929   5.382  13.149   0.427
74330ION    CL-44930  17.920  17.403   5.104
74331ION    CL-44931  39.609  31.434  12.965
74332ION    CL-44932  42.820  41.768   0.471
74333ION    CL-44933  24.669   7.659  11.678
74334ION    CL-44934  44.750  37.838  11.560
74335ION    CL-44935  43.076  24.443   1.888
74336ION    CL-44936  19.488  22.328   4.254
74337ION    CL-44937  23.931   9.801   0.029
74338ION    CL-44938  18.328  28.571   0.042
74339ION    CL-44939  13.751  41.026  11.092
74340ION    CL-44940  34.374  24.274   2.489
74341ION    CL-44941  13.423  38.307   3.194
74342ION    CL-44942  13.214  17.155  11.674
74343ION    CL-44943  40.317  27.130  13.492
74344ION    CL-44944  44.775  40.499   5.221
74345ION    CL-44945   4.655  27.503  14.414
74346ION    CL-44946   6.147   7.193  13.971
74347ION    CL-44947  37.933  19.306   4.163
74348ION    CL-44948  33.044  14.731  14.596
74349ION    CL-44949  10.333  35.167   1.683
74350ION    CL-44950  26.247  13.147   3.730
74351ION    CL-44951  25.542  12.543  14.379
74352ION    CL-44952   9.150  44.021  12.473
74353ION    CL-44953   8.983  34.335   1.487
74354ION    CL-44954  26.590   5.306  14.569
74355ION    CL-44955   4.911  17.434   3.300
74356ION    CL-44956   4.371   7.031   4.003
74357ION    CL-44957  23.482  40.423  11.148
74358ION    CL-44958  14.133  36.621  10.661
74359ION    CL-44959  43.587  17.969  13.079
74360ION    CL-44960  11.491  34.178   1.735
74361ION    CL-44961  39.931  34.376   0.256
74362ION    CL-44962  44.689  17.957   0.425
74363ION    CL-44963  18.567  44.981  12.870
74364ION    CL-44964   0.820  28.443   4.635
74365ION    CL-44965  25.121  18.519   2.697
74366ION    CL-44966  11.364  40.207  10.309
74367ION    CL-44967  35.341  18.431   1.359
74368ION    CL-44968  11.920  30.137   3.918
74369ION    CL-44969  24.857  19.472  13.454
74370ION    CL-44970  18.639  25.767   2.041
74371ION    CL-44971  21.436  41.194   3.674
74372ION    CL-44972  14.519  20.461  13.853
74373ION    CL-44973  14.720   8.338   0.279
74374ION    CL-44974  36.345  12.630   4.024
74375ION    CL-44975  14.315  16.913  12.059
74376ION    CL-44976   6.848  41.944   2.772
74377ION    CL-44977  16.248   4.641   2.076
74378ION    CL-44978  33.973  34.675   0.300
74379ION    CL-44979   6.396  29.559   3.236
74380ION    CL-44980  39.568  21.151   2.874
74381ION    CL-44981  22.455  25.274   1.809
74382ION    CL-44982  12.601  24.980  13.600
74383ION    CL-44983  24.058   4.668   5.085
74384ION    CL-44984  13.663  20.713  12.053
74385ION    CL-44985   2.442   2.517   1.545
74386ION    CL-44986  24.191  14.506  11.564
74387ION    CL-44987  14.593  15.094   0.035
74388ION    CL-44988  30.078  14.538  13.665
74389ION    CL-44989  38.852  43.120  13.807
74390ION    CL-44990   3.614  22.176  11.067
74391ION    CL-44991  40.863  10.515  12.287
74392ION    CL-44992  10.827  10.503   0.930
  45.00000  45.00000  15.00000
